<event>
 5    0  0.1781295E-001  0.2429979E+03  0.7546771E-02  0.1117812E+00
         21   -1    0    0  501  502  0.00000000000E+00  0.00000000000E+00  0.15452052199E+03  0.15452052199E+03  0.00000000000E+00 0. -1.
         21   -1    0    0  502  503 -0.00000000000E+00 -0.00000000000E+00 -0.47590480939E+03  0.47590480939E+03  0.00000000000E+00 0. -1.
         25    1    1    2    0    0  0.97922806927E+02  0.20634200414E+03 -0.26000275851E+03  0.36795697197E+03  0.12500000000E+03 0.  0.
          3    1    1    2  501    0  0.90112135847E+01 -0.52608393431E+02  0.21676818217E+02  0.57608414990E+02  0.00000000000E+00 0.  1.
         -3    1    1    2    0  503 -0.10693402051E+03 -0.15373361070E+03 -0.83058347104E+02  0.20485994442E+03  0.00000000000E+00 0. -1.
<mgrwt>
<rscale>  4 0.24299794E+03</rscale>
<asrwt>0</asrwt>
<pdfrwt beam="1">  1       21 0.23772388E-01 0.24299794E+03</pdfrwt>
<pdfrwt beam="2">  1       21 0.73216123E-01 0.24299794E+03</pdfrwt>
<totfact> 0.27236503E+04</totfact>
</mgrwt>
</event>
<event>
 5    0  0.1781295E-001  0.2634823E+03  0.7546771E-02  0.1105069E+00
         21   -1    0    0  501  502  0.00000000000E+00  0.00000000000E+00  0.30820226662E+04  0.30820226662E+04  0.00000000000E+00 0. -1.
         21   -1    0    0  502  503 -0.00000000000E+00 -0.00000000000E+00 -0.21440910412E+02  0.21440910412E+02  0.00000000000E+00 0. -1.
         25    1    1    2    0    0  0.16512214685E+03  0.16288825051E+03  0.13279215468E+04  0.13538089008E+04  0.12500000000E+03 0.  0.
          2    1    1    2  501    0 -0.44983468854E+02 -0.20888717030E+02  0.57632747373E+03  0.57845761119E+03  0.00000000000E+00 0.  1.
         -2    1    1    2    0  503 -0.12013867800E+03 -0.14199953348E+03  0.11563327353E+04  0.11711970646E+04  0.00000000000E+00 0. -1.
<mgrwt>
<rscale>  4 0.26348227E+03</rscale>
<asrwt>0</asrwt>
<pdfrwt beam="1">  1       21 0.47415698E+00 0.26348227E+03</pdfrwt>
<pdfrwt beam="2">  1       21 0.32986040E-02 0.26348227E+03</pdfrwt>
<totfact> 0.14088878E+03</totfact>
</mgrwt>
</event>
<event>
 5    0  0.1781295E-001  0.2273221E+03  0.7546771E-02  0.1128539E+00
         21   -1    0    0  501  502  0.00000000000E+00  0.00000000000E+00  0.26231537423E+04  0.26231537423E+04  0.00000000000E+00 0. -1.
         21   -1    0    0  502  503 -0.00000000000E+00 -0.00000000000E+00 -0.27194788123E+02  0.27194788123E+02  0.00000000000E+00 0. -1.
         25    1    1    2    0    0  0.60515878257E+02 -0.19146466540E+03  0.92385061208E+03  0.95364870003E+03  0.12500000000E+03 0.  0.
          2    1    1    2  501    0 -0.68374780785E+02  0.16885155778E+03  0.67053362411E+03  0.69483904631E+03  0.00000000000E+00 0. -1.
         -2    1    1    2    0  503  0.78589025282E+01  0.22613107623E+02  0.10015747180E+04  0.10018607841E+04  0.00000000000E+00 0.  1.
<mgrwt>
<rscale>  4 0.22732209E+03</rscale>
<asrwt>0</asrwt>
<pdfrwt beam="1">  1       21 0.40356192E+00 0.22732209E+03</pdfrwt>
<pdfrwt beam="2">  1       21 0.41838156E-02 0.22732209E+03</pdfrwt>
<totfact> 0.28731004E+03</totfact>
</mgrwt>
</event>
<event>
 5    0  0.1781295E-001  0.2564929E+03  0.7546771E-02  0.1109269E+00
         21   -1    0    0  501  502  0.00000000000E+00  0.00000000000E+00  0.20032713052E+03  0.20032713052E+03  0.00000000000E+00 0. -1.
         21   -1    0    0  502  503 -0.00000000000E+00 -0.00000000000E+00 -0.46918270581E+03  0.46918270581E+03  0.00000000000E+00 0. -1.
         25    1    1    2    0    0  0.18201507029E+03  0.13051478037E+03 -0.33922001409E+03  0.42527498359E+03  0.12500000000E+03 0.  0.
          4    1    1    2  501    0 -0.11506920085E+03 -0.11825562461E+03  0.59007718590E+02  0.17523476992E+03  0.00000000000E+00 0. -1.
         -4    1    1    2    0  503 -0.66945869447E+02 -0.12259155763E+02  0.11356720213E+02  0.69000082827E+02  0.00000000000E+00 0.  1.
<mgrwt>
<rscale>  4 0.25649287E+03</rscale>
<asrwt>0</asrwt>
<pdfrwt beam="1">  1       21 0.30819558E-01 0.25649287E+03</pdfrwt>
<pdfrwt beam="2">  1       21 0.72181955E-01 0.25649287E+03</pdfrwt>
<totfact> 0.16889187E+04</totfact>
</mgrwt>
</event>
<event>
 5    0  0.1781295E-001  0.2568847E+03  0.7546771E-02  0.1109030E+00
         21   -1    0    0  501  502  0.00000000000E+00  0.00000000000E+00  0.43215418666E+03  0.43215418666E+03  0.00000000000E+00 0. -1.
         21   -1    0    0  502  503 -0.00000000000E+00 -0.00000000000E+00 -0.35049269980E+03  0.35049269980E+03  0.00000000000E+00 0. -1.
         25    1    1    2    0    0 -0.29884553713E+02 -0.23585053781E+03 -0.10760754163E+03  0.28934917617E+03  0.12500000000E+03 0.  0.
          2    1    1    2  501    0  0.30735533477E+02  0.21708459831E+02  0.26386402430E+03  0.26653358807E+03  0.00000000000E+00 0.  1.
         -2    1    1    2    0  503 -0.85097976403E+00  0.21414207798E+03 -0.74594995808E+02  0.22676412222E+03  0.00000000000E+00 0. -1.
<mgrwt>
<rscale>  4 0.25688472E+03</rscale>
<asrwt>0</asrwt>
<pdfrwt beam="1">  1       21 0.66485259E-01 0.25688472E+03</pdfrwt>
<pdfrwt beam="2">  1       21 0.53921954E-01 0.25688472E+03</pdfrwt>
<totfact> 0.64666465E+03</totfact>
</mgrwt>
</event>
<event>
 5    0  0.1781295E-001  0.3097219E+03  0.7546771E-02  0.1080479E+00
         21   -1    0    0  501  502  0.00000000000E+00  0.00000000000E+00  0.90706775248E+02  0.90706775248E+02  0.00000000000E+00 0. -1.
         21   -1    0    0  502  503 -0.00000000000E+00 -0.00000000000E+00 -0.14346541871E+04  0.14346541871E+04  0.00000000000E+00 0. -1.
         25    1    1    2    0    0  0.11389520889E+03  0.25948126199E+03 -0.26180756988E+03  0.40555005558E+03  0.12500000000E+03 0.  0.
          4    1    1    2  501    0 -0.80234838444E+01 -0.21839463584E+02 -0.46523219156E+02  0.52016808661E+02  0.00000000000E+00 0.  1.
         -4    1    1    2    0  503 -0.10587172505E+03 -0.23764179840E+03 -0.10356166228E+04  0.10677940981E+04  0.00000000000E+00 0. -1.
<mgrwt>
<rscale>  4 0.30972188E+03</rscale>
<asrwt>0</asrwt>
<pdfrwt beam="1">  1       21 0.13954889E-01 0.30972188E+03</pdfrwt>
<pdfrwt beam="2">  1       21 0.22071602E+00 0.30972188E+03</pdfrwt>
<totfact> 0.40633818E+03</totfact>
</mgrwt>
</event>
<event>
 5    0  0.1781295E-001  0.3957167E+03  0.7546771E-02  0.1045583E+00
         21   -1    0    0  501  502  0.00000000000E+00  0.00000000000E+00  0.22770632003E+03  0.22770632003E+03  0.00000000000E+00 0. -1.
         21   -1    0    0  502  503 -0.00000000000E+00 -0.00000000000E+00 -0.68315259935E+03  0.68315259935E+03  0.00000000000E+00 0. -1.
         25    1    1    2    0    0  0.89514108832E+02 -0.36080464609E+03 -0.20490439569E+03  0.44249698269E+03  0.12500000000E+03 0.  0.
          1    1    1    2  501    0  0.12344684741E+02  0.19076204566E+03 -0.16481588504E+03  0.25240211027E+03  0.00000000000E+00 0.  1.
         -1    1    1    2    0  503 -0.10185879357E+03  0.17004260043E+03 -0.85725998596E+02  0.21595982641E+03  0.00000000000E+00 0. -1.
<mgrwt>
<rscale>  4 0.39483356E+03</rscale>
<asrwt>0</asrwt>
<pdfrwt beam="1">  1       21 0.35031742E-01 0.39571665E+03</pdfrwt>
<pdfrwt beam="2">  1       21 0.10510040E+00 0.39571665E+03</pdfrwt>
<totfact> 0.51244221E+03</totfact>
</mgrwt>
</event>
<event>
 5    0  0.1781295E-001  0.2681045E+03  0.7546771E-02  0.1102369E+00
         21   -1    0    0  501  502  0.00000000000E+00  0.00000000000E+00  0.21309563076E+03  0.21309563076E+03  0.00000000000E+00 0. -1.
         21   -1    0    0  502  503 -0.00000000000E+00 -0.00000000000E+00 -0.30734788130E+03  0.30734788130E+03  0.00000000000E+00 0. -1.
         25    1    1    2    0    0  0.14097390149E+03  0.19073897169E+03 -0.59174069816E+02  0.27455703735E+03  0.12500000000E+03 0.  0.
          1    1    1    2  501    0 -0.11027853092E+03 -0.12076669943E+03 -0.45514490025E+01  0.16360521313E+03  0.00000000000E+00 0. -1.
         -1    1    1    2    0  503 -0.30695370561E+02 -0.69972272251E+02 -0.30526731726E+02  0.82281261583E+02  0.00000000000E+00 0.  1.
<mgrwt>
<rscale>  4 0.26810445E+03</rscale>
<asrwt>0</asrwt>
<pdfrwt beam="1">  1       21 0.32783943E-01 0.26810445E+03</pdfrwt>
<pdfrwt beam="2">  1       21 0.47284289E-01 0.26810445E+03</pdfrwt>
<totfact> 0.37014773E+04</totfact>
</mgrwt>
</event>
<event>
 5    0  0.1781295E-001  0.2151633E+03  0.7546771E-02  0.1137541E+00
         21   -1    0    0  501  502  0.00000000000E+00  0.00000000000E+00  0.48717346187E+02  0.48717346187E+02  0.00000000000E+00 0. -1.
         21   -1    0    0  502  503 -0.00000000000E+00 -0.00000000000E+00 -0.19011783340E+04  0.19011783340E+04  0.00000000000E+00 0. -1.
         25    1    1    2    0    0  0.14815321259E+03  0.16556521264E+03 -0.38832556457E+03  0.46452444299E+03  0.12500000000E+03 0.  0.
          1    1    1    2  501    0 -0.10404356272E+03 -0.13266090664E+03 -0.13260442594E+04  0.13367188774E+04  0.00000000000E+00 0. -1.
         -1    1    1    2    0  503 -0.44109649871E+02 -0.32904306000E+02 -0.13809116381E+03  0.14865235985E+03  0.00000000000E+00 0.  1.
<mgrwt>
<rscale>  4 0.21516334E+03</rscale>
<asrwt>0</asrwt>
<pdfrwt beam="1">  1       21 0.74949756E-02 0.21516334E+03</pdfrwt>
<pdfrwt beam="2">  1       21 0.29248900E+00 0.21516334E+03</pdfrwt>
<totfact> 0.49449370E+03</totfact>
</mgrwt>
</event>
<event>
 5    0  0.1781295E-001  0.2405345E+03  0.7546771E-02  0.1119437E+00
         21   -1    0    0  501  502  0.00000000000E+00  0.00000000000E+00  0.37353080838E+02  0.37353080838E+02  0.00000000000E+00 0. -1.
         21   -1    0    0  502  503 -0.00000000000E+00 -0.00000000000E+00 -0.16811601901E+04  0.16811601901E+04  0.00000000000E+00 0. -1.
         25    1    1    2    0    0  0.13887556217E+03  0.15147741247E+03 -0.11856062816E+04  0.12097599279E+04  0.12500000000E+03 0.  0.
          3    1    1    2  501    0 -0.10867680836E+03 -0.87983889201E+02 -0.37263787234E+03  0.39800853927E+03  0.00000000000E+00 0. -1.
         -3    1    1    2    0  503 -0.30198753807E+02 -0.63493523269E+02 -0.85562955289E+02  0.11074480370E+03  0.00000000000E+00 0.  1.
<mgrwt>
<rscale>  4 0.24053446E+03</rscale>
<asrwt>0</asrwt>
<pdfrwt beam="1">  1       21 0.57466274E-02 0.24053446E+03</pdfrwt>
<pdfrwt beam="2">  1       21 0.25864005E+00 0.24053446E+03</pdfrwt>
<totfact> 0.12049591E+04</totfact>
</mgrwt>
</event>
<event>
 5    0  0.1781295E-001  0.2682390E+03  0.7546771E-02  0.1102292E+00
         21   -1    0    0  501  502  0.00000000000E+00  0.00000000000E+00  0.93165554201E+03  0.93165554201E+03  0.00000000000E+00 0. -1.
         21   -1    0    0  502  503 -0.00000000000E+00 -0.00000000000E+00 -0.75618084134E+02  0.75618084134E+02  0.00000000000E+00 0. -1.
         25    1    1    2    0    0  0.21691712616E+03 -0.96302257426E+02  0.30414081778E+03  0.40552903896E+03  0.12500000000E+03 0.  0.
          4    1    1    2  501    0 -0.31481701898E+02  0.15595180845E+01  0.76730310556E+02  0.82952216420E+02  0.00000000000E+00 0.  1.
         -4    1    1    2    0  503 -0.18543542426E+03  0.94742739342E+02  0.47516632954E+03  0.51879237076E+03  0.00000000000E+00 0. -1.
<mgrwt>
<rscale>  4 0.26823901E+03</rscale>
<asrwt>0</asrwt>
<pdfrwt beam="1">  1       21 0.14333161E+00 0.26823901E+03</pdfrwt>
<pdfrwt beam="2">  1       21 0.11633552E-01 0.26823901E+03</pdfrwt>
<totfact> 0.19984980E+04</totfact>
</mgrwt>
</event>
<event>
 5    0  0.1781295E-001  0.2223191E+03  0.7546771E-02  0.1132166E+00
         21   -1    0    0  501  502  0.00000000000E+00  0.00000000000E+00  0.69732596348E+02  0.69732596348E+02  0.00000000000E+00 0. -1.
         21   -1    0    0  502  503 -0.00000000000E+00 -0.00000000000E+00 -0.16631093415E+04  0.16631093415E+04  0.00000000000E+00 0. -1.
         25    1    1    2    0    0 -0.56186378393E+02 -0.22662633977E+03 -0.34740867248E+03  0.43684573102E+03  0.12500000000E+03 0.  0.
          3    1    1    2  501    0 -0.61507068953E+02  0.11949767022E+03 -0.95444204776E+03  0.96385809913E+03  0.00000000000E+00 0. -1.
         -3    1    1    2    0  503  0.11769344735E+03  0.10712866955E+03 -0.29152602489E+03  0.33213810768E+03  0.00000000000E+00 0.  1.
<mgrwt>
<rscale>  4 0.22231907E+03</rscale>
<asrwt>0</asrwt>
<pdfrwt beam="1">  1       21 0.10728093E-01 0.22231907E+03</pdfrwt>
<pdfrwt beam="2">  1       21 0.25586295E+00 0.22231907E+03</pdfrwt>
<totfact> 0.42712336E+03</totfact>
</mgrwt>
</event>
<event>
 5    0  0.1781295E-001  0.2631199E+03  0.7546771E-02  0.1105283E+00
         21   -1    0    0  501  502  0.00000000000E+00  0.00000000000E+00  0.48779253542E+03  0.48779253542E+03  0.00000000000E+00 0.  1.
         21   -1    0    0  502  503 -0.00000000000E+00 -0.00000000000E+00 -0.15197381468E+03  0.15197381468E+03  0.00000000000E+00 0. -1.
         25    1    1    2    0    0 -0.19008424173E+03 -0.13219333996E+03  0.30386959787E+03  0.40195625458E+03  0.12500000000E+03 0.  0.
          1    1    1    2  501    0  0.34426391555E+02  0.60525168482E+01  0.17839901819E+00  0.34954845471E+02  0.00000000000E+00 0.  1.
         -1    1    1    2    0  503  0.15565785018E+03  0.12614082311E+03  0.31770723847E+02  0.20285525004E+03  0.00000000000E+00 0. -1.
<mgrwt>
<rscale>  4 0.26311993E+03</rscale>
<asrwt>0</asrwt>
<pdfrwt beam="1">  1       21 0.75045005E-01 0.26311993E+03</pdfrwt>
<pdfrwt beam="2">  1       21 0.23380587E-01 0.26311993E+03</pdfrwt>
<totfact> 0.26359623E+04</totfact>
</mgrwt>
</event>
<event>
 5    0  0.1781295E-001  0.2707301E+03  0.7546771E-02  0.1100862E+00
         21   -1    0    0  501  502  0.00000000000E+00  0.00000000000E+00  0.93051525742E+03  0.93051525742E+03  0.00000000000E+00 0.  1.
         21   -1    0    0  502  503 -0.00000000000E+00 -0.00000000000E+00 -0.18457166579E+03  0.18457166579E+03  0.00000000000E+00 0.  1.
         25    1    1    2    0    0 -0.28740883279E+03 -0.22053016835E+02  0.72475874030E+03  0.78993063262E+03  0.12500000000E+03 0.  0.
          1    1    1    2  501    0  0.12343103667E+03 -0.17001626739E+01 -0.63786756770E+02  0.13894913352E+03  0.00000000000E+00 0. -1.
         -1    1    1    2    0  503  0.16397779613E+03  0.23753179509E+02  0.84971608109E+02  0.18620715707E+03  0.00000000000E+00 0.  1.
<mgrwt>
<rscale>  4 0.27073007E+03</rscale>
<asrwt>0</asrwt>
<pdfrwt beam="1">  1       21 0.14315619E+00 0.27073007E+03</pdfrwt>
<pdfrwt beam="2">  1       21 0.28395641E-01 0.27073007E+03</pdfrwt>
<totfact> 0.37781136E+03</totfact>
</mgrwt>
</event>
<event>
 5    0  0.1781295E-001  0.3465694E+03  0.7546771E-02  0.1064032E+00
         21   -1    0    0  501  502  0.00000000000E+00  0.00000000000E+00  0.37522207184E+03  0.37522207184E+03  0.00000000000E+00 0. -1.
         21   -1    0    0  502  503 -0.00000000000E+00 -0.00000000000E+00 -0.49501853332E+03  0.49501853332E+03  0.00000000000E+00 0.  1.
         25    1    1    2    0    0 -0.32150726933E+03 -0.39848914080E+02  0.17528135830E+03  0.38897739620E+03  0.12500000000E+03 0.  0.
          3    1    1    2  501    0 -0.21362898101E+01  0.50014290947E+02 -0.12741224403E+02  0.51655898331E+02  0.00000000000E+00 0. -1.
         -3    1    1    2    0  503  0.32364355914E+03 -0.10165376866E+02 -0.28233659537E+03  0.42960731063E+03  0.00000000000E+00 0.  1.
<mgrwt>
<rscale>  4 0.34656937E+03</rscale>
<asrwt>0</asrwt>
<pdfrwt beam="1">  1       21 0.57726473E-01 0.34656937E+03</pdfrwt>
<pdfrwt beam="2">  1       21 0.76156697E-01 0.34656937E+03</pdfrwt>
<totfact> 0.39399641E+03</totfact>
</mgrwt>
</event>
<event>
 5    0  0.1781295E-001  0.2428280E+03  0.7546771E-02  0.1117923E+00
         21   -1    0    0  501  502  0.00000000000E+00  0.00000000000E+00  0.24302241861E+03  0.24302241861E+03  0.00000000000E+00 0. -1.
         21   -1    0    0  502  503 -0.00000000000E+00 -0.00000000000E+00 -0.27629069284E+03  0.27629069284E+03  0.00000000000E+00 0. -1.
         25    1    1    2    0    0  0.11943643714E+03 -0.17051502905E+03 -0.13758429927E+03  0.27909653716E+03  0.12500000000E+03 0.  0.
          1    1    1    2  501    0 -0.62808280556E+02  0.76381964304E+02  0.81205102267E+02  0.12795840422E+03  0.00000000000E+00 0.  1.
         -1    1    1    2    0  503 -0.56628156581E+02  0.94133064745E+02  0.23110922767E+02  0.11225817007E+03  0.00000000000E+00 0. -1.
<mgrwt>
<rscale>  4 0.24282800E+03</rscale>
<asrwt>0</asrwt>
<pdfrwt beam="1">  1       21 0.37388064E-01 0.24282800E+03</pdfrwt>
<pdfrwt beam="2">  1       21 0.42506260E-01 0.24282800E+03</pdfrwt>
<totfact> 0.35849610E+04</totfact>
</mgrwt>
</event>
<event>
 5    0  0.1781295E-001  0.2540455E+03  0.7546771E-02  0.1110775E+00
         21   -1    0    0  501  502  0.00000000000E+00  0.00000000000E+00  0.32080028850E+04  0.32080028850E+04  0.00000000000E+00 0. -1.
         21   -1    0    0  502  503 -0.00000000000E+00 -0.00000000000E+00 -0.26970437824E+02  0.26970437824E+02  0.00000000000E+00 0. -1.
         25    1    1    2    0    0  0.27321654410E+02  0.22671513758E+03  0.24005382218E+04  0.24146128014E+04  0.12500000000E+03 0.  0.
          4    1    1    2  501    0  0.12409048418E+02 -0.20571098186E+03  0.60209616559E+03  0.63638886316E+03  0.00000000000E+00 0. -1.
         -4    1    1    2    0  503 -0.39730702828E+02 -0.21004155723E+02  0.17839805979E+03  0.18397165825E+03  0.00000000000E+00 0.  1.
<mgrwt>
<rscale>  4 0.25404546E+03</rscale>
<asrwt>0</asrwt>
<pdfrwt beam="1">  1       21 0.49353860E+00 0.25404546E+03</pdfrwt>
<pdfrwt beam="2">  1       21 0.41493007E-02 0.25404546E+03</pdfrwt>
<totfact> 0.71018774E+02</totfact>
</mgrwt>
</event>
<event>
 5    0  0.1781295E-001  0.3229474E+03  0.7546771E-02  0.1074301E+00
         21   -1    0    0  501  502  0.00000000000E+00  0.00000000000E+00  0.11058561748E+04  0.11058561748E+04  0.00000000000E+00 0. -1.
         21   -1    0    0  502  503 -0.00000000000E+00 -0.00000000000E+00 -0.13196239147E+03  0.13196239147E+03  0.00000000000E+00 0.  1.
         25    1    1    2    0    0 -0.17647581239E+03 -0.23984647932E+03  0.84606287364E+03  0.90560335255E+03  0.12500000000E+03 0.  0.
          1    1    1    2  501    0  0.15176148316E+03  0.17790897522E+03  0.70411353793E+02  0.24421488484E+03  0.00000000000E+00 0.  1.
         -1    1    1    2    0  503  0.24714329233E+02  0.61937504099E+02  0.57419555907E+02  0.88000328886E+02  0.00000000000E+00 0. -1.
<mgrwt>
<rscale>  4 0.32294744E+03</rscale>
<asrwt>0</asrwt>
<pdfrwt beam="1">  1       21 0.17013171E+00 0.32294744E+03</pdfrwt>
<pdfrwt beam="2">  1       21 0.20301907E-01 0.32294744E+03</pdfrwt>
<totfact> 0.43691078E+03</totfact>
</mgrwt>
</event>
<event>
 5    0  0.1781295E-001  0.2436851E+03  0.7546771E-02  0.1117362E+00
         21   -1    0    0  501  502  0.00000000000E+00  0.00000000000E+00  0.75914790137E+02  0.75914790137E+02  0.00000000000E+00 0. -1.
         21   -1    0    0  502  503 -0.00000000000E+00 -0.00000000000E+00 -0.86968892482E+03  0.86968892482E+03  0.00000000000E+00 0. -1.
         25    1    1    2    0    0 -0.20778789715E+03  0.24116690027E+02 -0.62325167449E+03  0.66919733614E+03  0.12500000000E+03 0.  0.
          1    1    1    2  501    0  0.20849374566E+02  0.42855722582E+01  0.73081149347E+00  0.21297808216E+02  0.00000000000E+00 0.  1.
         -1    1    1    2    0  503  0.18693852259E+03 -0.28402262286E+02 -0.17125327169E+03  0.25510857060E+03  0.00000000000E+00 0. -1.
<mgrwt>
<rscale>  4 0.24368509E+03</rscale>
<asrwt>0</asrwt>
<pdfrwt beam="1">  1       21 0.11679199E-01 0.24368509E+03</pdfrwt>
<pdfrwt beam="2">  1       21 0.13379829E+00 0.24368509E+03</pdfrwt>
<totfact> 0.24028676E+04</totfact>
</mgrwt>
</event>
<event>
 5    0  0.1781295E-001  0.2514019E+03  0.7546771E-02  0.1112422E+00
         21   -1    0    0  501  502  0.00000000000E+00  0.00000000000E+00  0.11164112794E+04  0.11164112794E+04  0.00000000000E+00 0.  1.
         21   -1    0    0  502  503 -0.00000000000E+00 -0.00000000000E+00 -0.81496591166E+02  0.81496591166E+02  0.00000000000E+00 0.  1.
         25    1    1    2    0    0 -0.11808977357E+03  0.19910191850E+03  0.21555943354E+03  0.34011415431E+03  0.12500000000E+03 0.  0.
          2    1    1    2  501    0  0.10667574865E+03 -0.16121207461E+03  0.50121017252E+03  0.53719706383E+03  0.00000000000E+00 0.  1.
         -2    1    1    2    0  503  0.11414024922E+02 -0.37889843898E+02  0.31814508217E+03  0.32059665243E+03  0.00000000000E+00 0. -1.
<mgrwt>
<rscale>  4 0.25140192E+03</rscale>
<asrwt>0</asrwt>
<pdfrwt beam="1">  1       21 0.17175557E+00 0.25140192E+03</pdfrwt>
<pdfrwt beam="2">  1       21 0.12537938E-01 0.25140192E+03</pdfrwt>
<totfact> 0.10797439E+04</totfact>
</mgrwt>
</event>
<event>
 5    0  0.1781295E-001  0.2416697E+03  0.7546771E-02  0.1118686E+00
         21   -1    0    0  501  502  0.00000000000E+00  0.00000000000E+00  0.84738542786E+03  0.84738542786E+03  0.00000000000E+00 0.  1.
         21   -1    0    0  502  503 -0.00000000000E+00 -0.00000000000E+00 -0.93303456948E+02  0.93303456948E+02  0.00000000000E+00 0. -1.
         25    1    1    2    0    0  0.15911253723E+03  0.13214548424E+03  0.67119206695E+03  0.71337438925E+03  0.12500000000E+03 0.  0.
          4    1    1    2  501    0 -0.53112186960E+02 -0.71526258560E+02  0.27565400435E+02  0.93256428027E+02  0.00000000000E+00 0.  1.
         -4    1    1    2    0  503 -0.10600035027E+03 -0.60619225675E+02  0.55324503529E+02  0.13405806753E+03  0.00000000000E+00 0. -1.
<mgrwt>
<rscale>  4 0.24166967E+03</rscale>
<asrwt>0</asrwt>
<pdfrwt beam="1">  1       21 0.13036698E+00 0.24166967E+03</pdfrwt>
<pdfrwt beam="2">  1       21 0.14354379E-01 0.24166967E+03</pdfrwt>
<totfact> 0.17697928E+04</totfact>
</mgrwt>
</event>
<event>
 5    0  0.1781295E-001  0.2165560E+03  0.7546771E-02  0.1136477E+00
         21   -1    0    0  501  502  0.00000000000E+00  0.00000000000E+00  0.76339355404E+03  0.76339355404E+03  0.00000000000E+00 0.  1.
         21   -1    0    0  502  503 -0.00000000000E+00 -0.00000000000E+00 -0.77960674523E+02  0.77960674523E+02  0.00000000000E+00 0.  1.
         25    1    1    2    0    0  0.18287143056E+03  0.86823739365E+02  0.42128911275E+03  0.48382831496E+03  0.12500000000E+03 0.  0.
          4    1    1    2  501    0 -0.42608062065E+02  0.59424895591E+01  0.14548451158E+03  0.15171190871E+03  0.00000000000E+00 0. -1.
         -4    1    1    2    0  503 -0.14026336849E+03 -0.92766228925E+02  0.11865925519E+03  0.20581400490E+03  0.00000000000E+00 0.  1.
<mgrwt>
<rscale>  4 0.21655597E+03</rscale>
<asrwt>0</asrwt>
<pdfrwt beam="1">  1       21 0.11744516E+00 0.21655597E+03</pdfrwt>
<pdfrwt beam="2">  1       21 0.11993950E-01 0.21655597E+03</pdfrwt>
<totfact> 0.32269272E+04</totfact>
</mgrwt>
</event>
<event>
 5    0  0.1781295E-001  0.2464748E+03  0.7546771E-02  0.1115553E+00
         21   -1    0    0  501  502  0.00000000000E+00  0.00000000000E+00  0.17943100481E+03  0.17943100481E+03  0.00000000000E+00 0. -1.
         21   -1    0    0  502  503 -0.00000000000E+00 -0.00000000000E+00 -0.30156889405E+03  0.30156889405E+03  0.00000000000E+00 0. -1.
         25    1    1    2    0    0 -0.78025326989E+02 -0.19757745828E+03 -0.73019207806E+02  0.25706343260E+03  0.12500000000E+03 0.  0.
          3    1    1    2  501    0  0.72765243433E+02  0.12109979883E+03 -0.24253955567E+02  0.14334642057E+03  0.00000000000E+00 0.  1.
         -3    1    1    2    0  503  0.52600835561E+01  0.76477659444E+02 -0.24864725860E+02  0.80590045695E+02  0.00000000000E+00 0. -1.
<mgrwt>
<rscale>  4 0.24647475E+03</rscale>
<asrwt>0</asrwt>
<pdfrwt beam="1">  1       21 0.27604770E-01 0.24647475E+03</pdfrwt>
<pdfrwt beam="2">  1       21 0.46395214E-01 0.24647475E+03</pdfrwt>
<totfact> 0.54427527E+04</totfact>
</mgrwt>
</event>
<event>
 5    0  0.1781295E-001  0.2872450E+03  0.7546771E-02  0.1091796E+00
         21   -1    0    0  501  502  0.00000000000E+00  0.00000000000E+00  0.63580944950E+02  0.63580944950E+02  0.00000000000E+00 0. -1.
         21   -1    0    0  502  503 -0.00000000000E+00 -0.00000000000E+00 -0.12318978103E+04  0.12318978103E+04  0.00000000000E+00 0. -1.
         25    1    1    2    0    0 -0.22644074826E+03 -0.12493717560E+03 -0.62099168257E+03  0.68420784864E+03  0.12500000000E+03 0.  0.
          2    1    1    2  501    0  0.74044370912E+02  0.20761170055E+02 -0.91741988723E+02  0.11970876134E+03  0.00000000000E+00 0. -1.
         -2    1    1    2    0  503  0.15239637734E+03  0.10417600555E+03 -0.45558319403E+03  0.49156214525E+03  0.00000000000E+00 0.  1.
<mgrwt>
<rscale>  4 0.28724504E+03</rscale>
<asrwt>0</asrwt>
<pdfrwt beam="1">  1       21 0.97816849E-02 0.28724504E+03</pdfrwt>
<pdfrwt beam="2">  1       21 0.18952272E+00 0.28724504E+03</pdfrwt>
<totfact> 0.12447584E+04</totfact>
</mgrwt>
</event>
<event>
 5    0  0.1781295E-001  0.2377157E+03  0.7546771E-02  0.1121324E+00
         21   -1    0    0  501  502  0.00000000000E+00  0.00000000000E+00  0.38372836405E+03  0.38372836405E+03  0.00000000000E+00 0.  1.
         21   -1    0    0  502  503 -0.00000000000E+00 -0.00000000000E+00 -0.17205334771E+03  0.17205334771E+03  0.00000000000E+00 0. -1.
         25    1    1    2    0    0  0.19924202573E+03 -0.34443794511E+02  0.25252893583E+03  0.34681352804E+03  0.12500000000E+03 0.  0.
          4    1    1    2  501    0 -0.38173759760E+02  0.43851501133E+01 -0.21362497091E+02  0.43963868775E+02  0.00000000000E+00 0.  1.
         -4    1    1    2    0  503 -0.16106826597E+03  0.30058644397E+02 -0.19491422398E+02  0.16500431495E+03  0.00000000000E+00 0. -1.
<mgrwt>
<rscale>  4 0.23771571E+03</rscale>
<asrwt>0</asrwt>
<pdfrwt beam="1">  1       21 0.59035133E-01 0.23771571E+03</pdfrwt>
<pdfrwt beam="2">  1       21 0.26469746E-01 0.23771571E+03</pdfrwt>
<totfact> 0.35619910E+04</totfact>
</mgrwt>
</event>
<event>
 5    0  0.1781295E-001  0.2572039E+03  0.7546771E-02  0.1108835E+00
         21   -1    0    0  501  502  0.00000000000E+00  0.00000000000E+00  0.56108543411E+03  0.56108543411E+03  0.00000000000E+00 0.  1.
         21   -1    0    0  502  503 -0.00000000000E+00 -0.00000000000E+00 -0.54243183794E+03  0.54243183794E+03  0.00000000000E+00 0. -1.
         25    1    1    2    0    0  0.18957631854E+03 -0.12389052628E+03  0.48547853317E+03  0.55009312777E+03  0.12500000000E+03 0.  0.
          1    1    1    2  501    0 -0.21029196858E+03  0.56647243379E+02 -0.28666571632E+03  0.36001229861E+03  0.00000000000E+00 0.  1.
         -1    1    1    2    0  503  0.20715650047E+02  0.67243282900E+02 -0.18015922067E+03  0.19341184567E+03  0.00000000000E+00 0. -1.
<mgrwt>
<rscale>  4 0.25720389E+03</rscale>
<asrwt>0</asrwt>
<pdfrwt beam="1">  1       21 0.86320837E-01 0.25720389E+03</pdfrwt>
<pdfrwt beam="2">  1       21 0.83451051E-01 0.25720389E+03</pdfrwt>
<totfact> 0.13688269E+03</totfact>
</mgrwt>
</event>
<event>
 5    0  0.1781295E-001  0.2060874E+03  0.7546771E-02  0.1144702E+00
         21   -1    0    0  501  502  0.00000000000E+00  0.00000000000E+00  0.78049379206E+02  0.78049379206E+02  0.00000000000E+00 0.  1.
         21   -1    0    0  502  503 -0.00000000000E+00 -0.00000000000E+00 -0.88682621116E+03  0.88682621116E+03  0.00000000000E+00 0.  1.
         25    1    1    2    0    0  0.22152668036E+03  0.51842003709E+02 -0.37740812972E+03  0.45806501704E+03  0.12500000000E+03 0.  0.
          3    1    1    2  501    0 -0.12685443865E+03 -0.67472642769E+02 -0.35881700796E+03  0.38651552534E+03  0.00000000000E+00 0.  1.
         -3    1    1    2    0  503 -0.94672241707E+02  0.15630639060E+02 -0.72551694263E+02  0.12029504798E+03  0.00000000000E+00 0. -1.
<mgrwt>
<rscale>  4 0.20608736E+03</rscale>
<asrwt>0</asrwt>
<pdfrwt beam="1">  1       21 0.12007598E-01 0.20608736E+03</pdfrwt>
<pdfrwt beam="2">  1       21 0.13643479E+00 0.20608736E+03</pdfrwt>
<totfact> 0.22222323E+04</totfact>
</mgrwt>
</event>
<event>
 5    0  0.1781295E-001  0.3052967E+03  0.7546771E-02  0.1082622E+00
         21   -1    0    0  501  502  0.00000000000E+00  0.00000000000E+00  0.10694148361E+04  0.10694148361E+04  0.00000000000E+00 0. -1.
         21   -1    0    0  502  503 -0.00000000000E+00 -0.00000000000E+00 -0.96675417679E+02  0.96675417679E+02  0.00000000000E+00 0. -1.
         25    1    1    2    0    0 -0.74459154463E+02 -0.26839689748E+03  0.27671757488E+03  0.41204208099E+03  0.12500000000E+03 0.  0.
          4    1    1    2  501    0  0.56660480088E+02  0.10871726874E+03  0.22290496949E+03  0.25439433946E+03  0.00000000000E+00 0.  1.
         -4    1    1    2    0  503  0.17798674375E+02  0.15967962874E+03  0.47311687405E+03  0.49965383332E+03  0.00000000000E+00 0. -1.
<mgrwt>
<rscale>  4 0.30529668E+03</rscale>
<asrwt>0</asrwt>
<pdfrwt beam="1">  1       21 0.16452535E+00 0.30529668E+03</pdfrwt>
<pdfrwt beam="2">  1       21 0.14873142E-01 0.30529668E+03</pdfrwt>
<totfact> 0.86498619E+03</totfact>
</mgrwt>
</event>
<event>
 5    0  0.1781295E-001  0.2362837E+03  0.7546771E-02  0.1122294E+00
         21   -1    0    0  501  502  0.00000000000E+00  0.00000000000E+00  0.16758362221E+04  0.16758362221E+04  0.00000000000E+00 0. -1.
         21   -1    0    0  502  503 -0.00000000000E+00 -0.00000000000E+00 -0.49775382137E+02  0.49775382137E+02  0.00000000000E+00 0. -1.
         25    1    1    2    0    0 -0.33859335856E+00  0.20051156831E+03  0.29025994688E+03  0.37427375066E+03  0.12500000000E+03 0.  0.
          1    1    1    2  501    0 -0.17344405708E+02 -0.70216125883E+02  0.52073175237E+03  0.52573062558E+03  0.00000000000E+00 0.  1.
         -1    1    1    2    0  503  0.17682999066E+02 -0.13029544243E+03  0.81506914067E+03  0.82560722795E+03  0.00000000000E+00 0. -1.
<mgrwt>
<rscale>  4 0.23628374E+03</rscale>
<asrwt>0</asrwt>
<pdfrwt beam="1">  1       21 0.25782091E+00 0.23628374E+03</pdfrwt>
<pdfrwt beam="2">  1       21 0.76577524E-02 0.23628374E+03</pdfrwt>
<totfact> 0.74396493E+03</totfact>
</mgrwt>
</event>
<event>
 5    0  0.1781295E-001  0.3335283E+03  0.7546771E-02  0.1069586E+00
         21   -1    0    0  501  502  0.00000000000E+00  0.00000000000E+00  0.48373310077E+03  0.48373310077E+03  0.00000000000E+00 0. -1.
         21   -1    0    0  502  503 -0.00000000000E+00 -0.00000000000E+00 -0.41949909931E+03  0.41949909931E+03  0.00000000000E+00 0.  1.
         25    1    1    2    0    0 -0.31354729194E+03 -0.37806901756E+02  0.32498435008E+03  0.47008626219E+03  0.12500000000E+03 0.  0.
          3    1    1    2  501    0  0.36609302797E+02 -0.39297095290E+02 -0.69647306491E+02  0.87950270329E+02  0.00000000000E+00 0. -1.
         -3    1    1    2    0  503  0.27693798915E+03  0.77103997046E+02 -0.19110304213E+03  0.34519566756E+03  0.00000000000E+00 0.  1.
<mgrwt>
<rscale>  4 0.33352826E+03</rscale>
<asrwt>0</asrwt>
<pdfrwt beam="1">  1       21 0.74420477E-01 0.33352826E+03</pdfrwt>
<pdfrwt beam="2">  1       21 0.64538323E-01 0.33352826E+03</pdfrwt>
<totfact> 0.32736793E+03</totfact>
</mgrwt>
</event>
<event>
 5    0  0.1781295E-001  0.4576182E+03  0.7546771E-02  0.1025474E+00
         21   -1    0    0  501  502  0.00000000000E+00  0.00000000000E+00  0.97850413528E+03  0.97850413528E+03  0.00000000000E+00 0.  1.
         21   -1    0    0  502  503 -0.00000000000E+00 -0.00000000000E+00 -0.30806925608E+03  0.30806925608E+03  0.00000000000E+00 0.  1.
         25    1    1    2    0    0  0.44264569749E+03  0.53655535254E+01 -0.12664486502E+02  0.46016235384E+03  0.12500000000E+03 0.  0.
          1    1    1    2  501    0 -0.43296637213E+03  0.14030863099E+02  0.59689658010E+03  0.73752442119E+03  0.00000000000E+00 0.  1.
         -1    1    1    2    0  503 -0.96793253541E+01 -0.19396416624E+02  0.86202785605E+02  0.88886616333E+02  0.00000000000E+00 0. -1.
<mgrwt>
<rscale>  4 0.45761819E+03</rscale>
<asrwt>0</asrwt>
<pdfrwt beam="1">  1       21 0.15053910E+00 0.45761819E+03</pdfrwt>
<pdfrwt beam="2">  1       21 0.47395271E-01 0.45761819E+03</pdfrwt>
<totfact> 0.10627735E+03</totfact>
</mgrwt>
</event>
<event>
 5    0  0.1781295E-001  0.2398434E+03  0.7546771E-02  0.1119897E+00
         21   -1    0    0  501  502  0.00000000000E+00  0.00000000000E+00  0.79903736783E+02  0.79903736783E+02  0.00000000000E+00 0.  1.
         21   -1    0    0  502  503 -0.00000000000E+00 -0.00000000000E+00 -0.14929375860E+04  0.14929375860E+04  0.00000000000E+00 0.  1.
         25    1    1    2    0    0  0.58777754644E+01 -0.20461011165E+03 -0.13024158162E+04  0.13243155985E+04  0.12500000000E+03 0.  0.
          1    1    1    2  501    0  0.14498061025E+02  0.15871471449E+03 -0.11727166784E+03  0.19787167166E+03  0.00000000000E+00 0.  1.
         -1    1    1    2    0  503 -0.20375836489E+02  0.45895397166E+02  0.66536348311E+01  0.50654052653E+02  0.00000000000E+00 0. -1.
<mgrwt>
<rscale>  4 0.23984338E+03</rscale>
<asrwt>0</asrwt>
<pdfrwt beam="1">  1       21 0.12292883E-01 0.23984338E+03</pdfrwt>
<pdfrwt beam="2">  1       21 0.22968270E+00 0.23984338E+03</pdfrwt>
<totfact> 0.47293439E+03</totfact>
</mgrwt>
</event>
<event>
 5    0  0.1781295E-001  0.2136392E+03  0.7546771E-02  0.1138716E+00
         21   -1    0    0  501  502  0.00000000000E+00  0.00000000000E+00  0.25315798212E+03  0.25315798212E+03  0.00000000000E+00 0.  1.
         21   -1    0    0  502  503 -0.00000000000E+00 -0.00000000000E+00 -0.31287637645E+03  0.31287637645E+03  0.00000000000E+00 0.  1.
         25    1    1    2    0    0  0.41146049094E+02 -0.21396619863E+03  0.58085229239E+02  0.25782440801E+03  0.12500000000E+03 0.  0.
          2    1    1    2  501    0 -0.54370995190E+02  0.15477691862E+03 -0.16400402580E+03  0.23196857575E+03  0.00000000000E+00 0.  1.
         -2    1    1    2    0  503  0.13224946096E+02  0.59189280005E+02  0.46200402230E+02  0.76241374810E+02  0.00000000000E+00 0. -1.
<mgrwt>
<rscale>  4 0.21363924E+03</rscale>
<asrwt>0</asrwt>
<pdfrwt beam="1">  1       21 0.38947382E-01 0.21363924E+03</pdfrwt>
<pdfrwt beam="2">  1       21 0.48134827E-01 0.21363924E+03</pdfrwt>
<totfact> 0.25906878E+04</totfact>
</mgrwt>
</event>
<event>
 5    0  0.1781295E-001  0.2579019E+03  0.7546771E-02  0.1108410E+00
         21   -1    0    0  501  502  0.00000000000E+00  0.00000000000E+00  0.62790007625E+03  0.62790007625E+03  0.00000000000E+00 0. -1.
         21   -1    0    0  502  503 -0.00000000000E+00 -0.00000000000E+00 -0.33589210847E+03  0.33589210847E+03  0.00000000000E+00 0. -1.
         25    1    1    2    0    0  0.14837217265E+03  0.16992381191E+03  0.55577051438E+03  0.61269426970E+03  0.12500000000E+03 0.  0.
          3    1    1    2  501    0 -0.43481637573E+02 -0.20423034162E+02 -0.69321419731E+02  0.84339862248E+02  0.00000000000E+00 0.  1.
         -3    1    1    2    0  503 -0.10489053507E+03 -0.14950077775E+03 -0.19444112687E+03  0.26675805277E+03  0.00000000000E+00 0. -1.
<mgrwt>
<rscale>  4 0.25790193E+03</rscale>
<asrwt>0</asrwt>
<pdfrwt beam="1">  1       21 0.96600012E-01 0.25790193E+03</pdfrwt>
<pdfrwt beam="2">  1       21 0.51675709E-01 0.25790193E+03</pdfrwt>
<totfact> 0.30160054E+03</totfact>
</mgrwt>
</event>
<event>
 5    0  0.1781295E-001  0.2440772E+03  0.7546771E-02  0.1117106E+00
         21   -1    0    0  501  502  0.00000000000E+00  0.00000000000E+00  0.32547121173E+03  0.32547121173E+03  0.00000000000E+00 0.  1.
         21   -1    0    0  502  503 -0.00000000000E+00 -0.00000000000E+00 -0.38238093459E+03  0.38238093459E+03  0.00000000000E+00 0. -1.
         25    1    1    2    0    0  0.19173743364E+03 -0.17250641109E+03  0.17937908181E+03  0.33811767229E+03  0.12500000000E+03 0.  0.
          1    1    1    2  501    0 -0.31285598037E+02  0.48570577729E+02  0.79917855281E+00  0.57779999583E+02  0.00000000000E+00 0.  1.
         -1    1    1    2    0  503 -0.16045183561E+03  0.12393583336E+03 -0.23708798322E+03  0.31195447444E+03  0.00000000000E+00 0. -1.
<mgrwt>
<rscale>  4 0.24407718E+03</rscale>
<asrwt>0</asrwt>
<pdfrwt beam="1">  1       21 0.50072494E-01 0.24407718E+03</pdfrwt>
<pdfrwt beam="2">  1       21 0.58827836E-01 0.24407718E+03</pdfrwt>
<totfact> 0.99407826E+03</totfact>
</mgrwt>
</event>
<event>
 5    0  0.1781295E-001  0.3596076E+03  0.7546771E-02  0.1058739E+00
         21   -1    0    0  501  502  0.00000000000E+00  0.00000000000E+00  0.72647754501E+03  0.72647754501E+03  0.00000000000E+00 0. -1.
         21   -1    0    0  502  503 -0.00000000000E+00 -0.00000000000E+00 -0.90719402333E+03  0.90719402333E+03  0.00000000000E+00 0. -1.
         25    1    1    2    0    0  0.33589250758E+03 -0.29475983517E+02  0.64458675220E+03  0.73811224848E+03  0.12500000000E+03 0.  0.
          1    1    1    2  501    0 -0.30628767765E+03  0.51360524641E+02 -0.74922581174E+03  0.81104214561E+03  0.00000000000E+00 0. -1.
         -1    1    1    2    0  503 -0.29604829933E+02 -0.21884541125E+02 -0.76077418778E+02  0.84517174252E+02  0.00000000000E+00 0.  1.
<mgrwt>
<rscale>  4 0.35960758E+03</rscale>
<asrwt>0</asrwt>
<pdfrwt beam="1">  1       21 0.11176578E+00 0.35960758E+03</pdfrwt>
<pdfrwt beam="2">  1       21 0.13956831E+00 0.35960758E+03</pdfrwt>
<totfact> 0.19481863E+02</totfact>
</mgrwt>
</event>
<event>
 5    0  0.1781295E-001  0.2895762E+03  0.7546771E-02  0.1090571E+00
         21   -1    0    0  501  502  0.00000000000E+00  0.00000000000E+00  0.34711319910E+03  0.34711319910E+03  0.00000000000E+00 0.  1.
         21   -1    0    0  502  503 -0.00000000000E+00 -0.00000000000E+00 -0.27971844841E+03  0.27971844841E+03  0.00000000000E+00 0.  1.
         25    1    1    2    0    0  0.94157011214E+02 -0.24364699031E+03 -0.99811900244E+02  0.30629530535E+03  0.12500000000E+03 0.  0.
          4    1    1    2  501    0 -0.40028895654E+02  0.16166085126E+03  0.14261833652E+03  0.21926361583E+03  0.00000000000E+00 0. -1.
         -4    1    1    2    0  503 -0.54128115560E+02  0.81986139057E+02  0.24588314415E+02  0.10127272632E+03  0.00000000000E+00 0.  1.
<mgrwt>
<rscale>  4 0.28957624E+03</rscale>
<asrwt>0</asrwt>
<pdfrwt beam="1">  1       21 0.53402030E-01 0.28957624E+03</pdfrwt>
<pdfrwt beam="2">  1       21 0.43033608E-01 0.28957624E+03</pdfrwt>
<totfact> 0.16384447E+04</totfact>
</mgrwt>
</event>
<event>
 5    0  0.1781295E-001  0.3506559E+03  0.7546771E-02  0.1062364E+00
         21   -1    0    0  501  502  0.00000000000E+00  0.00000000000E+00  0.58991945500E+03  0.58991945500E+03  0.00000000000E+00 0. -1.
         21   -1    0    0  502  503 -0.00000000000E+00 -0.00000000000E+00 -0.21376888086E+03  0.21376888086E+03  0.00000000000E+00 0. -1.
         25    1    1    2    0    0  0.22704514275E+03 -0.23593236842E+03  0.12394418893E+03  0.37175360292E+03  0.12500000000E+03 0.  0.
          3    1    1    2  501    0 -0.13765210939E+03  0.68427906104E+02  0.70452740055E+02  0.16909781233E+03  0.00000000000E+00 0. -1.
         -3    1    1    2    0  503 -0.89393033360E+02  0.16750446232E+03  0.18175364515E+03  0.26283692061E+03  0.00000000000E+00 0.  1.
<mgrwt>
<rscale>  4 0.35061275E+03</rscale>
<asrwt>0</asrwt>
<pdfrwt beam="1">  1       21 0.90756838E-01 0.35065589E+03</pdfrwt>
<pdfrwt beam="2">  1       21 0.32887520E-01 0.35065589E+03</pdfrwt>
<totfact> 0.84249081E+03</totfact>
</mgrwt>
</event>
<event>
 5    0  0.1781295E-001  0.2583300E+03  0.7546771E-02  0.1108151E+00
         21   -1    0    0  501  502  0.00000000000E+00  0.00000000000E+00  0.32385783246E+03  0.32385783246E+03  0.00000000000E+00 0. -1.
         21   -1    0    0  502  503 -0.00000000000E+00 -0.00000000000E+00 -0.20447349488E+03  0.20447349488E+03  0.00000000000E+00 0. -1.
         25    1    1    2    0    0 -0.21985502011E+03  0.52660944104E+02 -0.16938508457E+02  0.25888475808E+03  0.12500000000E+03 0.  0.
          3    1    1    2  501    0  0.18108351145E+03 -0.63024539196E+02  0.11951618150E+03  0.22593682369E+03  0.00000000000E+00 0. -1.
         -3    1    1    2    0  503  0.38771508657E+02  0.10363595092E+02  0.16806664535E+02  0.43509745571E+02  0.00000000000E+00 0.  1.
<mgrwt>
<rscale>  4 0.25833003E+03</rscale>
<asrwt>0</asrwt>
<pdfrwt beam="1">  1       21 0.49824282E-01 0.25833003E+03</pdfrwt>
<pdfrwt beam="2">  1       21 0.31457461E-01 0.25833003E+03</pdfrwt>
<totfact> 0.36144574E+04</totfact>
</mgrwt>
</event>
<event>
 5    0  0.1781295E-001  0.2502577E+03  0.7546771E-02  0.1113142E+00
         21   -1    0    0  501  502  0.00000000000E+00  0.00000000000E+00  0.81385843324E+03  0.81385843324E+03  0.00000000000E+00 0. -1.
         21   -1    0    0  502  503 -0.00000000000E+00 -0.00000000000E+00 -0.13304171939E+03  0.13304171939E+03  0.00000000000E+00 0. -1.
         25    1    1    2    0    0  0.19921551350E+03 -0.10838449111E+03  0.60050293369E+03  0.65395931991E+03  0.12500000000E+03 0.  0.
          4    1    1    2  501    0  0.38891352259E+00  0.27821912798E+02  0.72381520542E+02  0.77545435723E+02  0.00000000000E+00 0.  1.
         -4    1    1    2    0  503 -0.19960442702E+03  0.80562578311E+02  0.79322596215E+01  0.21539539701E+03  0.00000000000E+00 0. -1.
<mgrwt>
<rscale>  4 0.25025773E+03</rscale>
<asrwt>0</asrwt>
<pdfrwt beam="1">  1       21 0.12520899E+00 0.25025773E+03</pdfrwt>
<pdfrwt beam="2">  1       21 0.20467957E-01 0.25025773E+03</pdfrwt>
<totfact> 0.10112003E+04</totfact>
</mgrwt>
</event>
<event>
 5    0  0.1781295E-001  0.5735128E+03  0.7546771E-02  0.9970554E-01
         21   -1    0    0  501  502  0.00000000000E+00  0.00000000000E+00  0.11292521889E+04  0.11292521889E+04  0.00000000000E+00 0. -1.
         21   -1    0    0  502  503 -0.00000000000E+00 -0.00000000000E+00 -0.30942980659E+03  0.30942980659E+03  0.00000000000E+00 0. -1.
         25    1    1    2    0    0  0.33896822680E+03 -0.42530304527E+03  0.61313799733E+03  0.82906293058E+03  0.12500000000E+03 0.  0.
          4    1    1    2  501    0 -0.20114636715E+03  0.16037839564E+03  0.21324811106E+02  0.25813918412E+03  0.00000000000E+00 0. -1.
         -4    1    1    2    0  503 -0.13782185965E+03  0.26492464963E+03  0.18535957390E+03  0.35147988081E+03  0.00000000000E+00 0.  1.
<mgrwt>
<rscale>  4 0.56960452E+03</rscale>
<asrwt>0</asrwt>
<pdfrwt beam="1">  1       21 0.17373110E+00 0.57351283E+03</pdfrwt>
<pdfrwt beam="2">  1       21 0.47604586E-01 0.57351283E+03</pdfrwt>
<totfact> 0.67339137E+02</totfact>
</mgrwt>
</event>
<event>
 5    0  0.1781295E-001  0.2874960E+03  0.7546771E-02  0.1091664E+00
         21   -1    0    0  501  502  0.00000000000E+00  0.00000000000E+00  0.37252926618E+03  0.37252926618E+03  0.00000000000E+00 0. -1.
         21   -1    0    0  502  503 -0.00000000000E+00 -0.00000000000E+00 -0.21629904449E+03  0.21629904449E+03  0.00000000000E+00 0. -1.
         25    1    1    2    0    0 -0.17669831604E+03  0.18922649994E+03  0.90484623510E+02  0.30139912120E+03  0.12500000000E+03 0.  0.
          1    1    1    2  501    0  0.79481540593E+02 -0.14339621296E+03  0.51177297824E+01  0.16403042505E+03  0.00000000000E+00 0. -1.
         -1    1    1    2    0  503  0.97216775447E+02 -0.45830286983E+02  0.60627868395E+02  0.12339876442E+03  0.00000000000E+00 0.  1.
<mgrwt>
<rscale>  4 0.28749602E+03</rscale>
<asrwt>0</asrwt>
<pdfrwt beam="1">  1       21 0.57312195E-01 0.28749602E+03</pdfrwt>
<pdfrwt beam="2">  1       21 0.33276776E-01 0.28749602E+03</pdfrwt>
<totfact> 0.23729612E+04</totfact>
</mgrwt>
</event>
<event>
 5    0  0.1781295E-001  0.2855731E+03  0.7546771E-02  0.1092683E+00
         21   -1    0    0  501  502  0.00000000000E+00  0.00000000000E+00  0.10950651727E+03  0.10950651727E+03  0.00000000000E+00 0. -1.
         21   -1    0    0  502  503 -0.00000000000E+00 -0.00000000000E+00 -0.12709754500E+04  0.12709754500E+04  0.00000000000E+00 0.  1.
         25    1    1    2    0    0 -0.23346158853E+03  0.10687701687E+03 -0.12682524897E+03  0.31246864456E+03  0.12500000000E+03 0.  0.
          2    1    1    2  501    0  0.95066283995E+02 -0.30890067387E+02 -0.52657213307E+03  0.53597575126E+03  0.00000000000E+00 0. -1.
         -2    1    1    2    0  503  0.13839530454E+03 -0.75986949484E+02 -0.50807155071E+03  0.53203757147E+03  0.00000000000E+00 0.  1.
<mgrwt>
<rscale>  4 0.28557313E+03</rscale>
<asrwt>0</asrwt>
<pdfrwt beam="1">  1       21 0.16847157E-01 0.28557313E+03</pdfrwt>
<pdfrwt beam="2">  1       21 0.19553467E+00 0.28557313E+03</pdfrwt>
<totfact> 0.42335831E+03</totfact>
</mgrwt>
</event>
<event>
 5    0  0.1781295E-001  0.3065497E+03  0.7546771E-02  0.1082012E+00
         21   -1    0    0  501  502  0.00000000000E+00  0.00000000000E+00  0.54325820759E+03  0.54325820759E+03  0.00000000000E+00 0.  1.
         21   -1    0    0  502  503 -0.00000000000E+00 -0.00000000000E+00 -0.23097963037E+03  0.23097963037E+03  0.00000000000E+00 0.  1.
         25    1    1    2    0    0  0.17626717768E+03  0.21743413023E+03  0.35798622597E+03  0.47130335974E+03  0.12500000000E+03 0.  0.
          1    1    1    2  501    0 -0.45623772648E+02 -0.55121731645E+02  0.34795365400E+02  0.79565390614E+02  0.00000000000E+00 0. -1.
         -1    1    1    2    0  503 -0.13064340503E+03 -0.16231239858E+03 -0.80503014148E+02  0.22336908761E+03  0.00000000000E+00 0.  1.
<mgrwt>
<rscale>  4 0.30654970E+03</rscale>
<asrwt>0</asrwt>
<pdfrwt beam="1">  1       21 0.83578186E-01 0.30654970E+03</pdfrwt>
<pdfrwt beam="2">  1       21 0.35535328E-01 0.30654970E+03</pdfrwt>
<totfact> 0.89090426E+03</totfact>
</mgrwt>
</event>
<event>
 5    0  0.1781295E-001  0.2791756E+03  0.7546771E-02  0.1096140E+00
         21   -1    0    0  501  502  0.00000000000E+00  0.00000000000E+00  0.20885307693E+03  0.20885307693E+03  0.00000000000E+00 0. -1.
         21   -1    0    0  502  503 -0.00000000000E+00 -0.00000000000E+00 -0.37265343716E+03  0.37265343716E+03  0.00000000000E+00 0. -1.
         25    1    1    2    0    0 -0.14558724634E+03  0.20277664024E+03 -0.16483700007E+03  0.32420710775E+03  0.12500000000E+03 0.  0.
          3    1    1    2  501    0  0.68031579144E+01 -0.22771031243E+02  0.17342094274E+02  0.29420249069E+02  0.00000000000E+00 0.  1.
         -3    1    1    2    0  503  0.13878408843E+03 -0.18000560900E+03 -0.16305454439E+02  0.22787915727E+03  0.00000000000E+00 0. -1.
<mgrwt>
<rscale>  4 0.27917559E+03</rscale>
<asrwt>0</asrwt>
<pdfrwt beam="1">  1       21 0.32131243E-01 0.27917559E+03</pdfrwt>
<pdfrwt beam="2">  1       21 0.57331297E-01 0.27917559E+03</pdfrwt>
<totfact> 0.25507436E+04</totfact>
</mgrwt>
</event>
<event>
 5    0  0.1781295E-001  0.2621399E+03  0.7546771E-02  0.1105864E+00
         21   -1    0    0  501  502  0.00000000000E+00  0.00000000000E+00  0.95881202400E+02  0.95881202400E+02  0.00000000000E+00 0. -1.
         21   -1    0    0  502  503 -0.00000000000E+00 -0.00000000000E+00 -0.72729897720E+03  0.72729897720E+03  0.00000000000E+00 0. -1.
         25    1    1    2    0    0 -0.13356872198E+03  0.18775444706E+03 -0.46903524106E+03  0.53731870732E+03  0.12500000000E+03 0.  0.
          3    1    1    2  501    0  0.42482426517E+02 -0.41128013162E+02 -0.21039592030E+02  0.62760931017E+02  0.00000000000E+00 0.  1.
         -3    1    1    2    0  503  0.91086295465E+02 -0.14662643390E+03 -0.14134294172E+03  0.22310054127E+03  0.00000000000E+00 0. -1.
<mgrwt>
<rscale>  4 0.26213992E+03</rscale>
<asrwt>0</asrwt>
<pdfrwt beam="1">  1       21 0.14750954E-01 0.26213992E+03</pdfrwt>
<pdfrwt beam="2">  1       21 0.11189215E+00 0.26213992E+03</pdfrwt>
<totfact> 0.24413755E+04</totfact>
</mgrwt>
</event>
<event>
 5    0  0.1781295E-001  0.3785324E+03  0.7546771E-02  0.1051478E+00
         21   -1    0    0  501  502  0.00000000000E+00  0.00000000000E+00  0.13723031677E+04  0.13723031677E+04  0.00000000000E+00 0. -1.
         21   -1    0    0  502  503 -0.00000000000E+00 -0.00000000000E+00 -0.12377647664E+03  0.12377647664E+03  0.00000000000E+00 0. -1.
         25    1    1    2    0    0  0.31725764472E+03 -0.16434516872E+03  0.93545285862E+03  0.10091376508E+04  0.12500000000E+03 0.  0.
          1    1    1    2  501    0 -0.67787382576E+02 -0.66064884483E+01  0.80398616307E+02  0.10536940937E+03  0.00000000000E+00 0.  1.
         -1    1    1    2    0  503 -0.24947026214E+03  0.17095165716E+03  0.23267521615E+03  0.38157258417E+03  0.00000000000E+00 0. -1.
<mgrwt>
<rscale>  4 0.37853236E+03</rscale>
<asrwt>0</asrwt>
<pdfrwt beam="1">  1       21 0.21112355E+00 0.37853236E+03</pdfrwt>
<pdfrwt beam="2">  1       21 0.19042536E-01 0.37853236E+03</pdfrwt>
<totfact> 0.25258469E+03</totfact>
</mgrwt>
</event>
<event>
 5    0  0.1781295E-001  0.2633417E+03  0.7546771E-02  0.1105152E+00
         21   -1    0    0  501  502  0.00000000000E+00  0.00000000000E+00  0.17378443062E+04  0.17378443062E+04  0.00000000000E+00 0. -1.
         21   -1    0    0  502  503 -0.00000000000E+00 -0.00000000000E+00 -0.43541889000E+02  0.43541889000E+02  0.00000000000E+00 0. -1.
         25    1    1    2    0    0  0.21433178760E+03  0.88236750598E+02  0.12582063433E+04  0.12854695802E+04  0.12500000000E+03 0.  0.
          3    1    1    2  501    0 -0.19356432239E+03 -0.91888215399E+02  0.38437049894E+03  0.44005825919E+03  0.00000000000E+00 0. -1.
         -3    1    1    2    0  503 -0.20767465206E+02  0.36514648010E+01  0.51725574914E+02  0.55858355744E+02  0.00000000000E+00 0.  1.
<mgrwt>
<rscale>  4 0.26334168E+03</rscale>
<asrwt>0</asrwt>
<pdfrwt beam="1">  1       21 0.26736061E+00 0.26334168E+03</pdfrwt>
<pdfrwt beam="2">  1       21 0.66987535E-02 0.26334168E+03</pdfrwt>
<totfact> 0.80739811E+03</totfact>
</mgrwt>
</event>
<event>
 5    0  0.1781295E-001  0.2321583E+03  0.7546771E-02  0.1125130E+00
         21   -1    0    0  501  502  0.00000000000E+00  0.00000000000E+00  0.59544018494E+02  0.59544018494E+02  0.00000000000E+00 0.  1.
         21   -1    0    0  502  503 -0.00000000000E+00 -0.00000000000E+00 -0.11377229352E+04  0.11377229352E+04  0.00000000000E+00 0. -1.
         25    1    1    2    0    0 -0.80351439470E+02  0.18920872262E+03 -0.29065846575E+03  0.37731106299E+03  0.12500000000E+03 0.  0.
          1    1    1    2  501    0  0.38397246372E+02 -0.17256366475E+03 -0.69327541872E+03  0.71546025265E+03  0.00000000000E+00 0.  1.
         -1    1    1    2    0  503  0.41954193098E+02 -0.16645057873E+02 -0.94245032193E+02  0.10449563801E+03  0.00000000000E+00 0. -1.
<mgrwt>
<rscale>  4 0.23215826E+03</rscale>
<asrwt>0</asrwt>
<pdfrwt beam="1">  1       21 0.91606187E-02 0.23215826E+03</pdfrwt>
<pdfrwt beam="2">  1       21 0.17503429E+00 0.23215826E+03</pdfrwt>
<totfact> 0.18140512E+04</totfact>
</mgrwt>
</event>
<event>
 5    0  0.1781295E-001  0.4025459E+03  0.7546771E-02  0.1042902E+00
         21   -1    0    0  501  502  0.00000000000E+00  0.00000000000E+00  0.14734838564E+04  0.14734838564E+04  0.00000000000E+00 0.  1.
         21   -1    0    0  502  503 -0.00000000000E+00 -0.00000000000E+00 -0.10710269747E+03  0.10710269747E+03  0.00000000000E+00 0.  1.
         25    1    1    2    0    0 -0.23336289750E+03 -0.30324897092E+03  0.62557474428E+03  0.74389981918E+03  0.12500000000E+03 0.  0.
          3    1    1    2  501    0  0.39403354578E+02  0.56390930346E+02  0.19826823097E+03  0.20986389110E+03  0.00000000000E+00 0. -1.
         -3    1    1    2    0  503  0.19395954292E+03  0.24685804057E+03  0.54253818365E+03  0.62682284356E+03  0.00000000000E+00 0.  1.
<mgrwt>
<rscale>  4 0.40254587E+03</rscale>
<asrwt>0</asrwt>
<pdfrwt beam="1">  1       21 0.22668981E+00 0.40254587E+03</pdfrwt>
<pdfrwt beam="2">  1       21 0.16477339E-01 0.40254587E+03</pdfrwt>
<totfact> 0.26051326E+03</totfact>
</mgrwt>
</event>
<event>
 5    0  0.1781295E-001  0.2287745E+03  0.7546771E-02  0.1127505E+00
         21   -1    0    0  501  502  0.00000000000E+00  0.00000000000E+00  0.60850730606E+03  0.60850730606E+03  0.00000000000E+00 0.  1.
         21   -1    0    0  502  503 -0.00000000000E+00 -0.00000000000E+00 -0.20553435550E+03  0.20553435550E+03  0.00000000000E+00 0.  1.
         25    1    1    2    0    0 -0.11437435452E+03  0.21450796955E+03  0.31043940223E+01  0.27336751679E+03  0.12500000000E+03 0.  0.
          4    1    1    2  501    0  0.45753586085E+02 -0.17930890521E+03  0.42170400100E+03  0.46052072547E+03  0.00000000000E+00 0. -1.
         -4    1    1    2    0  503  0.68620768437E+02 -0.35199064337E+02 -0.21835444463E+02  0.80153419303E+02  0.00000000000E+00 0.  1.
<mgrwt>
<rscale>  4 0.22877453E+03</rscale>
<asrwt>0</asrwt>
<pdfrwt beam="1">  1       21 0.93616508E-01 0.22877453E+03</pdfrwt>
<pdfrwt beam="2">  1       21 0.31620670E-01 0.22877453E+03</pdfrwt>
<totfact> 0.89941238E+03</totfact>
</mgrwt>
</event>
<event>
 5    0  0.1781295E-001  0.2815561E+03  0.7546771E-02  0.1094842E+00
         21   -1    0    0  501  502  0.00000000000E+00  0.00000000000E+00  0.74909331454E+03  0.74909331454E+03  0.00000000000E+00 0.  1.
         21   -1    0    0  502  503 -0.00000000000E+00 -0.00000000000E+00 -0.23894294886E+03  0.23894294886E+03  0.00000000000E+00 0. -1.
         25    1    1    2    0    0  0.23140549878E+03  0.10050038452E+03  0.63488244110E+03  0.69451389199E+03  0.12500000000E+03 0.  0.
          3    1    1    2  501    0 -0.44684060860E+02  0.13805463948E+02 -0.21467537921E+02  0.51459802897E+02  0.00000000000E+00 0.  1.
         -3    1    1    2    0  503 -0.18672143792E+03 -0.11430584847E+03 -0.10326453749E+03  0.24206256851E+03  0.00000000000E+00 0. -1.
<mgrwt>
<rscale>  4 0.28155609E+03</rscale>
<asrwt>0</asrwt>
<pdfrwt beam="1">  1       21 0.11524512E+00 0.28155609E+03</pdfrwt>
<pdfrwt beam="2">  1       21 0.36760454E-01 0.28155609E+03</pdfrwt>
<totfact> 0.39103729E+03</totfact>
</mgrwt>
</event>
<event>
 5    0  0.1781295E-001  0.2011716E+03  0.7546771E-02  0.1148754E+00
         21   -1    0    0  501  502  0.00000000000E+00  0.00000000000E+00  0.49318217107E+03  0.49318217107E+03  0.00000000000E+00 0.  1.
         21   -1    0    0  502  503 -0.00000000000E+00 -0.00000000000E+00 -0.35374412499E+03  0.35374412499E+03  0.00000000000E+00 0. -1.
         25    1    1    2    0    0  0.11092410024E+03 -0.21496933285E+03  0.34141195256E+03  0.43669565081E+03  0.12500000000E+03 0.  0.
          3    1    1    2  501    0 -0.80115522566E+02  0.64663950236E+02  0.50590995412E+02  0.11471430701E+03  0.00000000000E+00 0.  1.
         -3    1    1    2    0  503 -0.30808577672E+02  0.15030538262E+03 -0.25256490190E+03  0.29551633825E+03  0.00000000000E+00 0. -1.
<mgrwt>
<rscale>  4 0.20117158E+03</rscale>
<asrwt>0</asrwt>
<pdfrwt beam="1">  1       21 0.75874180E-01 0.20117158E+03</pdfrwt>
<pdfrwt beam="2">  1       21 0.54422173E-01 0.20117158E+03</pdfrwt>
<totfact> 0.49086982E+03</totfact>
</mgrwt>
</event>
<event>
 5    0  0.1781295E-001  0.3839294E+03  0.7546771E-02  0.1049491E+00
         21   -1    0    0  501  502  0.00000000000E+00  0.00000000000E+00  0.38014759503E+03  0.38014759503E+03  0.00000000000E+00 0. -1.
         21   -1    0    0  502  503 -0.00000000000E+00 -0.00000000000E+00 -0.55727715246E+03  0.55727715246E+03  0.00000000000E+00 0. -1.
         25    1    1    2    0    0  0.38358511728E+03 -0.17326512060E+03 -0.11627080443E+03  0.45420506842E+03  0.12500000000E+03 0.  0.
          3    1    1    2  501    0 -0.29402867591E+03  0.14218095034E+03 -0.14417949728E+03  0.35700982106E+03  0.00000000000E+00 0. -1.
         -3    1    1    2    0  503 -0.89556441370E+02  0.31084170263E+02  0.83320744283E+02  0.12620985801E+03  0.00000000000E+00 0.  1.
<mgrwt>
<rscale>  4 0.38392945E+03</rscale>
<asrwt>0</asrwt>
<pdfrwt beam="1">  1       21 0.58484245E-01 0.38392945E+03</pdfrwt>
<pdfrwt beam="2">  1       21 0.85734947E-01 0.38392945E+03</pdfrwt>
<totfact> 0.28682761E+03</totfact>
</mgrwt>
</event>
<event>
 5    0  0.1781295E-001  0.2958105E+03  0.7546771E-02  0.1087354E+00
         21   -1    0    0  501  502  0.00000000000E+00  0.00000000000E+00  0.34858787204E+03  0.34858787204E+03  0.00000000000E+00 0. -1.
         21   -1    0    0  502  503 -0.00000000000E+00 -0.00000000000E+00 -0.81207096180E+03  0.81207096180E+03  0.00000000000E+00 0. -1.
         25    1    1    2    0    0 -0.54067587254E+01  0.29888814939E+03  0.21880485993E+03  0.39097816514E+03  0.12500000000E+03 0.  0.
          3    1    1    2  501    0  0.62388802651E+02 -0.17438121011E+03 -0.22019386981E+03  0.28772644897E+03  0.00000000000E+00 0.  1.
         -3    1    1    2    0  503 -0.56982043925E+02 -0.12450693928E+03 -0.46209407988E+03  0.48195421974E+03  0.00000000000E+00 0. -1.
<mgrwt>
<rscale>  4 0.29581054E+03</rscale>
<asrwt>0</asrwt>
<pdfrwt beam="1">  1       21 0.53628904E-01 0.29581054E+03</pdfrwt>
<pdfrwt beam="2">  1       21 0.12493399E+00 0.29581054E+03</pdfrwt>
<totfact> 0.14487790E+03</totfact>
</mgrwt>
</event>
<event>
 5    0  0.1781295E-001  0.2755351E+03  0.7546771E-02  0.1098153E+00
         21   -1    0    0  501  502  0.00000000000E+00  0.00000000000E+00  0.12810734681E+04  0.12810734681E+04  0.00000000000E+00 0.  1.
         21   -1    0    0  502  503 -0.00000000000E+00 -0.00000000000E+00 -0.31155585583E+03  0.31155585583E+03  0.00000000000E+00 0.  1.
         25    1    1    2    0    0  0.21747842708E+03  0.11400745241E+03  0.12102824636E+04  0.12412506625E+04  0.12500000000E+03 0.  0.
          1    1    1    2  501    0 -0.76559736395E+02 -0.80033460103E+02 -0.97146463143E+02  0.14732339690E+03  0.00000000000E+00 0. -1.
         -1    1    1    2    0  503 -0.14091869069E+03 -0.33973992312E+02 -0.14361838822E+03  0.20405526451E+03  0.00000000000E+00 0.  1.
<mgrwt>
<rscale>  4 0.27553505E+03</rscale>
<asrwt>0</asrwt>
<pdfrwt beam="1">  1       21 0.19708822E+00 0.27553505E+03</pdfrwt>
<pdfrwt beam="2">  1       21 0.47931671E-01 0.27553505E+03</pdfrwt>
<totfact> 0.53648932E+02</totfact>
</mgrwt>
</event>
<event>
 5    0  0.1781295E-001  0.2481170E+03  0.7546771E-02  0.1114501E+00
         21   -1    0    0  501  502  0.00000000000E+00  0.00000000000E+00  0.48835761104E+03  0.48835761104E+03  0.00000000000E+00 0.  1.
         21   -1    0    0  502  503 -0.00000000000E+00 -0.00000000000E+00 -0.13424984406E+03  0.13424984406E+03  0.00000000000E+00 0.  1.
         25    1    1    2    0    0 -0.22145122426E+03 -0.42818100384E+01  0.16880179814E+03  0.30525075869E+03  0.12500000000E+03 0.  0.
          3    1    1    2  501    0  0.20733021678E+03 -0.38443104619E+02  0.16612043078E+03  0.26843935741E+03  0.00000000000E+00 0.  1.
         -3    1    1    2    0  503  0.14121007478E+02  0.42724914658E+02  0.19185538066E+02  0.48917339008E+02  0.00000000000E+00 0. -1.
<mgrwt>
<rscale>  4 0.24811699E+03</rscale>
<asrwt>0</asrwt>
<pdfrwt beam="1">  1       21 0.75131939E-01 0.24811699E+03</pdfrwt>
<pdfrwt beam="2">  1       21 0.20653822E-01 0.24811699E+03</pdfrwt>
<totfact> 0.33484804E+04</totfact>
</mgrwt>
</event>
<event>
 5    0  0.1781295E-001  0.2782200E+03  0.7546771E-02  0.1096665E+00
         21   -1    0    0  501  502  0.00000000000E+00  0.00000000000E+00  0.88525467497E+03  0.88525467497E+03  0.00000000000E+00 0. -1.
         21   -1    0    0  502  503 -0.00000000000E+00 -0.00000000000E+00 -0.98814271910E+02  0.98814271910E+02  0.00000000000E+00 0. -1.
         25    1    1    2    0    0  0.30214963390E+02  0.24671523474E+03  0.22207781710E+03  0.35598442089E+03  0.12500000000E+03 0.  0.
          1    1    1    2  501    0  0.51422480471E+01 -0.15193339299E+03  0.20793785993E+03  0.25758173889E+03  0.00000000000E+00 0. -1.
         -1    1    1    2    0  503 -0.35357211437E+02 -0.94781841750E+02  0.35642472603E+03  0.37050278710E+03  0.00000000000E+00 0.  1.
<mgrwt>
<rscale>  4 0.27821997E+03</rscale>
<asrwt>0</asrwt>
<pdfrwt beam="1">  1       21 0.13619302E+00 0.27821997E+03</pdfrwt>
<pdfrwt beam="2">  1       21 0.15202196E-01 0.27821997E+03</pdfrwt>
<totfact> 0.13973235E+04</totfact>
</mgrwt>
</event>
<event>
 5    0  0.1781295E-001  0.2475520E+03  0.7546771E-02  0.1114862E+00
         21   -1    0    0  501  502  0.00000000000E+00  0.00000000000E+00  0.51311006964E+03  0.51311006964E+03  0.00000000000E+00 0.  1.
         21   -1    0    0  502  503 -0.00000000000E+00 -0.00000000000E+00 -0.17324453802E+03  0.17324453802E+03  0.00000000000E+00 0. -1.
         25    1    1    2    0    0 -0.43594900819E+02  0.20918046083E+03  0.38597918747E+03  0.45854325176E+03  0.12500000000E+03 0.  0.
          2    1    1    2  501    0  0.17870703966E+01 -0.27090661463E+02 -0.29738262601E+02  0.40267379126E+02  0.00000000000E+00 0.  1.
         -2    1    1    2    0  503  0.41807830422E+02 -0.18208979937E+03 -0.16375393254E+02  0.18754397677E+03  0.00000000000E+00 0. -1.
<mgrwt>
<rscale>  4 0.24755198E+03</rscale>
<asrwt>0</asrwt>
<pdfrwt beam="1">  1       21 0.78940010E-01 0.24755198E+03</pdfrwt>
<pdfrwt beam="2">  1       21 0.26653006E-01 0.24755198E+03</pdfrwt>
<totfact> 0.18411920E+04</totfact>
</mgrwt>
</event>
<event>
 5    0  0.1781295E-001  0.2515214E+03  0.7546771E-02  0.1112347E+00
         21   -1    0    0  501  502  0.00000000000E+00  0.00000000000E+00  0.18146687744E+04  0.18146687744E+04  0.00000000000E+00 0.  1.
         21   -1    0    0  502  503 -0.00000000000E+00 -0.00000000000E+00 -0.38640193409E+02  0.38640193409E+02  0.00000000000E+00 0.  1.
         25    1    1    2    0    0  0.18576454721E+03  0.11458432708E+03  0.54589233047E+03  0.60105030694E+03  0.12500000000E+03 0.  0.
          2    1    1    2  501    0 -0.50780720299E+02 -0.70185226952E+02  0.34059743835E+03  0.35144169167E+03  0.00000000000E+00 0. -1.
         -2    1    1    2    0  503 -0.13498382691E+03 -0.44399100130E+02  0.88953881213E+03  0.90081696914E+03  0.00000000000E+00 0.  1.
<mgrwt>
<rscale>  4 0.25152144E+03</rscale>
<asrwt>0</asrwt>
<pdfrwt beam="1">  1       21 0.27917975E+00 0.25152144E+03</pdfrwt>
<pdfrwt beam="2">  1       21 0.59446465E-02 0.25152144E+03</pdfrwt>
<totfact> 0.85359364E+03</totfact>
</mgrwt>
</event>
<event>
 5    0  0.1781295E-001  0.2287990E+03  0.7546771E-02  0.1127488E+00
         21   -1    0    0  501  502  0.00000000000E+00  0.00000000000E+00  0.39282144824E+03  0.39282144824E+03  0.00000000000E+00 0.  1.
         21   -1    0    0  502  503 -0.00000000000E+00 -0.00000000000E+00 -0.14434160062E+03  0.14434160062E+03  0.00000000000E+00 0.  1.
         25    1    1    2    0    0  0.19488158724E+03  0.67395184404E+02  0.14565988381E+03  0.28171394299E+03  0.12500000000E+03 0.  0.
          3    1    1    2  501    0 -0.16264020464E+03 -0.86626334547E+02  0.50521753818E+02  0.19107172897E+03  0.00000000000E+00 0.  1.
         -3    1    1    2    0  503 -0.32241382600E+02  0.19231150143E+02  0.52298209994E+02  0.64377376899E+02  0.00000000000E+00 0. -1.
<mgrwt>
<rscale>  4 0.22879901E+03</rscale>
<asrwt>0</asrwt>
<pdfrwt beam="1">  1       21 0.60434069E-01 0.22879901E+03</pdfrwt>
<pdfrwt beam="2">  1       21 0.22206400E-01 0.22879901E+03</pdfrwt>
<totfact> 0.47567699E+04</totfact>
</mgrwt>
</event>
<event>
 5    0  0.1781295E-001  0.2492376E+03  0.7546771E-02  0.1113788E+00
         21   -1    0    0  501  502  0.00000000000E+00  0.00000000000E+00  0.46295841186E+03  0.46295841186E+03  0.00000000000E+00 0.  1.
         21   -1    0    0  502  503 -0.00000000000E+00 -0.00000000000E+00 -0.12579124353E+03  0.12579124353E+03  0.00000000000E+00 0.  1.
         25    1    1    2    0    0  0.10017480887E+03 -0.19094346710E+03  0.23486720218E+03  0.34246460054E+03  0.12500000000E+03 0.  0.
          4    1    1    2  501    0 -0.85790728797E+02  0.12769425689E+03  0.46469951181E+02  0.16070260966E+03  0.00000000000E+00 0.  1.
         -4    1    1    2    0  503 -0.14384080073E+02  0.63249210220E+02  0.55830014981E+02  0.85582445196E+02  0.00000000000E+00 0. -1.
<mgrwt>
<rscale>  4 0.24923764E+03</rscale>
<asrwt>0</asrwt>
<pdfrwt beam="1">  1       21 0.71224370E-01 0.24923764E+03</pdfrwt>
<pdfrwt beam="2">  1       21 0.19352499E-01 0.24923764E+03</pdfrwt>
<totfact> 0.42623649E+04</totfact>
</mgrwt>
</event>
<event>
 5    0  0.1781295E-001  0.2604288E+03  0.7546771E-02  0.1106886E+00
         21   -1    0    0  501  502  0.00000000000E+00  0.00000000000E+00  0.25324332154E+04  0.25324332154E+04  0.00000000000E+00 0.  1.
         21   -1    0    0  502  503 -0.00000000000E+00 -0.00000000000E+00 -0.36907219445E+02  0.36907219445E+02  0.00000000000E+00 0.  1.
         25    1    1    2    0    0 -0.66485752283E+02  0.22072440729E+03  0.19689354823E+04  0.19863211102E+04  0.12500000000E+03 0.  0.
          1    1    1    2  501    0 -0.21791881923E+02 -0.15317932485E+02  0.58258580834E+02  0.64059249247E+02  0.00000000000E+00 0. -1.
         -1    1    1    2    0  503  0.88277634206E+02 -0.20540647481E+03  0.46833193285E+03  0.51896007546E+03  0.00000000000E+00 0.  1.
<mgrwt>
<rscale>  4 0.26042882E+03</rscale>
<asrwt>0</asrwt>
<pdfrwt beam="1">  1       21 0.38960497E+00 0.26042882E+03</pdfrwt>
<pdfrwt beam="2">  1       21 0.56780358E-02 0.26042882E+03</pdfrwt>
<totfact> 0.20127550E+03</totfact>
</mgrwt>
</event>
<event>
 5    0  0.1781295E-001  0.2626087E+03  0.7546771E-02  0.1105586E+00
         21   -1    0    0  501  502  0.00000000000E+00  0.00000000000E+00  0.44586437225E+03  0.44586437225E+03  0.00000000000E+00 0. -1.
         21   -1    0    0  502  503 -0.00000000000E+00 -0.00000000000E+00 -0.21020808541E+03  0.21020808541E+03  0.00000000000E+00 0. -1.
         25    1    1    2    0    0 -0.20480483364E+03  0.10673956778E+03  0.31259894490E+03  0.40826640269E+03  0.12500000000E+03 0.  0.
          3    1    1    2  501    0  0.16742547763E+03 -0.97414302898E+02 -0.79076009633E+02  0.20922201669E+03  0.00000000000E+00 0. -1.
         -3    1    1    2    0  503  0.37379356007E+02 -0.93252648812E+01  0.21333515672E+01  0.38584038274E+02  0.00000000000E+00 0.  1.
<mgrwt>
<rscale>  4 0.26260875E+03</rscale>
<asrwt>0</asrwt>
<pdfrwt beam="1">  1       21 0.68594519E-01 0.26260875E+03</pdfrwt>
<pdfrwt beam="2">  1       21 0.32339706E-01 0.26260875E+03</pdfrwt>
<totfact> 0.17150829E+04</totfact>
</mgrwt>
</event>
<event>
 5    0  0.1781295E-001  0.2520099E+03  0.7546771E-02  0.1112041E+00
         21   -1    0    0  501  502  0.00000000000E+00  0.00000000000E+00  0.20378357207E+04  0.20378357207E+04  0.00000000000E+00 0.  1.
         21   -1    0    0  502  503 -0.00000000000E+00 -0.00000000000E+00 -0.28340043411E+02  0.28340043411E+02  0.00000000000E+00 0.  1.
         25    1    1    2    0    0 -0.17236565703E+03  0.13481115316E+03  0.12431219300E+04  0.12684088851E+04  0.12500000000E+03 0.  0.
          2    1    1    2  501    0  0.28932846673E+02 -0.11418923411E+02  0.14140412135E+03  0.14478476081E+03  0.00000000000E+00 0. -1.
         -2    1    1    2    0  503  0.14343281036E+03 -0.12339222975E+03  0.62496962588E+03  0.65298211822E+03  0.00000000000E+00 0.  1.
<mgrwt>
<rscale>  4 0.25200985E+03</rscale>
<asrwt>0</asrwt>
<pdfrwt beam="1">  1       21 0.31351307E+00 0.25200985E+03</pdfrwt>
<pdfrwt beam="2">  1       21 0.43600083E-02 0.25200985E+03</pdfrwt>
<totfact> 0.91241399E+03</totfact>
</mgrwt>
</event>
<event>
 5    0  0.1781295E-001  0.3460302E+03  0.7546771E-02  0.1064256E+00
         21   -1    0    0  501  502  0.00000000000E+00  0.00000000000E+00  0.16954171496E+03  0.16954171496E+03  0.00000000000E+00 0. -1.
         21   -1    0    0  502  503 -0.00000000000E+00 -0.00000000000E+00 -0.68569281421E+03  0.68569281421E+03  0.00000000000E+00 0. -1.
         25    1    1    2    0    0  0.17671129607E+03  0.26997227120E+03 -0.21412805596E+03  0.40692472735E+03  0.12500000000E+03 0.  0.
          3    1    1    2  501    0 -0.36111274700E+01 -0.34826901218E+02 -0.12670376138E+02  0.37235624361E+02  0.00000000000E+00 0.  1.
         -3    1    1    2    0  503 -0.17310016860E+03 -0.23514536998E+03 -0.28935266714E+03  0.41107417746E+03  0.00000000000E+00 0. -1.
<mgrwt>
<rscale>  4 0.34603021E+03</rscale>
<asrwt>0</asrwt>
<pdfrwt beam="1">  1       21 0.26083341E-01 0.34603021E+03</pdfrwt>
<pdfrwt beam="2">  1       21 0.10549120E+00 0.34603021E+03</pdfrwt>
<totfact> 0.92876715E+03</totfact>
</mgrwt>
</event>
<event>
 5    0  0.1781295E-001  0.3130554E+03  0.7546771E-02  0.1078891E+00
         21   -1    0    0  501  502  0.00000000000E+00  0.00000000000E+00  0.76696454524E+02  0.76696454524E+02  0.00000000000E+00 0.  1.
         21   -1    0    0  502  503 -0.00000000000E+00 -0.00000000000E+00 -0.16632667061E+04  0.16632667061E+04  0.00000000000E+00 0.  1.
         25    1    1    2    0    0  0.14234117835E+03  0.27348405748E+03 -0.73485131110E+03  0.80665109568E+03  0.12500000000E+03 0.  0.
          3    1    1    2  501    0 -0.19339996007E+03 -0.19860874199E+03 -0.73499520767E+03  0.78553607953E+03  0.00000000000E+00 0.  1.
         -3    1    1    2    0  503  0.51058781720E+02 -0.74875315495E+02 -0.11672373280E+03  0.14777598539E+03  0.00000000000E+00 0. -1.
<mgrwt>
<rscale>  4 0.31305536E+03</rscale>
<asrwt>0</asrwt>
<pdfrwt beam="1">  1       21 0.11799455E-01 0.31305536E+03</pdfrwt>
<pdfrwt beam="2">  1       21 0.25588718E+00 0.31305536E+03</pdfrwt>
<totfact> 0.33505617E+03</totfact>
</mgrwt>
</event>
<event>
 5    0  0.1781295E-001  0.2670728E+03  0.7546771E-02  0.1102967E+00
         21   -1    0    0  501  502  0.00000000000E+00  0.00000000000E+00  0.16899703644E+04  0.16899703644E+04  0.00000000000E+00 0. -1.
         21   -1    0    0  502  503 -0.00000000000E+00 -0.00000000000E+00 -0.29452021709E+03  0.29452021709E+03  0.00000000000E+00 0. -1.
         25    1    1    2    0    0 -0.78879422612E+02 -0.22244301431E+03  0.16269586007E+04  0.16487334977E+04  0.12500000000E+03 0.  0.
          3    1    1    2  501    0  0.36318655208E+01  0.39948601338E+02 -0.15149026363E+02  0.42878598342E+02  0.00000000000E+00 0.  1.
         -3    1    1    2    0  503  0.75247557091E+02  0.18249441297E+03 -0.21635942701E+03  0.29287848550E+03  0.00000000000E+00 0. -1.
<mgrwt>
<rscale>  4 0.26707276E+03</rscale>
<asrwt>0</asrwt>
<pdfrwt beam="1">  1       21 0.25999544E+00 0.26707276E+03</pdfrwt>
<pdfrwt beam="2">  1       21 0.45310803E-01 0.26707276E+03</pdfrwt>
<totfact> 0.24804040E+02</totfact>
</mgrwt>
</event>
<event>
 5    0  0.1781295E-001  0.2497837E+03  0.7546771E-02  0.1113442E+00
         21   -1    0    0  501  502  0.00000000000E+00  0.00000000000E+00  0.22883575568E+03  0.22883575568E+03  0.00000000000E+00 0.  1.
         21   -1    0    0  502  503 -0.00000000000E+00 -0.00000000000E+00 -0.26188655475E+03  0.26188655475E+03  0.00000000000E+00 0.  1.
         25    1    1    2    0    0  0.46150290966E+02 -0.21127477829E+03  0.35187822677E+02  0.25225000330E+03  0.12500000000E+03 0.  0.
          4    1    1    2  501    0 -0.42346539807E+02  0.98961215279E+02 -0.65616468538E+02  0.12606376365E+03  0.00000000000E+00 0.  1.
         -4    1    1    2    0  503 -0.38037511588E+01  0.11231356301E+03 -0.26221532144E+01  0.11240854348E+03  0.00000000000E+00 0. -1.
<mgrwt>
<rscale>  4 0.24978367E+03</rscale>
<asrwt>0</asrwt>
<pdfrwt beam="1">  1       21 0.35205501E-01 0.24978367E+03</pdfrwt>
<pdfrwt beam="2">  1       21 0.40290239E-01 0.24978367E+03</pdfrwt>
<totfact> 0.44988083E+04</totfact>
</mgrwt>
</event>
<event>
 5    0  0.1781295E-001  0.3220294E+03  0.7546771E-02  0.1075983E+00
         21   -1    0    0  501  502  0.00000000000E+00  0.00000000000E+00  0.10407182438E+04  0.10407182438E+04  0.00000000000E+00 0.  1.
         21   -1    0    0  502  503 -0.00000000000E+00 -0.00000000000E+00 -0.34011062603E+03  0.34011062603E+03  0.00000000000E+00 0.  1.
         25    1    1    2    0    0  0.22802506068E+03 -0.17086658015E+03 -0.23592177212E+03  0.39048034403E+03  0.12500000000E+03 0.  0.
          3    1    1    2  501    0 -0.79918336676E+02  0.14340367420E+03  0.59174488765E+03  0.61409573062E+03  0.00000000000E+00 0.  1.
         -3    1    1    2    0  503 -0.14810672401E+03  0.27462905945E+02  0.34478450226E+03  0.37625279520E+03  0.00000000000E+00 0. -1.
<mgrwt>
<rscale>  4 0.31927498E+03</rscale>
<asrwt>0</asrwt>
<pdfrwt beam="1">  1       21 0.16011050E+00 0.32202935E+03</pdfrwt>
<pdfrwt beam="2">  1       21 0.52324712E-01 0.32202935E+03</pdfrwt>
<totfact> 0.78093394E+02</totfact>
</mgrwt>
</event>
<event>
 5    0  0.1781295E-001  0.2554917E+03  0.7546771E-02  0.1109883E+00
         21   -1    0    0  501  502  0.00000000000E+00  0.00000000000E+00  0.91494507364E+03  0.91494507364E+03  0.00000000000E+00 0.  1.
         21   -1    0    0  502  503 -0.00000000000E+00 -0.00000000000E+00 -0.88648761351E+02  0.88648761351E+02  0.00000000000E+00 0.  1.
         25    1    1    2    0    0 -0.22483025870E+03  0.78297783295E+02  0.24227717460E+03  0.36194256095E+03  0.12500000000E+03 0.  0.
          1    1    1    2  501    0  0.30887072969E+02 -0.15603644981E+02  0.23452490191E+03  0.23706415720E+03  0.00000000000E+00 0. -1.
         -1    1    1    2    0  503  0.19394318573E+03 -0.62694138313E+02  0.34949423578E+03  0.40458711684E+03  0.00000000000E+00 0.  1.
<mgrwt>
<rscale>  4 0.25549174E+03</rscale>
<asrwt>0</asrwt>
<pdfrwt beam="1">  1       21 0.14076077E+00 0.25549174E+03</pdfrwt>
<pdfrwt beam="2">  1       21 0.13638272E-01 0.25549174E+03</pdfrwt>
<totfact> 0.15824354E+04</totfact>
</mgrwt>
</event>
<event>
 5    0  0.1781295E-001  0.2017837E+03  0.7546771E-02  0.1148243E+00
         21   -1    0    0  501  502  0.00000000000E+00  0.00000000000E+00  0.60082811070E+03  0.60082811070E+03  0.00000000000E+00 0. -1.
         21   -1    0    0  502  503 -0.00000000000E+00 -0.00000000000E+00 -0.13286515595E+03  0.13286515595E+03  0.00000000000E+00 0. -1.
         25    1    1    2    0    0  0.60612173101E+02 -0.19612136312E+03  0.44052465265E+03  0.50182107787E+03  0.12500000000E+03 0.  0.
          2    1    1    2  501    0 -0.44319761738E+02  0.10134128545E+03  0.65381508684E+02  0.12848750560E+03  0.00000000000E+00 0.  1.
         -2    1    1    2    0  503 -0.16292411362E+02  0.94780077671E+02 -0.37943206591E+02  0.10338468319E+03  0.00000000000E+00 0. -1.
<mgrwt>
<rscale>  4 0.20178370E+03</rscale>
<asrwt>0</asrwt>
<pdfrwt beam="1">  1       21 0.92435093E-01 0.20178370E+03</pdfrwt>
<pdfrwt beam="2">  1       21 0.20440794E-01 0.20178370E+03</pdfrwt>
<totfact> 0.21762285E+04</totfact>
</mgrwt>
</event>
<event>
 5    0  0.1781295E-001  0.4655889E+03  0.7546771E-02  0.1023173E+00
         21   -1    0    0  501  502  0.00000000000E+00  0.00000000000E+00  0.53334706423E+03  0.53334706423E+03  0.00000000000E+00 0. -1.
         21   -1    0    0  502  503 -0.00000000000E+00 -0.00000000000E+00 -0.70578223712E+03  0.70578223712E+03  0.00000000000E+00 0. -1.
         25    1    1    2    0    0 -0.27616473318E+03  0.35338511485E+03 -0.49616551944E+03  0.68040665924E+03  0.12500000000E+03 0.  0.
          1    1    1    2  501    0  0.21079031081E+03 -0.31639674365E+03  0.26634315434E+03  0.46419621970E+03  0.00000000000E+00 0. -1.
         -1    1    1    2    0  503  0.65374422376E+02 -0.36988371202E+02  0.57387192204E+02  0.94526422413E+02  0.00000000000E+00 0.  1.
<mgrwt>
<rscale>  4 0.46558887E+03</rscale>
<asrwt>0</asrwt>
<pdfrwt beam="1">  1       21 0.82053394E-01 0.46558887E+03</pdfrwt>
<pdfrwt beam="2">  1       21 0.10858188E+00 0.46558887E+03</pdfrwt>
<totfact> 0.73387895E+02</totfact>
</mgrwt>
</event>
<event>
 5    0  0.1781295E-001  0.2419188E+03  0.7546771E-02  0.1118521E+00
         21   -1    0    0  501  502  0.00000000000E+00  0.00000000000E+00  0.93764491304E+02  0.93764491304E+02  0.00000000000E+00 0.  1.
         21   -1    0    0  502  503 -0.00000000000E+00 -0.00000000000E+00 -0.78721262069E+03  0.78721262069E+03  0.00000000000E+00 0.  1.
         25    1    1    2    0    0 -0.10113280146E+03 -0.19267817316E+03 -0.17625870710E+03  0.30666733405E+03  0.12500000000E+03 0.  0.
          4    1    1    2  501    0 -0.24796430354E+02  0.49222964474E+02 -0.78777669725E+02  0.96144081655E+02  0.00000000000E+00 0. -1.
         -4    1    1    2    0  503  0.12592923181E+03  0.14345520869E+03 -0.43841175256E+03  0.47816569629E+03  0.00000000000E+00 0.  1.
<mgrwt>
<rscale>  4 0.24191881E+03</rscale>
<asrwt>0</asrwt>
<pdfrwt beam="1">  1       21 0.14425306E-01 0.24191881E+03</pdfrwt>
<pdfrwt beam="2">  1       21 0.12110963E+00 0.24191881E+03</pdfrwt>
<totfact> 0.21121259E+04</totfact>
</mgrwt>
</event>
<event>
 5    0  0.1781295E-001  0.2273061E+03  0.7546771E-02  0.1128550E+00
         21   -1    0    0  501  502  0.00000000000E+00  0.00000000000E+00  0.45511494032E+02  0.45511494032E+02  0.00000000000E+00 0.  1.
         21   -1    0    0  502  503 -0.00000000000E+00 -0.00000000000E+00 -0.15638902992E+04  0.15638902992E+04  0.00000000000E+00 0. -1.
         25    1    1    2    0    0  0.29990970308E+02  0.21601066387E+03 -0.49766512266E+03  0.55754429377E+03  0.12500000000E+03 0.  0.
          4    1    1    2  501    0 -0.43274324001E+01 -0.16460327317E+03 -0.46715534162E+03  0.49532522388E+03  0.00000000000E+00 0. -1.
         -4    1    1    2    0  503 -0.25663537908E+02 -0.51407390702E+02 -0.55355834086E+03  0.55653227555E+03  0.00000000000E+00 0.  1.
<mgrwt>
<rscale>  4 0.22730612E+03</rscale>
<asrwt>0</asrwt>
<pdfrwt beam="1">  1       21 0.70017684E-02 0.22730612E+03</pdfrwt>
<pdfrwt beam="2">  1       21 0.24059851E+00 0.22730612E+03</pdfrwt>
<totfact> 0.11087180E+04</totfact>
</mgrwt>
</event>
<event>
 5    0  0.1781295E-001  0.2747221E+03  0.7546771E-02  0.1098607E+00
         21   -1    0    0  501  502  0.00000000000E+00  0.00000000000E+00  0.55995510227E+03  0.55995510227E+03  0.00000000000E+00 0. -1.
         21   -1    0    0  502  503 -0.00000000000E+00 -0.00000000000E+00 -0.12298690228E+03  0.12298690228E+03  0.00000000000E+00 0. -1.
         25    1    1    2    0    0  0.12267923748E+03  0.21165311458E+03  0.24466389336E+03  0.36787587164E+03  0.12500000000E+03 0.  0.
          2    1    1    2  501    0 -0.55516627313E+02 -0.93645046476E+02  0.55027640358E+02  0.12198168650E+03  0.00000000000E+00 0. -1.
         -2    1    1    2    0  503 -0.67162610172E+02 -0.11800806811E+03  0.13727666627E+03  0.19308444641E+03  0.00000000000E+00 0.  1.
<mgrwt>
<rscale>  4 0.27472211E+03</rscale>
<asrwt>0</asrwt>
<pdfrwt beam="1">  1       21 0.86146938E-01 0.27472211E+03</pdfrwt>
<pdfrwt beam="2">  1       21 0.18921062E-01 0.27472211E+03</pdfrwt>
<totfact> 0.28565406E+04</totfact>
</mgrwt>
</event>
<event>
 5    0  0.1781295E-001  0.2498461E+03  0.7546771E-02  0.1113402E+00
         21   -1    0    0  501  502  0.00000000000E+00  0.00000000000E+00  0.38904312546E+03  0.38904312546E+03  0.00000000000E+00 0.  1.
         21   -1    0    0  502  503 -0.00000000000E+00 -0.00000000000E+00 -0.27772291462E+03  0.27772291462E+03  0.00000000000E+00 0.  1.
         25    1    1    2    0    0  0.25137328536E+03  0.26265751517E+02  0.18988046949E+03  0.33993824585E+03  0.12500000000E+03 0.  0.
          1    1    1    2  501    0 -0.20688633011E+03 -0.27362228959E+02 -0.13975644447E+03  0.25116231590E+03  0.00000000000E+00 0.  1.
         -1    1    1    2    0  503 -0.44486955253E+02  0.10964774422E+01  0.61196185823E+02  0.75665478322E+02  0.00000000000E+00 0. -1.
<mgrwt>
<rscale>  4 0.24984615E+03</rscale>
<asrwt>0</asrwt>
<pdfrwt beam="1">  1       21 0.59852789E-01 0.24984615E+03</pdfrwt>
<pdfrwt beam="2">  1       21 0.42726602E-01 0.24984615E+03</pdfrwt>
<totfact> 0.13268550E+04</totfact>
</mgrwt>
</event>
<event>
 5    0  0.1781295E-001  0.2496435E+03  0.7546771E-02  0.1113530E+00
         21   -1    0    0  501  502  0.00000000000E+00  0.00000000000E+00  0.12659406878E+04  0.12659406878E+04  0.00000000000E+00 0. -1.
         21   -1    0    0  502  503 -0.00000000000E+00 -0.00000000000E+00 -0.63953328109E+02  0.63953328109E+02  0.00000000000E+00 0. -1.
         25    1    1    2    0    0  0.18848114437E+03 -0.10569651343E+03  0.25330900178E+03  0.35565059414E+03  0.12500000000E+03 0.  0.
          4    1    1    2  501    0 -0.46027710861E+02  0.13427069123E+02  0.14113342226E+03  0.14905528917E+03  0.00000000000E+00 0.  1.
         -4    1    1    2    0  503 -0.14245343350E+03  0.92269444306E+02  0.80754493563E+03  0.82518813257E+03  0.00000000000E+00 0. -1.
<mgrwt>
<rscale>  4 0.24964354E+03</rscale>
<asrwt>0</asrwt>
<pdfrwt beam="1">  1       21 0.19476009E+00 0.24964354E+03</pdfrwt>
<pdfrwt beam="2">  1       21 0.98389745E-02 0.24964354E+03</pdfrwt>
<totfact> 0.11625904E+04</totfact>
</mgrwt>
</event>
<event>
 5    0  0.1781295E-001  0.4459174E+03  0.7546771E-02  0.1029863E+00
         21   -1    0    0  501  502  0.00000000000E+00  0.00000000000E+00  0.76108595481E+03  0.76108595481E+03  0.00000000000E+00 0. -1.
         21   -1    0    0  502  503 -0.00000000000E+00 -0.00000000000E+00 -0.26971014796E+03  0.26971014796E+03  0.00000000000E+00 0. -1.
         25    1    1    2    0    0 -0.24908439633E+03  0.33262012278E+03  0.11931362303E+03  0.45004435694E+03  0.12500000000E+03 0.  0.
          4    1    1    2  501    0  0.44456001872E+02 -0.18965465532E+03  0.18683952921E+03  0.26991523496E+03  0.00000000000E+00 0.  1.
         -4    1    1    2    0  503  0.20462839446E+03 -0.14296546746E+03  0.18522265461E+03  0.31083651086E+03  0.00000000000E+00 0. -1.
<mgrwt>
<rscale>  4 0.44289248E+03</rscale>
<asrwt>0</asrwt>
<pdfrwt beam="1">  1       21 0.11709015E+00 0.44591739E+03</pdfrwt>
<pdfrwt beam="2">  1       21 0.41493869E-01 0.44591739E+03</pdfrwt>
<totfact> 0.27214847E+03</totfact>
</mgrwt>
</event>
<event>
 5    0  0.1781295E-001  0.4633990E+03  0.7546771E-02  0.1025211E+00
         21   -1    0    0  501  502  0.00000000000E+00  0.00000000000E+00  0.72870828018E+03  0.72870828018E+03  0.00000000000E+00 0.  1.
         21   -1    0    0  502  503 -0.00000000000E+00 -0.00000000000E+00 -0.28268694735E+03  0.28268694735E+03  0.00000000000E+00 0.  1.
         25    1    1    2    0    0  0.15960620756E+03 -0.39522728473E+03  0.22743762880E+03  0.49903068351E+03  0.12500000000E+03 0.  0.
          3    1    1    2  501    0 -0.19084994678E+03  0.25062189767E+03  0.13823799351E+03  0.34401276230E+03  0.00000000000E+00 0. -1.
         -3    1    1    2    0  503  0.31243739212E+02  0.14460538706E+03  0.80345710516E+02  0.16835178171E+03  0.00000000000E+00 0.  1.
<mgrwt>
<rscale>  4 0.45851992E+03</rscale>
<asrwt>0</asrwt>
<pdfrwt beam="1">  1       21 0.11210897E+00 0.46339895E+03</pdfrwt>
<pdfrwt beam="2">  1       21 0.43490300E-01 0.46339895E+03</pdfrwt>
<totfact> 0.27341983E+03</totfact>
</mgrwt>
</event>
<event>
 5    0  0.1781295E-001  0.2737967E+03  0.7546771E-02  0.1099126E+00
         21   -1    0    0  501  502  0.00000000000E+00  0.00000000000E+00  0.26900126868E+03  0.26900126868E+03  0.00000000000E+00 0. -1.
         21   -1    0    0  502  503 -0.00000000000E+00 -0.00000000000E+00 -0.72291210351E+03  0.72291210351E+03  0.00000000000E+00 0. -1.
         25    1    1    2    0    0  0.24204069100E+03 -0.78358900248E+02  0.14930952448E+03  0.32037813198E+03  0.12500000000E+03 0.  0.
          1    1    1    2  501    0 -0.18767900592E+03  0.12440674983E+01 -0.48651888059E+03  0.52146483883E+03  0.00000000000E+00 0. -1.
         -1    1    1    2    0  503 -0.54361685086E+02  0.77114832750E+02 -0.11670147872E+03  0.15007040138E+03  0.00000000000E+00 0.  1.
<mgrwt>
<rscale>  4 0.27379672E+03</rscale>
<asrwt>0</asrwt>
<pdfrwt beam="1">  1       21 0.41384811E-01 0.27379672E+03</pdfrwt>
<pdfrwt beam="2">  1       21 0.11121725E+00 0.27379672E+03</pdfrwt>
<totfact> 0.33707585E+03</totfact>
</mgrwt>
</event>
<event>
 5    0  0.1781295E-001  0.2841756E+03  0.7546771E-02  0.1093430E+00
         21   -1    0    0  501  502  0.00000000000E+00  0.00000000000E+00  0.20692822156E+03  0.20692822156E+03  0.00000000000E+00 0. -1.
         21   -1    0    0  502  503 -0.00000000000E+00 -0.00000000000E+00 -0.35817391941E+03  0.35817391941E+03  0.00000000000E+00 0.  1.
         25    1    1    2    0    0  0.25424948088E+03  0.22090400750E+02 -0.73248129661E+02  0.29346392083E+03  0.12500000000E+03 0.  0.
          1    1    1    2  501    0 -0.17493545758E+03  0.19670673453E+00 -0.33889521425E+02  0.17818797006E+03  0.00000000000E+00 0. -1.
         -1    1    1    2    0  503 -0.79314023301E+02 -0.22287107485E+02 -0.44108046765E+02  0.93450250089E+02  0.00000000000E+00 0.  1.
<mgrwt>
<rscale>  4 0.28417562E+03</rscale>
<asrwt>0</asrwt>
<pdfrwt beam="1">  1       21 0.31835111E-01 0.28417562E+03</pdfrwt>
<pdfrwt beam="2">  1       21 0.55103680E-01 0.28417562E+03</pdfrwt>
<totfact> 0.28226019E+04</totfact>
</mgrwt>
</event>
<event>
 5    0  0.1781295E-001  0.2574230E+03  0.7546771E-02  0.1108701E+00
         21   -1    0    0  501  502  0.00000000000E+00  0.00000000000E+00  0.23893893732E+03  0.23893893732E+03  0.00000000000E+00 0.  1.
         21   -1    0    0  502  503 -0.00000000000E+00 -0.00000000000E+00 -0.42994297499E+03  0.42994297499E+03  0.00000000000E+00 0.  1.
         25    1    1    2    0    0  0.30692518578E+02 -0.22293404330E+03 -0.30891693399E+03  0.40211477275E+03  0.12500000000E+03 0.  0.
          2    1    1    2  501    0  0.46715247440E+01  0.11443748433E+03  0.19712711170E+02  0.11621683159E+03  0.00000000000E+00 0.  1.
         -2    1    1    2    0  503 -0.35364043322E+02  0.10849655897E+03  0.98200185146E+02  0.15055030797E+03  0.00000000000E+00 0. -1.
<mgrwt>
<rscale>  4 0.25742303E+03</rscale>
<asrwt>0</asrwt>
<pdfrwt beam="1">  1       21 0.36759837E-01 0.25742303E+03</pdfrwt>
<pdfrwt beam="2">  1       21 0.66145072E-01 0.25742303E+03</pdfrwt>
<totfact> 0.14427815E+04</totfact>
</mgrwt>
</event>
<event>
 5    0  0.1781295E-001  0.5611920E+03  0.7546771E-02  0.9989361E-01
         21   -1    0    0  501  502  0.00000000000E+00  0.00000000000E+00  0.14764940958E+04  0.14764940958E+04  0.00000000000E+00 0.  1.
         21   -1    0    0  502  503 -0.00000000000E+00 -0.00000000000E+00 -0.31103409319E+03  0.31103409319E+03  0.00000000000E+00 0.  1.
         25    1    1    2    0    0 -0.60846442494E+03  0.15426695371E+03  0.54999356910E+03  0.84388694472E+03  0.12500000000E+03 0.  0.
          4    1    1    2  501    0  0.44934051316E+03 -0.22126698368E+03  0.29950185318E+03  0.58358147237E+03  0.00000000000E+00 0.  1.
         -4    1    1    2    0  503  0.15912391178E+03  0.67000029974E+02  0.31596458036E+03  0.36005977192E+03  0.00000000000E+00 0. -1.
<mgrwt>
<rscale>  4 0.56119197E+03</rscale>
<asrwt>0</asrwt>
<pdfrwt beam="1">  1       21 0.22715293E+00 0.56119197E+03</pdfrwt>
<pdfrwt beam="2">  1       21 0.47851400E-01 0.56119197E+03</pdfrwt>
<totfact> 0.29149924E+02</totfact>
</mgrwt>
</event>
<event>
 5    0  0.1781295E-001  0.2692151E+03  0.7546771E-02  0.1101730E+00
         21   -1    0    0  501  502  0.00000000000E+00  0.00000000000E+00  0.29620034894E+03  0.29620034894E+03  0.00000000000E+00 0. -1.
         21   -1    0    0  502  503 -0.00000000000E+00 -0.00000000000E+00 -0.27563849131E+03  0.27563849131E+03  0.00000000000E+00 0. -1.
         25    1    1    2    0    0  0.89966232402E+02  0.24108487680E+03  0.10260123876E+02  0.28626231141E+03  0.12500000000E+03 0.  0.
          4    1    1    2  501    0 -0.22513515935E+02 -0.25139633653E+02  0.45469588221E+02  0.56624579759E+02  0.00000000000E+00 0.  1.
         -4    1    1    2    0  503 -0.67452716468E+02 -0.21594524315E+03 -0.35167854470E+02  0.22895194907E+03  0.00000000000E+00 0. -1.
<mgrwt>
<rscale>  4 0.26921506E+03</rscale>
<asrwt>0</asrwt>
<pdfrwt beam="1">  1       21 0.45569285E-01 0.26921506E+03</pdfrwt>
<pdfrwt beam="2">  1       21 0.42405922E-01 0.26921506E+03</pdfrwt>
<totfact> 0.23770269E+04</totfact>
</mgrwt>
</event>
<event>
 5    0  0.1781295E-001  0.2997535E+03  0.7546771E-02  0.1085364E+00
         21   -1    0    0  501  502  0.00000000000E+00  0.00000000000E+00  0.27992191084E+03  0.27992191084E+03  0.00000000000E+00 0. -1.
         21   -1    0    0  502  503 -0.00000000000E+00 -0.00000000000E+00 -0.30778169987E+03  0.30778169987E+03  0.00000000000E+00 0. -1.
         25    1    1    2    0    0  0.25488500514E+03 -0.96232946338E+02 -0.70395931662E+02  0.30790864392E+03  0.12500000000E+03 0.  0.
          1    1    1    2  501    0 -0.20693156019E+03  0.88145790643E+02  0.50484604233E+02  0.23051908007E+03  0.00000000000E+00 0. -1.
         -1    1    1    2    0  503 -0.47953444954E+02  0.80871556952E+01 -0.79484615933E+01  0.49275886719E+02  0.00000000000E+00 0.  1.
<mgrwt>
<rscale>  4 0.29975348E+03</rscale>
<asrwt>0</asrwt>
<pdfrwt beam="1">  1       21 0.43064909E-01 0.29975348E+03</pdfrwt>
<pdfrwt beam="2">  1       21 0.47351031E-01 0.29975348E+03</pdfrwt>
<totfact> 0.20994826E+04</totfact>
</mgrwt>
</event>
<event>
 5    0  0.1781295E-001  0.2284273E+03  0.7546771E-02  0.1127752E+00
         21   -1    0    0  501  502  0.00000000000E+00  0.00000000000E+00  0.50863558026E+03  0.50863558026E+03  0.00000000000E+00 0.  1.
         21   -1    0    0  502  503 -0.00000000000E+00 -0.00000000000E+00 -0.22290082243E+03  0.22290082243E+03  0.00000000000E+00 0.  1.
         25    1    1    2    0    0  0.81816557156E+02  0.18994752987E+03 -0.11624813334E+03  0.26816532519E+03  0.12500000000E+03 0.  0.
          4    1    1    2  501    0 -0.40150531551E+02 -0.46995868039E+02  0.21848591509E+03  0.22706116332E+03  0.00000000000E+00 0. -1.
         -4    1    1    2    0  503 -0.41666025604E+02 -0.14295166183E+03  0.18349697609E+03  0.23630991418E+03  0.00000000000E+00 0.  1.
<mgrwt>
<rscale>  4 0.22842730E+03</rscale>
<asrwt>0</asrwt>
<pdfrwt beam="1">  1       21 0.78251628E-01 0.22842730E+03</pdfrwt>
<pdfrwt beam="2">  1       21 0.34292434E-01 0.22842730E+03</pdfrwt>
<totfact> 0.11577273E+04</totfact>
</mgrwt>
</event>
<event>
 5    0  0.1781295E-001  0.2580155E+03  0.7546771E-02  0.1108341E+00
         21   -1    0    0  501  502  0.00000000000E+00  0.00000000000E+00  0.15785568751E+03  0.15785568751E+03  0.00000000000E+00 0.  1.
         21   -1    0    0  502  503 -0.00000000000E+00 -0.00000000000E+00 -0.38394768925E+03  0.38394768925E+03  0.00000000000E+00 0.  1.
         25    1    1    2    0    0 -0.22468093863E+03 -0.21575254745E+02 -0.16236775378E+03  0.30485292071E+03  0.12500000000E+03 0.  0.
          4    1    1    2  501    0  0.20212214009E+03  0.20154841876E+02 -0.67473882818E+02  0.21403808546E+03  0.00000000000E+00 0.  1.
         -4    1    1    2    0  503  0.22558798544E+02  0.14204128695E+01  0.37496348558E+01  0.22912370589E+02  0.00000000000E+00 0. -1.
<mgrwt>
<rscale>  4 0.25801553E+03</rscale>
<asrwt>0</asrwt>
<pdfrwt beam="1">  1       21 0.24285490E-01 0.25801553E+03</pdfrwt>
<pdfrwt beam="2">  1       21 0.59068876E-01 0.25801553E+03</pdfrwt>
<totfact> 0.41625956E+04</totfact>
</mgrwt>
</event>
<event>
 5    0  0.1781295E-001  0.4237305E+03  0.7546771E-02  0.1035859E+00
         21   -1    0    0  501  502  0.00000000000E+00  0.00000000000E+00  0.37615657901E+03  0.37615657901E+03  0.00000000000E+00 0. -1.
         21   -1    0    0  502  503 -0.00000000000E+00 -0.00000000000E+00 -0.59929020488E+03  0.59929020488E+03  0.00000000000E+00 0. -1.
         25    1    1    2    0    0 -0.10987985794E+03 -0.38004697074E+03  0.10087521118E+03  0.42697785819E+03  0.12500000000E+03 0.  0.
          3    1    1    2  501    0 -0.20362588261E+02 -0.70160236783E+01  0.71430187517E+01  0.22691018175E+02  0.00000000000E+00 0.  1.
         -3    1    1    2    0  503  0.13024244620E+03  0.38706299442E+03 -0.33115185580E+03  0.52577790753E+03  0.00000000000E+00 0. -1.
<mgrwt>
<rscale>  4 0.42373050E+03</rscale>
<asrwt>0</asrwt>
<pdfrwt beam="1">  1       21 0.57870243E-01 0.42373050E+03</pdfrwt>
<pdfrwt beam="2">  1       21 0.92198492E-01 0.42373050E+03</pdfrwt>
<totfact> 0.24331860E+03</totfact>
</mgrwt>
</event>
<event>
 5    0  0.1781295E-001  0.2422706E+03  0.7546771E-02  0.1118289E+00
         21   -1    0    0  501  502  0.00000000000E+00  0.00000000000E+00  0.70204307307E+02  0.70204307307E+02  0.00000000000E+00 0. -1.
         21   -1    0    0  502  503 -0.00000000000E+00 -0.00000000000E+00 -0.10246945878E+04  0.10246945878E+04  0.00000000000E+00 0.  1.
         25    1    1    2    0    0  0.15431456206E+03 -0.15975573953E+03 -0.31459904002E+03  0.40488570777E+03  0.12500000000E+03 0.  0.
          2    1    1    2  501    0 -0.16320223994E+03  0.12063595094E+03 -0.60018427273E+03  0.63356859535E+03  0.00000000000E+00 0.  1.
         -2    1    1    2    0  503  0.88876778779E+01  0.39119788596E+02 -0.39706967777E+02  0.56444592016E+02  0.00000000000E+00 0. -1.
<mgrwt>
<rscale>  4 0.24227061E+03</rscale>
<asrwt>0</asrwt>
<pdfrwt beam="1">  1       21 0.10800664E-01 0.24227061E+03</pdfrwt>
<pdfrwt beam="2">  1       21 0.15764531E+00 0.24227061E+03</pdfrwt>
<totfact> 0.17961829E+04</totfact>
</mgrwt>
</event>
<event>
 5    0  0.1781295E-001  0.2586386E+03  0.7546771E-02  0.1107964E+00
         21   -1    0    0  501  502  0.00000000000E+00  0.00000000000E+00  0.52295532799E+03  0.52295532799E+03  0.00000000000E+00 0. -1.
         21   -1    0    0  502  503 -0.00000000000E+00 -0.00000000000E+00 -0.14023078998E+03  0.14023078998E+03  0.00000000000E+00 0.  1.
         25    1    1    2    0    0  0.33404125158E+02 -0.22394885240E+03  0.34132239968E+03  0.42824631299E+03  0.12500000000E+03 0.  0.
          1    1    1    2  501    0 -0.76258947057E+01  0.20553022109E+02  0.18418776003E+02  0.28632713761E+02  0.00000000000E+00 0. -1.
         -1    1    1    2    0  503 -0.25778230453E+02  0.20339583029E+03  0.22983362331E+02  0.20630709122E+03  0.00000000000E+00 0.  1.
<mgrwt>
<rscale>  4 0.25863860E+03</rscale>
<asrwt>0</asrwt>
<pdfrwt beam="1">  1       21 0.80454665E-01 0.25863860E+03</pdfrwt>
<pdfrwt beam="2">  1       21 0.21573968E-01 0.25863860E+03</pdfrwt>
<totfact> 0.26286810E+04</totfact>
</mgrwt>
</event>
<event>
 5    0  0.1781295E-001  0.2541658E+03  0.7546771E-02  0.1110700E+00
         21   -1    0    0  501  502  0.00000000000E+00  0.00000000000E+00  0.11643639062E+03  0.11643639062E+03  0.00000000000E+00 0. -1.
         21   -1    0    0  502  503 -0.00000000000E+00 -0.00000000000E+00 -0.75766096193E+03  0.75766096193E+03  0.00000000000E+00 0. -1.
         25    1    1    2    0    0  0.14796140773E+03 -0.21334062711E+03 -0.30142567584E+03  0.41700028706E+03  0.12500000000E+03 0.  0.
          4    1    1    2  501    0  0.37593629575E+01  0.77497352175E+02 -0.23792084601E+02  0.81154394174E+02  0.00000000000E+00 0.  1.
         -4    1    1    2    0  503 -0.15172077069E+03  0.13584327494E+03 -0.31600681087E+03  0.37594267132E+03  0.00000000000E+00 0. -1.
<mgrwt>
<rscale>  4 0.25416576E+03</rscale>
<asrwt>0</asrwt>
<pdfrwt beam="1">  1       21 0.17913291E-01 0.25416576E+03</pdfrwt>
<pdfrwt beam="2">  1       21 0.11656322E+00 0.25416576E+03</pdfrwt>
<totfact> 0.15488794E+04</totfact>
</mgrwt>
</event>
<event>
 5    0  0.1781295E-001  0.2799822E+03  0.7546771E-02  0.1095699E+00
         21   -1    0    0  501  502  0.00000000000E+00  0.00000000000E+00  0.14498131167E+04  0.14498131167E+04  0.00000000000E+00 0.  1.
         21   -1    0    0  502  503 -0.00000000000E+00 -0.00000000000E+00 -0.79375424769E+02  0.79375424769E+02  0.00000000000E+00 0.  1.
         25    1    1    2    0    0  0.90732633349E+01  0.25036514047E+03  0.11566126664E+04  0.11900180199E+04  0.12500000000E+03 0.  0.
          1    1    1    2  501    0 -0.37413389080E+02 -0.13282600168E+03  0.83008862549E+02  0.16103719964E+03  0.00000000000E+00 0.  1.
         -1    1    1    2    0  503  0.28340125745E+02 -0.11753913878E+03  0.13081616294E+03  0.17813332187E+03  0.00000000000E+00 0. -1.
<mgrwt>
<rscale>  4 0.27998219E+03</rscale>
<asrwt>0</asrwt>
<pdfrwt beam="1">  1       21 0.22304815E+00 0.27998219E+03</pdfrwt>
<pdfrwt beam="2">  1       21 0.12211605E-01 0.27998219E+03</pdfrwt>
<totfact> 0.51042397E+03</totfact>
</mgrwt>
</event>
<event>
 5    0  0.1781295E-001  0.2237856E+03  0.7546771E-02  0.1131092E+00
         21   -1    0    0  501  502  0.00000000000E+00  0.00000000000E+00  0.13072656174E+03  0.13072656174E+03  0.00000000000E+00 0.  1.
         21   -1    0    0  502  503 -0.00000000000E+00 -0.00000000000E+00 -0.82509540549E+03  0.82509540549E+03  0.00000000000E+00 0.  1.
         25    1    1    2    0    0  0.18613130221E+03  0.97598273032E+02 -0.66485897237E+03  0.70840153705E+03  0.12500000000E+03 0.  0.
          2    1    1    2  501    0 -0.11118212753E+03 -0.84950443139E+02 -0.75085325202E+02  0.15879499152E+03  0.00000000000E+00 0.  1.
         -2    1    1    2    0  503 -0.74949174677E+02 -0.12647829892E+02  0.45575453815E+02  0.88625438651E+02  0.00000000000E+00 0. -1.
<mgrwt>
<rscale>  4 0.22378561E+03</rscale>
<asrwt>0</asrwt>
<pdfrwt beam="1">  1       21 0.20111779E-01 0.22378561E+03</pdfrwt>
<pdfrwt beam="2">  1       21 0.12693775E+00 0.22378561E+03</pdfrwt>
<totfact> 0.10260128E+04</totfact>
</mgrwt>
</event>
<event>
 5    0  0.1781295E-001  0.2234562E+03  0.7546771E-02  0.1131332E+00
         21   -1    0    0  501  502  0.00000000000E+00  0.00000000000E+00  0.10900301921E+04  0.10900301921E+04  0.00000000000E+00 0.  1.
         21   -1    0    0  502  503 -0.00000000000E+00 -0.00000000000E+00 -0.67303879141E+02  0.67303879141E+02  0.00000000000E+00 0.  1.
         25    1    1    2    0    0  0.19216995855E+03 -0.10474075595E+03  0.64575334596E+03  0.69319716009E+03  0.12500000000E+03 0.  0.
          2    1    1    2  501    0 -0.12786344884E+03  0.99288146176E+02  0.36390638953E+03  0.39829016791E+03  0.00000000000E+00 0. -1.
         -2    1    1    2    0  503 -0.64306509714E+02  0.54526097789E+01  0.13066577435E+02  0.65846743206E+02  0.00000000000E+00 0.  1.
<mgrwt>
<rscale>  4 0.22345624E+03</rscale>
<asrwt>0</asrwt>
<pdfrwt beam="1">  1       21 0.16769694E+00 0.22345624E+03</pdfrwt>
<pdfrwt beam="2">  1       21 0.10354444E-01 0.22345624E+03</pdfrwt>
<totfact> 0.16543574E+04</totfact>
</mgrwt>
</event>
<event>
 5    0  0.1781295E-001  0.2496107E+03  0.7546771E-02  0.1113551E+00
         21   -1    0    0  501  502  0.00000000000E+00  0.00000000000E+00  0.26662917580E+03  0.26662917580E+03  0.00000000000E+00 0.  1.
         21   -1    0    0  502  503 -0.00000000000E+00 -0.00000000000E+00 -0.32044200662E+03  0.32044200662E+03  0.00000000000E+00 0. -1.
         25    1    1    2    0    0 -0.64560400506E+01  0.21596021408E+03  0.13855041768E+03  0.28548504822E+03  0.12500000000E+03 0.  0.
          4    1    1    2  501    0  0.38679160896E+02 -0.53574641596E+02 -0.44974861227E+02  0.79931582319E+02  0.00000000000E+00 0. -1.
         -4    1    1    2    0  503 -0.32223120845E+02 -0.16238557248E+03 -0.14738838727E+03  0.22165455188E+03  0.00000000000E+00 0.  1.
<mgrwt>
<rscale>  4 0.24961069E+03</rscale>
<asrwt>0</asrwt>
<pdfrwt beam="1">  1       21 0.41019873E-01 0.24961069E+03</pdfrwt>
<pdfrwt beam="2">  1       21 0.49298770E-01 0.24961069E+03</pdfrwt>
<totfact> 0.21787886E+04</totfact>
</mgrwt>
</event>
<event>
 5    0  0.1781295E-001  0.2418930E+03  0.7546771E-02  0.1118538E+00
         21   -1    0    0  501  502  0.00000000000E+00  0.00000000000E+00  0.74635021266E+02  0.74635021266E+02  0.00000000000E+00 0.  1.
         21   -1    0    0  502  503 -0.00000000000E+00 -0.00000000000E+00 -0.12180795908E+04  0.12180795908E+04  0.00000000000E+00 0. -1.
         25    1    1    2    0    0  0.37441709513E+01  0.20705845402E+03 -0.17590629997E+03  0.29909070291E+03  0.12500000000E+03 0.  0.
          2    1    1    2  501    0  0.41873334280E+02 -0.75355204243E+02 -0.33536087781E+03  0.34626391856E+03  0.00000000000E+00 0.  1.
         -2    1    1    2    0  503 -0.45617505231E+02 -0.13170324978E+03 -0.63217739177E+03  0.64735999061E+03  0.00000000000E+00 0. -1.
<mgrwt>
<rscale>  4 0.24189300E+03</rscale>
<asrwt>0</asrwt>
<pdfrwt beam="1">  1       21 0.11482312E-01 0.24189300E+03</pdfrwt>
<pdfrwt beam="2">  1       21 0.18739684E+00 0.24189300E+03</pdfrwt>
<totfact> 0.99292434E+03</totfact>
</mgrwt>
</event>
<event>
 5    0  0.1781295E-001  0.4401151E+03  0.7546771E-02  0.1030712E+00
         21   -1    0    0  501  502  0.00000000000E+00  0.00000000000E+00  0.10981871344E+04  0.10981871344E+04  0.00000000000E+00 0.  1.
         21   -1    0    0  502  503 -0.00000000000E+00 -0.00000000000E+00 -0.17403030796E+03  0.17403030796E+03  0.00000000000E+00 0.  1.
         25    1    1    2    0    0 -0.13271235699E+03 -0.40057923444E+03  0.46349398135E+03  0.63916192276E+03  0.12500000000E+03 0.  0.
          3    1    1    2  501    0  0.13772598652E+03  0.26642788851E+03  0.32293805615E+03  0.44072809673E+03  0.00000000000E+00 0.  1.
         -3    1    1    2    0  503 -0.50136295276E+01  0.13415134593E+03  0.13772478891E+03  0.19232742284E+03  0.00000000000E+00 0. -1.
<mgrwt>
<rscale>  4 0.44011509E+03</rscale>
<asrwt>0</asrwt>
<pdfrwt beam="1">  1       21 0.16895186E+00 0.44011509E+03</pdfrwt>
<pdfrwt beam="2">  1       21 0.26773894E-01 0.44011509E+03</pdfrwt>
<totfact> 0.24773728E+03</totfact>
</mgrwt>
</event>
<event>
 5    0  0.1781295E-001  0.2785274E+03  0.7546771E-02  0.1096496E+00
         21   -1    0    0  501  502  0.00000000000E+00  0.00000000000E+00  0.36517519379E+03  0.36517519379E+03  0.00000000000E+00 0. -1.
         21   -1    0    0  502  503 -0.00000000000E+00 -0.00000000000E+00 -0.19746793453E+03  0.19746793453E+03  0.00000000000E+00 0. -1.
         25    1    1    2    0    0 -0.89200506421E+02  0.23236992343E+03  0.65920381197E+02  0.28622195639E+03  0.12500000000E+03 0.  0.
          4    1    1    2  501    0  0.38008408666E+02 -0.13818170535E+03  0.27321551529E+02  0.14589479086E+03  0.00000000000E+00 0. -1.
         -4    1    1    2    0  503  0.51192097755E+02 -0.94188218081E+02  0.74465326536E+02  0.13052638107E+03  0.00000000000E+00 0.  1.
<mgrwt>
<rscale>  4 0.27852740E+03</rscale>
<asrwt>0</asrwt>
<pdfrwt beam="1">  1       21 0.56180799E-01 0.27852740E+03</pdfrwt>
<pdfrwt beam="2">  1       21 0.30379682E-01 0.27852740E+03</pdfrwt>
<totfact> 0.29769053E+04</totfact>
</mgrwt>
</event>
<event>
 5    0  0.1781295E-001  0.2983377E+03  0.7546771E-02  0.1086075E+00
         21   -1    0    0  501  502  0.00000000000E+00  0.00000000000E+00  0.26182467519E+03  0.26182467519E+03  0.00000000000E+00 0.  1.
         21   -1    0    0  502  503 -0.00000000000E+00 -0.00000000000E+00 -0.40722103232E+03  0.40722103232E+03  0.00000000000E+00 0.  1.
         25    1    1    2    0    0 -0.26491802497E+03 -0.56558311719E+02 -0.22893260731E+03  0.37605257780E+03  0.12500000000E+03 0.  0.
          4    1    1    2  501    0  0.13564291215E+03  0.33418933398E+02  0.46172567371E+01  0.13977533326E+03  0.00000000000E+00 0. -1.
         -4    1    1    2    0  503  0.12927511282E+03  0.23139378321E+02  0.78918993440E+02  0.15321779645E+03  0.00000000000E+00 0.  1.
<mgrwt>
<rscale>  4 0.29833773E+03</rscale>
<asrwt>0</asrwt>
<pdfrwt beam="1">  1       21 0.40280720E-01 0.29833773E+03</pdfrwt>
<pdfrwt beam="2">  1       21 0.62649389E-01 0.29833773E+03</pdfrwt>
<totfact> 0.13248166E+04</totfact>
</mgrwt>
</event>
<event>
 5    0  0.1781295E-001  0.1904458E+03  0.7546771E-02  0.1158060E+00
         21   -1    0    0  501  502  0.00000000000E+00  0.00000000000E+00  0.15536985525E+03  0.15536985525E+03  0.00000000000E+00 0. -1.
         21   -1    0    0  502  503 -0.00000000000E+00 -0.00000000000E+00 -0.62650527250E+03  0.62650527250E+03  0.00000000000E+00 0.  1.
         25    1    1    2    0    0 -0.51229270953E+01 -0.24069187378E+03 -0.67865325090E+02  0.27962389890E+03  0.12500000000E+03 0.  0.
          1    1    1    2  501    0 -0.17332903328E+01  0.13290077565E+03 -0.36369474164E+03  0.38722020294E+03  0.00000000000E+00 0.  1.
         -1    1    1    2    0  503  0.68562174281E+01  0.10779109813E+03 -0.39575350524E+02  0.11503102591E+03  0.00000000000E+00 0. -1.
<mgrwt>
<rscale>  4 0.19044585E+03</rscale>
<asrwt>0</asrwt>
<pdfrwt beam="1">  1       21 0.23903055E-01 0.19044585E+03</pdfrwt>
<pdfrwt beam="2">  1       21 0.96385425E-01 0.19044585E+03</pdfrwt>
<totfact> 0.14794537E+04</totfact>
</mgrwt>
</event>
<event>
 5    0  0.1781295E-001  0.2447461E+03  0.7546771E-02  0.1116671E+00
         21   -1    0    0  501  502  0.00000000000E+00  0.00000000000E+00  0.77693052154E+03  0.77693052154E+03  0.00000000000E+00 0.  1.
         21   -1    0    0  502  503 -0.00000000000E+00 -0.00000000000E+00 -0.94647438074E+02  0.94647438074E+02  0.00000000000E+00 0.  1.
         25    1    1    2    0    0 -0.20601717609E+03  0.87312933887E+02  0.52111882647E+03  0.58073785529E+03  0.12500000000E+03 0.  0.
          1    1    1    2  501    0  0.26003465285E+02 -0.22504222596E+02 -0.81652465808E+01  0.35345317840E+02  0.00000000000E+00 0. -1.
         -1    1    1    2    0  503  0.18001371081E+03 -0.64808711291E+02  0.16932950358E+03  0.25549478649E+03  0.00000000000E+00 0.  1.
<mgrwt>
<rscale>  4 0.24474606E+03</rscale>
<asrwt>0</asrwt>
<pdfrwt beam="1">  1       21 0.11952777E+00 0.24474606E+03</pdfrwt>
<pdfrwt beam="2">  1       21 0.14561145E-01 0.24474606E+03</pdfrwt>
<totfact> 0.21425686E+04</totfact>
</mgrwt>
</event>
<event>
 5    0  0.1781295E-001  0.2533876E+03  0.7546771E-02  0.1111182E+00
         21   -1    0    0  501  502  0.00000000000E+00  0.00000000000E+00  0.33214935678E+03  0.33214935678E+03  0.00000000000E+00 0. -1.
         21   -1    0    0  502  503 -0.00000000000E+00 -0.00000000000E+00 -0.17953525589E+03  0.17953525589E+03  0.00000000000E+00 0.  1.
         25    1    1    2    0    0  0.21126615785E+03 -0.62824224545E+02  0.62757345486E+02  0.26104359225E+03  0.12500000000E+03 0.  0.
          3    1    1    2  501    0 -0.48849976698E+02 -0.18582259535E+02  0.18163429289E+02  0.55331101167E+02  0.00000000000E+00 0. -1.
         -3    1    1    2    0  503 -0.16241618115E+03  0.81406484080E+02  0.71693326110E+02  0.19530991926E+03  0.00000000000E+00 0.  1.
<mgrwt>
<rscale>  4 0.25338759E+03</rscale>
<asrwt>0</asrwt>
<pdfrwt beam="1">  1       21 0.51099901E-01 0.25338759E+03</pdfrwt>
<pdfrwt beam="2">  1       21 0.27620809E-01 0.25338759E+03</pdfrwt>
<totfact> 0.44304973E+04</totfact>
</mgrwt>
</event>
<event>
 5    0  0.1781295E-001  0.2356271E+03  0.7546771E-02  0.1122741E+00
         21   -1    0    0  501  502  0.00000000000E+00  0.00000000000E+00  0.19513497823E+03  0.19513497823E+03  0.00000000000E+00 0. -1.
         21   -1    0    0  502  503 -0.00000000000E+00 -0.00000000000E+00 -0.46360174866E+03  0.46360174866E+03  0.00000000000E+00 0. -1.
         25    1    1    2    0    0  0.17264215710E+03  0.12346550769E+03  0.52180140838E+02  0.25178723775E+03  0.12500000000E+03 0.  0.
          3    1    1    2  501    0 -0.73022757435E+02  0.19801689107E+02 -0.86267677806E+02  0.11474555429E+03  0.00000000000E+00 0.  1.
         -3    1    1    2    0  503 -0.99619399661E+02 -0.14326719679E+03 -0.23437923346E+03  0.29220393485E+03  0.00000000000E+00 0. -1.
<mgrwt>
<rscale>  4 0.23562708E+03</rscale>
<asrwt>0</asrwt>
<pdfrwt beam="1">  1       21 0.30020766E-01 0.23562708E+03</pdfrwt>
<pdfrwt beam="2">  1       21 0.71323345E-01 0.23562708E+03</pdfrwt>
<totfact> 0.18456319E+04</totfact>
</mgrwt>
</event>
<event>
 5    0  0.1781295E-001  0.2284284E+03  0.7546771E-02  0.1127751E+00
         21   -1    0    0  501  502  0.00000000000E+00  0.00000000000E+00  0.20008902863E+03  0.20008902863E+03  0.00000000000E+00 0.  1.
         21   -1    0    0  502  503 -0.00000000000E+00 -0.00000000000E+00 -0.41585198166E+03  0.41585198166E+03  0.00000000000E+00 0.  1.
         25    1    1    2    0    0 -0.20322509762E+03  0.11947102029E+03  0.19039507772E+02  0.26750937899E+03  0.12500000000E+03 0.  0.
          2    1    1    2  501    0  0.14695577202E+03 -0.10645561730E+03 -0.22627534102E+03  0.29005055997E+03  0.00000000000E+00 0.  1.
         -2    1    1    2    0  503  0.56269325599E+02 -0.13015402983E+02 -0.85271197809E+01  0.58381071333E+02  0.00000000000E+00 0. -1.
<mgrwt>
<rscale>  4 0.22842840E+03</rscale>
<asrwt>0</asrwt>
<pdfrwt beam="1">  1       21 0.30782928E-01 0.22842840E+03</pdfrwt>
<pdfrwt beam="2">  1       21 0.63977227E-01 0.22842840E+03</pdfrwt>
<totfact> 0.22406165E+04</totfact>
</mgrwt>
</event>
<event>
 5    0  0.1781295E-001  0.3265144E+03  0.7546771E-02  0.1072690E+00
         21   -1    0    0  501  502  0.00000000000E+00  0.00000000000E+00  0.59768115518E+03  0.59768115518E+03  0.00000000000E+00 0. -1.
         21   -1    0    0  502  503 -0.00000000000E+00 -0.00000000000E+00 -0.42360140585E+03  0.42360140585E+03  0.00000000000E+00 0. -1.
         25    1    1    2    0    0 -0.27480250279E+03 -0.12437944588E+03 -0.30274637271E+03  0.44527185885E+03  0.12500000000E+03 0.  0.
          4    1    1    2  501    0  0.20895496944E+03  0.92949422912E+02  0.25518059702E+03  0.34266442998E+03  0.00000000000E+00 0. -1.
         -4    1    1    2    0  503  0.65847533347E+02  0.31430022968E+02  0.22164552501E+03  0.23334627220E+03  0.00000000000E+00 0.  1.
<mgrwt>
<rscale>  4 0.32651441E+03</rscale>
<asrwt>0</asrwt>
<pdfrwt beam="1">  1       21 0.91950946E-01 0.32651441E+03</pdfrwt>
<pdfrwt beam="2">  1       21 0.65169447E-01 0.32651441E+03</pdfrwt>
<totfact> 0.19731426E+03</totfact>
</mgrwt>
</event>
<event>
 5    0  0.1781295E-001  0.2445882E+03  0.7546771E-02  0.1116774E+00
         21   -1    0    0  501  502  0.00000000000E+00  0.00000000000E+00  0.26133087709E+02  0.26133087709E+02  0.00000000000E+00 0. -1.
         21   -1    0    0  502  503 -0.00000000000E+00 -0.00000000000E+00 -0.25912501025E+04  0.25912501025E+04  0.00000000000E+00 0. -1.
         25    1    1    2    0    0  0.19256120921E+03 -0.84371614020E+02 -0.75538210005E+03  0.79399339143E+03  0.12500000000E+03 0.  0.
          1    1    1    2  501    0 -0.82562927038E+02 -0.12156245030E+01 -0.74901614947E+03  0.75355378496E+03  0.00000000000E+00 0.  1.
         -1    1    1    2    0  503 -0.10999828217E+03  0.85587238523E+02 -0.10607187653E+04  0.10698360138E+04  0.00000000000E+00 0. -1.
<mgrwt>
<rscale>  4 0.24458820E+03</rscale>
<asrwt>0</asrwt>
<pdfrwt beam="1">  1       21 0.40204749E-02 0.24458820E+03</pdfrwt>
<pdfrwt beam="2">  1       21 0.39865387E+00 0.24458820E+03</pdfrwt>
<totfact> 0.32339263E+03</totfact>
</mgrwt>
</event>
<event>
 5    0  0.1781295E-001  0.2520808E+03  0.7546771E-02  0.1111997E+00
         21   -1    0    0  501  502  0.00000000000E+00  0.00000000000E+00  0.55772924821E+03  0.55772924821E+03  0.00000000000E+00 0. -1.
         21   -1    0    0  502  503 -0.00000000000E+00 -0.00000000000E+00 -0.13338894030E+03  0.13338894030E+03  0.00000000000E+00 0. -1.
         25    1    1    2    0    0  0.22247009877E+03 -0.78002329749E+02  0.11884508749E+03  0.29210693780E+03  0.12500000000E+03 0.  0.
          2    1    1    2  501    0 -0.31341290320E+02  0.17962576462E+02  0.12236584769E+03  0.12758656400E+03  0.00000000000E+00 0.  1.
         -2    1    1    2    0  503 -0.19112880845E+03  0.60039753287E+02  0.18312937274E+03  0.27142468670E+03  0.00000000000E+00 0. -1.
<mgrwt>
<rscale>  4 0.25208078E+03</rscale>
<asrwt>0</asrwt>
<pdfrwt beam="1">  1       21 0.85804498E-01 0.25208078E+03</pdfrwt>
<pdfrwt beam="2">  1       21 0.20521376E-01 0.25208078E+03</pdfrwt>
<totfact> 0.24998641E+04</totfact>
</mgrwt>
</event>
<event>
 5    0  0.1781295E-001  0.1864924E+03  0.7546771E-02  0.1161664E+00
         21   -1    0    0  501  502  0.00000000000E+00  0.00000000000E+00  0.10036731751E+04  0.10036731751E+04  0.00000000000E+00 0.  1.
         21   -1    0    0  502  503 -0.00000000000E+00 -0.00000000000E+00 -0.59054614127E+02  0.59054614127E+02  0.00000000000E+00 0.  1.
         25    1    1    2    0    0  0.83159607556E+02  0.18787321250E+03  0.36311923313E+03  0.43553695799E+03  0.12500000000E+03 0.  0.
          2    1    1    2  501    0 -0.12693555231E+02 -0.10399951580E+03  0.41398955396E+03  0.42704142237E+03  0.00000000000E+00 0. -1.
         -2    1    1    2    0  503 -0.70466052325E+02 -0.83873696696E+02  0.16750977392E+03  0.20014940891E+03  0.00000000000E+00 0.  1.
<mgrwt>
<rscale>  4 0.18649236E+03</rscale>
<asrwt>0</asrwt>
<pdfrwt beam="1">  1       21 0.15441125E+00 0.18649236E+03</pdfrwt>
<pdfrwt beam="2">  1       21 0.90853260E-02 0.18649236E+03</pdfrwt>
<totfact> 0.26705638E+04</totfact>
</mgrwt>
</event>
<event>
 5    0  0.1781295E-001  0.2240980E+03  0.7546771E-02  0.1130864E+00
         21   -1    0    0  501  502  0.00000000000E+00  0.00000000000E+00  0.81027813070E+03  0.81027813070E+03  0.00000000000E+00 0.  1.
         21   -1    0    0  502  503 -0.00000000000E+00 -0.00000000000E+00 -0.13425763671E+03  0.13425763671E+03  0.00000000000E+00 0.  1.
         25    1    1    2    0    0  0.16281848222E+03 -0.15977796295E+03  0.31140104872E+03  0.40575173289E+03  0.12500000000E+03 0.  0.
          4    1    1    2  501    0 -0.18939677681E+03 -0.87233932222E+01  0.77526092896E+02  0.20483537716E+03  0.00000000000E+00 0.  1.
         -4    1    1    2    0  503  0.26578294597E+02  0.16850135617E+03  0.28709335237E+03  0.33394865736E+03  0.00000000000E+00 0. -1.
<mgrwt>
<rscale>  4 0.22409798E+03</rscale>
<asrwt>0</asrwt>
<pdfrwt beam="1">  1       21 0.12465817E+00 0.22409798E+03</pdfrwt>
<pdfrwt beam="2">  1       21 0.20655022E-01 0.22409798E+03</pdfrwt>
<totfact> 0.10212932E+04</totfact>
</mgrwt>
</event>
<event>
 5    0  0.1781295E-001  0.2585558E+03  0.7546771E-02  0.1108014E+00
         21   -1    0    0  501  502  0.00000000000E+00  0.00000000000E+00  0.18655327330E+03  0.18655327330E+03  0.00000000000E+00 0. -1.
         21   -1    0    0  502  503 -0.00000000000E+00 -0.00000000000E+00 -0.54175444322E+03  0.54175444322E+03  0.00000000000E+00 0. -1.
         25    1    1    2    0    0  0.16250541583E+03  0.16593248757E+03 -0.39565541478E+03  0.47551005021E+03  0.12500000000E+03 0.  0.
          3    1    1    2  501    0 -0.13101505588E+03 -0.16485801216E+03  0.12954348978E+02  0.21097612234E+03  0.00000000000E+00 0. -1.
         -3    1    1    2    0  503 -0.31490359950E+02 -0.10744754108E+01  0.27499895882E+02  0.41821543979E+02  0.00000000000E+00 0.  1.
<mgrwt>
<rscale>  4 0.25855583E+03</rscale>
<asrwt>0</asrwt>
<pdfrwt beam="1">  1       21 0.28700503E-01 0.25855583E+03</pdfrwt>
<pdfrwt beam="2">  1       21 0.83346838E-01 0.25855583E+03</pdfrwt>
<totfact> 0.14007819E+04</totfact>
</mgrwt>
</event>
<event>
 5    0  0.1781295E-001  0.2570251E+03  0.7546771E-02  0.1108944E+00
         21   -1    0    0  501  502  0.00000000000E+00  0.00000000000E+00  0.33695067657E+03  0.33695067657E+03  0.00000000000E+00 0. -1.
         21   -1    0    0  502  503 -0.00000000000E+00 -0.00000000000E+00 -0.42814553698E+03  0.42814553698E+03  0.00000000000E+00 0.  1.
         25    1    1    2    0    0  0.17287377975E+03 -0.17214391538E+03  0.16675872303E+03  0.32086187532E+03  0.12500000000E+03 0.  0.
          2    1    1    2  501    0 -0.29182621375E+02  0.36488806996E+02 -0.24145872836E+03  0.24593774807E+03  0.00000000000E+00 0.  1.
         -2    1    1    2    0  503 -0.14369115838E+03  0.13565510838E+03 -0.16494855078E+02  0.19829659016E+03  0.00000000000E+00 0. -1.
<mgrwt>
<rscale>  4 0.25702514E+03</rscale>
<asrwt>0</asrwt>
<pdfrwt beam="1">  1       21 0.51838566E-01 0.25702514E+03</pdfrwt>
<pdfrwt beam="2">  1       21 0.65868544E-01 0.25702514E+03</pdfrwt>
<totfact> 0.71744331E+03</totfact>
</mgrwt>
</event>
<event>
 5    0  0.1781295E-001  0.3085620E+03  0.7546771E-02  0.1081037E+00
         21   -1    0    0  501  502  0.00000000000E+00  0.00000000000E+00  0.12677559597E+04  0.12677559597E+04  0.00000000000E+00 0. -1.
         21   -1    0    0  502  503 -0.00000000000E+00 -0.00000000000E+00 -0.19328922237E+03  0.19328922237E+03  0.00000000000E+00 0. -1.
         25    1    1    2    0    0  0.28970827319E+03  0.23961466163E+02  0.10954785985E+04  0.11402646163E+04  0.12500000000E+03 0.  0.
          4    1    1    2  501    0 -0.48715070915E+02  0.62416694981E+00 -0.57980729994E+02  0.75731847787E+02  0.00000000000E+00 0.  1.
         -4    1    1    2    0  503 -0.24099320228E+03 -0.24585633113E+02  0.36968868763E+02  0.24504871793E+03  0.00000000000E+00 0. -1.
<mgrwt>
<rscale>  4 0.30856202E+03</rscale>
<asrwt>0</asrwt>
<pdfrwt beam="1">  1       21 0.19503937E+00 0.30856202E+03</pdfrwt>
<pdfrwt beam="2">  1       21 0.29736804E-01 0.30856202E+03</pdfrwt>
<totfact> 0.14208912E+03</totfact>
</mgrwt>
</event>
<event>
 5    0  0.1781295E-001  0.2536463E+03  0.7546771E-02  0.1111022E+00
         21   -1    0    0  501  502  0.00000000000E+00  0.00000000000E+00  0.21682630674E+04  0.21682630674E+04  0.00000000000E+00 0.  1.
         21   -1    0    0  502  503 -0.00000000000E+00 -0.00000000000E+00 -0.11116586226E+03  0.11116586226E+03  0.00000000000E+00 0. -1.
         25    1    1    2    0    0 -0.21329556367E+03 -0.56713714236E+02  0.20308371122E+04  0.20466156989E+04  0.12500000000E+03 0.  0.
          2    1    1    2  501    0  0.64062681267E+02 -0.63634165461E+01 -0.13972085930E+02  0.65876698358E+02  0.00000000000E+00 0. -1.
         -2    1    1    2    0  503  0.14923288240E+03  0.63077130782E+02  0.40232178857E+02  0.16693653235E+03  0.00000000000E+00 0.  1.
<mgrwt>
<rscale>  4 0.25364629E+03</rscale>
<asrwt>0</asrwt>
<pdfrwt beam="1">  1       21 0.33357890E+00 0.25364629E+03</pdfrwt>
<pdfrwt beam="2">  1       21 0.17102442E-01 0.25364629E+03</pdfrwt>
<totfact> 0.62253070E+02</totfact>
</mgrwt>
</event>
<event>
 5    0  0.1781295E-001  0.2189614E+03  0.7546771E-02  0.1134660E+00
         21   -1    0    0  501  502  0.00000000000E+00  0.00000000000E+00  0.74641782596E+03  0.74641782596E+03  0.00000000000E+00 0.  1.
         21   -1    0    0  502  503 -0.00000000000E+00 -0.00000000000E+00 -0.11517522232E+03  0.11517522232E+03  0.00000000000E+00 0.  1.
         25    1    1    2    0    0 -0.25559939855E+03  0.42960477706E+02  0.26287899376E+03  0.38975251191E+03  0.12500000000E+03 0.  0.
          1    1    1    2  501    0  0.11715970804E+03  0.31392210660E+02  0.85973639555E+02  0.14867190312E+03  0.00000000000E+00 0.  1.
         -1    1    1    2    0  503  0.13843969050E+03 -0.74352688366E+02  0.28238997033E+03  0.32316863325E+03  0.00000000000E+00 0. -1.
<mgrwt>
<rscale>  4 0.21896138E+03</rscale>
<asrwt>0</asrwt>
<pdfrwt beam="1">  1       21 0.11483351E+00 0.21896138E+03</pdfrwt>
<pdfrwt beam="2">  1       21 0.17719265E-01 0.21896138E+03</pdfrwt>
<totfact> 0.16722601E+04</totfact>
</mgrwt>
</event>
<event>
 5    0  0.1781295E-001  0.3430225E+03  0.7546771E-02  0.1065516E+00
         21   -1    0    0  501  502  0.00000000000E+00  0.00000000000E+00  0.80523154790E+03  0.80523154790E+03  0.00000000000E+00 0. -1.
         21   -1    0    0  502  503 -0.00000000000E+00 -0.00000000000E+00 -0.22223943695E+03  0.22223943695E+03  0.00000000000E+00 0. -1.
         25    1    1    2    0    0 -0.38214610784E+03  0.39632309382E+02  0.25187851818E+03  0.47610309347E+03  0.12500000000E+03 0.  0.
          2    1    1    2  501    0  0.12469302722E+03  0.88488519567E+02  0.10380914886E+03  0.18481046647E+03  0.00000000000E+00 0.  1.
         -2    1    1    2    0  503  0.25745308063E+03 -0.12812082895E+03  0.22730444391E+03  0.36655742491E+03  0.00000000000E+00 0. -1.
<mgrwt>
<rscale>  4 0.34302247E+03</rscale>
<asrwt>0</asrwt>
<pdfrwt beam="1">  1       21 0.12388178E+00 0.34302247E+03</pdfrwt>
<pdfrwt beam="2">  1       21 0.34190683E-01 0.34302247E+03</pdfrwt>
<totfact> 0.36538846E+03</totfact>
</mgrwt>
</event>
<event>
 5    0  0.1781295E-001  0.2360829E+03  0.7546771E-02  0.1122430E+00
         21   -1    0    0  501  502  0.00000000000E+00  0.00000000000E+00  0.34999982044E+03  0.34999982044E+03  0.00000000000E+00 0. -1.
         21   -1    0    0  502  503 -0.00000000000E+00 -0.00000000000E+00 -0.39939711938E+03  0.39939711938E+03  0.00000000000E+00 0. -1.
         25    1    1    2    0    0  0.29489539151E+02  0.19809220957E+03  0.27712200839E+03  0.36404912299E+03  0.12500000000E+03 0.  0.
          3    1    1    2  501    0 -0.37608090484E+02 -0.16241699108E+03 -0.28338120584E+03  0.32878344740E+03  0.00000000000E+00 0. -1.
         -3    1    1    2    0  503  0.81185513326E+01 -0.35675218488E+02 -0.43138101493E+02  0.56564369441E+02  0.00000000000E+00 0.  1.
<mgrwt>
<rscale>  4 0.23608294E+03</rscale>
<asrwt>0</asrwt>
<pdfrwt beam="1">  1       21 0.53846126E-01 0.23608294E+03</pdfrwt>
<pdfrwt beam="2">  1       21 0.61445711E-01 0.23608294E+03</pdfrwt>
<totfact> 0.77993262E+03</totfact>
</mgrwt>
</event>
<event>
 5    0  0.1781295E-001  0.2221037E+03  0.7546771E-02  0.1132324E+00
         21   -1    0    0  501  502  0.00000000000E+00  0.00000000000E+00  0.12400212981E+03  0.12400212981E+03  0.00000000000E+00 0.  1.
         21   -1    0    0  502  503 -0.00000000000E+00 -0.00000000000E+00 -0.70101450336E+03  0.70101450336E+03  0.00000000000E+00 0.  1.
         25    1    1    2    0    0  0.30448092226E+01 -0.24104439503E+03 -0.17102947680E+03  0.32091705030E+03  0.12500000000E+03 0.  0.
          3    1    1    2  501    0 -0.77182722584E+01  0.17004999281E+03 -0.39754056833E+03  0.43245239651E+03  0.00000000000E+00 0.  1.
         -3    1    1    2    0  503  0.46734630358E+01  0.70994402224E+02 -0.84423284345E+01  0.71647186360E+02  0.00000000000E+00 0. -1.
<mgrwt>
<rscale>  4 0.22210370E+03</rscale>
<asrwt>0</asrwt>
<pdfrwt beam="1">  1       21 0.19077251E-01 0.22210370E+03</pdfrwt>
<pdfrwt beam="2">  1       21 0.10784839E+00 0.22210370E+03</pdfrwt>
<totfact> 0.16953175E+04</totfact>
</mgrwt>
</event>
<event>
 5    0  0.1781295E-001  0.2723074E+03  0.7546771E-02  0.1099966E+00
         21   -1    0    0  501  502  0.00000000000E+00  0.00000000000E+00  0.11471924052E+04  0.11471924052E+04  0.00000000000E+00 0.  1.
         21   -1    0    0  502  503 -0.00000000000E+00 -0.00000000000E+00 -0.99807041472E+03  0.99807041472E+03  0.00000000000E+00 0. -1.
         25    1    1    2    0    0  0.20717658064E+03 -0.12636250971E+03  0.11073871537E+04  0.11405353689E+04  0.12500000000E+03 0.  0.
          2    1    1    2  501    0 -0.15371988654E+03  0.13243810820E+03 -0.91033433799E+03  0.93267264512E+03  0.00000000000E+00 0. -1.
         -2    1    1    2    0  503 -0.53456694095E+02 -0.60755984911E+01 -0.47930825280E+02  0.72054805895E+02  0.00000000000E+00 0.  1.
<mgrwt>
<rscale>  4 0.27230737E+03</rscale>
<asrwt>0</asrwt>
<pdfrwt beam="1">  1       21 0.17649114E+00 0.27230737E+03</pdfrwt>
<pdfrwt beam="2">  1       21 0.15354929E+00 0.27230737E+03</pdfrwt>
<totfact> 0.48739216E+01</totfact>
</mgrwt>
</event>
<event>
 5    0  0.1781295E-001  0.3315131E+03  0.7546771E-02  0.1070469E+00
         21   -1    0    0  501  502  0.00000000000E+00  0.00000000000E+00  0.10789383637E+04  0.10789383637E+04  0.00000000000E+00 0. -1.
         21   -1    0    0  502  503 -0.00000000000E+00 -0.00000000000E+00 -0.12295873249E+03  0.12295873249E+03  0.00000000000E+00 0.  1.
         25    1    1    2    0    0  0.57166243132E+02 -0.31135336450E+03  0.53582501659E+03  0.63477739826E+03  0.12500000000E+03 0.  0.
          4    1    1    2  501    0 -0.56670112107E+02  0.11250957948E+02  0.95881848605E+01  0.58566363639E+02  0.00000000000E+00 0. -1.
         -4    1    1    2    0  503 -0.49613102556E+00  0.30010240655E+03  0.41056642974E+03  0.50855333427E+03  0.00000000000E+00 0.  1.
<mgrwt>
<rscale>  4 0.33151308E+03</rscale>
<asrwt>0</asrwt>
<pdfrwt beam="1">  1       21 0.16599051E+00 0.33151308E+03</pdfrwt>
<pdfrwt beam="2">  1       21 0.18916729E-01 0.33151308E+03</pdfrwt>
<totfact> 0.53253475E+03</totfact>
</mgrwt>
</event>
<event>
 5    0  0.1781295E-001  0.4150603E+03  0.7546771E-02  0.1038686E+00
         21   -1    0    0  501  502  0.00000000000E+00  0.00000000000E+00  0.11863767099E+04  0.11863767099E+04  0.00000000000E+00 0. -1.
         21   -1    0    0  502  503 -0.00000000000E+00 -0.00000000000E+00 -0.15596826138E+03  0.15596826138E+03  0.00000000000E+00 0. -1.
         25    1    1    2    0    0  0.22981225106E+03  0.32223650041E+03  0.32012692218E+03  0.52417199395E+03  0.12500000000E+03 0.  0.
          3    1    1    2  501    0 -0.82239986765E+02 -0.69288737658E+02  0.25613810455E+03  0.27779681998E+03  0.00000000000E+00 0. -1.
         -3    1    1    2    0  503 -0.14757226430E+03 -0.25294776275E+03  0.45414342177E+03  0.54037615733E+03  0.00000000000E+00 0.  1.
<mgrwt>
<rscale>  4 0.41506028E+03</rscale>
<asrwt>0</asrwt>
<pdfrwt beam="1">  1       21 0.18251949E+00 0.41506028E+03</pdfrwt>
<pdfrwt beam="2">  1       21 0.23995118E-01 0.41506028E+03</pdfrwt>
<totfact> 0.24798902E+03</totfact>
</mgrwt>
</event>
<event>
 5    0  0.1781295E-001  0.2168566E+03  0.7546771E-02  0.1136248E+00
         21   -1    0    0  501  502  0.00000000000E+00  0.00000000000E+00  0.49721226346E+02  0.49721226346E+02  0.00000000000E+00 0. -1.
         21   -1    0    0  502  503 -0.00000000000E+00 -0.00000000000E+00 -0.12255420028E+04  0.12255420028E+04  0.00000000000E+00 0.  1.
         25    1    1    2    0    0  0.19516352669E+03 -0.50995856920E+02 -0.36124301377E+03  0.43221625903E+03  0.12500000000E+03 0.  0.
          3    1    1    2  501    0 -0.26263935338E+02  0.25767668324E+02 -0.69386042631E+02  0.78537824915E+02  0.00000000000E+00 0. -1.
         -3    1    1    2    0  503 -0.16889959135E+03  0.25228188595E+02 -0.74519172007E+03  0.76450914521E+03  0.00000000000E+00 0.  1.
<mgrwt>
<rscale>  4 0.21685660E+03</rscale>
<asrwt>0</asrwt>
<pdfrwt beam="1">  1       21 0.76494197E-02 0.21685660E+03</pdfrwt>
<pdfrwt beam="2">  1       21 0.18854492E+00 0.21685660E+03</pdfrwt>
<totfact> 0.20330699E+04</totfact>
</mgrwt>
</event>
<event>
 5    0  0.1781295E-001  0.2304173E+03  0.7546771E-02  0.1126346E+00
         21   -1    0    0  501  502  0.00000000000E+00  0.00000000000E+00  0.21544511485E+03  0.21544511485E+03  0.00000000000E+00 0. -1.
         21   -1    0    0  502  503 -0.00000000000E+00 -0.00000000000E+00 -0.83313383687E+03  0.83313383687E+03  0.00000000000E+00 0.  1.
         25    1    1    2    0    0  0.47636265173E+02 -0.21381459448E+03  0.11284716822E+03  0.27630667373E+03  0.12500000000E+03 0.  0.
          3    1    1    2  501    0 -0.58939491388E+02  0.93058144807E+02 -0.49767122601E+03  0.50971593183E+03  0.00000000000E+00 0.  1.
         -3    1    1    2    0  503  0.11303226214E+02  0.12075644967E+03 -0.23286466423E+03  0.26255634616E+03  0.00000000000E+00 0. -1.
<mgrwt>
<rscale>  4 0.23041733E+03</rscale>
<asrwt>0</asrwt>
<pdfrwt beam="1">  1       21 0.33145402E-01 0.23041733E+03</pdfrwt>
<pdfrwt beam="2">  1       21 0.12817444E+00 0.23041733E+03</pdfrwt>
<totfact> 0.38089148E+03</totfact>
</mgrwt>
</event>
<event>
 5    0  0.1781295E-001  0.3926719E+03  0.7546771E-02  0.1046347E+00
         21   -1    0    0  501  502  0.00000000000E+00  0.00000000000E+00  0.82058186911E+02  0.82058186911E+02  0.00000000000E+00 0. -1.
         21   -1    0    0  502  503 -0.00000000000E+00 -0.00000000000E+00 -0.24006652513E+04  0.24006652513E+04  0.00000000000E+00 0.  1.
         25    1    1    2    0    0  0.30814817081E+03  0.20883237985E+03 -0.57578407537E+03  0.69693511857E+03  0.12500000000E+03 0.  0.
          2    1    1    2  501    0 -0.13889682652E+03 -0.16236894674E+03 -0.98400173948E+03  0.10069336754E+04  0.00000000000E+00 0.  1.
         -2    1    1    2    0  503 -0.16925134429E+03 -0.46463433115E+02 -0.75882124955E+03  0.77885464429E+03  0.00000000000E+00 0. -1.
<mgrwt>
<rscale>  4 0.39267195E+03</rscale>
<asrwt>0</asrwt>
<pdfrwt beam="1">  1       21 0.12624337E-01 0.39267195E+03</pdfrwt>
<pdfrwt beam="2">  1       21 0.36933311E+00 0.39267195E+03</pdfrwt>
<totfact> 0.58422312E+02</totfact>
</mgrwt>
</event>
<event>
 5    0  0.1781295E-001  0.3084245E+03  0.7546771E-02  0.1081103E+00
         21   -1    0    0  501  502  0.00000000000E+00  0.00000000000E+00  0.14227802165E+03  0.14227802165E+03  0.00000000000E+00 0.  1.
         21   -1    0    0  502  503 -0.00000000000E+00 -0.00000000000E+00 -0.70634224618E+03  0.70634224618E+03  0.00000000000E+00 0. -1.
         25    1    1    2    0    0 -0.91613385250E+02  0.26666021597E+03 -0.15081910497E+03  0.34332504360E+03  0.12500000000E+03 0.  0.
          1    1    1    2  501    0  0.56892003615E+02 -0.66161137680E+02 -0.12770375585E+03  0.15466817860E+03  0.00000000000E+00 0.  1.
         -1    1    1    2    0  503  0.34721381634E+02 -0.20049907829E+03 -0.28554136372E+03  0.35062704563E+03  0.00000000000E+00 0. -1.
<mgrwt>
<rscale>  4 0.30842452E+03</rscale>
<asrwt>0</asrwt>
<pdfrwt beam="1">  1       21 0.21888926E-01 0.30842452E+03</pdfrwt>
<pdfrwt beam="2">  1       21 0.10866804E+00 0.30842452E+03</pdfrwt>
<totfact> 0.12295519E+04</totfact>
</mgrwt>
</event>
<event>
 5    0  0.1781295E-001  0.3218466E+03  0.7546771E-02  0.1074803E+00
         21   -1    0    0  501  502  0.00000000000E+00  0.00000000000E+00  0.10499354402E+03  0.10499354402E+03  0.00000000000E+00 0.  1.
         21   -1    0    0  502  503 -0.00000000000E+00 -0.00000000000E+00 -0.10084315836E+04  0.10084315836E+04  0.00000000000E+00 0. -1.
         25    1    1    2    0    0  0.17537270829E+03 -0.23917488235E+03 -0.30977320302E+03  0.44670420691E+03  0.12500000000E+03 0.  0.
          2    1    1    2  501    0 -0.23825478909E+02  0.62869552036E+02 -0.93487590076E+02  0.11515278337E+03  0.00000000000E+00 0.  1.
         -2    1    1    2    0  503 -0.15154722938E+03  0.17630533031E+03 -0.50017724644E+03  0.55156813730E+03  0.00000000000E+00 0. -1.
<mgrwt>
<rscale>  4 0.32184656E+03</rscale>
<asrwt>0</asrwt>
<pdfrwt beam="1">  1       21 0.16152854E-01 0.32184656E+03</pdfrwt>
<pdfrwt beam="2">  1       21 0.15514331E+00 0.32184656E+03</pdfrwt>
<totfact> 0.86572066E+03</totfact>
</mgrwt>
</event>
<event>
 5    0  0.1781295E-001  0.2658322E+03  0.7546771E-02  0.1103689E+00
         21   -1    0    0  501  502  0.00000000000E+00  0.00000000000E+00  0.31561722366E+03  0.31561722366E+03  0.00000000000E+00 0.  1.
         21   -1    0    0  502  503 -0.00000000000E+00 -0.00000000000E+00 -0.23063036540E+03  0.23063036540E+03  0.00000000000E+00 0.  1.
         25    1    1    2    0    0  0.22251143952E+03  0.74366919352E+02 -0.49231255149E+02  0.27035254002E+03  0.12500000000E+03 0.  0.
          4    1    1    2  501    0 -0.61158258322E+02 -0.34932291305E+02  0.16585708823E+02  0.72358021490E+02  0.00000000000E+00 0. -1.
         -4    1    1    2    0  503 -0.16135318120E+03 -0.39434628047E+02  0.11763240459E+03  0.20353702755E+03  0.00000000000E+00 0.  1.
<mgrwt>
<rscale>  4 0.26583224E+03</rscale>
<asrwt>0</asrwt>
<pdfrwt beam="1">  1       21 0.48556496E-01 0.26583224E+03</pdfrwt>
<pdfrwt beam="2">  1       21 0.35481595E-01 0.26583224E+03</pdfrwt>
<totfact> 0.29936854E+04</totfact>
</mgrwt>
</event>
<event>
 5    0  0.1781295E-001  0.2379103E+03  0.7546771E-02  0.1121193E+00
         21   -1    0    0  501  502  0.00000000000E+00  0.00000000000E+00  0.17740851597E+03  0.17740851597E+03  0.00000000000E+00 0. -1.
         21   -1    0    0  502  503 -0.00000000000E+00 -0.00000000000E+00 -0.50913138480E+03  0.50913138480E+03  0.00000000000E+00 0. -1.
         25    1    1    2    0    0 -0.20136989171E+03  0.20651365660E+02  0.58600328075E+02  0.24502104123E+03  0.12500000000E+03 0.  0.
          3    1    1    2  501    0  0.15716042864E+03 -0.29839828783E+01 -0.32101942080E+03  0.35743778901E+03  0.00000000000E+00 0. -1.
         -3    1    1    2    0  503  0.44209463078E+02 -0.17667382782E+02 -0.69303776105E+02  0.84081070536E+02  0.00000000000E+00 0.  1.
<mgrwt>
<rscale>  4 0.23791030E+03</rscale>
<asrwt>0</asrwt>
<pdfrwt beam="1">  1       21 0.27293618E-01 0.23791030E+03</pdfrwt>
<pdfrwt beam="2">  1       21 0.78327905E-01 0.23791030E+03</pdfrwt>
<totfact> 0.17985790E+04</totfact>
</mgrwt>
</event>
<event>
 5    0  0.1781295E-001  0.2543903E+03  0.7546771E-02  0.1110561E+00
         21   -1    0    0  501  502  0.00000000000E+00  0.00000000000E+00  0.13955937617E+03  0.13955937617E+03  0.00000000000E+00 0. -1.
         21   -1    0    0  502  503 -0.00000000000E+00 -0.00000000000E+00 -0.43277743836E+03  0.43277743836E+03  0.00000000000E+00 0. -1.
         25    1    1    2    0    0 -0.11595815177E+03  0.18879394062E+03 -0.15457999985E+03  0.29767334669E+03  0.12500000000E+03 0.  0.
          1    1    1    2  501    0  0.35470271310E+02 -0.82231397028E+02 -0.10291503410E+03  0.13642451044E+03  0.00000000000E+00 0. -1.
         -1    1    1    2    0  503  0.80487880463E+02 -0.10656254359E+03 -0.35723028234E+02  0.13823895740E+03  0.00000000000E+00 0.  1.
<mgrwt>
<rscale>  4 0.25439034E+03</rscale>
<asrwt>0</asrwt>
<pdfrwt beam="1">  1       21 0.21470673E-01 0.25439034E+03</pdfrwt>
<pdfrwt beam="2">  1       21 0.66581145E-01 0.25439034E+03</pdfrwt>
<totfact> 0.40606935E+04</totfact>
</mgrwt>
</event>
<event>
 5    0  0.1781295E-001  0.2963981E+03  0.7546771E-02  0.1087055E+00
         21   -1    0    0  501  502  0.00000000000E+00  0.00000000000E+00  0.92986630620E+02  0.92986630620E+02  0.00000000000E+00 0. -1.
         21   -1    0    0  502  503 -0.00000000000E+00 -0.00000000000E+00 -0.90214313633E+03  0.90214313633E+03  0.00000000000E+00 0.  1.
         25    1    1    2    0    0  0.17100964353E+03  0.20732233182E+03 -0.32492783532E+03  0.43980671393E+03  0.12500000000E+03 0.  0.
          4    1    1    2  501    0 -0.16319922497E+03 -0.17910106104E+03 -0.43934311524E+03  0.50173055519E+03  0.00000000000E+00 0.  1.
         -4    1    1    2    0  503 -0.78104185567E+01 -0.28221270789E+02 -0.44885555155E+02  0.53592497838E+02  0.00000000000E+00 0. -1.
<mgrwt>
<rscale>  4 0.29639812E+03</rscale>
<asrwt>0</asrwt>
<pdfrwt beam="1">  1       21 0.14305635E-01 0.29639812E+03</pdfrwt>
<pdfrwt beam="2">  1       21 0.13879125E+00 0.29639812E+03</pdfrwt>
<totfact> 0.14743003E+04</totfact>
</mgrwt>
</event>
<event>
 5    0  0.1781295E-001  0.2365443E+03  0.7546771E-02  0.1122117E+00
         21   -1    0    0  501  502  0.00000000000E+00  0.00000000000E+00  0.18780163759E+03  0.18780163759E+03  0.00000000000E+00 0. -1.
         21   -1    0    0  502  503 -0.00000000000E+00 -0.00000000000E+00 -0.47621530938E+03  0.47621530938E+03  0.00000000000E+00 0. -1.
         25    1    1    2    0    0 -0.10360690862E+03 -0.17740315985E+03  0.55221556932E+02  0.24674013250E+03  0.12500000000E+03 0.  0.
          4    1    1    2  501    0 -0.26173228221E+02  0.38783869522E+02 -0.70925596115E+02  0.84968621237E+02  0.00000000000E+00 0.  1.
         -4    1    1    2    0  503  0.12978013684E+03  0.13861929033E+03 -0.27270963261E+03  0.33230819323E+03  0.00000000000E+00 0. -1.
<mgrwt>
<rscale>  4 0.23654433E+03</rscale>
<asrwt>0</asrwt>
<pdfrwt beam="1">  1       21 0.28892560E-01 0.23654433E+03</pdfrwt>
<pdfrwt beam="2">  1       21 0.73263894E-01 0.23654433E+03</pdfrwt>
<totfact> 0.18726596E+04</totfact>
</mgrwt>
</event>
<event>
 5    0  0.1781295E-001  0.2358900E+03  0.7546771E-02  0.1122561E+00
         21   -1    0    0  501  502  0.00000000000E+00  0.00000000000E+00  0.17245789776E+03  0.17245789776E+03  0.00000000000E+00 0. -1.
         21   -1    0    0  502  503 -0.00000000000E+00 -0.00000000000E+00 -0.68455539384E+03  0.68455539384E+03  0.00000000000E+00 0. -1.
         25    1    1    2    0    0 -0.22540419894E+03 -0.11455886576E+03 -0.13668599437E+02  0.28238735317E+03  0.12500000000E+03 0.  0.
          4    1    1    2  501    0  0.17438089304E+03  0.81771791682E+02 -0.46942016143E+03  0.50739591024E+03  0.00000000000E+00 0. -1.
         -4    1    1    2    0  503  0.51023305893E+02  0.32787074076E+02 -0.29008735208E+02  0.67230028180E+02  0.00000000000E+00 0.  1.
<mgrwt>
<rscale>  4 0.23589000E+03</rscale>
<asrwt>0</asrwt>
<pdfrwt beam="1">  1       21 0.26531984E-01 0.23589000E+03</pdfrwt>
<pdfrwt beam="2">  1       21 0.10531621E+00 0.23589000E+03</pdfrwt>
<totfact> 0.95246855E+03</totfact>
</mgrwt>
</event>
<event>
 5    0  0.1781295E-001  0.3432326E+03  0.7546771E-02  0.1065427E+00
         21   -1    0    0  501  502  0.00000000000E+00  0.00000000000E+00  0.10749167154E+03  0.10749167154E+03  0.00000000000E+00 0.  1.
         21   -1    0    0  502  503 -0.00000000000E+00 -0.00000000000E+00 -0.14987673450E+04  0.14987673450E+04  0.00000000000E+00 0.  1.
         25    1    1    2    0    0  0.18215613901E+03  0.26610686364E+03 -0.34277017521E+03  0.48693953924E+03  0.12500000000E+03 0.  0.
          4    1    1    2  501    0 -0.13255118929E+03 -0.28846132350E+03 -0.72768071124E+03  0.79391370466E+03  0.00000000000E+00 0.  1.
         -4    1    1    2    0  503 -0.49604949726E+02  0.22354459855E+02 -0.32082478696E+03  0.32540577260E+03  0.00000000000E+00 0. -1.
<mgrwt>
<rscale>  4 0.34323256E+03</rscale>
<asrwt>0</asrwt>
<pdfrwt beam="1">  1       21 0.16537180E-01 0.34323256E+03</pdfrwt>
<pdfrwt beam="2">  1       21 0.23057959E+00 0.34323256E+03</pdfrwt>
<totfact> 0.25261863E+03</totfact>
</mgrwt>
</event>
<event>
 5    0  0.1865932E-001  0.2559342E+03  0.7546771E-02  0.1109611E+00
         21   -1    0    0  501  502  0.00000000000E+00  0.00000000000E+00  0.18267929416E+04  0.18267929416E+04  0.00000000000E+00 0.  1.
         21   -1    0    0  502  503 -0.00000000000E+00 -0.00000000000E+00 -0.15749445176E+03  0.15749445176E+03  0.00000000000E+00 0.  1.
         25    1    1    2    0    0  0.20067087153E+03 -0.98022919397E+02 -0.40219362194E+02  0.25907506346E+03  0.12500000000E+03 0.  0.
          1    1    1    2  501    0 -0.37418489165E+02  0.48827835141E+02  0.48179826752E+03  0.48570965751E+03  0.00000000000E+00 0. -1.
         -1    1    1    2    0  503 -0.16325238237E+03  0.49195084257E+02  0.12277195846E+04  0.12395026724E+04  0.00000000000E+00 0.  1.
<mgrwt>
<rscale>  4 0.25593415E+03</rscale>
<asrwt>0</asrwt>
<pdfrwt beam="1">  1       21 0.28104505E+00 0.25593415E+03</pdfrwt>
<pdfrwt beam="2">  1       21 0.24229917E-01 0.25593415E+03</pdfrwt>
<totfact> 0.65485058E+02</totfact>
</mgrwt>
</event>
<event>
 5    0  0.1781295E-001  0.2991581E+03  0.7546771E-02  0.1085662E+00
         21   -1    0    0  501  502  0.00000000000E+00  0.00000000000E+00  0.56786474225E+03  0.56786474225E+03  0.00000000000E+00 0.  1.
         21   -1    0    0  502  503 -0.00000000000E+00 -0.00000000000E+00 -0.21871916913E+03  0.21871916913E+03  0.00000000000E+00 0.  1.
         25    1    1    2    0    0  0.22503919989E+03  0.15240718745E+03  0.39886302040E+03  0.49858529994E+03  0.12500000000E+03 0.  0.
          3    1    1    2  501    0 -0.45649583036E+02 -0.15248749519E+02  0.19323947122E+02  0.51863510541E+02  0.00000000000E+00 0. -1.
         -3    1    1    2    0  503 -0.17938961686E+03 -0.13715843793E+03 -0.69041394408E+02  0.23613510089E+03  0.00000000000E+00 0.  1.
<mgrwt>
<rscale>  4 0.29915814E+03</rscale>
<asrwt>0</asrwt>
<pdfrwt beam="1">  1       21 0.87363806E-01 0.29915814E+03</pdfrwt>
<pdfrwt beam="2">  1       21 0.33649103E-01 0.29915814E+03</pdfrwt>
<totfact> 0.89980324E+03</totfact>
</mgrwt>
</event>
<event>
 5    0  0.1781295E-001  0.2402436E+03  0.7546771E-02  0.1119631E+00
         21   -1    0    0  501  502  0.00000000000E+00  0.00000000000E+00  0.40043501412E+03  0.40043501412E+03  0.00000000000E+00 0. -1.
         21   -1    0    0  502  503 -0.00000000000E+00 -0.00000000000E+00 -0.13964322185E+03  0.13964322185E+03  0.00000000000E+00 0. -1.
         25    1    1    2    0    0  0.18685641706E+03  0.84715106304E+02  0.22080939600E+03  0.32630317067E+03  0.12500000000E+03 0.  0.
          2    1    1    2  501    0 -0.16272773671E+03 -0.87339344505E+02  0.28305703581E+02  0.18684135048E+03  0.00000000000E+00 0. -1.
         -2    1    1    2    0  503 -0.24128680347E+02  0.26242382002E+01  0.11676692695E+02  0.26933714815E+02  0.00000000000E+00 0.  1.
<mgrwt>
<rscale>  4 0.24024356E+03</rscale>
<asrwt>0</asrwt>
<pdfrwt beam="1">  1       21 0.61605386E-01 0.24024356E+03</pdfrwt>
<pdfrwt beam="2">  1       21 0.21483573E-01 0.24024356E+03</pdfrwt>
<totfact> 0.48344254E+04</totfact>
</mgrwt>
</event>
<event>
 5    0  0.1781295E-001  0.2490973E+03  0.7546771E-02  0.1113877E+00
         21   -1    0    0  501  502  0.00000000000E+00  0.00000000000E+00  0.22185705415E+03  0.22185705415E+03  0.00000000000E+00 0.  1.
         21   -1    0    0  502  503 -0.00000000000E+00 -0.00000000000E+00 -0.33998217266E+03  0.33998217266E+03  0.00000000000E+00 0.  1.
         25    1    1    2    0    0 -0.76268057551E+02 -0.20151335416E+03 -0.20585780245E+03  0.32315148667E+03  0.12500000000E+03 0.  0.
          2    1    1    2  501    0  0.35967666611E+02  0.12940498824E+03  0.78497236524E+02  0.15556715645E+03  0.00000000000E+00 0.  1.
         -2    1    1    2    0  503  0.40300390940E+02  0.72108365915E+02  0.92354474160E+01  0.83120583695E+02  0.00000000000E+00 0. -1.
<mgrwt>
<rscale>  4 0.24909727E+03</rscale>
<asrwt>0</asrwt>
<pdfrwt beam="1">  1       21 0.34131855E-01 0.24909727E+03</pdfrwt>
<pdfrwt beam="2">  1       21 0.52304949E-01 0.24909727E+03</pdfrwt>
<totfact> 0.27866830E+04</totfact>
</mgrwt>
</event>
<event>
 5    0  0.1781295E-001  0.2182105E+03  0.7546771E-02  0.1135224E+00
         21   -1    0    0  501  502  0.00000000000E+00  0.00000000000E+00  0.37766279014E+03  0.37766279014E+03  0.00000000000E+00 0.  1.
         21   -1    0    0  502  503 -0.00000000000E+00 -0.00000000000E+00 -0.21984655211E+03  0.21984655211E+03  0.00000000000E+00 0.  1.
         25    1    1    2    0    0 -0.40582222605E+01  0.21932787079E+03  0.62307868551E+02  0.26005471455E+03  0.12500000000E+03 0.  0.
          2    1    1    2  501    0 -0.73960797845E+02 -0.15113953045E+03 -0.33928200181E+02  0.17165220666E+03  0.00000000000E+00 0.  1.
         -2    1    1    2    0  503  0.78019020106E+02 -0.68188340339E+02  0.12943656966E+03  0.16580242104E+03  0.00000000000E+00 0. -1.
<mgrwt>
<rscale>  4 0.21821054E+03</rscale>
<asrwt>0</asrwt>
<pdfrwt beam="1">  1       21 0.58101968E-01 0.21821054E+03</pdfrwt>
<pdfrwt beam="2">  1       21 0.33822547E-01 0.21821054E+03</pdfrwt>
<totfact> 0.23038963E+04</totfact>
</mgrwt>
</event>
<event>
 5    0  0.1781295E-001  0.2194238E+03  0.7546771E-02  0.1134313E+00
         21   -1    0    0  501  502  0.00000000000E+00  0.00000000000E+00  0.11145003339E+03  0.11145003339E+03  0.00000000000E+00 0.  1.
         21   -1    0    0  502  503 -0.00000000000E+00 -0.00000000000E+00 -0.75610091459E+03  0.75610091459E+03  0.00000000000E+00 0.  1.
         25    1    1    2    0    0  0.25016943872E+03  0.18167574684E+02 -0.24140521545E+03  0.36988685687E+03  0.12500000000E+03 0.  0.
          4    1    1    2  501    0 -0.16165527087E+03 -0.40607474736E+01 -0.36688056920E+03  0.40093673855E+03  0.00000000000E+00 0.  1.
         -4    1    1    2    0  503 -0.88514167855E+02 -0.14106827210E+02 -0.36365096546E+02  0.96727352553E+02  0.00000000000E+00 0. -1.
<mgrwt>
<rscale>  4 0.21942377E+03</rscale>
<asrwt>0</asrwt>
<pdfrwt beam="1">  1       21 0.17146158E-01 0.21942377E+03</pdfrwt>
<pdfrwt beam="2">  1       21 0.11632322E+00 0.21942377E+03</pdfrwt>
<totfact> 0.17213657E+04</totfact>
</mgrwt>
</event>
<event>
 5    0  0.1781295E-001  0.2428877E+03  0.7546771E-02  0.1117884E+00
         21   -1    0    0  501  502  0.00000000000E+00  0.00000000000E+00  0.25951364306E+04  0.25951364306E+04  0.00000000000E+00 0. -1.
         21   -1    0    0  502  503 -0.00000000000E+00 -0.00000000000E+00 -0.20496743681E+02  0.20496743681E+02  0.00000000000E+00 0. -1.
         25    1    1    2    0    0  0.19552031837E+03 -0.71702330091E+02  0.12119198951E+04  0.12360195189E+04  0.12500000000E+03 0.  0.
          1    1    1    2  501    0 -0.96561613522E+02  0.58770727405E+02  0.62027003420E+03  0.63048636697E+03  0.00000000000E+00 0. -1.
         -1    1    1    2    0  503 -0.98958704848E+02  0.12931602686E+02  0.74244975762E+03  0.74912728839E+03  0.00000000000E+00 0.  1.
<mgrwt>
<rscale>  4 0.24288767E+03</rscale>
<asrwt>0</asrwt>
<pdfrwt beam="1">  1       21 0.39925150E+00 0.24288767E+03</pdfrwt>
<pdfrwt beam="2">  1       21 0.31533472E-02 0.24288767E+03</pdfrwt>
<totfact> 0.48261810E+03</totfact>
</mgrwt>
</event>
<event>
 5    0  0.1781295E-001  0.4520990E+03  0.7546771E-02  0.1027098E+00
         21   -1    0    0  501  502  0.00000000000E+00  0.00000000000E+00  0.15470460728E+04  0.15470460728E+04  0.00000000000E+00 0. -1.
         21   -1    0    0  502  503 -0.00000000000E+00 -0.00000000000E+00 -0.36782945239E+03  0.36782945239E+03  0.00000000000E+00 0. -1.
         25    1    1    2    0    0  0.22623327766E+03  0.37283693344E+03 -0.17012637420E+03  0.48451713907E+03  0.12500000000E+03 0.  0.
          3    1    1    2  501    0 -0.43104773956E+02  0.96870448446E+01  0.21111527684E+03  0.21568848020E+03  0.00000000000E+00 0.  1.
         -3    1    1    2    0  503 -0.18312850370E+03 -0.38252397828E+03  0.11382277178E+04  0.12146699059E+04  0.00000000000E+00 0. -1.
<mgrwt>
<rscale>  4 0.45209905E+03</rscale>
<asrwt>0</asrwt>
<pdfrwt beam="1">  1       21 0.23800708E+00 0.45209905E+03</pdfrwt>
<pdfrwt beam="2">  1       21 0.56589147E-01 0.45209905E+03</pdfrwt>
<totfact> 0.18325518E+02</totfact>
</mgrwt>
</event>
<event>
 5    0  0.1781295E-001  0.3201674E+03  0.7546771E-02  0.1075572E+00
         21   -1    0    0  501  502  0.00000000000E+00  0.00000000000E+00  0.50944680234E+03  0.50944680234E+03  0.00000000000E+00 0.  1.
         21   -1    0    0  502  503 -0.00000000000E+00 -0.00000000000E+00 -0.25181845057E+03  0.25181845057E+03  0.00000000000E+00 0.  1.
         25    1    1    2    0    0  0.28151800218E+03 -0.87348651492E+02 -0.54923294906E+02  0.32484417925E+03  0.12500000000E+03 0.  0.
          3    1    1    2  501    0 -0.12008462265E+03  0.14842519188E+02  0.17266874693E+03  0.21084381219E+03  0.00000000000E+00 0. -1.
         -3    1    1    2    0  503 -0.16143337954E+03  0.72506132305E+02  0.13988289975E+03  0.22557726147E+03  0.00000000000E+00 0.  1.
<mgrwt>
<rscale>  4 0.32016741E+03</rscale>
<asrwt>0</asrwt>
<pdfrwt beam="1">  1       21 0.78376431E-01 0.32016741E+03</pdfrwt>
<pdfrwt beam="2">  1       21 0.38741300E-01 0.32016741E+03</pdfrwt>
<totfact> 0.86172484E+03</totfact>
</mgrwt>
</event>
<event>
 5    0  0.1781295E-001  0.3322352E+03  0.7546771E-02  0.1070152E+00
         21   -1    0    0  501  502  0.00000000000E+00  0.00000000000E+00  0.24753860677E+03  0.24753860677E+03  0.00000000000E+00 0.  1.
         21   -1    0    0  502  503 -0.00000000000E+00 -0.00000000000E+00 -0.41848630124E+03  0.41848630124E+03  0.00000000000E+00 0.  1.
         25    1    1    2    0    0  0.12840380643E+03 -0.27976365279E+03 -0.85702290230E+02  0.34311094631E+03  0.12500000000E+03 0.  0.
          4    1    1    2  501    0 -0.12869647656E+03  0.24544697706E+03 -0.75971990378E+02  0.28736517700E+03  0.00000000000E+00 0.  1.
         -4    1    1    2    0  503  0.29267013309E+00  0.34316675733E+02 -0.92734138570E+01  0.35548784702E+02  0.00000000000E+00 0. -1.
<mgrwt>
<rscale>  4 0.33223522E+03</rscale>
<asrwt>0</asrwt>
<pdfrwt beam="1">  1       21 0.38082863E-01 0.33223522E+03</pdfrwt>
<pdfrwt beam="2">  1       21 0.64382507E-01 0.33223522E+03</pdfrwt>
<totfact> 0.13797252E+04</totfact>
</mgrwt>
</event>
<event>
 5    0  0.1781295E-001  0.2390203E+03  0.7546771E-02  0.1120447E+00
         21   -1    0    0  501  502  0.00000000000E+00  0.00000000000E+00  0.16559722421E+03  0.16559722421E+03  0.00000000000E+00 0.  1.
         21   -1    0    0  502  503 -0.00000000000E+00 -0.00000000000E+00 -0.11972398015E+04  0.11972398015E+04  0.00000000000E+00 0. -1.
         25    1    1    2    0    0  0.72487268323E+02 -0.19039771681E+03  0.63646613578E+02  0.24734911776E+03  0.12500000000E+03 0.  0.
          4    1    1    2  501    0 -0.69105477255E+02  0.13294282625E+03 -0.68600103775E+03  0.70217290309E+03  0.00000000000E+00 0. -1.
         -4    1    1    2    0  503 -0.33817910682E+01  0.57454890560E+02 -0.40928815310E+03  0.41331500485E+03  0.00000000000E+00 0.  1.
<mgrwt>
<rscale>  4 0.23902028E+03</rscale>
<asrwt>0</asrwt>
<pdfrwt beam="1">  1       21 0.25476496E-01 0.23902028E+03</pdfrwt>
<pdfrwt beam="2">  1       21 0.18419074E+00 0.23902028E+03</pdfrwt>
<totfact> 0.23881706E+03</totfact>
</mgrwt>
</event>
<event>
 5    0  0.1781295E-001  0.3071867E+03  0.7546771E-02  0.1081702E+00
         21   -1    0    0  501  502  0.00000000000E+00  0.00000000000E+00  0.69033297479E+02  0.69033297479E+02  0.00000000000E+00 0. -1.
         21   -1    0    0  502  503 -0.00000000000E+00 -0.00000000000E+00 -0.13522722778E+04  0.13522722778E+04  0.00000000000E+00 0. -1.
         25    1    1    2    0    0 -0.17252724777E+03  0.22129850304E+03 -0.77492502345E+03  0.83359010949E+03  0.12500000000E+03 0.  0.
          4    1    1    2  501    0  0.93338288924E+02 -0.16571583560E+03 -0.39717101970E+03  0.44036188894E+03  0.00000000000E+00 0. -1.
         -4    1    1    2    0  503  0.79188958847E+02 -0.55582667440E+02 -0.11114293715E+03  0.14735357682E+03  0.00000000000E+00 0.  1.
<mgrwt>
<rscale>  4 0.30718672E+03</rscale>
<asrwt>0</asrwt>
<pdfrwt beam="1">  1       21 0.10620508E-01 0.30718672E+03</pdfrwt>
<pdfrwt beam="2">  1       21 0.20804188E+00 0.30718672E+03</pdfrwt>
<totfact> 0.80311965E+03</totfact>
</mgrwt>
</event>
<event>
 5    0  0.1781295E-001  0.2754516E+03  0.7546771E-02  0.1098199E+00
         21   -1    0    0  501  502  0.00000000000E+00  0.00000000000E+00  0.81965298723E+02  0.81965298723E+02  0.00000000000E+00 0.  1.
         21   -1    0    0  502  503 -0.00000000000E+00 -0.00000000000E+00 -0.12351038897E+04  0.12351038897E+04  0.00000000000E+00 0.  1.
         25    1    1    2    0    0  0.23831528639E+03 -0.58774160442E+02 -0.23814735532E+03  0.36412599537E+03  0.12500000000E+03 0.  0.
          2    1    1    2  501    0 -0.63393656034E+02  0.19800000508E+02 -0.44527799889E+03  0.45020361165E+03  0.00000000000E+00 0. -1.
         -2    1    1    2    0  503 -0.17492163035E+03  0.38974159934E+02 -0.46971323674E+03  0.50273958137E+03  0.00000000000E+00 0.  1.
<mgrwt>
<rscale>  4 0.27545159E+03</rscale>
<asrwt>0</asrwt>
<pdfrwt beam="1">  1       21 0.12610047E-01 0.27545159E+03</pdfrwt>
<pdfrwt beam="2">  1       21 0.19001597E+00 0.27545159E+03</pdfrwt>
<totfact> 0.78842437E+03</totfact>
</mgrwt>
</event>
<event>
 5    0  0.1781295E-001  0.2701737E+03  0.7546771E-02  0.1101180E+00
         21   -1    0    0  501  502  0.00000000000E+00  0.00000000000E+00  0.23052964792E+04  0.23052964792E+04  0.00000000000E+00 0.  1.
         21   -1    0    0  502  503 -0.00000000000E+00 -0.00000000000E+00 -0.51970722697E+02  0.51970722697E+02  0.00000000000E+00 0.  1.
         25    1    1    2    0    0 -0.19266522090E+03 -0.14229883834E+03  0.19450591865E+04  0.19637334559E+04  0.12500000000E+03 0.  0.
          2    1    1    2  501    0  0.92537484001E+01  0.18808366054E+02  0.13040864683E+02  0.24687054194E+02  0.00000000000E+00 0. -1.
         -2    1    1    2    0  503  0.18341147250E+03  0.12349047228E+03  0.29522570531E+03  0.36884669182E+03  0.00000000000E+00 0.  1.
<mgrwt>
<rscale>  4 0.27017373E+03</rscale>
<asrwt>0</asrwt>
<pdfrwt beam="1">  1       21 0.35466092E+00 0.27017373E+03</pdfrwt>
<pdfrwt beam="2">  1       21 0.79954976E-02 0.27017373E+03</pdfrwt>
<totfact> 0.17998644E+03</totfact>
</mgrwt>
</event>
<event>
 5    0  0.1781295E-001  0.2373588E+03  0.7546771E-02  0.1121565E+00
         21   -1    0    0  501  502  0.00000000000E+00  0.00000000000E+00  0.83791192996E+03  0.83791192996E+03  0.00000000000E+00 0.  1.
         21   -1    0    0  502  503 -0.00000000000E+00 -0.00000000000E+00 -0.69819241992E+02  0.69819241992E+02  0.00000000000E+00 0.  1.
         25    1    1    2    0    0 -0.13828154414E+03 -0.16465771157E+03  0.39602715827E+03  0.46764993052E+03  0.12500000000E+03 0.  0.
          2    1    1    2  501    0  0.11611622541E+03  0.15437235641E+03  0.25180563091E+03  0.31736395193E+03  0.00000000000E+00 0.  1.
         -2    1    1    2    0  503  0.22165318734E+02  0.10285355151E+02  0.12025989879E+03  0.12271728950E+03  0.00000000000E+00 0. -1.
<mgrwt>
<rscale>  4 0.23735877E+03</rscale>
<asrwt>0</asrwt>
<pdfrwt beam="1">  1       21 0.12890952E+00 0.23735877E+03</pdfrwt>
<pdfrwt beam="2">  1       21 0.10741422E-01 0.23735877E+03</pdfrwt>
<totfact> 0.30787134E+04</totfact>
</mgrwt>
</event>
<event>
 5    0  0.1781295E-001  0.2889440E+03  0.7546771E-02  0.1090902E+00
         21   -1    0    0  501  502  0.00000000000E+00  0.00000000000E+00  0.45222415257E+02  0.45222415257E+02  0.00000000000E+00 0.  1.
         21   -1    0    0  502  503 -0.00000000000E+00 -0.00000000000E+00 -0.17451230011E+04  0.17451230011E+04  0.00000000000E+00 0.  1.
         25    1    1    2    0    0  0.25080927977E+03  0.70415663560E+02 -0.90129237499E+03  0.94647588755E+03  0.12500000000E+03 0.  0.
          1    1    1    2  501    0 -0.21062719058E+03 -0.72925697766E+02 -0.73943174965E+03  0.77229611108E+03  0.00000000000E+00 0.  1.
         -1    1    1    2    0  503 -0.40182089191E+02  0.25100342060E+01 -0.59176461158E+02  0.71573417682E+02  0.00000000000E+00 0. -1.
<mgrwt>
<rscale>  4 0.28894404E+03</rscale>
<asrwt>0</asrwt>
<pdfrwt beam="1">  1       21 0.69572954E-02 0.28894404E+03</pdfrwt>
<pdfrwt beam="2">  1       21 0.26848043E+00 0.28894404E+03</pdfrwt>
<totfact> 0.73082907E+03</totfact>
</mgrwt>
</event>
<event>
 5    0  0.1781295E-001  0.3302388E+03  0.7546771E-02  0.1071031E+00
         21   -1    0    0  501  502  0.00000000000E+00  0.00000000000E+00  0.76316254903E+03  0.76316254903E+03  0.00000000000E+00 0. -1.
         21   -1    0    0  502  503 -0.00000000000E+00 -0.00000000000E+00 -0.26485968938E+03  0.26485968938E+03  0.00000000000E+00 0. -1.
         25    1    1    2    0    0 -0.12727802324E+03  0.27790821823E+03  0.61423731558E+03  0.69738450859E+03  0.12500000000E+03 0.  0.
          2    1    1    2  501    0  0.10123315360E+03 -0.25667016278E+03 -0.10036358683E+03  0.29359934164E+03  0.00000000000E+00 0. -1.
         -2    1    1    2    0  503  0.26044869641E+02 -0.21238055450E+02 -0.15570869099E+02  0.37038388172E+02  0.00000000000E+00 0.  1.
<mgrwt>
<rscale>  4 0.33023881E+03</rscale>
<asrwt>0</asrwt>
<pdfrwt beam="1">  1       21 0.11740962E+00 0.33023881E+03</pdfrwt>
<pdfrwt beam="2">  1       21 0.40747645E-01 0.33023881E+03</pdfrwt>
<totfact> 0.29500100E+03</totfact>
</mgrwt>
</event>
<event>
 5    0  0.1781295E-001  0.4125938E+03  0.7546771E-02  0.1039504E+00
         21   -1    0    0  501  502  0.00000000000E+00  0.00000000000E+00  0.94317485886E+03  0.94317485886E+03  0.00000000000E+00 0.  1.
         21   -1    0    0  502  503 -0.00000000000E+00 -0.00000000000E+00 -0.20627321382E+03  0.20627321382E+03  0.00000000000E+00 0.  1.
         25    1    1    2    0    0  0.39103367466E+03  0.14154277818E+03  0.31598396858E+03  0.53704055822E+03  0.12500000000E+03 0.  0.
          4    1    1    2  501    0 -0.50442457128E+02  0.11302847832E+02  0.12750824896E+03  0.13758833309E+03  0.00000000000E+00 0. -1.
         -4    1    1    2    0  503 -0.34059121753E+03 -0.15284562601E+03  0.29340942750E+03  0.47481918137E+03  0.00000000000E+00 0.  1.
<mgrwt>
<rscale>  4 0.41259376E+03</rscale>
<asrwt>0</asrwt>
<pdfrwt beam="1">  1       21 0.14510382E+00 0.41259376E+03</pdfrwt>
<pdfrwt beam="2">  1       21 0.31734341E-01 0.41259376E+03</pdfrwt>
<totfact> 0.27228167E+03</totfact>
</mgrwt>
</event>
<event>
 5    0  0.1781295E-001  0.3619455E+03  0.7546771E-02  0.1057816E+00
         21   -1    0    0  501  502  0.00000000000E+00  0.00000000000E+00  0.25622808754E+04  0.25622808754E+04  0.00000000000E+00 0.  1.
         21   -1    0    0  502  503 -0.00000000000E+00 -0.00000000000E+00 -0.90146794921E+02  0.90146794921E+02  0.00000000000E+00 0.  1.
         25    1    1    2    0    0  0.20045520684E+02  0.33908366893E+03  0.36266815067E+03  0.51237949309E+03  0.12500000000E+03 0.  0.
          3    1    1    2  501    0  0.46100204105E+02 -0.20959310930E+03  0.13116197374E+04  0.13290601325E+04  0.00000000000E+00 0. -1.
         -3    1    1    2    0  503 -0.66145724789E+02 -0.12949055963E+03  0.79784619242E+03  0.81098804473E+03  0.00000000000E+00 0.  1.
<mgrwt>
<rscale>  4 0.36194552E+03</rscale>
<asrwt>0</asrwt>
<pdfrwt beam="1">  1       21 0.39419700E+00 0.36194552E+03</pdfrwt>
<pdfrwt beam="2">  1       21 0.13868740E-01 0.36194552E+03</pdfrwt>
<totfact> 0.35191888E+02</totfact>
</mgrwt>
</event>
<event>
 5    0  0.1781295E-001  0.2732601E+03  0.7546771E-02  0.1099428E+00
         21   -1    0    0  501  502  0.00000000000E+00  0.00000000000E+00  0.97603153220E+03  0.97603153220E+03  0.00000000000E+00 0. -1.
         21   -1    0    0  502  503 -0.00000000000E+00 -0.00000000000E+00 -0.12610484825E+03  0.12610484825E+03  0.00000000000E+00 0.  1.
         25    1    1    2    0    0 -0.28854089673E+03  0.13436865068E+03  0.39725146495E+03  0.52416076711E+03  0.12500000000E+03 0.  0.
          1    1    1    2  501    0  0.11285679306E+03 -0.14688630798E+02  0.53564867848E+02  0.12578396831E+03  0.00000000000E+00 0. -1.
         -1    1    1    2    0  503  0.17568410366E+03 -0.11968001989E+03  0.39911035115E+03  0.45219164503E+03  0.00000000000E+00 0.  1.
<mgrwt>
<rscale>  4 0.27326012E+03</rscale>
<asrwt>0</asrwt>
<pdfrwt beam="1">  1       21 0.15015869E+00 0.27326012E+03</pdfrwt>
<pdfrwt beam="2">  1       21 0.19400747E-01 0.27326012E+03</pdfrwt>
<totfact> 0.68888944E+03</totfact>
</mgrwt>
</event>
<event>
 5    0  0.1781295E-001  0.3070653E+03  0.7546771E-02  0.1082658E+00
         21   -1    0    0  501  502  0.00000000000E+00  0.00000000000E+00  0.38115491584E+03  0.38115491584E+03  0.00000000000E+00 0. -1.
         21   -1    0    0  502  503 -0.00000000000E+00 -0.00000000000E+00 -0.42802814386E+03  0.42802814386E+03  0.00000000000E+00 0.  1.
         25    1    1    2    0    0 -0.13379293350E+03  0.23735157224E+03  0.24377417430E+03  0.38637697389E+03  0.12500000000E+03 0.  0.
          3    1    1    2  501    0  0.12146535542E+03 -0.91634711421E+02 -0.19792789305E+03  0.24965216553E+03  0.00000000000E+00 0.  1.
         -3    1    1    2    0  503  0.12327578080E+02 -0.14571686082E+03 -0.92719509268E+02  0.17315392027E+03  0.00000000000E+00 0. -1.
<mgrwt>
<rscale>  4 0.30522465E+03</rscale>
<asrwt>0</asrwt>
<pdfrwt beam="1">  1       21 0.58639218E-01 0.30706526E+03</pdfrwt>
<pdfrwt beam="2">  1       21 0.65850483E-01 0.30706526E+03</pdfrwt>
<totfact> 0.53735040E+03</totfact>
</mgrwt>
</event>
<event>
 5    0  0.1781295E-001  0.2386789E+03  0.7546771E-02  0.1120676E+00
         21   -1    0    0  501  502  0.00000000000E+00  0.00000000000E+00  0.32852889004E+03  0.32852889004E+03  0.00000000000E+00 0. -1.
         21   -1    0    0  502  503 -0.00000000000E+00 -0.00000000000E+00 -0.40971829297E+03  0.40971829297E+03  0.00000000000E+00 0. -1.
         25    1    1    2    0    0  0.20211167021E+03  0.22214175109E+02 -0.32946342287E+03  0.40683380368E+03  0.12500000000E+03 0.  0.
          3    1    1    2  501    0 -0.65387749413E+02 -0.45292157968E+02  0.73351239142E+02  0.10820046964E+03  0.00000000000E+00 0. -1.
         -3    1    1    2    0  503 -0.13672392080E+03  0.23077982859E+02  0.17492278080E+03  0.22321290969E+03  0.00000000000E+00 0.  1.
<mgrwt>
<rscale>  4 0.23867886E+03</rscale>
<asrwt>0</asrwt>
<pdfrwt beam="1">  1       21 0.50542906E-01 0.23867886E+03</pdfrwt>
<pdfrwt beam="2">  1       21 0.63033584E-01 0.23867886E+03</pdfrwt>
<totfact> 0.84200887E+03</totfact>
</mgrwt>
</event>
<event>
 5    0  0.1781295E-001  0.2567200E+03  0.7546771E-02  0.1109130E+00
         21   -1    0    0  501  502  0.00000000000E+00  0.00000000000E+00  0.16205128222E+04  0.16205128222E+04  0.00000000000E+00 0.  1.
         21   -1    0    0  502  503 -0.00000000000E+00 -0.00000000000E+00 -0.38310195137E+02  0.38310195137E+02  0.00000000000E+00 0. -1.
         25    1    1    2    0    0  0.12550020294E+03 -0.18582215715E+03  0.98917453861E+03  0.10219449314E+04  0.12500000000E+03 0.  0.
          1    1    1    2  501    0 -0.25317705566E+00  0.20073447162E+02  0.97808955247E+02  0.99847879828E+02  0.00000000000E+00 0.  1.
         -1    1    1    2    0  503 -0.12524702589E+03  0.16574870999E+03  0.49521913322E+03  0.53703020610E+03  0.00000000000E+00 0. -1.
<mgrwt>
<rscale>  4 0.25672003E+03</rscale>
<asrwt>0</asrwt>
<pdfrwt beam="1">  1       21 0.24930961E+00 0.25672003E+03</pdfrwt>
<pdfrwt beam="2">  1       21 0.58938774E-02 0.25672003E+03</pdfrwt>
<totfact> 0.12953410E+04</totfact>
</mgrwt>
</event>
<event>
 5    0  0.1781295E-001  0.2750765E+03  0.7546771E-02  0.1098409E+00
         21   -1    0    0  501  502  0.00000000000E+00  0.00000000000E+00  0.13335853065E+03  0.13335853065E+03  0.00000000000E+00 0. -1.
         21   -1    0    0  502  503 -0.00000000000E+00 -0.00000000000E+00 -0.86239899914E+03  0.86239899914E+03  0.00000000000E+00 0. -1.
         25    1    1    2    0    0 -0.15482597440E+03 -0.19616178845E+03 -0.65244110731E+03  0.70975695002E+03  0.12500000000E+03 0.  0.
          1    1    1    2  501    0  0.16510100201E+03  0.16407503743E+03 -0.90250919605E+02  0.24964812689E+03  0.00000000000E+00 0. -1.
         -1    1    1    2    0  503 -0.10275027608E+02  0.32086751021E+02  0.13651558424E+02  0.36352452887E+02  0.00000000000E+00 0.  1.
<mgrwt>
<rscale>  4 0.27507647E+03</rscale>
<asrwt>0</asrwt>
<pdfrwt beam="1">  1       21 0.20516698E-01 0.27507647E+03</pdfrwt>
<pdfrwt beam="2">  1       21 0.13267676E+00 0.27507647E+03</pdfrwt>
<totfact> 0.85665505E+03</totfact>
</mgrwt>
</event>
<event>
 5    0  0.1781295E-001  0.2457670E+03  0.7546771E-02  0.1116010E+00
         21   -1    0    0  501  502  0.00000000000E+00  0.00000000000E+00  0.17417708108E+04  0.17417708108E+04  0.00000000000E+00 0. -1.
         21   -1    0    0  502  503 -0.00000000000E+00 -0.00000000000E+00 -0.14565000103E+03  0.14565000103E+03  0.00000000000E+00 0. -1.
         25    1    1    2    0    0  0.21250096648E+03 -0.28411632394E+02 -0.21380062485E+02  0.24909032233E+03  0.12500000000E+03 0.  0.
          1    1    1    2  501    0 -0.18418104933E+03  0.49585237678E+02  0.90151558113E+03  0.92147257027E+03  0.00000000000E+00 0.  1.
         -1    1    1    2    0  503 -0.28319917147E+02 -0.21173605284E+02  0.71598529113E+03  0.71685791924E+03  0.00000000000E+00 0. -1.
<mgrwt>
<rscale>  4 0.24576699E+03</rscale>
<asrwt>0</asrwt>
<pdfrwt beam="1">  1       21 0.26796473E+00 0.24576699E+03</pdfrwt>
<pdfrwt beam="2">  1       21 0.22407694E-01 0.24576699E+03</pdfrwt>
<totfact> 0.91640741E+02</totfact>
</mgrwt>
</event>
<event>
 5    0  0.1781295E-001  0.2272488E+03  0.7546771E-02  0.1128591E+00
         21   -1    0    0  501  502  0.00000000000E+00  0.00000000000E+00  0.41671754204E+03  0.41671754204E+03  0.00000000000E+00 0.  1.
         21   -1    0    0  502  503 -0.00000000000E+00 -0.00000000000E+00 -0.13412435080E+03  0.13412435080E+03  0.00000000000E+00 0.  1.
         25    1    1    2    0    0  0.99367306879E+02 -0.17766015110E+03  0.13251309134E+03  0.27316974639E+03  0.12500000000E+03 0.  0.
          1    1    1    2  501    0 -0.35230523369E+02  0.81221580010E+01  0.71473798517E+02  0.80097834564E+02  0.00000000000E+00 0. -1.
         -1    1    1    2    0  503 -0.64136783510E+02  0.16953799310E+03  0.78606301387E+02  0.19757431189E+03  0.00000000000E+00 0.  1.
<mgrwt>
<rscale>  4 0.22724880E+03</rscale>
<asrwt>0</asrwt>
<pdfrwt beam="1">  1       21 0.64110391E-01 0.22724880E+03</pdfrwt>
<pdfrwt beam="2">  1       21 0.20634516E-01 0.22724880E+03</pdfrwt>
<totfact> 0.48099395E+04</totfact>
</mgrwt>
</event>
<event>
 5    0  0.1781295E-001  0.3234342E+03  0.7546771E-02  0.1074080E+00
         21   -1    0    0  501  502  0.00000000000E+00  0.00000000000E+00  0.32364746418E+03  0.32364746418E+03  0.00000000000E+00 0. -1.
         21   -1    0    0  502  503 -0.00000000000E+00 -0.00000000000E+00 -0.33833342433E+03  0.33833342433E+03  0.00000000000E+00 0. -1.
         25    1    1    2    0    0  0.19940350099E+03  0.23140310377E+03  0.20979690652E+02  0.33071785567E+03  0.12500000000E+03 0.  0.
          4    1    1    2  501    0  0.11394278358E+02 -0.26799223441E+02  0.15632900694E+02  0.33051710099E+02  0.00000000000E+00 0.  1.
         -4    1    1    2    0  503 -0.21079777934E+03 -0.20460388033E+03 -0.51298551494E+02  0.29821132273E+03  0.00000000000E+00 0. -1.
<mgrwt>
<rscale>  4 0.32343421E+03</rscale>
<asrwt>0</asrwt>
<pdfrwt beam="1">  1       21 0.49791917E-01 0.32343421E+03</pdfrwt>
<pdfrwt beam="2">  1       21 0.52051296E-01 0.32343421E+03</pdfrwt>
<totfact> 0.12586219E+04</totfact>
</mgrwt>
</event>
<event>
 5    0  0.1781295E-001  0.2705845E+03  0.7546771E-02  0.1100946E+00
         21   -1    0    0  501  502  0.00000000000E+00  0.00000000000E+00  0.68259052796E+03  0.68259052796E+03  0.00000000000E+00 0.  1.
         21   -1    0    0  502  503 -0.00000000000E+00 -0.00000000000E+00 -0.12641589036E+03  0.12641589036E+03  0.00000000000E+00 0.  1.
         25    1    1    2    0    0  0.25171191671E+03 -0.72158986736E+02  0.32536197431E+03  0.43594864687E+03  0.12500000000E+03 0.  0.
          2    1    1    2  501    0 -0.19350694677E+03  0.11034497933E+03  0.18664352391E+03  0.29061444893E+03  0.00000000000E+00 0.  1.
         -2    1    1    2    0  503 -0.58204969937E+02 -0.38185992589E+02  0.44169139371E+02  0.82443322520E+02  0.00000000000E+00 0. -1.
<mgrwt>
<rscale>  4 0.27058448E+03</rscale>
<asrwt>0</asrwt>
<pdfrwt beam="1">  1       21 0.10501392E+00 0.27058448E+03</pdfrwt>
<pdfrwt beam="2">  1       21 0.19448599E-01 0.27058448E+03</pdfrwt>
<totfact> 0.17003395E+04</totfact>
</mgrwt>
</event>
<event>
 5    0  0.1781295E-001  0.2341758E+03  0.7546771E-02  0.1123735E+00
         21   -1    0    0  501  502  0.00000000000E+00  0.00000000000E+00  0.80778173345E+03  0.80778173345E+03  0.00000000000E+00 0. -1.
         21   -1    0    0  502  503 -0.00000000000E+00 -0.00000000000E+00 -0.24003385221E+03  0.24003385221E+03  0.00000000000E+00 0.  1.
         25    1    1    2    0    0 -0.36685926202E+02 -0.19773086700E+03  0.73508176494E+03  0.77227815850E+03  0.12500000000E+03 0.  0.
          3    1    1    2  501    0  0.14407292027E+02  0.25337867647E+02 -0.71117028382E+02  0.76858371869E+02  0.00000000000E+00 0. -1.
         -3    1    1    2    0  503  0.22278634175E+02  0.17239299935E+03 -0.96216855309E+02  0.19867905529E+03  0.00000000000E+00 0.  1.
<mgrwt>
<rscale>  4 0.23417577E+03</rscale>
<asrwt>0</asrwt>
<pdfrwt beam="1">  1       21 0.12427411E+00 0.23417577E+03</pdfrwt>
<pdfrwt beam="2">  1       21 0.36928285E-01 0.23417577E+03</pdfrwt>
<totfact> 0.33104492E+03</totfact>
</mgrwt>
</event>
<event>
 5    0  0.1781295E-001  0.2601375E+03  0.7546771E-02  0.1107061E+00
         21   -1    0    0  501  502  0.00000000000E+00  0.00000000000E+00  0.23598992786E+03  0.23598992786E+03  0.00000000000E+00 0. -1.
         21   -1    0    0  502  503 -0.00000000000E+00 -0.00000000000E+00 -0.52108506440E+03  0.52108506440E+03  0.00000000000E+00 0. -1.
         25    1    1    2    0    0  0.12826652451E+03  0.19133475139E+03 -0.40997063365E+03  0.48658217071E+03  0.12500000000E+03 0.  0.
          2    1    1    2  501    0 -0.10804835554E+03 -0.18995069429E+03  0.10634653216E+03  0.24303353328E+03  0.00000000000E+00 0. -1.
         -2    1    1    2    0  503 -0.20218168963E+02 -0.13840571021E+01  0.18528964947E+02  0.27459288270E+02  0.00000000000E+00 0.  1.
<mgrwt>
<rscale>  4 0.26013754E+03</rscale>
<asrwt>0</asrwt>
<pdfrwt beam="1">  1       21 0.36306143E-01 0.26013754E+03</pdfrwt>
<pdfrwt beam="2">  1       21 0.80166932E-01 0.26013754E+03</pdfrwt>
<totfact> 0.96057392E+03</totfact>
</mgrwt>
</event>
<event>
 5    0  0.1781295E-001  0.2637564E+03  0.7546771E-02  0.1104907E+00
         21   -1    0    0  501  502  0.00000000000E+00  0.00000000000E+00  0.10343549399E+04  0.10343549399E+04  0.00000000000E+00 0.  1.
         21   -1    0    0  502  503 -0.00000000000E+00 -0.00000000000E+00 -0.15000943010E+03  0.15000943010E+03  0.00000000000E+00 0.  1.
         25    1    1    2    0    0  0.31180248943E+02 -0.23015263090E+03  0.90523243281E+03  0.94287496459E+03  0.12500000000E+03 0.  0.
          4    1    1    2  501    0  0.49997981568E+01  0.86809219743E+02  0.17614679803E+02  0.88719307699E+02  0.00000000000E+00 0. -1.
         -4    1    1    2    0  503 -0.36180047100E+02  0.14334341115E+03 -0.38501602837E+02  0.15277009770E+03  0.00000000000E+00 0.  1.
<mgrwt>
<rscale>  4 0.26375641E+03</rscale>
<asrwt>0</asrwt>
<pdfrwt beam="1">  1       21 0.15913152E+00 0.26375641E+03</pdfrwt>
<pdfrwt beam="2">  1       21 0.23078375E-01 0.26375641E+03</pdfrwt>
<totfact> 0.42665407E+03</totfact>
</mgrwt>
</event>
<event>
 5    0  0.1781295E-001  0.2807927E+03  0.7546771E-02  0.1095257E+00
         21   -1    0    0  501  502  0.00000000000E+00  0.00000000000E+00  0.11246102856E+03  0.11246102856E+03  0.00000000000E+00 0. -1.
         21   -1    0    0  502  503 -0.00000000000E+00 -0.00000000000E+00 -0.11600171451E+04  0.11600171451E+04  0.00000000000E+00 0. -1.
         25    1    1    2    0    0  0.22240460765E+03  0.11728479095E+03 -0.11443638832E+03  0.30321645514E+03  0.12500000000E+03 0.  0.
          4    1    1    2  501    0 -0.21216700894E+03 -0.86978446602E+02 -0.84314059240E+03  0.87376549967E+03  0.00000000000E+00 0. -1.
         -4    1    1    2    0  503 -0.10237598716E+02 -0.30306344344E+02 -0.89979135807E+02  0.95496218855E+02  0.00000000000E+00 0.  1.
<mgrwt>
<rscale>  4 0.28079268E+03</rscale>
<asrwt>0</asrwt>
<pdfrwt beam="1">  1       21 0.17301695E-01 0.28079268E+03</pdfrwt>
<pdfrwt beam="2">  1       21 0.17846419E+00 0.28079268E+03</pdfrwt>
<totfact> 0.52741108E+03</totfact>
</mgrwt>
</event>
<event>
 5    0  0.1781295E-001  0.2518119E+03  0.7546771E-02  0.1112165E+00
         21   -1    0    0  501  502  0.00000000000E+00  0.00000000000E+00  0.20016907040E+03  0.20016907040E+03  0.00000000000E+00 0.  1.
         21   -1    0    0  502  503 -0.00000000000E+00 -0.00000000000E+00 -0.35388042199E+03  0.35388042199E+03  0.00000000000E+00 0.  1.
         25    1    1    2    0    0  0.23375642070E+03  0.28168427440E+01 -0.60605350590E+02  0.27193382898E+03  0.12500000000E+03 0.  0.
          1    1    1    2  501    0 -0.20689446289E+03 -0.22308831470E+02 -0.29236145989E+02  0.21013746684E+03  0.00000000000E+00 0.  1.
         -1    1    1    2    0  503 -0.26861957811E+02  0.19491988726E+02 -0.63869855017E+02  0.71978196573E+02  0.00000000000E+00 0. -1.
<mgrwt>
<rscale>  4 0.25181186E+03</rscale>
<asrwt>0</asrwt>
<pdfrwt beam="1">  1       21 0.30795242E-01 0.25181186E+03</pdfrwt>
<pdfrwt beam="2">  1       21 0.54443141E-01 0.25181186E+03</pdfrwt>
<totfact> 0.31340470E+04</totfact>
</mgrwt>
</event>
<event>
 5    0  0.1781295E-001  0.2829683E+03  0.7546771E-02  0.1094079E+00
         21   -1    0    0  501  502  0.00000000000E+00  0.00000000000E+00  0.64121667485E+03  0.64121667485E+03  0.00000000000E+00 0. -1.
         21   -1    0    0  502  503 -0.00000000000E+00 -0.00000000000E+00 -0.75129687642E+03  0.75129687642E+03  0.00000000000E+00 0.  1.
         25    1    1    2    0    0  0.75908971428E+02 -0.24224752395E+03  0.58359488251E+03  0.64857846225E+03  0.12500000000E+03 0.  0.
          4    1    1    2  501    0 -0.15435719837E+02  0.57472813781E+02 -0.28792888605E+03  0.29401433501E+03  0.00000000000E+00 0. -1.
         -4    1    1    2    0  503 -0.60473251592E+02  0.18477471017E+03 -0.40574619803E+03  0.44992075401E+03  0.00000000000E+00 0.  1.
<mgrwt>
<rscale>  4 0.28296826E+03</rscale>
<asrwt>0</asrwt>
<pdfrwt beam="1">  1       21 0.98648719E-01 0.28296826E+03</pdfrwt>
<pdfrwt beam="2">  1       21 0.11558414E+00 0.28296826E+03</pdfrwt>
<totfact> 0.45113391E+02</totfact>
</mgrwt>
</event>
<event>
 5    0  0.1781295E-001  0.2427691E+03  0.7546771E-02  0.1117962E+00
         21   -1    0    0  501  502  0.00000000000E+00  0.00000000000E+00  0.70966530370E+02  0.70966530370E+02  0.00000000000E+00 0. -1.
         21   -1    0    0  502  503 -0.00000000000E+00 -0.00000000000E+00 -0.15003068512E+04  0.15003068512E+04  0.00000000000E+00 0.  1.
         25    1    1    2    0    0 -0.19848118562E+03  0.62586396957E+02 -0.17558963556E+03  0.29961401544E+03  0.12500000000E+03 0.  0.
          3    1    1    2  501    0  0.10496370419E+03 -0.42727515774E+02 -0.79644788459E+03  0.80447016891E+03  0.00000000000E+00 0.  1.
         -3    1    1    2    0  503  0.93517481428E+02 -0.19858881182E+02 -0.45730280065E+03  0.46718919720E+03  0.00000000000E+00 0. -1.
<mgrwt>
<rscale>  4 0.24276910E+03</rscale>
<asrwt>0</asrwt>
<pdfrwt beam="1">  1       21 0.10917928E-01 0.24276910E+03</pdfrwt>
<pdfrwt beam="2">  1       21 0.23081644E+00 0.24276910E+03</pdfrwt>
<totfact> 0.57448705E+03</totfact>
</mgrwt>
</event>
<event>
 5    0  0.1781295E-001  0.3182818E+03  0.7546771E-02  0.1076443E+00
         21   -1    0    0  501  502  0.00000000000E+00  0.00000000000E+00  0.30292580049E+03  0.30292580049E+03  0.00000000000E+00 0.  1.
         21   -1    0    0  502  503 -0.00000000000E+00 -0.00000000000E+00 -0.34641217599E+03  0.34641217599E+03  0.00000000000E+00 0. -1.
         25    1    1    2    0    0 -0.29270837156E+03 -0.35561883632E+00  0.64230511997E+02  0.32469813045E+03  0.12500000000E+03 0.  0.
          4    1    1    2  501    0  0.25710172739E+03  0.17289187962E+02 -0.63488425212E+02  0.26538838404E+03  0.00000000000E+00 0. -1.
         -4    1    1    2    0  503  0.35606644163E+02 -0.16933569125E+02 -0.44228462288E+02  0.59251461993E+02  0.00000000000E+00 0.  1.
<mgrwt>
<rscale>  4 0.31828182E+03</rscale>
<asrwt>0</asrwt>
<pdfrwt beam="1">  1       21 0.46603970E-01 0.31828182E+03</pdfrwt>
<pdfrwt beam="2">  1       21 0.53294180E-01 0.31828182E+03</pdfrwt>
<totfact> 0.13782265E+04</totfact>
</mgrwt>
</event>
<event>
 5    0  0.1781295E-001  0.2390025E+03  0.7546771E-02  0.1120459E+00
         21   -1    0    0  501  502  0.00000000000E+00  0.00000000000E+00  0.18203039780E+03  0.18203039780E+03  0.00000000000E+00 0. -1.
         21   -1    0    0  502  503 -0.00000000000E+00 -0.00000000000E+00 -0.39905202045E+03  0.39905202045E+03  0.00000000000E+00 0. -1.
         25    1    1    2    0    0 -0.15208730796E+03  0.13552352461E+03 -0.27763456521E+03  0.36633744931E+03  0.12500000000E+03 0.  0.
          3    1    1    2  501    0  0.30188972286E+02 -0.12748235151E+02  0.13426599568E+02  0.35414193809E+02  0.00000000000E+00 0.  1.
         -3    1    1    2    0  503  0.12189833568E+03 -0.12277528946E+03  0.47186343001E+02  0.17933077513E+03  0.00000000000E+00 0. -1.
<mgrwt>
<rscale>  4 0.23900246E+03</rscale>
<asrwt>0</asrwt>
<pdfrwt beam="1">  1       21 0.28004677E-01 0.23900246E+03</pdfrwt>
<pdfrwt beam="2">  1       21 0.61392618E-01 0.23900246E+03</pdfrwt>
<totfact> 0.29327858E+04</totfact>
</mgrwt>
</event>
<event>
 5    0  0.1781295E-001  0.1766304E+03  0.7546771E-02  0.1171105E+00
         21   -1    0    0  501  502  0.00000000000E+00  0.00000000000E+00  0.27289348007E+03  0.27289348007E+03  0.00000000000E+00 0. -1.
         21   -1    0    0  502  503 -0.00000000000E+00 -0.00000000000E+00 -0.11344208610E+04  0.11344208610E+04  0.00000000000E+00 0. -1.
         25    1    1    2    0    0 -0.53658074485E+02  0.22352448865E+03  0.16332765363E+03  0.30845308950E+03  0.12500000000E+03 0.  0.
          4    1    1    2  501    0  0.28105554995E+02 -0.10314105047E+03 -0.53134339972E+02  0.11937862705E+03  0.00000000000E+00 0.  1.
         -4    1    1    2    0  503  0.25552519490E+02 -0.12038343818E+03 -0.97172069455E+03  0.97948262448E+03  0.00000000000E+00 0. -1.
<mgrwt>
<rscale>  4 0.17663039E+03</rscale>
<asrwt>0</asrwt>
<pdfrwt beam="1">  1       21 0.41983612E-01 0.17663039E+03</pdfrwt>
<pdfrwt beam="2">  1       21 0.17452629E+00 0.17663039E+03</pdfrwt>
<totfact> 0.11029679E+03</totfact>
</mgrwt>
</event>
<event>
 5    0  0.1781295E-001  0.2327609E+03  0.7546771E-02  0.1124711E+00
         21   -1    0    0  501  502  0.00000000000E+00  0.00000000000E+00  0.57601142715E+03  0.57601142715E+03  0.00000000000E+00 0. -1.
         21   -1    0    0  502  503 -0.00000000000E+00 -0.00000000000E+00 -0.17425511876E+03  0.17425511876E+03  0.00000000000E+00 0. -1.
         25    1    1    2    0    0 -0.59173126423E+02  0.20276623737E+03  0.41048329717E+03  0.47826472080E+03  0.12500000000E+03 0.  0.
          4    1    1    2  501    0  0.10993825336E+03 -0.12041039666E+03 -0.44240363971E+02  0.16894464472E+03  0.00000000000E+00 0. -1.
         -4    1    1    2    0  503 -0.50765126937E+02 -0.82355840713E+02  0.35513375195E+02  0.10305718039E+03  0.00000000000E+00 0.  1.
<mgrwt>
<rscale>  4 0.23276088E+03</rscale>
<asrwt>0</asrwt>
<pdfrwt beam="1">  1       21 0.88617142E-01 0.23276088E+03</pdfrwt>
<pdfrwt beam="2">  1       21 0.26808480E-01 0.23276088E+03</pdfrwt>
<totfact> 0.14073052E+04</totfact>
</mgrwt>
</event>
<event>
 5    0  0.1781295E-001  0.2760314E+03  0.7546771E-02  0.1097876E+00
         21   -1    0    0  501  502  0.00000000000E+00  0.00000000000E+00  0.44563508993E+03  0.44563508993E+03  0.00000000000E+00 0. -1.
         21   -1    0    0  502  503 -0.00000000000E+00 -0.00000000000E+00 -0.71149239248E+03  0.71149239248E+03  0.00000000000E+00 0. -1.
         25    1    1    2    0    0  0.19374510033E+03  0.15272444848E+03  0.37396919932E+03  0.46512351382E+03  0.12500000000E+03 0.  0.
          2    1    1    2  501    0 -0.20667501357E+02  0.12515581171E+02 -0.65961487591E+02  0.70247442869E+02  0.00000000000E+00 0.  1.
         -2    1    1    2    0  503 -0.17307759898E+03 -0.16524002965E+03 -0.57386501428E+03  0.62175652573E+03  0.00000000000E+00 0. -1.
<mgrwt>
<rscale>  4 0.27603142E+03</rscale>
<asrwt>0</asrwt>
<pdfrwt beam="1">  1       21 0.68559245E-01 0.27603142E+03</pdfrwt>
<pdfrwt beam="2">  1       21 0.10946037E+00 0.27603142E+03</pdfrwt>
<totfact> 0.11959777E+03</totfact>
</mgrwt>
</event>
<event>
 5    0  0.1781295E-001  0.1983713E+03  0.7546771E-02  0.1151120E+00
         21   -1    0    0  501  502  0.00000000000E+00  0.00000000000E+00  0.15275243380E+04  0.15275243380E+04  0.00000000000E+00 0.  1.
         21   -1    0    0  502  503 -0.00000000000E+00 -0.00000000000E+00 -0.40967727332E+02  0.40967727332E+02  0.00000000000E+00 0.  1.
         25    1    1    2    0    0  0.11522001176E+03 -0.17675140922E+03  0.72826426824E+03  0.76844684668E+03  0.12500000000E+03 0.  0.
          4    1    1    2  501    0 -0.12158157172E+03  0.56889079807E+02  0.36829115444E+03  0.39199084227E+03  0.00000000000E+00 0.  1.
         -4    1    1    2    0  503  0.63615599612E+01  0.11986232941E+03  0.39000118799E+03  0.40805437639E+03  0.00000000000E+00 0. -1.
<mgrwt>
<rscale>  4 0.19837126E+03</rscale>
<asrwt>0</asrwt>
<pdfrwt beam="1">  1       21 0.23500370E+00 0.19837126E+03</pdfrwt>
<pdfrwt beam="2">  1       21 0.63027284E-02 0.19837126E+03</pdfrwt>
<totfact> 0.14714591E+04</totfact>
</mgrwt>
</event>
<event>
 5    0  0.1781295E-001  0.2782289E+03  0.7546771E-02  0.1096660E+00
         21   -1    0    0  501  502  0.00000000000E+00  0.00000000000E+00  0.64154728015E+02  0.64154728015E+02  0.00000000000E+00 0. -1.
         21   -1    0    0  502  503 -0.00000000000E+00 -0.00000000000E+00 -0.11943362248E+04  0.11943362248E+04  0.00000000000E+00 0.  1.
         25    1    1    2    0    0 -0.24717533898E+03 -0.26280798706E+02 -0.44977652105E+03  0.52887640094E+03  0.12500000000E+03 0.  0.
          3    1    1    2  501    0  0.20097687160E+03  0.14250105999E+02 -0.62398621875E+03  0.65570844865E+03  0.00000000000E+00 0.  1.
         -3    1    1    2    0  503  0.46198467375E+02  0.12030692707E+02 -0.56418756978E+02  0.73906103224E+02  0.00000000000E+00 0. -1.
<mgrwt>
<rscale>  4 0.27822891E+03</rscale>
<asrwt>0</asrwt>
<pdfrwt beam="1">  1       21 0.98699579E-02 0.27822891E+03</pdfrwt>
<pdfrwt beam="2">  1       21 0.18374404E+00 0.27822891E+03</pdfrwt>
<totfact> 0.13471409E+04</totfact>
</mgrwt>
</event>
<event>
 5    0  0.1781295E-001  0.2051762E+03  0.7546771E-02  0.1145444E+00
         21   -1    0    0  501  502  0.00000000000E+00  0.00000000000E+00  0.12029356592E+03  0.12029356592E+03  0.00000000000E+00 0.  1.
         21   -1    0    0  502  503 -0.00000000000E+00 -0.00000000000E+00 -0.52777653254E+03  0.52777653254E+03  0.00000000000E+00 0.  1.
         25    1    1    2    0    0  0.19996486187E+03 -0.92124509606E+02 -0.17540662901E+03  0.30800220251E+03  0.12500000000E+03 0.  0.
          3    1    1    2  501    0 -0.66069294921E+02  0.38898331316E+02 -0.12863632314E+02  0.77741269265E+02  0.00000000000E+00 0. -1.
         -3    1    1    2    0  503 -0.13389556695E+03  0.53226178290E+02 -0.21921270530E+03  0.26232662668E+03  0.00000000000E+00 0.  1.
<mgrwt>
<rscale>  4 0.20517621E+03</rscale>
<asrwt>0</asrwt>
<pdfrwt beam="1">  1       21 0.18506703E-01 0.20517621E+03</pdfrwt>
<pdfrwt beam="2">  1       21 0.81196388E-01 0.20517621E+03</pdfrwt>
<totfact> 0.35228592E+04</totfact>
</mgrwt>
</event>
<event>
 5    0  0.1781295E-001  0.2404718E+03  0.7546771E-02  0.1119479E+00
         21   -1    0    0  501  502  0.00000000000E+00  0.00000000000E+00  0.33099896616E+03  0.33099896616E+03  0.00000000000E+00 0.  1.
         21   -1    0    0  502  503 -0.00000000000E+00 -0.00000000000E+00 -0.10210827460E+04  0.10210827460E+04  0.00000000000E+00 0.  1.
         25    1    1    2    0    0  0.17291751893E+03  0.11091076971E+03  0.27323860255E+03  0.36398626501E+03  0.12500000000E+03 0.  0.
          3    1    1    2  501    0 -0.99830572011E+02 -0.10281318984E+03 -0.70990380728E+03  0.72422379877E+03  0.00000000000E+00 0.  1.
         -3    1    1    2    0  503 -0.73086946915E+02 -0.80975798658E+01 -0.25341857512E+03  0.26387164839E+03  0.00000000000E+00 0. -1.
<mgrwt>
<rscale>  4 0.24047176E+03</rscale>
<asrwt>0</asrwt>
<pdfrwt beam="1">  1       21 0.50922918E-01 0.24047176E+03</pdfrwt>
<pdfrwt beam="2">  1       21 0.15708965E+00 0.24047176E+03</pdfrwt>
<totfact> 0.92579981E+02</totfact>
</mgrwt>
</event>
<event>
 5    0  0.1781295E-001  0.3796449E+03  0.7546771E-02  0.1051065E+00
         21   -1    0    0  501  502  0.00000000000E+00  0.00000000000E+00  0.80758772782E+03  0.80758772782E+03  0.00000000000E+00 0. -1.
         21   -1    0    0  502  503 -0.00000000000E+00 -0.00000000000E+00 -0.17827420813E+03  0.17827420813E+03  0.00000000000E+00 0.  1.
         25    1    1    2    0    0 -0.95985494193E+02 -0.34538677826E+03  0.38183574058E+03  0.53845034541E+03  0.12500000000E+03 0.  0.
          1    1    1    2  501    0 -0.18741861177E+02  0.54825188978E+02  0.21275719621E+02  0.61722888399E+02  0.00000000000E+00 0. -1.
         -1    1    1    2    0  503  0.11472735537E+03  0.29056158928E+03  0.22620205950E+03  0.38568870214E+03  0.00000000000E+00 0.  1.
<mgrwt>
<rscale>  4 0.37964489E+03</rscale>
<asrwt>0</asrwt>
<pdfrwt beam="1">  1       21 0.12424426E+00 0.37964489E+03</pdfrwt>
<pdfrwt beam="2">  1       21 0.27426802E-01 0.37964489E+03</pdfrwt>
<totfact> 0.55252941E+03</totfact>
</mgrwt>
</event>
<event>
 5    0  0.1781295E-001  0.1956605E+03  0.7546771E-02  0.1153453E+00
         21   -1    0    0  501  502  0.00000000000E+00  0.00000000000E+00  0.22688743320E+03  0.22688743320E+03  0.00000000000E+00 0.  1.
         21   -1    0    0  502  503 -0.00000000000E+00 -0.00000000000E+00 -0.55115463967E+03  0.55115463967E+03  0.00000000000E+00 0.  1.
         25    1    1    2    0    0 -0.21076800189E+03 -0.59603960451E+01  0.91492453399E+00  0.24512142711E+03  0.12500000000E+03 0.  0.
          3    1    1    2  501    0  0.87071010012E+02 -0.37658641424E+02 -0.37933615446E+03  0.39101848056E+03  0.00000000000E+00 0.  1.
         -3    1    1    2    0  503  0.12369699188E+03  0.43619037469E+02  0.54154023466E+02  0.14190216520E+03  0.00000000000E+00 0. -1.
<mgrwt>
<rscale>  4 0.19566053E+03</rscale>
<asrwt>0</asrwt>
<pdfrwt beam="1">  1       21 0.34905759E-01 0.19566053E+03</pdfrwt>
<pdfrwt beam="2">  1       21 0.84793021E-01 0.19566053E+03</pdfrwt>
<totfact> 0.95132109E+03</totfact>
</mgrwt>
</event>
<event>
 5    0  0.1781295E-001  0.1970829E+03  0.7546771E-02  0.1152224E+00
         21   -1    0    0  501  502  0.00000000000E+00  0.00000000000E+00  0.42735504630E+03  0.42735504630E+03  0.00000000000E+00 0. -1.
         21   -1    0    0  502  503 -0.00000000000E+00 -0.00000000000E+00 -0.29935124429E+03  0.29935124429E+03  0.00000000000E+00 0.  1.
         25    1    1    2    0    0 -0.11848193339E+02 -0.20328536483E+03  0.26891479040E+03  0.35972973707E+03  0.12500000000E+03 0.  0.
          1    1    1    2  501    0 -0.66903841745E+02  0.75561731196E+02  0.59086352314E+02  0.11694826331E+03  0.00000000000E+00 0.  1.
         -1    1    1    2    0  503  0.78752035084E+02  0.12772363363E+03 -0.19999734070E+03  0.25002829021E+03  0.00000000000E+00 0. -1.
<mgrwt>
<rscale>  4 0.19708288E+03</rscale>
<asrwt>0</asrwt>
<pdfrwt beam="1">  1       21 0.65746930E-01 0.19708288E+03</pdfrwt>
<pdfrwt beam="2">  1       21 0.46054038E-01 0.19708288E+03</pdfrwt>
<totfact> 0.95759224E+03</totfact>
</mgrwt>
</event>
<event>
 5    0  0.1781295E-001  0.3529828E+03  0.7546771E-02  0.1062121E+00
         21   -1    0    0  501  502  0.00000000000E+00  0.00000000000E+00  0.42235927663E+03  0.42235927663E+03  0.00000000000E+00 0.  1.
         21   -1    0    0  502  503 -0.00000000000E+00 -0.00000000000E+00 -0.31781679671E+03  0.31781679671E+03  0.00000000000E+00 0.  1.
         25    1    1    2    0    0 -0.19233158262E+03  0.25893702369E+03 -0.59384106898E+02  0.35098617075E+03  0.12500000000E+03 0.  0.
          2    1    1    2  501    0  0.16641092051E+03 -0.17344969190E+03  0.51902238236E+02  0.24590899215E+03  0.00000000000E+00 0.  1.
         -2    1    1    2    0  503  0.25920662108E+02 -0.85487331784E+02  0.11202434858E+03  0.14328091043E+03  0.00000000000E+00 0. -1.
<mgrwt>
<rscale>  4 0.35120522E+03</rscale>
<asrwt>0</asrwt>
<pdfrwt beam="1">  1       21 0.64978350E-01 0.35298280E+03</pdfrwt>
<pdfrwt beam="2">  1       21 0.48894892E-01 0.35298280E+03</pdfrwt>
<totfact> 0.79944655E+03</totfact>
</mgrwt>
</event>
<event>
 5    0  0.1781295E-001  0.4613945E+03  0.7546771E-02  0.1026533E+00
         21   -1    0    0  501  502  0.00000000000E+00  0.00000000000E+00  0.11517034541E+04  0.11517034541E+04  0.00000000000E+00 0.  1.
         21   -1    0    0  502  503 -0.00000000000E+00 -0.00000000000E+00 -0.36250861937E+03  0.36250861937E+03  0.00000000000E+00 0. -1.
         25    1    1    2    0    0 -0.12574768538E+03 -0.39455471332E+03  0.93509609804E+03  0.10302987988E+04  0.12500000000E+03 0.  0.
          1    1    1    2  501    0 -0.21320335061E+00  0.23524853521E+03 -0.24326399904E+01  0.23526120911E+03  0.00000000000E+00 0.  1.
         -1    1    1    2    0  503  0.12596088873E+03  0.15930617812E+03 -0.14346862329E+03  0.24865206563E+03  0.00000000000E+00 0. -1.
<mgrwt>
<rscale>  4 0.45401133E+03</rscale>
<asrwt>0</asrwt>
<pdfrwt beam="1">  1       21 0.17718515E+00 0.46139449E+03</pdfrwt>
<pdfrwt beam="2">  1       21 0.55770557E-01 0.46139449E+03</pdfrwt>
<totfact> 0.47406959E+02</totfact>
</mgrwt>
</event>
<event>
 5    0  0.1781295E-001  0.3320766E+03  0.7546771E-02  0.1070222E+00
         21   -1    0    0  501  502  0.00000000000E+00  0.00000000000E+00  0.59116406527E+03  0.59116406527E+03  0.00000000000E+00 0. -1.
         21   -1    0    0  502  503 -0.00000000000E+00 -0.00000000000E+00 -0.21194783168E+03  0.21194783168E+03  0.00000000000E+00 0.  1.
         25    1    1    2    0    0 -0.11996936327E+03 -0.28329701122E+03  0.35549891136E+03  0.48647129481E+03  0.12500000000E+03 0.  0.
          3    1    1    2  501    0  0.59922447589E+02  0.63377327583E+02 -0.18610752858E+01  0.87240179836E+02  0.00000000000E+00 0. -1.
         -3    1    1    2    0  503  0.60046915685E+02  0.21991968364E+03  0.25578397523E+02  0.22940042231E+03  0.00000000000E+00 0.  1.
<mgrwt>
<rscale>  4 0.33207656E+03</rscale>
<asrwt>0</asrwt>
<pdfrwt beam="1">  1       21 0.90948317E-01 0.33207656E+03</pdfrwt>
<pdfrwt beam="2">  1       21 0.32607359E-01 0.33207656E+03</pdfrwt>
<totfact> 0.85927575E+03</totfact>
</mgrwt>
</event>
<event>
 5    0  0.1781295E-001  0.2425717E+03  0.7546771E-02  0.1118091E+00
         21   -1    0    0  501  502  0.00000000000E+00  0.00000000000E+00  0.28248824226E+03  0.28248824226E+03  0.00000000000E+00 0. -1.
         21   -1    0    0  502  503 -0.00000000000E+00 -0.00000000000E+00 -0.19791102690E+03  0.19791102690E+03  0.00000000000E+00 0. -1.
         25    1    1    2    0    0  0.58410243721E+02  0.19951003050E+03  0.89965133766E+02  0.25871747937E+03  0.12500000000E+03 0.  0.
          1    1    1    2  501    0 -0.22866972315E+02 -0.12701996660E+03  0.31604848855E+02  0.13287526786E+03  0.00000000000E+00 0.  1.
         -1    1    1    2    0  503 -0.35543271406E+02 -0.72490063895E+02 -0.36992767258E+02  0.88806521918E+02  0.00000000000E+00 0. -1.
<mgrwt>
<rscale>  4 0.24257166E+03</rscale>
<asrwt>0</asrwt>
<pdfrwt beam="1">  1       21 0.43459729E-01 0.24257166E+03</pdfrwt>
<pdfrwt beam="2">  1       21 0.30447850E-01 0.24257166E+03</pdfrwt>
<totfact> 0.51520945E+04</totfact>
</mgrwt>
</event>
<event>
 5    0  0.1781295E-001  0.2460700E+03  0.7546771E-02  0.1115814E+00
         21   -1    0    0  501  502  0.00000000000E+00  0.00000000000E+00  0.99305932295E+02  0.99305932295E+02  0.00000000000E+00 0. -1.
         21   -1    0    0  502  503 -0.00000000000E+00 -0.00000000000E+00 -0.75534316633E+03  0.75534316633E+03  0.00000000000E+00 0. -1.
         25    1    1    2    0    0  0.68500647881E+02  0.21853981490E+03 -0.39832225604E+03  0.47616972721E+03  0.12500000000E+03 0.  0.
          1    1    1    2  501    0 -0.35413968987E+02 -0.19529296982E+03 -0.27100678749E+03  0.33591393560E+03  0.00000000000E+00 0. -1.
         -1    1    1    2    0  503 -0.33086678893E+02 -0.23246845079E+02  0.13291809496E+02  0.42565435814E+02  0.00000000000E+00 0.  1.
<mgrwt>
<rscale>  4 0.24607002E+03</rscale>
<asrwt>0</asrwt>
<pdfrwt beam="1">  1       21 0.15277836E-01 0.24607002E+03</pdfrwt>
<pdfrwt beam="2">  1       21 0.11620664E+00 0.24607002E+03</pdfrwt>
<totfact> 0.21025627E+04</totfact>
</mgrwt>
</event>
<event>
 5    0  0.1781295E-001  0.4461840E+03  0.7546771E-02  0.1029089E+00
         21   -1    0    0  501  502  0.00000000000E+00  0.00000000000E+00  0.11728850992E+04  0.11728850992E+04  0.00000000000E+00 0. -1.
         21   -1    0    0  502  503 -0.00000000000E+00 -0.00000000000E+00 -0.16911974218E+03  0.16911974218E+03  0.00000000000E+00 0. -1.
         25    1    1    2    0    0  0.30317885680E+03  0.29819517231E+03  0.46367117088E+03  0.64144659537E+03  0.12500000000E+03 0.  0.
          3    1    1    2  501    0 -0.13355471137E+03 -0.21865538919E+03  0.34893522230E+03  0.43290048454E+03  0.00000000000E+00 0. -1.
         -3    1    1    2    0  503 -0.16962414543E+03 -0.79539783128E+02  0.19115896380E+03  0.26765776143E+03  0.00000000000E+00 0.  1.
<mgrwt>
<rscale>  4 0.44544645E+03</rscale>
<asrwt>0</asrwt>
<pdfrwt beam="1">  1       21 0.18044386E+00 0.44618396E+03</pdfrwt>
<pdfrwt beam="2">  1       21 0.26018423E-01 0.44618396E+03</pdfrwt>
<totfact> 0.21621586E+03</totfact>
</mgrwt>
</event>
<event>
 5    0  0.1781295E-001  0.2376789E+03  0.7546771E-02  0.1121349E+00
         21   -1    0    0  501  502  0.00000000000E+00  0.00000000000E+00  0.60520362435E+02  0.60520362435E+02  0.00000000000E+00 0. -1.
         21   -1    0    0  502  503 -0.00000000000E+00 -0.00000000000E+00 -0.90583831252E+03  0.90583831252E+03  0.00000000000E+00 0. -1.
         25    1    1    2    0    0  0.14133016242E+03  0.14454073732E+03 -0.29654355047E+03  0.38003857288E+03  0.12500000000E+03 0.  0.
          1    1    1    2  501    0 -0.93710748517E+02 -0.87806947664E+02 -0.40031054492E+03  0.42040492008E+03  0.00000000000E+00 0. -1.
         -1    1    1    2    0  503 -0.47619413899E+02 -0.56733789652E+02 -0.14846385470E+03  0.16591518200E+03  0.00000000000E+00 0.  1.
<mgrwt>
<rscale>  4 0.23767886E+03</rscale>
<asrwt>0</asrwt>
<pdfrwt beam="1">  1       21 0.93108247E-02 0.23767886E+03</pdfrwt>
<pdfrwt beam="2">  1       21 0.13935974E+00 0.23767886E+03</pdfrwt>
<totfact> 0.32486669E+04</totfact>
</mgrwt>
</event>
<event>
 5    0  0.1781295E-001  0.2949741E+03  0.7546771E-02  0.1087780E+00
         21   -1    0    0  501  502  0.00000000000E+00  0.00000000000E+00  0.71439220830E+03  0.71439220830E+03  0.00000000000E+00 0.  1.
         21   -1    0    0  502  503 -0.00000000000E+00 -0.00000000000E+00 -0.16964948046E+03  0.16964948046E+03  0.00000000000E+00 0.  1.
         25    1    1    2    0    0  0.23717807322E+03  0.12300936507E+03  0.52902755003E+03  0.60570610943E+03  0.12500000000E+03 0.  0.
          2    1    1    2  501    0 -0.70460286569E+02 -0.74904397506E+02 -0.82614816296E+01  0.10316769275E+03  0.00000000000E+00 0.  1.
         -2    1    1    2    0  503 -0.16671778665E+03 -0.48104967569E+02  0.23976659442E+02  0.17516788657E+03  0.00000000000E+00 0. -1.
<mgrwt>
<rscale>  4 0.29497414E+03</rscale>
<asrwt>0</asrwt>
<pdfrwt beam="1">  1       21 0.10990649E+00 0.29497414E+03</pdfrwt>
<pdfrwt beam="2">  1       21 0.26099921E-01 0.29497414E+03</pdfrwt>
<totfact> 0.85828532E+03</totfact>
</mgrwt>
</event>
<event>
 5    0  0.1781295E-001  0.2507814E+03  0.7546771E-02  0.1112812E+00
         21   -1    0    0  501  502  0.00000000000E+00  0.00000000000E+00  0.48970196111E+03  0.48970196111E+03  0.00000000000E+00 0. -1.
         21   -1    0    0  502  503 -0.00000000000E+00 -0.00000000000E+00 -0.16700888450E+04  0.16700888450E+04  0.00000000000E+00 0.  1.
         25    1    1    2    0    0 -0.21045011804E+03  0.54562448270E+02  0.44944037356E+03  0.51467267494E+03  0.12500000000E+03 0.  0.
          1    1    1    2  501    0  0.15958369533E+03 -0.62384294109E+02 -0.13141814393E+04  0.13253043467E+04  0.00000000000E+00 0.  1.
         -1    1    1    2    0  503  0.50866422712E+02  0.78218458385E+01 -0.31564581813E+03  0.31981378446E+03  0.00000000000E+00 0. -1.
<mgrwt>
<rscale>  4 0.25078140E+03</rscale>
<asrwt>0</asrwt>
<pdfrwt beam="1">  1       21 0.75338763E-01 0.25078140E+03</pdfrwt>
<pdfrwt beam="2">  1       21 0.25693675E+00 0.25078140E+03</pdfrwt>
<totfact> 0.87997015E+01</totfact>
</mgrwt>
</event>
<event>
 5    0  0.1781295E-001  0.2431502E+03  0.7546771E-02  0.1117712E+00
         21   -1    0    0  501  502  0.00000000000E+00  0.00000000000E+00  0.16763353034E+03  0.16763353034E+03  0.00000000000E+00 0.  1.
         21   -1    0    0  502  503 -0.00000000000E+00 -0.00000000000E+00 -0.31919898003E+03  0.31919898003E+03  0.00000000000E+00 0.  1.
         25    1    1    2    0    0  0.48644294230E+01  0.20850261306E+03 -0.43793130664E+02  0.24706242251E+03  0.12500000000E+03 0.  0.
          3    1    1    2  501    0  0.18303332545E+02 -0.98811308454E+02 -0.36468110085E+02  0.10690467583E+03  0.00000000000E+00 0. -1.
         -3    1    1    2    0  503 -0.23167761968E+02 -0.10969130460E+03 -0.71304208943E+02  0.13286541203E+03  0.00000000000E+00 0.  1.
<mgrwt>
<rscale>  4 0.24315016E+03</rscale>
<asrwt>0</asrwt>
<pdfrwt beam="1">  1       21 0.25789774E-01 0.24315016E+03</pdfrwt>
<pdfrwt beam="2">  1       21 0.49107535E-01 0.24315016E+03</pdfrwt>
<totfact> 0.55219407E+04</totfact>
</mgrwt>
</event>
<event>
 5    0  0.1781295E-001  0.3015794E+03  0.7546771E-02  0.1084454E+00
         21   -1    0    0  501  502  0.00000000000E+00  0.00000000000E+00  0.10406458564E+03  0.10406458564E+03  0.00000000000E+00 0.  1.
         21   -1    0    0  502  503 -0.00000000000E+00 -0.00000000000E+00 -0.81826039704E+03  0.81826039704E+03  0.00000000000E+00 0.  1.
         25    1    1    2    0    0  0.15878827313E+03 -0.22385580481E+03 -0.36217667483E+03  0.47129829283E+03  0.12500000000E+03 0.  0.
          2    1    1    2  501    0 -0.59572424544E+02  0.11823981550E+03 -0.12752699241E+03  0.18382780401E+03  0.00000000000E+00 0.  1.
         -2    1    1    2    0  503 -0.99215848584E+02  0.10561598930E+03 -0.22449214416E+03  0.26719888584E+03  0.00000000000E+00 0. -1.
<mgrwt>
<rscale>  4 0.30157940E+03</rscale>
<asrwt>0</asrwt>
<pdfrwt beam="1">  1       21 0.16009936E-01 0.30157940E+03</pdfrwt>
<pdfrwt beam="2">  1       21 0.12588621E+00 0.30157940E+03</pdfrwt>
<totfact> 0.15370552E+04</totfact>
</mgrwt>
</event>
<event>
 5    0  0.1781295E-001  0.2434986E+03  0.7546771E-02  0.1117484E+00
         21   -1    0    0  501  502  0.00000000000E+00  0.00000000000E+00  0.99682965882E+03  0.99682965882E+03  0.00000000000E+00 0. -1.
         21   -1    0    0  502  503 -0.00000000000E+00 -0.00000000000E+00 -0.41028678533E+03  0.41028678533E+03  0.00000000000E+00 0. -1.
         25    1    1    2    0    0 -0.59343687192E+01 -0.21936281985E+03  0.75394585512E+03  0.79511924635E+03  0.12500000000E+03 0.  0.
          4    1    1    2  501    0  0.15197180475E+02  0.18808916836E+03  0.18135256357E+03  0.26171977736E+03  0.00000000000E+00 0.  1.
         -4    1    1    2    0  503 -0.92628117563E+01  0.31273651491E+02 -0.34875554519E+03  0.35027742043E+03  0.00000000000E+00 0. -1.
<mgrwt>
<rscale>  4 0.24349863E+03</rscale>
<asrwt>0</asrwt>
<pdfrwt beam="1">  1       21 0.15335841E+00 0.24349863E+03</pdfrwt>
<pdfrwt beam="2">  1       21 0.63121044E-01 0.24349863E+03</pdfrwt>
<totfact> 0.62219505E+02</totfact>
</mgrwt>
</event>
<event>
 5    0  0.1781295E-001  0.4145294E+03  0.7546771E-02  0.1038862E+00
         21   -1    0    0  501  502  0.00000000000E+00  0.00000000000E+00  0.31058089946E+03  0.31058089946E+03  0.00000000000E+00 0.  1.
         21   -1    0    0  502  503 -0.00000000000E+00 -0.00000000000E+00 -0.78040804269E+03  0.78040804269E+03  0.00000000000E+00 0.  1.
         25    1    1    2    0    0  0.50529963800E+02  0.39199028461E+03 -0.53478095513E+03  0.67662791137E+03  0.12500000000E+03 0.  0.
          4    1    1    2  501    0  0.14705571086E+02 -0.78862965796E+02  0.49231680911E+02  0.94124277423E+02  0.00000000000E+00 0. -1.
         -4    1    1    2    0  503 -0.65235534886E+02 -0.31312731882E+03  0.15722130989E+02  0.32023675336E+03  0.00000000000E+00 0.  1.
<mgrwt>
<rscale>  4 0.41452944E+03</rscale>
<asrwt>0</asrwt>
<pdfrwt beam="1">  1       21 0.47781677E-01 0.41452944E+03</pdfrwt>
<pdfrwt beam="2">  1       21 0.12006278E+00 0.41452944E+03</pdfrwt>
<totfact> 0.19257353E+03</totfact>
</mgrwt>
</event>
<event>
 5    0  0.1781295E-001  0.3160752E+03  0.7546771E-02  0.1077470E+00
         21   -1    0    0  501  502  0.00000000000E+00  0.00000000000E+00  0.64140278654E+03  0.64140278654E+03  0.00000000000E+00 0.  1.
         21   -1    0    0  502  503 -0.00000000000E+00 -0.00000000000E+00 -0.26253866880E+03  0.26253866880E+03  0.00000000000E+00 0. -1.
         25    1    1    2    0    0 -0.23286707512E+03 -0.17335355717E+03  0.48503779417E+03  0.57893453190E+03  0.12500000000E+03 0.  0.
          4    1    1    2  501    0  0.18246541290E+03  0.11961592522E+03 -0.12153875276E+03  0.24974640116E+03  0.00000000000E+00 0. -1.
         -4    1    1    2    0  503  0.50401662223E+02  0.53737631954E+02  0.15365076323E+02  0.75260522276E+02  0.00000000000E+00 0.  1.
<mgrwt>
<rscale>  4 0.31607520E+03</rscale>
<asrwt>0</asrwt>
<pdfrwt beam="1">  1       21 0.98677351E-01 0.31607520E+03</pdfrwt>
<pdfrwt beam="2">  1       21 0.40390565E-01 0.31607520E+03</pdfrwt>
<totfact> 0.46293169E+03</totfact>
</mgrwt>
</event>
<event>
 5    0  0.1781295E-001  0.2545525E+03  0.7546771E-02  0.1110461E+00
         21   -1    0    0  501  502  0.00000000000E+00  0.00000000000E+00  0.78040941186E+03  0.78040941186E+03  0.00000000000E+00 0.  1.
         21   -1    0    0  502  503 -0.00000000000E+00 -0.00000000000E+00 -0.81554562620E+02  0.81554562620E+02  0.00000000000E+00 0.  1.
         25    1    1    2    0    0 -0.11836764434E+03  0.18751289544E+03  0.49249562340E+03  0.55439058817E+03  0.12500000000E+03 0.  0.
          4    1    1    2  501    0  0.60500192222E+02 -0.11993399671E+03  0.92595668299E+02  0.16315144686E+03  0.00000000000E+00 0.  1.
         -4    1    1    2    0  503  0.57867452122E+02 -0.67578898729E+02  0.11376355753E+03  0.14442193944E+03  0.00000000000E+00 0. -1.
<mgrwt>
<rscale>  4 0.25455252E+03</rscale>
<asrwt>0</asrwt>
<pdfrwt beam="1">  1       21 0.12006298E+00 0.25455252E+03</pdfrwt>
<pdfrwt beam="2">  1       21 0.12546856E-01 0.25455252E+03</pdfrwt>
<totfact> 0.27634742E+04</totfact>
</mgrwt>
</event>
<event>
 5    0  0.1781295E-001  0.4130889E+03  0.7546771E-02  0.1039339E+00
         21   -1    0    0  501  502  0.00000000000E+00  0.00000000000E+00  0.45793962505E+03  0.45793962505E+03  0.00000000000E+00 0.  1.
         21   -1    0    0  502  503 -0.00000000000E+00 -0.00000000000E+00 -0.10072332925E+04  0.10072332925E+04  0.00000000000E+00 0. -1.
         25    1    1    2    0    0  0.42052007372E+03 -0.11529083727E+03  0.25503677223E+03  0.52038242164E+03  0.12500000000E+03 0.  0.
          3    1    1    2  501    0 -0.28340276618E+03 -0.54121447087E+01 -0.32179248466E+03  0.42883192789E+03  0.00000000000E+00 0.  1.
         -3    1    1    2    0  503 -0.13711730754E+03  0.12070298198E+03 -0.48253795504E+03  0.51595856805E+03  0.00000000000E+00 0. -1.
<mgrwt>
<rscale>  4 0.41308888E+03</rscale>
<asrwt>0</asrwt>
<pdfrwt beam="1">  1       21 0.70452251E-01 0.41308888E+03</pdfrwt>
<pdfrwt beam="2">  1       21 0.15495897E+00 0.41308888E+03</pdfrwt>
<totfact> 0.42298239E+02</totfact>
</mgrwt>
</event>
<event>
 5    0  0.1781295E-001  0.2863424E+03  0.7546771E-02  0.1092274E+00
         21   -1    0    0  501  502  0.00000000000E+00  0.00000000000E+00  0.10887194515E+04  0.10887194515E+04  0.00000000000E+00 0.  1.
         21   -1    0    0  502  503 -0.00000000000E+00 -0.00000000000E+00 -0.15141342798E+03  0.15141342798E+03  0.00000000000E+00 0.  1.
         25    1    1    2    0    0  0.69138120694E+02 -0.24921023380E+03  0.83987369434E+03  0.88763654883E+03  0.12500000000E+03 0.  0.
          1    1    1    2  501    0 -0.35981702813E+02  0.25523339315E+03  0.90595604005E+01  0.25791634991E+03  0.00000000000E+00 0.  1.
         -1    1    1    2    0  503 -0.33156417881E+02 -0.60231593506E+01  0.88372768738E+02  0.94579980703E+02  0.00000000000E+00 0. -1.
<mgrwt>
<rscale>  4 0.28634236E+03</rscale>
<asrwt>0</asrwt>
<pdfrwt beam="1">  1       21 0.16749530E+00 0.28634236E+03</pdfrwt>
<pdfrwt beam="2">  1       21 0.23294374E-01 0.28634236E+03</pdfrwt>
<totfact> 0.35876854E+03</totfact>
</mgrwt>
</event>
<event>
 5    0  0.1781295E-001  0.2502399E+03  0.7546771E-02  0.1113153E+00
         21   -1    0    0  501  502  0.00000000000E+00  0.00000000000E+00  0.22709356171E+03  0.22709356171E+03  0.00000000000E+00 0.  1.
         21   -1    0    0  502  503 -0.00000000000E+00 -0.00000000000E+00 -0.67380703108E+03  0.67380703108E+03  0.00000000000E+00 0.  1.
         25    1    1    2    0    0 -0.95682702256E+02  0.19452460581E+03  0.13006346553E+03  0.28202217438E+03  0.12500000000E+03 0.  0.
          2    1    1    2  501    0 -0.64684679387E+01 -0.24058022094E+02 -0.81355162437E+02  0.85084028816E+02  0.00000000000E+00 0. -1.
         -2    1    1    2    0  503  0.10215117020E+03 -0.17046658371E+03 -0.49542177246E+03  0.53379438959E+03  0.00000000000E+00 0.  1.
<mgrwt>
<rscale>  4 0.25023989E+03</rscale>
<asrwt>0</asrwt>
<pdfrwt beam="1">  1       21 0.34937471E-01 0.25023989E+03</pdfrwt>
<pdfrwt beam="2">  1       21 0.10366262E+00 0.25023989E+03</pdfrwt>
<totfact> 0.57147551E+03</totfact>
</mgrwt>
</event>
<event>
 5    0  0.1781295E-001  0.2415255E+03  0.7546771E-02  0.1118781E+00
         21   -1    0    0  501  502  0.00000000000E+00  0.00000000000E+00  0.10179867663E+03  0.10179867663E+03  0.00000000000E+00 0.  1.
         21   -1    0    0  502  503 -0.00000000000E+00 -0.00000000000E+00 -0.12265334617E+04  0.12265334617E+04  0.00000000000E+00 0.  1.
         25    1    1    2    0    0 -0.10682248669E+03 -0.18807534169E+03 -0.14257117740E+03  0.28763678214E+03  0.12500000000E+03 0.  0.
          1    1    1    2  501    0 -0.80143395106E+01  0.32862480990E+02 -0.68798040337E+03  0.68881144569E+03  0.00000000000E+00 0.  1.
         -1    1    1    2    0  503  0.11483682620E+03  0.15521286070E+03 -0.29418320425E+03  0.35188391046E+03  0.00000000000E+00 0. -1.
<mgrwt>
<rscale>  4 0.24152550E+03</rscale>
<asrwt>0</asrwt>
<pdfrwt beam="1">  1       21 0.15661333E-01 0.24152550E+03</pdfrwt>
<pdfrwt beam="2">  1       21 0.18869747E+00 0.24152550E+03</pdfrwt>
<totfact> 0.55430079E+03</totfact>
</mgrwt>
</event>
<event>
 5    0  0.2100618E-001  0.3066675E+03  0.7546771E-02  0.1081954E+00
         21   -1    0    0  501  502  0.00000000000E+00  0.00000000000E+00  0.43936548226E+03  0.43936548226E+03  0.00000000000E+00 0. -1.
         21   -1    0    0  502  503 -0.00000000000E+00 -0.00000000000E+00 -0.69920950391E+03  0.69920950391E+03  0.00000000000E+00 0. -1.
         25    1    1    2    0    0 -0.26035552653E+03 -0.10312590898E+03 -0.61297784108E+03  0.68540994080E+03  0.12500000000E+03 0.  0.
          3    1    1    2  501    0  0.49214032387E+02  0.23043979616E+01  0.49513626495E+02  0.69849341031E+02  0.00000000000E+00 0.  1.
         -3    1    1    2    0  503  0.21114149415E+03  0.10082151102E+03  0.30362019294E+03  0.38331570434E+03  0.00000000000E+00 0. -1.
<mgrwt>
<rscale>  4 0.30666750E+03</rscale>
<asrwt>0</asrwt>
<pdfrwt beam="1">  1       21 0.67594690E-01 0.30666750E+03</pdfrwt>
<pdfrwt beam="2">  1       21 0.10757069E+00 0.30666750E+03</pdfrwt>
<totfact> 0.12625241E+03</totfact>
</mgrwt>
</event>
<event>
 5    0  0.1781295E-001  0.2254072E+03  0.7546771E-02  0.1129915E+00
         21   -1    0    0  501  502  0.00000000000E+00  0.00000000000E+00  0.12442556481E+03  0.12442556481E+03  0.00000000000E+00 0. -1.
         21   -1    0    0  502  503 -0.00000000000E+00 -0.00000000000E+00 -0.11475706023E+04  0.11475706023E+04  0.00000000000E+00 0.  1.
         25    1    1    2    0    0  0.14728579380E+03  0.15109208428E+03 -0.32082056199E+02  0.24733819219E+03  0.12500000000E+03 0.  0.
          3    1    1    2  501    0 -0.12303038116E+03 -0.58097268092E+02 -0.33471860007E+03  0.36131469452E+03  0.00000000000E+00 0. -1.
         -3    1    1    2    0  503 -0.24255412638E+02 -0.92994816192E+02 -0.65634438122E+03  0.66334328039E+03  0.00000000000E+00 0.  1.
<mgrwt>
<rscale>  4 0.22540716E+03</rscale>
<asrwt>0</asrwt>
<pdfrwt beam="1">  1       21 0.19142394E-01 0.22540716E+03</pdfrwt>
<pdfrwt beam="2">  1       21 0.17654933E+00 0.22540716E+03</pdfrwt>
<totfact> 0.46809698E+03</totfact>
</mgrwt>
</event>
<event>
 5    0  0.1781295E-001  0.3106597E+03  0.7546771E-02  0.1080030E+00
         21   -1    0    0  501  502  0.00000000000E+00  0.00000000000E+00  0.13584224330E+04  0.13584224330E+04  0.00000000000E+00 0.  1.
         21   -1    0    0  502  503 -0.00000000000E+00 -0.00000000000E+00 -0.98236758733E+02  0.98236758733E+02  0.00000000000E+00 0.  1.
         25    1    1    2    0    0 -0.15799239529E+03 -0.23648006818E+03  0.24260594784E+03  0.39416629174E+03  0.12500000000E+03 0.  0.
          1    1    1    2  501    0  0.14613952094E+03  0.18447623949E+03  0.65473015322E+03  0.69574407367E+03  0.00000000000E+00 0.  1.
         -1    1    1    2    0  503  0.11852874341E+02  0.52003828689E+02  0.36284957319E+03  0.36674882630E+03  0.00000000000E+00 0. -1.
<mgrwt>
<rscale>  4 0.31065965E+03</rscale>
<asrwt>0</asrwt>
<pdfrwt beam="1">  1       21 0.20898805E+00 0.31065965E+03</pdfrwt>
<pdfrwt beam="2">  1       21 0.15113348E-01 0.31065965E+03</pdfrwt>
<totfact> 0.41643735E+03</totfact>
</mgrwt>
</event>
<event>
 5    0  0.1781295E-001  0.3640121E+03  0.7546771E-02  0.1057006E+00
         21   -1    0    0  501  502  0.00000000000E+00  0.00000000000E+00  0.57807206128E+03  0.57807206128E+03  0.00000000000E+00 0. -1.
         21   -1    0    0  502  503 -0.00000000000E+00 -0.00000000000E+00 -0.25400904979E+03  0.25400904979E+03  0.00000000000E+00 0. -1.
         25    1    1    2    0    0 -0.11486257400E+03  0.32200369352E+03  0.98432938082E+01  0.36414513587E+03  0.12500000000E+03 0.  0.
          1    1    1    2  501    0  0.10235322755E+03 -0.27902723800E+03  0.24339525682E+03  0.38415313844E+03  0.00000000000E+00 0. -1.
         -1    1    1    2    0  503  0.12509346443E+02 -0.42976455521E+02  0.70824460865E+02  0.83782836753E+02  0.00000000000E+00 0.  1.
<mgrwt>
<rscale>  4 0.36401207E+03</rscale>
<asrwt>0</asrwt>
<pdfrwt beam="1">  1       21 0.88934163E-01 0.36401207E+03</pdfrwt>
<pdfrwt beam="2">  1       21 0.39078316E-01 0.36401207E+03</pdfrwt>
<totfact> 0.62042222E+03</totfact>
</mgrwt>
</event>
<event>
 5    0  0.1781295E-001  0.3293254E+03  0.7546771E-02  0.1071436E+00
         21   -1    0    0  501  502  0.00000000000E+00  0.00000000000E+00  0.15309043649E+04  0.15309043649E+04  0.00000000000E+00 0.  1.
         21   -1    0    0  502  503 -0.00000000000E+00 -0.00000000000E+00 -0.10018937145E+03  0.10018937145E+03  0.00000000000E+00 0.  1.
         25    1    1    2    0    0  0.28406876840E+03 -0.11015981692E+03  0.27034108677E+03  0.42607458695E+03  0.12500000000E+03 0.  0.
          4    1    1    2  501    0 -0.13113773368E+03 -0.32814458244E+01  0.56070261737E+03  0.57584311944E+03  0.00000000000E+00 0.  1.
         -4    1    1    2    0  503 -0.15293103472E+03  0.11344126274E+03  0.59967128934E+03  0.62917603000E+03  0.00000000000E+00 0. -1.
<mgrwt>
<rscale>  4 0.32932545E+03</rscale>
<asrwt>0</asrwt>
<pdfrwt beam="1">  1       21 0.23552373E+00 0.32932545E+03</pdfrwt>
<pdfrwt beam="2">  1       21 0.15413751E-01 0.32932545E+03</pdfrwt>
<totfact> 0.27052746E+03</totfact>
</mgrwt>
</event>
<event>
 5    0  0.1781295E-001  0.2456655E+03  0.7546771E-02  0.1116075E+00
         21   -1    0    0  501  502  0.00000000000E+00  0.00000000000E+00  0.11658913470E+03  0.11658913470E+03  0.00000000000E+00 0. -1.
         21   -1    0    0  502  503 -0.00000000000E+00 -0.00000000000E+00 -0.68273589153E+03  0.68273589153E+03  0.00000000000E+00 0. -1.
         25    1    1    2    0    0  0.11181272289E+03 -0.17951173281E+03 -0.50160588126E+03  0.55853380142E+03  0.12500000000E+03 0.  0.
          4    1    1    2  501    0 -0.10242426026E+03  0.96799525302E+02 -0.70025826684E+02  0.15736738414E+03  0.00000000000E+00 0. -1.
         -4    1    1    2    0  503 -0.93884626319E+01  0.82712207509E+02  0.54849511131E+01  0.83423840659E+02  0.00000000000E+00 0.  1.
<mgrwt>
<rscale>  4 0.24566552E+03</rscale>
<asrwt>0</asrwt>
<pdfrwt beam="1">  1       21 0.17936790E-01 0.24566552E+03</pdfrwt>
<pdfrwt beam="2">  1       21 0.10503629E+00 0.24566552E+03</pdfrwt>
<totfact> 0.20012161E+04</totfact>
</mgrwt>
</event>
<event>
 5    0  0.1781295E-001  0.2901290E+03  0.7546771E-02  0.1090282E+00
         21   -1    0    0  501  502  0.00000000000E+00  0.00000000000E+00  0.26289458808E+03  0.26289458808E+03  0.00000000000E+00 0.  1.
         21   -1    0    0  502  503 -0.00000000000E+00 -0.00000000000E+00 -0.30700798707E+03  0.30700798707E+03  0.00000000000E+00 0.  1.
         25    1    1    2    0    0 -0.16710096661E+03 -0.20156165623E+03  0.10597525167E+02  0.29032247906E+03  0.12500000000E+03 0.  0.
          2    1    1    2  501    0  0.75674621041E+02  0.55691409555E+02  0.12470259477E+02  0.94782322927E+02  0.00000000000E+00 0. -1.
         -2    1    1    2    0  503  0.91426345572E+02  0.14587024668E+03 -0.67181183632E+02  0.18479777316E+03  0.00000000000E+00 0.  1.
<mgrwt>
<rscale>  4 0.29012900E+03</rscale>
<asrwt>0</asrwt>
<pdfrwt beam="1">  1       21 0.40445321E-01 0.29012900E+03</pdfrwt>
<pdfrwt beam="2">  1       21 0.47231998E-01 0.29012900E+03</pdfrwt>
<totfact> 0.24099387E+04</totfact>
</mgrwt>
</event>
<event>
 5    0  0.1781295E-001  0.2437703E+03  0.7546771E-02  0.1117306E+00
         21   -1    0    0  501  502  0.00000000000E+00  0.00000000000E+00  0.85955656016E+03  0.85955656016E+03  0.00000000000E+00 0.  1.
         21   -1    0    0  502  503 -0.00000000000E+00 -0.00000000000E+00 -0.81303984812E+02  0.81303984812E+02  0.00000000000E+00 0.  1.
         25    1    1    2    0    0 -0.20246382846E+03 -0.52984632692E+02  0.17385553674E+03  0.29941563218E+03  0.12500000000E+03 0.  0.
          4    1    1    2  501    0  0.68154782833E+02 -0.37820290821E+01  0.16825547547E+03  0.18157445633E+03  0.00000000000E+00 0.  1.
         -4    1    1    2    0  503  0.13430904563E+03  0.56766661774E+02  0.43614156315E+03  0.45987045647E+03  0.00000000000E+00 0. -1.
<mgrwt>
<rscale>  4 0.24377033E+03</rscale>
<asrwt>0</asrwt>
<pdfrwt beam="1">  1       21 0.13223946E+00 0.24377033E+03</pdfrwt>
<pdfrwt beam="2">  1       21 0.12508306E-01 0.24377033E+03</pdfrwt>
<totfact> 0.21883596E+04</totfact>
</mgrwt>
</event>
<event>
 5    0  0.1781295E-001  0.3190585E+03  0.7546771E-02  0.1076083E+00
         21   -1    0    0  501  502  0.00000000000E+00  0.00000000000E+00  0.13357037657E+04  0.13357037657E+04  0.00000000000E+00 0.  1.
         21   -1    0    0  502  503 -0.00000000000E+00 -0.00000000000E+00 -0.81239393567E+03  0.81239393567E+03  0.00000000000E+00 0.  1.
         25    1    1    2    0    0  0.10235563854E+03 -0.27513020719E+03  0.12871747616E+04  0.13261286418E+04  0.12500000000E+03 0.  0.
          1    1    1    2  501    0 -0.52748662234E+02  0.49667502957E+02 -0.16873289811E+03  0.18363026200E+03  0.00000000000E+00 0. -1.
         -1    1    1    2    0  503 -0.49606976308E+02  0.22546270423E+03 -0.59513203353E+03  0.63833879753E+03  0.00000000000E+00 0.  1.
<mgrwt>
<rscale>  4 0.31905847E+03</rscale>
<asrwt>0</asrwt>
<pdfrwt beam="1">  1       21 0.20549289E+00 0.31905847E+03</pdfrwt>
<pdfrwt beam="2">  1       21 0.12498368E+00 0.31905847E+03</pdfrwt>
<totfact> 0.50877256E+01</totfact>
</mgrwt>
</event>
<event>
 5    0  0.1781295E-001  0.2840960E+03  0.7546771E-02  0.1093473E+00
         21   -1    0    0  501  502  0.00000000000E+00  0.00000000000E+00  0.13809215118E+03  0.13809215118E+03  0.00000000000E+00 0.  1.
         21   -1    0    0  502  503 -0.00000000000E+00 -0.00000000000E+00 -0.54267790970E+03  0.54267790970E+03  0.00000000000E+00 0.  1.
         25    1    1    2    0    0  0.20905803460E+03  0.14621987834E+03 -0.24296250427E+03  0.37381986723E+03  0.12500000000E+03 0.  0.
          1    1    1    2  501    0 -0.13891743574E+03 -0.69991929667E+02 -0.11448354392E+03  0.19314089676E+03  0.00000000000E+00 0. -1.
         -1    1    1    2    0  503 -0.70140598859E+02 -0.76227948674E+02 -0.47139710329E+02  0.11380929688E+03  0.00000000000E+00 0.  1.
<mgrwt>
<rscale>  4 0.28409596E+03</rscale>
<asrwt>0</asrwt>
<pdfrwt beam="1">  1       21 0.21244946E-01 0.28409596E+03</pdfrwt>
<pdfrwt beam="2">  1       21 0.83488911E-01 0.28409596E+03</pdfrwt>
<totfact> 0.24591359E+04</totfact>
</mgrwt>
</event>
<event>
 5    0  0.1781295E-001  0.2410334E+03  0.7546771E-02  0.1119106E+00
         21   -1    0    0  501  502  0.00000000000E+00  0.00000000000E+00  0.64765941505E+03  0.64765941505E+03  0.00000000000E+00 0.  1.
         21   -1    0    0  502  503 -0.00000000000E+00 -0.00000000000E+00 -0.10558324025E+03  0.10558324025E+03  0.00000000000E+00 0. -1.
         25    1    1    2    0    0  0.17528825728E+03  0.12215865280E+03  0.32366496844E+03  0.40747112952E+03  0.12500000000E+03 0.  0.
          2    1    1    2  501    0 -0.19385401011E+03 -0.66333108242E+02  0.14177672308E+03  0.24915878008E+03  0.00000000000E+00 0. -1.
         -2    1    1    2    0  503  0.18565752830E+02 -0.55825544560E+02  0.76634483286E+02  0.96612745702E+02  0.00000000000E+00 0.  1.
<mgrwt>
<rscale>  4 0.24103338E+03</rscale>
<asrwt>0</asrwt>
<pdfrwt beam="1">  1       21 0.99639908E-01 0.24103338E+03</pdfrwt>
<pdfrwt beam="2">  1       21 0.16243576E-01 0.24103338E+03</pdfrwt>
<totfact> 0.27357540E+04</totfact>
</mgrwt>
</event>
<event>
 5    0  0.1781295E-001  0.2389665E+03  0.7546771E-02  0.1120483E+00
         21   -1    0    0  501  502  0.00000000000E+00  0.00000000000E+00  0.17320060294E+03  0.17320060294E+03  0.00000000000E+00 0.  1.
         21   -1    0    0  502  503 -0.00000000000E+00 -0.00000000000E+00 -0.54815133753E+03  0.54815133753E+03  0.00000000000E+00 0. -1.
         25    1    1    2    0    0  0.62210963291E+02 -0.21400149528E+03  0.16196679804E+02  0.25603549826E+03  0.12500000000E+03 0.  0.
          1    1    1    2  501    0 -0.40976219350E+02  0.45603344154E+02 -0.20237858200E+03  0.21146112173E+03  0.00000000000E+00 0.  1.
         -1    1    1    2    0  503 -0.21234743940E+02  0.16839815112E+03 -0.18876883240E+03  0.25385532049E+03  0.00000000000E+00 0. -1.
<mgrwt>
<rscale>  4 0.23896648E+03</rscale>
<asrwt>0</asrwt>
<pdfrwt beam="1">  1       21 0.26646246E-01 0.23896648E+03</pdfrwt>
<pdfrwt beam="2">  1       21 0.84330976E-01 0.23896648E+03</pdfrwt>
<totfact> 0.15911744E+04</totfact>
</mgrwt>
</event>
<event>
 5    0  0.1781295E-001  0.2650111E+03  0.7546771E-02  0.1104169E+00
         21   -1    0    0  501  502  0.00000000000E+00  0.00000000000E+00  0.50841911213E+03  0.50841911213E+03  0.00000000000E+00 0.  1.
         21   -1    0    0  502  503 -0.00000000000E+00 -0.00000000000E+00 -0.18306364723E+03  0.18306364723E+03  0.00000000000E+00 0.  1.
         25    1    1    2    0    0  0.23718444429E+03 -0.64139942417E+02  0.31798153538E+03  0.42084159689E+03  0.12500000000E+03 0.  0.
          4    1    1    2  501    0 -0.34547299476E+02 -0.38855616273E+01 -0.38657314131E+02  0.51990397441E+02  0.00000000000E+00 0. -1.
         -4    1    1    2    0  503 -0.20263714482E+03  0.68025504044E+02  0.46031243656E+02  0.21865076504E+03  0.00000000000E+00 0.  1.
<mgrwt>
<rscale>  4 0.26501114E+03</rscale>
<asrwt>0</asrwt>
<pdfrwt beam="1">  1       21 0.78218325E-01 0.26501114E+03</pdfrwt>
<pdfrwt beam="2">  1       21 0.28163638E-01 0.26501114E+03</pdfrwt>
<totfact> 0.16748294E+04</totfact>
</mgrwt>
</event>
<event>
 5    0  0.1781295E-001  0.3286239E+03  0.7546771E-02  0.1073123E+00
         21   -1    0    0  501  502  0.00000000000E+00  0.00000000000E+00  0.60366424639E+03  0.60366424639E+03  0.00000000000E+00 0.  1.
         21   -1    0    0  502  503 -0.00000000000E+00 -0.00000000000E+00 -0.11452633024E+04  0.11452633024E+04  0.00000000000E+00 0. -1.
         25    1    1    2    0    0 -0.23979882682E+03  0.16444131407E+03  0.53592662637E+03  0.62240402631E+03  0.12500000000E+03 0.  0.
          2    1    1    2  501    0  0.30097231523E+02 -0.10678745192E+03 -0.38248565640E+03  0.39825203149E+03  0.00000000000E+00 0.  1.
         -2    1    1    2    0  503  0.20970159530E+03 -0.57653862155E+02 -0.69504002602E+03  0.72827149104E+03  0.00000000000E+00 0. -1.
<mgrwt>
<rscale>  4 0.32554890E+03</rscale>
<asrwt>0</asrwt>
<pdfrwt beam="1">  1       21 0.92871424E-01 0.32862387E+03</pdfrwt>
<pdfrwt beam="2">  1       21 0.17619435E+00 0.32862387E+03</pdfrwt>
<totfact> 0.16469055E+02</totfact>
</mgrwt>
</event>
<event>
 5    0  0.1781295E-001  0.2444259E+03  0.7546771E-02  0.1116879E+00
         21   -1    0    0  501  502  0.00000000000E+00  0.00000000000E+00  0.60546566549E+03  0.60546566549E+03  0.00000000000E+00 0. -1.
         21   -1    0    0  502  503 -0.00000000000E+00 -0.00000000000E+00 -0.10687715399E+03  0.10687715399E+03  0.00000000000E+00 0. -1.
         25    1    1    2    0    0  0.14634971598E+02 -0.20953486541E+03  0.38609863540E+03  0.45696411071E+03  0.12500000000E+03 0.  0.
          3    1    1    2  501    0  0.17450926953E+02  0.16615436708E+03  0.53480368750E+02  0.17541937861E+03  0.00000000000E+00 0. -1.
         -3    1    1    2    0  503 -0.32085898551E+02  0.43380498337E+02  0.59009507353E+02  0.79959330161E+02  0.00000000000E+00 0.  1.
<mgrwt>
<rscale>  4 0.24442594E+03</rscale>
<asrwt>0</asrwt>
<pdfrwt beam="1">  1       21 0.93148562E-01 0.24442594E+03</pdfrwt>
<pdfrwt beam="2">  1       21 0.16442639E-01 0.24442594E+03</pdfrwt>
<totfact> 0.31318450E+04</totfact>
</mgrwt>
</event>
<event>
 5    0  0.1781295E-001  0.2552221E+03  0.7546771E-02  0.1110048E+00
         21   -1    0    0  501  502  0.00000000000E+00  0.00000000000E+00  0.46102730128E+02  0.46102730128E+02  0.00000000000E+00 0.  1.
         21   -1    0    0  502  503 -0.00000000000E+00 -0.00000000000E+00 -0.13607117292E+04  0.13607117292E+04  0.00000000000E+00 0.  1.
         25    1    1    2    0    0 -0.18365512394E+03 -0.12563486024E+03 -0.80628042032E+03  0.84571061177E+03  0.12500000000E+03 0.  0.
          3    1    1    2  501    0  0.78925503444E+02  0.68858269402E+01 -0.17207362554E+03  0.18943595834E+03  0.00000000000E+00 0. -1.
         -3    1    1    2    0  503  0.10472962050E+03  0.11874903330E+03 -0.33625495322E+03  0.37166788923E+03  0.00000000000E+00 0.  1.
<mgrwt>
<rscale>  4 0.25522210E+03</rscale>
<asrwt>0</asrwt>
<pdfrwt beam="1">  1       21 0.70927286E-02 0.25522210E+03</pdfrwt>
<pdfrwt beam="2">  1       21 0.20934024E+00 0.25522210E+03</pdfrwt>
<totfact> 0.16566450E+04</totfact>
</mgrwt>
</event>
<event>
 5    0  0.1781295E-001  0.2406129E+03  0.7546771E-02  0.1119385E+00
         21   -1    0    0  501  502  0.00000000000E+00  0.00000000000E+00  0.86083080538E+03  0.86083080538E+03  0.00000000000E+00 0.  1.
         21   -1    0    0  502  503 -0.00000000000E+00 -0.00000000000E+00 -0.60695745844E+02  0.60695745844E+02  0.00000000000E+00 0.  1.
         25    1    1    2    0    0 -0.64695770729E+02  0.19515125953E+03  0.34758969888E+03  0.42274478781E+03  0.12500000000E+03 0.  0.
          1    1    1    2  501    0  0.46798761745E+02 -0.17490810056E+03  0.36998767713E+03  0.41191485646E+03  0.00000000000E+00 0.  1.
         -1    1    1    2    0  503  0.17897008984E+02 -0.20243158971E+02  0.82557683528E+02  0.86866906962E+02  0.00000000000E+00 0. -1.
<mgrwt>
<rscale>  4 0.24061288E+03</rscale>
<asrwt>0</asrwt>
<pdfrwt beam="1">  1       21 0.13243550E+00 0.24061288E+03</pdfrwt>
<pdfrwt beam="2">  1       21 0.93378077E-02 0.24061288E+03</pdfrwt>
<totfact> 0.36798716E+04</totfact>
</mgrwt>
</event>
<event>
 5    0  0.1781295E-001  0.2673499E+03  0.7546771E-02  0.1102806E+00
         21   -1    0    0  501  502  0.00000000000E+00  0.00000000000E+00  0.11216312835E+04  0.11216312835E+04  0.00000000000E+00 0. -1.
         21   -1    0    0  502  503 -0.00000000000E+00 -0.00000000000E+00 -0.23623979195E+03  0.23623979195E+03  0.00000000000E+00 0. -1.
         25    1    1    2    0    0  0.33455230760E+03  0.75112127139E+00  0.51730875781E+03  0.62861686393E+03  0.12500000000E+03 0.  0.
          4    1    1    2  501    0 -0.11424754491E+03  0.42342219906E+02  0.46795720537E+03  0.48355900484E+03  0.00000000000E+00 0.  1.
         -4    1    1    2    0  503 -0.22030476270E+03 -0.43093341177E+02 -0.99874471607E+02  0.24569520671E+03  0.00000000000E+00 0. -1.
<mgrwt>
<rscale>  4 0.26734993E+03</rscale>
<asrwt>0</asrwt>
<pdfrwt beam="1">  1       21 0.17255866E+00 0.26734993E+03</pdfrwt>
<pdfrwt beam="2">  1       21 0.36344584E-01 0.26734993E+03</pdfrwt>
<totfact> 0.13988831E+03</totfact>
</mgrwt>
</event>
<event>
 5    0  0.1781295E-001  0.2926540E+03  0.7546771E-02  0.1088972E+00
         21   -1    0    0  501  502  0.00000000000E+00  0.00000000000E+00  0.48729067365E+03  0.48729067365E+03  0.00000000000E+00 0.  1.
         21   -1    0    0  502  503 -0.00000000000E+00 -0.00000000000E+00 -0.32136107125E+03  0.32136107125E+03  0.00000000000E+00 0. -1.
         25    1    1    2    0    0  0.20718073406E+03  0.16461321327E+03  0.35967170009E+03  0.46369181402E+03  0.12500000000E+03 0.  0.
          2    1    1    2  501    0 -0.73103186083E+02 -0.49541383513E+01 -0.75792859861E+02  0.10541905382E+03  0.00000000000E+00 0.  1.
         -2    1    1    2    0  503 -0.13407754798E+03 -0.15965907492E+03 -0.11794923783E+03  0.23954087705E+03  0.00000000000E+00 0. -1.
<mgrwt>
<rscale>  4 0.29265400E+03</rscale>
<asrwt>0</asrwt>
<pdfrwt beam="1">  1       21 0.74967796E-01 0.29265400E+03</pdfrwt>
<pdfrwt beam="2">  1       21 0.49440165E-01 0.29265400E+03</pdfrwt>
<totfact> 0.58303836E+03</totfact>
</mgrwt>
</event>
<event>
 5    0  0.1781295E-001  0.2764000E+03  0.7546771E-02  0.1097672E+00
         21   -1    0    0  501  502  0.00000000000E+00  0.00000000000E+00  0.95911313324E+02  0.95911313324E+02  0.00000000000E+00 0. -1.
         21   -1    0    0  502  503 -0.00000000000E+00 -0.00000000000E+00 -0.77800205523E+03  0.77800205523E+03  0.00000000000E+00 0. -1.
         25    1    1    2    0    0  0.18825910416E+03  0.15915547973E+03 -0.25266560013E+03  0.37448212576E+03  0.12500000000E+03 0.  0.
          3    1    1    2  501    0 -0.88368162791E+02 -0.42322089343E+02 -0.20750511130E+03  0.22947431808E+03  0.00000000000E+00 0. -1.
         -3    1    1    2    0  503 -0.99890941366E+02 -0.11683339038E+03 -0.22192003047E+03  0.26995692471E+03  0.00000000000E+00 0.  1.
<mgrwt>
<rscale>  4 0.27639999E+03</rscale>
<asrwt>0</asrwt>
<pdfrwt beam="1">  1       21 0.14755587E-01 0.27639999E+03</pdfrwt>
<pdfrwt beam="2">  1       21 0.11969262E+00 0.27639999E+03</pdfrwt>
<totfact> 0.20521162E+04</totfact>
</mgrwt>
</event>
<event>
 5    0  0.1781295E-001  0.2151147E+03  0.7546771E-02  0.1137579E+00
         21   -1    0    0  501  502  0.00000000000E+00  0.00000000000E+00  0.47444230074E+02  0.47444230074E+02  0.00000000000E+00 0. -1.
         21   -1    0    0  502  503 -0.00000000000E+00 -0.00000000000E+00 -0.19677698735E+04  0.19677698735E+04  0.00000000000E+00 0.  1.
         25    1    1    2    0    0 -0.17238330291E+03 -0.11550549047E+03 -0.35559936538E+03  0.43027134475E+03  0.12500000000E+03 0.  0.
          1    1    1    2  501    0  0.39830932633E+02  0.10098932043E+03 -0.93313568572E+03  0.93942937680E+03  0.00000000000E+00 0.  1.
         -1    1    1    2    0  503  0.13255237028E+03  0.14516170031E+02 -0.63159059229E+03  0.64551338199E+03  0.00000000000E+00 0. -1.
<mgrwt>
<rscale>  4 0.21511470E+03</rscale>
<asrwt>0</asrwt>
<pdfrwt beam="1">  1       21 0.72991118E-02 0.21511470E+03</pdfrwt>
<pdfrwt beam="2">  1       21 0.30273385E+00 0.21511470E+03</pdfrwt>
<totfact> 0.45168767E+03</totfact>
</mgrwt>
</event>
<event>
 5    0  0.1781295E-001  0.2461771E+03  0.7546771E-02  0.1115745E+00
         21   -1    0    0  501  502  0.00000000000E+00  0.00000000000E+00  0.81172894407E+02  0.81172894407E+02  0.00000000000E+00 0. -1.
         21   -1    0    0  502  503 -0.00000000000E+00 -0.00000000000E+00 -0.80013826952E+03  0.80013826952E+03  0.00000000000E+00 0. -1.
         25    1    1    2    0    0  0.15270409992E+03 -0.15989923745E+03 -0.36150080666E+03  0.44180781058E+03  0.12500000000E+03 0.  0.
          1    1    1    2  501    0 -0.12438652233E+03  0.16472981703E+03 -0.35502796645E+03  0.41067356443E+03  0.00000000000E+00 0. -1.
         -1    1    1    2    0  503 -0.28317577593E+02 -0.48305795850E+01 -0.24366019993E+01  0.28829788920E+02  0.00000000000E+00 0.  1.
<mgrwt>
<rscale>  4 0.24617708E+03</rscale>
<asrwt>0</asrwt>
<pdfrwt beam="1">  1       21 0.12488138E-01 0.24617708E+03</pdfrwt>
<pdfrwt beam="2">  1       21 0.12309819E+00 0.24617708E+03</pdfrwt>
<totfact> 0.26283545E+04</totfact>
</mgrwt>
</event>
<event>
 5    0  0.1781295E-001  0.4208644E+03  0.7546771E-02  0.1037964E+00
         21   -1    0    0  501  502  0.00000000000E+00  0.00000000000E+00  0.71321632568E+03  0.71321632568E+03  0.00000000000E+00 0.  1.
         21   -1    0    0  502  503 -0.00000000000E+00 -0.00000000000E+00 -0.80145127796E+03  0.80145127796E+03  0.00000000000E+00 0. -1.
         25    1    1    2    0    0  0.14936400918E+03 -0.35692243018E+03  0.58995495574E+03  0.71650197363E+03  0.12500000000E+03 0.  0.
          4    1    1    2  501    0 -0.86953343310E+02  0.79577717881E+02 -0.31906914980E+03  0.34014499769E+03  0.00000000000E+00 0.  1.
         -4    1    1    2    0  503 -0.62410665870E+02  0.27734471230E+03 -0.35912075821E+03  0.45802063232E+03  0.00000000000E+00 0. -1.
<mgrwt>
<rscale>  4 0.41725351E+03</rscale>
<asrwt>0</asrwt>
<pdfrwt beam="1">  1       21 0.10972559E+00 0.42086437E+03</pdfrwt>
<pdfrwt beam="2">  1       21 0.12330020E+00 0.42086437E+03</pdfrwt>
<totfact> 0.27115879E+02</totfact>
</mgrwt>
</event>
<event>
 5    0  0.1781295E-001  0.2309797E+03  0.7546771E-02  0.1125952E+00
         21   -1    0    0  501  502  0.00000000000E+00  0.00000000000E+00  0.46053947660E+03  0.46053947660E+03  0.00000000000E+00 0.  1.
         21   -1    0    0  502  503 -0.00000000000E+00 -0.00000000000E+00 -0.24594162644E+03  0.24594162644E+03  0.00000000000E+00 0.  1.
         25    1    1    2    0    0 -0.18285799287E+03 -0.19046761417E+03  0.18493174793E+03  0.34574515036E+03  0.12500000000E+03 0.  0.
          3    1    1    2  501    0  0.12906856977E+03  0.98055115780E+02  0.13477179323E+03  0.21080070608E+03  0.00000000000E+00 0. -1.
         -3    1    1    2    0  503  0.53789423102E+02  0.92412498386E+02 -0.10510569100E+03  0.14993524661E+03  0.00000000000E+00 0.  1.
<mgrwt>
<rscale>  4 0.23097970E+03</rscale>
<asrwt>0</asrwt>
<pdfrwt beam="1">  1       21 0.70852227E-01 0.23097970E+03</pdfrwt>
<pdfrwt beam="2">  1       21 0.37837173E-01 0.23097970E+03</pdfrwt>
<totfact> 0.11861397E+04</totfact>
</mgrwt>
</event>
<event>
 5    0  0.1781295E-001  0.4005137E+03  0.7546771E-02  0.1043602E+00
         21   -1    0    0  501  502  0.00000000000E+00  0.00000000000E+00  0.40195017489E+03  0.40195017489E+03  0.00000000000E+00 0.  1.
         21   -1    0    0  502  503 -0.00000000000E+00 -0.00000000000E+00 -0.18443611036E+04  0.18443611036E+04  0.00000000000E+00 0. -1.
         25    1    1    2    0    0 -0.31633889407E+03 -0.21146147377E+03  0.27504655015E+03  0.48586197169E+03  0.12500000000E+03 0.  0.
          1    1    1    2  501    0  0.24727781845E+03  0.19568584025E+03 -0.13663276257E+04  0.14022447890E+04  0.00000000000E+00 0. -1.
         -1    1    1    2    0  503  0.69061075620E+02  0.15775633521E+02 -0.35112985317E+03  0.35820451779E+03  0.00000000000E+00 0.  1.
<mgrwt>
<rscale>  4 0.40051373E+03</rscale>
<asrwt>0</asrwt>
<pdfrwt beam="1">  1       21 0.61838488E-01 0.40051373E+03</pdfrwt>
<pdfrwt beam="2">  1       21 0.28374786E+00 0.40051373E+03</pdfrwt>
<totfact> 0.82242476E+01</totfact>
</mgrwt>
</event>
<event>
 5    0  0.1781295E-001  0.2402402E+03  0.7546771E-02  0.1119633E+00
         21   -1    0    0  501  502  0.00000000000E+00  0.00000000000E+00  0.46620112161E+03  0.46620112161E+03  0.00000000000E+00 0.  1.
         21   -1    0    0  502  503 -0.00000000000E+00 -0.00000000000E+00 -0.12279862387E+03  0.12279862387E+03  0.00000000000E+00 0.  1.
         25    1    1    2    0    0 -0.75841484013E+02 -0.19062639577E+03  0.10321038883E+03  0.26147225058E+03  0.12500000000E+03 0.  0.
          4    1    1    2  501    0  0.67410147426E+02  0.56198488525E+02  0.87779449389E+02  0.12412747409E+03  0.00000000000E+00 0. -1.
         -4    1    1    2    0  503  0.84313365870E+01  0.13442790724E+03  0.15241265952E+03  0.20340002081E+03  0.00000000000E+00 0.  1.
<mgrwt>
<rscale>  4 0.24024020E+03</rscale>
<asrwt>0</asrwt>
<pdfrwt beam="1">  1       21 0.71723249E-01 0.24024020E+03</pdfrwt>
<pdfrwt beam="2">  1       21 0.18892096E-01 0.24024020E+03</pdfrwt>
<totfact> 0.44066208E+04</totfact>
</mgrwt>
</event>
<event>
 5    0  0.1781295E-001  0.2677710E+03  0.7546771E-02  0.1102562E+00
         21   -1    0    0  501  502  0.00000000000E+00  0.00000000000E+00  0.92162796921E+02  0.92162796921E+02  0.00000000000E+00 0. -1.
         21   -1    0    0  502  503 -0.00000000000E+00 -0.00000000000E+00 -0.80756581666E+03  0.80756581666E+03  0.00000000000E+00 0. -1.
         25    1    1    2    0    0  0.26043798327E+02  0.24894325996E+03 -0.38977260343E+03  0.47979027553E+03  0.12500000000E+03 0.  0.
          1    1    1    2  501    0 -0.28596021306E+01 -0.22618791570E+03 -0.31034740842E+03  0.38403732168E+03  0.00000000000E+00 0. -1.
         -1    1    1    2    0  503 -0.23184196197E+02 -0.22755344263E+02 -0.15283007897E+02  0.35901016367E+02  0.00000000000E+00 0.  1.
<mgrwt>
<rscale>  4 0.26777098E+03</rscale>
<asrwt>0</asrwt>
<pdfrwt beam="1">  1       21 0.14178892E-01 0.26777098E+03</pdfrwt>
<pdfrwt beam="2">  1       21 0.12424090E+00 0.26777098E+03</pdfrwt>
<totfact> 0.20177813E+04</totfact>
</mgrwt>
</event>
<event>
 5    0  0.1781295E-001  0.3624385E+03  0.7546771E-02  0.1057622E+00
         21   -1    0    0  501  502  0.00000000000E+00  0.00000000000E+00  0.23346407899E+03  0.23346407899E+03  0.00000000000E+00 0.  1.
         21   -1    0    0  502  503 -0.00000000000E+00 -0.00000000000E+00 -0.66286672755E+03  0.66286672755E+03  0.00000000000E+00 0.  1.
         25    1    1    2    0    0 -0.14120660235E+02  0.33990778700E+03 -0.32942630833E+02  0.36393256742E+03  0.12500000000E+03 0.  0.
          2    1    1    2  501    0 -0.13684606710E+02 -0.21259956846E+03 -0.30951307086E+03  0.37574484162E+03  0.00000000000E+00 0.  1.
         -2    1    1    2    0  503  0.27805266945E+02 -0.12730821854E+03 -0.86946946873E+02  0.15665339750E+03  0.00000000000E+00 0. -1.
<mgrwt>
<rscale>  4 0.36243854E+03</rscale>
<asrwt>0</asrwt>
<pdfrwt beam="1">  1       21 0.35917551E-01 0.36243854E+03</pdfrwt>
<pdfrwt beam="2">  1       21 0.10197950E+00 0.36243854E+03</pdfrwt>
<totfact> 0.53151620E+03</totfact>
</mgrwt>
</event>
<event>
 5    0  0.1781295E-001  0.2450133E+03  0.7546771E-02  0.1116497E+00
         21   -1    0    0  501  502  0.00000000000E+00  0.00000000000E+00  0.21962397985E+04  0.21962397985E+04  0.00000000000E+00 0.  1.
         21   -1    0    0  502  503 -0.00000000000E+00 -0.00000000000E+00 -0.48173107040E+02  0.48173107040E+02  0.00000000000E+00 0.  1.
         25    1    1    2    0    0  0.36015785635E+02 -0.28014617760E+03  0.76388391261E+03  0.82396762654E+03  0.12500000000E+03 0.  0.
          3    1    1    2  501    0  0.27863015775E+02  0.98516850102E+02  0.25192008760E+03  0.27192949074E+03  0.00000000000E+00 0.  1.
         -3    1    1    2    0  503 -0.63878801411E+02  0.18162932749E+03  0.11322626913E+04  0.11485157883E+04  0.00000000000E+00 0. -1.
<mgrwt>
<rscale>  4 0.24501328E+03</rscale>
<asrwt>0</asrwt>
<pdfrwt beam="1">  1       21 0.33788297E+00 0.24501328E+03</pdfrwt>
<pdfrwt beam="2">  1       21 0.74112489E-02 0.24501328E+03</pdfrwt>
<totfact> 0.26549492E+03</totfact>
</mgrwt>
</event>
<event>
 5    0  0.1781295E-001  0.3792203E+03  0.7546771E-02  0.1051222E+00
         21   -1    0    0  501  502  0.00000000000E+00  0.00000000000E+00  0.58437065422E+03  0.58437065422E+03  0.00000000000E+00 0.  1.
         21   -1    0    0  502  503 -0.00000000000E+00 -0.00000000000E+00 -0.92201592000E+03  0.92201592000E+03  0.00000000000E+00 0. -1.
         25    1    1    2    0    0  0.33310983876E+03  0.14366433655E+03  0.44329191589E+03  0.58628860552E+03  0.12500000000E+03 0.  0.
          4    1    1    2  501    0 -0.97779845282E+02  0.92945040500E+02 -0.12389300307E+03  0.18316428393E+03  0.00000000000E+00 0.  1.
         -4    1    1    2    0  503 -0.23532999347E+03 -0.23660937705E+03 -0.65704417859E+03  0.73693368478E+03  0.00000000000E+00 0. -1.
<mgrwt>
<rscale>  4 0.37922031E+03</rscale>
<asrwt>0</asrwt>
<pdfrwt beam="1">  1       21 0.89903178E-01 0.37922031E+03</pdfrwt>
<pdfrwt beam="2">  1       21 0.14184860E+00 0.37922031E+03</pdfrwt>
<totfact> 0.31206817E+02</totfact>
</mgrwt>
</event>
<event>
 5    0  0.1781295E-001  0.2543090E+03  0.7546771E-02  0.1110612E+00
         21   -1    0    0  501  502  0.00000000000E+00  0.00000000000E+00  0.13116052890E+04  0.13116052890E+04  0.00000000000E+00 0.  1.
         21   -1    0    0  502  503 -0.00000000000E+00 -0.00000000000E+00 -0.68424238965E+02  0.68424238965E+02  0.00000000000E+00 0.  1.
         25    1    1    2    0    0  0.21682677331E+03  0.45102203232E+02  0.10597661075E+04  0.10898519446E+04  0.12500000000E+03 0.  0.
          1    1    1    2  501    0 -0.18675578671E+03 -0.50609650139E+02  0.14950585284E+03  0.24452210654E+03  0.00000000000E+00 0.  1.
         -1    1    1    2    0  503 -0.30070986607E+02  0.55074469074E+01  0.33909089680E+02  0.45655476888E+02  0.00000000000E+00 0. -1.
<mgrwt>
<rscale>  4 0.25430898E+03</rscale>
<asrwt>0</asrwt>
<pdfrwt beam="1">  1       21 0.20178541E+00 0.25430898E+03</pdfrwt>
<pdfrwt beam="2">  1       21 0.10526807E-01 0.25430898E+03</pdfrwt>
<totfact> 0.92467285E+03</totfact>
</mgrwt>
</event>
<event>
 5    0  0.1781295E-001  0.4118967E+03  0.7546771E-02  0.1039736E+00
         21   -1    0    0  501  502  0.00000000000E+00  0.00000000000E+00  0.79584479883E+03  0.79584479883E+03  0.00000000000E+00 0.  1.
         21   -1    0    0  502  503 -0.00000000000E+00 -0.00000000000E+00 -0.35767425825E+03  0.35767425825E+03  0.00000000000E+00 0. -1.
         25    1    1    2    0    0  0.11389979066E+03 -0.35544412134E+03  0.46006722625E+03  0.60547546472E+03  0.12500000000E+03 0.  0.
          4    1    1    2  501    0 -0.94236093538E+02  0.44213084218E+03  0.13755544244E+02  0.45227131008E+03  0.00000000000E+00 0. -1.
         -4    1    1    2    0  503 -0.19663697127E+02 -0.86686720838E+02 -0.35652229909E+02  0.95772282273E+02  0.00000000000E+00 0.  1.
<mgrwt>
<rscale>  4 0.41189670E+03</rscale>
<asrwt>0</asrwt>
<pdfrwt beam="1">  1       21 0.12243766E+00 0.41189670E+03</pdfrwt>
<pdfrwt beam="2">  1       21 0.55026809E-01 0.41189670E+03</pdfrwt>
<totfact> 0.13574462E+03</totfact>
</mgrwt>
</event>
<event>
 5    0  0.1781295E-001  0.2390592E+03  0.7546771E-02  0.1120421E+00
         21   -1    0    0  501  502  0.00000000000E+00  0.00000000000E+00  0.16198200492E+03  0.16198200492E+03  0.00000000000E+00 0. -1.
         21   -1    0    0  502  503 -0.00000000000E+00 -0.00000000000E+00 -0.31549330024E+03  0.31549330024E+03  0.00000000000E+00 0. -1.
         25    1    1    2    0    0 -0.18200572277E+03  0.91641723540E+02 -0.51541063582E+02  0.24455218226E+03  0.12500000000E+03 0.  0.
          2    1    1    2  501    0  0.39663714695E+02 -0.11046242027E+01 -0.10591939459E+02  0.41068475008E+02  0.00000000000E+00 0.  1.
         -2    1    1    2    0  503  0.14234200807E+03 -0.90537099337E+02 -0.91378292273E+02  0.19185464789E+03  0.00000000000E+00 0. -1.
<mgrwt>
<rscale>  4 0.23905917E+03</rscale>
<asrwt>0</asrwt>
<pdfrwt beam="1">  1       21 0.24920309E-01 0.23905917E+03</pdfrwt>
<pdfrwt beam="2">  1       21 0.48537430E-01 0.23905917E+03</pdfrwt>
<totfact> 0.60536298E+04</totfact>
</mgrwt>
</event>
<event>
 5    0  0.1781295E-001  0.2359417E+03  0.7546771E-02  0.1122526E+00
         21   -1    0    0  501  502  0.00000000000E+00  0.00000000000E+00  0.90893423527E+03  0.90893423527E+03  0.00000000000E+00 0. -1.
         21   -1    0    0  502  503 -0.00000000000E+00 -0.00000000000E+00 -0.28025159349E+03  0.28025159349E+03  0.00000000000E+00 0. -1.
         25    1    1    2    0    0  0.12913591911E+03 -0.15669889101E+03 -0.21095953657E+03  0.31837015268E+03  0.12500000000E+03 0.  0.
          4    1    1    2  501    0 -0.37328365673E+01  0.37439597519E+02  0.33951975318E+03  0.34159818549E+03  0.00000000000E+00 0. -1.
         -4    1    1    2    0  503 -0.12540308254E+03  0.11925929349E+03  0.50012242517E+03  0.52921749059E+03  0.00000000000E+00 0.  1.
<mgrwt>
<rscale>  4 0.23594170E+03</rscale>
<asrwt>0</asrwt>
<pdfrwt beam="1">  1       21 0.13983603E+00 0.23594170E+03</pdfrwt>
<pdfrwt beam="2">  1       21 0.43115630E-01 0.23594170E+03</pdfrwt>
<totfact> 0.17864570E+03</totfact>
</mgrwt>
</event>
<event>
 5    0  0.1781295E-001  0.3077385E+03  0.7546771E-02  0.1081435E+00
         21   -1    0    0  501  502  0.00000000000E+00  0.00000000000E+00  0.13083109448E+03  0.13083109448E+03  0.00000000000E+00 0.  1.
         21   -1    0    0  502  503 -0.00000000000E+00 -0.00000000000E+00 -0.12340410665E+04  0.12340410665E+04  0.00000000000E+00 0.  1.
         25    1    1    2    0    0 -0.56688990214E+02  0.35483687189E+03 -0.60844684087E+03  0.71760393354E+03  0.12500000000E+03 0.  0.
          1    1    1    2  501    0  0.11361862565E+03 -0.21134980632E+03 -0.39904149402E+03  0.46563080512E+03  0.00000000000E+00 0.  1.
         -1    1    1    2    0  503 -0.56929635438E+02 -0.14348706556E+03 -0.95721637132E+02  0.18163742233E+03  0.00000000000E+00 0. -1.
<mgrwt>
<rscale>  4 0.30773854E+03</rscale>
<asrwt>0</asrwt>
<pdfrwt beam="1">  1       21 0.20127861E-01 0.30773854E+03</pdfrwt>
<pdfrwt beam="2">  1       21 0.18985247E+00 0.30773854E+03</pdfrwt>
<totfact> 0.32667120E+03</totfact>
</mgrwt>
</event>
<event>
 5    0  0.1781295E-001  0.3998211E+03  0.7546771E-02  0.1045710E+00
         21   -1    0    0  501  502  0.00000000000E+00  0.00000000000E+00  0.41817609998E+03  0.41817609998E+03  0.00000000000E+00 0. -1.
         21   -1    0    0  502  503 -0.00000000000E+00 -0.00000000000E+00 -0.42817666374E+03  0.42817666374E+03  0.00000000000E+00 0. -1.
         25    1    1    2    0    0  0.30531782606E+03  0.18624805419E+03 -0.17058335006E+03  0.41548885896E+03  0.12500000000E+03 0.  0.
          1    1    1    2  501    0 -0.12765805364E+03 -0.14618486969E+03  0.15546943800E+03  0.24867115019E+03  0.00000000000E+00 0.  1.
         -1    1    1    2    0  503 -0.17765977242E+03 -0.40063184492E+02  0.51133483024E+01  0.18219275458E+03  0.00000000000E+00 0. -1.
<mgrwt>
<rscale>  4 0.39447361E+03</rscale>
<asrwt>0</asrwt>
<pdfrwt beam="1">  1       21 0.64334785E-01 0.39982105E+03</pdfrwt>
<pdfrwt beam="2">  1       21 0.65873332E-01 0.39982105E+03</pdfrwt>
<totfact> 0.42117249E+03</totfact>
</mgrwt>
</event>
<event>
 5    0  0.1781295E-001  0.2384416E+03  0.7546771E-02  0.1120835E+00
         21   -1    0    0  501  502  0.00000000000E+00  0.00000000000E+00  0.11953717398E+03  0.11953717398E+03  0.00000000000E+00 0. -1.
         21   -1    0    0  502  503 -0.00000000000E+00 -0.00000000000E+00 -0.12220491514E+04  0.12220491514E+04  0.00000000000E+00 0. -1.
         25    1    1    2    0    0  0.19225775890E+03  0.65317183852E+02 -0.11076690041E+04  0.11330423659E+04  0.12500000000E+03 0.  0.
          4    1    1    2  501    0 -0.90212854367E+02 -0.52455305070E+02  0.14102685308E+02  0.10530338958E+03  0.00000000000E+00 0. -1.
         -4    1    1    2    0  503 -0.10204490453E+03 -0.12861878782E+02 -0.89456586630E+01  0.10324056991E+03  0.00000000000E+00 0.  1.
<mgrwt>
<rscale>  4 0.23844157E+03</rscale>
<asrwt>0</asrwt>
<pdfrwt beam="1">  1       21 0.18390336E-01 0.23844157E+03</pdfrwt>
<pdfrwt beam="2">  1       21 0.18800754E+00 0.23844157E+03</pdfrwt>
<totfact> 0.41720877E+03</totfact>
</mgrwt>
</event>
<event>
 5    0  0.1781295E-001  0.3715857E+03  0.7546771E-02  0.1054088E+00
         21   -1    0    0  501  502  0.00000000000E+00  0.00000000000E+00  0.16874797726E+03  0.16874797726E+03  0.00000000000E+00 0.  1.
         21   -1    0    0  502  503 -0.00000000000E+00 -0.00000000000E+00 -0.10224023299E+04  0.10224023299E+04  0.00000000000E+00 0.  1.
         25    1    1    2    0    0  0.65655557500E+02  0.34371540985E+03 -0.14806167403E+03  0.39999774314E+03  0.12500000000E+03 0.  0.
          2    1    1    2  501    0 -0.25322846440E+02 -0.28952119281E+02 -0.52912288744E+02  0.65415457369E+02  0.00000000000E+00 0. -1.
         -2    1    1    2    0  503 -0.40332711059E+02 -0.31476329057E+03 -0.65268038984E+03  0.72573710664E+03  0.00000000000E+00 0.  1.
<mgrwt>
<rscale>  4 0.37158570E+03</rscale>
<asrwt>0</asrwt>
<pdfrwt beam="1">  1       21 0.25961227E-01 0.37158570E+03</pdfrwt>
<pdfrwt beam="2">  1       21 0.15729267E+00 0.37158570E+03</pdfrwt>
<totfact> 0.33098774E+03</totfact>
</mgrwt>
</event>
<event>
 5    0  0.1781295E-001  0.2788089E+03  0.7546771E-02  0.1096341E+00
         21   -1    0    0  501  502  0.00000000000E+00  0.00000000000E+00  0.20489850900E+03  0.20489850900E+03  0.00000000000E+00 0. -1.
         21   -1    0    0  502  503 -0.00000000000E+00 -0.00000000000E+00 -0.39930641656E+03  0.39930641656E+03  0.00000000000E+00 0. -1.
         25    1    1    2    0    0  0.63109376442E+02 -0.24109463062E+03 -0.21038061783E+03  0.34927699418E+03  0.12500000000E+03 0.  0.
          1    1    1    2  501    0 -0.42461915809E+02  0.68714758962E+02  0.29895623150E+01  0.80831119479E+02  0.00000000000E+00 0.  1.
         -1    1    1    2    0  503 -0.20647460633E+02  0.17237987166E+03  0.12983147950E+02  0.17409681190E+03  0.00000000000E+00 0. -1.
<mgrwt>
<rscale>  4 0.27880892E+03</rscale>
<asrwt>0</asrwt>
<pdfrwt beam="1">  1       21 0.31522848E-01 0.27880892E+03</pdfrwt>
<pdfrwt beam="2">  1       21 0.61431755E-01 0.27880892E+03</pdfrwt>
<totfact> 0.22817112E+04</totfact>
</mgrwt>
</event>
<event>
 5    0  0.1781295E-001  0.3392359E+03  0.7546771E-02  0.1067122E+00
         21   -1    0    0  501  502  0.00000000000E+00  0.00000000000E+00  0.22632837250E+03  0.22632837250E+03  0.00000000000E+00 0.  1.
         21   -1    0    0  502  503 -0.00000000000E+00 -0.00000000000E+00 -0.53786750833E+03  0.53786750833E+03  0.00000000000E+00 0.  1.
         25    1    1    2    0    0  0.12833698278E+03 -0.28807228413E+03 -0.27793192322E+03  0.43855122389E+03  0.12500000000E+03 0.  0.
          4    1    1    2  501    0 -0.11916045692E+02  0.32245351326E+02  0.19614128220E+02  0.39578641373E+02  0.00000000000E+00 0. -1.
         -4    1    1    2    0  503 -0.11642093709E+03  0.25582693280E+03 -0.53221340825E+02  0.28606601556E+03  0.00000000000E+00 0.  1.
<mgrwt>
<rscale>  4 0.33923594E+03</rscale>
<asrwt>0</asrwt>
<pdfrwt beam="1">  1       21 0.34819750E-01 0.33923594E+03</pdfrwt>
<pdfrwt beam="2">  1       21 0.82748847E-01 0.33923594E+03</pdfrwt>
<totfact> 0.93643633E+03</totfact>
</mgrwt>
</event>
<event>
 5    0  0.1781295E-001  0.3121352E+03  0.7546771E-02  0.1079327E+00
         21   -1    0    0  501  502  0.00000000000E+00  0.00000000000E+00  0.42262511015E+03  0.42262511015E+03  0.00000000000E+00 0. -1.
         21   -1    0    0  502  503 -0.00000000000E+00 -0.00000000000E+00 -0.33022899268E+03  0.33022899268E+03  0.00000000000E+00 0. -1.
         25    1    1    2    0    0 -0.21224249073E+03 -0.19171994869E+03 -0.17483377209E+03  0.35776425403E+03  0.12500000000E+03 0.  0.
          2    1    1    2  501    0  0.16976816801E+03  0.15251590484E+03  0.18099729707E+03  0.29127710800E+03  0.00000000000E+00 0. -1.
         -2    1    1    2    0  503  0.42474322723E+02  0.39204043844E+02  0.86232592492E+02  0.10381274080E+03  0.00000000000E+00 0.  1.
<mgrwt>
<rscale>  4 0.31213525E+03</rscale>
<asrwt>0</asrwt>
<pdfrwt beam="1">  1       21 0.65019248E-01 0.31213525E+03</pdfrwt>
<pdfrwt beam="2">  1       21 0.50804460E-01 0.31213525E+03</pdfrwt>
<totfact> 0.74916122E+03</totfact>
</mgrwt>
</event>
<event>
 5    0  0.1781295E-001  0.2839724E+03  0.7546771E-02  0.1093539E+00
         21   -1    0    0  501  502  0.00000000000E+00  0.00000000000E+00  0.36463069810E+03  0.36463069810E+03  0.00000000000E+00 0. -1.
         21   -1    0    0  502  503 -0.00000000000E+00 -0.00000000000E+00 -0.39436605203E+03  0.39436605203E+03  0.00000000000E+00 0.  1.
         25    1    1    2    0    0  0.28362055308E+02  0.19946163326E+03  0.20973804139E+03  0.31655077844E+03  0.12500000000E+03 0.  0.
          1    1    1    2  501    0  0.51637935755E+02  0.55566800039E+02  0.10386917518E+02  0.76563919251E+02  0.00000000000E+00 0. -1.
         -1    1    1    2    0  503 -0.79999991063E+02 -0.25502843330E+03 -0.24986031285E+03  0.36588205244E+03  0.00000000000E+00 0.  1.
<mgrwt>
<rscale>  4 0.28397244E+03</rscale>
<asrwt>0</asrwt>
<pdfrwt beam="1">  1       21 0.56097030E-01 0.28397244E+03</pdfrwt>
<pdfrwt beam="2">  1       21 0.60671701E-01 0.28397244E+03</pdfrwt>
<totfact> 0.71542711E+03</totfact>
</mgrwt>
</event>
<event>
 5    0  0.1781295E-001  0.2262565E+03  0.7546771E-02  0.1129303E+00
         21   -1    0    0  501  502  0.00000000000E+00  0.00000000000E+00  0.89028235752E+03  0.89028235752E+03  0.00000000000E+00 0. -1.
         21   -1    0    0  502  503 -0.00000000000E+00 -0.00000000000E+00 -0.93673327998E+02  0.93673327998E+02  0.00000000000E+00 0. -1.
         25    1    1    2    0    0  0.31456192085E+02  0.23294880075E+03  0.26806559347E+03  0.37780788530E+03  0.12500000000E+03 0.  0.
          1    1    1    2  501    0  0.87142695108E+01 -0.61258420873E+02  0.15696639473E+02  0.63835077440E+02  0.00000000000E+00 0. -1.
         -1    1    1    2    0  503 -0.40170461596E+02 -0.17169037988E+03  0.51284679658E+03  0.54231272278E+03  0.00000000000E+00 0.  1.
<mgrwt>
<rscale>  4 0.22625654E+03</rscale>
<asrwt>0</asrwt>
<pdfrwt beam="1">  1       21 0.13696651E+00 0.22625654E+03</pdfrwt>
<pdfrwt beam="2">  1       21 0.14411282E-01 0.22625654E+03</pdfrwt>
<totfact> 0.15625386E+04</totfact>
</mgrwt>
</event>
<event>
 5    0  0.1781295E-001  0.2904821E+03  0.7546771E-02  0.1090098E+00
         21   -1    0    0  501  502  0.00000000000E+00  0.00000000000E+00  0.23383511752E+03  0.23383511752E+03  0.00000000000E+00 0. -1.
         21   -1    0    0  502  503 -0.00000000000E+00 -0.00000000000E+00 -0.36527655344E+03  0.36527655344E+03  0.00000000000E+00 0. -1.
         25    1    1    2    0    0 -0.20776535228E+03 -0.15996372896E+03 -0.10280695071E+03  0.30813812699E+03  0.12500000000E+03 0.  0.
          3    1    1    2  501    0  0.10802551147E+03  0.10180197079E+03 -0.75297002451E+02  0.16644155420E+03  0.00000000000E+00 0.  1.
         -3    1    1    2    0  503  0.99739840809E+02  0.58161758170E+02  0.46662517240E+02  0.12453198976E+03  0.00000000000E+00 0. -1.
<mgrwt>
<rscale>  4 0.29048208E+03</rscale>
<asrwt>0</asrwt>
<pdfrwt beam="1">  1       21 0.35974633E-01 0.29048208E+03</pdfrwt>
<pdfrwt beam="2">  1       21 0.56196393E-01 0.29048208E+03</pdfrwt>
<totfact> 0.21152030E+04</totfact>
</mgrwt>
</event>
<event>
 5    0  0.1781295E-001  0.2533570E+03  0.7546771E-02  0.1111201E+00
         21   -1    0    0  501  502  0.00000000000E+00  0.00000000000E+00  0.45399505300E+03  0.45399505300E+03  0.00000000000E+00 0. -1.
         21   -1    0    0  502  503 -0.00000000000E+00 -0.00000000000E+00 -0.13093181310E+03  0.13093181310E+03  0.00000000000E+00 0. -1.
         25    1    1    2    0    0 -0.97092977628E+02 -0.19783256906E+03  0.18367000207E+03  0.31292881195E+03  0.12500000000E+03 0.  0.
          2    1    1    2  501    0  0.71516911825E+02  0.16815227430E+03  0.76927079231E+02  0.19826152312E+03  0.00000000000E+00 0. -1.
         -2    1    1    2    0  503  0.25576065803E+02  0.29680294762E+02  0.62466158599E+02  0.73736531036E+02  0.00000000000E+00 0.  1.
<mgrwt>
<rscale>  4 0.25335700E+03</rscale>
<asrwt>0</asrwt>
<pdfrwt beam="1">  1       21 0.69845392E-01 0.25335700E+03</pdfrwt>
<pdfrwt beam="2">  1       21 0.20143356E-01 0.25335700E+03</pdfrwt>
<totfact> 0.41222327E+04</totfact>
</mgrwt>
</event>
<event>
 5    0  0.1781295E-001  0.3405283E+03  0.7546771E-02  0.1066837E+00
         21   -1    0    0  501  502  0.00000000000E+00  0.00000000000E+00  0.40961766159E+03  0.40961766159E+03  0.00000000000E+00 0. -1.
         21   -1    0    0  502  503 -0.00000000000E+00 -0.00000000000E+00 -0.28276503758E+03  0.28276503758E+03  0.00000000000E+00 0. -1.
         25    1    1    2    0    0 -0.16693599895E+03  0.26603190770E+03  0.36003599603E+02  0.33994391132E+03  0.12500000000E+03 0.  0.
          1    1    1    2  501    0  0.14840874117E+03 -0.15888556081E+03  0.11297861379E+02  0.21770947972E+03  0.00000000000E+00 0. -1.
         -1    1    1    2    0  503  0.18527257782E+02 -0.10714634688E+03  0.79551163020E+02  0.13472930813E+03  0.00000000000E+00 0.  1.
<mgrwt>
<rscale>  4 0.33990253E+03</rscale>
<asrwt>0</asrwt>
<pdfrwt beam="1">  1       21 0.63018102E-01 0.34052835E+03</pdfrwt>
<pdfrwt beam="2">  1       21 0.43502313E-01 0.34052835E+03</pdfrwt>
<totfact> 0.10971714E+04</totfact>
</mgrwt>
</event>
<event>
 5    0  0.1781295E-001  0.2528174E+03  0.7546771E-02  0.1111537E+00
         21   -1    0    0  501  502  0.00000000000E+00  0.00000000000E+00  0.11262092095E+03  0.11262092095E+03  0.00000000000E+00 0.  1.
         21   -1    0    0  502  503 -0.00000000000E+00 -0.00000000000E+00 -0.10233791912E+04  0.10233791912E+04  0.00000000000E+00 0.  1.
         25    1    1    2    0    0  0.13120818089E+03 -0.17628400012E+03 -0.87293502665E+03  0.90880811846E+03  0.12500000000E+03 0.  0.
          4    1    1    2  501    0 -0.63387709834E+01  0.34434286658E+02 -0.72168759837E+01  0.35748893887E+02  0.00000000000E+00 0. -1.
         -4    1    1    2    0  503 -0.12486940990E+03  0.14184971346E+03 -0.30606367662E+02  0.19144309985E+03  0.00000000000E+00 0.  1.
<mgrwt>
<rscale>  4 0.25281740E+03</rscale>
<asrwt>0</asrwt>
<pdfrwt beam="1">  1       21 0.17326296E-01 0.25281740E+03</pdfrwt>
<pdfrwt beam="2">  1       21 0.15744295E+00 0.25281740E+03</pdfrwt>
<totfact> 0.75834224E+03</totfact>
</mgrwt>
</event>
<event>
 5    0  0.1781295E-001  0.2925068E+03  0.7546771E-02  0.1089048E+00
         21   -1    0    0  501  502  0.00000000000E+00  0.00000000000E+00  0.65356813960E+03  0.65356813960E+03  0.00000000000E+00 0.  1.
         21   -1    0    0  502  503 -0.00000000000E+00 -0.00000000000E+00 -0.23358246655E+03  0.23358246655E+03  0.00000000000E+00 0. -1.
         25    1    1    2    0    0  0.25205090279E+03  0.80034885142E+02  0.51380540001E+03  0.59123280484E+03  0.12500000000E+03 0.  0.
          3    1    1    2  501    0 -0.17658991436E+03 -0.27811123504E+02 -0.98352968035E+02  0.20403618004E+03  0.00000000000E+00 0. -1.
         -3    1    1    2    0  503 -0.75460988422E+02 -0.52223761638E+02  0.45332410708E+01  0.91881621273E+02  0.00000000000E+00 0.  1.
<mgrwt>
<rscale>  4 0.29250682E+03</rscale>
<asrwt>0</asrwt>
<pdfrwt beam="1">  1       21 0.10054894E+00 0.29250682E+03</pdfrwt>
<pdfrwt beam="2">  1       21 0.35935764E-01 0.29250682E+03</pdfrwt>
<totfact> 0.56760816E+03</totfact>
</mgrwt>
</event>
<event>
 5    0  0.1781295E-001  0.3037581E+03  0.7546771E-02  0.1083377E+00
         21   -1    0    0  501  502  0.00000000000E+00  0.00000000000E+00  0.82695779796E+02  0.82695779796E+02  0.00000000000E+00 0. -1.
         21   -1    0    0  502  503 -0.00000000000E+00 -0.00000000000E+00 -0.11136991113E+04  0.11136991113E+04  0.00000000000E+00 0. -1.
         25    1    1    2    0    0 -0.25159396508E+03  0.11551821523E+03 -0.46672135205E+03  0.55686425795E+03  0.12500000000E+03 0.  0.
          3    1    1    2  501    0  0.13093959996E+03 -0.11590107913E+03 -0.39163930671E+03  0.42890510085E+03  0.00000000000E+00 0. -1.
         -3    1    1    2    0  503  0.12065436512E+03  0.38286389246E+00 -0.17264267279E+03  0.21062553234E+03  0.00000000000E+00 0.  1.
<mgrwt>
<rscale>  4 0.30375810E+03</rscale>
<asrwt>0</asrwt>
<pdfrwt beam="1">  1       21 0.12722428E-01 0.30375810E+03</pdfrwt>
<pdfrwt beam="2">  1       21 0.17133832E+00 0.30375810E+03</pdfrwt>
<totfact> 0.10282516E+04</totfact>
</mgrwt>
</event>
<event>
 5    0  0.1781295E-001  0.5531516E+03  0.7546771E-02  0.1000767E+00
         21   -1    0    0  501  502  0.00000000000E+00  0.00000000000E+00  0.10010596120E+04  0.10010596120E+04  0.00000000000E+00 0. -1.
         21   -1    0    0  502  503 -0.00000000000E+00 -0.00000000000E+00 -0.36400146794E+03  0.36400146794E+03  0.00000000000E+00 0. -1.
         25    1    1    2    0    0  0.38613956159E+03  0.41180636716E+03  0.17606907910E+03  0.60441175176E+03  0.12500000000E+03 0.  0.
          2    1    1    2  501    0 -0.45552195785E+02 -0.32933549523E+02  0.15847110140E+03  0.16814491133E+03  0.00000000000E+00 0.  1.
         -2    1    1    2    0  503 -0.34058736580E+03 -0.37887281764E+03  0.30251796351E+03  0.59250441681E+03  0.00000000000E+00 0. -1.
<mgrwt>
<rscale>  4 0.55315161E+03</rscale>
<asrwt>0</asrwt>
<pdfrwt beam="1">  1       21 0.15400917E+00 0.55315161E+03</pdfrwt>
<pdfrwt beam="2">  1       21 0.56000226E-01 0.55315161E+03</pdfrwt>
<totfact> 0.67302003E+02</totfact>
</mgrwt>
</event>
<event>
 5    0  0.1781295E-001  0.3469162E+03  0.7546771E-02  0.1063888E+00
         21   -1    0    0  501  502  0.00000000000E+00  0.00000000000E+00  0.27087606062E+03  0.27087606062E+03  0.00000000000E+00 0.  1.
         21   -1    0    0  502  503 -0.00000000000E+00 -0.00000000000E+00 -0.11064505819E+04  0.11064505819E+04  0.00000000000E+00 0. -1.
         25    1    1    2    0    0  0.32345616866E+03  0.38384724234E+02  0.89105920393E+02  0.36008630236E+03  0.12500000000E+03 0.  0.
          4    1    1    2  501    0 -0.31784879704E+03  0.14118984938E+02 -0.52350435140E+03  0.61260428455E+03  0.00000000000E+00 0. -1.
         -4    1    1    2    0  503 -0.56073716230E+01 -0.52503709171E+02 -0.40117609026E+03  0.40463605559E+03  0.00000000000E+00 0.  1.
<mgrwt>
<rscale>  4 0.34691621E+03</rscale>
<asrwt>0</asrwt>
<pdfrwt beam="1">  1       21 0.41673240E-01 0.34691621E+03</pdfrwt>
<pdfrwt beam="2">  1       21 0.17022317E+00 0.34691621E+03</pdfrwt>
<totfact> 0.10439622E+03</totfact>
</mgrwt>
</event>
<event>
 5    0  0.1781295E-001  0.3315394E+03  0.7546771E-02  0.1070458E+00
         21   -1    0    0  501  502  0.00000000000E+00  0.00000000000E+00  0.44778725992E+03  0.44778725992E+03  0.00000000000E+00 0. -1.
         21   -1    0    0  502  503 -0.00000000000E+00 -0.00000000000E+00 -0.43045521296E+03  0.43045521296E+03  0.00000000000E+00 0. -1.
         25    1    1    2    0    0  0.18078581968E+03  0.24821339343E+03  0.30254008726E+03  0.44883059797E+03  0.12500000000E+03 0.  0.
          3    1    1    2  501    0 -0.12876996069E+03 -0.12771080767E+03 -0.21249232365E+03  0.27936488825E+03  0.00000000000E+00 0. -1.
         -3    1    1    2    0  503 -0.52015858987E+02 -0.12050258575E+03 -0.72715716652E+02  0.15004698667E+03  0.00000000000E+00 0.  1.
<mgrwt>
<rscale>  4 0.33153944E+03</rscale>
<asrwt>0</asrwt>
<pdfrwt beam="1">  1       21 0.68890348E-01 0.33153944E+03</pdfrwt>
<pdfrwt beam="2">  1       21 0.66223879E-01 0.33153944E+03</pdfrwt>
<totfact> 0.36813988E+03</totfact>
</mgrwt>
</event>
<event>
 5    0  0.1781295E-001  0.2993675E+03  0.7546771E-02  0.1085557E+00
         21   -1    0    0  501  502  0.00000000000E+00  0.00000000000E+00  0.24845996949E+03  0.24845996949E+03  0.00000000000E+00 0. -1.
         21   -1    0    0  502  503 -0.00000000000E+00 -0.00000000000E+00 -0.51807982277E+03  0.51807982277E+03  0.00000000000E+00 0. -1.
         25    1    1    2    0    0 -0.31044865943E+03  0.76913811995E+02 -0.15134546040E+03  0.37526597634E+03  0.12500000000E+03 0.  0.
          3    1    1    2  501    0  0.24558171451E+03 -0.12909797142E+00 -0.14765319742E+03  0.28655167401E+03  0.00000000000E+00 0. -1.
         -3    1    1    2    0  503  0.64866944918E+02 -0.76784714023E+02  0.29378804537E+02  0.10472214191E+03  0.00000000000E+00 0.  1.
<mgrwt>
<rscale>  4 0.29936746E+03</rscale>
<asrwt>0</asrwt>
<pdfrwt beam="1">  1       21 0.38224611E-01 0.29936746E+03</pdfrwt>
<pdfrwt beam="2">  1       21 0.79704588E-01 0.29936746E+03</pdfrwt>
<totfact> 0.86025171E+03</totfact>
</mgrwt>
</event>
<event>
 5    0  0.1781295E-001  0.8312023E+03  0.7546771E-02  0.9521503E-01
         21   -1    0    0  501  502  0.00000000000E+00  0.00000000000E+00  0.20352732158E+04  0.20352732158E+04  0.00000000000E+00 0. -1.
         21   -1    0    0  502  503 -0.00000000000E+00 -0.00000000000E+00 -0.33568390865E+03  0.33568390865E+03  0.00000000000E+00 0. -1.
         25    1    1    2    0    0 -0.31651050500E+02 -0.80492302604E+03  0.94853359412E+03  0.12506973439E+04  0.12500000000E+03 0.  0.
          4    1    1    2  501    0  0.63805247791E+02  0.28495502735E+03  0.38651360334E+03  0.48442052271E+03  0.00000000000E+00 0.  1.
         -4    1    1    2    0  503 -0.32154197292E+02  0.51996799869E+03  0.36454210967E+03  0.63583925782E+03  0.00000000000E+00 0. -1.
<mgrwt>
<rscale>  4 0.82716892E+03</rscale>
<asrwt>0</asrwt>
<pdfrwt beam="1">  1       21 0.31311895E+00 0.83120232E+03</pdfrwt>
<pdfrwt beam="2">  1       21 0.51643680E-01 0.83120232E+03</pdfrwt>
<totfact> 0.65450023E+01</totfact>
</mgrwt>
</event>
<event>
 5    0  0.1781295E-001  0.3471336E+03  0.7546771E-02  0.1063798E+00
         21   -1    0    0  501  502  0.00000000000E+00  0.00000000000E+00  0.12618916744E+03  0.12618916744E+03  0.00000000000E+00 0. -1.
         21   -1    0    0  502  503 -0.00000000000E+00 -0.00000000000E+00 -0.17324620294E+04  0.17324620294E+04  0.00000000000E+00 0. -1.
         25    1    1    2    0    0 -0.27842559383E+03  0.19042119898E+03 -0.13115792206E+04  0.13600169470E+04  0.12500000000E+03 0.  0.
          3    1    1    2  501    0  0.26372684433E+03 -0.12986364628E+03 -0.31711270535E+03  0.43240823644E+03  0.00000000000E+00 0.  1.
         -3    1    1    2    0  503  0.14698749499E+02 -0.60557552703E+02  0.22419063939E+02  0.66226013425E+02  0.00000000000E+00 0. -1.
<mgrwt>
<rscale>  4 0.34713359E+03</rscale>
<asrwt>0</asrwt>
<pdfrwt beam="1">  1       21 0.19413719E-01 0.34713359E+03</pdfrwt>
<pdfrwt beam="2">  1       21 0.26653260E+00 0.34713359E+03</pdfrwt>
<totfact> 0.11279648E+03</totfact>
</mgrwt>
</event>
<event>
 5    0  0.1781295E-001  0.2627886E+03  0.7546771E-02  0.1105479E+00
         21   -1    0    0  501  502  0.00000000000E+00  0.00000000000E+00  0.17906237062E+03  0.17906237062E+03  0.00000000000E+00 0. -1.
         21   -1    0    0  502  503 -0.00000000000E+00 -0.00000000000E+00 -0.86874473225E+03  0.86874473225E+03  0.00000000000E+00 0. -1.
         25    1    1    2    0    0 -0.18722150220E+03 -0.20232069968E+03 -0.30961563792E+03  0.43298083058E+03  0.12500000000E+03 0.  0.
          2    1    1    2  501    0  0.18960158969E+03  0.11275460737E+03  0.38137018642E+01  0.22062844018E+03  0.00000000000E+00 0.  1.
         -2    1    1    2    0  503 -0.23800874887E+01  0.89566092306E+02 -0.38388042557E+03  0.39419783212E+03  0.00000000000E+00 0. -1.
<mgrwt>
<rscale>  4 0.26278864E+03</rscale>
<asrwt>0</asrwt>
<pdfrwt beam="1">  1       21 0.27548057E-01 0.26278864E+03</pdfrwt>
<pdfrwt beam="2">  1       21 0.13365304E+00 0.26278864E+03</pdfrwt>
<totfact> 0.48160241E+03</totfact>
</mgrwt>
</event>
<event>
 5    0  0.1781295E-001  0.2948116E+03  0.7546771E-02  0.1087863E+00
         21   -1    0    0  501  502  0.00000000000E+00  0.00000000000E+00  0.30234939986E+03  0.30234939986E+03  0.00000000000E+00 0. -1.
         21   -1    0    0  502  503 -0.00000000000E+00 -0.00000000000E+00 -0.26938879031E+03  0.26938879031E+03  0.00000000000E+00 0.  1.
         25    1    1    2    0    0  0.21935505181E+03 -0.15222437535E+03  0.60053899352E+02  0.30086603336E+03  0.12500000000E+03 0.  0.
          4    1    1    2  501    0 -0.19329037733E+03  0.14517307293E+03 -0.18102661817E+02  0.24241307192E+03  0.00000000000E+00 0.  1.
         -4    1    1    2    0  503 -0.26064674471E+02  0.70513024177E+01 -0.89906279820E+01  0.28459084887E+02  0.00000000000E+00 0. -1.
<mgrwt>
<rscale>  4 0.29481163E+03</rscale>
<asrwt>0</asrwt>
<pdfrwt beam="1">  1       21 0.46515293E-01 0.29481163E+03</pdfrwt>
<pdfrwt beam="2">  1       21 0.41444429E-01 0.29481163E+03</pdfrwt>
<totfact> 0.23624657E+04</totfact>
</mgrwt>
</event>
<event>
 5    0  0.1781295E-001  0.2859080E+03  0.7546771E-02  0.1092505E+00
         21   -1    0    0  501  502  0.00000000000E+00  0.00000000000E+00  0.11455391403E+03  0.11455391403E+03  0.00000000000E+00 0. -1.
         21   -1    0    0  502  503 -0.00000000000E+00 -0.00000000000E+00 -0.91460769031E+03  0.91460769031E+03  0.00000000000E+00 0. -1.
         25    1    1    2    0    0  0.53399365575E+02  0.27069986958E+03 -0.29903943296E+03  0.42565184611E+03  0.12500000000E+03 0.  0.
          1    1    1    2  501    0 -0.76009343380E+02 -0.20906969457E+02 -0.73107670252E+02  0.10751396701E+03  0.00000000000E+00 0.  1.
         -1    1    1    2    0  503  0.22609977805E+02 -0.24979290013E+03 -0.42790667307E+03  0.49599579122E+03  0.00000000000E+00 0. -1.
<mgrwt>
<rscale>  4 0.28590800E+03</rscale>
<asrwt>0</asrwt>
<pdfrwt beam="1">  1       21 0.17623680E-01 0.28590800E+03</pdfrwt>
<pdfrwt beam="2">  1       21 0.14070887E+00 0.28590800E+03</pdfrwt>
<totfact> 0.97244689E+03</totfact>
</mgrwt>
</event>
<event>
 5    0  0.1781295E-001  0.2627203E+03  0.7546771E-02  0.1105520E+00
         21   -1    0    0  501  502  0.00000000000E+00  0.00000000000E+00  0.47345807630E+03  0.47345807630E+03  0.00000000000E+00 0.  1.
         21   -1    0    0  502  503 -0.00000000000E+00 -0.00000000000E+00 -0.13524927020E+03  0.13524927020E+03  0.00000000000E+00 0.  1.
         25    1    1    2    0    0  0.18850290619E+03 -0.13365487103E+03  0.20200337740E+03  0.33140207404E+03  0.12500000000E+03 0.  0.
          2    1    1    2  501    0 -0.43868405705E+02  0.50816782850E+02  0.72660206297E+02  0.98925669153E+02  0.00000000000E+00 0. -1.
         -2    1    1    2    0  503 -0.14463450049E+03  0.82838088183E+02  0.63545222402E+02  0.17837960330E+03  0.00000000000E+00 0.  1.
<mgrwt>
<rscale>  4 0.26272033E+03</rscale>
<asrwt>0</asrwt>
<pdfrwt beam="1">  1       21 0.72839703E-01 0.26272033E+03</pdfrwt>
<pdfrwt beam="2">  1       21 0.20807580E-01 0.26272033E+03</pdfrwt>
<totfact> 0.35177151E+04</totfact>
</mgrwt>
</event>
<event>
 5    0  0.1781295E-001  0.3133489E+03  0.7546771E-02  0.1078752E+00
         21   -1    0    0  501  502  0.00000000000E+00  0.00000000000E+00  0.23556121838E+03  0.23556121838E+03  0.00000000000E+00 0. -1.
         21   -1    0    0  502  503 -0.00000000000E+00 -0.00000000000E+00 -0.40726727841E+03  0.40726727841E+03  0.00000000000E+00 0. -1.
         25    1    1    2    0    0  0.14867264216E+03 -0.24588405712E+03 -0.24045566085E+02  0.31427012795E+03  0.12500000000E+03 0.  0.
          1    1    1    2  501    0 -0.92649768579E+02  0.17170998368E+03 -0.12857406725E+03  0.23366554920E+03  0.00000000000E+00 0. -1.
         -1    1    1    2    0  503 -0.56022873584E+02  0.74174073436E+02 -0.19086426701E+02  0.94892819638E+02  0.00000000000E+00 0.  1.
<mgrwt>
<rscale>  4 0.31334889E+03</rscale>
<asrwt>0</asrwt>
<pdfrwt beam="1">  1       21 0.36240187E-01 0.31334889E+03</pdfrwt>
<pdfrwt beam="2">  1       21 0.62656505E-01 0.31334889E+03</pdfrwt>
<totfact> 0.16312480E+04</totfact>
</mgrwt>
</event>
<event>
 5    0  0.1781295E-001  0.2411969E+03  0.7546771E-02  0.1118998E+00
         21   -1    0    0  501  502  0.00000000000E+00  0.00000000000E+00  0.95611221776E+03  0.95611221776E+03  0.00000000000E+00 0.  1.
         21   -1    0    0  502  503 -0.00000000000E+00 -0.00000000000E+00 -0.16694323452E+03  0.16694323452E+03  0.00000000000E+00 0. -1.
         25    1    1    2    0    0  0.15085957381E+03  0.14068515203E+03  0.86278890265E+03  0.89586863633E+03  0.12500000000E+03 0.  0.
          1    1    1    2  501    0 -0.43697199424E+02 -0.71138631914E+02 -0.49864785994E+02  0.97245293307E+02  0.00000000000E+00 0. -1.
         -1    1    1    2    0  503 -0.10716237438E+03 -0.69546520119E+02 -0.23755133420E+02  0.12994152265E+03  0.00000000000E+00 0.  1.
<mgrwt>
<rscale>  4 0.24119686E+03</rscale>
<asrwt>0</asrwt>
<pdfrwt beam="1">  1       21 0.14709418E+00 0.24119686E+03</pdfrwt>
<pdfrwt beam="2">  1       21 0.25683575E-01 0.24119686E+03</pdfrwt>
<totfact> 0.43572636E+03</totfact>
</mgrwt>
</event>
<event>
 5    0  0.1781295E-001  0.3187905E+03  0.7546771E-02  0.1076207E+00
         21   -1    0    0  501  502  0.00000000000E+00  0.00000000000E+00  0.76390319568E+03  0.76390319568E+03  0.00000000000E+00 0. -1.
         21   -1    0    0  502  503 -0.00000000000E+00 -0.00000000000E+00 -0.12623076962E+04  0.12623076962E+04  0.00000000000E+00 0. -1.
         25    1    1    2    0    0  0.29136370029E+03 -0.33309913721E+02  0.71200411987E+03  0.78011359616E+03  0.12500000000E+03 0.  0.
          4    1    1    2  501    0 -0.26665617207E+03  0.41335155065E+02 -0.10880797327E+04  0.11210404158E+04  0.00000000000E+00 0. -1.
         -4    1    1    2    0  503 -0.24707528214E+02 -0.80252413444E+01 -0.12232888771E+03  0.12505687993E+03  0.00000000000E+00 0.  1.
<mgrwt>
<rscale>  4 0.31879046E+03</rscale>
<asrwt>0</asrwt>
<pdfrwt beam="1">  1       21 0.11752357E+00 0.31879046E+03</pdfrwt>
<pdfrwt beam="2">  1       21 0.19420119E+00 0.31879046E+03</pdfrwt>
<totfact> 0.70527159E+01</totfact>
</mgrwt>
</event>
<event>
 5    0  0.1781295E-001  0.2690155E+03  0.7546771E-02  0.1101844E+00
         21   -1    0    0  501  502  0.00000000000E+00  0.00000000000E+00  0.25452241556E+03  0.25452241556E+03  0.00000000000E+00 0.  1.
         21   -1    0    0  502  503 -0.00000000000E+00 -0.00000000000E+00 -0.26637121594E+03  0.26637121594E+03  0.00000000000E+00 0.  1.
         25    1    1    2    0    0  0.12969568451E+03  0.19980833516E+03 -0.36531486255E+02  0.27148460521E+03  0.12500000000E+03 0.  0.
          1    1    1    2  501    0 -0.36723319808E+02 -0.11668495824E+03  0.24183551398E+02  0.12469493115E+03  0.00000000000E+00 0.  1.
         -1    1    1    2    0  503 -0.92972364698E+02 -0.83123376924E+02  0.49913447028E+00  0.12471409513E+03  0.00000000000E+00 0. -1.
<mgrwt>
<rscale>  4 0.26901550E+03</rscale>
<asrwt>0</asrwt>
<pdfrwt beam="1">  1       21 0.39157295E-01 0.26901550E+03</pdfrwt>
<pdfrwt beam="2">  1       21 0.40980187E-01 0.26901550E+03</pdfrwt>
<totfact> 0.34806872E+04</totfact>
</mgrwt>
</event>
<event>
 5    0  0.1781295E-001  0.2389210E+03  0.7546771E-02  0.1120514E+00
         21   -1    0    0  501  502  0.00000000000E+00  0.00000000000E+00  0.47579245609E+03  0.47579245609E+03  0.00000000000E+00 0. -1.
         21   -1    0    0  502  503 -0.00000000000E+00 -0.00000000000E+00 -0.19349977666E+03  0.19349977666E+03  0.00000000000E+00 0. -1.
         25    1    1    2    0    0 -0.18908465409E+03  0.75533096105E+02  0.36804025820E+03  0.43879025362E+03  0.12500000000E+03 0.  0.
          2    1    1    2  501    0  0.16616252133E+03 -0.39674185830E+02 -0.75218322416E+02  0.18665963822E+03  0.00000000000E+00 0. -1.
         -2    1    1    2    0  503  0.22922132762E+02 -0.35858910276E+02 -0.10529256358E+02  0.43842340904E+02  0.00000000000E+00 0.  1.
<mgrwt>
<rscale>  4 0.23892102E+03</rscale>
<asrwt>0</asrwt>
<pdfrwt beam="1">  1       21 0.73198839E-01 0.23892102E+03</pdfrwt>
<pdfrwt beam="2">  1       21 0.29769197E-01 0.23892102E+03</pdfrwt>
<totfact> 0.17677646E+04</totfact>
</mgrwt>
</event>
<event>
 5    0  0.1781295E-001  0.2062778E+03  0.7546771E-02  0.1144548E+00
         21   -1    0    0  501  502  0.00000000000E+00  0.00000000000E+00  0.13954670202E+04  0.13954670202E+04  0.00000000000E+00 0.  1.
         21   -1    0    0  502  503 -0.00000000000E+00 -0.00000000000E+00 -0.13331268208E+03  0.13331268208E+03  0.00000000000E+00 0. -1.
         25    1    1    2    0    0 -0.65821632688E+02  0.21731212326E+03  0.11172309088E+04  0.11469031998E+04  0.12500000000E+03 0.  0.
          2    1    1    2  501    0  0.11296233414E+03 -0.11595098703E+03 -0.39123407772E+02  0.16654056972E+03  0.00000000000E+00 0. -1.
         -2    1    1    2    0  503 -0.47140701450E+02 -0.10136113624E+03  0.18404683706E+03  0.21533593268E+03  0.00000000000E+00 0.  1.
<mgrwt>
<rscale>  4 0.20627776E+03</rscale>
<asrwt>0</asrwt>
<pdfrwt beam="1">  1       21 0.21468722E+00 0.20627776E+03</pdfrwt>
<pdfrwt beam="2">  1       21 0.20509644E-01 0.20627776E+03</pdfrwt>
<totfact> 0.23558376E+03</totfact>
</mgrwt>
</event>
<event>
 5    0  0.1781295E-001  0.3210056E+03  0.7546771E-02  0.1075187E+00
         21   -1    0    0  501  502  0.00000000000E+00  0.00000000000E+00  0.10269752060E+03  0.10269752060E+03  0.00000000000E+00 0. -1.
         21   -1    0    0  502  503 -0.00000000000E+00 -0.00000000000E+00 -0.96398022719E+03  0.96398022719E+03  0.00000000000E+00 0. -1.
         25    1    1    2    0    0 -0.13292822288E+03 -0.26410164302E+03 -0.36071198457E+03  0.48286408657E+03  0.12500000000E+03 0.  0.
          1    1    1    2  501    0  0.50609250129E+02  0.57795940736E+02 -0.15534954678E+03  0.17330651647E+03  0.00000000000E+00 0.  1.
         -1    1    1    2    0  503  0.82318972752E+02  0.20630570229E+03 -0.34522117523E+03  0.41050714476E+03  0.00000000000E+00 0. -1.
<mgrwt>
<rscale>  4 0.32100559E+03</rscale>
<asrwt>0</asrwt>
<pdfrwt beam="1">  1       21 0.15799618E-01 0.32100559E+03</pdfrwt>
<pdfrwt beam="2">  1       21 0.14830465E+00 0.32100559E+03</pdfrwt>
<totfact> 0.10186844E+04</totfact>
</mgrwt>
</event>
<event>
 5    0  0.1781295E-001  0.2391851E+03  0.7546771E-02  0.1120337E+00
         21   -1    0    0  501  502  0.00000000000E+00  0.00000000000E+00  0.66136632086E+02  0.66136632086E+02  0.00000000000E+00 0.  1.
         21   -1    0    0  502  503 -0.00000000000E+00 -0.00000000000E+00 -0.86300480304E+03  0.86300480304E+03  0.00000000000E+00 0.  1.
         25    1    1    2    0    0 -0.18265538238E+03  0.90672638764E+02 -0.26596800734E+03  0.35769889161E+03  0.12500000000E+03 0.  0.
          1    1    1    2  501    0  0.24234121671E+02 -0.32628906093E+02 -0.74679655988E+02  0.85023462553E+02  0.00000000000E+00 0. -1.
         -1    1    1    2    0  503  0.15842126071E+03 -0.58043732672E+02 -0.45622050762E+03  0.48641908096E+03  0.00000000000E+00 0.  1.
<mgrwt>
<rscale>  4 0.23918511E+03</rscale>
<asrwt>0</asrwt>
<pdfrwt beam="1">  1       21 0.10174867E-01 0.23918511E+03</pdfrwt>
<pdfrwt beam="2">  1       21 0.13276996E+00 0.23918511E+03</pdfrwt>
<totfact> 0.31423608E+04</totfact>
</mgrwt>
</event>
<event>
 5    0  0.1781295E-001  0.3232152E+03  0.7546771E-02  0.1074179E+00
         21   -1    0    0  501  502  0.00000000000E+00  0.00000000000E+00  0.10371090330E+04  0.10371090330E+04  0.00000000000E+00 0. -1.
         21   -1    0    0  502  503 -0.00000000000E+00 -0.00000000000E+00 -0.10437708025E+03  0.10437708025E+03  0.00000000000E+00 0. -1.
         25    1    1    2    0    0 -0.19894809250E+03  0.22195210815E+03  0.57652014491E+03  0.66094141897E+03  0.12500000000E+03 0.  0.
          2    1    1    2  501    0  0.83332998199E+02 -0.35832709269E+02  0.48692337436E+02  0.10295297649E+03  0.00000000000E+00 0.  1.
         -2    1    1    2    0  503  0.11561509430E+03 -0.18611939888E+03  0.30751947040E+03  0.37759171779E+03  0.00000000000E+00 0. -1.
<mgrwt>
<rscale>  4 0.32321523E+03</rscale>
<asrwt>0</asrwt>
<pdfrwt beam="1">  1       21 0.15955523E+00 0.32321523E+03</pdfrwt>
<pdfrwt beam="2">  1       21 0.16058013E-01 0.32321523E+03</pdfrwt>
<totfact> 0.81002074E+03</totfact>
</mgrwt>
</event>
<event>
 5    0  0.1781295E-001  0.2774218E+03  0.7546771E-02  0.1097105E+00
         21   -1    0    0  501  502  0.00000000000E+00  0.00000000000E+00  0.34350094422E+03  0.34350094422E+03  0.00000000000E+00 0. -1.
         21   -1    0    0  502  503 -0.00000000000E+00 -0.00000000000E+00 -0.39054496146E+03  0.39054496146E+03  0.00000000000E+00 0. -1.
         25    1    1    2    0    0 -0.22420613977E+03  0.10521154059E+03  0.21888853916E+03  0.35337664603E+03  0.12500000000E+03 0.  0.
          2    1    1    2  501    0  0.94684590096E+02  0.30620708136E+01 -0.14422120396E+03  0.17255232120E+03  0.00000000000E+00 0.  1.
         -2    1    1    2    0  503  0.12952154968E+03 -0.10827361141E+03 -0.12171135244E+03  0.20811693845E+03  0.00000000000E+00 0. -1.
<mgrwt>
<rscale>  4 0.27742181E+03</rscale>
<asrwt>0</asrwt>
<pdfrwt beam="1">  1       21 0.52846299E-01 0.27742181E+03</pdfrwt>
<pdfrwt beam="2">  1       21 0.60083840E-01 0.27742181E+03</pdfrwt>
<totfact> 0.83264510E+03</totfact>
</mgrwt>
</event>
<event>
 5    0  0.1781295E-001  0.2472307E+03  0.7546771E-02  0.1115068E+00
         21   -1    0    0  501  502  0.00000000000E+00  0.00000000000E+00  0.37502688410E+03  0.37502688410E+03  0.00000000000E+00 0.  1.
         21   -1    0    0  502  503 -0.00000000000E+00 -0.00000000000E+00 -0.48289794150E+03  0.48289794150E+03  0.00000000000E+00 0.  1.
         25    1    1    2    0    0 -0.20023472170E+02  0.21528343329E+03 -0.40665276406E+03  0.47722045912E+03  0.12500000000E+03 0.  0.
          2    1    1    2  501    0 -0.28753691944E+02 -0.27603169636E+02  0.72206874030E+02  0.82477526827E+02  0.00000000000E+00 0. -1.
         -2    1    1    2    0  503  0.48777164114E+02 -0.18768026366E+03  0.22657483264E+03  0.29822683965E+03  0.00000000000E+00 0.  1.
<mgrwt>
<rscale>  4 0.24723066E+03</rscale>
<asrwt>0</asrwt>
<pdfrwt beam="1">  1       21 0.57696444E-01 0.24723066E+03</pdfrwt>
<pdfrwt beam="2">  1       21 0.74291991E-01 0.24723066E+03</pdfrwt>
<totfact> 0.43988752E+03</totfact>
</mgrwt>
</event>
<event>
 5    0  0.1781295E-001  0.2797446E+03  0.7546771E-02  0.1095829E+00
         21   -1    0    0  501  502  0.00000000000E+00  0.00000000000E+00  0.39513211725E+02  0.39513211725E+02  0.00000000000E+00 0. -1.
         21   -1    0    0  502  503 -0.00000000000E+00 -0.00000000000E+00 -0.22241207713E+04  0.22241207713E+04  0.00000000000E+00 0.  1.
         25    1    1    2    0    0 -0.26542862887E+02  0.24885240652E+03 -0.64613904088E+03  0.70409708418E+03  0.12500000000E+03 0.  0.
          3    1    1    2  501    0  0.28226540845E+02 -0.17674901432E+03 -0.95508601285E+03  0.97171304592E+03  0.00000000000E+00 0.  1.
         -3    1    1    2    0  503 -0.16836779583E+01 -0.72103392208E+02 -0.58338250580E+03  0.58782385288E+03  0.00000000000E+00 0. -1.
<mgrwt>
<rscale>  4 0.27974460E+03</rscale>
<asrwt>0</asrwt>
<pdfrwt beam="1">  1       21 0.60789550E-02 0.27974460E+03</pdfrwt>
<pdfrwt beam="2">  1       21 0.34217247E+00 0.27974460E+03</pdfrwt>
<totfact> 0.34145363E+03</totfact>
</mgrwt>
</event>
<event>
 5    0  0.1781295E-001  0.1998030E+03  0.7546771E-02  0.1149905E+00
         21   -1    0    0  501  502  0.00000000000E+00  0.00000000000E+00  0.83894965923E+02  0.83894965923E+02  0.00000000000E+00 0.  1.
         21   -1    0    0  502  503 -0.00000000000E+00 -0.00000000000E+00 -0.10522857299E+04  0.10522857299E+04  0.00000000000E+00 0.  1.
         25    1    1    2    0    0  0.33645881399E+02  0.25469691791E+03 -0.35614052154E+03  0.45657818215E+03  0.12500000000E+03 0.  0.
          1    1    1    2  501    0 -0.56031294403E+02 -0.11952917345E+03 -0.16204012424E+03  0.20900653368E+03  0.00000000000E+00 0. -1.
         -1    1    1    2    0  503  0.22385413004E+02 -0.13516774447E+03 -0.45021011815E+03  0.47059597995E+03  0.00000000000E+00 0.  1.
<mgrwt>
<rscale>  4 0.19980304E+03</rscale>
<asrwt>0</asrwt>
<pdfrwt beam="1">  1       21 0.12906918E-01 0.19980304E+03</pdfrwt>
<pdfrwt beam="2">  1       21 0.16189010E+00 0.19980304E+03</pdfrwt>
<totfact> 0.12488565E+04</totfact>
</mgrwt>
</event>
<event>
 5    0  0.1781295E-001  0.3231012E+03  0.7546771E-02  0.1074231E+00
         21   -1    0    0  501  502  0.00000000000E+00  0.00000000000E+00  0.12484828074E+04  0.12484828074E+04  0.00000000000E+00 0.  1.
         21   -1    0    0  502  503 -0.00000000000E+00 -0.00000000000E+00 -0.14215235679E+03  0.14215235679E+03  0.00000000000E+00 0.  1.
         25    1    1    2    0    0 -0.29332255979E+03 -0.52261251139E+02  0.10117455559E+04  0.10620844752E+04  0.12500000000E+03 0.  0.
          1    1    1    2  501    0  0.22846577350E+03  0.76782400096E+02  0.50115335079E+02  0.24617817417E+03  0.00000000000E+00 0.  1.
         -1    1    1    2    0  503  0.64856786287E+02 -0.24521148957E+02  0.44469559619E+02  0.82372514873E+02  0.00000000000E+00 0. -1.
<mgrwt>
<rscale>  4 0.32310116E+03</rscale>
<asrwt>0</asrwt>
<pdfrwt beam="1">  1       21 0.19207427E+00 0.32310116E+03</pdfrwt>
<pdfrwt beam="2">  1       21 0.21869594E-01 0.32310116E+03</pdfrwt>
<totfact> 0.26718307E+03</totfact>
</mgrwt>
</event>
<event>
 5    0  0.1781295E-001  0.2347804E+03  0.7546771E-02  0.1123320E+00
         21   -1    0    0  501  502  0.00000000000E+00  0.00000000000E+00  0.15527973360E+04  0.15527973360E+04  0.00000000000E+00 0.  1.
         21   -1    0    0  502  503 -0.00000000000E+00 -0.00000000000E+00 -0.72182271461E+02  0.72182271461E+02  0.00000000000E+00 0.  1.
         25    1    1    2    0    0  0.19561589767E+03  0.58202519650E+02  0.12998518843E+04  0.13217008110E+04  0.12500000000E+03 0.  0.
          1    1    1    2  501    0 -0.17425257471E+03 -0.51470871012E+02  0.20250104580E+03  0.27206595507E+03  0.00000000000E+00 0. -1.
         -1    1    1    2    0  503 -0.21363322955E+02 -0.67316486377E+01 -0.21737865626E+02  0.31212841316E+02  0.00000000000E+00 0.  1.
<mgrwt>
<rscale>  4 0.23478038E+03</rscale>
<asrwt>0</asrwt>
<pdfrwt beam="1">  1       21 0.23889187E+00 0.23478038E+03</pdfrwt>
<pdfrwt beam="2">  1       21 0.11104966E-01 0.23478038E+03</pdfrwt>
<totfact> 0.50111131E+03</totfact>
</mgrwt>
</event>
<event>
 5    0  0.1781295E-001  0.2796629E+03  0.7546771E-02  0.1095873E+00
         21   -1    0    0  501  502  0.00000000000E+00  0.00000000000E+00  0.81924720520E+03  0.81924720520E+03  0.00000000000E+00 0.  1.
         21   -1    0    0  502  503 -0.00000000000E+00 -0.00000000000E+00 -0.19451679121E+03  0.19451679121E+03  0.00000000000E+00 0.  1.
         25    1    1    2    0    0  0.23087819575E+03 -0.20061616001E+03  0.42527911391E+03  0.53855260621E+03  0.12500000000E+03 0.  0.
          3    1    1    2  501    0 -0.14980584025E+03  0.18546860130E+03 -0.21489535618E+02  0.23937876260E+03  0.00000000000E+00 0.  1.
         -3    1    1    2    0  503 -0.81072355500E+02  0.15147558708E+02  0.22094083570E+03  0.23583262760E+03  0.00000000000E+00 0. -1.
<mgrwt>
<rscale>  4 0.27966294E+03</rscale>
<asrwt>0</asrwt>
<pdfrwt beam="1">  1       21 0.12603803E+00 0.27966294E+03</pdfrwt>
<pdfrwt beam="2">  1       21 0.29925661E-01 0.27966294E+03</pdfrwt>
<totfact> 0.47098011E+03</totfact>
</mgrwt>
</event>
<event>
 5    0  0.1781295E-001  0.2210897E+03  0.7546771E-02  0.1133073E+00
         21   -1    0    0  501  502  0.00000000000E+00  0.00000000000E+00  0.16505485942E+03  0.16505485942E+03  0.00000000000E+00 0. -1.
         21   -1    0    0  502  503 -0.00000000000E+00 -0.00000000000E+00 -0.49780339849E+03  0.49780339849E+03  0.00000000000E+00 0. -1.
         25    1    1    2    0    0  0.99069439995E+02 -0.17423348055E+03  0.18364584876E+02  0.23692681922E+03  0.12500000000E+03 0.  0.
          1    1    1    2  501    0 -0.76500271412E+02  0.16230817439E+03 -0.35715969562E+03  0.39969899071E+03  0.00000000000E+00 0. -1.
         -1    1    1    2    0  503 -0.22569168583E+02  0.11925306161E+02  0.60465716764E+01  0.26232447971E+02  0.00000000000E+00 0.  1.
<mgrwt>
<rscale>  4 0.22108969E+03</rscale>
<asrwt>0</asrwt>
<pdfrwt beam="1">  1       21 0.25393056E-01 0.22108969E+03</pdfrwt>
<pdfrwt beam="2">  1       21 0.76585137E-01 0.22108969E+03</pdfrwt>
<totfact> 0.21943537E+04</totfact>
</mgrwt>
</event>
<event>
 5    0  0.1781295E-001  0.2713430E+03  0.7546771E-02  0.1100513E+00
         21   -1    0    0  501  502  0.00000000000E+00  0.00000000000E+00  0.28361747311E+03  0.28361747311E+03  0.00000000000E+00 0. -1.
         21   -1    0    0  502  503 -0.00000000000E+00 -0.00000000000E+00 -0.29509915218E+03  0.29509915218E+03  0.00000000000E+00 0.  1.
         25    1    1    2    0    0 -0.17324918853E+01  0.24082988509E+03  0.11485926601E+03  0.29465180480E+03  0.12500000000E+03 0.  0.
          1    1    1    2  501    0 -0.25073477077E+02 -0.83281312732E+02 -0.78718354227E+02  0.11730744049E+03  0.00000000000E+00 0. -1.
         -1    1    1    2    0  503  0.26805968962E+02 -0.15754857236E+03 -0.47622590863E+02  0.16675738000E+03  0.00000000000E+00 0.  1.
<mgrwt>
<rscale>  4 0.27134302E+03</rscale>
<asrwt>0</asrwt>
<pdfrwt beam="1">  1       21 0.43633458E-01 0.27134302E+03</pdfrwt>
<pdfrwt beam="2">  1       21 0.45399869E-01 0.27134302E+03</pdfrwt>
<totfact> 0.22567777E+04</totfact>
</mgrwt>
</event>
<event>
 5    0  0.1781295E-001  0.2376228E+03  0.7546771E-02  0.1121387E+00
         21   -1    0    0  501  502  0.00000000000E+00  0.00000000000E+00  0.20651278184E+03  0.20651278184E+03  0.00000000000E+00 0. -1.
         21   -1    0    0  502  503 -0.00000000000E+00 -0.00000000000E+00 -0.45960729739E+03  0.45960729739E+03  0.00000000000E+00 0. -1.
         25    1    1    2    0    0  0.18107682088E+03 -0.15364528754E+03 -0.14648114351E+02  0.26876617476E+03  0.12500000000E+03 0.  0.
          4    1    1    2  501    0 -0.17796892208E+03  0.33605987909E+02 -0.78612913448E+02  0.19743933197E+03  0.00000000000E+00 0.  1.
         -4    1    1    2    0  503 -0.31078987978E+01  0.12003929963E+03 -0.15983348775E+03  0.19991457250E+03  0.00000000000E+00 0. -1.
<mgrwt>
<rscale>  4 0.23762284E+03</rscale>
<asrwt>0</asrwt>
<pdfrwt beam="1">  1       21 0.31771197E-01 0.23762284E+03</pdfrwt>
<pdfrwt beam="2">  1       21 0.70708814E-01 0.23762284E+03</pdfrwt>
<totfact> 0.16814227E+04</totfact>
</mgrwt>
</event>
<event>
 5    0  0.1781295E-001  0.2712350E+03  0.7546771E-02  0.1100575E+00
         21   -1    0    0  501  502  0.00000000000E+00  0.00000000000E+00  0.31531631604E+03  0.31531631604E+03  0.00000000000E+00 0.  1.
         21   -1    0    0  502  503 -0.00000000000E+00 -0.00000000000E+00 -0.42967027976E+03  0.42967027976E+03  0.00000000000E+00 0. -1.
         25    1    1    2    0    0  0.19437242137E+03  0.14199580506E+03  0.20126995464E+03  0.33775441001E+03  0.12500000000E+03 0.  0.
          2    1    1    2  501    0 -0.69789350001E+02 -0.24291248566E+01 -0.96346642684E+02  0.11899214082E+03  0.00000000000E+00 0.  1.
         -2    1    1    2    0  503 -0.12458307137E+03 -0.13956668021E+03 -0.21927727568E+03  0.28824004497E+03  0.00000000000E+00 0. -1.
<mgrwt>
<rscale>  4 0.27123504E+03</rscale>
<asrwt>0</asrwt>
<pdfrwt beam="1">  1       21 0.48510203E-01 0.27123504E+03</pdfrwt>
<pdfrwt beam="2">  1       21 0.66103120E-01 0.27123504E+03</pdfrwt>
<totfact> 0.81212307E+03</totfact>
</mgrwt>
</event>
