<event>
 5    0  0.1943430E+001  0.3431698E+03  0.7546771E-02  0.1065454E+00
         21   -1    0    0  502  501  0.00000000000E+00  0.00000000000E+00  0.18220864706E+03  0.18220864706E+03  0.00000000000E+00 0.  1.
         21   -1    0    0  503  502 -0.00000000000E+00 -0.00000000000E+00 -0.89331812062E+03  0.89331812062E+03  0.00000000000E+00 0.  1.
         25    1    1    2    0    0  0.33041237451E+03 -0.51716279142E+02 -0.10067536865E+03  0.37095476895E+03  0.12500000000E+03 0.  0.
         21    1    1    2  503  504 -0.30816189610E+03  0.67266553705E+02 -0.59477012699E+03  0.67323105054E+03  0.00000000000E+00 0.  1.
         21    1    1    2  504  501 -0.22250478412E+02 -0.15550274563E+02 -0.15663977933E+02  0.31340948187E+02  0.00000000000E+00 0.  1.
<mgrwt>
<rscale>  4 0.34316976E+03</rscale>
<asrwt>0</asrwt>
<pdfrwt beam="1">  1       21 0.28032100E-01 0.34316976E+03</pdfrwt>
<pdfrwt beam="2">  1       21 0.13743355E+00 0.34316976E+03</pdfrwt>
<totfact> 0.41457422E+03</totfact>
</mgrwt>
</event>
<event>
 5    0  0.1943430E+001  0.2592706E+03  0.7546771E-02  0.1107582E+00
         21   -1    0    0  504  501  0.00000000000E+00  0.00000000000E+00  0.15689787280E+03  0.15689787280E+03  0.00000000000E+00 0.  1.
         21   -1    0    0  501  502 -0.00000000000E+00 -0.00000000000E+00 -0.62214939582E+03  0.62214939582E+03  0.00000000000E+00 0.  1.
         25    1    1    2    0    0 -0.21996036468E+03 -0.55745821514E+02 -0.17022246789E+02  0.25962456650E+03  0.12500000000E+03 0.  0.
         21    1    1    2  503  502  0.22829367431E+03  0.24296866761E+02 -0.38325165246E+03  0.44675515506E+03  0.00000000000E+00 0.  1.
         21    1    1    2  504  503 -0.83333096346E+01  0.31448954752E+02 -0.64977623770E+02  0.72667547057E+02  0.00000000000E+00 0.  1.
<mgrwt>
<rscale>  4 0.25927057E+03</rscale>
<asrwt>0</asrwt>
<pdfrwt beam="1">  1       21 0.24138134E-01 0.25927057E+03</pdfrwt>
<pdfrwt beam="2">  1       21 0.95715292E-01 0.25927057E+03</pdfrwt>
<totfact> 0.14175632E+04</totfact>
</mgrwt>
</event>
<event>
 5    0  0.1943430E+001  0.2326675E+03  0.7546771E-02  0.1124776E+00
         21   -1    0    0  504  501  0.00000000000E+00  0.00000000000E+00  0.50307330826E+03  0.50307330826E+03  0.00000000000E+00 0. -1.
         21   -1    0    0  501  502 -0.00000000000E+00 -0.00000000000E+00 -0.31697326234E+03  0.31697326234E+03  0.00000000000E+00 0. -1.
         25    1    1    2    0    0  0.19505893405E+03 -0.46211995815E+02  0.43238413467E+03  0.49271145331E+03  0.12500000000E+03 0.  0.
         21    1    1    2  503  502 -0.32483577146E+02 -0.27702372627E+01 -0.93137138001E+02  0.98678181345E+02  0.00000000000E+00 0.  1.
         21    1    1    2  504  503 -0.16257535691E+03  0.48982233078E+02 -0.15314695074E+03  0.22865693594E+03  0.00000000000E+00 0. -1.
<mgrwt>
<rscale>  4 0.23266747E+03</rscale>
<asrwt>0</asrwt>
<pdfrwt beam="1">  1       21 0.77395894E-01 0.23266747E+03</pdfrwt>
<pdfrwt beam="2">  1       21 0.48765117E-01 0.23266747E+03</pdfrwt>
<totfact> 0.57798560E+03</totfact>
</mgrwt>
</event>
<event>
 5    0  0.1943430E+001  0.3484270E+03  0.7546771E-02  0.1063263E+00
         21   -1    0    0  503  501  0.00000000000E+00  0.00000000000E+00  0.24460470550E+03  0.24460470550E+03  0.00000000000E+00 0. -1.
         21   -1    0    0  504  502 -0.00000000000E+00 -0.00000000000E+00 -0.56347830936E+03  0.56347830936E+03  0.00000000000E+00 0.  1.
         25    1    1    2    0    0  0.24766062895E+03 -0.24316443958E+03 -0.11578757961E+03  0.38664776658E+03  0.12500000000E+03 0.  0.
         21    1    1    2  503  502 -0.10894731699E+02  0.39588273122E+02  0.11400836840E+02  0.42613444219E+02  0.00000000000E+00 0.  1.
         21    1    1    2  504  501 -0.23676589725E+03  0.20357616646E+03 -0.21448686109E+03  0.37882180406E+03  0.00000000000E+00 0.  1.
<mgrwt>
<rscale>  4 0.34842699E+03</rscale>
<asrwt>0</asrwt>
<pdfrwt beam="1">  1       21 0.37631493E-01 0.34842699E+03</pdfrwt>
<pdfrwt beam="2">  1       21 0.86688970E-01 0.34842699E+03</pdfrwt>
<totfact> 0.71582387E+03</totfact>
</mgrwt>
</event>
<event>
 5    0  0.1943430E+001  0.2811813E+03  0.7546771E-02  0.1095045E+00
         21   -1    0    0  504  501  0.00000000000E+00  0.00000000000E+00  0.34684906378E+03  0.34684906378E+03  0.00000000000E+00 0.  1.
         21   -1    0    0  503  502 -0.00000000000E+00 -0.00000000000E+00 -0.44125520108E+03  0.44125520108E+03  0.00000000000E+00 0.  1.
         25    1    1    2    0    0  0.18690464770E+03  0.21017448009E+03  0.18357620007E+03  0.35837393968E+03  0.12500000000E+03 0.  0.
         21    1    1    2  503  501 -0.61314965582E+02 -0.18876384335E+03 -0.14679305486E+03  0.24685930105E+03  0.00000000000E+00 0.  1.
         21    1    1    2  504  502 -0.12558968212E+03 -0.21410636743E+02 -0.13118928251E+03  0.18287102413E+03  0.00000000000E+00 0.  1.
<mgrwt>
<rscale>  4 0.28118129E+03</rscale>
<asrwt>0</asrwt>
<pdfrwt beam="1">  1       21 0.53361395E-01 0.28118129E+03</pdfrwt>
<pdfrwt beam="2">  1       21 0.67885415E-01 0.28118129E+03</pdfrwt>
<totfact> 0.62303979E+03</totfact>
</mgrwt>
</event>
<event>
 5    0  0.1943430E+001  0.2554363E+03  0.7546771E-02  0.1109917E+00
         21   -1    0    0  503  501  0.00000000000E+00  0.00000000000E+00  0.47456386084E+03  0.47456386084E+03  0.00000000000E+00 0.  1.
         21   -1    0    0  504  502 -0.00000000000E+00 -0.00000000000E+00 -0.15300102334E+03  0.15300102334E+03  0.00000000000E+00 0.  1.
         25    1    1    2    0    0  0.21333388115E+03  0.37177059138E+02  0.21035841735E+03  0.32675547788E+03  0.12500000000E+03 0.  0.
         21    1    1    2  503  502 -0.22881744168E+03 -0.23560122394E+02  0.13703987401E+03  0.26775441744E+03  0.00000000000E+00 0.  1.
         21    1    1    2  504  501  0.15483560531E+02 -0.13616936744E+02 -0.25835453863E+02  0.33054988872E+02  0.00000000000E+00 0.  1.
<mgrwt>
<rscale>  4 0.25543627E+03</rscale>
<asrwt>0</asrwt>
<pdfrwt beam="1">  1       21 0.73009824E-01 0.25543627E+03</pdfrwt>
<pdfrwt beam="2">  1       21 0.23538619E-01 0.25543627E+03</pdfrwt>
<totfact> 0.27773230E+04</totfact>
</mgrwt>
</event>
<event>
 5    0  0.1943430E+001  0.2672065E+03  0.7546771E-02  0.1102889E+00
         21   -1    0    0  504  501  0.00000000000E+00  0.00000000000E+00  0.55692852896E+03  0.55692852896E+03  0.00000000000E+00 0.  1.
         21   -1    0    0  501  502 -0.00000000000E+00 -0.00000000000E+00 -0.27851370634E+03  0.27851370634E+03  0.00000000000E+00 0.  1.
         25    1    1    2    0    0  0.67327149199E+02 -0.22682186639E+03  0.41352360958E+03  0.49255241323E+03  0.12500000000E+03 0.  0.
         21    1    1    2  503  502  0.18718927329E+02  0.77698431170E+01 -0.10345871463E+03  0.10542520731E+03  0.00000000000E+00 0. -1.
         21    1    1    2  504  503 -0.86046076528E+02  0.21905202328E+03 -0.31650072337E+02  0.23746461477E+03  0.00000000000E+00 0.  1.
<mgrwt>
<rscale>  4 0.26720652E+03</rscale>
<asrwt>0</asrwt>
<pdfrwt beam="1">  1       21 0.85681312E-01 0.26720652E+03</pdfrwt>
<pdfrwt beam="2">  1       21 0.42848263E-01 0.26720652E+03</pdfrwt>
<totfact> 0.58658360E+03</totfact>
</mgrwt>
</event>
<event>
 5    0  0.1943430E+001  0.2657043E+03  0.7546771E-02  0.1103764E+00
         21   -1    0    0  504  501  0.00000000000E+00  0.00000000000E+00  0.74116456953E+03  0.74116456953E+03  0.00000000000E+00 0.  1.
         21   -1    0    0  501  502 -0.00000000000E+00 -0.00000000000E+00 -0.22624575987E+03  0.22624575987E+03  0.00000000000E+00 0.  1.
         25    1    1    2    0    0  0.20598537431E+03 -0.85836109656E+02  0.31973471408E+03  0.40945463673E+03  0.12500000000E+03 0.  0.
         21    1    1    2  503  502  0.15148766937E+02 -0.18776684224E+02 -0.14051925757E+03  0.14257528102E+03  0.00000000000E+00 0.  1.
         21    1    1    2  504  503 -0.22113414125E+03  0.10461279388E+03  0.33570335315E+03  0.41538041165E+03  0.00000000000E+00 0.  1.
<mgrwt>
<rscale>  4 0.26570431E+03</rscale>
<asrwt>0</asrwt>
<pdfrwt beam="1">  1       21 0.11402532E+00 0.26570431E+03</pdfrwt>
<pdfrwt beam="2">  1       21 0.34807040E-01 0.26570431E+03</pdfrwt>
<totfact> 0.45217379E+03</totfact>
</mgrwt>
</event>
<event>
 5    0  0.1943430E+001  0.2978524E+03  0.7546771E-02  0.1086319E+00
         21   -1    0    0  504  501  0.00000000000E+00  0.00000000000E+00  0.14458728293E+04  0.14458728293E+04  0.00000000000E+00 0. -1.
         21   -1    0    0  503  502 -0.00000000000E+00 -0.00000000000E+00 -0.31650044540E+03  0.31650044540E+03  0.00000000000E+00 0.  1.
         25    1    1    2    0    0  0.74277904386E+02 -0.26272072282E+03  0.10523149177E+04  0.10943176281E+04  0.12500000000E+03 0.  0.
         21    1    1    2  503  501 -0.11196102975E+03  0.24194568234E+03  0.32275340790E+03  0.41862005171E+03  0.00000000000E+00 0. -1.
         21    1    1    2  504  502  0.37683125362E+02  0.20775040482E+02 -0.24569594165E+03  0.24943559487E+03  0.00000000000E+00 0.  1.
<mgrwt>
<rscale>  4 0.29785244E+03</rscale>
<asrwt>0</asrwt>
<pdfrwt beam="1">  1       21 0.22244197E+00 0.29785244E+03</pdfrwt>
<pdfrwt beam="2">  1       21 0.48692377E-01 0.29785244E+03</pdfrwt>
<totfact> 0.35071904E+02</totfact>
</mgrwt>
</event>
<event>
 5    0  0.1943430E+001  0.1976239E+03  0.7546771E-02  0.1151759E+00
         21   -1    0    0  503  501  0.00000000000E+00  0.00000000000E+00  0.35694721364E+03  0.35694721364E+03  0.00000000000E+00 0. -1.
         21   -1    0    0  504  502 -0.00000000000E+00 -0.00000000000E+00 -0.38351267385E+03  0.38351267385E+03  0.00000000000E+00 0. -1.
         25    1    1    2    0    0  0.18972980119E+03  0.10194169822E+03  0.53306456289E+02  0.25466857988E+03  0.12500000000E+03 0.  0.
         21    1    1    2  503  502 -0.81052927253E+02 -0.11568278998E+03  0.16519823454E+03  0.21735349459E+03  0.00000000000E+00 0. -1.
         21    1    1    2  504  501 -0.10867687393E+03  0.13741091763E+02 -0.24507015104E+03  0.26843781303E+03  0.00000000000E+00 0. -1.
<mgrwt>
<rscale>  4 0.19762392E+03</rscale>
<asrwt>0</asrwt>
<pdfrwt beam="1">  1       21 0.54914956E-01 0.19762392E+03</pdfrwt>
<pdfrwt beam="2">  1       21 0.59001950E-01 0.19762392E+03</pdfrwt>
<totfact> 0.83762107E+03</totfact>
</mgrwt>
</event>
<event>
 5    0  0.1943430E+001  0.3740048E+03  0.7546771E-02  0.1053172E+00
         21   -1    0    0  504  501  0.00000000000E+00  0.00000000000E+00  0.29574004158E+03  0.29574004158E+03  0.00000000000E+00 0.  1.
         21   -1    0    0  501  502 -0.00000000000E+00 -0.00000000000E+00 -0.10115481837E+04  0.10115481837E+04  0.00000000000E+00 0. -1.
         25    1    1    2    0    0  0.45473086445E+03 -0.31503053347E+02 -0.27937303516E+03  0.54904179643E+03  0.12500000000E+03 0.  0.
         21    1    1    2  503  502 -0.15461193078E+03 -0.57894158683E+02 -0.41234846426E+03  0.44417095664E+03  0.00000000000E+00 0. -1.
         21    1    1    2  504  503 -0.30011893367E+03  0.89397212030E+02 -0.24086642669E+02  0.31407547217E+03  0.00000000000E+00 0.  1.
<mgrwt>
<rscale>  4 0.37400480E+03</rscale>
<asrwt>0</asrwt>
<pdfrwt beam="1">  1       21 0.45498468E-01 0.37400480E+03</pdfrwt>
<pdfrwt beam="2">  1       21 0.15562280E+00 0.37400480E+03</pdfrwt>
<totfact> 0.10999765E+03</totfact>
</mgrwt>
</event>
<event>
 5    0  0.1943430E+001  0.2420872E+03  0.7546771E-02  0.1118410E+00
         21   -1    0    0  503  501  0.00000000000E+00  0.00000000000E+00  0.25617911931E+03  0.25617911931E+03  0.00000000000E+00 0.  1.
         21   -1    0    0  504  502 -0.00000000000E+00 -0.00000000000E+00 -0.17641464763E+04  0.17641464763E+04  0.00000000000E+00 0.  1.
         25    1    1    2    0    0 -0.20658941157E+03  0.39561146863E+02  0.18022600474E+03  0.30389255026E+03  0.12500000000E+03 0.  0.
         21    1    1    2  503  502  0.18219683045E+03  0.15977212658E+02 -0.61734050360E+03  0.64386353658E+03  0.00000000000E+00 0.  1.
         21    1    1    2  504  501  0.24392581127E+02 -0.55538359521E+02 -0.10708528582E+04  0.10725695088E+04  0.00000000000E+00 0.  1.
<mgrwt>
<rscale>  4 0.24208720E+03</rscale>
<asrwt>0</asrwt>
<pdfrwt beam="1">  1       21 0.39412171E-01 0.24208720E+03</pdfrwt>
<pdfrwt beam="2">  1       21 0.27140716E+00 0.24208720E+03</pdfrwt>
<totfact> 0.29047770E+02</totfact>
</mgrwt>
</event>
<event>
 5    0  0.1943430E+001  0.2519341E+03  0.7546771E-02  0.1112089E+00
         21   -1    0    0  504  501  0.00000000000E+00  0.00000000000E+00  0.80201267479E+03  0.80201267479E+03  0.00000000000E+00 0.  1.
         21   -1    0    0  501  502 -0.00000000000E+00 -0.00000000000E+00 -0.58608291369E+03  0.58608291369E+03  0.00000000000E+00 0.  1.
         25    1    1    2    0    0  0.21204227571E+03  0.53701396037E+02  0.75791583415E+03  0.79869091536E+03  0.12500000000E+03 0.  0.
         21    1    1    2  503  502 -0.17455490632E+03 -0.68602318752E+02 -0.48112280137E+03  0.51638633160E+03  0.00000000000E+00 0.  1.
         21    1    1    2  504  503 -0.37487369387E+02  0.14900922715E+02 -0.60863271673E+02  0.73018341532E+02  0.00000000000E+00 0. -1.
<mgrwt>
<rscale>  4 0.25193405E+03</rscale>
<asrwt>0</asrwt>
<pdfrwt beam="1">  1       21 0.12338657E+00 0.25193405E+03</pdfrwt>
<pdfrwt beam="2">  1       21 0.90166601E-01 0.25193405E+03</pdfrwt>
<totfact> 0.48602167E+02</totfact>
</mgrwt>
</event>
