<event>
 5    0  0.1911311E+001  0.3110668E+03  0.7546771E-02  0.1079836E+00
         21   -1    0    0  503  501  0.00000000000E+00  0.00000000000E+00  0.34140839889E+03  0.34140839889E+03  0.00000000000E+00 0. -1.
         21   -1    0    0  501  502 -0.00000000000E+00 -0.00000000000E+00 -0.56775356665E+03  0.56775356665E+03  0.00000000000E+00 0. -1.
         25    1    1    2    0    0  0.96072663894E+02  0.26717009983E+03  0.19960153834E+03  0.36888425434E+03  0.12500000000E+03 0.  0.
         21    1    1    2  503  504 -0.61458171853E+02 -0.28526967733E+03 -0.39081544990E+03  0.48774236188E+03  0.00000000000E+00 0. -1.
         21    1    1    2  504  502 -0.34614492041E+02  0.18099577500E+02 -0.35131256203E+02  0.52535349312E+02  0.00000000000E+00 0.  1.
<mgrwt>
<rscale>  4 0.31106685E+03</rscale>
<asrwt>0</asrwt>
<pdfrwt beam="1">  1       21 0.52524369E-01 0.31106685E+03</pdfrwt>
<pdfrwt beam="2">  1       21 0.87346702E-01 0.31106685E+03</pdfrwt>
<totfact> 0.35797165E+03</totfact>
</mgrwt>
</event>
<event>
 5    0  0.1911311E+001  0.2974789E+03  0.7546771E-02  0.1086508E+00
         21   -1    0    0  504  501  0.00000000000E+00  0.00000000000E+00  0.11453436323E+04  0.11453436323E+04  0.00000000000E+00 0. -1.
         21   -1    0    0  503  502 -0.00000000000E+00 -0.00000000000E+00 -0.10769963832E+03  0.10769963832E+03  0.00000000000E+00 0. -1.
         25    1    1    2    0    0  0.30588926787E+02  0.26374737995E+03  0.42087785617E+03  0.51309017987E+03  0.12500000000E+03 0.  0.
         21    1    1    2  503  501  0.10091777113E+03 -0.15317578073E+02  0.65850216368E+02  0.12147129588E+03  0.00000000000E+00 0. -1.
         21    1    1    2  504  502 -0.13150669792E+03 -0.24842980188E+03  0.55091592142E+03  0.61848179483E+03  0.00000000000E+00 0. -1.
<mgrwt>
<rscale>  4 0.29747887E+03</rscale>
<asrwt>0</asrwt>
<pdfrwt beam="1">  1       21 0.17620670E+00 0.29747887E+03</pdfrwt>
<pdfrwt beam="2">  1       21 0.16569176E-01 0.29747887E+03</pdfrwt>
<totfact> 0.58694224E+03</totfact>
</mgrwt>
</event>
<event>
 5    0  0.1911311E+001  0.3651380E+03  0.7546771E-02  0.1056568E+00
         21   -1    0    0  504  501  0.00000000000E+00  0.00000000000E+00  0.90914587769E+03  0.90914587769E+03  0.00000000000E+00 0. -1.
         21   -1    0    0  503  502 -0.00000000000E+00 -0.00000000000E+00 -0.88750676678E+03  0.88750676678E+03  0.00000000000E+00 0. -1.
         25    1    1    2    0    0  0.18537400095E+03 -0.24848952240E+03 -0.99201927551E+02  0.34867834088E+03  0.12500000000E+03 0.  0.
         21    1    1    2  503  501  0.24156804775E+02 -0.30367534384E+02 -0.62415841078E+03  0.62536346240E+03  0.00000000000E+00 0. -1.
         21    1    1    2  504  502 -0.20953080573E+03  0.27885705678E+03  0.74499944924E+03  0.82261084118E+03  0.00000000000E+00 0. -1.
<mgrwt>
<rscale>  4 0.36513799E+03</rscale>
<asrwt>0</asrwt>
<pdfrwt beam="1">  1       21 0.13986860E+00 0.36513799E+03</pdfrwt>
<pdfrwt beam="2">  1       21 0.13653950E+00 0.36513799E+03</pdfrwt>
<totfact> 0.11602033E+02</totfact>
</mgrwt>
</event>
<event>
 5    0  0.1911311E+001  0.1967771E+03  0.7546771E-02  0.1152487E+00
         21   -1    0    0  502  501  0.00000000000E+00  0.00000000000E+00  0.71668450494E+03  0.71668450494E+03  0.00000000000E+00 0. -1.
         21   -1    0    0  504  502 -0.00000000000E+00 -0.00000000000E+00 -0.15552907677E+03  0.15552907677E+03  0.00000000000E+00 0. -1.
         25    1    1    2    0    0  0.61020280387E+02 -0.19462309285E+03  0.47621759437E+03  0.53292571723E+03  0.12500000000E+03 0.  0.
         21    1    1    2  503  501 -0.89912711004E+02  0.83650781877E+02  0.16039939625E+03  0.20201414610E+03  0.00000000000E+00 0. -1.
         21    1    1    2  504  503  0.28892430617E+02  0.11097231097E+03 -0.75461562461E+02  0.13727371838E+03  0.00000000000E+00 0. -1.
<mgrwt>
<rscale>  4 0.19677712E+03</rscale>
<asrwt>0</asrwt>
<pdfrwt beam="1">  1       21 0.11025915E+00 0.19677712E+03</pdfrwt>
<pdfrwt beam="2">  1       21 0.23927551E-01 0.19677712E+03</pdfrwt>
<totfact> 0.10661991E+04</totfact>
</mgrwt>
</event>
<event>
 5    0  0.1911311E+001  0.2457788E+03  0.7546771E-02  0.1116002E+00
         21   -1    0    0  503  501  0.00000000000E+00  0.00000000000E+00  0.22707793426E+03  0.22707793426E+03  0.00000000000E+00 0.  1.
         21   -1    0    0  504  502 -0.00000000000E+00 -0.00000000000E+00 -0.26735902696E+03  0.26735902696E+03  0.00000000000E+00 0.  1.
         25    1    1    2    0    0  0.34183190947E+02 -0.20956860717E+03  0.33018121964E+01  0.24642117120E+03  0.12500000000E+03 0.  0.
         21    1    1    2  503  502 -0.65165393359E+02  0.20183835032E+03 -0.35162499254E+02  0.21499220801E+03  0.00000000000E+00 0.  1.
         21    1    1    2  504  501  0.30982202413E+02  0.77302568442E+01 -0.84204056355E+01  0.33023582003E+02  0.00000000000E+00 0.  1.
<mgrwt>
<rscale>  4 0.24577884E+03</rscale>
<asrwt>0</asrwt>
<pdfrwt beam="1">  1       21 0.34935067E-01 0.24577884E+03</pdfrwt>
<pdfrwt beam="2">  1       21 0.41132158E-01 0.24577884E+03</pdfrwt>
<totfact> 0.43872356E+04</totfact>
</mgrwt>
</event>
<event>
 5    0  0.1911311E+001  0.3014572E+03  0.7546771E-02  0.1084514E+00
         21   -1    0    0  503  501  0.00000000000E+00  0.00000000000E+00  0.36450738316E+03  0.36450738316E+03  0.00000000000E+00 0. -1.
         21   -1    0    0  504  502 -0.00000000000E+00 -0.00000000000E+00 -0.52714677504E+03  0.52714677504E+03  0.00000000000E+00 0. -1.
         25    1    1    2    0    0 -0.69477661250E+02  0.34247632759E+03 -0.15351364829E+02  0.37145369130E+03  0.12500000000E+03 0.  0.
         21    1    1    2  503  502  0.14413490699E+02 -0.10696648430E+03 -0.23844113350E+03  0.26173221357E+03  0.00000000000E+00 0. -1.
         21    1    1    2  504  501  0.55064170551E+02 -0.23550984329E+03  0.91153106447E+02  0.25846825333E+03  0.00000000000E+00 0. -1.
<mgrwt>
<rscale>  4 0.30145724E+03</rscale>
<asrwt>0</asrwt>
<pdfrwt beam="1">  1       21 0.56078059E-01 0.30145724E+03</pdfrwt>
<pdfrwt beam="2">  1       21 0.81099504E-01 0.30145724E+03</pdfrwt>
<totfact> 0.37139090E+03</totfact>
</mgrwt>
</event>
<event>
 5    0  0.1911311E+001  0.2090016E+03  0.7546771E-02  0.1142359E+00
         21   -1    0    0  503  501  0.00000000000E+00  0.00000000000E+00  0.12145929780E+03  0.12145929780E+03  0.00000000000E+00 0. -1.
         21   -1    0    0  504  502 -0.00000000000E+00 -0.00000000000E+00 -0.51119036993E+03  0.51119036993E+03  0.00000000000E+00 0.  1.
         25    1    1    2    0    0 -0.89553790194E+02 -0.18455060126E+03 -0.24857403771E+03  0.34567739004E+03  0.12500000000E+03 0.  0.
         21    1    1    2  503  502  0.27646999112E+02  0.14429581276E+03 -0.15307439725E+03  0.21217306435E+03  0.00000000000E+00 0.  1.
         21    1    1    2  504  501  0.61906791082E+02  0.40254788501E+02  0.11917362832E+02  0.74799213340E+02  0.00000000000E+00 0. -1.
<mgrwt>
<rscale>  4 0.20900157E+03</rscale>
<asrwt>0</asrwt>
<pdfrwt beam="1">  1       21 0.18686046E-01 0.20900157E+03</pdfrwt>
<pdfrwt beam="2">  1       21 0.78644673E-01 0.20900157E+03</pdfrwt>
<totfact> 0.37123034E+04</totfact>
</mgrwt>
</event>
