<event>
 5    0  0.1911311E+001  0.4701227E+03  0.7546771E-02  0.1021886E+00
         21   -1    0    0  502  501  0.00000000000E+00  0.00000000000E+00  0.57988969654E+03  0.57988969654E+03  0.00000000000E+00 0.  1.
         21   -1    0    0  504  502 -0.00000000000E+00 -0.00000000000E+00 -0.50079695962E+03  0.50079695962E+03  0.00000000000E+00 0.  1.
         25    1    1    2    0    0 -0.47642762694E+03 -0.44058922894E+02  0.78738782769E+02  0.50074870775E+03  0.12500000000E+03 0.  0.
         21    1    1    2  503  501  0.43078635494E+03  0.49047976716E+02  0.12159247669E+03  0.45029692205E+03  0.00000000000E+00 0.  1.
         21    1    1    2  504  503  0.45641272002E+02 -0.49890538225E+01 -0.12123852254E+03  0.12964102636E+03  0.00000000000E+00 0.  1.
<mgrwt>
<rscale>  4 0.47012270E+03</rscale>
<asrwt>0</asrwt>
<pdfrwt beam="1">  1       21 0.89213799E-01 0.47012270E+03</pdfrwt>
<pdfrwt beam="2">  1       21 0.77045687E-01 0.47012270E+03</pdfrwt>
<totfact> 0.13637786E+03</totfact>
</mgrwt>
</event>
<event>
 5    0  0.1911311E+001  0.1929471E+03  0.7546771E-02  0.1155830E+00
         21   -1    0    0  504  501  0.00000000000E+00  0.00000000000E+00  0.64235504152E+03  0.64235504152E+03  0.00000000000E+00 0. -1.
         21   -1    0    0  503  502 -0.00000000000E+00 -0.00000000000E+00 -0.56612156818E+03  0.56612156818E+03  0.00000000000E+00 0. -1.
         25    1    1    2    0    0  0.50798818381E+02  0.20464078534E+03  0.29427253490E+03  0.38298785329E+03  0.12500000000E+03 0.  0.
         21    1    1    2  503  501 -0.61465185454E+02 -0.13151966672E+03 -0.50692434906E+03  0.52730227330E+03  0.00000000000E+00 0. -1.
         21    1    1    2  504  502  0.10666367073E+02 -0.73121118612E+02  0.28888528750E+03  0.29818648311E+03  0.00000000000E+00 0. -1.
<mgrwt>
<rscale>  4 0.19294705E+03</rscale>
<asrwt>0</asrwt>
<pdfrwt beam="1">  1       21 0.98823852E-01 0.19294705E+03</pdfrwt>
<pdfrwt beam="2">  1       21 0.87095626E-01 0.19294705E+03</pdfrwt>
<totfact> 0.95646099E+02</totfact>
</mgrwt>
</event>
<event>
 5    0  0.1911311E+001  0.3024113E+03  0.7546771E-02  0.1084041E+00
         21   -1    0    0  503  501  0.00000000000E+00  0.00000000000E+00  0.16634161017E+03  0.16634161017E+03  0.00000000000E+00 0. -1.
         21   -1    0    0  504  502 -0.00000000000E+00 -0.00000000000E+00 -0.12799818037E+04  0.12799818037E+04  0.00000000000E+00 0. -1.
         25    1    1    2    0    0 -0.28460687802E+03 -0.16019178643E+03 -0.74449944472E+03  0.82253687251E+03  0.12500000000E+03 0.  0.
         21    1    1    2  503  502  0.62890409409E+02  0.12883541637E+02 -0.35116951103E+03  0.35698909608E+03  0.00000000000E+00 0. -1.
         21    1    1    2  504  501  0.22171646861E+03  0.14730824479E+03 -0.17971237821E+02  0.26679744531E+03  0.00000000000E+00 0. -1.
<mgrwt>
<rscale>  4 0.30241132E+03</rscale>
<asrwt>0</asrwt>
<pdfrwt beam="1">  1       21 0.25591018E-01 0.30241132E+03</pdfrwt>
<pdfrwt beam="2">  1       21 0.19692027E+00 0.30241132E+03</pdfrwt>
<totfact> 0.18581732E+03</totfact>
</mgrwt>
</event>
