<LesHouchesEvents version="3.0">
  <!--
  <scalesfunctionalform>
    muR  H_T/2 := sum_i mT(i)/2, i=final state
    muF1 H_T/2 := sum_i mT(i)/2, i=final state
    muF2 H_T/2 := sum_i mT(i)/2, i=final state
    QES  H_T/2 := sum_i mT(i)/2, i=final state
  </scalesfunctionalform>
HERWIG6   
  -->
  <header>
      132
  </header>
  <init>
   2212   2212 0.65000000D+04 0.65000000D+04 -1 -1   247000   247000 -3   1
 0.19993355D-01 0.45221452D-03 0.36102257D-03     66
  </init>
  <event>
  6     66 0.36102257E-03 0.41136981E+03 0.75467711E-02 0.10140522E+00
        1 -1    0    0  502    0 0.00000000E+00 0.00000000E+00 0.20636204E+04 0.20636204E+04 0.32000000E+00 0.0000E+00 0.9000E+01
        2 -1    0    0  501    0 0.00000000E+00 0.00000000E+00 -.14574115E+04 0.14574115E+04 0.32000000E+00 0.0000E+00 0.9000E+01
       25  1    1    2    0    0 -.25729531E+03 0.11600040E+03 -.10300754E+04 0.10753313E+04 0.12500000E+03 0.0000E+00 0.9000E+01
       23  1    1    2    0    0 -.14568666E+03 0.14605756E+02 -.32489435E+03 0.36784442E+03 0.91188000E+02 0.0000E+00 0.9000E+01
        1  1    1    2  501    0 0.39882784E+03 -.20073005E+03 0.19572142E+04 0.20074969E+04 0.32000000E+00 0.0000E+00 0.9000E+01
        2  1    1    2  502    0 0.41541278E+01 0.70123898E+02 0.39645277E+01 0.70359347E+02 0.32000000E+00 0.0000E+00 0.9000E+01
#aMCatNLO 2  0  0  2  5 0.70246835D+02 0.00000000D+00  -5  6  0 0.00000000D+00 0.00000000D+00 0.00000000D+00 0.00000000D+00 0.00000000D+00
  <mgrwgt>
 0.1559975627D-01    3    2    0
 0.169849259608815D+04 0.000000000000000D+00 0.000000000000000D+00 0.169849259608815D+04
 0.169849259608815D+04 0.000000000000000D+00 0.000000000000000D+00 -.169849259608815D+04
 0.127702616719774D+04 -.255735256097551D+03 0.142334926791595D+03 -.123673403733854D+04
 0.431381187186265D+03 -.145159318631730D+03 0.235075735557245D+02 -.395159010417485D+03
 0.168857783779229D+04 0.400894574729281D+03 -.165842500347319D+03 0.163189304775603D+04
 0.000000000000000D+00 0.000000000000000D+00 0.000000000000000D+00 -.000000000000000D+00
 0.173000959525000D+04 0.000000000000000D+00 0.000000000000000D+00 0.173000959525000D+04
 0.173845446523066D+04 0.000000000000000D+00 0.000000000000000D+00 -.173845446523066D+04
 0.127467370230290D+04 -.257295309166394D+03 0.116000397033157D+03 -.123673403733854D+04
 0.431165659699487D+03 -.145686660766119D+03 0.146057564263436D+02 -.395159010417485D+03
 0.169187207566719D+04 0.398827842146583D+03 -.200730051154903D+03 0.163189304775603D+04
 0.707526228110829D+02 0.415412778592982D+01 0.701238976954021D+02 -.844486998066388D+01
-.105588789136D-04 0.000000000000D+00 0.000000000000D+00 0.654251608246D-07 0.000000000000D+00  6 1 2 25 23 1 2 4 0.31169621D+00 0.22620696D+00 0.24895557D+06 0.24895557D+06 0.24895557D+06 0.11288470D+01  1  2 13  8  6  2       21 -.975803950875D-05 0.100000000000D+01
-.105590512316D-04 0.000000000000D+00 0.000000000000D+00 0.654251608246D-07 0.000000000000D+00  6 1 2 25 23 1 2 4 0.31169621D+00 0.22625349D+00 0.24895557D+06 0.24895557D+06 0.24895557D+06 0.11288470D+01  1  2 13  8  6  2       21 -.975445383386D-05 0.100000000000D+01
0.176057413229D-01 0.000000000000D+00 0.000000000000D+00 0.660695989846D-07 0.184656297673D-08  6 1 2 25 23 1 2 4 0.31748000D+00 0.22421711D+00 0.24895557D+06 0.24895557D+06 0.24895557D+06 0.11288470D+01  1  2  1  8  6  2       21 0.156192687658D-01 0.100000000000D+01
  </mgrwgt>
  </event>
  <event>
  5     66 -.36102257E-03 0.45462322E+02 0.75467711E-02 0.11131542E+00
        1 -1    0    0  502    0 0.00000000E+00 0.00000000E+00 0.26833977E+03 0.26833996E+03 0.32000000E+00 0.0000E+00 0.9000E+01
       21 -1    0    0  501  502 0.00000000E+00 0.00000000E+00 -.83132518E+02 0.83135901E+02 0.75000000E+00 0.0000E+00 0.9000E+01
       25  1    1    2    0    0 0.12848752E+02 -.36504743E+02 0.14123811E+03 0.19253802E+03 0.12500000E+03 0.0000E+00 0.9000E+01
       23  1    1    2    0    0 -.41545286E+02 0.12450350E+01 0.72087997E+01 0.10047278E+03 0.91188000E+02 0.0000E+00 0.9000E+01
        1  1    1    2  501    0 0.28696533E+02 0.35259708E+02 0.36760343E+02 0.58465061E+02 0.32000000E+00 0.0000E+00 0.9000E+01
#aMCatNLO 1  0  0  2  1 0.45614389D+02 0.00000000D+00  -5  6  0 0.00000000D+00 0.00000000D+00 0.00000000D+00 0.00000000D+00 0.00000000D+00
  <mgrwgt>
 -.3090435472D-01   12    2    0
 0.149359929350661D+03 0.000000000000000D+00 0.000000000000000D+00 0.149359929350661D+03
 0.149359929350661D+03 0.000000000000000D+00 0.000000000000000D+00 -.149359929350661D+03
 0.138973550044009D+03 0.128484293315649D+02 -.365051403036001D+02 0.468074802457984D+02
 0.113747612278853D+03 -.415455501625945D+02 0.124471006105544D+01 -.538115778777349D+02
 0.459986963784602D+02 0.286971208310296D+02 0.352604302425446D+02 0.700409763193656D+01
 0.000000000000000D+00 -.000000000000000D+00 -.000000000000000D+00 -.000000000000000D+00
 0.180244567360052D+03 0.000000000000000D+00 0.000000000000000D+00 0.180244567360052D+03
 0.126534776831504D+04 0.000000000000000D+00 0.000000000000000D+00 -.126534776831504D+04
 0.156242677312096D+03 0.810009500017315D+02 0.588898170382340D+01 0.468074802457984D+02
 0.111578333105182D+03 0.104723598548873D+02 0.336023338461671D+02 -.538115778777349D+02
 0.785843258266478D+02 0.574578941530991D+02 0.531510045199741D+02 0.700409763193656D+01
 0.109918699943117D+04 -.148931204009718D+03 -.926423200699646D+02 -.108510320095499D+04
0.106125708348D-05 0.000000000000D+00 0.000000000000D+00 0.216551717058D-06 0.000000000000D+00  6 1 21 25 23 1 21 2 0.41283316D-01 0.12789893D-01 0.19117213D+05 0.19117213D+05 0.19117213D+05 0.12359903D+01  1  2  2  2  6  2       21 0.930669409691D-02 0.100000000000D+01
-.495969485017D-07 0.560040749204D-07 -.214237228983D-08 0.216551717058D-06 0.000000000000D+00  6 1 21 25 23 1 21 4 0.41283316D-01 0.12789893D-01 0.19117213D+05 0.19117213D+05 0.19117213D+05 0.12359903D+01  1  2  3  2  6  2       21 -.664446332455D-03 0.100000000000D+01
0.103900202503D-06 0.000000000000D+00 0.000000000000D+00 0.216551717058D-06 0.000000000000D+00  6 1 21 25 23 1 21 4 0.41283316D-01 0.12789893D-01 0.19117213D+05 0.19117213D+05 0.19117213D+05 0.12359903D+01  1  2 15  2  6  2       21 0.139194266139D-02 0.100000000000D+01
-.166569456401D-03 0.000000000000D+00 -.266998977053D-04 0.216551717058D-06 0.000000000000D+00  6 1 21 25 23 1 21 4 0.41283316D-01 0.12026774D+00 0.19117213D+05 0.19117213D+05 0.19117213D+05 0.12359903D+01  1  2  5  2  6  2       21 -.233307205529D-01 0.100000000000D+01
-.720343188823D-04 0.000000000000D+00 -.116451029014D-04 0.216551717058D-06 0.000000000000D+00  6 1 -1 25 23 1 -1 4 0.41283316D-01 0.12026774D+00 0.19117213D+05 0.19117213D+05 0.19117213D+05 0.12359903D+01  1  2  5  5  6  2       21 -.116638188506D-02 0.100000000000D+01
-.720343188823D-04 0.000000000000D+00 -.116451029014D-04 0.216551717058D-06 0.000000000000D+00  6 1 1 25 23 1 1 4 0.41283316D-01 0.12026774D+00 0.19117213D+05 0.19117213D+05 0.19117213D+05 0.12359903D+01  1  2  5  6  6  2       21 -.501069413169D-02 0.100000000000D+01
-.720343188823D-04 0.000000000000D+00 -.116451029014D-04 0.216551717058D-06 0.000000000000D+00  6 1 -2 25 23 1 -2 4 0.41283316D-01 0.12026774D+00 0.19117213D+05 0.19117213D+05 0.19117213D+05 0.12359903D+01  1  2  5  7  6  2       21 -.852077788358D-03 0.100000000000D+01
-.720343188823D-04 0.000000000000D+00 -.116451029014D-04 0.216551717058D-06 0.000000000000D+00  6 1 -4 25 23 1 -4 4 0.41283316D-01 0.12026774D+00 0.19117213D+05 0.19117213D+05 0.19117213D+05 0.12359903D+01  1  2  5  7  6  2       21 -.426486266318D-03 0.100000000000D+01
-.720343188823D-04 0.000000000000D+00 -.116451029014D-04 0.216551717058D-06 0.000000000000D+00  6 1 2 25 23 1 2 4 0.41283316D-01 0.12026774D+00 0.19117213D+05 0.19117213D+05 0.19117213D+05 0.12359903D+01  1  2  5  8  6  2       21 -.864730840756D-02 0.100000000000D+01
-.720343188823D-04 0.000000000000D+00 -.116451029014D-04 0.216551717058D-06 0.000000000000D+00  6 1 4 25 23 1 4 4 0.41283316D-01 0.12026774D+00 0.19117213D+05 0.19117213D+05 0.19117213D+05 0.12359903D+01  1  2  5  8  6  2       21 -.426486266318D-03 0.100000000000D+01
-.720343188823D-04 0.000000000000D+00 -.116451029014D-04 0.216551717058D-06 0.000000000000D+00  6 1 -3 25 23 1 -3 4 0.41283316D-01 0.12026774D+00 0.19117213D+05 0.19117213D+05 0.19117213D+05 0.12359903D+01  1  2  5  9  6  2       21 -.538465623370D-03 0.100000000000D+01
-.720343188823D-04 0.000000000000D+00 -.116451029014D-04 0.216551717058D-06 0.000000000000D+00  6 1 3 25 23 1 3 4 0.41283316D-01 0.12026774D+00 0.19117213D+05 0.19117213D+05 0.19117213D+05 0.12359903D+01  1  2  5 10  6  2       21 -.539924223727D-03 0.100000000000D+01
  </mgrwgt>
  </event>
  <event>
  5     66 0.36102257E-03 0.20622904E+02 0.75467711E-02 0.91788875E-01
        1 -1    0    0  502    0 0.00000000E+00 0.00000000E+00 0.48646133E+03 0.48646143E+03 0.32000000E+00 0.0000E+00 0.9000E+01
       21 -1    0    0  501  502 0.00000000E+00 0.00000000E+00 -.17465433E+03 0.17465594E+03 0.75000000E+00 0.0000E+00 0.9000E+01
       25  1    1    2    0    0 -.39324466E+02 0.26114435E+02 0.15840507E+03 0.20723307E+03 0.12500000E+03 0.0000E+00 0.9000E+01
       23  1    1    2    0    0 0.57765724E+02 -.35346101E+02 0.29223229E+03 0.31353020E+03 0.91188000E+02 0.0000E+00 0.9000E+01
        1  1    1    2  501    0 -.18441259E+02 0.92316659E+01 -.13883036E+03 0.14035410E+03 0.32000000E+00 0.0000E+00 0.9000E+01
#aMCatNLO 1  0  0  2  1 0.13080339D+01 0.00000000D+00  -5  6  0 0.00000000D+00 0.00000000D+00 0.00000000D+00 0.00000000D+00 0.00000000D+00
  <mgrwgt>
 0.8038086835D+00   12    2    0
 0.291484378860079D+03 0.000000000000000D+00 0.000000000000000D+00 0.291484378860079D+03
 0.291484378860079D+03 0.000000000000000D+00 0.000000000000000D+00 -.291484378860079D+03
 0.150288644240983D+03 -.393244613176000D+02 0.261144329360111D+02 0.687989805324470D+02
 0.199256348773365D+03 0.577657303273660D+02 -.353461040090179D+02 0.163711986468989D+03
 0.233423764705811D+03 -.184412690097660D+02 0.923167107300677D+01 -.232510967001436D+03
 0.000000000000000D+00 0.000000000000000D+00 0.000000000000000D+00 -.000000000000000D+00
 0.912578374133004D+03 0.000000000000000D+00 0.000000000000000D+00 0.912578374133004D+03
 0.168346992283872D+04 0.000000000000000D+00 0.000000000000000D+00 -.168346992283872D+04
 0.349062591487696D+03 -.273978944619541D+03 -.162548241943629D+03 0.687989805324470D+02
 0.383572663718197D+03 -.216116521270581D+03 -.255547983220673D+03 0.163711986468989D+03
 0.516387261129117D+03 -.370791491162802D+03 -.274058613733912D+03 -.232510967001436D+03
 0.134702578063672D+04 0.860886957052924D+03 0.692154838898214D+03 -.770891548705718D+03
0.274779234707D-03 0.000000000000D+00 0.000000000000D+00 0.173308718533D-04 0.000000000000D+00  6 1 21 25 23 1 21 2 0.74840336D-01 0.26870028D-01 0.17932438D+05 0.17932438D+05 0.17932438D+05 0.12390777D+01  1  2  2  2  6  2       21 0.292822747384D+00 0.100000000000D+01
0.103130307483D-03 0.145004985942D-04 -.554700107466D-06 0.173308718533D-04 0.000000000000D+00  6 1 21 25 23 1 21 4 0.74840336D-01 0.26870028D-01 0.17932438D+05 0.17932438D+05 0.17932438D+05 0.12390777D+01  1  2  3  2  6  2       21 0.168734660793D+00 0.100000000000D+01
0.263735544580D-04 0.000000000000D+00 0.000000000000D+00 0.173308718533D-04 0.000000000000D+00  6 1 21 25 23 1 21 4 0.74840336D-01 0.26870028D-01 0.17932438D+05 0.17932438D+05 0.17932438D+05 0.12390777D+01  1  2 15  2  6  2       21 0.431505817639D-01 0.100000000000D+01
0.345379366107D-01 0.000000000000D+00 -.128839926279D-01 0.173308718533D-04 0.000000000000D+00  6 1 21 25 23 1 21 4 0.74840336D-01 0.34410961D+00 0.17932438D+05 0.17932438D+05 0.17932438D+05 0.12390777D+01  1  2  5  2  6  2       21 0.892122460886D-01 0.100000000000D+01
0.151920797120D-01 0.000000000000D+00 -.566990756147D-02 0.173308718533D-04 0.000000000000D+00  6 1 -1 25 23 1 -1 4 0.74840336D-01 0.34410961D+00 0.17932438D+05 0.17932438D+05 0.17932438D+05 0.12390777D+01  1  2  5  5  6  2       21 0.387472184901D-02 0.100000000000D+01
0.151920797120D-01 0.000000000000D+00 -.566990756147D-02 0.173308718533D-04 0.000000000000D+00  6 1 1 25 23 1 1 4 0.74840336D-01 0.34410961D+00 0.17932438D+05 0.17932438D+05 0.17932438D+05 0.12390777D+01  1  2  5  6  6  2       21 0.531704903356D-01 0.100000000000D+01
0.151920797120D-01 0.000000000000D+00 -.566990756147D-02 0.173308718533D-04 0.000000000000D+00  6 1 -2 25 23 1 -2 4 0.74840336D-01 0.34410961D+00 0.17932438D+05 0.17932438D+05 0.17932438D+05 0.12390777D+01  1  2  5  7  6  2       21 0.332396640076D-02 0.100000000000D+01
0.151920797120D-01 0.000000000000D+00 -.566990756147D-02 0.173308718533D-04 0.000000000000D+00  6 1 -4 25 23 1 -4 4 0.74840336D-01 0.34410961D+00 0.17932438D+05 0.17932438D+05 0.17932438D+05 0.12390777D+01  1  2  5  7  6  2       21 0.164747459129D-02 0.100000000000D+01
0.151920797120D-01 0.000000000000D+00 -.566990756147D-02 0.173308718533D-04 0.000000000000D+00  6 1 2 25 23 1 2 4 0.74840336D-01 0.34410961D+00 0.17932438D+05 0.17932438D+05 0.17932438D+05 0.12390777D+01  1  2  5  8  6  2       21 0.141157097122D+00 0.100000000000D+01
0.151920797120D-01 0.000000000000D+00 -.566990756147D-02 0.173308718533D-04 0.000000000000D+00  6 1 4 25 23 1 4 4 0.74840336D-01 0.34410961D+00 0.17932438D+05 0.17932438D+05 0.17932438D+05 0.12390777D+01  1  2  5  8  6  2       21 0.164747459129D-02 0.100000000000D+01
0.151920797120D-01 0.000000000000D+00 -.566990756147D-02 0.173308718533D-04 0.000000000000D+00  6 1 -3 25 23 1 -3 4 0.74840336D-01 0.34410961D+00 0.17932438D+05 0.17932438D+05 0.17932438D+05 0.12390777D+01  1  2  5  9  6  2       21 0.250243945115D-02 0.100000000000D+01
0.151920797120D-01 0.000000000000D+00 -.566990756147D-02 0.173308718533D-04 0.000000000000D+00  6 1 3 25 23 1 3 4 0.74840336D-01 0.34410961D+00 0.17932438D+05 0.17932438D+05 0.17932438D+05 0.12390777D+01  1  2  5 10  6  2       21 0.256478308572D-02 0.100000000000D+01
  </mgrwgt>
  </event>
  <event>
  5     66 0.36102257E-03 0.15112993E+03 0.75467711E-02 0.10886650E+00
        1 -1    0    0  502    0 0.00000000E+00 0.00000000E+00 0.29480542E+04 0.29480543E+04 0.32000000E+00 0.0000E+00 0.9000E+01
       21 -1    0    0  501  502 0.00000000E+00 0.00000000E+00 -.31943496E+02 0.31952300E+02 0.75000000E+00 0.0000E+00 0.9000E+01
       25  1    1    2    0    0 -.16392947E+03 -.62778116E+02 0.10174328E+04 0.10400040E+04 0.12500000E+03 0.0000E+00 0.9000E+01
       23  1    1    2    0    0 0.44355292E+02 -.29646127E+02 0.16160928E+04 0.16195424E+04 0.91188000E+02 0.0000E+00 0.9000E+01
        1  1    1    2  501    0 0.11957417E+03 0.92424243E+02 0.28258514E+03 0.32046012E+03 0.32000000E+00 0.0000E+00 0.9000E+01
#aMCatNLO 1  0  0  2  2 0.11301220D+03 0.00000000D+00  -5  6  0 0.00000000D+00 0.00000000D+00 0.00000000D+00 0.00000000D+00 0.00000000D+00
  <mgrwgt>
 0.2944618259D-01    4    2    0
 0.306894611794321D+03 0.000000000000000D+00 0.000000000000000D+00 0.306894611794321D+03
 0.306894611794321D+03 0.000000000000000D+00 0.000000000000000D+00 -.306894611794321D+03
 0.215501103399000D+03 -.163929512593868D+03 -.627781521175890D+02 -.132063758245141D+01
 0.184984215042923D+03 0.443552515154644D+02 -.296461588405386D+02 0.151847375347906D+03
 0.213303905146719D+03 0.119574261078403D+03 0.924243109581276D+02 -.150526737765454D+03
 0.000000000000000D+00 0.000000000000000D+00 -.000000000000000D+00 0.000000000000000D+00
 0.393920068348141D+03 0.000000000000000D+00 0.000000000000000D+00 0.393920068348141D+03
 0.351054907322519D+03 0.000000000000000D+00 0.000000000000000D+00 -.351054907322519D+03
 0.240699225337577D+03 -.200983174404204D+03 -.437622737171502D+02 -.132063758245141D+01
 0.178335556936672D+03 0.148455665987009D+02 -.145018369949740D+02 0.151847375347906D+03
 0.205071753990388D+03 0.855928077412788D+02 0.109863537014557D+03 -.150526737765454D+03
 0.120868439406023D+03 0.100544800064224D+03 -.515994263024330D+02 0.428651610256221D+02
0.910807168988D-04 0.000000000000D+00 0.000000000000D+00 0.111474575216D-06 0.000000000000D+00  6 1 21 25 23 1 21 2 0.45354748D+00 0.49150626D-02 0.55760955D+05 0.55760955D+05 0.55760955D+05 0.11876197D+01  1  2  2  2  6  2       21 0.317229526501D-01 0.100000000000D+01
-.399075041045D-05 0.480646148082D-05 -.183865725901D-06 0.111474575216D-06 0.000000000000D+00  6 1 21 25 23 1 21 4 0.45354748D+00 0.49150626D-02 0.55760955D+05 0.55760955D+05 0.55760955D+05 0.11876197D+01  1  2  3  2  6  2       21 -.196045332087D-02 0.100000000000D+01
0.100476030991D-04 0.000000000000D+00 0.000000000000D+00 0.111474575216D-06 0.000000000000D+00  6 1 21 25 23 1 21 4 0.45354748D+00 0.49150626D-02 0.55760955D+05 0.55760955D+05 0.55760955D+05 0.11876197D+01  1  2 15  2  6  2       21 0.493587792682D-02 0.100000000000D+01
-.106915057930D-04 0.000000000000D+00 0.000000000000D+00 0.111474575216D-06 0.000000000000D+00  6 1 21 25 23 1 21 4 0.45354748D+00 0.49150626D-02 0.55760955D+05 0.55760955D+05 0.55760955D+05 0.11876197D+01  1  2  4  2  6  2       21 -.525219467045D-02 0.100000000000D+01
  </mgrwgt>
  </event>
  <event>
  5     66 -.36102257E-03 0.42082743E+02 0.75467711E-02 0.11926901E+00
        1 -1    0    0  502    0 0.00000000E+00 0.00000000E+00 0.88086567E+03 0.88086573E+03 0.32000000E+00 0.0000E+00 0.9000E+01
       21 -1    0    0  501  502 0.00000000E+00 0.00000000E+00 -.34598392E+02 0.34606520E+02 0.75000000E+00 0.0000E+00 0.9000E+01
       25  1    1    2    0    0 0.69377347E+02 0.72992251E+02 0.36566289E+03 0.39934375E+03 0.12500000E+03 0.0000E+00 0.9000E+01
       23  1    1    2    0    0 -.51624201E+02 -.34837999E+02 0.45187887E+03 0.46517579E+03 0.91188000E+02 0.0000E+00 0.9000E+01
        1  1    1    2  501    0 -.17753145E+02 -.38154252E+02 0.28725519E+02 0.50952712E+02 0.32000000E+00 0.0000E+00 0.9000E+01
#aMCatNLO 1  0  0  5  2 0.20198552D+00 0.00000000D+00  -5  6  0 0.00000000D+00 0.00000000D+00 0.00000000D+00 0.00000000D+00 0.00000000D+00
  <mgrwgt>
 -.4307674509D-01    7    2    0
 0.174586033877193D+03 0.000000000000000D+00 0.000000000000000D+00 0.174586033877193D+03
 0.174586033877193D+03 -.000000000000000D+00 -.000000000000000D+00 -.174586033877193D+03
 0.160779272375040D+03 0.693774490178855D+02 0.729924706373820D+02 -.915659453448080D+01
 0.124423541532267D+03 -.516241222019858D+02 -.348378291310859D+02 0.573344748972151D+02
 0.639692538470792D+02 -.177533268158997D+02 -.381546415062961D+02 -.481778803627343D+02
 0.000000000000000D+00 0.000000000000000D+00 0.000000000000000D+00 -.000000000000000D+00
 0.174586033877193D+03 0.000000000000000D+00 0.000000000000000D+00 0.174586033877193D+03
 0.174586033877193D+03 -.000000000000000D+00 -.000000000000000D+00 -.174586033877193D+03
 0.160778832870091D+03 0.693770981556328D+02 0.729917165802069D+02 -.915754668276300D+01
 0.124423478043694D+03 -.516243937268655D+02 -.348384126799921D+02 0.573337380497889D+02
 0.858196832395140D+01 -.254043445821707D+01 -.517910701041555D+01 -.635399273303589D+01
 0.553877885166493D+02 -.152122699705503D+02 -.329741968897993D+02 -.418221986339900D+02
0.765950904088D-07 0.000000000000D+00 0.000000000000D+00 0.434458529646D-06 0.000000000000D+00  6 1 21 25 23 1 21 2 0.13551843D+00 0.53234593D-02 0.24496538D+05 0.24496538D+05 0.24496538D+05 0.12242460D+01  1  2  2  3  6  5        1 0.616424697523D-03 0.100000000000D+01
0.236207482842D-08 0.404203396949D-08 -.154623419512D-09 0.434458529646D-06 0.000000000000D+00  6 1 21 25 23 1 21 4 0.13551843D+00 0.53234593D-02 0.24496538D+05 0.24496538D+05 0.24496538D+05 0.12242460D+01  1  2  3  3  6  5        1 0.284911617647D-04 0.100000000000D+01
0.778295534283D-08 0.000000000000D+00 0.000000000000D+00 0.434458529646D-06 0.000000000000D+00  6 1 21 25 23 1 21 4 0.13551843D+00 0.53234593D-02 0.24496538D+05 0.24496538D+05 0.24496538D+05 0.12242460D+01  1  2 15  3  6  5        1 0.938773983836D-04 0.100000000000D+01
-.618101721568D-04 0.000000000000D+00 0.000000000000D+00 0.434458529646D-06 0.000000000000D+00  6 1 21 25 23 1 21 4 0.13551843D+00 0.53234593D-02 0.24496538D+05 0.24496538D+05 0.24496538D+05 0.12242460D+01  1  2  4  3  6  5        1 -.745549460343D+00 0.100000000000D+01
-.231301095265D-04 0.000000000000D+00 0.000000000000D+00 0.434458529646D-06 0.000000000000D+00  6 1 21 25 23 1 21 4 0.13551843D+00 0.53234593D-02 0.24496538D+05 0.24496538D+05 0.24496538D+05 0.12242460D+01  1  2  5  3  6  5        1 -.278993571340D+00 0.100000000000D+01
0.576739416427D-04 0.000000000000D+00 -.000000000000D+00 0.434458529646D-06 0.000000000000D+00  6 1 21 25 23 1 21 4 0.13551843D+00 0.53234593D-02 0.24496538D+05 0.24496538D+05 0.24496538D+05 0.12242460D+01  1  2  6  3  6  5        1 0.695658571514D+00 0.100000000000D+01
0.236337838773D-04 0.000000000000D+00 0.000000000000D+00 0.434458529646D-06 0.593828006304D-05  6 1 21 25 23 1 21 4 0.13551843D+00 0.53234593D-02 0.24496499D+05 0.24496499D+05 0.24496499D+05 0.12242461D+01  1  2 11  3  6  5        1 0.285068921822D+00 0.100000000000D+01
  </mgrwgt>
  </event>
  <event>
  6     66 0.36102257E-03 0.21808856E+02 0.75467711E-02 0.12242701E+00
        1 -1    0    0  502    0 0.00000000E+00 0.00000000E+00 0.10592973E+04 0.10592974E+04 0.32000000E+00 0.0000E+00 0.9000E+01
       21 -1    0    0  503  502 0.00000000E+00 0.00000000E+00 -.50528588E+02 0.50534153E+02 0.75000000E+00 0.0000E+00 0.9000E+01
       25  1    1    2    0    0 0.10805516E+02 0.13048580E+02 0.59407136E+03 0.60731607E+03 0.12500000E+03 0.0000E+00 0.9000E+01
       23  1    1    2    0    0 0.46287742E+01 -.10723069E+02 0.43847145E+03 0.44800544E+03 0.91188000E+02 0.0000E+00 0.9000E+01
        1  1    1    2  501    0 0.10726094E+02 0.12279113E+02 -.84271588E-01 0.16307520E+02 0.32000000E+00 0.0000E+00 0.9000E+01
       21  1    1    2  503  501 -.26160384E+02 -.14604624E+02 -.23689810E+02 0.38202491E+02 0.75000000E+00 0.0000E+00 0.9000E+01
#aMCatNLO 2  0  0  2  1 0.79867542D+02 0.00000000D+00  -5  6  0 0.00000000D+00 0.00000000D+00 0.00000000D+00 0.00000000D+00 0.00000000D+00
  <mgrwgt>
 0.7174922164D-01    1    2    0
 0.142758954234346D+03 0.000000000000000D+00 0.000000000000000D+00 0.142758954234346D+03
 0.142758954234346D+03 0.000000000000000D+00 0.000000000000000D+00 -.142758954234346D+03
 0.129554952171310D+03 -.107538524920756D+01 0.641575837558666D+01 0.334240515668338D+02
 0.960625558503678D+02 -.411919426403413D+01 -.156068498708836D+02 0.255386328574551D+02
 0.599004004470136D+02 0.519457951324169D+01 0.919109149529691D+01 -.589626844242889D+02
 0.000000000000000D+00 -.000000000000000D+00 -.000000000000000D+00 -.000000000000000D+00
 0.144532251012722D+03 0.000000000000000D+00 0.000000000000000D+00 0.144532251012722D+03
 0.370349580999507D+03 0.000000000000000D+00 0.000000000000000D+00 -.370349580999507D+03
 0.130495938090318D+03 0.108054906542012D+02 0.130485250757230D+02 0.334240515668338D+02
 0.954142734072138D+02 0.462875674085880D+01 -.107231090935701D+02 0.255386328574551D+02
 0.611753798845535D+02 0.107261365080303D+02 0.122792078373264D+02 -.589626844242889D+02
 0.227796240630143D+03 -.261603839030903D+02 -.146046238194792D+02 -.225817329986785D+03
0.145961456512D-04 0.000000000000D+00 0.000000000000D+00 0.109264576135D-04 0.446181660866D-06  6 1 21 25 23 1 21 4 0.16296856D+00 0.77740277D-02 0.17469046D+05 0.17469046D+05 0.17469046D+05 0.12403480D+01  1  2  1  2  6  2       21 0.717492216360D-01 0.100000000000D+01
  </mgrwgt>
  </event>
  <event>
  5     66 0.36102257E-03 0.20377794E+02 0.75467711E-02 0.11759335E+00
        1 -1    0    0  502    0 0.00000000E+00 0.00000000E+00 0.77113028E+03 0.77113034E+03 0.32000000E+00 0.0000E+00 0.9000E+01
       21 -1    0    0  501  502 0.00000000E+00 0.00000000E+00 -.49565668E+02 0.49571342E+02 0.75000000E+00 0.0000E+00 0.9000E+01
       25  1    1    2    0    0 0.84953095E+02 -.82701366E+02 0.37851443E+03 0.41587825E+03 0.12500000E+03 0.0000E+00 0.9000E+01
       23  1    1    2    0    0 -.70818542E+02 0.97379910E+02 0.35164066E+03 0.38270683E+03 0.91188000E+02 0.0000E+00 0.9000E+01
        1  1    1    2  501    0 -.14134553E+02 -.14678544E+02 -.85904846E+01 0.22116602E+02 0.32000000E+00 0.0000E+00 0.9000E+01
#aMCatNLO 1  0  0  5  2 0.43652782D+00 0.00000000D+00  -5  6  0 0.00000000D+00 0.00000000D+00 0.00000000D+00 0.00000000D+00 0.00000000D+00
  <mgrwgt>
 0.4380885481D+00    7    2    0
 0.195509443745783D+03 0.000000000000000D+00 0.000000000000000D+00 0.195509443745783D+03
 0.195509443745783D+03 -.000000000000000D+00 -.000000000000000D+00 -.195509443745783D+03
 0.174388977266147D+03 0.849531785837301D+02 -.827012792898543D+02 0.270179800184099D+02
 0.154357544568512D+03 -.708184683437907D+02 0.973799867278213D+02 0.318258220247200D+02
 0.622723656569071D+02 -.141347102399394D+02 -.146787074379670D+02 -.588438020431300D+02
 0.000000000000000D+00 0.000000000000000D+00 0.000000000000000D+00 -.000000000000000D+00
 0.195509443745783D+03 0.000000000000000D+00 0.000000000000000D+00 0.195509443745783D+03
 0.195509443745783D+03 -.000000000000000D+00 -.000000000000000D+00 -.195509443745783D+03
 0.174385209126375D+03 0.849472846251417D+02 -.827074000869773D+02 0.269934430504398D+02
 0.154352043858710D+03 -.708236852480256D+02 0.973745690425843D+02 0.318041036820821D+02
 0.605713237149265D+02 -.140738501407217D+02 -.145313367231647D+02 -.570933643415146D+02
 0.171031079155563D+01 -.497492363944392D-01 -.135832232442322D+00 -.170418239100736D+01
0.102948553440D-05 0.000000000000D+00 0.000000000000D+00 0.153055886433D-05 0.000000000000D+00  6 1 21 25 23 1 21 2 0.11863587D+00 0.76259289D-02 0.29532778D+05 0.29532778D+05 0.29532778D+05 0.12156145D+01  1  2  2  3  6  5        1 0.541276931170D-02 0.100000000000D+01
0.203709980729D-06 0.543274442127D-07 -.207823468603D-08 0.153055886433D-05 0.000000000000D+00  6 1 21 25 23 1 21 4 0.11863587D+00 0.76259289D-02 0.29532778D+05 0.29532778D+05 0.29532778D+05 0.12156145D+01  1  2  3  3  6  5        1 0.158271723133D-02 0.100000000000D+01
0.723075307865D-07 0.000000000000D+00 0.000000000000D+00 0.153055886433D-05 0.000000000000D+00  6 1 21 25 23 1 21 4 0.11863587D+00 0.76259289D-02 0.29532778D+05 0.29532778D+05 0.29532778D+05 0.12156145D+01  1  2 15  3  6  5        1 0.561790711092D-03 0.100000000000D+01
-.857030464585D-03 0.000000000000D+00 0.000000000000D+00 0.153055886433D-05 0.000000000000D+00  6 1 21 25 23 1 21 4 0.11863587D+00 0.76259289D-02 0.29532778D+05 0.29532778D+05 0.29532778D+05 0.12156145D+01  1  2  4  3  6  5        1 -.665866679293D+01 0.100000000000D+01
-.197850447237D-03 0.000000000000D+00 0.000000000000D+00 0.153055886433D-05 0.000000000000D+00  6 1 21 25 23 1 21 4 0.11863587D+00 0.76259289D-02 0.29532778D+05 0.29532778D+05 0.29532778D+05 0.12156145D+01  1  2  5  3  6  5        1 -.153719180055D+01 0.100000000000D+01
0.205877639827D-03 0.000000000000D+00 -.000000000000D+00 0.153055886433D-05 0.000000000000D+00  6 1 21 25 23 1 21 4 0.11863587D+00 0.76259289D-02 0.29532778D+05 0.29532778D+05 0.29532778D+05 0.12156145D+01  1  2  6  3  6  5        1 0.159955877926D+01 0.100000000000D+01
0.904412643914D-03 0.000000000000D+00 0.000000000000D+00 0.153055886433D-05 0.168709607110D-02  6 1 21 25 23 1 21 4 0.11863587D+00 0.76259289D-02 0.29531980D+05 0.29531980D+05 0.29531980D+05 0.12156157D+01  1  2 11  3  6  5        1 0.702683108511D+01 0.100000000000D+01
  </mgrwgt>
  </event>
  <event>
  5     66 -.36102257E-03 0.24921581E+02 0.75467711E-02 0.11465161E+00
        1 -1    0    0  502    0 0.00000000E+00 0.00000000E+00 0.14758093E+04 0.14758093E+04 0.32000000E+00 0.0000E+00 0.9000E+01
       21 -1    0    0  501  502 0.00000000E+00 0.00000000E+00 -.79219180E+02 0.79222730E+02 0.75000000E+00 0.0000E+00 0.9000E+01
       25  1    1    2    0    0 -.16203972E+03 -.44502693E+02 0.40068524E+03 0.45211837E+03 0.12500000E+03 0.0000E+00 0.9000E+01
       23  1    1    2    0    0 0.13796145E+03 0.38074544E+02 0.10391958E+04 0.10529607E+04 0.91188000E+02 0.0000E+00 0.9000E+01
        1  1    1    2  501    0 0.24078269E+02 0.64281493E+01 -.43290992E+02 0.49952943E+02 0.32000000E+00 0.0000E+00 0.9000E+01
#aMCatNLO 1  0  0  2  5 0.53431503D+01 0.00000000D+00  -5  6  0 0.00000000D+00 0.00000000D+00 0.00000000D+00 0.00000000D+00 0.00000000D+00
  <mgrwgt>
 -.1490220359D+01   41    2    0
 0.341928629354832D+03 0.000000000000000D+00 0.000000000000000D+00 0.341928629354832D+03
 0.341928629354832D+03 0.000000000000000D+00 0.000000000000000D+00 -.341928629354832D+03
 0.209788687791681D+03 -.162039726558083D+03 -.445026954403392D+02 -.122037142248346D+02
 0.272070063932909D+03 0.137961436741501D+03 0.380745404650225D+02 0.212658975087005D+03
 0.201998506985074D+03 0.240782898165824D+02 0.642815497531666D+01 -.200455260862171D+03
 0.000000000000000D+00 0.000000000000000D+00 -.000000000000000D+00 -.000000000000000D+00
 0.341984218523237D+03 0.000000000000000D+00 0.000000000000000D+00 0.341984218523237D+03
 0.500010424694975D+03 0.000000000000000D+00 0.000000000000000D+00 -.500010424694975D+03
 0.210874916892741D+03 -.163590608172047D+03 -.439592180496739D+02 -.122037142248346D+02
 0.271159476599752D+03 0.135958685143331D+03 0.387763672214458D+02 0.212658975087005D+03
 0.201843738593538D+03 0.225894243510774D+02 0.694989996923436D+01 -.200455260862171D+03
 0.158116511132182D+03 0.504249867763870D+01 -.176704914100624D+01 -.158026206171738D+03
0.741361231523D-05 0.000000000000D+00 0.000000000000D+00 0.198786903744D-05 0.000000000000D+00  6 1 21 25 23 1 21 2 0.22704786D+00 0.12187842D-01 0.40815227D+05 0.40815227D+05 0.40815227D+05 0.12011115D+01  1  2  2  2  6  2       21 0.512618485845D-02 0.100000000000D+01
0.247284271648D-05 0.391227070231D-06 -.149659473081D-07 0.198786903744D-05 0.000000000000D+00  6 1 21 25 23 1 21 4 0.22704786D+00 0.12187842D-01 0.40815227D+05 0.40815227D+05 0.40815227D+05 0.12011115D+01  1  2  3  2  6  2       21 0.246676353433D-02 0.100000000000D+01
0.617545823390D-06 0.000000000000D+00 0.000000000000D+00 0.198786903744D-05 0.000000000000D+00  6 1 21 25 23 1 21 4 0.22704786D+00 0.12187842D-01 0.40815227D+05 0.40815227D+05 0.40815227D+05 0.12011115D+01  1  2 15  2  6  2       21 0.616027662317D-03 0.100000000000D+01
0.292339359499D-02 0.000000000000D+00 0.000000000000D+00 0.198523143153D-05 0.000000000000D+00  6 1 21 25 23 1 21 4 0.22704786D+00 0.17823206D-01 0.41562123D+05 0.41562123D+05 0.41562123D+05 0.12003144D+01  1  2 12  2  6  2       21 0.145463029183D+01 0.100000000000D+01
0.269268481346D-02 0.000000000000D+00 0.000000000000D+00 0.198523143153D-05 0.000000000000D+00  6 1 21 25 23 1 21 4 0.22704786D+00 0.18329059D-01 0.41562123D+05 0.41562123D+05 0.41562123D+05 0.12003144D+01  1  2 12  2  6  2       21 0.127215714282D+01 0.100000000000D+01
-.101117648504D-01 0.000000000000D+00 0.000000000000D+00 0.198786903744D-05 0.000000000000D+00  6 1 21 25 23 1 21 4 0.22704786D+00 0.12187842D-01 0.40815227D+05 0.40815227D+05 0.40815227D+05 0.12011115D+01  1  2  4  2  6  2       21 -.100869063101D+02 0.100000000000D+01
-.108450343702D-01 0.000000000000D+00 -.956965516109D-05 0.198786903744D-05 0.000000000000D+00  6 1 21 25 23 1 21 4 0.22704786D+00 0.17823743D-01 0.40815227D+05 0.40815227D+05 0.40815227D+05 0.12011115D+01  1  2  5  2  6  2       21 -.541536369694D+01 0.100000000000D+01
0.872797941447D-02 0.000000000000D+00 0.728386331306D-05 0.198786903744D-05 0.000000000000D+00  6 1 21 25 23 1 21 4 0.22704786D+00 0.12187842D-01 0.40815227D+05 0.40815227D+05 0.40815227D+05 0.12011115D+01  1  2  6  2  6  2       21 0.870652274181D+01 0.100000000000D+01
0.518436231300D-02 0.000000000000D+00 0.000000000000D+00 0.198786903744D-05 0.187173701305D-05  6 1 21 25 23 1 21 4 0.22708477D+00 0.17822573D-01 0.41562123D+05 0.41562123D+05 0.41562123D+05 0.12003144D+01  1  2 11  2  6  2       21 0.257887889433D+01 0.100000000000D+01
0.314678689761D-03 0.000000000000D+00 0.000000000000D+00 0.198523143153D-05 0.000000000000D+00  6 1 -1 25 23 1 -1 4 0.22704786D+00 0.17823206D-01 0.41562123D+05 0.41562123D+05 0.41562123D+05 0.12003144D+01  1  2 12  5  6  2       21 0.120799187903D-01 0.100000000000D+01
0.314841948199D-03 0.000000000000D+00 0.000000000000D+00 0.198523143153D-05 0.000000000000D+00  6 1 -1 25 23 1 -1 4 0.22704786D+00 0.18329059D-01 0.41562123D+05 0.41562123D+05 0.41562123D+05 0.12003144D+01  1  2 12  5  6  2       21 0.115547784970D-01 0.100000000000D+01
-.116700341739D-02 0.000000000000D+00 -.120404905920D-05 0.198786903744D-05 0.000000000000D+00  6 1 -1 25 23 1 -1 4 0.22704786D+00 0.17823743D-01 0.40815227D+05 0.40815227D+05 0.40815227D+05 0.12011115D+01  1  2  5  5  6  2       21 -.449384976156D-01 0.100000000000D+01
0.546068004214D-03 0.000000000000D+00 0.000000000000D+00 0.198786903744D-05 0.194442016648D-06  6 1 -1 25 23 1 -1 4 0.22708477D+00 0.17822573D-01 0.41562123D+05 0.41562123D+05 0.41562123D+05 0.12003144D+01  1  2 11  5  6  2       21 0.209560729302D-01 0.100000000000D+01
0.314678689761D-03 0.000000000000D+00 0.000000000000D+00 0.198523143153D-05 0.000000000000D+00  6 1 1 25 23 1 1 4 0.22704786D+00 0.17823206D-01 0.41562123D+05 0.41562123D+05 0.41562123D+05 0.12003144D+01  1  2 12  6  6  2       21 0.174978721914D-01 0.100000000000D+01
0.314841948199D-03 0.000000000000D+00 0.000000000000D+00 0.198523143153D-05 0.000000000000D+00  6 1 1 25 23 1 1 4 0.22704786D+00 0.18329059D-01 0.41562123D+05 0.41562123D+05 0.41562123D+05 0.12003144D+01  1  2 12  6  6  2       21 0.168842341109D-01 0.100000000000D+01
-.116700341739D-02 0.000000000000D+00 -.120404905920D-05 0.198786903744D-05 0.000000000000D+00  6 1 1 25 23 1 1 4 0.22704786D+00 0.17823743D-01 0.40815227D+05 0.40815227D+05 0.40815227D+05 0.12011115D+01  1  2  5  6  6  2       21 -.650952298849D-01 0.100000000000D+01
0.592793688490D-03 0.000000000000D+00 0.000000000000D+00 0.198786903744D-05 0.900648460493D-07  6 1 1 25 23 1 1 4 0.22708477D+00 0.17822573D-01 0.41562123D+05 0.41562123D+05 0.41562123D+05 0.12003144D+01  1  2 11  6  6  2       21 0.329521075004D-01 0.100000000000D+01
0.314678689761D-03 0.000000000000D+00 0.000000000000D+00 0.198523143153D-05 0.000000000000D+00  6 1 -2 25 23 1 -2 4 0.22704786D+00 0.17823206D-01 0.41562123D+05 0.41562123D+05 0.41562123D+05 0.12003144D+01  1  2 12  7  6  2       21 0.111596762271D-01 0.100000000000D+01
0.314678689761D-03 0.000000000000D+00 0.000000000000D+00 0.198523143153D-05 0.000000000000D+00  6 1 -4 25 23 1 -4 4 0.22704786D+00 0.17823206D-01 0.41562123D+05 0.41562123D+05 0.41562123D+05 0.12003144D+01  1  2 12  7  6  2       21 0.643237261352D-02 0.100000000000D+01
0.314841948199D-03 0.000000000000D+00 0.000000000000D+00 0.198523143153D-05 0.000000000000D+00  6 1 -2 25 23 1 -2 4 0.22704786D+00 0.18329059D-01 0.41562123D+05 0.41562123D+05 0.41562123D+05 0.12003144D+01  1  2 12  7  6  2       21 0.106511985723D-01 0.100000000000D+01
0.314841948199D-03 0.000000000000D+00 0.000000000000D+00 0.198523143153D-05 0.000000000000D+00  6 1 -4 25 23 1 -4 4 0.22704786D+00 0.18329059D-01 0.41562123D+05 0.41562123D+05 0.41562123D+05 0.12003144D+01  1  2 12  7  6  2       21 0.612062247234D-02 0.100000000000D+01
-.116700341739D-02 0.000000000000D+00 -.120404905920D-05 0.198786903744D-05 0.000000000000D+00  6 1 -2 25 23 1 -2 4 0.22704786D+00 0.17823743D-01 0.40815227D+05 0.40815227D+05 0.40815227D+05 0.12011115D+01  1  2  5  7  6  2       21 -.415144019830D-01 0.100000000000D+01
-.116700341739D-02 0.000000000000D+00 -.120404905920D-05 0.198786903744D-05 0.000000000000D+00  6 1 -4 25 23 1 -4 4 0.22704786D+00 0.17823743D-01 0.40815227D+05 0.40815227D+05 0.40815227D+05 0.12011115D+01  1  2  5  7  6  2       21 -.239158475005D-01 0.100000000000D+01
0.500896321059D-03 0.000000000000D+00 0.000000000000D+00 0.198786903744D-05 0.149720602327D-06  6 1 -2 25 23 1 -2 4 0.22708477D+00 0.17822573D-01 0.41562123D+05 0.41562123D+05 0.41562123D+05 0.12003144D+01  1  2 11  7  6  2       21 0.177582343875D-01 0.100000000000D+01
0.500896321059D-03 0.000000000000D+00 0.000000000000D+00 0.198786903744D-05 0.149720602327D-06  6 1 -4 25 23 1 -4 4 0.22708477D+00 0.17822573D-01 0.41562123D+05 0.41562123D+05 0.41562123D+05 0.12003144D+01  1  2 11  7  6  2       21 0.102357828722D-01 0.100000000000D+01
0.314678689761D-03 0.000000000000D+00 0.000000000000D+00 0.198523143153D-05 0.000000000000D+00  6 1 2 25 23 1 2 4 0.22704786D+00 0.17823206D-01 0.41562123D+05 0.41562123D+05 0.41562123D+05 0.12003144D+01  1  2 12  8  6  2       21 0.212917935855D-01 0.100000000000D+01
0.314678689761D-03 0.000000000000D+00 0.000000000000D+00 0.198523143153D-05 0.000000000000D+00  6 1 4 25 23 1 4 4 0.22704786D+00 0.17823206D-01 0.41562123D+05 0.41562123D+05 0.41562123D+05 0.12003144D+01  1  2 12  8  6  2       21 0.643237261352D-02 0.100000000000D+01
0.314841948199D-03 0.000000000000D+00 0.000000000000D+00 0.198523143153D-05 0.000000000000D+00  6 1 2 25 23 1 2 4 0.22704786D+00 0.18329059D-01 0.41562123D+05 0.41562123D+05 0.41562123D+05 0.12003144D+01  1  2 12  8  6  2       21 0.206235237682D-01 0.100000000000D+01
0.314841948199D-03 0.000000000000D+00 0.000000000000D+00 0.198523143153D-05 0.000000000000D+00  6 1 4 25 23 1 4 4 0.22704786D+00 0.18329059D-01 0.41562123D+05 0.41562123D+05 0.41562123D+05 0.12003144D+01  1  2 12  8  6  2       21 0.612062247234D-02 0.100000000000D+01
-.116700341739D-02 0.000000000000D+00 -.120404905920D-05 0.198786903744D-05 0.000000000000D+00  6 1 2 25 23 1 2 4 0.22704786D+00 0.17823743D-01 0.40815227D+05 0.40815227D+05 0.40815227D+05 0.12011115D+01  1  2  5  8  6  2       21 -.792081105619D-01 0.100000000000D+01
-.116700341739D-02 0.000000000000D+00 -.120404905920D-05 0.198786903744D-05 0.000000000000D+00  6 1 4 25 23 1 4 4 0.22704786D+00 0.17823743D-01 0.40815227D+05 0.40815227D+05 0.40815227D+05 0.12011115D+01  1  2  5  8  6  2       21 -.239158475005D-01 0.100000000000D+01
0.501100692515D-03 0.000000000000D+00 0.000000000000D+00 0.198786903744D-05 0.149781690053D-06  6 1 2 25 23 1 2 4 0.22708477D+00 0.17822573D-01 0.41562123D+05 0.41562123D+05 0.41562123D+05 0.12003144D+01  1  2 11  8  6  2       21 0.338945247376D-01 0.100000000000D+01
0.501100692515D-03 0.000000000000D+00 0.000000000000D+00 0.198786903744D-05 0.149781690053D-06  6 1 4 25 23 1 4 4 0.22708477D+00 0.17822573D-01 0.41562123D+05 0.41562123D+05 0.41562123D+05 0.12003144D+01  1  2 11  8  6  2       21 0.102399591893D-01 0.100000000000D+01
0.314678689761D-03 0.000000000000D+00 0.000000000000D+00 0.198523143153D-05 0.000000000000D+00  6 1 -3 25 23 1 -3 4 0.22704786D+00 0.17823206D-01 0.41562123D+05 0.41562123D+05 0.41562123D+05 0.12003144D+01  1  2 12  9  6  2       21 0.745806836632D-02 0.100000000000D+01
0.314841948199D-03 0.000000000000D+00 0.000000000000D+00 0.198523143153D-05 0.000000000000D+00  6 1 -3 25 23 1 -3 4 0.22704786D+00 0.18329059D-01 0.41562123D+05 0.41562123D+05 0.41562123D+05 0.12003144D+01  1  2 12  9  6  2       21 0.710391897523D-02 0.100000000000D+01
-.116700341739D-02 0.000000000000D+00 -.120404905920D-05 0.198786903744D-05 0.000000000000D+00  6 1 -3 25 23 1 -3 4 0.22704786D+00 0.17823743D-01 0.40815227D+05 0.40815227D+05 0.40815227D+05 0.12011115D+01  1  2  5  9  6  2       21 -.277341165291D-01 0.100000000000D+01
0.500272400427D-03 0.000000000000D+00 0.000000000000D+00 0.198786903744D-05 0.149534109097D-06  6 1 -3 25 23 1 -3 4 0.22708477D+00 0.17822573D-01 0.41562123D+05 0.41562123D+05 0.41562123D+05 0.12003144D+01  1  2 11  9  6  2       21 0.118531660130D-01 0.100000000000D+01
0.314678689761D-03 0.000000000000D+00 0.000000000000D+00 0.198523143153D-05 0.000000000000D+00  6 1 3 25 23 1 3 4 0.22704786D+00 0.17823206D-01 0.41562123D+05 0.41562123D+05 0.41562123D+05 0.12003144D+01  1  2 12 10  6  2       21 0.745734267123D-02 0.100000000000D+01
0.314841948199D-03 0.000000000000D+00 0.000000000000D+00 0.198523143153D-05 0.000000000000D+00  6 1 3 25 23 1 3 4 0.22704786D+00 0.18329059D-01 0.41562123D+05 0.41562123D+05 0.41562123D+05 0.12003144D+01  1  2 12 10  6  2       21 0.710325101542D-02 0.100000000000D+01
-.116700341739D-02 0.000000000000D+00 -.120404905920D-05 0.198786903744D-05 0.000000000000D+00  6 1 3 25 23 1 3 4 0.22704786D+00 0.17823743D-01 0.40815227D+05 0.40815227D+05 0.40815227D+05 0.12011115D+01  1  2  5 10  6  2       21 -.277314107884D-01 0.100000000000D+01
0.499919355343D-03 0.000000000000D+00 0.000000000000D+00 0.198786903744D-05 0.149428582024D-06  6 1 3 25 23 1 3 4 0.22708477D+00 0.17822573D-01 0.41562123D+05 0.41562123D+05 0.41562123D+05 0.12003144D+01  1  2 11 10  6  2       21 0.118436485803D-01 0.100000000000D+01
  </mgrwgt>
  </event>
  <event>
  5     66 -.36102257E-03 0.37622171E+02 0.75467711E-02 0.11885880E+00
        1 -1    0    0  502    0 0.00000000E+00 0.00000000E+00 0.38027693E+03 0.38027707E+03 0.32000000E+00 0.0000E+00 0.9000E+01
       21 -1    0    0  501  502 0.00000000E+00 0.00000000E+00 -.97005152E+02 0.97008051E+02 0.75000000E+00 0.0000E+00 0.9000E+01
       25  1    1    2    0    0 0.13759979E+01 0.73848223E+02 0.41804081E+02 0.15108949E+03 0.12500000E+03 0.0000E+00 0.9000E+01
       23  1    1    2    0    0 0.23690757E+02 -.10190301E+03 0.79552320E+02 0.15996655E+03 0.91188000E+02 0.0000E+00 0.9000E+01
        1  1    1    2  501    0 -.25066755E+02 0.28054782E+02 0.16191538E+03 0.16622908E+03 0.32000000E+00 0.0000E+00 0.9000E+01
#aMCatNLO 1  0  0  5  2 0.63081474D+01 0.00000000D+00  -5  6  0 0.00000000D+00 0.00000000D+00 0.00000000D+00 0.00000000D+00 0.00000000D+00
  <mgrwgt>
 -.6515643899D-02    8    2    0
 0.192066514331549D+03 0.000000000000000D+00 0.000000000000000D+00 0.192066514331549D+03
 0.192066514331549D+03 -.000000000000000D+00 -.000000000000000D+00 -.192066514331549D+03
 0.156901029588695D+03 0.137606689910207D+01 0.738481459693904D+02 -.594768094534768D+02
 0.140094073106106D+03 0.236908188641229D+02 -.101903074472733D+03 -.191208391555128D+02
 0.871379259682971D+02 -.250668857632250D+02 0.280549285033423D+02 0.785976486089896D+02
 0.000000000000000D+00 -.000000000000000D+00 0.000000000000000D+00 0.000000000000000D+00
 0.192066514331549D+03 0.000000000000000D+00 0.000000000000000D+00 0.192066514331549D+03
 0.192066514331549D+03 -.000000000000000D+00 -.000000000000000D+00 -.192066514331549D+03
 0.156584581150954D+03 0.891140327732930D+00 0.743908771414091D+02 -.579563139033854D+02
 0.139490534884896D+03 0.232583332867442D+02 -.101419035407542D+03 -.177647732380968D+02
 0.809759419905309D+02 -.186020322550407D+02 0.226318890081065D+02 0.754908284307505D+02
 0.708197063671673D+01 -.554744135943644D+01 0.439626925802596D+01 0.230258710731702D+00
0.221895719700D-05 0.000000000000D+00 0.000000000000D+00 0.896537974525D-07 0.000000000000D+00  6 1 21 25 23 1 21 2 0.58504377D-01 0.14924103D-01 0.25856046D+05 0.25856046D+05 0.25856046D+05 0.12217331D+01  1  2  2  3  6  5        1 0.933997511797D-02 0.100000000000D+01
-.265113584036D-06 0.117097588360D-06 -.447943527084D-08 0.896537974525D-07 0.000000000000D+00  6 1 21 25 23 1 21 4 0.58504377D-01 0.14924103D-01 0.25856046D+05 0.25856046D+05 0.25856046D+05 0.12217331D+01  1  2  3  3  6  5        1 -.166564112568D-02 0.100000000000D+01
0.269341874194D-06 0.000000000000D+00 0.000000000000D+00 0.896537974525D-07 0.000000000000D+00  6 1 21 25 23 1 21 4 0.58504377D-01 0.14924103D-01 0.25856046D+05 0.25856046D+05 0.25856046D+05 0.12217331D+01  1  2 15  3  6  5        1 0.169220639582D-02 0.100000000000D+01
0.224438159150D-05 0.000000000000D+00 0.000000000000D+00 0.897133832453D-07 0.000000000000D+00  6 1 21 25 23 1 21 4 0.58504377D-01 0.14924103D-01 0.25630841D+05 0.25630841D+05 0.25630841D+05 0.12221390D+01  1  2 12  3  6  5        1 0.141203998023D-01 0.100000000000D+01
-.860982768674D-05 0.000000000000D+00 0.000000000000D+00 0.896537974525D-07 0.000000000000D+00  6 1 21 25 23 1 21 4 0.58504377D-01 0.14924103D-01 0.25856046D+05 0.25856046D+05 0.25856046D+05 0.12217331D+01  1  2  4  3  6  5        1 -.540933544849D-01 0.100000000000D+01
-.775350564597D-05 0.000000000000D+00 0.000000000000D+00 0.896537974525D-07 0.000000000000D+00  6 1 21 25 23 1 21 4 0.58504377D-01 0.14924103D-01 0.25856046D+05 0.25856046D+05 0.25856046D+05 0.12217331D+01  1  2  5  3  6  5        1 -.487133012027D-01 0.100000000000D+01
0.847560459861D-05 0.000000000000D+00 -.000000000000D+00 0.896537974525D-07 0.000000000000D+00  6 1 21 25 23 1 21 4 0.58504377D-01 0.14924103D-01 0.25856046D+05 0.25856046D+05 0.25856046D+05 0.12217331D+01  1  2  6  3  6  5        1 0.532500650080D-01 0.100000000000D+01
0.310803185778D-05 0.000000000000D+00 0.000000000000D+00 0.896537974525D-07 0.410326619536D-07  6 1 21 25 23 1 21 4 0.58504377D-01 0.14924103D-01 0.25630841D+05 0.25630841D+05 0.25630841D+05 0.12221390D+01  1  2 11  3  6  5        1 0.195540065898D-01 0.100000000000D+01
  </mgrwgt>
  </event>
  <event>
  5     66 0.36102257E-03 0.52337145E+02 0.75467711E-02 0.11438510E+00
        1 -1    0    0  502    0 0.00000000E+00 0.00000000E+00 0.38971172E+02 0.38972486E+02 0.32000000E+00 0.0000E+00 0.9000E+01
       21 -1    0    0  501  502 0.00000000E+00 0.00000000E+00 -.11759299E+04 0.11759302E+04 0.75000000E+00 0.0000E+00 0.9000E+01
       25  1    1    2    0    0 0.25832417E+02 0.12710159E+03 -.37440900E+03 0.41548674E+03 0.12500000E+03 0.0000E+00 0.9000E+01
       23  1    1    2    0    0 -.77839018E+02 -.12123252E+03 -.42656438E+03 0.45937856E+03 0.91188000E+02 0.0000E+00 0.9000E+01
        1  1    1    2  501    0 0.52006601E+02 -.58690724E+01 -.33598537E+03 0.34003735E+03 0.32000000E+00 0.0000E+00 0.9000E+01
#aMCatNLO 1  0  0  2  1 0.11273389D+02 0.00000000D+00  -5  6  0 0.00000000D+00 0.00000000D+00 0.00000000D+00 0.00000000D+00 0.00000000D+00
  <mgrwgt>
 0.7438424462D-01   23    2    0
 0.214075478833182D+03 0.000000000000000D+00 0.000000000000000D+00 0.214075478833182D+03
 0.214075478833182D+03 0.000000000000000D+00 0.000000000000000D+00 -.214075478833182D+03
 0.184720735242275D+03 0.258321992131106D+02 0.127101613662261D+03 0.409222105550273D+02
 0.170767236984270D+03 -.778392192571466D+02 -.121232494004697D+03 0.948347120419332D+01
 0.726629854398193D+02 0.520070200440360D+02 -.586911965756443D+01 -.504056817592206D+02
 0.000000000000000D+00 0.000000000000000D+00 0.000000000000000D+00 -.000000000000000D+00
 0.218082252402962D+03 0.000000000000000D+00 0.000000000000000D+00 0.218082252402962D+03
 0.222228934349565D+03 0.000000000000000D+00 0.000000000000000D+00 -.222228934349565D+03
 0.181369887614925D+03 0.249220304867991D+02 0.122369527306252D+03 0.409222105550273D+02
 0.174348179574558D+03 -.786972397567384D+02 -.125693454903396D+03 0.948347120419332D+01
 0.725812812107448D+02 0.516459160415635D+02 -.774654663764235D+01 -.504056817592206D+02
 0.120118383522984D+02 0.212929322837587D+01 0.110704742347857D+02 -.414668194660330D+01
0.220100389048D-04 0.000000000000D+00 0.000000000000D+00 0.220843084547D-06 0.000000000000D+00  6 1 21 25 23 1 21 2 0.59956844D-02 0.18091242D+00 0.40596547D+05 0.40596547D+05 0.40596547D+05 0.12013479D+01  1  2  2  2  6  2       21 0.774386405020D-02 0.100000000000D+01
0.659624306622D-06 0.116150166346D-05 -.444319271755D-07 0.220843084547D-06 0.000000000000D+00  6 1 21 25 23 1 21 4 0.59956844D-02 0.18091242D+00 0.40596547D+05 0.40596547D+05 0.40596547D+05 0.12013479D+01  1  2  3  2  6  2       21 0.334943205832D-03 0.100000000000D+01
0.244813253354D-05 0.000000000000D+00 0.000000000000D+00 0.220843084547D-06 0.000000000000D+00  6 1 21 25 23 1 21 4 0.59956844D-02 0.18091242D+00 0.40596547D+05 0.40596547D+05 0.40596547D+05 0.12013479D+01  1  2 15  2  6  2       21 0.124310967752D-02 0.100000000000D+01
0.630237984637D-04 0.000000000000D+00 0.000000000000D+00 0.219950776834D-06 0.000000000000D+00  6 1 21 25 23 1 21 4 0.59956844D-02 0.18944714D+00 0.42906997D+05 0.42906997D+05 0.42906997D+05 0.11989185D+01  1  2 12  2  6  2       21 0.277507972312D-01 0.100000000000D+01
-.161575931915D-04 0.000000000000D+00 0.000000000000D+00 0.220843084547D-06 0.000000000000D+00  6 1 21 25 23 1 21 4 0.59956844D-02 0.18091242D+00 0.40596547D+05 0.40596547D+05 0.40596547D+05 0.12013479D+01  1  2  4  2  6  2       21 -.820448247248D-02 0.100000000000D+01
-.810280803165D-03 0.000000000000D+00 -.120129765728D-03 0.220843084547D-06 0.000000000000D+00  6 1 21 25 23 1 21 4 0.59956844D-02 0.18991854D+00 0.40596547D+05 0.40596547D+05 0.40596547D+05 0.12013479D+01  1  2  5  2  6  2       21 -.358086670382D+00 0.100000000000D+01
0.811971351791D-03 0.000000000000D+00 0.119564587955D-03 0.220843084547D-06 0.000000000000D+00  6 1 21 25 23 1 21 4 0.59956844D-02 0.18091242D+00 0.40596547D+05 0.40596547D+05 0.40596547D+05 0.12013479D+01  1  2  6  2  6  2       21 0.412301797982D+00 0.100000000000D+01
0.117588095789D-05 0.000000000000D+00 0.000000000000D+00 0.219950776834D-06 0.000000000000D+00  6 1 -1 25 23 1 -1 4 0.59956844D-02 0.18944714D+00 0.42906997D+05 0.42906997D+05 0.42906997D+05 0.11989185D+01  1  2 12  5  6  2       21 0.620551034582D-04 0.100000000000D+01
-.825994914207D-05 0.000000000000D+00 -.139166326535D-05 0.220843084547D-06 0.000000000000D+00  6 1 -1 25 23 1 -1 4 0.59956844D-02 0.18991854D+00 0.40596547D+05 0.40596547D+05 0.40596547D+05 0.12013479D+01  1  2  5  5  6  2       21 -.436345083754D-03 0.100000000000D+01
0.117588095789D-05 0.000000000000D+00 0.000000000000D+00 0.219950776834D-06 0.000000000000D+00  6 1 1 25 23 1 1 4 0.59956844D-02 0.18944714D+00 0.42906997D+05 0.42906997D+05 0.42906997D+05 0.11989185D+01  1  2 12  6  6  2       21 0.407673220758D-03 0.100000000000D+01
-.825994914207D-05 0.000000000000D+00 -.139166326535D-05 0.220843084547D-06 0.000000000000D+00  6 1 1 25 23 1 1 4 0.59956844D-02 0.18991854D+00 0.40596547D+05 0.40596547D+05 0.40596547D+05 0.12013479D+01  1  2  5  6  6  2       21 -.287338639663D-02 0.100000000000D+01
0.117588095789D-05 0.000000000000D+00 0.000000000000D+00 0.219950776834D-06 0.000000000000D+00  6 1 -2 25 23 1 -2 4 0.59956844D-02 0.18944714D+00 0.42906997D+05 0.42906997D+05 0.42906997D+05 0.11989185D+01  1  2 12  7  6  2       21 0.464413513997D-04 0.100000000000D+01
0.117588095789D-05 0.000000000000D+00 0.000000000000D+00 0.219950776834D-06 0.000000000000D+00  6 1 -4 25 23 1 -4 4 0.59956844D-02 0.18944714D+00 0.42906997D+05 0.42906997D+05 0.42906997D+05 0.11989185D+01  1  2 12  7  6  2       21 0.237161985378D-04 0.100000000000D+01
-.825994914207D-05 0.000000000000D+00 -.139166326535D-05 0.220843084547D-06 0.000000000000D+00  6 1 -2 25 23 1 -2 4 0.59956844D-02 0.18991854D+00 0.40596547D+05 0.40596547D+05 0.40596547D+05 0.12013479D+01  1  2  5  7  6  2       21 -.326535234354D-03 0.100000000000D+01
-.825994914207D-05 0.000000000000D+00 -.139166326535D-05 0.220843084547D-06 0.000000000000D+00  6 1 -4 25 23 1 -4 4 0.59956844D-02 0.18991854D+00 0.40596547D+05 0.40596547D+05 0.40596547D+05 0.12013479D+01  1  2  5  7  6  2       21 -.166565650916D-03 0.100000000000D+01
0.117588095789D-05 0.000000000000D+00 0.000000000000D+00 0.219950776834D-06 0.000000000000D+00  6 1 2 25 23 1 2 4 0.59956844D-02 0.18944714D+00 0.42906997D+05 0.42906997D+05 0.42906997D+05 0.11989185D+01  1  2 12  8  6  2       21 0.813486978952D-03 0.100000000000D+01
0.117588095789D-05 0.000000000000D+00 0.000000000000D+00 0.219950776834D-06 0.000000000000D+00  6 1 4 25 23 1 4 4 0.59956844D-02 0.18944714D+00 0.42906997D+05 0.42906997D+05 0.42906997D+05 0.11989185D+01  1  2 12  8  6  2       21 0.237161985378D-04 0.100000000000D+01
-.825994914207D-05 0.000000000000D+00 -.139166326535D-05 0.220843084547D-06 0.000000000000D+00  6 1 2 25 23 1 2 4 0.59956844D-02 0.18991854D+00 0.40596547D+05 0.40596547D+05 0.40596547D+05 0.12013479D+01  1  2  5  8  6  2       21 -.573700696488D-02 0.100000000000D+01
-.825994914207D-05 0.000000000000D+00 -.139166326535D-05 0.220843084547D-06 0.000000000000D+00  6 1 4 25 23 1 4 4 0.59956844D-02 0.18991854D+00 0.40596547D+05 0.40596547D+05 0.40596547D+05 0.12013479D+01  1  2  5  8  6  2       21 -.166565650916D-03 0.100000000000D+01
0.117588095789D-05 0.000000000000D+00 0.000000000000D+00 0.219950776834D-06 0.000000000000D+00  6 1 -3 25 23 1 -3 4 0.59956844D-02 0.18944714D+00 0.42906997D+05 0.42906997D+05 0.42906997D+05 0.11989185D+01  1  2 12  9  6  2       21 0.305863942721D-04 0.100000000000D+01
-.825994914207D-05 0.000000000000D+00 -.139166326535D-05 0.220843084547D-06 0.000000000000D+00  6 1 -3 25 23 1 -3 4 0.59956844D-02 0.18991854D+00 0.40596547D+05 0.40596547D+05 0.40596547D+05 0.12013479D+01  1  2  5  9  6  2       21 -.214948606964D-03 0.100000000000D+01
0.117588095789D-05 0.000000000000D+00 0.000000000000D+00 0.219950776834D-06 0.000000000000D+00  6 1 3 25 23 1 3 4 0.59956844D-02 0.18944714D+00 0.42906997D+05 0.42906997D+05 0.42906997D+05 0.11989185D+01  1  2 12 10  6  2       21 0.307638777640D-04 0.100000000000D+01
-.825994914207D-05 0.000000000000D+00 -.139166326535D-05 0.220843084547D-06 0.000000000000D+00  6 1 3 25 23 1 3 4 0.59956844D-02 0.18991854D+00 0.40596547D+05 0.40596547D+05 0.40596547D+05 0.12013479D+01  1  2  5 10  6  2       21 -.216200407738D-03 0.100000000000D+01
  </mgrwgt>
  </event>
  <event>
  6     66 0.36102257E-03 0.45830508E+02 0.75467711E-02 0.11763726E+00
        1 -1    0    0  502    0 0.00000000E+00 0.00000000E+00 0.22399795E+04 0.22399795E+04 0.32000000E+00 0.0000E+00 0.9000E+01
       21 -1    0    0  503  502 0.00000000E+00 0.00000000E+00 -.21584357E+03 0.21584487E+03 0.75000000E+00 0.0000E+00 0.9000E+01
       25  1    1    2    0    0 0.11187950E+02 -.40402440E+02 0.11240947E+04 0.11318001E+04 0.12500000E+03 0.0000E+00 0.9000E+01
       23  1    1    2    0    0 -.10915705E+02 0.55788724E+01 0.96292780E+03 0.96731354E+03 0.91188000E+02 0.0000E+00 0.9000E+01
        1  1    1    2  501    0 0.44404286E+02 0.54395182E+02 0.13539305E+03 0.15251871E+03 0.32000000E+00 0.0000E+00 0.9000E+01
       21  1    1    2  503  501 -.44676532E+02 -.19571614E+02 -.19827961E+03 0.20419208E+03 0.75000000E+00 0.0000E+00 0.9000E+01
#aMCatNLO 2  0  0  2  5 0.48775409D+02 0.00000000D+00  -5  6  0 0.00000000D+00 0.00000000D+00 0.00000000D+00 0.00000000D+00 0.00000000D+00
  <mgrwgt>
 0.3440238771D+00    3    2    0
 0.179121616125267D+03 0.000000000000000D+00 0.000000000000000D+00 0.179121616125267D+03
 0.179121616125267D+03 0.000000000000000D+00 0.000000000000000D+00 -.179121616125267D+03
 0.140918325717544D+03 -.617542537215609D+01 -.480089367936654D+02 0.434739074900190D+02
 0.107154071773893D+03 -.240917851000413D+02 -.193266174319266D+00 0.508556023718524D+02
 0.110170834759096D+03 0.302672104721974D+02 0.482022029679847D+02 -.943295098618714D+02
 0.000000000000000D+00 -.000000000000000D+00 -.000000000000000D+00 -.000000000000000D+00
 0.181013043350200D+03 0.000000000000000D+00 0.000000000000000D+00 0.181013043350200D+03
 0.267100361950401D+04 0.000000000000000D+00 0.000000000000000D+00 -.267100361950401D+04
 0.138825477733699D+03 0.111879088389211D+02 -.404025163987464D+02 0.434739074900190D+02
 0.105127637145412D+03 -.109157353953088D+02 0.557881492371116D+01 0.508556023718524D+02
 0.117595296842425D+03 0.444043581629439D+02 0.543953158352285D+02 -.943295098618714D+02
 0.249046825113267D+04 -.446765316065562D+02 -.195716143601932D+02 -.248999057615381D+04
-.353522551938D-02 0.000000000000D+00 0.000000000000D+00 0.899076982798D-06 0.000000000000D+00  6 1 21 25 23 1 21 4 0.34101133D+00 0.32925350D-01 0.29385632D+05 0.29385632D+05 0.29385632D+05 0.12158427D+01  1  2 13  2  6  2       21 -.195797267477D+00 0.100000000000D+01
-.353822566198D-02 0.000000000000D+00 0.000000000000D+00 0.899076982798D-06 0.000000000000D+00  6 1 21 25 23 1 21 4 0.34101133D+00 0.33396486D-01 0.29385632D+05 0.29385632D+05 0.29385632D+05 0.12158427D+01  1  2 13  2  6  2       21 -.190565095802D+00 0.100000000000D+01
0.138845900125D-01 0.000000000000D+00 0.000000000000D+00 0.924640806868D-06 0.161470558002D-05  6 1 21 25 23 1 21 4 0.34461223D+00 0.33206794D-01 0.29385632D+05 0.29385632D+05 0.29385632D+05 0.12158427D+01  1  2  1  2  6  2       21 0.730386240411D+00 0.100000000000D+01
  </mgrwgt>
  </event>
  <event>
  5     66 0.36102257E-03 0.29499650E+02 0.75467711E-02 0.12208067E+00
        1 -1    0    0  502    0 0.00000000E+00 0.00000000E+00 0.22190236E+03 0.22190259E+03 0.32000000E+00 0.0000E+00 0.9000E+01
       21 -1    0    0  501  502 0.00000000E+00 0.00000000E+00 -.91197207E+02 0.91200291E+02 0.75000000E+00 0.0000E+00 0.9000E+01
       25  1    1    2    0    0 -.21230006E+02 0.31225366E+02 0.37356584E+02 0.13581698E+03 0.12500000E+03 0.0000E+00 0.9000E+01
       23  1    1    2    0    0 0.10943732E+02 -.58872795E+02 0.39755666E+02 0.11611001E+03 0.91188000E+02 0.0000E+00 0.9000E+01
        1  1    1    2  501    0 0.10286274E+02 0.27647430E+02 0.53592904E+02 0.61175890E+02 0.32000000E+00 0.0000E+00 0.9000E+01
#aMCatNLO 1  0  0  2  5 0.48775409D+02 0.00000000D+00  -5  6  0 0.00000000D+00 0.00000000D+00 0.00000000D+00 0.00000000D+00 0.00000000D+00
  <mgrwgt>
 0.4441812641D-02    1    2    0
 0.142258195879211D+03 0.000000000000000D+00 0.000000000000000D+00 0.142258195879211D+03
 0.142258195879211D+03 0.000000000000000D+00 0.000000000000000D+00 -.142258195879211D+03
 0.132301652683853D+03 -.212301406437358D+02 0.312250046439700D+02 -.212839732218903D+02
 0.109512708741717D+03 0.109436206785701D+02 -.588730941279871D+02 -.959051542873907D+01
 0.427020303328520D+02 0.102865199651657D+02 0.276480894840171D+02 0.308744886506294D+02
 0.000000000000000D+00 -.000000000000000D+00 -.000000000000000D+00 0.000000000000000D+00
 0.251716249148778D+03 0.000000000000000D+00 0.000000000000000D+00 0.251716249148778D+03
 0.153074405336758D+03 0.000000000000000D+00 0.000000000000000D+00 -.153074405336758D+03
 0.134246918705691D+03 0.241370384547352D+01 0.440272835819863D+02 -.212839732218903D+02
 0.108012222002690D+03 0.302388868592709D+02 -.484254116480358D+02 -.959051542873907D+01
 0.481067992936075D+02 0.183415991379492D+02 0.320096208959177D+02 0.308744886506294D+02
 0.114424714483547D+03 -.509941898426937D+02 -.276114928298682D+02 0.986418438120191D+02
0.306891179869D-06 0.000000000000D+00 0.000000000000D+00 0.228254266936D-06 0.000000000000D+00  6 1 21 25 23 1 21 4 0.34139080D-01 0.14030594D-01 0.18113124D+05 0.18113124D+05 0.18113124D+05 0.12385923D+01  1  2 14  2  6  2       21 0.444181264127D-02 0.100000000000D+01
  </mgrwgt>
  </event>
  <event>
  5     66 -.36102257E-03 0.21624882E+02 0.75467711E-02 0.11073301E+00
        1 -1    0    0  502    0 0.00000000E+00 0.00000000E+00 0.27647533E+03 0.27647551E+03 0.32000000E+00 0.0000E+00 0.9000E+01
       21 -1    0    0  501  502 -.00000000E+00 -.00000000E+00 -.27990576E+03 0.27990676E+03 0.75000000E+00 0.0000E+00 0.9000E+01
       25  1    1    2    0    0 -.14636103E+03 0.15422913E+03 -.30666905E+02 0.24854302E+03 0.12500000E+03 0.0000E+00 0.9000E+01
       23  1    1    2    0    0 0.15840052E+03 -.17219205E+03 0.69338887E+02 0.26050712E+03 0.91188000E+02 0.0000E+00 0.9000E+01
        1  1    1    2  501    0 -.12039483E+02 0.17962922E+02 -.42102411E+02 0.47332137E+02 0.32000000E+00 0.0000E+00 0.9000E+01
#aMCatNLO 1  0  0  5  2 0.72440569D+01 0.00000000D+00  -5  6  0 0.00000000D+00 0.00000000D+00 0.00000000D+00 0.00000000D+00 0.00000000D+00
  <mgrwgt>
 -.5654468522D+00    7    2    0
 0.278185850790743D+03 0.000000000000000D+00 0.000000000000000D+00 0.278185850790743D+03
 0.278185850790743D+03 -.000000000000000D+00 -.000000000000000D+00 -.278185850790743D+03
 0.248358425790685D+03 -.146360909772000D+03 0.154228940792259D+03 -.291346112731498D+02
 0.260939922997461D+03 0.158400647523313D+03 -.172192242765898D+03 0.709468707228569D+02
 0.470733527933392D+02 -.120397377513133D+02 0.179633019736392D+02 -.418122594497071D+02
 0.000000000000000D+00 0.000000000000000D+00 0.000000000000000D+00 -.000000000000000D+00
 0.278185850790743D+03 0.000000000000000D+00 0.000000000000000D+00 0.278185850790743D+03
 0.278185850790743D+03 -.000000000000000D+00 -.000000000000000D+00 -.278185850790743D+03
 0.248862043088906D+03 -.146621944748816D+03 0.154618405264915D+03 -.300411478108650D+02
 0.260247349411165D+03 0.158127030252736D+03 -.171784005497105D+03 0.699966377075202D+02
 0.245545739820228D+02 -.125705122417320D+02 0.105717451883708D+02 -.182523294154816D+02
 0.227077350993913D+02 0.106542673781178D+01 0.659385504381976D+01 -.217031604811736D+02
0.749563679146D-04 0.000000000000D+00 0.000000000000D+00 0.545212195894D-06 0.000000000000D+00  6 1 21 25 23 1 21 2 0.42534758D-01 0.43062516D-01 0.67438486D+05 0.67438486D+05 0.67438486D+05 0.11796237D+01  1  2  2  3  6  5        1 0.563978926050D-01 0.100000000000D+01
0.155180961461D-04 0.395555620763D-05 -.151315310933D-06 0.545212195894D-06 0.000000000000D+00  6 1 21 25 23 1 21 4 0.42534758D-01 0.43062516D-01 0.67438486D+05 0.67438486D+05 0.67438486D+05 0.11796237D+01  1  2  3  3  6  5        1 0.162472455167D-01 0.100000000000D+01
0.599167375064D-05 0.000000000000D+00 0.000000000000D+00 0.545212195894D-06 0.000000000000D+00  6 1 21 25 23 1 21 4 0.42534758D-01 0.43062516D-01 0.67438486D+05 0.67438486D+05 0.67438486D+05 0.11796237D+01  1  2 15  3  6  5        1 0.627320475178D-02 0.100000000000D+01
0.899697837205D-04 0.000000000000D+00 0.000000000000D+00 0.545001387232D-06 0.000000000000D+00  6 1 21 25 23 1 21 4 0.42534758D-01 0.43062516D-01 0.67809197D+05 0.67809197D+05 0.67809197D+05 0.11793956D+01  1  2 12  3  6  5        1 0.941093389251D-01 0.100000000000D+01
-.844340727184D-03 0.000000000000D+00 0.000000000000D+00 0.545212195894D-06 0.000000000000D+00  6 1 21 25 23 1 21 4 0.42534758D-01 0.43062516D-01 0.67438486D+05 0.67438486D+05 0.67438486D+05 0.11796237D+01  1  2  4  3  6  5        1 -.884013796867D+00 0.100000000000D+01
-.991643858913D-04 0.000000000000D+00 0.000000000000D+00 0.545212195894D-06 0.000000000000D+00  6 1 21 25 23 1 21 4 0.42534758D-01 0.43062516D-01 0.67438486D+05 0.67438486D+05 0.67438486D+05 0.11796237D+01  1  2  5  3  6  5        1 -.103823826642D+00 0.100000000000D+01
0.238172088565D-03 0.000000000000D+00 -.000000000000D+00 0.545212195894D-06 0.000000000000D+00  6 1 21 25 23 1 21 4 0.42534758D-01 0.43062516D-01 0.67438486D+05 0.67438486D+05 0.67438486D+05 0.11796237D+01  1  2  6  3  6  5        1 0.249363089498D+00 0.100000000000D+01
  </mgrwgt>
  </event>
  <event>
  5     66 -.36102257E-03 0.22437603E+02 0.75467711E-02 0.11066028E+00
        1 -1    0    0  502    0 0.00000000E+00 0.00000000E+00 0.67296132E+03 0.67296140E+03 0.32000000E+00 0.0000E+00 0.9000E+01
       21 -1    0    0  501  502 0.00000000E+00 0.00000000E+00 -.39132074E+02 0.39139260E+02 0.75000000E+00 0.0000E+00 0.9000E+01
       25  1    1    2    0    0 0.10929438E+02 -.61118433E+02 0.35395906E+03 0.38048250E+03 0.12500000E+03 0.0000E+00 0.9000E+01
       23  1    1    2    0    0 -.96251108E+01 0.83517786E+02 0.28297698E+03 0.30896454E+03 0.91188000E+02 0.0000E+00 0.9000E+01
        1  1    1    2  501    0 -.13043274E+01 -.22399354E+02 -.31067854E+01 0.22653627E+02 0.32000000E+00 0.0000E+00 0.9000E+01
#aMCatNLO 1  0  0  2  1 0.22017450D+02 0.00000000D+00  -5  6  0 0.00000000D+00 0.00000000D+00 0.00000000D+00 0.00000000D+00 0.00000000D+00
  <mgrwgt>
 -.1056829026D+00   12    2    0
 0.162286653518592D+03 0.000000000000000D+00 0.000000000000000D+00 0.162286653518592D+03
 0.162286653518592D+03 0.000000000000000D+00 0.000000000000000D+00 -.162286653518592D+03
 0.143549199865375D+03 0.109294476261770D+02 -.611182695338696D+02 0.335630315341346D+02
 0.125256171646979D+03 -.962510248088525D+01 0.835179286921724D+02 0.174920033403569D+02
 0.557679355248312D+02 -.130434514529173D+01 -.223996591583028D+02 -.510550348744915D+02
 0.000000000000000D+00 0.000000000000000D+00 -.000000000000000D+00 -.000000000000000D+00
 0.199928179892691D+03 0.000000000000000D+00 0.000000000000000D+00 0.199928179892691D+03
 0.790379231492962D+03 0.000000000000000D+00 0.000000000000000D+00 -.790379231492962D+03
 0.147264856569593D+03 -.607029596632059D+02 -.353639870889669D+02 0.335630315341346D+02
 0.164653482377269D+03 -.810347402018629D+02 0.109192117913883D+03 0.174920033403569D+02
 0.604024918741087D+02 -.299190808717384D+02 -.121116901527660D+02 -.510550348744915D+02
 0.617986580564682D+03 0.171656780736807D+03 -.617164406721499D+02 -.590451051600270D+03
0.244436519821D-05 0.000000000000D+00 0.000000000000D+00 0.164961741229D-05 0.000000000000D+00  6 1 21 25 23 1 21 2 0.10353307D+00 0.60208777D-02 0.20454260D+05 0.20454260D+05 0.20454260D+05 0.12327537D+01  1  2  2  2  6  2       21 0.241751229784D-01 0.100000000000D+01
0.339083535467D-06 0.128992695384D-06 -.493446908235D-08 0.164961741229D-05 0.000000000000D+00  6 1 21 25 23 1 21 4 0.10353307D+00 0.60208777D-02 0.20454260D+05 0.20454260D+05 0.20454260D+05 0.12327537D+01  1  2  3  2  6  2       21 0.509638138420D-02 0.100000000000D+01
0.205586889957D-06 0.000000000000D+00 0.000000000000D+00 0.164961741229D-05 0.000000000000D+00  6 1 21 25 23 1 21 4 0.10353307D+00 0.60208777D-02 0.20454260D+05 0.20454260D+05 0.20454260D+05 0.12327537D+01  1  2 15  2  6  2       21 0.308994418549D-02 0.100000000000D+01
-.171119798593D-03 0.000000000000D+00 -.232528458030D-04 0.164961741229D-05 0.000000000000D+00  6 1 21 25 23 1 21 4 0.10353307D+00 0.35235017D-01 0.20454260D+05 0.20454260D+05 0.20454260D+05 0.12327537D+01  1  2  5  2  6  2       21 -.104328541805D+00 0.100000000000D+01
-.739477542897D-04 0.000000000000D+00 -.981322023628D-05 0.164961741229D-05 0.000000000000D+00  6 1 -1 25 23 1 -1 4 0.10353307D+00 0.35235017D-01 0.20454260D+05 0.20454260D+05 0.20454260D+05 0.12327537D+01  1  2  5  5  6  2       21 -.406371883349D-02 0.100000000000D+01
-.739477542897D-04 0.000000000000D+00 -.981322023628D-05 0.164961741229D-05 0.000000000000D+00  6 1 1 25 23 1 1 4 0.10353307D+00 0.35235017D-01 0.20454260D+05 0.20454260D+05 0.20454260D+05 0.12327537D+01  1  2  5  6  6  2       21 -.768700332361D-02 0.100000000000D+01
-.739477542897D-04 0.000000000000D+00 -.981322023628D-05 0.164961741229D-05 0.000000000000D+00  6 1 -2 25 23 1 -2 4 0.10353307D+00 0.35235017D-01 0.20454260D+05 0.20454260D+05 0.20454260D+05 0.12327537D+01  1  2  5  7  6  2       21 -.349523979930D-02 0.100000000000D+01
-.739477542897D-04 0.000000000000D+00 -.981322023628D-05 0.164961741229D-05 0.000000000000D+00  6 1 -4 25 23 1 -4 4 0.10353307D+00 0.35235017D-01 0.20454260D+05 0.20454260D+05 0.20454260D+05 0.12327537D+01  1  2  5  7  6  2       21 -.184194828003D-02 0.100000000000D+01
-.739477542897D-04 0.000000000000D+00 -.981322023628D-05 0.164961741229D-05 0.000000000000D+00  6 1 2 25 23 1 2 4 0.10353307D+00 0.35235017D-01 0.20454260D+05 0.20454260D+05 0.20454260D+05 0.12327537D+01  1  2  5  8  6  2       21 -.103666292345D-01 0.100000000000D+01
-.739477542897D-04 0.000000000000D+00 -.981322023628D-05 0.164961741229D-05 0.000000000000D+00  6 1 4 25 23 1 4 4 0.10353307D+00 0.35235017D-01 0.20454260D+05 0.20454260D+05 0.20454260D+05 0.12327537D+01  1  2  5  8  6  2       21 -.184194828003D-02 0.100000000000D+01
-.739477542897D-04 0.000000000000D+00 -.981322023628D-05 0.164961741229D-05 0.000000000000D+00  6 1 -3 25 23 1 -3 4 0.10353307D+00 0.35235017D-01 0.20454260D+05 0.20454260D+05 0.20454260D+05 0.12327537D+01  1  2  5  9  6  2       21 -.220954514354D-02 0.100000000000D+01
-.739477542897D-04 0.000000000000D+00 -.981322023628D-05 0.164961741229D-05 0.000000000000D+00  6 1 3 25 23 1 3 4 0.10353307D+00 0.35235017D-01 0.20454260D+05 0.20454260D+05 0.20454260D+05 0.12327537D+01  1  2  5 10  6  2       21 -.220977642046D-02 0.100000000000D+01
  </mgrwgt>
  </event>
  <event>
  5     66 -.36102257E-03 0.24029030E+02 0.75467711E-02 0.11023662E+00
        1 -1    0    0  502    0 0.00000000E+00 0.00000000E+00 0.13316417E+04 0.13316418E+04 0.32000000E+00 0.0000E+00 0.9000E+01
       21 -1    0    0  501  502 0.00000000E+00 0.00000000E+00 -.13983051E+03 0.13983252E+03 0.75000000E+00 0.0000E+00 0.9000E+01
       25  1    1    2    0    0 0.11120385E+03 -.31204553E+02 0.54467068E+03 0.57064102E+03 0.12500000E+03 0.0000E+00 0.9000E+01
       23  1    1    2    0    0 -.10629744E+03 0.54727333E+02 0.76546476E+03 0.78009344E+03 0.91188000E+02 0.0000E+00 0.9000E+01
        1  1    1    2  501    0 -.49064082E+01 -.23522780E+02 -.11832420E+03 0.12073986E+03 0.32000000E+00 0.0000E+00 0.9000E+01
#aMCatNLO 1  0  0  2  5 0.33836438D+02 0.00000000D+00  -5  6  0 0.00000000D+00 0.00000000D+00 0.00000000D+00 0.00000000D+00 0.00000000D+00
  <mgrwgt>
 -.7474843686D+00   12    2    0
 0.431515532845883D+03 0.000000000000000D+00 0.000000000000000D+00 0.431515532845883D+03
 0.431515532845883D+03 0.000000000000000D+00 0.000000000000000D+00 -.431515532845883D+03
 0.220778818142709D+03 0.111203848047765D+03 -.312045503129231D+02 0.140635225884659D+03
 0.272988997933291D+03 -.106297438802247D+03 0.547273353050152D+02 0.227845375031220D+03
 0.369263249615766D+03 -.490640924551807D+01 -.235227849920921D+02 -.368480600915879D+03
 0.000000000000000D+00 0.000000000000000D+00 0.000000000000000D+00 -.000000000000000D+00
 0.445919147415362D+03 0.000000000000000D+00 0.000000000000000D+00 0.445919147415362D+03
 0.925224173044052D+03 0.000000000000000D+00 0.000000000000000D+00 -.925224173044052D+03
 0.228059945070473D+03 0.110753552482062D+03 -.658917475752549D+02 0.140635225884659D+03
 0.267974859870383D+03 -.106840158474296D+03 0.129205182799100D+02 0.227845375031220D+03
 0.377368902118048D+03 -.565546475206489D+01 -.812240774209931D+02 -.368480600915879D+03
 0.497739613400510D+03 0.174207074429869D+01 0.134195306716338D+03 -.479305025628690D+03
0.667424858556D-03 0.000000000000D+00 0.000000000000D+00 0.176803422415D-04 0.000000000000D+00  6 1 21 25 23 1 21 2 0.20486812D+00 0.21512544D-01 0.29684644D+05 0.29684644D+05 0.29684644D+05 0.12153804D+01  1  2  2  2  6  2       21 0.211023506434D+00 0.100000000000D+01
0.301379421055D-03 0.352209774277D-04 -.134733849580D-05 0.176803422415D-04 0.000000000000D+00  6 1 21 25 23 1 21 4 0.20486812D+00 0.21512544D-01 0.29684644D+05 0.29684644D+05 0.29684644D+05 0.12153804D+01  1  2  3  2  6  2       21 0.140755860478D+00 0.100000000000D+01
0.693113965901D-04 0.000000000000D+00 0.000000000000D+00 0.176803422415D-04 0.000000000000D+00  6 1 21 25 23 1 21 4 0.20486812D+00 0.21512544D-01 0.29684644D+05 0.29684644D+05 0.29684644D+05 0.12153804D+01  1  2 15  2  6  2       21 0.323711062747D-01 0.100000000000D+01
-.929143750379D-02 0.000000000000D+00 -.102104724528D-02 0.176803422415D-04 0.000000000000D+00  6 1 21 25 23 1 21 4 0.20486812D+00 0.46973491D-01 0.29684644D+05 0.29684644D+05 0.29684644D+05 0.12153804D+01  1  2  5  2  6  2       21 -.938906678852D+00 0.100000000000D+01
-.215700088891D-02 0.000000000000D+00 -.281549342593D-03 0.176803422415D-04 0.000000000000D+00  6 1 -1 25 23 1 -1 4 0.20486812D+00 0.46973491D-01 0.29684644D+05 0.29684644D+05 0.29684644D+05 0.12153804D+01  1  2  5  5  6  2       21 -.212834092328D-01 0.100000000000D+01
-.215700088891D-02 0.000000000000D+00 -.281549342593D-03 0.176803422415D-04 0.000000000000D+00  6 1 1 25 23 1 1 4 0.20486812D+00 0.46973491D-01 0.29684644D+05 0.29684644D+05 0.29684644D+05 0.12153804D+01  1  2  5  6  6  2       21 -.468083232498D-01 0.100000000000D+01
-.215700088891D-02 0.000000000000D+00 -.281549342593D-03 0.176803422415D-04 0.000000000000D+00  6 1 -2 25 23 1 -2 4 0.20486812D+00 0.46973491D-01 0.29684644D+05 0.29684644D+05 0.29684644D+05 0.12153804D+01  1  2  5  7  6  2       21 -.176016766315D-01 0.100000000000D+01
-.215700088891D-02 0.000000000000D+00 -.281549342593D-03 0.176803422415D-04 0.000000000000D+00  6 1 -4 25 23 1 -4 4 0.20486812D+00 0.46973491D-01 0.29684644D+05 0.29684644D+05 0.29684644D+05 0.12153804D+01  1  2  5  7  6  2       21 -.918891739622D-02 0.100000000000D+01
-.215700088891D-02 0.000000000000D+00 -.281549342593D-03 0.176803422415D-04 0.000000000000D+00  6 1 2 25 23 1 2 4 0.20486812D+00 0.46973491D-01 0.29684644D+05 0.29684644D+05 0.29684644D+05 0.12153804D+01  1  2  5  8  6  2       21 -.664349276644D-01 0.100000000000D+01
-.215700088891D-02 0.000000000000D+00 -.281549342593D-03 0.176803422415D-04 0.000000000000D+00  6 1 4 25 23 1 4 4 0.20486812D+00 0.46973491D-01 0.29684644D+05 0.29684644D+05 0.29684644D+05 0.12153804D+01  1  2  5  8  6  2       21 -.918891739622D-02 0.100000000000D+01
-.215700088891D-02 0.000000000000D+00 -.281549342593D-03 0.176803422415D-04 0.000000000000D+00  6 1 -3 25 23 1 -3 4 0.20486812D+00 0.46973491D-01 0.29684644D+05 0.29684644D+05 0.29684644D+05 0.12153804D+01  1  2  5  9  6  2       21 -.111090496889D-01 0.100000000000D+01
-.215700088891D-02 0.000000000000D+00 -.281549342593D-03 0.176803422415D-04 0.000000000000D+00  6 1 3 25 23 1 3 4 0.20486812D+00 0.46973491D-01 0.29684644D+05 0.29684644D+05 0.29684644D+05 0.12153804D+01  1  2  5 10  6  2       21 -.111129417248D-01 0.100000000000D+01
  </mgrwgt>
  </event>
  <event>
  5     66 0.36102257E-03 0.37071329E+02 0.75467711E-02 0.11979304E+00
        3 -1    0    0  502    0 0.00000000E+00 0.00000000E+00 0.35894990E+03 0.35895025E+03 0.50000000E+00 0.0000E+00 0.9000E+01
       21 -1    0    0  501  502 0.00000000E+00 0.00000000E+00 -.20738795E+03 0.20738931E+03 0.75000000E+00 0.0000E+00 0.9000E+01
       25  1    1    2    0    0 -.56486811E+02 0.32661108E+02 0.58125761E+02 0.15251594E+03 0.12500000E+03 0.0000E+00 0.9000E+01
       23  1    1    2    0    0 0.42760571E+02 -.67097539E+02 0.23669838E+03 0.26584191E+03 0.91188000E+02 0.0000E+00 0.9000E+01
        3  1    1    2  501    0 0.13726241E+02 0.34436431E+02 -.14326219E+03 0.14798170E+03 0.50000000E+00 0.0000E+00 0.9000E+01
#aMCatNLO 1  0  0  2  1 0.42671422D+01 0.00000000D+00  -5  6  0 0.00000000D+00 0.00000000D+00 0.00000000D+00 0.00000000D+00 0.00000000D+00
  <mgrwgt>
 0.4028456472D-01   32    2    0
 0.272841283194251D+03 0.000000000000000D+00 0.000000000000000D+00 0.272841283194251D+03
 0.272841283194251D+03 0.000000000000000D+00 0.000000000000000D+00 -.272841283194251D+03
 0.142145214721704D+03 -.564868231240226D+02 0.326610779156679D+02 0.179653797906272D+02
 0.210163275011303D+03 0.427605529964581D+02 -.670975835105276D+02 0.171822001542182D+03
 0.193374076655494D+03 0.137262701275645D+02 0.344365055948597D+02 -.189787381332809D+03
 0.000000000000000D+00 -.000000000000000D+00 -.000000000000000D+00 -.000000000000000D+00
 0.273710049778980D+03 0.000000000000000D+00 0.000000000000000D+00 0.273710049778980D+03
 0.278140182320584D+03 0.000000000000000D+00 0.000000000000000D+00 -.278140182320584D+03
 0.141738693482130D+03 -.553836446929388D+02 0.327834449002244D+02 0.179653797906272D+02
 0.210444197238481D+03 0.443950418770518D+02 -.669162823991445D+02 0.171822001542182D+03
 0.193516359565908D+03 0.152297339453361D+02 0.346032731173082D+02 -.189787381332809D+03
 0.615098181304502D+01 -.424113112944913D+01 -.470435618388105D+00 -.443013254160414D+01
0.253232148723D-04 0.000000000000D+00 0.000000000000D+00 0.218851592205D-05 0.000000000000D+00  6 3 21 25 23 3 21 2 0.55223192D-01 0.31905970D-01 0.22364681D+05 0.22364681D+05 0.22364681D+05 0.12285185D+01  1  2  2  2  6  2       21 0.582426915907D-02 0.100000000000D+01
0.442794047327D-05 0.133634276275D-05 -.511202748855D-07 0.218851592205D-05 0.000000000000D+00  6 3 21 25 23 3 21 4 0.55223192D-01 0.31905970D-01 0.22364681D+05 0.22364681D+05 0.22364681D+05 0.12285185D+01  1  2  3  2  6  2       21 0.153704928832D-02 0.100000000000D+01
0.138651514074D-05 0.000000000000D+00 0.000000000000D+00 0.218851592205D-05 0.000000000000D+00  6 3 21 25 23 3 21 4 0.55223192D-01 0.31905970D-01 0.22364681D+05 0.22364681D+05 0.22364681D+05 0.12285185D+01  1  2 15  2  6  2       21 0.481294209620D-03 0.100000000000D+01
0.798129566417D-05 0.000000000000D+00 0.000000000000D+00 0.218286926519D-05 0.000000000000D+00  6 3 21 25 23 3 21 4 0.55223192D-01 0.32575832D-01 0.23130791D+05 0.23130791D+05 0.23130791D+05 0.12269326D+01  1  2 12  2  6  2       21 0.264697896522D-02 0.100000000000D+01
-.268004369605D-03 0.000000000000D+00 0.000000000000D+00 0.218851592205D-05 0.000000000000D+00  6 3 21 25 23 3 21 4 0.55223192D-01 0.31905970D-01 0.22364681D+05 0.22364681D+05 0.22364681D+05 0.12285185D+01  1  2  4  2  6  2       21 -.930310441287D-01 0.100000000000D+01
-.331774688035D-02 0.000000000000D+00 -.357519006260D-03 0.218851592205D-05 0.000000000000D+00  6 3 21 25 23 3 21 4 0.55223192D-01 0.32609888D-01 0.22364681D+05 0.22364681D+05 0.22364681D+05 0.12285185D+01  1  2  5  2  6  2       21 -.110362557629D+01 0.100000000000D+01
0.332217203322D-02 0.000000000000D+00 0.357178721912D-03 0.218851592205D-05 0.000000000000D+00  6 3 21 25 23 3 21 4 0.55223192D-01 0.31905970D-01 0.22364681D+05 0.22364681D+05 0.22364681D+05 0.12285185D+01  1  2  6  2  6  2       21 0.115320930581D+01 0.100000000000D+01
0.228830414048D-03 0.000000000000D+00 0.000000000000D+00 0.218851592205D-05 0.102314802653D-05  6 3 21 25 23 3 21 4 0.55399031D-01 0.32525621D-01 0.23130791D+05 0.23130791D+05 0.23130791D+05 0.12269326D+01  1  2 11  2  6  2       21 0.756298964120D-01 0.100000000000D+01
0.506635911743D-06 0.000000000000D+00 0.000000000000D+00 0.218286926519D-05 0.000000000000D+00  6 3 -3 25 23 3 -3 4 0.55223192D-01 0.32575832D-01 0.23130791D+05 0.23130791D+05 0.23130791D+05 0.12269326D+01  1  2 12  5  6  2       21 0.822799752033D-05 0.100000000000D+01
-.149964837191D-04 0.000000000000D+00 -.179061786589D-05 0.218851592205D-05 0.000000000000D+00  6 3 -3 25 23 3 -3 4 0.55223192D-01 0.32609888D-01 0.22364681D+05 0.22364681D+05 0.22364681D+05 0.12285185D+01  1  2  5  5  6  2       21 -.243938453660D-03 0.100000000000D+01
0.796936814093D-05 0.000000000000D+00 0.000000000000D+00 0.218851592205D-05 0.303246247852D-07  6 3 -3 25 23 3 -3 4 0.55399031D-01 0.32525621D-01 0.23130791D+05 0.23130791D+05 0.23130791D+05 0.12269326D+01  1  2 11  5  6  2       21 0.128964528212D-03 0.100000000000D+01
0.506635911743D-06 0.000000000000D+00 0.000000000000D+00 0.218286926519D-05 0.000000000000D+00  6 3 3 25 23 3 3 4 0.55223192D-01 0.32575832D-01 0.23130791D+05 0.23130791D+05 0.23130791D+05 0.12269326D+01  1  2 12  6  6  2       21 0.822851219189D-05 0.100000000000D+01
-.149964837191D-04 0.000000000000D+00 -.179061786589D-05 0.218851592205D-05 0.000000000000D+00  6 3 3 25 23 3 3 4 0.55223192D-01 0.32609888D-01 0.22364681D+05 0.22364681D+05 0.22364681D+05 0.12285185D+01  1  2  5  6  6  2       21 -.243953683877D-03 0.100000000000D+01
0.561064909053D-05 0.000000000000D+00 0.000000000000D+00 0.218851592205D-05 0.678386524602D-08  6 3 3 25 23 3 3 4 0.55399031D-01 0.32525621D-01 0.23130791D+05 0.23130791D+05 0.23130791D+05 0.12269326D+01  1  2 11  6  6  2       21 0.908000957187D-04 0.100000000000D+01
0.506635911743D-06 0.000000000000D+00 0.000000000000D+00 0.218286926519D-05 0.000000000000D+00  6 3 -2 25 23 3 -2 4 0.55223192D-01 0.32575832D-01 0.23130791D+05 0.23130791D+05 0.23130791D+05 0.12269326D+01  1  2 12  7  6  2       21 0.129347531182D-04 0.100000000000D+01
0.506635911743D-06 0.000000000000D+00 0.000000000000D+00 0.218286926519D-05 0.000000000000D+00  6 3 -4 25 23 3 -4 4 0.55223192D-01 0.32575832D-01 0.23130791D+05 0.23130791D+05 0.23130791D+05 0.12269326D+01  1  2 12  7  6  2       21 0.689064944552D-05 0.100000000000D+01
-.149964837191D-04 0.000000000000D+00 -.179061786589D-05 0.218851592205D-05 0.000000000000D+00  6 3 -2 25 23 3 -2 4 0.55223192D-01 0.32609888D-01 0.22364681D+05 0.22364681D+05 0.22364681D+05 0.12285185D+01  1  2  5  7  6  2       21 -.383787957263D-03 0.100000000000D+01
-.149964837191D-04 0.000000000000D+00 -.179061786589D-05 0.218851592205D-05 0.000000000000D+00  6 3 -4 25 23 3 -4 4 0.55223192D-01 0.32609888D-01 0.22364681D+05 0.22364681D+05 0.22364681D+05 0.12285185D+01  1  2  5  7  6  2       21 -.204204531221D-03 0.100000000000D+01
0.422464595025D-05 0.000000000000D+00 0.000000000000D+00 0.218851592205D-05 0.739994214723D-08  6 3 -2 25 23 3 -2 4 0.55399031D-01 0.32525621D-01 0.23130791D+05 0.23130791D+05 0.23130791D+05 0.12269326D+01  1  2 11  7  6  2       21 0.107465530060D-03 0.100000000000D+01
0.422464595025D-05 0.000000000000D+00 0.000000000000D+00 0.218851592205D-05 0.739994214723D-08  6 3 -4 25 23 3 -4 4 0.55399031D-01 0.32525621D-01 0.23130791D+05 0.23130791D+05 0.23130791D+05 0.12269326D+01  1  2 11  7  6  2       21 0.572571889977D-04 0.100000000000D+01
0.506635911743D-06 0.000000000000D+00 0.000000000000D+00 0.218286926519D-05 0.000000000000D+00  6 3 2 25 23 3 2 4 0.55223192D-01 0.32575832D-01 0.23130791D+05 0.23130791D+05 0.23130791D+05 0.12269326D+01  1  2 12  8  6  2       21 0.361383428298D-04 0.100000000000D+01
0.506635911743D-06 0.000000000000D+00 0.000000000000D+00 0.218286926519D-05 0.000000000000D+00  6 3 4 25 23 3 4 4 0.55223192D-01 0.32575832D-01 0.23130791D+05 0.23130791D+05 0.23130791D+05 0.12269326D+01  1  2 12  8  6  2       21 0.689064944552D-05 0.100000000000D+01
-.149964837191D-04 0.000000000000D+00 -.179061786589D-05 0.218851592205D-05 0.000000000000D+00  6 3 2 25 23 3 2 4 0.55223192D-01 0.32609888D-01 0.22364681D+05 0.22364681D+05 0.22364681D+05 0.12285185D+01  1  2  5  8  6  2       21 -.107307170486D-02 0.100000000000D+01
-.149964837191D-04 0.000000000000D+00 -.179061786589D-05 0.218851592205D-05 0.000000000000D+00  6 3 4 25 23 3 4 4 0.55223192D-01 0.32609888D-01 0.22364681D+05 0.22364681D+05 0.22364681D+05 0.12285185D+01  1  2  5  8  6  2       21 -.204204531221D-03 0.100000000000D+01
0.422210333531D-05 0.000000000000D+00 0.000000000000D+00 0.218851592205D-05 0.739548847142D-08  6 3 2 25 23 3 2 4 0.55399031D-01 0.32525621D-01 0.23130791D+05 0.23130791D+05 0.23130791D+05 0.12269326D+01  1  2 11  8  6  2       21 0.299720935170D-03 0.100000000000D+01
0.422210333531D-05 0.000000000000D+00 0.000000000000D+00 0.218851592205D-05 0.739548847142D-08  6 3 4 25 23 3 4 4 0.55399031D-01 0.32525621D-01 0.23130791D+05 0.23130791D+05 0.23130791D+05 0.12269326D+01  1  2 11  8  6  2       21 0.572227285989D-04 0.100000000000D+01
0.506635911743D-06 0.000000000000D+00 0.000000000000D+00 0.218286926519D-05 0.000000000000D+00  6 3 -1 25 23 3 -1 4 0.55223192D-01 0.32575832D-01 0.23130791D+05 0.23130791D+05 0.23130791D+05 0.12269326D+01  1  2 12  9  6  2       21 0.148852262193D-04 0.100000000000D+01
-.149964837191D-04 0.000000000000D+00 -.179061786589D-05 0.218851592205D-05 0.000000000000D+00  6 3 -1 25 23 3 -1 4 0.55223192D-01 0.32609888D-01 0.22364681D+05 0.22364681D+05 0.22364681D+05 0.12285185D+01  1  2  5  9  6  2       21 -.441745383683D-03 0.100000000000D+01
0.423904634615D-05 0.000000000000D+00 0.000000000000D+00 0.218851592205D-05 0.742516605896D-08  6 3 -1 25 23 3 -1 4 0.55399031D-01 0.32525621D-01 0.23130791D+05 0.23130791D+05 0.23130791D+05 0.12269326D+01  1  2 11  9  6  2       21 0.124068364648D-03 0.100000000000D+01
0.506635911743D-06 0.000000000000D+00 0.000000000000D+00 0.218286926519D-05 0.000000000000D+00  6 3 1 25 23 3 1 4 0.55223192D-01 0.32575832D-01 0.23130791D+05 0.23130791D+05 0.23130791D+05 0.12269326D+01  1  2 12 10  6  2       21 0.271410010552D-04 0.100000000000D+01
-.149964837191D-04 0.000000000000D+00 -.179061786589D-05 0.218851592205D-05 0.000000000000D+00  6 3 1 25 23 3 1 4 0.55223192D-01 0.32609888D-01 0.22364681D+05 0.22364681D+05 0.22364681D+05 0.12285185D+01  1  2  5 10  6  2       21 -.805833543285D-03 0.100000000000D+01
0.424343863126D-05 0.000000000000D+00 0.000000000000D+00 0.218851592205D-05 0.743285963994D-08  6 3 1 25 23 3 1 4 0.55399031D-01 0.32525621D-01 0.23130791D+05 0.23130791D+05 0.23130791D+05 0.12269326D+01  1  2 11 10  6  2       21 0.226294574239D-03 0.100000000000D+01
  </mgrwgt>
  </event>
  <event>
  5     66 -.36102257E-03 0.21742847E+02 0.75467711E-02 0.11203764E+00
        1 -1    0    0  502    0 0.00000000E+00 0.00000000E+00 0.23067446E+04 0.23067446E+04 0.32000000E+00 0.0000E+00 0.9000E+01
       21 -1    0    0  501  502 0.00000000E+00 0.00000000E+00 -.14497853E+02 0.14517240E+02 0.75000000E+00 0.0000E+00 0.9000E+01
       25  1    1    2    0    0 -.11147845E+02 0.12165612E+03 0.10454586E+04 0.10599685E+04 0.12500000E+03 0.0000E+00 0.9000E+01
       23  1    1    2    0    0 -.31710441E+01 -.10529462E+03 0.12138815E+04 0.12218513E+04 0.91188000E+02 0.0000E+00 0.9000E+01
        1  1    1    2  501    0 0.14318889E+02 -.16361506E+02 0.32906634E+02 0.39442089E+02 0.32000000E+00 0.0000E+00 0.9000E+01
#aMCatNLO 1  0  0  2  1 0.12366211D+03 0.00000000D+00  -5  6  0 0.00000000D+00 0.00000000D+00 0.00000000D+00 0.00000000D+00 0.00000000D+00
  <mgrwgt>
 -.1923096991D+01   12    2    0
 0.182935429202296D+03 0.000000000000000D+00 0.000000000000000D+00 0.182935429202296D+03
 0.182935429202296D+03 0.000000000000000D+00 0.000000000000000D+00 -.182935429202296D+03
 0.174967128622835D+03 -.111480254475905D+02 0.121656329993327D+03 -.799718698633329D+01
 0.146830140212880D+03 -.317119553796295D+01 -.105294444803225D+03 0.463342437444970D+02
 0.440735895688773D+02 0.143192209855535D+02 -.163618851901019D+02 -.383370567581637D+02
 0.000000000000000D+00 -.000000000000000D+00 -.000000000000000D+00 -.000000000000000D+00
 0.193223614081197D+03 0.000000000000000D+00 0.000000000000000D+00 0.193223614081197D+03
 0.316751470568897D+05 0.000000000000000D+00 0.000000000000000D+00 -.316751470568897D+05
 0.218996888934862D+03 0.198419785482751D+02 0.178541250837849D+03 -.799718698633329D+01
 0.123225423737378D+03 0.180719196526229D+02 -.663008091047992D+02 0.463342437444970D+02
 0.439820418383358D+02 0.212458545042309D+02 -.364743057171752D+01 -.383370567581637D+02
 0.314821663164603D+05 -.591597527051289D+02 -.108593011161332D+03 -.314819234428085D+05
0.763548358941D-06 0.000000000000D+00 0.000000000000D+00 0.974305058791D-06 0.000000000000D+00  6 1 21 25 23 1 21 2 0.35488528D+00 0.22319320D-02 0.28199626D+05 0.28199626D+05 0.28199626D+05 0.12177295D+01  1  2  2  2  6  2       21 0.287330631874D-02 0.100000000000D+01
0.106540356760D-06 0.402935539042D-07 -.154138414867D-08 0.974305058791D-06 0.000000000000D+00  6 1 21 25 23 1 21 4 0.35488528D+00 0.22319320D-02 0.28199626D+05 0.28199626D+05 0.28199626D+05 0.12177295D+01  1  2  3  2  6  2       21 0.594512752105D-03 0.100000000000D+01
0.475792131575D-07 0.000000000000D+00 0.000000000000D+00 0.974305058791D-06 0.000000000000D+00  6 1 21 25 23 1 21 4 0.35488528D+00 0.22319320D-02 0.28199626D+05 0.28199626D+05 0.28199626D+05 0.12177295D+01  1  2 15  2  6  2       21 0.265499852051D-03 0.100000000000D+01
-.797353336016D+01 0.000000000000D+00 -.717890362561D-02 0.974305058791D-06 0.000000000000D+00  6 1 21 25 23 1 21 4 0.35488528D+00 0.38744135D+00 0.28199626D+05 0.28199626D+05 0.28199626D+05 0.12177295D+01  1  2  5  2  6  2       21 -.475056260113D+00 0.100000000000D+01
-.354366712340D+01 0.000000000000D+00 -.319046409622D-02 0.974305058791D-06 0.000000000000D+00  6 1 -1 25 23 1 -1 4 0.35488528D+00 0.38744135D+00 0.28199626D+05 0.28199626D+05 0.28199626D+05 0.12177295D+01  1  2  5  5  6  2       21 -.205437685304D-01 0.100000000000D+01
-.354366712340D+01 0.000000000000D+00 -.319046409622D-02 0.974305058791D-06 0.000000000000D+00  6 1 1 25 23 1 1 4 0.35488528D+00 0.38744135D+00 0.28199626D+05 0.28199626D+05 0.28199626D+05 0.12177295D+01  1  2  5  6  6  2       21 -.351915580964D+00 0.100000000000D+01
-.354366712340D+01 0.000000000000D+00 -.319046409622D-02 0.974305058791D-06 0.000000000000D+00  6 1 -2 25 23 1 -2 4 0.35488528D+00 0.38744135D+00 0.28199626D+05 0.28199626D+05 0.28199626D+05 0.12177295D+01  1  2  5  7  6  2       21 -.182677012282D-01 0.100000000000D+01
-.354366712340D+01 0.000000000000D+00 -.319046409622D-02 0.974305058791D-06 0.000000000000D+00  6 1 -4 25 23 1 -4 4 0.35488528D+00 0.38744135D+00 0.28199626D+05 0.28199626D+05 0.28199626D+05 0.12177295D+01  1  2  5  7  6  2       21 -.894244440427D-02 0.100000000000D+01
-.354366712340D+01 0.000000000000D+00 -.319046409622D-02 0.974305058791D-06 0.000000000000D+00  6 1 2 25 23 1 2 4 0.35488528D+00 0.38744135D+00 0.28199626D+05 0.28199626D+05 0.28199626D+05 0.12177295D+01  1  2  5  8  6  2       21 -.101252317927D+01 0.100000000000D+01
-.354366712340D+01 0.000000000000D+00 -.319046409622D-02 0.974305058791D-06 0.000000000000D+00  6 1 4 25 23 1 4 4 0.35488528D+00 0.38744135D+00 0.28199626D+05 0.28199626D+05 0.28199626D+05 0.12177295D+01  1  2  5  8  6  2       21 -.894244440427D-02 0.100000000000D+01
-.354366712340D+01 0.000000000000D+00 -.319046409622D-02 0.974305058791D-06 0.000000000000D+00  6 1 -3 25 23 1 -3 4 0.35488528D+00 0.38744135D+00 0.28199626D+05 0.28199626D+05 0.28199626D+05 0.12177295D+01  1  2  5  9  6  2       21 -.150216583151D-01 0.100000000000D+01
-.354366712340D+01 0.000000000000D+00 -.319046409622D-02 0.974305058791D-06 0.000000000000D+00  6 1 3 25 23 1 3 4 0.35488528D+00 0.38744135D+00 0.28199626D+05 0.28199626D+05 0.28199626D+05 0.12177295D+01  1  2  5 10  6  2       21 -.156172729308D-01 0.100000000000D+01
  </mgrwgt>
  </event>
  <event>
  6     66 -.36102257E-03 0.10031228E+03 0.75467711E-02 0.10991622E+00
        3 -1    0    0  502    0 0.00000000E+00 0.00000000E+00 0.29693502E+03 0.29693544E+03 0.50000000E+00 0.0000E+00 0.9000E+01
       21 -1    0    0  503  502 0.00000000E+00 0.00000000E+00 -.94875498E+03 0.94875528E+03 0.75000000E+00 0.0000E+00 0.9000E+01
       25  1    1    2    0    0 0.75149081E+02 -.11752606E+03 -.25795034E+03 0.31878384E+03 0.12500000E+03 0.0000E+00 0.9000E+01
       23  1    1    2    0    0 -.55993608E+02 0.20776015E+03 0.20712208E+03 0.31227291E+03 0.91188000E+02 0.0000E+00 0.9000E+01
        3  1    1    2  501    0 -.27620542E+02 -.10547056E+03 -.46968865E+03 0.48217695E+03 0.50000000E+00 0.0000E+00 0.9000E+01
       21  1    1    2  503  501 0.84650681E+01 0.15236467E+02 -.13130305E+03 0.13245701E+03 0.75000000E+00 0.0000E+00 0.9000E+01
#aMCatNLO 2  0  0  2  5 0.17430069D+02 0.00000000D+00  -5  6  0 0.00000000D+00 0.00000000D+00 0.00000000D+00 0.00000000D+00 0.00000000D+00
  <mgrwgt>
 -.8620522264D-02    3    2    0
 0.491947051697985D+03 0.000000000000000D+00 0.000000000000000D+00 0.491947051697985D+03
 0.491947051697985D+03 0.000000000000000D+00 0.000000000000000D+00 -.491947051697985D+03
 0.223051237343832D+03 0.770728876073636D+02 -.114063335935200D+03 -.123191638806418D+03
 0.465634460486326D+03 -.519998359161466D+02 0.214948666024430D+03 0.399491285871674D+03
 0.295208405565811D+03 -.250730516912170D+02 -.100885330089231D+03 -.276299647065256D+03
 0.000000000000000D+00 0.000000000000000D+00 0.000000000000000D+00 -.000000000000000D+00
 0.492980420407797D+03 0.000000000000000D+00 0.000000000000000D+00 0.492980420407797D+03
 0.571456828628373D+03 0.000000000000000D+00 0.000000000000000D+00 -.571456828628373D+03
 0.224189499282526D+03 0.751490899747786D+02 -.117526022619254D+03 -.123191638806418D+03
 0.462826239305846D+03 -.559935921863867D+02 0.207760214171657D+03 0.399491285871674D+03
 0.297032742936846D+03 -.276205658734071D+02 -.105470658237418D+03 -.276299647065256D+03
 0.803887675109525D+02 0.846506808501508D+01 0.152364666850140D+02 -.784764082205760D+02
-.137906380160D-02 0.000000000000D+00 0.000000000000D+00 0.489114347662D-07 0.000000000000D+00  6 3 21 25 23 3 21 4 0.45586446D-01 0.14608066D+00 0.74929429D+05 0.74929429D+05 0.74929429D+05 0.11752651D+01  1  2 13  2  6  2       21 -.193062523388D-01 0.100000000000D+01
-.100317378093D-02 0.000000000000D+00 0.000000000000D+00 0.489114347662D-07 0.000000000000D+00  6 3 21 25 23 3 21 4 0.45586446D-01 0.15298023D+00 0.74929429D+05 0.74929429D+05 0.74929429D+05 0.11752651D+01  1  2 13  2  6  2       21 -.124185884025D-01 0.100000000000D+01
0.165371516290D-02 0.000000000000D+00 0.000000000000D+00 0.491461371696D-07 0.190621167583D-08  6 3 21 25 23 3 21 4 0.45682204D-01 0.14596184D+00 0.74929429D+05 0.74929429D+05 0.74929429D+05 0.11752651D+01  1  2  1  2  6  2       21 0.231043184772D-01 0.100000000000D+01
  </mgrwgt>
  </event>
  <event>
  6     66 0.36102257E-03 0.29747495E+02 0.75467711E-02 0.11719440E+00
        1 -1    0    0  502    0 0.00000000E+00 0.00000000E+00 0.77449751E+03 0.77449758E+03 0.32000000E+00 0.0000E+00 0.9000E+01
       21 -1    0    0  503  502 0.00000000E+00 0.00000000E+00 -.46439143E+03 0.46439203E+03 0.75000000E+00 0.0000E+00 0.9000E+01
       25  1    1    2    0    0 -.10648204E+03 0.28303270E+02 0.60031552E+03 0.62301142E+03 0.12500000E+03 0.0000E+00 0.9000E+01
       23  1    1    2    0    0 0.10933555E+03 -.19579573E+01 0.12775002E+03 0.19129405E+03 0.91188000E+02 0.0000E+00 0.9000E+01
        1  1    1    2  501    0 -.37796113E+01 0.76611445E+01 -.43767548E+01 0.96040085E+01 0.32000000E+00 0.0000E+00 0.9000E+01
       21  1    1    2  503  501 0.92610328E+00 -.34006457E+02 -.41358270E+03 0.41498013E+03 0.75000000E+00 0.0000E+00 0.9000E+01
#aMCatNLO 2  0  0  2  1 0.27762646D+02 0.00000000D+00  -5  6  0 0.00000000D+00 0.00000000D+00 0.00000000D+00 0.00000000D+00 0.00000000D+00
  <mgrwgt>
 0.6213331985D+00    1    2    0
 0.196178536412227D+03 0.000000000000000D+00 0.000000000000000D+00 0.196178536412227D+03
 0.196178536412227D+03 0.000000000000000D+00 0.000000000000000D+00 -.196178536412227D+03
 0.198295044551823D+03 -.106012444551561D+03 0.110641537156671D+02 0.111062463490451D+03
 0.166494888744597D+03 0.109726673373873D+03 -.163162427917111D+02 -.842563588433593D+02
 0.275671395280332D+02 -.371422882231238D+01 0.525208907604404D+01 -.268061046470921D+02
 0.000000000000000D+00 0.000000000000000D+00 -.000000000000000D+00 -.000000000000000D+00
 0.197092277088935D+03 0.000000000000000D+00 0.000000000000000D+00 0.197092277088935D+03
 0.182488178949572D+04 0.000000000000000D+00 0.000000000000000D+00 -.182488178949572D+04
 0.200248186842722D+03 -.106481916286573D+03 0.283031277630052D+02 0.111062463490451D+03
 0.165446382455981D+03 0.109335656710594D+03 -.195813428879117D+01 -.842563588433593D+02
 0.281345425961068D+02 -.377984369992148D+01 0.766146345977438D+01 -.268061046470921D+02
 0.162814495468985D+04 0.926103275900237D+00 -.340064569339885D+02 -.162778951240679D+04
0.591150887217D-02 0.000000000000D+00 0.000000000000D+00 0.467480331298D-05 0.124463312065D-05  6 1 21 25 23 1 21 4 0.11915346D+00 0.71444856D-01 0.30900985D+05 0.30900985D+05 0.30900985D+05 0.12135519D+01  1  2  1  2  6  2       21 0.621333198527D+00 0.100000000000D+01
  </mgrwgt>
  </event>
  <event>
  5     66 0.36102257E-03 0.79429919E+02 0.75467711E-02 0.11579397E+00
        1 -1    0    0  502    0 0.00000000E+00 0.00000000E+00 0.99938720E+03 0.99938725E+03 0.32000000E+00 0.0000E+00 0.9000E+01
       21 -1    0    0  501  502 0.00000000E+00 0.00000000E+00 -.10761539E+03 0.10761800E+03 0.75000000E+00 0.0000E+00 0.9000E+01
       25  1    1    2    0    0 -.56392701E+02 0.86325207E+01 0.29015882E+03 0.32104796E+03 0.12500000E+03 0.0000E+00 0.9000E+01
       23  1    1    2    0    0 0.60165127E+02 -.95664429E+02 0.66343147E+03 0.67913776E+03 0.91188000E+02 0.0000E+00 0.9000E+01
        1  1    1    2  501    0 -.37724261E+01 0.87031909E+02 -.61818477E+02 0.10681952E+03 0.32000000E+00 0.0000E+00 0.9000E+01
#aMCatNLO 1  0  0  1  2 0.10068072D+02 0.00000000D+00  -5  6  0 0.00000000D+00 0.00000000D+00 0.00000000D+00 0.00000000D+00 0.00000000D+00
  <mgrwgt>
 0.8795296228D-01    9    2    0
 0.327949560045209D+03 0.000000000000000D+00 0.000000000000000D+00 0.327949560045209D+03
 0.327949560045209D+03 0.000000000000000D+00 0.000000000000000D+00 -.327949560045209D+03
 0.147349393748487D+03 -.563926999425092D+02 0.863250637310309D+01 0.532182963364950D+02
 0.244213804824036D+03 0.601651277000511D+02 -.956644532054295D+02 0.196350708998912D+03
 0.264335921517896D+03 -.377242775754191D+01 0.870319468323264D+02 -.249569005335407D+03
 0.000000000000000D+00 0.000000000000000D+00 -.000000000000000D+00 0.000000000000000D+00
 0.334961051496005D+03 0.000000000000000D+00 0.000000000000000D+00 0.334961051496005D+03
 0.331622503389198D+03 0.000000000000000D+00 0.000000000000000D+00 -.331622503389198D+03
 0.147905550059743D+03 -.575005196575632D+02 0.106091900080247D+02 0.532182963364950D+02
 0.242510067995297D+03 0.583389015405767D+02 -.924059163568389D+02 0.196350708998912D+03
 0.265560770100775D+03 -.576064172051746D+01 0.905795186528412D+02 -.249569005335407D+03
 0.106071667293884D+02 0.492225983750395D+01 -.878279230402702D+01 0.333854810680695D+01
0.124808127540D-04 0.000000000000D+00 0.000000000000D+00 0.781629081922D-06 0.000000000000D+00  6 1 21 25 23 1 21 2 0.15375208D+00 0.16556418D-01 0.34175034D+05 0.34175034D+05 0.34175034D+05 0.12090038D+01  1  2  2  1  6  1        1 0.107795793812D-01 0.100000000000D+01
0.649596385480D-06 0.658630583882D-06 -.251951650688D-07 0.781629081922D-06 0.000000000000D+00  6 1 21 25 23 1 21 4 0.15375208D+00 0.16556418D-01 0.34175034D+05 0.34175034D+05 0.34175034D+05 0.12090038D+01  1  2  3  1  6  1        1 0.820083125636D-03 0.100000000000D+01
0.143838764825D-05 0.000000000000D+00 0.000000000000D+00 0.781629081922D-06 0.000000000000D+00  6 1 21 25 23 1 21 4 0.15375208D+00 0.16556418D-01 0.34175034D+05 0.34175034D+05 0.34175034D+05 0.12090038D+01  1  2 15  1  6  1        1 0.181589286028D-02 0.100000000000D+01
0.490040556631D-04 0.000000000000D+00 0.000000000000D+00 0.778110315551D-06 0.000000000000D+00  6 1 21 25 23 1 21 4 0.15788615D+00 0.16556418D-01 0.36320556D+05 0.36320556D+05 0.36320556D+05 0.12062794D+01  1  2 12  1  6  1        1 0.584574012172D-01 0.100000000000D+01
-.362418422297D-04 0.000000000000D+00 0.000000000000D+00 0.781629081922D-06 0.000000000000D+00  6 1 21 25 23 1 21 4 0.15375208D+00 0.16556418D-01 0.34175034D+05 0.34175034D+05 0.34175034D+05 0.12090038D+01  1  2  4  1  6  1        1 -.457535231397D-01 0.100000000000D+01
-.106261955598D-02 0.000000000000D+00 -.157977648330D-03 0.781629081922D-06 0.000000000000D+00  6 1 21 25 23 1 21 4 0.15819473D+00 0.16556418D-01 0.34175034D+05 0.34175034D+05 0.34175034D+05 0.12090038D+01  1  2  5  1  6  1        1 -.127741308465D+01 0.100000000000D+01
0.106675085374D-02 0.000000000000D+00 0.157913577389D-03 0.781629081922D-06 0.000000000000D+00  6 1 21 25 23 1 21 4 0.15375208D+00 0.16556418D-01 0.34175034D+05 0.34175034D+05 0.34175034D+05 0.12090038D+01  1  2  6  1  6  1        1 0.134671989248D+01 0.100000000000D+01
0.131475234396D-05 0.000000000000D+00 0.000000000000D+00 0.778110315551D-06 0.000000000000D+00  6 21 21 25 23 1 -1 4 0.15788615D+00 0.16556418D-01 0.36320556D+05 0.36320556D+05 0.36320556D+05 0.12062794D+01  1  2 12  4  6  1        1 0.238226660647D-02 0.100000000000D+01
-.539419726791D-05 0.000000000000D+00 -.808839732644D-06 0.781629081922D-06 0.000000000000D+00  6 21 21 25 23 1 -1 4 0.15819473D+00 0.16556418D-01 0.34175034D+05 0.34175034D+05 0.34175034D+05 0.12090038D+01  1  2  5  4  6  1        1 -.985554560624D-02 0.100000000000D+01
  </mgrwgt>
  </event>
  <event>
  6     66 -.36102257E-03 0.25525406E+02 0.75467711E-02 0.12011874E+00
        1 -1    0    0  503    0 0.00000000E+00 0.00000000E+00 0.46783836E+03 0.46783847E+03 0.32000000E+00 0.0000E+00 0.9000E+01
       21 -1    0    0  501  502 0.00000000E+00 0.00000000E+00 -.65736921E+03 0.65736963E+03 0.75000000E+00 0.0000E+00 0.9000E+01
       25  1    1    2    0    0 0.36247755E+01 0.37157976E+01 0.15928898E+03 0.20254611E+03 0.12500000E+03 0.0000E+00 0.9000E+01
       23  1    1    2    0    0 0.52131726E+02 -.22533589E+02 0.21701556E+03 0.24214971E+03 0.91188000E+02 0.0000E+00 0.9000E+01
        1  1    1    2  501    0 -.39031013E+02 -.26145662E+01 -.61929665E+03 0.62053098E+03 0.32000000E+00 0.0000E+00 0.9000E+01
       21  1    1    2  503  502 -.16725488E+02 0.21432358E+02 0.53461264E+02 0.59981306E+02 0.75000000E+00 0.0000E+00 0.9000E+01
#aMCatNLO 2  0  0  1  2 0.27186171D+02 0.00000000D+00  -5  6  0 0.00000000D+00 0.00000000D+00 0.00000000D+00 0.00000000D+00 0.00000000D+00
  <mgrwgt>
 -.6030447159D+00    2    2    0
 0.518392680380798D+03 0.000000000000000D+00 0.000000000000000D+00 0.518392680380798D+03
 0.518392680380798D+03 0.000000000000000D+00 0.000000000000000D+00 -.518392680380798D+03
 0.245453448866410D+03 -.333384332628551D+00 0.878786117998063D+01 0.211057001568731D+03
 0.298347754497191D+03 0.473098826322506D+02 -.163547842643984D+02 0.279625512617328D+03
 0.492984157397996D+03 -.469764982996220D+02 0.756692308441774D+01 -.490682514186059D+03
 0.000000000000000D+00 -.000000000000000D+00 0.000000000000000D+00 0.000000000000000D+00
 0.590115224380649D+03 0.000000000000000D+00 0.000000000000000D+00 0.590115224380649D+03
 0.521153487218102D+03 0.000000000000000D+00 0.000000000000000D+00 -.521153487218102D+03
 0.245350777610007D+03 0.362477815137371D+01 0.371579681967623D+01 0.211057001568731D+03
 0.299551595791866D+03 0.521317294091491D+02 -.225335900326816D+02 0.279625512617328D+03
 0.492239358573629D+03 -.390310191270561D+02 -.261456438599138D+01 -.490682514186059D+03
 0.741269796232485D+02 -.167254884334667D+02 0.214323575989968D+02 0.689617371625468D+02
-.693927748799D-02 0.000000000000D+00 0.000000000000D+00 0.252498022055D-04 0.000000000000D+00  6 1 21 25 23 1 21 4 0.72129026D-01 0.10059765D+00 0.22326366D+05 0.22326366D+05 0.22326366D+05 0.12285994D+01  1  2 13  1  6  1        1 -.716745591610D+00 0.100000000000D+01
0.111163979150D-02 0.000000000000D+00 0.000000000000D+00 0.255489778522D-04 0.355405984901D-06  6 1 21 25 23 1 21 4 0.71974913D-01 0.10113340D+00 0.22326366D+05 0.22326366D+05 0.22326366D+05 0.12285994D+01  1  2  1  1  6  1        1 0.113700875666D+00 0.100000000000D+01
  </mgrwgt>
  </event>
  <event>
  5     66 0.36102257E-03 0.92908061E+02 0.75467711E-02 0.11570200E+00
        1 -1    0    0  502    0 0.00000000E+00 0.00000000E+00 0.19380194E+04 0.19380194E+04 0.32000000E+00 0.0000E+00 0.9000E+01
       21 -1    0    0  501  502 0.00000000E+00 0.00000000E+00 -.19198585E+02 0.19213229E+02 0.75000000E+00 0.0000E+00 0.9000E+01
       25  1    1    2    0    0 0.28596267E+02 -.35223449E+02 0.12567333E+04 0.12637492E+04 0.12500000E+03 0.0000E+00 0.9000E+01
       23  1    1    2    0    0 -.14717150E+02 -.56641686E+02 0.27926335E+03 0.29954656E+03 0.91188000E+02 0.0000E+00 0.9000E+01
        1  1    1    2  501    0 -.13879118E+02 0.91865135E+02 0.38282409E+03 0.39393682E+03 0.32000000E+00 0.0000E+00 0.9000E+01
#aMCatNLO 1  0  0  1  2 0.47470465D+02 0.00000000D+00  -5  6  0 0.00000000D+00 0.00000000D+00 0.00000000D+00 0.00000000D+00 0.00000000D+00
  <mgrwgt>
 0.3197415377D-01    9    2    0
 0.192928967931111D+03 0.000000000000000D+00 0.000000000000000D+00 0.192928967931111D+03
 0.192928967931111D+03 0.000000000000000D+00 0.000000000000000D+00 -.192928967931111D+03
 0.160694393286171D+03 0.285963004295271D+02 -.352236684815868D+02 0.902176967897883D+02
 0.130685436047966D+03 -.147171226978404D+02 -.566418645104395D+02 -.730652950129173D+02
 0.944781065280843D+02 -.138791777316867D+02 0.918655329920264D+02 -.171524017768710D+02
 0.000000000000000D+00 0.000000000000000D+00 -.000000000000000D+00 0.000000000000000D+00
 0.242526140031119D+03 0.000000000000000D+00 0.000000000000000D+00 0.242526140031119D+03
 0.206085427689729D+03 0.000000000000000D+00 0.000000000000000D+00 -.206085427689729D+03
 0.156335544243722D+03 0.154148659509961D+02 -.209511691234473D+02 0.902176967897883D+02
 0.127779941902256D+03 -.254635666171891D+02 -.450059068162297D+02 -.730652950129173D+02
 0.104651528508796D+03 -.221585669194190D+02 0.100830230806984D+03 -.171524017768710D+02
 0.598445530660752D+02 0.322072675856120D+02 -.348731548673072D+02 0.364407123413893D+02
0.227261315177D-05 0.000000000000D+00 0.000000000000D+00 0.109932785059D-06 0.000000000000D+00  6 1 21 25 23 1 21 2 0.29815795D+00 0.29547570D-02 0.27928955D+05 0.27928955D+05 0.27928955D+05 0.12181725D+01  1  2  2  1  6  1        1 0.932666281344D-02 0.100000000000D+01
-.168562078862D-06 0.119929090885D-06 -.458775118455D-08 0.109932785059D-06 0.000000000000D+00  6 1 21 25 23 1 21 4 0.29815795D+00 0.29547570D-02 0.27928955D+05 0.27928955D+05 0.27928955D+05 0.12181725D+01  1  2  3  1  6  1        1 -.102654559118D-02 0.100000000000D+01
0.256559311545D-06 0.000000000000D+00 0.000000000000D+00 0.109932785059D-06 0.000000000000D+00  6 1 21 25 23 1 21 4 0.29815795D+00 0.29547570D-02 0.27928955D+05 0.27928955D+05 0.27928955D+05 0.12181725D+01  1  2 15  1  6  1        1 0.156245005948D-02 0.100000000000D+01
0.711663076893D-05 0.000000000000D+00 0.000000000000D+00 0.107711074055D-06 0.000000000000D+00  6 1 21 25 23 1 21 4 0.38304141D+00 0.29547570D-02 0.36713176D+05 0.36713176D+05 0.36713176D+05 0.12058002D+01  1  2 12  1  6  1        1 0.181407590673D-01 0.100000000000D+01
-.673510941439D-05 0.000000000000D+00 0.000000000000D+00 0.109932785059D-06 0.000000000000D+00  6 1 21 25 23 1 21 4 0.29815795D+00 0.29547570D-02 0.27928955D+05 0.27928955D+05 0.27928955D+05 0.12181725D+01  1  2  4  1  6  1        1 -.410169174594D-01 0.100000000000D+01
-.123863819253D-04 0.000000000000D+00 -.310458002366D-05 0.109932785059D-06 0.000000000000D+00  6 1 21 25 23 1 21 4 0.38352977D+00 0.29547570D-02 0.27928955D+05 0.27928955D+05 0.27928955D+05 0.12181725D+01  1  2  5  1  6  1        1 -.330617498367D-01 0.100000000000D+01
0.128543362221D-04 0.000000000000D+00 0.300869907645D-05 0.109932785059D-06 0.000000000000D+00  6 1 21 25 23 1 21 4 0.29815795D+00 0.29547570D-02 0.27928955D+05 0.27928955D+05 0.27928955D+05 0.12181725D+01  1  2  6  1  6  1        1 0.782831005971D-01 0.100000000000D+01
0.241219014096D-06 0.000000000000D+00 0.000000000000D+00 0.107711074055D-06 0.000000000000D+00  6 21 21 25 23 1 -1 4 0.38304141D+00 0.29547570D-02 0.36713176D+05 0.36713176D+05 0.36713176D+05 0.12058002D+01  1  2 12  4  6  1        1 0.367123072875D-03 0.100000000000D+01
-.368769234489D-06 0.000000000000D+00 -.105624377631D-06 0.109932785059D-06 0.000000000000D+00  6 21 21 25 23 1 -1 4 0.38352977D+00 0.29547570D-02 0.27928955D+05 0.27928955D+05 0.27928955D+05 0.12181725D+01  1  2  5  4  6  1        1 -.600728956791D-03 0.100000000000D+01
  </mgrwgt>
  </event>
  <event>
  6     66 -.36102257E-03 0.54189852E+01 0.75467711E-02 0.11553559E+00
        3 -1    0    0  502    0 0.00000000E+00 0.00000000E+00 0.15434661E+04 0.15434662E+04 0.50000000E+00 0.0000E+00 0.9000E+01
       21 -1    0    0  501  502 0.00000000E+00 0.00000000E+00 -.24853158E+02 0.24864472E+02 0.75000000E+00 0.0000E+00 0.9000E+01
       25  1    1    2    0    0 -.27597937E+02 -.15348184E+03 0.79565147E+03 0.82036857E+03 0.12500000E+03 0.0000E+00 0.9000E+01
       23  1    1    2    0    0 0.23141212E+02 0.13715723E+03 0.67173818E+03 0.69202244E+03 0.91188000E+02 0.0000E+00 0.9000E+01
        3  1    1    2  503    0 0.72320677E+00 0.83135393E+01 0.72042649E+01 0.11035823E+02 0.50000000E+00 0.0000E+00 0.9000E+01
       21  1    1    2  501  503 0.37335182E+01 0.80110677E+01 0.44019046E+02 0.44903845E+02 0.75000000E+00 0.0000E+00 0.9000E+01
#aMCatNLO 2  0  0  5  2 0.70878616D+01 0.00000000D+00  -5  6  0 0.00000000D+00 0.00000000D+00 0.00000000D+00 0.00000000D+00 0.00000000D+00
  <mgrwgt>
 -.5283352869D-02    2    2    0
 0.195879920171345D+03 0.000000000000000D+00 0.000000000000000D+00 0.195879920171345D+03
 0.195879920171345D+03 -.000000000000000D+00 -.000000000000000D+00 -.195879920171345D+03
 0.201535050161206D+03 -.281285509498324D+02 -.155425433253793D+03 0.656473630950087D+01
 0.165122723546699D+03 0.227029645149644D+02 0.135551968713250D+03 0.777828179446318D+01
 0.251020666347835D+02 0.542558643486798D+01 0.198734645405437D+02 -.143430181039640D+02
 0.000000000000000D+00 0.000000000000000D+00 0.000000000000000D+00 0.000000000000000D+00
 0.195879920171345D+03 0.000000000000000D+00 0.000000000000000D+00 0.195879920171345D+03
 0.195879920171345D+03 -.000000000000000D+00 -.000000000000000D+00 -.195879920171345D+03
 0.199903471863451D+03 -.275908355997311D+02 -.153455827374056D+03 0.514323817397835D+01
 0.166471328724430D+03 0.231471252073891D+02 0.137178891789155D+03 0.660410367952678D+01
 0.158383499831668D+02 0.543806489914138D+00 0.780181535177511D+01 -.137727732104908D+02
 0.954668977164111D+01 0.389990390242785D+01 0.847512023312497D+01 0.202543135698566D+01
-.331693574526D-05 0.000000000000D+00 0.000000000000D+00 0.492084103117D-06 0.000000000000D+00  6 3 21 25 23 3 21 4 0.23745720D+00 0.38244393D-02 0.36735028D+05 0.36735028D+05 0.36735028D+05 0.12057737D+01  1  2 13  3  6  5        3 -.143624480167D-02 0.100000000000D+01
-.890994349165D-05 0.000000000000D+00 0.000000000000D+00 0.491397935632D-06 0.000000000000D+00  6 3 21 25 23 3 21 4 0.23745720D+00 0.38244393D-02 0.37436114D+05 0.37436114D+05 0.37436114D+05 0.12049328D+01  1  2  8  3  6  5        3 -.384710806697D-02 0.100000000000D+01
  </mgrwgt>
  </event>
  <event>
  5     66 -.36102257E-03 0.44777065E+02 0.75467711E-02 0.12091961E+00
        1 -1    0    0  502    0 0.00000000E+00 0.00000000E+00 0.20921472E+02 0.20923919E+02 0.32000000E+00 0.0000E+00 0.9000E+01
       21 -1    0    0  501  502 -.00000000E+00 -.00000000E+00 -.12192459E+04 0.12192461E+04 0.75000000E+00 0.0000E+00 0.9000E+01
       25  1    1    2    0    0 -.26652028E+02 -.68628935E+02 -.56585363E+03 0.58415374E+03 0.12500000E+03 0.0000E+00 0.9000E+01
       23  1    1    2    0    0 0.25436225E+01 0.30896571E+02 -.20830520E+03 0.22949373E+03 0.91188000E+02 0.0000E+00 0.9000E+01
        1  1    1    2  501    0 0.24108405E+02 0.37732363E+02 -.42416556E+03 0.42652253E+03 0.32000000E+00 0.0000E+00 0.9000E+01
#aMCatNLO 1  0  0  5  2 0.84122278D+01 0.00000000D+00  -5  6  0 0.00000000D+00 0.00000000D+00 0.00000000D+00 0.00000000D+00 0.00000000D+00
  <mgrwgt>
 -.5319696766D-01    8    2    0
 0.159718747666043D+03 0.000000000000000D+00 0.000000000000000D+00 0.159718747666043D+03
 0.159718747666043D+03 -.000000000000000D+00 -.000000000000000D+00 -.159718747666043D+03
 0.145173254159326D+03 -.266521619751202D+02 -.686291445554339D+02 -.547508016833516D+01
 0.109549021971338D+03 0.254352146188771D+01 0.308964132424876D+02 0.521984580059514D+02
 0.647152192014206D+02 0.241086405132324D+02 0.377327313129464D+02 -.467233778376162D+02
 0.000000000000000D+00 0.000000000000000D+00 0.000000000000000D+00 -.000000000000000D+00
 0.159718747666043D+03 0.000000000000000D+00 0.000000000000000D+00 0.159718747666043D+03
 0.159718747666043D+03 -.000000000000000D+00 -.000000000000000D+00 -.159718747666043D+03
 0.144770908226864D+03 -.261729846244756D+02 -.678791781600581D+02 -.640374242090412D+01
 0.109387197550269D+03 0.290534725885191D+01 0.314627112704269D+02 0.514972271168154D+02
 0.181708154938507D+02 0.134284203443734D+02 0.953034807287663D+01 -.768300256255311D+01
 0.471085740611007D+02 0.983921702125025D+01 0.268861188167545D+02 -.374104821333581D+02
0.277387605366D-04 0.000000000000D+00 0.000000000000D+00 0.511146240394D-06 0.000000000000D+00  6 1 21 25 23 1 21 2 0.32188940D-02 0.18757649D+00 0.20471978D+05 0.20471978D+05 0.20471978D+05 0.12327124D+01  1  2  2  3  6  5        1 0.224686555993D-01 0.100000000000D+01
0.349065198760D-06 0.146381460955D-05 -.559965656322D-07 0.511146240394D-06 0.000000000000D+00  6 1 21 25 23 1 21 4 0.32188940D-02 0.18757649D+00 0.20471978D+05 0.20471978D+05 0.20471978D+05 0.12327124D+01  1  2  3  3  6  5        1 0.429655244842D-03 0.100000000000D+01
0.228472108562D-05 0.000000000000D+00 0.000000000000D+00 0.511146240394D-06 0.000000000000D+00  6 1 21 25 23 1 21 4 0.32188940D-02 0.18757649D+00 0.20471978D+05 0.20471978D+05 0.20471978D+05 0.12327124D+01  1  2 15  3  6  5        1 0.281220356807D-02 0.100000000000D+01
0.188186741750D-04 0.000000000000D+00 0.000000000000D+00 0.511126315273D-06 0.000000000000D+00  6 1 21 25 23 1 21 4 0.32188940D-02 0.18757649D+00 0.20482297D+05 0.20482297D+05 0.20482297D+05 0.12326884D+01  1  2 12  3  6  5        1 0.231612567931D-01 0.100000000000D+01
-.104174345449D-03 0.000000000000D+00 0.000000000000D+00 0.511146240394D-06 0.000000000000D+00  6 1 21 25 23 1 21 4 0.32188940D-02 0.18757649D+00 0.20471978D+05 0.20471978D+05 0.20471978D+05 0.12327124D+01  1  2  4  3  6  5        1 -.128225483547D+00 0.100000000000D+01
-.184483620801D-04 0.000000000000D+00 0.000000000000D+00 0.511146240394D-06 0.000000000000D+00  6 1 21 25 23 1 21 4 0.32188940D-02 0.18757649D+00 0.20471978D+05 0.20471978D+05 0.20471978D+05 0.12327124D+01  1  2  5  3  6  5        1 -.227076075033D-01 0.100000000000D+01
0.396122395227D-04 0.000000000000D+00 -.000000000000D+00 0.511146240394D-06 0.000000000000D+00  6 1 21 25 23 1 21 4 0.32188940D-02 0.18757649D+00 0.20471978D+05 0.20471978D+05 0.20471978D+05 0.12327124D+01  1  2  6  3  6  5        1 0.487576720090D-01 0.100000000000D+01
0.866783446260D-07 0.000000000000D+00 0.000000000000D+00 0.511146240394D-06 0.256635893889D-07  6 1 21 25 23 1 21 4 0.32188940D-02 0.18757649D+00 0.20482297D+05 0.20482297D+05 0.20482297D+05 0.12326884D+01  1  2 11  3  6  5        1 0.106680172025D-03 0.100000000000D+01
  </mgrwgt>
  </event>
  <event>
  5     66 0.36102257E-03 0.60663420E+02 0.75467711E-02 0.11125118E+00
        1 -1    0    0  502    0 0.00000000E+00 0.00000000E+00 0.20164991E+04 0.20164991E+04 0.32000000E+00 0.0000E+00 0.9000E+01
       21 -1    0    0  501  502 0.00000000E+00 0.00000000E+00 -.31817653E+02 0.31826492E+02 0.75000000E+00 0.0000E+00 0.9000E+01
       25  1    1    2    0    0 0.74775723E+02 -.12309538E+03 0.63572364E+03 0.66371186E+03 0.12500000E+03 0.0000E+00 0.9000E+01
       23  1    1    2    0    0 -.67040141E+02 0.18326328E+03 0.68924230E+03 0.72211496E+03 0.91188000E+02 0.0000E+00 0.9000E+01
        1  1    1    2  501    0 -.77355818E+01 -.60167904E+02 0.65971552E+03 0.66249882E+03 0.32000000E+00 0.0000E+00 0.9000E+01
#aMCatNLO 1  0  0  2  1 0.35647193D+02 0.00000000D+00  -5  6  0 0.00000000D+00 0.00000000D+00 0.00000000D+00 0.00000000D+00 0.00000000D+00
  <mgrwgt>
 0.9763943242D-01   32    2    0
 0.253316694312807D+03 0.000000000000000D+00 0.000000000000000D+00 0.253316694312807D+03
 0.253316694312807D+03 0.000000000000000D+00 0.000000000000000D+00 -.253316694312807D+03
 0.193017391417083D+03 0.747757396904026D+02 -.123095243415315D+03 -.297802483490847D+02
 0.219488566936036D+03 -.670401214855089D+02 0.183263430462371D+03 -.421914308599073D+02
 0.941274302724956D+02 -.773561820489368D+01 -.601681870470567D+02 0.719716792089920D+02
 0.000000000000000D+00 -.000000000000000D+00 -.000000000000000D+00 -.000000000000000D+00
 0.263260971484329D+03 0.000000000000000D+00 0.000000000000000D+00 0.263260971484329D+03
 0.288036145298754D+03 0.000000000000000D+00 0.000000000000000D+00 -.288036145298754D+03
 0.194522443492921D+03 0.870707700404971D+02 -.117242478800470D+03 -.297802483490847D+02
 0.221314396609361D+03 -.530552731499545D+02 0.189920593816318D+03 -.421914308599073D+02
 0.920490848901538D+02 -.182901016566809D+01 -.573564830055556D+02 0.719716792089920D+02
 0.434111917906468D+02 -.321864867248745D+02 -.153216320102928D+02 -.247751738144250D+02
0.129047414509D-04 0.000000000000D+00 0.000000000000D+00 0.393378033239D-07 0.000000000000D+00  6 1 21 25 23 1 21 2 0.31023131D+00 0.48957054D-02 0.54467358D+05 0.54467358D+05 0.54467358D+05 0.11886184D+01  1  2  2  2  6  2       21 0.188761753807D-01 0.100000000000D+01
-.117521240781D-05 0.681001915837D-06 -.260509549686D-07 0.393378033239D-07 0.000000000000D+00  6 1 21 25 23 1 21 4 0.31023131D+00 0.48957054D-02 0.54467358D+05 0.54467358D+05 0.54467358D+05 0.11886184D+01  1  2  3  2  6  2       21 -.242865578982D-02 0.100000000000D+01
0.121068353769D-05 0.000000000000D+00 0.000000000000D+00 0.393378033239D-07 0.000000000000D+00  6 1 21 25 23 1 21 4 0.31023131D+00 0.48957054D-02 0.54467358D+05 0.54467358D+05 0.54467358D+05 0.11886184D+01  1  2 15  2  6  2       21 0.250195927469D-02 0.100000000000D+01
0.318977384151D-04 0.000000000000D+00 0.000000000000D+00 0.389259933132D-07 0.000000000000D+00  6 1 21 25 23 1 21 4 0.31023131D+00 0.56535416D-02 0.63130997D+05 0.63130997D+05 0.63130997D+05 0.11823805D+01  1  2 12  2  6  2       21 0.501806921696D-01 0.100000000000D+01
0.250850616891D-04 0.000000000000D+00 0.000000000000D+00 0.389259933132D-07 0.000000000000D+00  6 1 21 25 23 1 21 4 0.31023131D+00 0.58494397D-02 0.63130997D+05 0.63130997D+05 0.63130997D+05 0.11823805D+01  1  2 12  2  6  2       21 0.372204398063D-01 0.100000000000D+01
-.342044678659D-04 0.000000000000D+00 0.000000000000D+00 0.393378033239D-07 0.000000000000D+00  6 1 21 25 23 1 21 4 0.31023131D+00 0.48957054D-02 0.54467358D+05 0.54467358D+05 0.54467358D+05 0.11886184D+01  1  2  4  2  6  2       21 -.706858422940D-01 0.100000000000D+01
-.130316240675D-03 0.000000000000D+00 -.271017004242D-04 0.393378033239D-07 0.000000000000D+00  6 1 21 25 23 1 21 4 0.31023131D+00 0.58142742D-02 0.54467358D+05 0.54467358D+05 0.54467358D+05 0.11886184D+01  1  2  5  2  6  2       21 -.200758799297D+00 0.100000000000D+01
0.127959253720D-03 0.000000000000D+00 0.255637021393D-04 0.393378033239D-07 0.000000000000D+00  6 1 21 25 23 1 21 4 0.31023131D+00 0.48957054D-02 0.54467358D+05 0.54467358D+05 0.54467358D+05 0.11886184D+01  1  2  6  2  6  2       21 0.264436437484D+00 0.100000000000D+01
0.123796504185D-05 0.000000000000D+00 0.000000000000D+00 0.389259933132D-07 0.000000000000D+00  6 1 -1 25 23 1 -1 4 0.31023131D+00 0.56535416D-02 0.63130997D+05 0.63130997D+05 0.63130997D+05 0.11823805D+01  1  2 12  5  6  2       21 0.116799684201D-03 0.100000000000D+01
0.125126207506D-05 0.000000000000D+00 0.000000000000D+00 0.389259933132D-07 0.000000000000D+00  6 1 -1 25 23 1 -1 4 0.31023131D+00 0.58494397D-02 0.63130997D+05 0.63130997D+05 0.63130997D+05 0.11823805D+01  1  2 12  5  6  2       21 0.112137726752D-03 0.100000000000D+01
-.507113323790D-05 0.000000000000D+00 -.129746154867D-05 0.393378033239D-07 0.000000000000D+00  6 1 -1 25 23 1 -1 4 0.31023131D+00 0.58142742D-02 0.54467358D+05 0.54467358D+05 0.54467358D+05 0.11886184D+01  1  2  5  5  6  2       21 -.469823178937D-03 0.100000000000D+01
0.123796504185D-05 0.000000000000D+00 0.000000000000D+00 0.389259933132D-07 0.000000000000D+00  6 1 1 25 23 1 1 4 0.31023131D+00 0.56535416D-02 0.63130997D+05 0.63130997D+05 0.63130997D+05 0.11823805D+01  1  2 12  6  6  2       21 0.133357729139D-03 0.100000000000D+01
0.125126207506D-05 0.000000000000D+00 0.000000000000D+00 0.389259933132D-07 0.000000000000D+00  6 1 1 25 23 1 1 4 0.31023131D+00 0.58494397D-02 0.63130997D+05 0.63130997D+05 0.63130997D+05 0.11823805D+01  1  2 12  6  6  2       21 0.128589060720D-03 0.100000000000D+01
-.507113323790D-05 0.000000000000D+00 -.129746154867D-05 0.393378033239D-07 0.000000000000D+00  6 1 1 25 23 1 1 4 0.31023131D+00 0.58142742D-02 0.54467358D+05 0.54467358D+05 0.54467358D+05 0.11886184D+01  1  2  5  6  6  2       21 -.538433959747D-03 0.100000000000D+01
0.123796504185D-05 0.000000000000D+00 0.000000000000D+00 0.389259933132D-07 0.000000000000D+00  6 1 -2 25 23 1 -2 4 0.31023131D+00 0.56535416D-02 0.63130997D+05 0.63130997D+05 0.63130997D+05 0.11823805D+01  1  2 12  7  6  2       21 0.113900070586D-03 0.100000000000D+01
0.123796504185D-05 0.000000000000D+00 0.000000000000D+00 0.389259933132D-07 0.000000000000D+00  6 1 -4 25 23 1 -4 4 0.31023131D+00 0.56535416D-02 0.63130997D+05 0.63130997D+05 0.63130997D+05 0.11823805D+01  1  2 12  7  6  2       21 0.754167355992D-04 0.100000000000D+01
0.125126207506D-05 0.000000000000D+00 0.000000000000D+00 0.389259933132D-07 0.000000000000D+00  6 1 -2 25 23 1 -2 4 0.31023131D+00 0.58494397D-02 0.63130997D+05 0.63130997D+05 0.63130997D+05 0.11823805D+01  1  2 12  7  6  2       21 0.109259711442D-03 0.100000000000D+01
0.125126207506D-05 0.000000000000D+00 0.000000000000D+00 0.389259933132D-07 0.000000000000D+00  6 1 -4 25 23 1 -4 4 0.31023131D+00 0.58494397D-02 0.63130997D+05 0.63130997D+05 0.63130997D+05 0.11823805D+01  1  2 12  7  6  2       21 0.720835446565D-04 0.100000000000D+01
-.507113323790D-05 0.000000000000D+00 -.129746154867D-05 0.393378033239D-07 0.000000000000D+00  6 1 -2 25 23 1 -2 4 0.31023131D+00 0.58142742D-02 0.54467358D+05 0.54467358D+05 0.54467358D+05 0.11886184D+01  1  2  5  7  6  2       21 -.457812825740D-03 0.100000000000D+01
-.507113323790D-05 0.000000000000D+00 -.129746154867D-05 0.393378033239D-07 0.000000000000D+00  6 1 -4 25 23 1 -4 4 0.31023131D+00 0.58142742D-02 0.54467358D+05 0.54467358D+05 0.54467358D+05 0.11886184D+01  1  2  5  7  6  2       21 -.301071818188D-03 0.100000000000D+01
0.123796504185D-05 0.000000000000D+00 0.000000000000D+00 0.389259933132D-07 0.000000000000D+00  6 1 2 25 23 1 2 4 0.31023131D+00 0.56535416D-02 0.63130997D+05 0.63130997D+05 0.63130997D+05 0.11823805D+01  1  2 12  8  6  2       21 0.144530509861D-03 0.100000000000D+01
0.123796504185D-05 0.000000000000D+00 0.000000000000D+00 0.389259933132D-07 0.000000000000D+00  6 1 4 25 23 1 4 4 0.31023131D+00 0.56535416D-02 0.63130997D+05 0.63130997D+05 0.63130997D+05 0.11823805D+01  1  2 12  8  6  2       21 0.754167355992D-04 0.100000000000D+01
0.125126207506D-05 0.000000000000D+00 0.000000000000D+00 0.389259933132D-07 0.000000000000D+00  6 1 2 25 23 1 2 4 0.31023131D+00 0.58494397D-02 0.63130997D+05 0.63130997D+05 0.63130997D+05 0.11823805D+01  1  2 12  8  6  2       21 0.139689572788D-03 0.100000000000D+01
0.125126207506D-05 0.000000000000D+00 0.000000000000D+00 0.389259933132D-07 0.000000000000D+00  6 1 4 25 23 1 4 4 0.31023131D+00 0.58494397D-02 0.63130997D+05 0.63130997D+05 0.63130997D+05 0.11823805D+01  1  2 12  8  6  2       21 0.720835446565D-04 0.100000000000D+01
-.507113323790D-05 0.000000000000D+00 -.129746154867D-05 0.393378033239D-07 0.000000000000D+00  6 1 2 25 23 1 2 4 0.31023131D+00 0.58142742D-02 0.54467358D+05 0.54467358D+05 0.54467358D+05 0.11886184D+01  1  2  5  8  6  2       21 -.584696663057D-03 0.100000000000D+01
-.507113323790D-05 0.000000000000D+00 -.129746154867D-05 0.393378033239D-07 0.000000000000D+00  6 1 4 25 23 1 4 4 0.31023131D+00 0.58142742D-02 0.54467358D+05 0.54467358D+05 0.54467358D+05 0.11886184D+01  1  2  5  8  6  2       21 -.301071818188D-03 0.100000000000D+01
0.123796504185D-05 0.000000000000D+00 0.000000000000D+00 0.389259933132D-07 0.000000000000D+00  6 1 -3 25 23 1 -3 4 0.31023131D+00 0.56535416D-02 0.63130997D+05 0.63130997D+05 0.63130997D+05 0.11823805D+01  1  2 12  9  6  2       21 0.840261368424D-04 0.100000000000D+01
0.125126207506D-05 0.000000000000D+00 0.000000000000D+00 0.389259933132D-07 0.000000000000D+00  6 1 -3 25 23 1 -3 4 0.31023131D+00 0.58494397D-02 0.63130997D+05 0.63130997D+05 0.63130997D+05 0.11823805D+01  1  2 12  9  6  2       21 0.803847061631D-04 0.100000000000D+01
-.507113323790D-05 0.000000000000D+00 -.129746154867D-05 0.393378033239D-07 0.000000000000D+00  6 1 -3 25 23 1 -3 4 0.31023131D+00 0.58142742D-02 0.54467358D+05 0.54467358D+05 0.54467358D+05 0.11886184D+01  1  2  5  9  6  2       21 -.336083709899D-03 0.100000000000D+01
0.123796504185D-05 0.000000000000D+00 0.000000000000D+00 0.389259933132D-07 0.000000000000D+00  6 1 3 25 23 1 3 4 0.31023131D+00 0.56535416D-02 0.63130997D+05 0.63130997D+05 0.63130997D+05 0.11823805D+01  1  2 12 10  6  2       21 0.840181088072D-04 0.100000000000D+01
0.125126207506D-05 0.000000000000D+00 0.000000000000D+00 0.389259933132D-07 0.000000000000D+00  6 1 3 25 23 1 3 4 0.31023131D+00 0.58494397D-02 0.63130997D+05 0.63130997D+05 0.63130997D+05 0.11823805D+01  1  2 12 10  6  2       21 0.803769087589D-04 0.100000000000D+01
-.507113323790D-05 0.000000000000D+00 -.129746154867D-05 0.393378033239D-07 0.000000000000D+00  6 1 3 25 23 1 3 4 0.31023131D+00 0.58142742D-02 0.54467358D+05 0.54467358D+05 0.54467358D+05 0.11886184D+01  1  2  5 10  6  2       21 -.336050830758D-03 0.100000000000D+01
  </mgrwgt>
  </event>
  <event>
  5     66 0.36102257E-03 0.26287942E+02 0.75467711E-02 0.11572742E+00
        1 -1    0    0  502    0 0.00000000E+00 0.00000000E+00 0.18504081E+03 0.18504109E+03 0.32000000E+00 0.0000E+00 0.9000E+01
       21 -1    0    0  501  502 0.00000000E+00 0.00000000E+00 -.19470485E+03 0.19470629E+03 0.75000000E+00 0.0000E+00 0.9000E+01
       25  1    1    2    0    0 -.82736535E+02 0.65650107E+02 0.65924545E+02 0.17642652E+03 0.12500000E+03 0.0000E+00 0.9000E+01
       23  1    1    2    0    0 0.10886404E+03 -.68542417E+02 -.47129965E+02 0.16457803E+03 0.91188000E+02 0.0000E+00 0.9000E+01
        1  1    1    2  501    0 -.26127503E+02 0.28923099E+01 -.28458617E+02 0.38742834E+02 0.32000000E+00 0.0000E+00 0.9000E+01
#aMCatNLO 1  0  0  2  1 0.84140918D+01 0.00000000D+00  -5  6  0 0.00000000D+00 0.00000000D+00 0.00000000D+00 0.00000000D+00 0.00000000D+00
  <mgrwgt>
 0.4377497046D-01    4    2    0
 0.189812195378500D+03 0.000000000000000D+00 0.000000000000000D+00 0.189812195378500D+03
 0.189812195378500D+03 0.000000000000000D+00 0.000000000000000D+00 -.189812195378500D+03
 0.178161867664561D+03 -.827361006655398D+02 0.656500592394117D+02 0.704376210433585D+02
 0.163431738828184D+03 0.108864436448129D+03 -.685424613128750D+02 -.429551788077790D+02
 0.380307842642542D+02 -.261283357825887D+02 0.289240207346333D+01 -.274824422355795D+02
 0.000000000000000D+00 0.000000000000000D+00 -.000000000000000D+00 0.000000000000000D+00
 0.217396035971839D+03 0.000000000000000D+00 0.000000000000000D+00 0.217396035971839D+03
 0.200259294528806D+03 0.000000000000000D+00 0.000000000000000D+00 -.200259294528806D+03
 0.187820716496233D+03 -.951700938594687D+02 0.750520907216476D+02 0.704376210433585D+02
 0.153087103786070D+03 0.981109380437158D+02 -.604111450924490D+02 -.429551788077790D+02
 0.400965175103505D+02 -.287826542681336D+02 0.489947941183267D+01 -.274824422355795D+02
 0.366509927079906D+02 0.258418100838864D+02 -.195404250410312D+02 0.171367414430330D+02
0.161401950814D-04 0.000000000000D+00 0.000000000000D+00 0.467908773393D-06 0.000000000000D+00  6 1 21 25 23 1 21 2 0.28467949D-01 0.29954724D-01 0.30209952D+05 0.30209952D+05 0.30209952D+05 0.12145806D+01  1  2  2  2  6  2       21 0.447172296327D-01 0.100000000000D+01
0.147778806030D-05 0.851741494723D-06 -.325824036730D-07 0.467908773393D-06 0.000000000000D+00  6 1 21 25 23 1 21 4 0.28467949D-01 0.29954724D-01 0.30209952D+05 0.30209952D+05 0.30209952D+05 0.12145806D+01  1  2  3  2  6  2       21 0.603991707453D-02 0.100000000000D+01
0.106040118211D-05 0.000000000000D+00 0.000000000000D+00 0.467908773393D-06 0.000000000000D+00  6 1 21 25 23 1 21 4 0.28467949D-01 0.29954724D-01 0.30209952D+05 0.30209952D+05 0.30209952D+05 0.12145806D+01  1  2 15  2  6  2       21 0.433400118576D-02 0.100000000000D+01
-.276873203684D-05 0.000000000000D+00 0.000000000000D+00 0.467908773393D-06 0.000000000000D+00  6 1 21 25 23 1 21 4 0.28467949D-01 0.29954724D-01 0.30209952D+05 0.30209952D+05 0.30209952D+05 0.12145806D+01  1  2  4  2  6  2       21 -.113161774366D-01 0.100000000000D+01
  </mgrwgt>
  </event>
  <event>
  5     66 0.36102257E-03 0.20075672E+02 0.75467711E-02 0.11813426E+00
        1 -1    0    0  502    0 0.00000000E+00 0.00000000E+00 0.12124114E+04 0.12124114E+04 0.32000000E+00 0.0000E+00 0.9000E+01
       21 -1    0    0  501  502 0.00000000E+00 0.00000000E+00 -.16894914E+02 0.16911553E+02 0.75000000E+00 0.0000E+00 0.9000E+01
       25  1    1    2    0    0 -.56258608E+02 0.17309975E+02 0.68250936E+03 0.69635386E+03 0.12500000E+03 0.0000E+00 0.9000E+01
       23  1    1    2    0    0 0.60782003E+02 -.36868408E+02 0.48447324E+03 0.49807961E+03 0.91188000E+02 0.0000E+00 0.9000E+01
        1  1    1    2  501    0 -.45233951E+01 0.19558433E+02 0.28533852E+02 0.34889490E+02 0.32000000E+00 0.0000E+00 0.9000E+01
#aMCatNLO 1  0  0  2  2 0.56186905D+02 0.00000000D+00  -5  6  0 0.00000000D+00 0.00000000D+00 0.00000000D+00 0.00000000D+00 0.00000000D+00
  <mgrwgt>
 0.1579181065D+00   14    2    0
 0.143156693773588D+03 0.000000000000000D+00 0.000000000000000D+00 0.143156693773588D+03
 0.143156693773588D+03 0.000000000000000D+00 0.000000000000000D+00 -.143156693773588D+03
 0.140030518661400D+03 -.562584872816887D+02 0.173094536876124D+02 0.227796307782465D+02
 0.115625166673228D+03 0.607821024234321D+02 -.368688383172990D+02 0.390653723904485D+00
 0.306577022125476D+02 -.452361514174348D+01 0.195593846296866D+02 -.231702845021510D+02
 0.000000000000000D+00 0.000000000000000D+00 0.000000000000000D+00 -.000000000000000D+00
 0.156177341346810D+03 0.000000000000000D+00 0.000000000000000D+00 0.156177341346810D+03
 0.222586229220228D+03 0.000000000000000D+00 0.000000000000000D+00 -.222586229220228D+03
 0.140047031319536D+03 -.580706018434627D+02 -.985213705547797D+01 0.227796307782465D+02
 0.124255729342797D+03 0.592300620517864D+02 -.601322049281414D+02 0.390653723904485D+00
 0.274716799972477D+02 -.489971490402884D+01 0.139220656448604D+02 -.231702845021510D+02
 0.869891299074570D+02 0.374025469570509D+01 0.560622763387590D+02 -.664088878734188D+02
0.311715930562D-05 0.000000000000D+00 0.000000000000D+00 0.127710950320D-05 0.000000000000D+00  6 1 21 25 23 1 21 2 0.18652611D+00 0.26005007D-02 0.18750567D+05 0.18750567D+05 0.18750567D+05 0.12369223D+01  1  2  2  2  6  2       21 0.484305449781D-01 0.100000000000D+01
0.325478653529D-06 0.164497015858D-06 -.629264654463D-08 0.127710950320D-05 0.000000000000D+00  6 1 21 25 23 1 21 4 0.18652611D+00 0.26005007D-02 0.18750567D+05 0.18750567D+05 0.18750567D+05 0.12369223D+01  1  2  3  2  6  2       21 0.773691276267D-02 0.100000000000D+01
0.230488745668D-06 0.000000000000D+00 0.000000000000D+00 0.127710950320D-05 0.000000000000D+00  6 1 21 25 23 1 21 4 0.18652611D+00 0.26005007D-02 0.18750567D+05 0.18750567D+05 0.18750567D+05 0.12369223D+01  1  2 15  2  6  2       21 0.547891942737D-02 0.100000000000D+01
-.783318035728D-07 0.000000000000D+00 0.000000000000D+00 0.127710950320D-05 0.000000000000D+00  6 1 21 25 23 1 21 4 0.18652611D+00 0.26005007D-02 0.18750567D+05 0.18750567D+05 0.18750567D+05 0.12369223D+01  1  2  4  2  6  2       21 -.186201560138D-02 0.100000000000D+01
-.127750738459D-04 0.000000000000D+00 -.394181564378D-05 0.127710950320D-05 0.000000000000D+00  6 1 21 25 23 1 21 4 0.18652611D+00 0.44244151D-02 0.18750567D+05 0.18750567D+05 0.18750567D+05 0.12369223D+01  1  2  5  2  6  2       21 -.126260282807D+00 0.100000000000D+01
0.973719887097D-05 0.000000000000D+00 0.237192842270D-05 0.127710950320D-05 0.000000000000D+00  6 1 21 25 23 1 21 4 0.18652611D+00 0.26005007D-02 0.18750567D+05 0.18750567D+05 0.18750567D+05 0.12369223D+01  1  2  6  2  6  2       21 0.231461748415D+00 0.100000000000D+01
-.182941029804D-05 0.000000000000D+00 -.735866849149D-06 0.127710950320D-05 0.000000000000D+00  6 1 -1 25 23 1 -1 4 0.18652611D+00 0.44244151D-02 0.18750567D+05 0.18750567D+05 0.18750567D+05 0.12369223D+01  1  2  5  5  6  2       21 -.100880713362D-02 0.100000000000D+01
-.182941029804D-05 0.000000000000D+00 -.735866849149D-06 0.127710950320D-05 0.000000000000D+00  6 1 1 25 23 1 1 4 0.18652611D+00 0.44244151D-02 0.18750567D+05 0.18750567D+05 0.18750567D+05 0.12369223D+01  1  2  5  6  6  2       21 -.112239348673D-02 0.100000000000D+01
-.182941029804D-05 0.000000000000D+00 -.735866849149D-06 0.127710950320D-05 0.000000000000D+00  6 1 -2 25 23 1 -2 4 0.18652611D+00 0.44244151D-02 0.18750567D+05 0.18750567D+05 0.18750567D+05 0.12369223D+01  1  2  5  7  6  2       21 -.988687550574D-03 0.100000000000D+01
-.182941029804D-05 0.000000000000D+00 -.735866849149D-06 0.127710950320D-05 0.000000000000D+00  6 1 -4 25 23 1 -4 4 0.18652611D+00 0.44244151D-02 0.18750567D+05 0.18750567D+05 0.18750567D+05 0.12369223D+01  1  2  5  7  6  2       21 -.648582829607D-03 0.100000000000D+01
-.182941029804D-05 0.000000000000D+00 -.735866849149D-06 0.127710950320D-05 0.000000000000D+00  6 1 2 25 23 1 2 4 0.18652611D+00 0.44244151D-02 0.18750567D+05 0.18750567D+05 0.18750567D+05 0.12369223D+01  1  2  5  8  6  2       21 -.119884513875D-02 0.100000000000D+01
-.182941029804D-05 0.000000000000D+00 -.735866849149D-06 0.127710950320D-05 0.000000000000D+00  6 1 4 25 23 1 4 4 0.18652611D+00 0.44244151D-02 0.18750567D+05 0.18750567D+05 0.18750567D+05 0.12369223D+01  1  2  5  8  6  2       21 -.648582829607D-03 0.100000000000D+01
-.182941029804D-05 0.000000000000D+00 -.735866849149D-06 0.127710950320D-05 0.000000000000D+00  6 1 -3 25 23 1 -3 4 0.18652611D+00 0.44244151D-02 0.18750567D+05 0.18750567D+05 0.18750567D+05 0.12369223D+01  1  2  5  9  6  2       21 -.725944632553D-03 0.100000000000D+01
-.182941029804D-05 0.000000000000D+00 -.735866849149D-06 0.127710950320D-05 0.000000000000D+00  6 1 3 25 23 1 3 4 0.18652611D+00 0.44244151D-02 0.18750567D+05 0.18750567D+05 0.18750567D+05 0.12369223D+01  1  2  5 10  6  2       21 -.725877024366D-03 0.100000000000D+01
  </mgrwgt>
  </event>
  <event>
  5     66 0.36102257E-03 0.22940788E+02 0.75467711E-02 0.12214747E+00
        1 -1    0    0  502    0 0.00000000E+00 0.00000000E+00 0.18385498E+04 0.18385498E+04 0.32000000E+00 0.0000E+00 0.9000E+01
       21 -1    0    0  501  502 0.00000000E+00 0.00000000E+00 -.10519577E+02 0.10546279E+02 0.75000000E+00 0.0000E+00 0.9000E+01
       25  1    1    2    0    0 -.50266037E+01 0.25268084E+02 0.64336508E+03 0.65590195E+03 0.12500000E+03 0.0000E+00 0.9000E+01
       23  1    1    2    0    0 0.27806929E+02 -.22567600E+02 0.11252001E+04 0.11294570E+04 0.91188000E+02 0.0000E+00 0.9000E+01
        1  1    1    2  501    0 -.22780325E+02 -.27004844E+01 0.59465053E+02 0.63737200E+02 0.32000000E+00 0.0000E+00 0.9000E+01
#aMCatNLO 1  0  0  2  1 0.19220012D+02 0.00000000D+00  -5  6  0 0.00000000D+00 0.00000000D+00 0.00000000D+00 0.00000000D+00 0.00000000D+00
  <mgrwgt>
 0.1554833780D+00   13    2    0
 0.139159906872881D+03 0.000000000000000D+00 0.000000000000000D+00 0.139159906872881D+03
 0.139159906872881D+03 0.000000000000000D+00 0.000000000000000D+00 -.139159906872881D+03
 0.131988064713882D+03 -.502609214639121D+01 0.252681445621529D+02 -.336468199840359D+02
 0.113447836157147D+03 0.278073684817910D+02 -.225675474390458D+02 0.572067849598548D+02
 0.328839128747325D+02 -.227812763353997D+02 -.270059712310711D+01 -.235599649758189D+02
 0.000000000000000D+00 -.000000000000000D+00 -.000000000000000D+00 0.000000000000000D+00
 0.149585419825480D+03 0.000000000000000D+00 0.000000000000000D+00 0.149585419825480D+03
 0.148640472249521D+03 0.000000000000000D+00 0.000000000000000D+00 -.148640472249521D+03
 0.134042525299276D+03 -.490249366839856D+01 0.344420622117798D+02 -.336468199840359D+02
 0.112185582926432D+03 0.279121983330559D+02 -.147867038692363D+02 0.572067849598548D+02
 0.327545571352799D+02 -.227507805379405D+02 -.437090815469416D+00 -.235599649758189D+02
 0.192432267140129D+02 -.258924126716856D+00 -.192182675270741D+02 0.944947575958954D+00
0.424650941879D-05 0.000000000000D+00 0.000000000000D+00 0.102717578816D-05 0.000000000000D+00  6 1 21 25 23 1 21 2 0.28285587D+00 0.16204527D-02 0.15442595D+05 0.15442595D+05 0.15442595D+05 0.12463854D+01  1  2  2  2  6  2       21 0.563998339913D-01 0.100000000000D+01
0.270735544350D-06 0.224094458677D-06 -.857247904294D-08 0.102717578816D-05 0.000000000000D+00  6 1 21 25 23 1 21 4 0.28285587D+00 0.16204527D-02 0.15442595D+05 0.15442595D+05 0.15442595D+05 0.12463854D+01  1  2  3  2  6  2       21 0.558593273332D-02 0.100000000000D+01
0.349974015718D-06 0.000000000000D+00 0.000000000000D+00 0.102717578816D-05 0.000000000000D+00  6 1 21 25 23 1 21 4 0.28285587D+00 0.16204527D-02 0.15442595D+05 0.15442595D+05 0.15442595D+05 0.12463854D+01  1  2 15  2  6  2       21 0.722081511278D-02 0.100000000000D+01
0.592327643167D-05 0.000000000000D+00 0.000000000000D+00 0.101492606949D-05 0.000000000000D+00  6 1 21 25 23 1 21 4 0.28285587D+00 0.17873815D-02 0.17986792D+05 0.17986792D+05 0.17986792D+05 0.12389311D+01  1  2 12  2  6  2       21 0.101865311499D+00 0.100000000000D+01
-.796818160919D-06 0.000000000000D+00 0.000000000000D+00 0.102717578816D-05 0.000000000000D+00  6 1 21 25 23 1 21 4 0.28285587D+00 0.16204527D-02 0.15442595D+05 0.15442595D+05 0.15442595D+05 0.12463854D+01  1  2  4  2  6  2       21 -.164402965937D-01 0.100000000000D+01
0.148006384809D-06 0.000000000000D+00 0.000000000000D+00 0.101492606949D-05 0.000000000000D+00  6 1 -1 25 23 1 -1 4 0.28285587D+00 0.17873815D-02 0.17986792D+05 0.17986792D+05 0.17986792D+05 0.12389311D+01  1  2 12  5  6  2       21 0.120152112518D-03 0.100000000000D+01
0.148006384809D-06 0.000000000000D+00 0.000000000000D+00 0.101492606949D-05 0.000000000000D+00  6 1 1 25 23 1 1 4 0.28285587D+00 0.17873815D-02 0.17986792D+05 0.17986792D+05 0.17986792D+05 0.12389311D+01  1  2 12  6  6  2       21 0.125644743123D-03 0.100000000000D+01
0.148006384809D-06 0.000000000000D+00 0.000000000000D+00 0.101492606949D-05 0.000000000000D+00  6 1 -2 25 23 1 -2 4 0.28285587D+00 0.17873815D-02 0.17986792D+05 0.17986792D+05 0.17986792D+05 0.12389311D+01  1  2 12  7  6  2       21 0.119169900030D-03 0.100000000000D+01
0.148006384809D-06 0.000000000000D+00 0.000000000000D+00 0.101492606949D-05 0.000000000000D+00  6 1 -4 25 23 1 -4 4 0.28285587D+00 0.17873815D-02 0.17986792D+05 0.17986792D+05 0.17986792D+05 0.12389311D+01  1  2 12  7  6  2       21 0.851280515541D-04 0.100000000000D+01
0.148006384809D-06 0.000000000000D+00 0.000000000000D+00 0.101492606949D-05 0.000000000000D+00  6 1 2 25 23 1 2 4 0.28285587D+00 0.17873815D-02 0.17986792D+05 0.17986792D+05 0.17986792D+05 0.12389311D+01  1  2 12  8  6  2       21 0.129433779195D-03 0.100000000000D+01
0.148006384809D-06 0.000000000000D+00 0.000000000000D+00 0.101492606949D-05 0.000000000000D+00  6 1 4 25 23 1 4 4 0.28285587D+00 0.17873815D-02 0.17986792D+05 0.17986792D+05 0.17986792D+05 0.12389311D+01  1  2 12  8  6  2       21 0.851280515541D-04 0.100000000000D+01
0.148006384809D-06 0.000000000000D+00 0.000000000000D+00 0.101492606949D-05 0.000000000000D+00  6 1 -3 25 23 1 -3 4 0.28285587D+00 0.17873815D-02 0.17986792D+05 0.17986792D+05 0.17986792D+05 0.12389311D+01  1  2 12  9  6  2       21 0.935648254064D-04 0.100000000000D+01
0.148006384809D-06 0.000000000000D+00 0.000000000000D+00 0.101492606949D-05 0.000000000000D+00  6 1 3 25 23 1 3 4 0.28285587D+00 0.17873815D-02 0.17986792D+05 0.17986792D+05 0.17986792D+05 0.12389311D+01  1  2 12 10  6  2       21 0.935598324629D-04 0.100000000000D+01
  </mgrwgt>
  </event>
  <event>
  5     66 -.36102257E-03 0.29971240E+02 0.75467711E-02 0.11956830E+00
        3 -1    0    0  502    0 0.00000000E+00 0.00000000E+00 0.86891630E+02 0.86893069E+02 0.50000000E+00 0.0000E+00 0.9000E+01
       21 -1    0    0  501  502 -.00000000E+00 -.00000000E+00 -.29273599E+03 0.29273695E+03 0.75000000E+00 0.0000E+00 0.9000E+01
       25  1    1    2    0    0 -.37806351E+02 0.61229764E+02 -.14387788E+03 0.20372592E+03 0.12500000E+03 0.0000E+00 0.9000E+01
       23  1    1    2    0    0 0.35573452E+02 -.91114667E+02 -.57647093E+02 0.14562209E+03 0.91188000E+02 0.0000E+00 0.9000E+01
        3  1    1    2  501    0 0.22328983E+01 0.29884903E+02 -.43193803E+01 0.30282013E+02 0.50000000E+00 0.0000E+00 0.9000E+01
#aMCatNLO 1  0  0  5  2 0.58715034D+01 0.00000000D+00  -5  6  0 0.00000000D+00 0.00000000D+00 0.00000000D+00 0.00000000D+00 0.00000000D+00
  <mgrwgt>
 -.2656104744D-01    7    2    0
 0.159489066940294D+03 0.000000000000000D+00 0.000000000000000D+00 0.159489066940294D+03
 0.159489066940294D+03 -.000000000000000D+00 -.000000000000000D+00 -.159489066940294D+03
 0.149614927425272D+03 -.378064689561221D+02 0.612281788711319D+02 -.397669149628680D+02
 0.136111033333288D+03 0.355733445478102D+02 -.911161089623670D+02 0.253644218600835D+02
 0.332521731220279D+02 0.223312440831199D+01 0.298879300912352D+02 0.144024931027844D+02
 0.000000000000000D+00 0.000000000000000D+00 0.000000000000000D+00 0.000000000000000D+00
 0.159489066940294D+03 0.000000000000000D+00 0.000000000000000D+00 0.159489066940294D+03
 0.159489066940294D+03 -.000000000000000D+00 -.000000000000000D+00 -.159489066940294D+03
 0.149912311903778D+03 -.377231325367348D+02 0.623435457837110D+02 -.392294383220816D+02
 0.135547930928416D+03 0.356489272741985D+02 -.901045167581930D+02 0.258518912063705D+02
 0.234284194470780D+02 -.148655620949131D+01 0.183817856567269D+02 0.144496001499833D+02
 0.100894716013160D+02 0.356076147202759D+01 0.937918531775509D+01 -.107205303427228D+01
0.338996447704D-05 0.000000000000D+00 0.000000000000D+00 0.203741219854D-06 0.000000000000D+00  6 3 21 25 23 3 21 2 0.13368128D-01 0.45036490D-01 0.23705415D+05 0.23705415D+05 0.23705415D+05 0.12257812D+01  1  2  2  3  6  5        3 0.532321803736D-02 0.100000000000D+01
-.301527229057D-07 0.178893340270D-06 -.684336158708D-08 0.203741219854D-06 0.000000000000D+00  6 3 21 25 23 3 21 4 0.13368128D-01 0.45036490D-01 0.23705415D+05 0.23705415D+05 0.23705415D+05 0.12257812D+01  1  2  3  3  6  5        3 -.711429000363D-04 0.100000000000D+01
0.296950378992D-06 0.000000000000D+00 0.000000000000D+00 0.203741219854D-06 0.000000000000D+00  6 3 21 25 23 3 21 4 0.13368128D-01 0.45036490D-01 0.23705415D+05 0.23705415D+05 0.23705415D+05 0.12257812D+01  1  2 15  3  6  5        3 0.700630294465D-03 0.100000000000D+01
0.282110743215D-05 0.000000000000D+00 0.000000000000D+00 0.203914720619D-06 0.000000000000D+00  6 3 21 25 23 3 21 4 0.13368128D-01 0.45036490D-01 0.23443049D+05 0.23443049D+05 0.23443049D+05 0.12263030D+01  1  2 12  3  6  5        3 0.666577641048D-02 0.100000000000D+01
-.196974003239D-04 0.000000000000D+00 0.000000000000D+00 0.203741219854D-06 0.000000000000D+00  6 3 21 25 23 3 21 4 0.13368128D-01 0.45036490D-01 0.23705415D+05 0.23705415D+05 0.23705415D+05 0.12257812D+01  1  2  4  3  6  5        3 -.464744158132D-01 0.100000000000D+01
-.439178816021D-05 0.000000000000D+00 0.000000000000D+00 0.203741219854D-06 0.000000000000D+00  6 3 21 25 23 3 21 4 0.13368128D-01 0.45036490D-01 0.23705415D+05 0.23705415D+05 0.23705415D+05 0.12257812D+01  1  2  5  3  6  5        3 -.103620673675D-01 0.100000000000D+01
0.748360325341D-05 0.000000000000D+00 -.000000000000D+00 0.203741219854D-06 0.000000000000D+00  6 3 21 25 23 3 21 4 0.13368128D-01 0.45036490D-01 0.23705415D+05 0.23705415D+05 0.23705415D+05 0.12257812D+01  1  2  6  3  6  5        3 0.176569538954D-01 0.100000000000D+01
  </mgrwgt>
  </event>
  <event>
  5     66 0.36102257E-03 0.75594900E+02 0.75467711E-02 0.11265805E+00
        1 -1    0    0  502    0 0.00000000E+00 0.00000000E+00 0.12636660E+04 0.12636661E+04 0.32000000E+00 0.0000E+00 0.9000E+01
       21 -1    0    0  501  502 0.00000000E+00 0.00000000E+00 -.42937315E+02 0.42943864E+02 0.75000000E+00 0.0000E+00 0.9000E+01
       25  1    1    2    0    0 0.48848376E+02 0.76566187E+02 0.13292789E+03 0.20382191E+03 0.12500000E+03 0.0000E+00 0.9000E+01
       23  1    1    2    0    0 0.84415013E+01 -.27246454E+02 0.42046025E+03 0.43117943E+03 0.91188000E+02 0.0000E+00 0.9000E+01
        1  1    1    2  501    0 -.57289877E+02 -.49319733E+02 0.66734058E+03 0.67160861E+03 0.32000000E+00 0.0000E+00 0.9000E+01
#aMCatNLO 1  0  0  2  5 0.11877097D+03 0.00000000D+00  -5  6  0 0.00000000D+00 0.00000000D+00 0.00000000D+00 0.00000000D+00 0.00000000D+00
  <mgrwgt>
 0.2500538656D-01   14    2    0
 0.232943623472599D+03 0.000000000000000D+00 0.000000000000000D+00 0.232943623472599D+03
 0.232943623472599D+03 0.000000000000000D+00 0.000000000000000D+00 -.232943623472599D+03
 0.223330651132707D+03 0.488484527961450D+02 0.765662532496809D+02 -.161254510814698D+03
 0.107569823783228D+03 0.844153846293443D+01 -.272464219118956D+02 0.494205277807965D+02
 0.134986772029262D+03 -.572899912590795D+02 -.493198313377853D+02 0.111833983033901D+03
 0.000000000000000D+00 -.000000000000000D+00 0.000000000000000D+00 -.000000000000000D+00
 0.281192522353236D+03 0.000000000000000D+00 0.000000000000000D+00 0.281192522353236D+03
 0.326834880700513D+03 0.000000000000000D+00 0.000000000000000D+00 -.326834880700513D+03
 0.236968097739466D+03 0.104291496300198D+03 0.604081607702094D+02 -.161254510814698D+03
 0.115019953387712D+03 0.352525057520786D+02 -.350600999054280D+02 0.494205277807965D+02
 0.128800332684593D+03 -.255168005687006D+02 -.585796793023996D+02 0.111833983033901D+03
 0.127239019241979D+03 -.114027201483576D+03 0.332316184376182D+02 -.456423583472764D+02
0.807021514905D-05 0.000000000000D+00 0.000000000000D+00 0.420906728557D-07 0.000000000000D+00  6 1 21 25 23 1 21 2 0.19441067D+00 0.66062476D-02 0.26512108D+05 0.26512108D+05 0.26512108D+05 0.12205727D+01  1  2  2  2  6  2       21 0.236651968636D-01 0.100000000000D+01
-.953177682943D-06 0.425876953724D-06 -.162914392539D-07 0.420906728557D-07 0.000000000000D+00  6 1 21 25 23 1 21 4 0.19441067D+00 0.66062476D-02 0.26512108D+05 0.26512108D+05 0.26512108D+05 0.12205727D+01  1  2  3  2  6  2       21 -.416414807845D-02 0.100000000000D+01
0.104761562130D-05 0.000000000000D+00 0.000000000000D+00 0.420906728557D-07 0.000000000000D+00  6 1 21 25 23 1 21 4 0.19441067D+00 0.66062476D-02 0.26512108D+05 0.26512108D+05 0.26512108D+05 0.12205727D+01  1  2 15  2  6  2       21 0.457671917257D-02 0.100000000000D+01
-.516950210561D-05 0.000000000000D+00 0.000000000000D+00 0.420906728557D-07 0.000000000000D+00  6 1 21 25 23 1 21 4 0.19441067D+00 0.66062476D-02 0.26512108D+05 0.26512108D+05 0.26512108D+05 0.12205727D+01  1  2  4  2  6  2       21 -.225840078349D-01 0.100000000000D+01
-.125601338170D-04 0.000000000000D+00 -.101834292143D-04 0.420906728557D-07 0.000000000000D+00  6 1 21 25 23 1 21 4 0.19441067D+00 0.11306521D-01 0.26512108D+05 0.26512108D+05 0.26512108D+05 0.12205727D+01  1  2  5  2  6  2       21 -.215043119697D-01 0.100000000000D+01
0.106596915701D-04 0.000000000000D+00 0.606505062782D-05 0.420906728557D-07 0.000000000000D+00  6 1 21 25 23 1 21 4 0.19441067D+00 0.66062476D-02 0.26512108D+05 0.26512108D+05 0.26512108D+05 0.12205727D+01  1  2  6  2  6  2       21 0.465690027816D-01 0.100000000000D+01
-.184810116068D-05 0.000000000000D+00 -.192484094236D-05 0.420906728557D-07 0.000000000000D+00  6 1 -1 25 23 1 -1 4 0.19441067D+00 0.11306521D-01 0.26512108D+05 0.26512108D+05 0.26512108D+05 0.12205727D+01  1  2  5  5  6  2       21 -.217015057072D-03 0.100000000000D+01
-.184810116068D-05 0.000000000000D+00 -.192484094236D-05 0.420906728557D-07 0.000000000000D+00  6 1 1 25 23 1 1 4 0.19441067D+00 0.11306521D-01 0.26512108D+05 0.26512108D+05 0.26512108D+05 0.12205727D+01  1  2  5  6  6  2       21 -.278971067563D-03 0.100000000000D+01
-.184810116068D-05 0.000000000000D+00 -.192484094236D-05 0.420906728557D-07 0.000000000000D+00  6 1 -2 25 23 1 -2 4 0.19441067D+00 0.11306521D-01 0.26512108D+05 0.26512108D+05 0.26512108D+05 0.12205727D+01  1  2  5  7  6  2       21 -.206286363507D-03 0.100000000000D+01
-.184810116068D-05 0.000000000000D+00 -.192484094236D-05 0.420906728557D-07 0.000000000000D+00  6 1 -4 25 23 1 -4 4 0.19441067D+00 0.11306521D-01 0.26512108D+05 0.26512108D+05 0.26512108D+05 0.12205727D+01  1  2  5  7  6  2       21 -.123403207002D-03 0.100000000000D+01
-.184810116068D-05 0.000000000000D+00 -.192484094236D-05 0.420906728557D-07 0.000000000000D+00  6 1 2 25 23 1 2 4 0.19441067D+00 0.11306521D-01 0.26512108D+05 0.26512108D+05 0.26512108D+05 0.12205727D+01  1  2  5  8  6  2       21 -.321135240502D-03 0.100000000000D+01
-.184810116068D-05 0.000000000000D+00 -.192484094236D-05 0.420906728557D-07 0.000000000000D+00  6 1 4 25 23 1 4 4 0.19441067D+00 0.11306521D-01 0.26512108D+05 0.26512108D+05 0.26512108D+05 0.12205727D+01  1  2  5  8  6  2       21 -.123403207002D-03 0.100000000000D+01
-.184810116068D-05 0.000000000000D+00 -.192484094236D-05 0.420906728557D-07 0.000000000000D+00  6 1 -3 25 23 1 -3 4 0.19441067D+00 0.11306521D-01 0.26512108D+05 0.26512108D+05 0.26512108D+05 0.12205727D+01  1  2  5  9  6  2       21 -.141433918383D-03 0.100000000000D+01
-.184810116068D-05 0.000000000000D+00 -.192484094236D-05 0.420906728557D-07 0.000000000000D+00  6 1 3 25 23 1 3 4 0.19441067D+00 0.11306521D-01 0.26512108D+05 0.26512108D+05 0.26512108D+05 0.12205727D+01  1  2  5 10  6  2       21 -.141416315508D-03 0.100000000000D+01
  </mgrwgt>
  </event>
  <event>
  6     66 0.36102257E-03 0.18616819E+03 0.75467711E-02 0.11060561E+00
        1 -1    0    0  502    0 0.00000000E+00 0.00000000E+00 0.59584028E+02 0.59584888E+02 0.32000000E+00 0.0000E+00 0.9000E+01
       21 -1    0    0  501  502 -.00000000E+00 -.00000000E+00 -.13921529E+04 0.13921531E+04 0.75000000E+00 0.0000E+00 0.9000E+01
       25  1    1    2    0    0 0.69256712E+02 -.42061423E+02 -.15701191E+03 0.21643335E+03 0.12500000E+03 0.0000E+00 0.9000E+01
       23  1    1    2    0    0 0.10438372E+03 0.11335319E+03 -.46573962E+03 0.49897250E+03 0.91188000E+02 0.0000E+00 0.9000E+01
        1  1    1    2  503    0 -.17270421E+03 -.77495865E+02 -.69217530E+03 0.71759257E+03 0.32000000E+00 0.0000E+00 0.9000E+01
       21  1    1    2  501  503 -.93622598E+00 0.62040941E+01 -.17642019E+02 0.18739547E+02 0.75000000E+00 0.0000E+00 0.9000E+01
#aMCatNLO 2  0  0  5  2 0.63298463D+01 0.00000000D+00  -5  6  0 0.00000000D+00 0.00000000D+00 0.00000000D+00 0.00000000D+00 0.00000000D+00
  <mgrwgt>
 0.2023311042D-02    2    2    0
 0.288011886981644D+03 0.000000000000000D+00 0.000000000000000D+00 0.288011886981644D+03
 0.288011886981644D+03 -.000000000000000D+00 -.000000000000000D+00 -.288011886981644D+03
 0.183386426645734D+03 0.712487064507011D+02 -.412435678296912D+02 0.105963066299870D+03
 0.181664417744169D+03 0.106354717104794D+03 0.114162428282766D+03 -.185019849872739D+02
 0.210972929573385D+03 -.177603423555495D+03 -.729188604530744D+02 -.874610813125965D+02
 0.000000000000000D+00 0.000000000000000D+00 0.000000000000000D+00 0.000000000000000D+00
 0.288011886981644D+03 0.000000000000000D+00 0.000000000000000D+00 0.288011886981644D+03
 0.288011886981644D+03 -.000000000000000D+00 -.000000000000000D+00 -.288011886981644D+03
 0.182238179879548D+03 0.692511961947828D+02 -.420636881217946D+02 0.104979389277107D+03
 0.180104970538313D+03 0.104378268992510D+03 0.113350955501402D+03 -.194752899247465D+02
 0.207282334865804D+03 -.172719262619576D+03 -.775241929623569D+02 -.844039227352866D+02
 0.639828867962338D+01 -.910202567716725D+00 0.623692558275002D+01 -.110017661707419D+01
-.152344380776D-03 0.000000000000D+00 0.000000000000D+00 0.898547068182D-07 0.000000000000D+00  6 1 21 25 23 1 21 4 0.91668552D-02 0.21417745D+00 0.68221277D+05 0.68221277D+05 0.68221277D+05 0.11791437D+01  1  2  8  3  6  5        1 -.236995244284D-01 0.100000000000D+01
0.165514379159D-03 0.000000000000D+00 0.000000000000D+00 0.898547068182D-07 0.231550897124D-07  6 1 21 25 23 1 21 4 0.91668552D-02 0.21417745D+00 0.68548391D+05 0.68548391D+05 0.68548391D+05 0.11789449D+01  1  2  1  3  6  5        1 0.257228354704D-01 0.100000000000D+01
  </mgrwgt>
  </event>
  <event>
  6     66 -.36102257E-03 0.21682366E+02 0.75467711E-02 0.11879336E+00
        1 -1    0    0  502    0 0.00000000E+00 0.00000000E+00 0.78652937E+02 0.78653588E+02 0.32000000E+00 0.0000E+00 0.9000E+01
       21 -1    0    0  503  502 0.00000000E+00 0.00000000E+00 -.76860949E+03 0.76860986E+03 0.75000000E+00 0.0000E+00 0.9000E+01
       25  1    1    2    0    0 -.10239631E+03 -.18807513E+02 -.13743020E+03 0.21295724E+03 0.12500000E+03 0.0000E+00 0.9000E+01
       23  1    1    2    0    0 0.86136700E+02 0.73709985E+01 -.57905182E+02 0.13835507E+03 0.91188000E+02 0.0000E+00 0.9000E+01
        1  1    1    2  501    0 0.16994274E+02 0.18961964E+02 -.44725847E+03 0.44798282E+03 0.32000000E+00 0.0000E+00 0.9000E+01
       21  1    1    2  503  501 -.73466627E+00 -.75254497E+01 -.47362697E+02 0.47968320E+02 0.75000000E+00 0.0000E+00 0.9000E+01
#aMCatNLO 2  0  0  2  1 0.75612253D+01 0.00000000D+00  -5  6  0 0.00000000D+00 0.00000000D+00 0.00000000D+00 0.00000000D+00 0.00000000D+00
  <mgrwgt>
 -.1424624757D+00    3    2    0
 0.237638727709140D+03 0.000000000000000D+00 0.000000000000000D+00 0.237638727709140D+03
 0.237638727709140D+03 0.000000000000000D+00 0.000000000000000D+00 -.237638727709140D+03
 0.172784689315041D+03 -.102663019311584D+03 -.215394090221366D+02 0.567970702281518D+02
 0.154137945332319D+03 0.858982635599899D+02 0.492872801304451D+01 0.896685608495023D+02
 0.148354820770920D+03 0.167647557515940D+02 0.166106810090921D+02 -.146465631077654D+03
 0.000000000000000D+00 -.000000000000000D+00 -.000000000000000D+00 -.000000000000000D+00
 0.238578916027207D+03 0.000000000000000D+00 0.000000000000000D+00 0.238578916027207D+03
 0.253373404757824D+03 0.000000000000000D+00 0.000000000000000D+00 -.253373404757824D+03
 0.172306810269551D+03 -.102396321361599D+03 -.188075264289973D+02 0.567970702281518D+02
 0.154368269016521D+03 0.861366872100174D+02 0.737098682808185D+01 0.896685608495023D+02
 0.148662518381466D+03 0.169943004246944D+02 0.189619892843401D+02 -.146465631077654D+03
 0.166147231174932D+02 -.734666273112777D+00 -.752544968342468D+01 -.147944887306171D+02
-.299622444131D-03 0.000000000000D+00 0.000000000000D+00 0.412920327660D-05 0.000000000000D+00  6 1 21 25 23 1 21 4 0.12052419D-01 0.11845455D+00 0.25817372D+05 0.25817372D+05 0.25817372D+05 0.12218025D+01  1  2 13  2  6  2       21 -.196100071979D+00 0.100000000000D+01
-.407402355451D-04 0.000000000000D+00 0.000000000000D+00 0.414750177450D-05 0.000000000000D+00  6 1 21 25 23 1 21 4 0.12052419D-01 0.11090050D+00 0.24360149D+05 0.24360149D+05 0.24360149D+05 0.12245067D+01  1  2  8  2  6  2       21 -.316106241103D-01 0.100000000000D+01
0.130361220303D-03 0.000000000000D+00 0.000000000000D+00 0.414750177450D-05 0.601401893735D-06  6 1 21 25 23 1 21 4 0.12100102D-01 0.11824351D+00 0.25817372D+05 0.25817372D+05 0.25817372D+05 0.12218025D+01  1  2  1  2  6  2       21 0.852482203781D-01 0.100000000000D+01
  </mgrwgt>
  </event>
  <event>
  6     66 -.36102257E-03 0.16853717E+02 0.75467711E-02 0.12175116E+00
        1 -1    0    0  502    0 0.00000000E+00 0.00000000E+00 0.52269398E+03 0.52269408E+03 0.32000000E+00 0.0000E+00 0.9000E+01
       21 -1    0    0  503  502 0.00000000E+00 0.00000000E+00 -.39093501E+02 0.39100695E+02 0.75000000E+00 0.0000E+00 0.9000E+01
       25  1    1    2    0    0 0.30926459E+02 -.23169353E+02 0.30493065E+03 0.33181466E+03 0.12500000E+03 0.0000E+00 0.9000E+01
       23  1    1    2    0    0 -.33421362E+02 -.65198657E+01 0.11012305E+03 0.14697562E+03 0.91188000E+02 0.0000E+00 0.9000E+01
        1  1    1    2  501    0 0.18458101E+02 0.18968095E+02 0.30616536E+02 0.40471777E+02 0.32000000E+00 0.0000E+00 0.9000E+01
       21  1    1    2  503  501 -.15963198E+02 0.10721124E+02 0.37930245E+02 0.42532719E+02 0.75000000E+00 0.0000E+00 0.9000E+01
#aMCatNLO 2  0  0  2  1 0.19229305D+02 0.00000000D+00  -5  6  0 0.00000000D+00 0.00000000D+00 0.00000000D+00 0.00000000D+00 0.00000000D+00
  <mgrwgt>
 -.6499453246D-01    2    2    0
 0.132892209975914D+03 0.000000000000000D+00 0.000000000000000D+00 0.132892209975914D+03
 0.132892209975914D+03 0.000000000000000D+00 0.000000000000000D+00 -.132892209975914D+03
 0.134162036293703D+03 0.228055064943585D+02 -.177162797358551D+02 0.392491310519042D+02
 0.104234632892104D+03 -.396137116041896D+02 -.236183032670363D+01 -.312215143867106D+02
 0.273877507660208D+02 0.168082051098312D+02 0.200781100625587D+02 -.802761666519363D+01
 0.000000000000000D+00 -.000000000000000D+00 0.000000000000000D+00 0.000000000000000D+00
 0.144342715681713D+03 0.000000000000000D+00 0.000000000000000D+00 0.144342715681713D+03
 0.141565264665441D+03 0.000000000000000D+00 0.000000000000000D+00 -.141565264665441D+03
 0.136597055966845D+03 0.309258840198712D+02 -.231700476492673D+02 0.392491310519042D+02
 0.102223124064692D+03 -.334218053026777D+02 -.652040790563321D+01 -.312215143867106D+02
 0.276589449934994D+02 0.184591190177165D+02 0.189693314041351D+02 -.802761666519363D+01
 0.194288553221168D+02 -.159631977349099D+02 0.107211241507654D+02 0.277745101627151D+01
-.329404304960D-05 0.000000000000D+00 0.000000000000D+00 0.605349608616D-06 0.000000000000D+00  6 1 21 25 23 1 21 4 0.74032056D-01 0.62404977D-02 0.18751598D+05 0.18751598D+05 0.18751598D+05 0.12369196D+01  1  2 13  2  6  2       21 -.741282970478D-01 0.100000000000D+01
0.424653265332D-06 0.000000000000D+00 0.000000000000D+00 0.612569583532D-06 0.161053808823D-07  6 1 21 25 23 1 21 4 0.80410944D-01 0.60146409D-02 0.18751598D+05 0.18751598D+05 0.18751598D+05 0.12369196D+01  1  2  1  2  6  2       21 0.913376458627D-02 0.100000000000D+01
  </mgrwgt>
  </event>
  <event>
  5     66 -.36102257E-03 0.26403646E+02 0.75467711E-02 0.11559726E+00
        1 -1    0    0  502    0 0.00000000E+00 0.00000000E+00 0.20123580E+03 0.20123605E+03 0.32000000E+00 0.0000E+00 0.9000E+01
       21 -1    0    0  501  502 0.00000000E+00 0.00000000E+00 -.25121593E+03 0.25121705E+03 0.75000000E+00 0.0000E+00 0.9000E+01
       25  1    1    2    0    0 -.14484373E+02 0.62133620E+02 0.36729817E+02 0.14506710E+03 0.12500000E+03 0.0000E+00 0.9000E+01
       23  1    1    2    0    0 0.40663003E+02 -.58694179E+02 0.78606497E+02 0.13997399E+03 0.91188000E+02 0.0000E+00 0.9000E+01
        1  1    1    2  501    0 -.26178630E+02 -.34394404E+01 -.16531645E+03 0.16741201E+03 0.32000000E+00 0.0000E+00 0.9000E+01
#aMCatNLO 1  0  0  1  2 0.11506093D+02 0.00000000D+00  -5  6  0 0.00000000D+00 0.00000000D+00 0.00000000D+00 0.00000000D+00 0.00000000D+00
  <mgrwgt>
 -.1133241940D+00    5    2    0
 0.224842052877451D+03 0.000000000000000D+00 0.000000000000000D+00 0.224842052877451D+03
 0.224842052877451D+03 0.000000000000000D+00 0.000000000000000D+00 -.224842052877451D+03
 0.150042744560175D+03 -.144843533496663D+02 0.621336222843632D+02 0.530795787946365D+02
 0.149572697547229D+03 0.406630225682121D+02 -.586941767156255D+02 0.946480465875908D+02
 0.150068663647499D+03 -.261786692185459D+02 -.343944556873771D+01 -.147727625382227D+03
 0.000000000000000D+00 -.000000000000000D+00 0.000000000000000D+00 0.000000000000000D+00
 0.454313686690225D+03 0.000000000000000D+00 0.000000000000000D+00 0.454313686690225D+03
 0.237183747674893D+03 0.000000000000000D+00 0.000000000000000D+00 -.237183747674893D+03
 0.140771856899471D+03 -.315116556149598D+01 0.369370297332263D+02 0.530795787946365D+02
 0.165758711658655D+03 0.529516423902624D+02 -.860149405165415D+02 0.946480465875908D+02
 0.151344656146589D+03 -.144324441736655D+02 -.295543262185355D+02 -.147727625382227D+03
 0.233622209660403D+03 -.353680326551009D+02 0.786322370018507D+02 0.217129939015332D+03
0.214304210958D-04 0.000000000000D+00 0.000000000000D+00 0.463050341876D-05 0.000000000000D+00  6 1 21 25 23 1 21 2 0.30959459D-01 0.38648710D-01 0.19960262D+05 0.19960262D+05 0.19960262D+05 0.12339211D+01  1  2  2  1  6  1        1 0.335584094791D-01 0.100000000000D+01
0.499370085891D-05 0.113091439134D-05 -.432618458144D-07 0.463050341876D-05 0.000000000000D+00  6 1 21 25 23 1 21 4 0.30959459D-01 0.38648710D-01 0.19960262D+05 0.19960262D+05 0.19960262D+05 0.12339211D+01  1  2  3  1  6  1        1 0.119060582348D-01 0.100000000000D+01
0.186754343489D-05 0.000000000000D+00 0.000000000000D+00 0.463050341876D-05 0.000000000000D+00  6 1 21 25 23 1 21 4 0.30959459D-01 0.38648710D-01 0.19960262D+05 0.19960262D+05 0.19960262D+05 0.12339211D+01  1  2 15  1  6  1        1 0.445262572189D-02 0.100000000000D+01
-.136697720100D-03 0.000000000000D+00 -.214849974536D-04 0.463050341876D-05 0.000000000000D+00  6 1 21 25 23 1 21 4 0.64568271D-01 0.38648710D-01 0.19960262D+05 0.19960262D+05 0.19960262D+05 0.12339211D+01  1  2  5  1  6  1        1 -.130541127802D+00 0.100000000000D+01
-.953982206629D-05 0.000000000000D+00 -.170777078559D-05 0.463050341876D-05 0.000000000000D+00  6 21 21 25 23 1 -1 4 0.64568271D-01 0.38648710D-01 0.19960262D+05 0.19960262D+05 0.19960262D+05 0.12339211D+01  1  2  5  4  6  1        1 -.327001596590D-01 0.100000000000D+01
  </mgrwgt>
  </event>
  <event>
  5     66 0.36102257E-03 0.33981348E+02 0.75467711E-02 0.11183233E+00
        1 -1    0    0  502    0 0.00000000E+00 0.00000000E+00 0.47432835E+03 0.47432846E+03 0.32000000E+00 0.0000E+00 0.9000E+01
       21 -1    0    0  501  502 0.00000000E+00 0.00000000E+00 -.42812840E+02 0.42819409E+02 0.75000000E+00 0.0000E+00 0.9000E+01
       25  1    1    2    0    0 -.51103631E+02 0.37110926E+01 0.14882668E+03 0.20099685E+03 0.12500000E+03 0.0000E+00 0.9000E+01
       23  1    1    2    0    0 0.43322626E+02 -.36788377E+02 0.20894192E+03 0.23495151E+03 0.91188000E+02 0.0000E+00 0.9000E+01
        1  1    1    2  501    0 0.77810048E+01 0.33077284E+02 0.73746912E+02 0.81199509E+02 0.32000000E+00 0.0000E+00 0.9000E+01
#aMCatNLO 1  0  0  2  1 0.49291966D+01 0.00000000D+00  -5  6  0 0.00000000D+00 0.00000000D+00 0.00000000D+00 0.00000000D+00 0.00000000D+00
  <mgrwgt>
 0.7362670808D-01    3    2    0
 0.142509895902907D+03 0.000000000000000D+00 0.000000000000000D+00 0.142509895902907D+03
 0.142509895902907D+03 0.000000000000000D+00 0.000000000000000D+00 -.142509895902907D+03
 0.139373122226426D+03 -.511037837160952D+02 0.371044197530045D+01 -.342710243411084D+02
 0.109967865981973D+03 0.433225051269497D+02 -.367888900459677D+02 0.233969725251009D+02
 0.356788035974154D+02 0.778127858914549D+01 0.330784480706672D+02 0.108740518160075D+02
 0.000000000000000D+00 -.000000000000000D+00 -.000000000000000D+00 0.000000000000000D+00
 0.418682998157217D+03 0.000000000000000D+00 0.000000000000000D+00 0.418682998157217D+03
 0.190497734450863D+03 0.000000000000000D+00 0.000000000000000D+00 -.190497734450863D+03
 0.136109539291177D+03 0.129462119040781D+02 0.394803644107076D+02 -.342710243411084D+02
 0.138155221548582D+03 0.101011372303008D+03 -.457145920473644D+01 0.233969725251009D+02
 0.542657644245100D+02 0.286934810345781D+02 0.447572601015467D+02 0.108740518160075D+02
 0.280650207343811D+03 -.142651065241664D+03 -.796661653075179D+02 0.228185263706353D+03
0.508911150207D-05 0.000000000000D+00 0.000000000000D+00 0.276462717651D-06 0.000000000000D+00  6 1 21 25 23 1 21 2 0.72974106D-01 0.65871044D-02 0.19116561D+05 0.19116561D+05 0.19116561D+05 0.12359919D+01  1  2  2  2  6  2       21 0.694581727305D-01 0.100000000000D+01
-.130839892775D-06 0.268559792228D-06 -.102734498847D-07 0.276462717651D-06 0.000000000000D+00  6 1 21 25 23 1 21 4 0.72974106D-01 0.65871044D-02 0.19116561D+05 0.19116561D+05 0.19116561D+05 0.12359919D+01  1  2  3  2  6  2       21 -.272805319172D-02 0.100000000000D+01
0.330766609732D-06 0.000000000000D+00 0.000000000000D+00 0.276462717651D-06 0.000000000000D+00  6 1 21 25 23 1 21 4 0.72974106D-01 0.65871044D-02 0.19116561D+05 0.19116561D+05 0.19116561D+05 0.12359919D+01  1  2 15  2  6  2       21 0.689658854235D-02 0.100000000000D+01
  </mgrwgt>
  </event>
  <event>
  5     66 -.36102257E-03 0.29990913E+02 0.75467711E-02 0.12314527E+00
        1 -1    0    0  502    0 0.00000000E+00 0.00000000E+00 0.57621979E+02 0.57622867E+02 0.32000000E+00 0.0000E+00 0.9000E+01
       21 -1    0    0  501  502 -.00000000E+00 -.00000000E+00 -.30927497E+03 0.30927588E+03 0.75000000E+00 0.0000E+00 0.9000E+01
       25  1    1    2    0    0 0.11297162E+02 0.27098137E+02 -.10097595E+03 0.16334956E+03 0.12500000E+03 0.0000E+00 0.9000E+01
       23  1    1    2    0    0 -.30652048E+02 -.41897129E+01 -.74712131E+02 0.12187804E+03 0.91188000E+02 0.0000E+00 0.9000E+01
        1  1    1    2  501    0 0.19354887E+02 -.22908424E+02 -.75964912E+02 0.81671156E+02 0.32000000E+00 0.0000E+00 0.9000E+01
#aMCatNLO 1  0  0  5  2 0.17158562D+02 0.00000000D+00  -5  6  0 0.00000000D+00 0.00000000D+00 0.00000000D+00 0.00000000D+00 0.00000000D+00
  <mgrwgt>
 -.5511739757D-02    1    2    0
 0.133496687537320D+03 0.000000000000000D+00 0.000000000000000D+00 0.133496687537320D+03
 0.133496687537320D+03 -.000000000000000D+00 -.000000000000000D+00 -.133496687537320D+03
 0.129298612052215D+03 0.112968707963065D+02 0.270984810582813D+02 0.152047398259445D+02
 0.970638060391207D+02 -.306522664375544D+02 -.418945461873747D+01 0.122072982694273D+02
 0.406309569833037D+02 0.193553956412479D+02 -.229090264395439D+02 -.274120380953718D+02
 0.000000000000000D+00 0.000000000000000D+00 0.000000000000000D+00 -.000000000000000D+00
 0.133496687537320D+03 0.000000000000000D+00 0.000000000000000D+00 0.133496687537320D+03
 0.133496687537320D+03 -.000000000000000D+00 -.000000000000000D+00 -.133496687537320D+03
 0.129152683146904D+03 0.117534241786766D+02 0.265581049429262D+02 0.145581470648320D+02
 0.969146176350419D+02 -.303096041755331D+02 -.459502932079884D+01 0.117220035663649D+02
 0.168784352074305D+02 0.119502136561781D+02 -.999308824422465D+01 -.649708826831399D+01
 0.240476390852625D+02 0.660596634067849D+01 -.119699873779027D+02 -.197830623628830D+02
-.681406986138D-06 0.000000000000D+00 0.000000000000D+00 0.965517176162D-06 0.000000000000D+00  6 1 21 25 23 1 21 4 0.88650581D-02 0.47580903D-01 0.16216181D+05 0.16216181D+05 0.16216181D+05 0.12439811D+01  1  2 14  3  6  5        1 -.551173975687D-02 0.100000000000D+01
  </mgrwgt>
  </event>
  <event>
  6     66 0.36102257E-03 0.73054461E+02 0.75467711E-02 0.11530733E+00
        1 -1    0    0  502    0 0.00000000E+00 0.00000000E+00 0.29884054E+02 0.29885767E+02 0.32000000E+00 0.0000E+00 0.9000E+01
        2 -1    0    0  501    0 0.00000000E+00 0.00000000E+00 -.15041422E+04 0.15041422E+04 0.32000000E+00 0.0000E+00 0.9000E+01
       25  1    1    2    0    0 -.19328688E+02 0.40891388E+01 -.46858573E+03 0.48537399E+03 0.12500000E+03 0.0000E+00 0.9000E+01
       23  1    1    2    0    0 -.36988575E+02 0.35234552E+02 -.61726475E+03 0.62605163E+03 0.91188000E+02 0.0000E+00 0.9000E+01
        1  1    1    2  501    0 0.37991640E+02 -.95102561E+02 -.19197701E+03 0.21758478E+03 0.32000000E+00 0.0000E+00 0.9000E+01
        2  1    1    2  502    0 0.18325623E+02 0.55778870E+02 -.19643062E+03 0.20501756E+03 0.32000000E+00 0.0000E+00 0.9000E+01
#aMCatNLO 2  0  0  2  2 0.58712101D+02 0.00000000D+00  -5  6  0 0.00000000D+00 0.00000000D+00 0.00000000D+00 0.00000000D+00 0.00000000D+00
  <mgrwgt>
 0.9550727356D-02    1    2    0
 0.180262614937422D+03 0.000000000000000D+00 0.000000000000000D+00 0.180262614937422D+03
 0.180262614937422D+03 0.000000000000000D+00 0.000000000000000D+00 -.180262614937422D+03
 0.128061043685922D+03 -.128952879328817D+02 0.236712123071194D+02 -.692936988238593D+01
 0.123594162050384D+03 -.308769914648861D+02 0.538370807987964D+02 -.557534364687752D+02
 0.108870024138539D+03 0.437722793977678D+02 -.775082931059158D+02 0.626828063511612D+02
 0.000000000000000D+00 0.000000000000000D+00 0.000000000000000D+00 0.000000000000000D+00
 0.213277891425795D+03 0.000000000000000D+00 0.000000000000000D+00 0.213277891425795D+03
 0.210762685633816D+03 0.000000000000000D+00 0.000000000000000D+00 -.210762685633816D+03
 0.126741228427024D+03 -.193287563180442D+02 0.408925365096445D+01 -.692936988238593D+01
 0.118462388561547D+03 -.369886448377927D+02 0.352346510511008D+02 -.557534364687752D+02
 0.120071008682019D+03 0.379917779740418D+02 -.951027745138459D+02 0.626828063511612D+02
 0.587659513890205D+02 0.183256231817951D+02 0.557788698117806D+02 0.251520579197809D+01
0.132418620006D-04 0.000000000000D+00 0.000000000000D+00 0.144371421895D-06 0.156043576368D-09  6 1 2 25 23 1 2 4 0.45976717D-02 0.23140615D+00 0.38454520D+05 0.38454520D+05 0.38454520D+05 0.12037419D+01  1  2  1  8  6  2       21 0.955072735617D-02 0.100000000000D+01
  </mgrwgt>
  </event>
  <event>
  5     66 0.36102257E-03 0.26576056E+02 0.75467711E-02 0.12034853E+00
        1 -1    0    0  502    0 0.00000000E+00 0.00000000E+00 0.20621032E+04 0.20621032E+04 0.32000000E+00 0.0000E+00 0.9000E+01
       21 -1    0    0  501  502 0.00000000E+00 0.00000000E+00 -.16581243E+02 0.16598196E+02 0.75000000E+00 0.0000E+00 0.9000E+01
       25  1    1    2    0    0 0.63052611E+02 0.95235557E+01 0.45728182E+03 0.47832833E+03 0.12500000E+03 0.0000E+00 0.9000E+01
       23  1    1    2    0    0 -.79048959E+02 0.11992695E+02 0.15431855E+04 0.15479436E+04 0.91188000E+02 0.0000E+00 0.9000E+01
        1  1    1    2  501    0 0.15996348E+02 -.21516251E+02 0.45054677E+02 0.52429557E+02 0.32000000E+00 0.0000E+00 0.9000E+01
#aMCatNLO 1  0  0  2  1 0.65531847D+01 0.00000000D+00  -5  6  0 0.00000000D+00 0.00000000D+00 0.00000000D+00 0.00000000D+00 0.00000000D+00
  <mgrwgt>
 0.2012530895D+00   32    2    0
 0.184959132480581D+03 0.000000000000000D+00 0.000000000000000D+00 0.184959132480581D+03
 0.184959132480581D+03 0.000000000000000D+00 0.000000000000000D+00 -.184959132480581D+03
 0.159283001405172D+03 0.630524407091173D+02 0.952378503039937D+01 -.753641942566751D+02
 0.165152206552856D+03 -.790491354503623D+02 0.119929327106919D+02 0.112104432271093D+03
 0.454830570031355D+02 0.159966947412450D+02 -.215167177410913D+02 -.367402380144182D+02
 0.000000000000000D+00 -.000000000000000D+00 0.000000000000000D+00 -.000000000000000D+00
 0.186349108047682D+03 0.000000000000000D+00 0.000000000000000D+00 0.186349108047682D+03
 0.192876772972268D+03 0.000000000000000D+00 0.000000000000000D+00 -.192876772972268D+03
 0.159456372877994D+03 0.638370599420114D+02 0.681196399051311D+01 -.753641942566751D+02
 0.164584822186301D+03 -.782374440327961D+02 0.918754409444256D+01 0.112104432271093D+03
 0.459351109082188D+02 0.162217326831073D+02 -.222944996255146D+02 -.367402380144182D+02
 0.924957504743525D+01 -.182134859232262D+01 0.629499154055890D+01 -.652766492458622D+01
0.419978881992D-05 0.000000000000D+00 0.000000000000D+00 0.495775057087D-06 0.000000000000D+00  6 1 21 25 23 1 21 2 0.31724795D+00 0.25522665D-02 0.20795555D+05 0.20795555D+05 0.20795555D+05 0.12319654D+01  1  2  2  2  6  2       21 0.187921754554D-01 0.100000000000D+01
0.258471776157D-06 0.221628944939D-06 -.847816361463D-08 0.495775057087D-06 0.000000000000D+00  6 1 21 25 23 1 21 4 0.31724795D+00 0.25522665D-02 0.20795555D+05 0.20795555D+05 0.20795555D+05 0.12319654D+01  1  2  3  2  6  2       21 0.175533392992D-02 0.100000000000D+01
0.226128588284D-06 0.000000000000D+00 0.000000000000D+00 0.495775057087D-06 0.000000000000D+00  6 1 21 25 23 1 21 4 0.31724795D+00 0.25522665D-02 0.20795555D+05 0.20795555D+05 0.20795555D+05 0.12319654D+01  1  2 15  2  6  2       21 0.153568482192D-02 0.100000000000D+01
0.201383176990D-04 0.000000000000D+00 0.000000000000D+00 0.494012913767D-06 0.000000000000D+00  6 1 21 25 23 1 21 4 0.31724795D+00 0.26708613D-02 0.21778282D+05 0.21778282D+05 0.21778282D+05 0.12297740D+01  1  2 12  2  6  2       21 0.125957753303D+00 0.100000000000D+01
-.108481247148D-04 0.000000000000D+00 0.000000000000D+00 0.495775057087D-06 0.000000000000D+00  6 1 21 25 23 1 21 4 0.31724795D+00 0.25522665D-02 0.20795555D+05 0.20795555D+05 0.20795555D+05 0.12319654D+01  1  2  4  2  6  2       21 -.736718015054D-01 0.100000000000D+01
-.218232423767D-03 0.000000000000D+00 -.269922290935D-04 0.495775057087D-06 0.000000000000D+00  6 1 21 25 23 1 21 4 0.31724795D+00 0.26839306D-02 0.20795555D+05 0.20795555D+05 0.20795555D+05 0.12319654D+01  1  2  5  2  6  2       21 -.136506870877D+01 0.100000000000D+01
0.218575353666D-03 0.000000000000D+00 0.268561284185D-04 0.495775057087D-06 0.000000000000D+00  6 1 21 25 23 1 21 4 0.31724795D+00 0.25522665D-02 0.20795555D+05 0.20795555D+05 0.20795555D+05 0.12319654D+01  1  2  6  2  6  2       21 0.148438928319D+01 0.100000000000D+01
0.184981475165D-05 0.000000000000D+00 0.000000000000D+00 0.495775057087D-06 0.117966405328D-06  6 1 21 25 23 1 21 4 0.31963209D+00 0.26615227D-02 0.21778282D+05 0.21778282D+05 0.21778282D+05 0.12297740D+01  1  2 11  2  6  2       21 0.113743373893D-01 0.100000000000D+01
0.467866973088D-06 0.000000000000D+00 0.000000000000D+00 0.494012913767D-06 0.000000000000D+00  6 1 -1 25 23 1 -1 4 0.31724795D+00 0.26708613D-02 0.21778282D+05 0.21778282D+05 0.21778282D+05 0.12297740D+01  1  2 12  5  6  2       21 0.148655349277D-03 0.100000000000D+01
-.229092854643D-05 0.000000000000D+00 -.324534992274D-06 0.495775057087D-06 0.000000000000D+00  6 1 -1 25 23 1 -1 4 0.31724795D+00 0.26839306D-02 0.20795555D+05 0.20795555D+05 0.20795555D+05 0.12319654D+01  1  2  5  5  6  2       21 -.728112992679D-03 0.100000000000D+01
0.427831229940D-06 0.000000000000D+00 0.000000000000D+00 0.495775057087D-06 0.252142432223D-07  6 1 -1 25 23 1 -1 4 0.31963209D+00 0.26615227D-02 0.21778282D+05 0.21778282D+05 0.21778282D+05 0.12297740D+01  1  2 11  5  6  2       21 0.133551872499D-03 0.100000000000D+01
0.467866973088D-06 0.000000000000D+00 0.000000000000D+00 0.494012913767D-06 0.000000000000D+00  6 1 1 25 23 1 1 4 0.31724795D+00 0.26708613D-02 0.21778282D+05 0.21778282D+05 0.21778282D+05 0.12297740D+01  1  2 12  6  6  2       21 0.158742788982D-03 0.100000000000D+01
-.229092854643D-05 0.000000000000D+00 -.324534992274D-06 0.495775057087D-06 0.000000000000D+00  6 1 1 25 23 1 1 4 0.31724795D+00 0.26839306D-02 0.20795555D+05 0.20795555D+05 0.20795555D+05 0.12319654D+01  1  2  5  6  6  2       21 -.777808337187D-03 0.100000000000D+01
0.753383711798D-07 0.000000000000D+00 0.000000000000D+00 0.495775057087D-06 0.983577726686D-09  6 1 1 25 23 1 1 4 0.31963209D+00 0.26615227D-02 0.21778282D+05 0.21778282D+05 0.21778282D+05 0.12297740D+01  1  2 11  6  6  2       21 0.251079323381D-04 0.100000000000D+01
0.467866973088D-06 0.000000000000D+00 0.000000000000D+00 0.494012913767D-06 0.000000000000D+00  6 1 -2 25 23 1 -2 4 0.31724795D+00 0.26708613D-02 0.21778282D+05 0.21778282D+05 0.21778282D+05 0.12297740D+01  1  2 12  7  6  2       21 0.146845860224D-03 0.100000000000D+01
0.467866973088D-06 0.000000000000D+00 0.000000000000D+00 0.494012913767D-06 0.000000000000D+00  6 1 -4 25 23 1 -4 4 0.31724795D+00 0.26708613D-02 0.21778282D+05 0.21778282D+05 0.21778282D+05 0.12297740D+01  1  2 12  7  6  2       21 0.101745874293D-03 0.100000000000D+01
-.229092854643D-05 0.000000000000D+00 -.324534992274D-06 0.495775057087D-06 0.000000000000D+00  6 1 -2 25 23 1 -2 4 0.31724795D+00 0.26839306D-02 0.20795555D+05 0.20795555D+05 0.20795555D+05 0.12319654D+01  1  2  5  7  6  2       21 -.719198064051D-03 0.100000000000D+01
-.229092854643D-05 0.000000000000D+00 -.324534992274D-06 0.495775057087D-06 0.000000000000D+00  6 1 -4 25 23 1 -4 4 0.31724795D+00 0.26839306D-02 0.20795555D+05 0.20795555D+05 0.20795555D+05 0.12319654D+01  1  2  5  7  6  2       21 -.497392804882D-03 0.100000000000D+01
0.705239971455D-07 0.000000000000D+00 0.000000000000D+00 0.495775057087D-06 0.149100361346D-08  6 1 -2 25 23 1 -2 4 0.31963209D+00 0.26615227D-02 0.21778282D+05 0.21778282D+05 0.21778282D+05 0.12297740D+01  1  2 11  7  6  2       21 0.217477356955D-04 0.100000000000D+01
0.705239971455D-07 0.000000000000D+00 0.000000000000D+00 0.495775057087D-06 0.149100361346D-08  6 1 -4 25 23 1 -4 4 0.31963209D+00 0.26615227D-02 0.21778282D+05 0.21778282D+05 0.21778282D+05 0.12297740D+01  1  2 11  7  6  2       21 0.150734294468D-04 0.100000000000D+01
0.467866973088D-06 0.000000000000D+00 0.000000000000D+00 0.494012913767D-06 0.000000000000D+00  6 1 2 25 23 1 2 4 0.31724795D+00 0.26708613D-02 0.21778282D+05 0.21778282D+05 0.21778282D+05 0.12297740D+01  1  2 12  8  6  2       21 0.165624905836D-03 0.100000000000D+01
0.467866973088D-06 0.000000000000D+00 0.000000000000D+00 0.494012913767D-06 0.000000000000D+00  6 1 4 25 23 1 4 4 0.31724795D+00 0.26708613D-02 0.21778282D+05 0.21778282D+05 0.21778282D+05 0.12297740D+01  1  2 12  8  6  2       21 0.101745874293D-03 0.100000000000D+01
-.229092854643D-05 0.000000000000D+00 -.324534992274D-06 0.495775057087D-06 0.000000000000D+00  6 1 2 25 23 1 2 4 0.31724795D+00 0.26839306D-02 0.20795555D+05 0.20795555D+05 0.20795555D+05 0.12319654D+01  1  2  5  8  6  2       21 -.811704640226D-03 0.100000000000D+01
-.229092854643D-05 0.000000000000D+00 -.324534992274D-06 0.495775057087D-06 0.000000000000D+00  6 1 4 25 23 1 4 4 0.31724795D+00 0.26839306D-02 0.20795555D+05 0.20795555D+05 0.20795555D+05 0.12319654D+01  1  2  5  8  6  2       21 -.497392804882D-03 0.100000000000D+01
0.721666541633D-07 0.000000000000D+00 0.000000000000D+00 0.495775057087D-06 0.152573232494D-08  6 1 2 25 23 1 2 4 0.31963209D+00 0.26615227D-02 0.21778282D+05 0.21778282D+05 0.21778282D+05 0.12297740D+01  1  2 11  8  6  2       21 0.250902970969D-04 0.100000000000D+01
0.721666541633D-07 0.000000000000D+00 0.000000000000D+00 0.495775057087D-06 0.152573232494D-08  6 1 4 25 23 1 4 4 0.31963209D+00 0.26615227D-02 0.21778282D+05 0.21778282D+05 0.21778282D+05 0.12297740D+01  1  2 11  8  6  2       21 0.154245223466D-04 0.100000000000D+01
0.467866973088D-06 0.000000000000D+00 0.000000000000D+00 0.494012913767D-06 0.000000000000D+00  6 1 -3 25 23 1 -3 4 0.31724795D+00 0.26708613D-02 0.21778282D+05 0.21778282D+05 0.21778282D+05 0.12297740D+01  1  2 12  9  6  2       21 0.112447119343D-03 0.100000000000D+01
-.229092854643D-05 0.000000000000D+00 -.324534992274D-06 0.495775057087D-06 0.000000000000D+00  6 1 -3 25 23 1 -3 4 0.31724795D+00 0.26839306D-02 0.20795555D+05 0.20795555D+05 0.20795555D+05 0.12319654D+01  1  2  5  9  6  2       21 -.550002987753D-03 0.100000000000D+01
0.784042513155D-07 0.000000000000D+00 0.000000000000D+00 0.495775057087D-06 0.165760630074D-08  6 1 -3 25 23 1 -3 4 0.31963209D+00 0.26615227D-02 0.21778282D+05 0.21778282D+05 0.21778282D+05 0.12297740D+01  1  2 11  9  6  2       21 0.185189363217D-04 0.100000000000D+01
0.467866973088D-06 0.000000000000D+00 0.000000000000D+00 0.494012913767D-06 0.000000000000D+00  6 1 3 25 23 1 3 4 0.31724795D+00 0.26708613D-02 0.21778282D+05 0.21778282D+05 0.21778282D+05 0.12297740D+01  1  2 12 10  6  2       21 0.112439429363D-03 0.100000000000D+01
-.229092854643D-05 0.000000000000D+00 -.324534992274D-06 0.495775057087D-06 0.000000000000D+00  6 1 3 25 23 1 3 4 0.31724795D+00 0.26839306D-02 0.20795555D+05 0.20795555D+05 0.20795555D+05 0.12319654D+01  1  2  5 10  6  2       21 -.549965115608D-03 0.100000000000D+01
0.755666144262D-07 0.000000000000D+00 0.000000000000D+00 0.495775057087D-06 0.159761357448D-08  6 1 3 25 23 1 3 4 0.31963209D+00 0.26615227D-02 0.21778282D+05 0.21778282D+05 0.21778282D+05 0.12297740D+01  1  2 11 10  6  2       21 0.178474739057D-04 0.100000000000D+01
  </mgrwgt>
  </event>
  <event>
  5     66 0.36102257E-03 0.31009258E+02 0.75467711E-02 0.11758806E+00
        3 -1    0    0  502    0 0.00000000E+00 0.00000000E+00 0.10068275E+03 0.10068399E+03 0.50000000E+00 0.0000E+00 0.9000E+01
       21 -1    0    0  501  502 0.00000000E+00 0.00000000E+00 -.14031266E+04 0.14031268E+04 0.75000000E+00 0.0000E+00 0.9000E+01
       25  1    1    2    0    0 -.51894075E+02 -.87957891E+02 -.82195612E+02 0.18113725E+03 0.12500000E+03 0.0000E+00 0.9000E+01
       23  1    1    2    0    0 0.23033394E+02 0.99299575E+02 -.40672301E+02 0.14268998E+03 0.91188000E+02 0.0000E+00 0.9000E+01
        3  1    1    2  501    0 0.28860681E+02 -.11341684E+02 -.11795759E+04 0.11799836E+04 0.50000000E+00 0.0000E+00 0.9000E+01
#aMCatNLO 1  0  0  2  1 0.13829877D+02 0.00000000D+00  -5  6  0 0.00000000D+00 0.00000000D+00 0.00000000D+00 0.00000000D+00 0.00000000D+00
  <mgrwgt>
 0.1765696654D+00   23    2    0
 0.375861321360568D+03 0.000000000000000D+00 0.000000000000000D+00 0.375861321360568D+03
 0.375861321360568D+03 0.000000000000000D+00 0.000000000000000D+00 -.375861321360568D+03
 0.219949535250246D+03 -.518940857419253D+02 -.879578865986205D+02 0.149409544898957D+03
 0.214980100988912D+03 0.230333840658738D+02 0.992995792539961D+02 0.165862139307487D+03
 0.316793006481978D+03 0.288607016760515D+02 -.113416926553756D+02 -.315271684206444D+03
 0.000000000000000D+00 -.000000000000000D+00 -.000000000000000D+00 -.000000000000000D+00
 0.377830921100012D+03 0.000000000000000D+00 0.000000000000000D+00 0.377830921100012D+03
 0.401012266870522D+03 0.000000000000000D+00 0.000000000000000D+00 -.401012266870522D+03
 0.218147725389470D+03 -.506006960002807D+02 -.841414734240698D+02 0.149409544898957D+03
 0.216882704804649D+03 0.243083678947971D+02 0.103061681987125D+03 0.165862139307487D+03
 0.316819419894273D+03 0.307313086989234D+02 -.582208085033847D+01 -.315271684206444D+03
 0.269933378821424D+02 -.443898059343979D+01 -.130981277127168D+02 -.231813457705097D+02
0.379169666738D-03 0.000000000000D+00 0.000000000000D+00 0.104868487840D-04 0.000000000000D+00  6 3 21 25 23 3 21 2 0.15489765D-01 0.21586574D+00 0.27092202D+05 0.27092202D+05 0.27092202D+05 0.12195731D+01  1  2  2  2  6  2       21 0.105748388651D-01 0.100000000000D+01
0.124527403124D-03 0.200093330392D-04 -.765434313521D-06 0.104868487840D-04 0.000000000000D+00  6 3 21 25 23 3 21 4 0.15489765D-01 0.21586574D+00 0.27092202D+05 0.27092202D+05 0.27092202D+05 0.12195731D+01  1  2  3  2  6  2       21 0.516559978129D-02 0.100000000000D+01
0.432282032877D-04 0.000000000000D+00 0.000000000000D+00 0.104868487840D-04 0.000000000000D+00  6 3 21 25 23 3 21 4 0.15489765D-01 0.21586574D+00 0.27092202D+05 0.27092202D+05 0.27092202D+05 0.12195731D+01  1  2 15  2  6  2       21 0.179317637601D-02 0.100000000000D+01
0.411580524134D-02 0.000000000000D+00 0.000000000000D+00 0.104184343581D-04 0.000000000000D+00  6 3 21 25 23 3 21 4 0.15489765D-01 0.23085402D+00 0.29549662D+05 0.29549662D+05 0.29549662D+05 0.12155884D+01  1  2 12  2  6  2       21 0.136107461865D+00 0.100000000000D+01
-.170570112948D-02 0.000000000000D+00 0.000000000000D+00 0.104868487840D-04 0.000000000000D+00  6 3 21 25 23 3 21 4 0.15489765D-01 0.21586574D+00 0.27092202D+05 0.27092202D+05 0.27092202D+05 0.12195731D+01  1  2  4  2  6  2       21 -.707552647877D-01 0.100000000000D+01
-.142531748969D-01 0.000000000000D+00 -.145793377613D-02 0.104868487840D-04 0.000000000000D+00  6 3 21 25 23 3 21 4 0.15489765D-01 0.23080150D+00 0.27092202D+05 0.27092202D+05 0.27092202D+05 0.12195731D+01  1  2  5  2  6  2       21 -.480211027158D+00 0.100000000000D+01
0.142065205336D-01 0.000000000000D+00 0.144496524639D-02 0.104868487840D-04 0.000000000000D+00  6 3 21 25 23 3 21 4 0.15489765D-01 0.21586574D+00 0.27092202D+05 0.27092202D+05 0.27092202D+05 0.12195731D+01  1  2  6  2  6  2       21 0.589309642053D+00 0.100000000000D+01
0.831104607452D-04 0.000000000000D+00 0.000000000000D+00 0.104184343581D-04 0.000000000000D+00  6 3 -3 25 23 3 -3 4 0.15489765D-01 0.23085402D+00 0.29549662D+05 0.29549662D+05 0.29549662D+05 0.12155884D+01  1  2 12  5  6  2       21 0.163799156706D-03 0.100000000000D+01
-.219566711331D-03 0.000000000000D+00 -.238538358183D-04 0.104868487840D-04 0.000000000000D+00  6 3 -3 25 23 3 -3 4 0.15489765D-01 0.23080150D+00 0.27092202D+05 0.27092202D+05 0.27092202D+05 0.12195731D+01  1  2  5  5  6  2       21 -.438185602859D-03 0.100000000000D+01
0.831104607452D-04 0.000000000000D+00 0.000000000000D+00 0.104184343581D-04 0.000000000000D+00  6 3 3 25 23 3 3 4 0.15489765D-01 0.23085402D+00 0.29549662D+05 0.29549662D+05 0.29549662D+05 0.12155884D+01  1  2 12  6  6  2       21 0.165175165130D-03 0.100000000000D+01
-.219566711331D-03 0.000000000000D+00 -.238538358183D-04 0.104868487840D-04 0.000000000000D+00  6 3 3 25 23 3 3 4 0.15489765D-01 0.23080150D+00 0.27092202D+05 0.27092202D+05 0.27092202D+05 0.12195731D+01  1  2  5  6  6  2       21 -.441857853294D-03 0.100000000000D+01
0.831104607452D-04 0.000000000000D+00 0.000000000000D+00 0.104184343581D-04 0.000000000000D+00  6 3 -2 25 23 3 -2 4 0.15489765D-01 0.23085402D+00 0.29549662D+05 0.29549662D+05 0.29549662D+05 0.12155884D+01  1  2 12  7  6  2       21 0.244135290490D-03 0.100000000000D+01
0.831104607452D-04 0.000000000000D+00 0.000000000000D+00 0.104184343581D-04 0.000000000000D+00  6 3 -4 25 23 3 -4 4 0.15489765D-01 0.23085402D+00 0.29549662D+05 0.29549662D+05 0.29549662D+05 0.12155884D+01  1  2 12  7  6  2       21 0.123687525756D-03 0.100000000000D+01
-.219566711331D-03 0.000000000000D+00 -.238538358183D-04 0.104868487840D-04 0.000000000000D+00  6 3 -2 25 23 3 -2 4 0.15489765D-01 0.23080150D+00 0.27092202D+05 0.27092202D+05 0.27092202D+05 0.12195731D+01  1  2  5  7  6  2       21 -.653851672021D-03 0.100000000000D+01
-.219566711331D-03 0.000000000000D+00 -.238538358183D-04 0.104868487840D-04 0.000000000000D+00  6 3 -4 25 23 3 -4 4 0.15489765D-01 0.23080150D+00 0.27092202D+05 0.27092202D+05 0.27092202D+05 0.12195731D+01  1  2  5  7  6  2       21 -.330719624883D-03 0.100000000000D+01
0.831104607452D-04 0.000000000000D+00 0.000000000000D+00 0.104184343581D-04 0.000000000000D+00  6 3 2 25 23 3 2 4 0.15489765D-01 0.23085402D+00 0.29549662D+05 0.29549662D+05 0.29549662D+05 0.12155884D+01  1  2 12  8  6  2       21 0.550159580837D-02 0.100000000000D+01
0.831104607452D-04 0.000000000000D+00 0.000000000000D+00 0.104184343581D-04 0.000000000000D+00  6 3 4 25 23 3 4 4 0.15489765D-01 0.23085402D+00 0.29549662D+05 0.29549662D+05 0.29549662D+05 0.12155884D+01  1  2 12  8  6  2       21 0.123687525756D-03 0.100000000000D+01
-.219566711331D-03 0.000000000000D+00 -.238538358183D-04 0.104868487840D-04 0.000000000000D+00  6 3 2 25 23 3 2 4 0.15489765D-01 0.23080150D+00 0.27092202D+05 0.27092202D+05 0.27092202D+05 0.12195731D+01  1  2  5  8  6  2       21 -.147277090644D-01 0.100000000000D+01
-.219566711331D-03 0.000000000000D+00 -.238538358183D-04 0.104868487840D-04 0.000000000000D+00  6 3 4 25 23 3 4 4 0.15489765D-01 0.23080150D+00 0.27092202D+05 0.27092202D+05 0.27092202D+05 0.12195731D+01  1  2  5  8  6  2       21 -.330719624883D-03 0.100000000000D+01
0.831104607452D-04 0.000000000000D+00 0.000000000000D+00 0.104184343581D-04 0.000000000000D+00  6 3 -1 25 23 3 -1 4 0.15489765D-01 0.23085402D+00 0.29549662D+05 0.29549662D+05 0.29549662D+05 0.12155884D+01  1  2 12  9  6  2       21 0.315677283991D-03 0.100000000000D+01
-.219566711331D-03 0.000000000000D+00 -.238538358183D-04 0.104868487840D-04 0.000000000000D+00  6 3 -1 25 23 3 -1 4 0.15489765D-01 0.23080150D+00 0.27092202D+05 0.27092202D+05 0.27092202D+05 0.12195731D+01  1  2  5  9  6  2       21 -.846016661699D-03 0.100000000000D+01
0.831104607452D-04 0.000000000000D+00 0.000000000000D+00 0.104184343581D-04 0.000000000000D+00  6 3 1 25 23 3 1 4 0.15489765D-01 0.23085402D+00 0.29549662D+05 0.29549662D+05 0.29549662D+05 0.12155884D+01  1  2 12 10  6  2       21 0.255155126569D-02 0.100000000000D+01
-.219566711331D-03 0.000000000000D+00 -.238538358183D-04 0.104868487840D-04 0.000000000000D+00  6 3 1 25 23 3 1 4 0.15489765D-01 0.23080150D+00 0.27092202D+05 0.27092202D+05 0.27092202D+05 0.12195731D+01  1  2  5 10  6  2       21 -.683501048735D-02 0.100000000000D+01
  </mgrwgt>
  </event>
  <event>
  5     66 -.36102257E-03 0.52723612E+02 0.75467711E-02 0.11910127E+00
        3 -1    0    0  502    0 0.00000000E+00 0.00000000E+00 0.18054934E+03 0.18055004E+03 0.50000000E+00 0.0000E+00 0.9000E+01
       21 -1    0    0  501  502 0.00000000E+00 0.00000000E+00 -.14062349E+03 0.14062549E+03 0.75000000E+00 0.0000E+00 0.9000E+01
       25  1    1    2    0    0 0.20680731E+02 0.57131346E+02 0.32591392E+02 0.14275462E+03 0.12500000E+03 0.0000E+00 0.9000E+01
       23  1    1    2    0    0 0.26789331E+02 -.80069948E+02 0.14870533E+02 0.12516089E+03 0.91188000E+02 0.0000E+00 0.9000E+01
        3  1    1    2  501    0 -.47470062E+02 0.22938603E+02 -.75360686E+01 0.53260009E+02 0.50000000E+00 0.0000E+00 0.9000E+01
#aMCatNLO 1  0  0  5  2 0.12038361D+01 0.00000000D+00  -5  6  0 0.00000000D+00 0.00000000D+00 0.00000000D+00 0.00000000D+00 0.00000000D+00
  <mgrwgt>
 -.4781508793D-02    8    2    0
 0.159342118618663D+03 0.000000000000000D+00 0.000000000000000D+00 0.159342118618663D+03
 0.159342118618663D+03 -.000000000000000D+00 -.000000000000000D+00 -.159342118618663D+03
 0.139787417201730D+03 0.206816029929105D+02 0.571309241216524D+02 0.149616447819134D+02
 0.124276702814917D+03 0.267901070778113D+02 -.800703230932688D+02 -.693571226485955D+00
 0.546201172206794D+02 -.474717100707218D+02 0.229393989716164D+02 -.142680735554274D+02
 0.000000000000000D+00 0.000000000000000D+00 0.000000000000000D+00 -.000000000000000D+00
 0.159342118618663D+03 0.000000000000000D+00 0.000000000000000D+00 0.159342118618663D+03
 0.159342118618663D+03 -.000000000000000D+00 -.000000000000000D+00 -.159342118618663D+03
 0.139787815221369D+03 0.206588335975701D+02 0.571419268060570D+02 0.149548012237806D+02
 0.124266072892885D+03 0.267698650532584D+02 -.800605416913239D+02 -.699655159312504D+00
 0.364102546183055D+02 -.320590506058159D+02 0.150780399403246D+02 -.840098965488913D+01
 0.182200945047668D+02 -.153696480450126D+02 0.784057494494234D+01 -.585415640957901D+01
0.201930216249D-06 0.000000000000D+00 0.000000000000D+00 0.252017214886D-06 0.000000000000D+00  6 3 21 25 23 3 21 2 0.27777029D-01 0.21634590D-01 0.24961284D+05 0.24961284D+05 0.24961284D+05 0.12233698D+01  1  2  2  3  6  5        3 0.364447663514D-03 0.100000000000D+01
-.488815520392D-08 0.106561502727D-07 -.407638927933D-09 0.252017214886D-06 0.000000000000D+00  6 3 21 25 23 3 21 4 0.27777029D-01 0.21634590D-01 0.24961284D+05 0.24961284D+05 0.24961284D+05 0.12233698D+01  1  2  3  3  6  5        3 -.132036610438D-04 0.100000000000D+01
0.163545536982D-07 0.000000000000D+00 0.000000000000D+00 0.252017214886D-06 0.000000000000D+00  6 3 21 25 23 3 21 4 0.27777029D-01 0.21634590D-01 0.24961284D+05 0.24961284D+05 0.24961284D+05 0.12233698D+01  1  2 15  3  6  5        3 0.441761716938D-04 0.100000000000D+01
0.692788768079D-09 0.000000000000D+00 0.000000000000D+00 0.252023448095D-06 0.000000000000D+00  6 3 21 25 23 3 21 4 0.27777029D-01 0.21634590D-01 0.24953176D+05 0.24953176D+05 0.24953176D+05 0.12233849D+01  1  2 12  3  6  5        3 0.187140478282D-05 0.100000000000D+01
-.309515862380D-04 0.000000000000D+00 0.000000000000D+00 0.252017214886D-06 0.000000000000D+00  6 3 21 25 23 3 21 4 0.27777029D-01 0.21634590D-01 0.24961284D+05 0.24961284D+05 0.24961284D+05 0.12233698D+01  1  2  4  3  6  5        3 -.836050076988D-01 0.100000000000D+01
-.168786445213D-04 0.000000000000D+00 0.000000000000D+00 0.252017214886D-06 0.000000000000D+00  6 3 21 25 23 3 21 4 0.27777029D-01 0.21634590D-01 0.24961284D+05 0.24961284D+05 0.24961284D+05 0.12233698D+01  1  2  5  3  6  5        3 -.455918218310D-01 0.100000000000D+01
0.263193590954D-04 0.000000000000D+00 -.000000000000D+00 0.252017214886D-06 0.000000000000D+00  6 3 21 25 23 3 21 4 0.27777029D-01 0.21634590D-01 0.24961284D+05 0.24961284D+05 0.24961284D+05 0.12233698D+01  1  2  6  3  6  5        3 0.710926478170D-01 0.100000000000D+01
0.195928267768D-04 0.000000000000D+00 0.000000000000D+00 0.252017214886D-06 0.774992335723D-06  6 3 21 25 23 3 21 4 0.27777029D-01 0.21634590D-01 0.24953176D+05 0.24953176D+05 0.24953176D+05 0.12233849D+01  1  2 11  3  6  5        3 0.529253813405D-01 0.100000000000D+01
  </mgrwgt>
  </event>
  <event>
  6     66 -.36102257E-03 0.48082894E+02 0.75467711E-02 0.11450355E+00
        1 -1    0    0  502    0 0.00000000E+00 0.00000000E+00 0.30307062E+04 0.30307062E+04 0.32000000E+00 0.0000E+00 0.9000E+01
       21 -1    0    0  503  502 0.00000000E+00 0.00000000E+00 -.88546284E+02 0.88549460E+02 0.75000000E+00 0.0000E+00 0.9000E+01
       25  1    1    2    0    0 0.11537437E+03 0.98461844E+02 0.17042626E+04 0.17155588E+04 0.12500000E+03 0.0000E+00 0.9000E+01
       23  1    1    2    0    0 -.26044334E+02 -.51334284E+02 0.90602641E+03 0.91242130E+03 0.91188000E+02 0.0000E+00 0.9000E+01
        1  1    1    2  501    0 -.50103741E+02 -.45546185E+02 0.40374048E+03 0.40937918E+03 0.32000000E+00 0.0000E+00 0.9000E+01
       21  1    1    2  503  501 -.39226291E+02 -.15813755E+01 -.71869636E+02 0.81896335E+02 0.75000000E+00 0.0000E+00 0.9000E+01
#aMCatNLO 2  0  0  2  1 0.39258154D+02 0.00000000D+00  -5  6  0 0.00000000D+00 0.00000000D+00 0.00000000D+00 0.00000000D+00 0.00000000D+00
  <mgrwgt>
 -.8573224766D-01    3    2    0
 0.186839788892662D+03 0.000000000000000D+00 0.000000000000000D+00 0.186839788892662D+03
 0.186839788892662D+03 0.000000000000000D+00 0.000000000000000D+00 -.186839788892662D+03
 0.185692182716326D+03 0.953365029990742D+02 0.976542237813710D+02 0.152049497045752D+02
 0.111495890712834D+03 -.375305712748847D+02 -.517972281658656D+02 0.495839449441454D+01
 0.764915043561641D+02 -.578059317241894D+02 -.458569956155054D+02 -.201633441989897D+02
 0.000000000000000D+00 -.000000000000000D+00 -.000000000000000D+00 -.000000000000000D+00
 0.188179228386124D+03 0.000000000000000D+00 0.000000000000000D+00 0.188179228386124D+03
 0.142610014327391D+04 0.000000000000000D+00 0.000000000000000D+00 -.142610014327391D+04
 0.197135164450063D+03 0.115374643204818D+03 0.984620448324933D+02 0.152049497045752D+02
 0.107950606494324D+03 -.260441931170958D+02 -.513341643295145D+02 0.495839449441454D+01
 0.706503458644546D+02 -.501041595110049D+02 -.455465050379929D+02 -.201633441989897D+02
 0.123854325485120D+04 -.392262905767169D+02 -.158137546498595D+01 -.123792091488779D+04
-.144150055507D-02 0.000000000000D+00 0.000000000000D+00 0.135610946360D-06 0.000000000000D+00  6 1 21 25 23 1 21 4 0.46294365D+00 0.13559515D-01 0.42303174D+05 0.42303174D+05 0.42303174D+05 0.11995391D+01  1  2 13  2  6  2       21 -.115303040403D+00 0.100000000000D+01
-.144189573042D-02 0.000000000000D+00 0.000000000000D+00 0.135610946360D-06 0.000000000000D+00  6 1 21 25 23 1 21 4 0.46294365D+00 0.13623022D-01 0.42303174D+05 0.42303174D+05 0.42303174D+05 0.11995391D+01  1  2 13  2  6  2       21 -.114363550591D+00 0.100000000000D+01
0.187858300960D-02 0.000000000000D+00 0.000000000000D+00 0.137731175048D-06 0.372890982083D-07  6 1 21 25 23 1 21 4 0.46626245D+00 0.13622743D-01 0.42303174D+05 0.42303174D+05 0.42303174D+05 0.11995391D+01  1  2  1  2  6  2       21 0.143934343331D+00 0.100000000000D+01
  </mgrwgt>
  </event>
  <event>
  6     66 -.36102257E-03 0.46440786E+02 0.75467711E-02 0.12152248E+00
        3 -1    0    0  502    0 0.00000000E+00 0.00000000E+00 0.42531051E+03 0.42531080E+03 0.50000000E+00 0.0000E+00 0.9000E+01
       21 -1    0    0  503  502 0.00000000E+00 0.00000000E+00 -.70419841E+02 0.70423835E+02 0.75000000E+00 0.0000E+00 0.9000E+01
       25  1    1    2    0    0 -.15348331E+02 0.20613261E+02 0.29053144E+03 0.31732318E+03 0.12500000E+03 0.0000E+00 0.9000E+01
       23  1    1    2    0    0 0.14588375E+02 0.30725195E+02 0.75446102E+02 0.12314310E+03 0.91188000E+02 0.0000E+00 0.9000E+01
        3  1    1    2  501    0 -.36144755E+01 -.39037012E+02 -.18371303E+01 0.39250194E+02 0.50000000E+00 0.0000E+00 0.9000E+01
       21  1    1    2  503  501 0.43744319E+01 -.12301444E+02 -.92497491E+01 0.16018163E+02 0.75000000E+00 0.0000E+00 0.9000E+01
#aMCatNLO 2  0  0  2  5 0.13056078D+02 0.00000000D+00  -5  6  0 0.00000000D+00 0.00000000D+00 0.00000000D+00 0.00000000D+00 0.00000000D+00
  <mgrwgt>
 -.1129899341D-01    3    2    0
 0.156012171976403D+03 0.000000000000000D+00 0.000000000000000D+00 0.156012171976403D+03
 0.156012171976403D+03 0.000000000000000D+00 0.000000000000000D+00 -.156012171976403D+03
 0.147777993908753D+03 -.132711365509183D+02 0.147726442559338D+02 0.762822482628159D+02
 0.100269888296701D+03 0.159999567517849D+02 0.267561341881502D+02 -.276931367360143D+02
 0.639764617473523D+02 -.272882020086669D+01 -.415287784440839D+02 -.485891115268016D+02
 0.000000000000000D+00 0.000000000000000D+00 -.000000000000000D+00 -.000000000000000D+00
 0.157397182790305D+03 0.000000000000000D+00 0.000000000000000D+00 0.157397182790305D+03
 0.190282057428840D+03 0.000000000000000D+00 0.000000000000000D+00 -.190282057428840D+03
 0.148675766769702D+03 -.153482976192809D+02 0.206138784492128D+02 0.762822482628159D+02
 0.101188167544098D+03 0.145884016089429D+02 0.307256020795194D+02 -.276931367360143D+02
 0.624334438409500D+02 -.361453584819900D+01 -.390380363425106D+02 -.485891115268016D+02
 0.353818620643950D+02 0.437443185853693D+01 -.123014441862215D+02 -.328848746385351D+02
-.547879195034D-05 0.000000000000D+00 0.000000000000D+00 0.599660432050D-06 0.000000000000D+00  6 3 21 25 23 3 21 4 0.64855317D-01 0.10867585D-01 0.19210050D+05 0.19210050D+05 0.19210050D+05 0.12357575D+01  1  2 13  2  6  2       21 -.101918387342D-01 0.100000000000D+01
-.393208522505D-05 0.000000000000D+00 0.000000000000D+00 0.599660432050D-06 0.000000000000D+00  6 3 21 25 23 3 21 4 0.64855317D-01 0.11641730D-01 0.19210050D+05 0.19210050D+05 0.19210050D+05 0.12357575D+01  1  2 13  2  6  2       21 -.647732795409D-02 0.100000000000D+01
0.292456003929D-05 0.000000000000D+00 0.000000000000D+00 0.604047051775D-06 0.125435368059D-06  6 3 21 25 23 3 21 4 0.65431076D-01 0.10833880D-01 0.19210050D+05 0.19210050D+05 0.19210050D+05 0.12357575D+01  1  2  1  2  6  2       21 0.537017327443D-02 0.100000000000D+01
  </mgrwgt>
  </event>
  <event>
  5     66 -.36102257E-03 0.42488475E+02 0.75467711E-02 0.10520436E+00
        1 -1    0    0  502    0 0.00000000E+00 0.00000000E+00 0.34119697E+04 0.34119698E+04 0.32000000E+00 0.0000E+00 0.9000E+01
       21 -1    0    0  501  502 0.00000000E+00 0.00000000E+00 -.98972200E+01 0.99255963E+01 0.75000000E+00 0.0000E+00 0.9000E+01
       25  1    1    2    0    0 0.19290318E+02 -.23624694E+02 0.81570542E+03 0.82579088E+03 0.12500000E+03 0.0000E+00 0.9000E+01
       23  1    1    2    0    0 -.48566778E+02 -.71673393E+01 0.57266062E+03 0.58194978E+03 0.91188000E+02 0.0000E+00 0.9000E+01
        1  1    1    2  501    0 0.29276460E+02 0.30792034E+02 0.20137065E+04 0.20141547E+04 0.32000000E+00 0.0000E+00 0.9000E+01
#aMCatNLO 1  0  0  2  1 0.55978360D+02 0.00000000D+00  -5  6  0 0.00000000D+00 0.00000000D+00 0.00000000D+00 0.00000000D+00 0.00000000D+00
  <mgrwgt>
 -.3750837429D+00   12    2    0
 0.183895598174550D+03 0.000000000000000D+00 0.000000000000000D+00 0.183895598174550D+03
 0.183895598174550D+03 0.000000000000000D+00 0.000000000000000D+00 -.183895598174550D+03
 0.137798283395886D+03 0.192902742106047D+02 -.236247408557224D+02 -.493267052136322D+02
 0.117290187293734D+03 -.485668158362438D+02 -.716737892895590D+01 -.550602376512886D+02
 0.112702725659480D+03 0.292765416256391D+02 0.307921197846783D+02 0.104386942864921D+03
 0.000000000000000D+00 -.000000000000000D+00 -.000000000000000D+00 -.000000000000000D+00
 0.245004632241103D+03 0.000000000000000D+00 0.000000000000000D+00 0.245004632241103D+03
 0.254935901602412D+05 0.000000000000000D+00 0.000000000000000D+00 -.254935901602412D+05
 0.198113279904444D+03 0.144843890647293D+03 -.145256727699423D+02 -.493267052136322D+02
 0.112927498635494D+03 0.374816153404388D+02 -.931313762756403D+00 -.550602376512886D+02
 0.176931880680561D+03 0.137533226551653D+03 0.386376520348733D+02 0.104386942864921D+03
 0.252506221332618D+05 -.319858732539384D+03 -.231806655021746D+02 -.252485855280001D+05
0.214928820548D-05 0.000000000000D+00 0.000000000000D+00 0.148682613642D-06 0.000000000000D+00  6 1 21 25 23 1 21 2 0.52492061D+00 0.15248332D-02 0.18867627D+05 0.18867627D+05 0.18867627D+05 0.12366225D+01  1  2  2  2  6  2       21 0.275891505298D-02 0.100000000000D+01
-.289255256222D-06 0.113421054671D-06 -.433879364948D-08 0.148682613642D-06 0.000000000000D+00  6 1 21 25 23 1 21 4 0.52492061D+00 0.15248332D-02 0.18867627D+05 0.18867627D+05 0.18867627D+05 0.12366225D+01  1  2  3  2  6  2       21 -.567805033842D-03 0.100000000000D+01
0.256694909503D-06 0.000000000000D+00 0.000000000000D+00 0.148682613642D-06 0.000000000000D+00  6 1 21 25 23 1 21 4 0.52492061D+00 0.15248332D-02 0.18867627D+05 0.18867627D+05 0.18867627D+05 0.12366225D+01  1  2 15  2  6  2       21 0.503889414771D-03 0.100000000000D+01
-.279137694377D+01 0.000000000000D+00 -.235144779239D-01 0.148682613642D-06 0.000000000000D+00  6 1 21 25 23 1 21 4 0.52492061D+00 0.28537371D+00 0.18867627D+05 0.18867627D+05 0.18867627D+05 0.12366225D+01  1  2  5  2  6  2       21 -.133010992519D+00 0.100000000000D+01
-.124056091182D+01 0.000000000000D+00 -.104504291203D-01 0.148682613642D-06 0.000000000000D+00  6 1 -1 25 23 1 -1 4 0.52492061D+00 0.28537371D+00 0.18867627D+05 0.18867627D+05 0.18867627D+05 0.12366225D+01  1  2  5  5  6  2       21 -.627880573340D-02 0.100000000000D+01
-.124056091182D+01 0.000000000000D+00 -.104504291203D-01 0.148682613642D-06 0.000000000000D+00  6 1 1 25 23 1 1 4 0.52492061D+00 0.28537371D+00 0.18867627D+05 0.18867627D+05 0.18867627D+05 0.12366225D+01  1  2  5  6  6  2       21 -.653570780876D-01 0.100000000000D+01
-.124056091182D+01 0.000000000000D+00 -.104504291203D-01 0.148682613642D-06 0.000000000000D+00  6 1 -2 25 23 1 -2 4 0.52492061D+00 0.28537371D+00 0.18867627D+05 0.18867627D+05 0.18867627D+05 0.12366225D+01  1  2  5  7  6  2       21 -.510647120054D-02 0.100000000000D+01
-.124056091182D+01 0.000000000000D+00 -.104504291203D-01 0.148682613642D-06 0.000000000000D+00  6 1 -4 25 23 1 -4 4 0.52492061D+00 0.28537371D+00 0.18867627D+05 0.18867627D+05 0.18867627D+05 0.12366225D+01  1  2  5  7  6  2       21 -.255884596391D-02 0.100000000000D+01
-.124056091182D+01 0.000000000000D+00 -.104504291203D-01 0.148682613642D-06 0.000000000000D+00  6 1 2 25 23 1 2 4 0.52492061D+00 0.28537371D+00 0.18867627D+05 0.18867627D+05 0.18867627D+05 0.12366225D+01  1  2  5  8  6  2       21 -.155731154216D+00 0.100000000000D+01
-.124056091182D+01 0.000000000000D+00 -.104504291203D-01 0.148682613642D-06 0.000000000000D+00  6 1 4 25 23 1 4 4 0.52492061D+00 0.28537371D+00 0.18867627D+05 0.18867627D+05 0.18867627D+05 0.12366225D+01  1  2  5  8  6  2       21 -.255884596391D-02 0.100000000000D+01
-.124056091182D+01 0.000000000000D+00 -.104504291203D-01 0.148682613642D-06 0.000000000000D+00  6 1 -3 25 23 1 -3 4 0.52492061D+00 0.28537371D+00 0.18867627D+05 0.18867627D+05 0.18867627D+05 0.12366225D+01  1  2  5  9  6  2       21 -.356364262533D-02 0.100000000000D+01
-.124056091182D+01 0.000000000000D+00 -.104504291203D-01 0.148682613642D-06 0.000000000000D+00  6 1 3 25 23 1 3 4 0.52492061D+00 0.28537371D+00 0.18867627D+05 0.18867627D+05 0.18867627D+05 0.12366225D+01  1  2  5 10  6  2       21 -.361290605204D-02 0.100000000000D+01
  </mgrwgt>
  </event>
  <event>
  5     66 0.36102257E-03 0.85163595E+02 0.75467711E-02 0.11275039E+00
        1 -1    0    0  502    0 0.00000000E+00 0.00000000E+00 0.14509460E+04 0.14509461E+04 0.32000000E+00 0.0000E+00 0.9000E+01
       21 -1    0    0  501  502 0.00000000E+00 0.00000000E+00 -.56135171E+02 0.56140181E+02 0.75000000E+00 0.0000E+00 0.9000E+01
       25  1    1    2    0    0 0.68936253E+02 0.16003743E+03 0.10771928E+04 0.10983321E+04 0.12500000E+03 0.0000E+00 0.9000E+01
       23  1    1    2    0    0 0.66084101E+01 -.88393156E+02 0.26077864E+03 0.29013406E+03 0.91188000E+02 0.0000E+00 0.9000E+01
        1  1    1    2  501    0 -.75544663E+02 -.71644271E+02 0.56839471E+02 0.11862009E+03 0.32000000E+00 0.0000E+00 0.9000E+01
#aMCatNLO 1  0  0  2  1 0.11065313D+02 0.00000000D+00  -5  6  0 0.00000000D+00 0.00000000D+00 0.00000000D+00 0.00000000D+00 0.00000000D+00
  <mgrwgt>
 0.5344032821D-01   23    2    0
 0.285399555447133D+03 0.000000000000000D+00 0.000000000000000D+00 0.285399555447133D+03
 0.285399555447133D+03 0.000000000000000D+00 0.000000000000000D+00 -.285399555447133D+03
 0.267696854386007D+03 0.689363128332948D+02 0.160037483762874D+03 0.160226072822001D+03
 0.128802153800189D+03 0.660843882255427D+01 -.883931284909640D+02 -.204383671430959D+02
 0.174300102708070D+03 -.755447516558491D+02 -.716443552719098D+02 -.139787705678905D+03
 0.000000000000000D+00 0.000000000000000D+00 0.000000000000000D+00 -.000000000000000D+00
 0.288221122550020D+03 0.000000000000000D+00 0.000000000000000D+00 0.288221122550020D+03
 0.296512027738112D+03 0.000000000000000D+00 0.000000000000000D+00 -.296512027738112D+03
 0.264962114251496D+03 0.645692807264303D+02 0.157284250842648D+03 0.160226072822001D+03
 0.129631851270094D+03 0.448965426414470D+01 -.897289344237643D+02 -.204383671430959D+02
 0.176312389459085D+03 -.784192663087766D+02 -.734566177372282D+02 -.139787705678905D+03
 0.138267953074576D+02 0.936033131820159D+01 0.590130131834446D+01 -.829090518809215D+01
0.538262946362D-05 0.000000000000D+00 0.000000000000D+00 0.121124146399D-06 0.000000000000D+00  6 1 21 25 23 1 21 2 0.22322286D+00 0.86365683D-02 0.49670176D+05 0.49670176D+05 0.49670176D+05 0.11925665D+01  1  2  2  2  6  2       21 0.696590479977D-02 0.100000000000D+01
-.448398146929D-07 0.284049160606D-06 -.108659780828D-07 0.121124146399D-06 0.000000000000D+00  6 1 21 25 23 1 21 4 0.22322286D+00 0.86365683D-02 0.49670176D+05 0.49670176D+05 0.49670176D+05 0.11925665D+01  1  2  3  2  6  2       21 -.825300459877D-04 0.100000000000D+01
0.694891698651D-06 0.000000000000D+00 0.000000000000D+00 0.121124146399D-06 0.000000000000D+00  6 1 21 25 23 1 21 4 0.22322286D+00 0.86365683D-02 0.49670176D+05 0.49670176D+05 0.49670176D+05 0.11925665D+01  1  2 15  2  6  2       21 0.127898485395D-02 0.100000000000D+01
0.211891062155D-04 0.000000000000D+00 0.000000000000D+00 0.120668362229D-06 0.000000000000D+00  6 1 21 25 23 1 21 4 0.22322286D+00 0.90144634D-02 0.52338668D+05 0.52338668D+05 0.52338668D+05 0.11903206D+01  1  2 12  2  6  2       21 0.358318241498D-01 0.100000000000D+01
-.159193481546D-04 0.000000000000D+00 0.000000000000D+00 0.121124146399D-06 0.000000000000D+00  6 1 21 25 23 1 21 4 0.22322286D+00 0.86365683D-02 0.49670176D+05 0.49670176D+05 0.49670176D+05 0.11925665D+01  1  2  4  2  6  2       21 -.293004006439D-01 0.100000000000D+01
-.261546800821D-03 0.000000000000D+00 -.357752868992D-04 0.121124146399D-06 0.000000000000D+00  6 1 21 25 23 1 21 4 0.22322286D+00 0.90637333D-02 0.49670176D+05 0.49670176D+05 0.49670176D+05 0.11925665D+01  1  2  5  2  6  2       21 -.442225804329D+00 0.100000000000D+01
0.262217137070D-03 0.000000000000D+00 0.356090835472D-04 0.121124146399D-06 0.000000000000D+00  6 1 21 25 23 1 21 4 0.22322286D+00 0.86365683D-02 0.49670176D+05 0.49670176D+05 0.49670176D+05 0.11925665D+01  1  2  6  2  6  2       21 0.482624482938D+00 0.100000000000D+01
0.489767492570D-06 0.000000000000D+00 0.000000000000D+00 0.120668362229D-06 0.000000000000D+00  6 1 -1 25 23 1 -1 4 0.22322286D+00 0.90144634D-02 0.52338668D+05 0.52338668D+05 0.52338668D+05 0.11903206D+01  1  2 12  5  6  2       21 0.547169825548D-04 0.100000000000D+01
-.256422992028D-05 0.000000000000D+00 -.411653927283D-06 0.121124146399D-06 0.000000000000D+00  6 1 -1 25 23 1 -1 4 0.22322286D+00 0.90637333D-02 0.49670176D+05 0.49670176D+05 0.49670176D+05 0.11925665D+01  1  2  5  5  6  2       21 -.286461157890D-03 0.100000000000D+01
0.489767492570D-06 0.000000000000D+00 0.000000000000D+00 0.120668362229D-06 0.000000000000D+00  6 1 1 25 23 1 1 4 0.22322286D+00 0.90144634D-02 0.52338668D+05 0.52338668D+05 0.52338668D+05 0.11903206D+01  1  2 12  6  6  2       21 0.671234403801D-04 0.100000000000D+01
-.256422992028D-05 0.000000000000D+00 -.411653927283D-06 0.121124146399D-06 0.000000000000D+00  6 1 1 25 23 1 1 4 0.22322286D+00 0.90637333D-02 0.49670176D+05 0.49670176D+05 0.49670176D+05 0.11925665D+01  1  2  5  6  6  2       21 -.351792544795D-03 0.100000000000D+01
0.489767492570D-06 0.000000000000D+00 0.000000000000D+00 0.120668362229D-06 0.000000000000D+00  6 1 -2 25 23 1 -2 4 0.22322286D+00 0.90144634D-02 0.52338668D+05 0.52338668D+05 0.52338668D+05 0.11903206D+01  1  2 12  7  6  2       21 0.525663792206D-04 0.100000000000D+01
0.489767492570D-06 0.000000000000D+00 0.000000000000D+00 0.120668362229D-06 0.000000000000D+00  6 1 -4 25 23 1 -4 4 0.22322286D+00 0.90144634D-02 0.52338668D+05 0.52338668D+05 0.52338668D+05 0.11903206D+01  1  2 12  7  6  2       21 0.329147341327D-04 0.100000000000D+01
-.256422992028D-05 0.000000000000D+00 -.411653927283D-06 0.121124146399D-06 0.000000000000D+00  6 1 -2 25 23 1 -2 4 0.22322286D+00 0.90637333D-02 0.49670176D+05 0.49670176D+05 0.49670176D+05 0.11925665D+01  1  2  5  7  6  2       21 -.275134973139D-03 0.100000000000D+01
-.256422992028D-05 0.000000000000D+00 -.411653927283D-06 0.121124146399D-06 0.000000000000D+00  6 1 -4 25 23 1 -4 4 0.22322286D+00 0.90637333D-02 0.49670176D+05 0.49670176D+05 0.49670176D+05 0.11925665D+01  1  2  5  7  6  2       21 -.171919428121D-03 0.100000000000D+01
0.489767492570D-06 0.000000000000D+00 0.000000000000D+00 0.120668362229D-06 0.000000000000D+00  6 1 2 25 23 1 2 4 0.22322286D+00 0.90144634D-02 0.52338668D+05 0.52338668D+05 0.52338668D+05 0.11903206D+01  1  2 12  8  6  2       21 0.755370799128D-04 0.100000000000D+01
0.489767492570D-06 0.000000000000D+00 0.000000000000D+00 0.120668362229D-06 0.000000000000D+00  6 1 4 25 23 1 4 4 0.22322286D+00 0.90144634D-02 0.52338668D+05 0.52338668D+05 0.52338668D+05 0.11903206D+01  1  2 12  8  6  2       21 0.329147341327D-04 0.100000000000D+01
-.256422992028D-05 0.000000000000D+00 -.411653927283D-06 0.121124146399D-06 0.000000000000D+00  6 1 2 25 23 1 2 4 0.22322286D+00 0.90637333D-02 0.49670176D+05 0.49670176D+05 0.49670176D+05 0.11925665D+01  1  2  5  8  6  2       21 -.396090883370D-03 0.100000000000D+01
-.256422992028D-05 0.000000000000D+00 -.411653927283D-06 0.121124146399D-06 0.000000000000D+00  6 1 4 25 23 1 4 4 0.22322286D+00 0.90637333D-02 0.49670176D+05 0.49670176D+05 0.49670176D+05 0.11925665D+01  1  2  5  8  6  2       21 -.171919428121D-03 0.100000000000D+01
0.489767492570D-06 0.000000000000D+00 0.000000000000D+00 0.120668362229D-06 0.000000000000D+00  6 1 -3 25 23 1 -3 4 0.22322286D+00 0.90144634D-02 0.52338668D+05 0.52338668D+05 0.52338668D+05 0.11903206D+01  1  2 12  9  6  2       21 0.372191126030D-04 0.100000000000D+01
-.256422992028D-05 0.000000000000D+00 -.411653927283D-06 0.121124146399D-06 0.000000000000D+00  6 1 -3 25 23 1 -3 4 0.22322286D+00 0.90637333D-02 0.49670176D+05 0.49670176D+05 0.49670176D+05 0.11925665D+01  1  2  5  9  6  2       21 -.194522352843D-03 0.100000000000D+01
0.489767492570D-06 0.000000000000D+00 0.000000000000D+00 0.120668362229D-06 0.000000000000D+00  6 1 3 25 23 1 3 4 0.22322286D+00 0.90144634D-02 0.52338668D+05 0.52338668D+05 0.52338668D+05 0.11903206D+01  1  2 12 10  6  2       21 0.372148766819D-04 0.100000000000D+01
-.256422992028D-05 0.000000000000D+00 -.411653927283D-06 0.121124146399D-06 0.000000000000D+00  6 1 3 25 23 1 3 4 0.22322286D+00 0.90637333D-02 0.49670176D+05 0.49670176D+05 0.49670176D+05 0.11925665D+01  1  2  5 10  6  2       21 -.194500088114D-03 0.100000000000D+01
  </mgrwgt>
  </event>
  <event>
  5     66 0.36102257E-03 0.67044501E+02 0.75467711E-02 0.11803051E+00
        1 -1    0    0  502    0 0.00000000E+00 0.00000000E+00 0.24521365E+03 0.24521386E+03 0.32000000E+00 0.0000E+00 0.9000E+01
       21 -1    0    0  501  502 0.00000000E+00 0.00000000E+00 -.26789758E+03 0.26789863E+03 0.75000000E+00 0.0000E+00 0.9000E+01
       25  1    1    2    0    0 0.11921068E+01 -.51621850E+02 0.11763149E+03 0.17924398E+03 0.12500000E+03 0.0000E+00 0.9000E+01
       23  1    1    2    0    0 0.61851105E+02 0.16562366E+02 0.56010800E+02 0.12470899E+03 0.91188000E+02 0.0000E+00 0.9000E+01
        1  1    1    2  501    0 -.63043212E+02 0.35059484E+02 -.19632623E+03 0.20915952E+03 0.32000000E+00 0.0000E+00 0.9000E+01
#aMCatNLO 1  0  0  2  1 0.20629238D+02 0.00000000D+00  -5  6  0 0.00000000D+00 0.00000000D+00 0.00000000D+00 0.00000000D+00 0.00000000D+00
  <mgrwgt>
 0.1382284838D+00   32    2    0
 0.256305415680653D+03 0.000000000000000D+00 0.000000000000000D+00 0.256305415680653D+03
 0.256305415680653D+03 0.000000000000000D+00 0.000000000000000D+00 -.256305415680653D+03
 0.184624859115540D+03 0.119213565810166D+01 -.516218658771582D+02 0.125678559744159D+03
 0.127309647163185D+03 0.618511249547649D+02 0.165623548375713D+02 0.615842647181812D+02
 0.200676325082582D+03 -.630432606128666D+02 0.350595110395870D+02 -.187262824462340D+03
 0.000000000000000D+00 -.000000000000000D+00 0.000000000000000D+00 -.000000000000000D+00
 0.258014511601226D+03 0.000000000000000D+00 0.000000000000000D+00 0.258014511601226D+03
 0.327363377507200D+03 0.000000000000000D+00 0.000000000000000D+00 -.327363377507200D+03
 0.185969623749926D+03 0.738681411352412D+01 -.557676927582180D+02 0.125678559744159D+03
 0.129110565844371D+03 0.661373214376990D+02 0.136937913238513D+02 0.615842647181812D+02
 0.197945569884185D+03 -.563800894681771D+02 0.306001425278001D+02 -.187262824462340D+03
 0.723521296299448D+02 -.171440460830461D+02 0.114737589065665D+02 -.693488659059736D+02
0.388116886596D-05 0.000000000000D+00 0.000000000000D+00 0.144197755921D-05 0.000000000000D+00  6 1 21 25 23 1 21 2 0.37725274D-01 0.41215109D-01 0.25409064D+05 0.25409064D+05 0.25409064D+05 0.12225427D+01  1  2  2  2  6  2       21 0.408670137639D-02 0.100000000000D+01
0.186402429228D-06 0.204814908029D-06 -.783496172606D-08 0.144197755921D-05 0.000000000000D+00  6 1 21 25 23 1 21 4 0.37725274D-01 0.41215109D-01 0.25409064D+05 0.25409064D+05 0.25409064D+05 0.12225427D+01  1  2  3  2  6  2       21 0.293352624549D-03 0.100000000000D+01
0.326001921845D-06 0.000000000000D+00 0.000000000000D+00 0.144197755921D-05 0.000000000000D+00  6 1 21 25 23 1 21 4 0.37725274D-01 0.41215109D-01 0.25409064D+05 0.25409064D+05 0.25409064D+05 0.12225427D+01  1  2 15  2  6  2       21 0.513048675265D-03 0.100000000000D+01
0.569272321315D-04 0.000000000000D+00 0.000000000000D+00 0.143098337753D-05 0.000000000000D+00  6 1 21 25 23 1 21 4 0.37725274D-01 0.52752743D-01 0.28111522D+05 0.28111522D+05 0.28111522D+05 0.12178732D+01  1  2 12  2  6  2       21 0.529869626384D-01 0.100000000000D+01
0.393912094184D-04 0.000000000000D+00 0.000000000000D+00 0.143098337753D-05 0.000000000000D+00  6 1 21 25 23 1 21 4 0.37725274D-01 0.57948172D-01 0.28111522D+05 0.28111522D+05 0.28111522D+05 0.12178732D+01  1  2 12  2  6  2       21 0.300727088351D-01 0.100000000000D+01
-.658698934090D-05 0.000000000000D+00 0.000000000000D+00 0.144197755921D-05 0.000000000000D+00  6 1 21 25 23 1 21 4 0.37725274D-01 0.41215109D-01 0.25409064D+05 0.25409064D+05 0.25409064D+05 0.12225427D+01  1  2  4  2  6  2       21 -.103663381375D-01 0.100000000000D+01
-.117661304188D-03 0.000000000000D+00 -.600711667725D-05 0.144197755921D-05 0.000000000000D+00  6 1 21 25 23 1 21 4 0.37725274D-01 0.52816901D-01 0.25409064D+05 0.25409064D+05 0.25409064D+05 0.12225427D+01  1  2  5  2  6  2       21 -.111239576994D+00 0.100000000000D+01
0.109124982837D-03 0.000000000000D+00 0.532786946561D-05 0.144197755921D-05 0.000000000000D+00  6 1 21 25 23 1 21 4 0.37725274D-01 0.41215109D-01 0.25409064D+05 0.25409064D+05 0.25409064D+05 0.12225427D+01  1  2  6  2  6  2       21 0.171736496416D+00 0.100000000000D+01
0.389222672969D-05 0.000000000000D+00 0.000000000000D+00 0.143098337753D-05 0.000000000000D+00  6 1 -1 25 23 1 -1 4 0.37725274D-01 0.52752743D-01 0.28111522D+05 0.28111522D+05 0.28111522D+05 0.12178732D+01  1  2 12  5  6  2       21 0.363376874837D-03 0.100000000000D+01
0.394615822629D-05 0.000000000000D+00 0.000000000000D+00 0.143098337753D-05 0.000000000000D+00  6 1 -1 25 23 1 -1 4 0.37725274D-01 0.57948172D-01 0.28111522D+05 0.28111522D+05 0.28111522D+05 0.12178732D+01  1  2 12  5  6  2       21 0.308957798893D-03 0.100000000000D+01
-.707160066512D-05 0.000000000000D+00 -.447704382094D-06 0.144197755921D-05 0.000000000000D+00  6 1 -1 25 23 1 -1 4 0.37725274D-01 0.52816901D-01 0.25409064D+05 0.25409064D+05 0.25409064D+05 0.12225427D+01  1  2  5  5  6  2       21 -.669092314997D-03 0.100000000000D+01
0.389222672969D-05 0.000000000000D+00 0.000000000000D+00 0.143098337753D-05 0.000000000000D+00  6 1 1 25 23 1 1 4 0.37725274D-01 0.52752743D-01 0.28111522D+05 0.28111522D+05 0.28111522D+05 0.12178732D+01  1  2 12  6  6  2       21 0.855060371295D-03 0.100000000000D+01
0.394615822629D-05 0.000000000000D+00 0.000000000000D+00 0.143098337753D-05 0.000000000000D+00  6 1 1 25 23 1 1 4 0.37725274D-01 0.57948172D-01 0.28111522D+05 0.28111522D+05 0.28111522D+05 0.12178732D+01  1  2 12  6  6  2       21 0.770258556435D-03 0.100000000000D+01
-.707160066512D-05 0.000000000000D+00 -.447704382094D-06 0.144197755921D-05 0.000000000000D+00  6 1 1 25 23 1 1 4 0.37725274D-01 0.52816901D-01 0.25409064D+05 0.25409064D+05 0.25409064D+05 0.12225427D+01  1  2  5  6  6  2       21 -.157532057667D-02 0.100000000000D+01
0.389222672969D-05 0.000000000000D+00 0.000000000000D+00 0.143098337753D-05 0.000000000000D+00  6 1 -2 25 23 1 -2 4 0.37725274D-01 0.52752743D-01 0.28111522D+05 0.28111522D+05 0.28111522D+05 0.12178732D+01  1  2 12  7  6  2       21 0.295276889321D-03 0.100000000000D+01
0.389222672969D-05 0.000000000000D+00 0.000000000000D+00 0.143098337753D-05 0.000000000000D+00  6 1 -4 25 23 1 -4 4 0.37725274D-01 0.52752743D-01 0.28111522D+05 0.28111522D+05 0.28111522D+05 0.12178732D+01  1  2 12  7  6  2       21 0.152807749309D-03 0.100000000000D+01
0.394615822629D-05 0.000000000000D+00 0.000000000000D+00 0.143098337753D-05 0.000000000000D+00  6 1 -2 25 23 1 -2 4 0.37725274D-01 0.57948172D-01 0.28111522D+05 0.28111522D+05 0.28111522D+05 0.12178732D+01  1  2 12  7  6  2       21 0.247461797623D-03 0.100000000000D+01
0.394615822629D-05 0.000000000000D+00 0.000000000000D+00 0.143098337753D-05 0.000000000000D+00  6 1 -4 25 23 1 -4 4 0.37725274D-01 0.57948172D-01 0.28111522D+05 0.28111522D+05 0.28111522D+05 0.12178732D+01  1  2 12  7  6  2       21 0.127427131516D-03 0.100000000000D+01
-.707160066512D-05 0.000000000000D+00 -.447704382094D-06 0.144197755921D-05 0.000000000000D+00  6 1 -2 25 23 1 -2 4 0.37725274D-01 0.52816901D-01 0.25409064D+05 0.25409064D+05 0.25409064D+05 0.12225427D+01  1  2  5  7  6  2       21 -.543421763891D-03 0.100000000000D+01
-.707160066512D-05 0.000000000000D+00 -.447704382094D-06 0.144197755921D-05 0.000000000000D+00  6 1 -4 25 23 1 -4 4 0.37725274D-01 0.52816901D-01 0.25409064D+05 0.25409064D+05 0.25409064D+05 0.12225427D+01  1  2  5  7  6  2       21 -.280333063883D-03 0.100000000000D+01
0.389222672969D-05 0.000000000000D+00 0.000000000000D+00 0.143098337753D-05 0.000000000000D+00  6 1 2 25 23 1 2 4 0.37725274D-01 0.52752743D-01 0.28111522D+05 0.28111522D+05 0.28111522D+05 0.12178732D+01  1  2 12  8  6  2       21 0.123936067080D-02 0.100000000000D+01
0.389222672969D-05 0.000000000000D+00 0.000000000000D+00 0.143098337753D-05 0.000000000000D+00  6 1 4 25 23 1 4 4 0.37725274D-01 0.52752743D-01 0.28111522D+05 0.28111522D+05 0.28111522D+05 0.12178732D+01  1  2 12  8  6  2       21 0.152807749309D-03 0.100000000000D+01
0.394615822629D-05 0.000000000000D+00 0.000000000000D+00 0.143098337753D-05 0.000000000000D+00  6 1 2 25 23 1 2 4 0.37725274D-01 0.57948172D-01 0.28111522D+05 0.28111522D+05 0.28111522D+05 0.12178732D+01  1  2 12  8  6  2       21 0.113625693300D-02 0.100000000000D+01
0.394615822629D-05 0.000000000000D+00 0.000000000000D+00 0.143098337753D-05 0.000000000000D+00  6 1 4 25 23 1 4 4 0.37725274D-01 0.57948172D-01 0.28111522D+05 0.28111522D+05 0.28111522D+05 0.12178732D+01  1  2 12  8  6  2       21 0.127427131516D-03 0.100000000000D+01
-.707160066512D-05 0.000000000000D+00 -.447704382094D-06 0.144197755921D-05 0.000000000000D+00  6 1 2 25 23 1 2 4 0.37725274D-01 0.52816901D-01 0.25409064D+05 0.25409064D+05 0.25409064D+05 0.12225427D+01  1  2  5  8  6  2       21 -.228307111176D-02 0.100000000000D+01
-.707160066512D-05 0.000000000000D+00 -.447704382094D-06 0.144197755921D-05 0.000000000000D+00  6 1 4 25 23 1 4 4 0.37725274D-01 0.52816901D-01 0.25409064D+05 0.25409064D+05 0.25409064D+05 0.12225427D+01  1  2  5  8  6  2       21 -.280333063883D-03 0.100000000000D+01
0.389222672969D-05 0.000000000000D+00 0.000000000000D+00 0.143098337753D-05 0.000000000000D+00  6 1 -3 25 23 1 -3 4 0.37725274D-01 0.52752743D-01 0.28111522D+05 0.28111522D+05 0.28111522D+05 0.12178732D+01  1  2 12  9  6  2       21 0.185730723879D-03 0.100000000000D+01
0.394615822629D-05 0.000000000000D+00 0.000000000000D+00 0.143098337753D-05 0.000000000000D+00  6 1 -3 25 23 1 -3 4 0.37725274D-01 0.57948172D-01 0.28111522D+05 0.28111522D+05 0.28111522D+05 0.12178732D+01  1  2 12  9  6  2       21 0.155481297716D-03 0.100000000000D+01
-.707160066512D-05 0.000000000000D+00 -.447704382094D-06 0.144197755921D-05 0.000000000000D+00  6 1 -3 25 23 1 -3 4 0.37725274D-01 0.52816901D-01 0.25409064D+05 0.25409064D+05 0.25409064D+05 0.12225427D+01  1  2  5  9  6  2       21 -.341112253625D-03 0.100000000000D+01
0.389222672969D-05 0.000000000000D+00 0.000000000000D+00 0.143098337753D-05 0.000000000000D+00  6 1 3 25 23 1 3 4 0.37725274D-01 0.52752743D-01 0.28111522D+05 0.28111522D+05 0.28111522D+05 0.12178732D+01  1  2 12 10  6  2       21 0.185821300315D-03 0.100000000000D+01
0.394615822629D-05 0.000000000000D+00 0.000000000000D+00 0.143098337753D-05 0.000000000000D+00  6 1 3 25 23 1 3 4 0.37725274D-01 0.57948172D-01 0.28111522D+05 0.28111522D+05 0.28111522D+05 0.12178732D+01  1  2 12 10  6  2       21 0.155578009519D-03 0.100000000000D+01
-.707160066512D-05 0.000000000000D+00 -.447704382094D-06 0.144197755921D-05 0.000000000000D+00  6 1 3 25 23 1 3 4 0.37725274D-01 0.52816901D-01 0.25409064D+05 0.25409064D+05 0.25409064D+05 0.12225427D+01  1  2  5 10  6  2       21 -.341278511040D-03 0.100000000000D+01
  </mgrwgt>
  </event>
  <event>
  6     66 0.36102257E-03 0.22963412E+03 0.75467711E-02 0.10505797E+00
        1 -1    0    0  502    0 0.00000000E+00 0.00000000E+00 0.20235226E+04 0.20235226E+04 0.32000000E+00 0.0000E+00 0.9000E+01
       21 -1    0    0  501  502 0.00000000E+00 0.00000000E+00 -.15988166E+03 0.15988342E+03 0.75000000E+00 0.0000E+00 0.9000E+01
       25  1    1    2    0    0 -.79393800E+01 -.19486271E+03 0.10537321E+04 0.10788933E+04 0.12500000E+03 0.0000E+00 0.9000E+01
       23  1    1    2    0    0 0.26465468E+02 -.35982327E+02 0.30137280E+03 0.31801881E+03 0.91188000E+02 0.0000E+00 0.9000E+01
        1  1    1    2  503    0 0.10617013E+03 0.27630598E+03 0.39001507E+02 0.29856040E+03 0.32000000E+00 0.0000E+00 0.9000E+01
       21  1    1    2  501  503 -.12469622E+03 -.45460949E+02 0.46953452E+03 0.48793347E+03 0.75000000E+00 0.0000E+00 0.9000E+01
#aMCatNLO 2  0  0  5  2 0.13194843D+03 0.00000000D+00  -5  6  0 0.00000000D+00 0.00000000D+00 0.00000000D+00 0.00000000D+00 0.00000000D+00
  <mgrwgt>
 0.1308102344D-02    1    2    0
 0.568793539412366D+03 0.000000000000000D+00 0.000000000000000D+00 0.568793539412366D+03
 0.568793539412366D+03 -.000000000000000D+00 -.000000000000000D+00 -.568793539412366D+03
 0.453818198651988D+03 -.243769937971008D+01 -.263416612568695D+03 0.347752359118244D+03
 0.141971794801935D+03 0.282478962900726D+02 -.581923485606393D+02 0.875011205611968D+02
 0.541797085370808D+03 -.258101969103625D+02 0.321608961129334D+03 -.435253479679441D+03
 0.000000000000000D+00 0.000000000000000D+00 0.000000000000000D+00 0.000000000000000D+00
 0.568793539412366D+03 0.000000000000000D+00 0.000000000000000D+00 0.568793539412366D+03
 0.568793539412366D+03 -.000000000000000D+00 -.000000000000000D+00 -.568793539412366D+03
 0.344480600953757D+03 -.793970782948366D+01 -.194858622569553D+03 0.254968552341932D+03
 0.116660909044306D+03 0.264653565660337D+02 -.359809430912857D+02 0.574410392588623D+02
 0.509140252610643D+03 0.106181661209183D+03 0.276301564447489D+03 -.414254386983600D+03
 0.167305316216025D+03 -.124707309945733D+03 -.454619987866499D+02 0.101844795382806D+03
0.141848769145D-04 0.000000000000D+00 0.000000000000D+00 0.377176231639D-06 0.172813810742D-09  6 1 21 25 23 1 21 4 0.31131130D+00 0.24597316D-01 0.14513005D+06 0.14513005D+06 0.14513005D+06 0.11489984D+01  1  2  1  3  6  5        1 0.130810234373D-02 0.100000000000D+01
  </mgrwgt>
  </event>
  <event>
  5     66 0.36102257E-03 0.21042769E+02 0.75467711E-02 0.10262625E+00
        1 -1    0    0  502    0 0.00000000E+00 0.00000000E+00 0.60254008E+03 0.60254016E+03 0.32000000E+00 0.0000E+00 0.9000E+01
       21 -1    0    0  501  502 0.00000000E+00 0.00000000E+00 -.68116800E+02 0.68120929E+02 0.75000000E+00 0.0000E+00 0.9000E+01
       25  1    1    2    0    0 -.74541315E+01 -.38236444E+02 0.41163821E+03 0.43195904E+03 0.12500000E+03 0.0000E+00 0.9000E+01
       23  1    1    2    0    0 -.88857136E+01 0.51495616E+02 0.16263334E+03 0.19363783E+03 0.91188000E+02 0.0000E+00 0.9000E+01
        1  1    1    2  501    0 0.16339845E+02 -.13259173E+02 -.39848281E+02 0.45064222E+02 0.32000000E+00 0.0000E+00 0.9000E+01
#aMCatNLO 1  0  0  1  2 0.23320605D+02 0.00000000D+00  -5  6  0 0.00000000D+00 0.00000000D+00 0.00000000D+00 0.00000000D+00 0.00000000D+00
  <mgrwgt>
 0.2067113756D+00    3    2    0
 0.202594459292689D+03 0.000000000000000D+00 0.000000000000000D+00 0.202594459292689D+03
 0.202594459292689D+03 0.000000000000000D+00 0.000000000000000D+00 -.202594459292689D+03
 0.172041028236106D+03 -.745415346717790D+01 -.382364256821633D+02 0.111604331204827D+03
 0.106000736298776D+03 -.888572709141852D+01 0.514956274126768D+02 0.137894511607310D+02
 0.127147154050496D+03 0.163398805585964D+02 -.132592017305135D+02 -.125393782365558D+03
 0.000000000000000D+00 -.000000000000000D+00 -.000000000000000D+00 -.000000000000000D+00
 0.416931334651435D+03 0.000000000000000D+00 0.000000000000000D+00 0.416931334651435D+03
 0.628590307142529D+03 0.000000000000000D+00 0.000000000000000D+00 -.628590307142529D+03
 0.207963629200607D+03 0.664960773131232D+02 0.103665886522896D+03 0.111604331204827D+03
 0.194238506328067D+03 0.495418759577770D+02 0.163611734175237D+03 0.137894511607310D+02
 0.177649105277534D+03 0.756542949405679D+02 0.100558597877123D+03 -.125393782365558D+03
 0.465670400987755D+03 -.191692248211468D+03 -.367836218575257D+03 -.211658972491094D+03
0.286000610968D-04 0.000000000000D+00 0.000000000000D+00 0.610120435038D-05 0.000000000000D+00  6 1 21 25 23 1 21 2 0.92698798D-01 0.10479832D-01 0.16521563D+05 0.16521563D+05 0.16521563D+05 0.12430673D+01  1  2  2  1  6  1        1 0.128745864550D+00 0.100000000000D+01
0.732550119584D-05 0.150926668884D-05 -.577352833116D-07 0.610120435038D-05 0.000000000000D+00  6 1 21 25 23 1 21 4 0.92698798D-01 0.10479832D-01 0.16521563D+05 0.16521563D+05 0.16521563D+05 0.12430673D+01  1  2  3  1  6  1        1 0.509557176234D-01 0.100000000000D+01
0.388298473560D-05 0.000000000000D+00 0.000000000000D+00 0.610120435038D-05 0.000000000000D+00  6 1 21 25 23 1 21 4 0.92698798D-01 0.10479832D-01 0.16521563D+05 0.16521563D+05 0.16521563D+05 0.12430673D+01  1  2 15  1  6  1        1 0.270097933825D-01 0.100000000000D+01
  </mgrwgt>
  </event>
  <event>
  5     66 0.36102257E-03 0.13431344E+03 0.75467711E-02 0.10420411E+00
        1 -1    0    0  502    0 0.00000000E+00 0.00000000E+00 0.14174303E+04 0.14174303E+04 0.32000000E+00 0.0000E+00 0.9000E+01
       21 -1    0    0  501  502 0.00000000E+00 0.00000000E+00 -.46008049E+02 0.46014162E+02 0.75000000E+00 0.0000E+00 0.9000E+01
       25  1    1    2    0    0 -.32737099E+02 -.51616434E+02 0.59754023E+03 0.61352693E+03 0.12500000E+03 0.0000E+00 0.9000E+01
       23  1    1    2    0    0 0.16105678E+03 0.11941607E+02 0.26395271E+03 0.32259599E+03 0.91188000E+02 0.0000E+00 0.9000E+01
        1  1    1    2  501    0 -.12831968E+03 0.39674828E+02 0.50992928E+03 0.52732154E+03 0.32000000E+00 0.0000E+00 0.9000E+01
#aMCatNLO 1  0  0  1  5 0.27437598D+03 0.00000000D+00  -5  6  0 0.00000000D+00 0.00000000D+00 0.00000000D+00 0.00000000D+00 0.00000000D+00
  <mgrwgt>
 0.2220846905D-01    3    2    0
 0.255377564901692D+03 0.000000000000000D+00 0.000000000000000D+00 0.255377564901692D+03
 0.255377564901692D+03 0.000000000000000D+00 0.000000000000000D+00 -.255377564901692D+03
 0.153464219044653D+03 -.327370008262525D+02 -.516164645823489D+02 0.647324948376484D+02
 0.215584270284804D+03 0.161056922172233D+03 0.119415638505862D+02 -.109906292465177D+03
 0.141706640473927D+03 -.128319921345981D+03 0.396749007317628D+02 0.451737976275290D+02
 0.000000000000000D+00 -.000000000000000D+00 -.000000000000000D+00 -.000000000000000D+00
 0.410939069319318D+03 0.000000000000000D+00 0.000000000000000D+00 0.410939069319318D+03
 0.445376650421451D+03 0.000000000000000D+00 0.000000000000000D+00 -.445376650421451D+03
 0.144871640395208D+03 0.316574466826875D+02 -.130499951120736D+02 0.647324948376484D+02
 0.322243270261304D+03 0.277144567129108D+03 0.814675989094926D+02 -.109906292465177D+03
 0.112672102831956D+03 -.734134187755015D+02 0.725589464378773D+02 0.451737976275290D+02
 0.276528706252301D+03 -.235388595036294D+03 -.140976550235296D+03 -.344375811021335D+02
0.111521518397D-04 0.000000000000D+00 0.000000000000D+00 0.339044218540D-07 0.000000000000D+00  6 1 21 25 23 1 21 2 0.21806667D+00 0.70786344D-02 0.52652333D+05 0.52652333D+05 0.52652333D+05 0.11900650D+01  1  2  2  1  6  1        1 0.213654188535D-01 0.100000000000D+01
-.114868483967D-05 0.588515221126D-06 -.225129814871D-07 0.339044218540D-07 0.000000000000D+00  6 1 21 25 23 1 21 4 0.21806667D+00 0.70786344D-02 0.52652333D+05 0.52652333D+05 0.52652333D+05 0.11900650D+01  1  2  3  1  6  1        1 -.311670002850D-02 0.100000000000D+01
0.145939776227D-05 0.000000000000D+00 0.000000000000D+00 0.339044218540D-07 0.000000000000D+00  6 1 21 25 23 1 21 4 0.21806667D+00 0.70786344D-02 0.52652333D+05 0.52652333D+05 0.52652333D+05 0.11900650D+01  1  2 15  1  6  1        1 0.395975022058D-02 0.100000000000D+01
  </mgrwgt>
  </event>
  <event>
  6     66 0.36102257E-03 0.57638478E+02 0.75467711E-02 0.11660304E+00
        1 -1    0    0  502    0 0.00000000E+00 0.00000000E+00 0.40501078E+04 0.40501078E+04 0.32000000E+00 0.0000E+00 0.9000E+01
       21 -1    0    0  501  502 0.00000000E+00 0.00000000E+00 -.34077697E+02 0.34085949E+02 0.75000000E+00 0.0000E+00 0.9000E+01
       25  1    1    2    0    0 0.36515911E+02 -.63395778E+02 0.26102389E+04 0.26142541E+04 0.12500000E+03 0.0000E+00 0.9000E+01
       23  1    1    2    0    0 0.34774452E+02 0.26977274E+02 0.13162957E+04 0.13201844E+04 0.91188000E+02 0.0000E+00 0.9000E+01
        1  1    1    2  503    0 -.28381141E+02 -.28209891E+02 0.16672990E+02 0.43351794E+02 0.32000000E+00 0.0000E+00 0.9000E+01
       21  1    1    2  501  503 -.42909222E+02 0.64628394E+02 0.72822519E+02 0.10640354E+03 0.75000000E+00 0.0000E+00 0.9000E+01
#aMCatNLO 2  0  0  5  2 0.44325516D+02 0.00000000D+00  -5  6  0 0.00000000D+00 0.00000000D+00 0.00000000D+00 0.00000000D+00 0.00000000D+00
  <mgrwgt>
 0.1251995851D-01    1    2    0
 0.371530919312266D+03 0.000000000000000D+00 0.000000000000000D+00 0.371530919312266D+03
 0.371530919312266D+03 -.000000000000000D+00 -.000000000000000D+00 -.371530919312266D+03
 0.265235412989265D+03 0.374503325053970D+02 -.638731247120623D+02 0.221906558799732D+03
 0.143791191151549D+03 0.352816430494548D+02 0.267181770638896D+02 0.101990195542978D+03
 0.334035234483717D+03 -.727319755548517D+02 0.371549476481727D+02 -.323896754342710D+03
 0.000000000000000D+00 0.000000000000000D+00 0.000000000000000D+00 0.000000000000000D+00
 0.371530919312266D+03 0.000000000000000D+00 0.000000000000000D+00 0.371530919312266D+03
 0.371530919312266D+03 -.000000000000000D+00 -.000000000000000D+00 -.371530919312266D+03
 0.261518849113273D+03 0.365167070237883D+02 -.633961844718510D+02 0.217748851533323D+03
 0.142123421032087D+03 0.347748846106461D+02 0.269770533438279D+02 0.997334520362364D+02
 0.147841418456780D+03 -.283100564951176D+02 -.282199307740107D+02 -.142335031596814D+03
 0.191578150022392D+03 -.429815351393167D+02 0.646390619020338D+02 -.175147271972745D+03
0.173394177197D-03 0.000000000000D+00 0.000000000000D+00 0.341277340377D-05 0.876020570771D-08  6 1 21 25 23 1 21 4 0.62309415D+00 0.52433583D-02 0.33067168D+05 0.33067168D+05 0.33067168D+05 0.12104863D+01  1  2  1  3  6  5        1 0.125199585075D-01 0.100000000000D+01
  </mgrwgt>
  </event>
  <event>
  6     66 -.36102257E-03 0.52696250E+02 0.75467711E-02 0.11866055E+00
        1 -1    0    0  503    0 0.00000000E+00 0.00000000E+00 0.21577884E+03 0.21577908E+03 0.32000000E+00 0.0000E+00 0.9000E+01
       21 -1    0    0  501  502 0.00000000E+00 0.00000000E+00 -.12849876E+03 0.12850095E+03 0.75000000E+00 0.0000E+00 0.9000E+01
       25  1    1    2    0    0 0.32647814E+02 -.96778601E+01 0.60895664E+02 0.14315314E+03 0.12500000E+03 0.0000E+00 0.9000E+01
       23  1    1    2    0    0 -.85433210E+02 0.25345965E+02 0.16559435E+02 0.12857184E+03 0.91188000E+02 0.0000E+00 0.9000E+01
        1  1    1    2  501    0 0.51659136E+02 -.24920050E+02 -.21076870E+01 0.57395295E+02 0.32000000E+00 0.0000E+00 0.9000E+01
       21  1    1    2  503  502 0.11262601E+01 0.92519445E+01 0.11932669E+02 0.15159750E+02 0.75000000E+00 0.0000E+00 0.9000E+01
#aMCatNLO 2  0  0  1  2 0.93202435D+01 0.00000000D+00  -5  6  0 0.00000000D+00 0.00000000D+00 0.00000000D+00 0.00000000D+00 0.00000000D+00
  <mgrwgt>
 -.3744723886D-01    3    2    0
 0.160121873825836D+03 0.000000000000000D+00 0.000000000000000D+00 0.160121873825836D+03
 0.160121873825836D+03 0.000000000000000D+00 0.000000000000000D+00 -.160121873825836D+03
 0.132628606977160D+03 0.331140295248295D+02 -.584527657509979D+01 0.288901571316492D+02
 0.128671489092356D+03 -.849819458815599D+02 0.290556499299134D+02 -.132264448200671D+02
 0.589436515821562D+02 0.518679163567304D+02 -.232103733548136D+02 -.156637123115820D+02
 0.000000000000000D+00 0.000000000000000D+00 0.000000000000000D+00 0.000000000000000D+00
 0.170908124878697D+03 0.000000000000000D+00 0.000000000000000D+00 0.170908124878697D+03
 0.162215779931463D+03 0.000000000000000D+00 0.000000000000000D+00 -.162215779931463D+03
 0.132737178287108D+03 0.326474979759993D+02 -.967771648889001D+01 0.288901571316492D+02
 0.128185415755970D+03 -.854335182254749D+02 0.253460961406296D+02 -.132264448200671D+02
 0.594567511842129D+02 0.516597601951148D+02 -.249203241267972D+02 -.156637123115820D+02
 0.127445595828689D+02 0.112626005436080D+01 0.925194447505762D+01 0.869234494723361D+01
-.171125480397D-04 0.000000000000D+00 0.000000000000D+00 0.229420022835D-06 0.000000000000D+00  6 1 21 25 23 1 21 4 0.33389348D-01 0.19512728D-01 0.26200750D+05 0.26200750D+05 0.26200750D+05 0.12211193D+01  1  2 13  1  6  1        1 -.132116387812D+00 0.100000000000D+01
-.143823615411D-05 0.000000000000D+00 0.000000000000D+00 0.230458499481D-06 0.000000000000D+00  6 1 21 25 23 1 21 4 0.31099731D-01 0.19512728D-01 0.24689529D+05 0.24689529D+05 0.24689529D+05 0.12238799D+01  1  2  8  1  6  1        1 -.122408361530D-01 0.100000000000D+01
0.140827712513D-04 0.000000000000D+00 0.000000000000D+00 0.230458499481D-06 0.231902917001D-07  6 1 21 25 23 1 21 4 0.33194695D-01 0.19767895D-01 0.26200750D+05 0.26200750D+05 0.26200750D+05 0.12211193D+01  1  2  1  1  6  1        1 0.106909985105D+00 0.100000000000D+01
  </mgrwgt>
  </event>
  <event>
  5     66 0.36102257E-03 0.35312735E+02 0.75467711E-02 0.10550231E+00
        1 -1    0    0  502    0 0.00000000E+00 0.00000000E+00 0.58095170E+03 0.58095178E+03 0.32000000E+00 0.0000E+00 0.9000E+01
       21 -1    0    0  501  502 0.00000000E+00 0.00000000E+00 -.41708641E+02 0.41715384E+02 0.75000000E+00 0.0000E+00 0.9000E+01
       25  1    1    2    0    0 -.18829638E+02 0.66539407E+02 0.34156124E+03 0.37023119E+03 0.12500000E+03 0.0000E+00 0.9000E+01
       23  1    1    2    0    0 -.14132379E+02 -.79204835E+02 0.15628219E+03 0.19802147E+03 0.91188000E+02 0.0000E+00 0.9000E+01
        1  1    1    2  501    0 0.32962017E+02 0.12665427E+02 0.41399622E+02 0.54414509E+02 0.32000000E+00 0.0000E+00 0.9000E+01
#aMCatNLO 1  0  0  2  1 0.30878959D+03 0.00000000D+00  -5  6  0 0.00000000D+00 0.00000000D+00 0.00000000D+00 0.00000000D+00 0.00000000D+00
  <mgrwgt>
 0.5610006209D-01    3    2    0
 0.155668983589963D+03 0.000000000000000D+00 0.000000000000000D+00 0.155668983589963D+03
 0.155668983589963D+03 0.000000000000000D+00 0.000000000000000D+00 -.155668983589963D+03
 0.148861655494079D+03 -.188302240575127D+02 0.665391821912395D+02 0.418658855358737D+02
 0.125353894110111D+03 -.141328718535721D+02 -.792050240352104D+02 -.304166652564193D+02
 0.371224175757362D+02 0.329630959110848D+02 0.126658418439709D+02 -.114492202794544D+02
 0.000000000000000D+00 0.000000000000000D+00 -.000000000000000D+00 0.000000000000000D+00
 0.827493320815431D+03 0.000000000000000D+00 0.000000000000000D+00 0.827493320815431D+03
 0.258441200409107D+03 0.000000000000000D+00 0.000000000000000D+00 -.258441200409107D+03
 0.251402025725255D+03 -.171996799019904D+03 0.127445389457468D+03 0.418658855358737D+02
 0.160551226171485D+03 -.123538521410235D+03 -.357002112545456D+02 -.304166652564193D+02
 0.265468509372885D+02 0.859914722907350D+01 0.223540894829528D+02 -.114492202794544D+02
 0.647434418390510D+03 0.286936173201066D+03 -.114099267685875D+03 0.569052120406324D+03
0.440219916281D-05 0.000000000000D+00 0.000000000000D+00 0.336741370466D-06 0.000000000000D+00  6 1 21 25 23 1 21 2 0.89377710D-01 0.64172395D-02 0.22466055D+05 0.22466055D+05 0.22466055D+05 0.12283052D+01  1  2  2  2  6  2       21 0.475366556464D-01 0.100000000000D+01
0.673673773385D-07 0.232310432190D-06 -.888677177991D-08 0.336741370466D-06 0.000000000000D+00  6 1 21 25 23 1 21 4 0.89377710D-01 0.64172395D-02 0.22466055D+05 0.22466055D+05 0.22466055D+05 0.12283052D+01  1  2  3  2  6  2       21 0.109754206231D-02 0.100000000000D+01
0.458256425831D-06 0.000000000000D+00 0.000000000000D+00 0.336741370466D-06 0.000000000000D+00  6 1 21 25 23 1 21 4 0.89377710D-01 0.64172395D-02 0.22466055D+05 0.22466055D+05 0.22466055D+05 0.12283052D+01  1  2 15  2  6  2       21 0.746586437741D-02 0.100000000000D+01
  </mgrwgt>
  </event>
  <event>
  5     66 0.36102257E-03 0.23201532E+02 0.75467711E-02 0.11451160E+00
        1 -1    0    0  502    0 0.00000000E+00 0.00000000E+00 0.19304950E+04 0.19304950E+04 0.32000000E+00 0.0000E+00 0.9000E+01
       21 -1    0    0  501  502 0.00000000E+00 0.00000000E+00 -.40013436E+02 0.40020464E+02 0.75000000E+00 0.0000E+00 0.9000E+01
       25  1    1    2    0    0 0.12249026E+02 -.15699112E+03 0.78548321E+03 0.81080523E+03 0.12500000E+03 0.0000E+00 0.9000E+01
       23  1    1    2    0    0 0.10680385E+02 0.16053386E+03 0.11179458E+04 0.11331387E+04 0.91188000E+02 0.0000E+00 0.9000E+01
        1  1    1    2  501    0 -.22929411E+02 -.35427407E+01 -.12947464E+02 0.26571566E+02 0.32000000E+00 0.0000E+00 0.9000E+01
#aMCatNLO 1  0  0  5  2 0.46879142D+01 0.00000000D+00  -5  6  0 0.00000000D+00 0.00000000D+00 0.00000000D+00 0.00000000D+00 0.00000000D+00
  <mgrwgt>
 0.1845889173D+00    8    2    0
 0.277943676245169D+03 0.000000000000000D+00 0.000000000000000D+00 0.277943676245169D+03
 0.277943676245169D+03 -.000000000000000D+00 -.000000000000000D+00 -.277943676245169D+03
 0.202851798855719D+03 0.122490482689906D+02 -.156991116509766D+03 0.269741070755319D+02
 0.214812273512709D+03 0.106804088202364D+02 0.160533864352124D+03 0.109288008360045D+03
 0.138223280121909D+03 -.229294570892270D+02 -.354274784235864D+01 -.136262115435577D+03
 0.000000000000000D+00 0.000000000000000D+00 -.000000000000000D+00 0.000000000000000D+00
 0.277943676245169D+03 0.000000000000000D+00 0.000000000000000D+00 0.277943676245169D+03
 0.277943676245169D+03 -.000000000000000D+00 -.000000000000000D+00 -.277943676245169D+03
 0.202833619839485D+03 0.122241055280288D+02 -.156994970322849D+03 0.268258806855658D+02
 0.214728107488426D+03 0.106539994055465D+02 0.160529783928565D+03 0.109131066017317D+03
 0.362772738463774D+02 -.371444543043999D+01 0.316025681395551D+01 -.359479661419000D+02
 0.102048351316048D+03 -.191636595031353D+02 -.669507041967141D+01 -.100008980560983D+03
0.772932835538D-05 0.000000000000D+00 0.000000000000D+00 0.186204446011D-05 0.000000000000D+00  6 1 21 25 23 1 21 2 0.29699977D+00 0.61564558D-02 0.41858197D+05 0.41858197D+05 0.41858197D+05 0.12000028D+01  1  2  2  3  6  5        1 0.894624495507D-02 0.100000000000D+01
0.237495861798D-05 0.407887863400D-06 -.156032870313D-07 0.186204446011D-05 0.000000000000D+00  6 1 21 25 23 1 21 4 0.29699977D+00 0.61564558D-02 0.41858197D+05 0.41858197D+05 0.41858197D+05 0.12000028D+01  1  2  3  3  6  5        1 0.395839914670D-02 0.100000000000D+01
0.383694569416D-06 0.000000000000D+00 0.000000000000D+00 0.186204446011D-05 0.000000000000D+00  6 1 21 25 23 1 21 4 0.29699977D+00 0.61564558D-02 0.41858197D+05 0.41858197D+05 0.41858197D+05 0.12000028D+01  1  2 15  3  6  5        1 0.639512724420D-03 0.100000000000D+01
0.180829753132D-04 0.000000000000D+00 0.000000000000D+00 0.186073654580D-05 0.000000000000D+00  6 1 21 25 23 1 21 4 0.29699977D+00 0.61564558D-02 0.42262485D+05 0.42262485D+05 0.42262485D+05 0.11995813D+01  1  2 12  3  6  5        1 0.300852551360D-01 0.100000000000D+01
-.710660040854D-04 0.000000000000D+00 0.000000000000D+00 0.186204446011D-05 0.000000000000D+00  6 1 21 25 23 1 21 4 0.29699977D+00 0.61564558D-02 0.41858197D+05 0.41858197D+05 0.41858197D+05 0.12000028D+01  1  2  4  3  6  5        1 -.118447373273D+00 0.100000000000D+01
-.690796961228D-04 0.000000000000D+00 0.000000000000D+00 0.186204446011D-05 0.000000000000D+00  6 1 21 25 23 1 21 4 0.29699977D+00 0.61564558D-02 0.41858197D+05 0.41858197D+05 0.41858197D+05 0.12000028D+01  1  2  5  3  6  5        1 -.115136747275D+00 0.100000000000D+01
0.129818499014D-03 0.000000000000D+00 -.000000000000D+00 0.186204446011D-05 0.000000000000D+00  6 1 21 25 23 1 21 4 0.29699977D+00 0.61564558D-02 0.41858197D+05 0.41858197D+05 0.41858197D+05 0.12000028D+01  1  2  6  3  6  5        1 0.216371532468D+00 0.100000000000D+01
0.950705602287D-04 0.000000000000D+00 0.000000000000D+00 0.186204446011D-05 0.262957419919D-06  6 1 21 25 23 1 21 4 0.29699977D+00 0.61564558D-02 0.42262485D+05 0.42262485D+05 0.42262485D+05 0.11995813D+01  1  2 11  3  6  5        1 0.158172093412D+00 0.100000000000D+01
  </mgrwgt>
  </event>
  <event>
  5     66 0.36102257E-03 0.40987969E+02 0.75467711E-02 0.10769700E+00
        1 -1    0    0  502    0 0.00000000E+00 0.00000000E+00 0.84975918E+03 0.84975924E+03 0.32000000E+00 0.0000E+00 0.9000E+01
       21 -1    0    0  501  502 0.00000000E+00 0.00000000E+00 -.24727382E+02 0.24738753E+02 0.75000000E+00 0.0000E+00 0.9000E+01
       25  1    1    2    0    0 0.31694516E+02 -.10351968E+02 0.31339668E+03 0.33904894E+03 0.12500000E+03 0.0000E+00 0.9000E+01
       23  1    1    2    0    0 -.72648173E+02 0.87010870E+01 0.37654705E+03 0.39427959E+03 0.91188000E+02 0.0000E+00 0.9000E+01
        1  1    1    2  501    0 0.40953658E+02 0.16508813E+01 0.13508808E+03 0.14116947E+03 0.32000000E+00 0.0000E+00 0.9000E+01
#aMCatNLO 1  0  0  2  2 0.25220203D+03 0.00000000D+00  -5  6  0 0.00000000D+00 0.00000000D+00 0.00000000D+00 0.00000000D+00 0.00000000D+00
  <mgrwgt>
 0.3573771154D-01   12    2    0
 0.144973509250432D+03 0.000000000000000D+00 0.000000000000000D+00 0.144973509250432D+03
 0.144973509250432D+03 0.000000000000000D+00 0.000000000000000D+00 -.144973509250432D+03
 0.130835481410204D+03 0.316939633965453D+02 -.103519905941760D+02 -.195256797780899D+02
 0.117723267209058D+03 -.726486703507855D+02 0.870106697519869D+01 0.137832662359596D+02
 0.413882698816008D+02 0.409547069542402D+02 0.165092361897735D+01 0.574241354213029D+01
 0.000000000000000D+00 0.000000000000000D+00 0.000000000000000D+00 -.000000000000000D+00
 0.240109396912459D+03 0.000000000000000D+00 0.000000000000000D+00 0.240109396912459D+03
 0.523652583524599D+03 0.000000000000000D+00 0.000000000000000D+00 -.523652583524599D+03
 0.163650756525764D+03 -.357315611577788D+02 -.974606252693178D+02 -.195256797780899D+02
 0.188720433582352D+03 -.142811973794262D+03 -.819445691938556D+02 0.137832662359596D+02
 0.319140405396575D+02 0.241714210328387D+02 -.200318016047311D+02 0.574241354213029D+01
 0.379476749789284D+03 0.154372113919202D+03 0.199436996067904D+03 -.283543186612139D+03
0.203121706046D-05 0.000000000000D+00 0.000000000000D+00 0.272720201266D-06 0.000000000000D+00  6 1 21 25 23 1 21 2 0.13073306D+00 0.38050920D-02 0.20631279D+05 0.20631279D+05 0.20631279D+05 0.12323430D+01  1  2  2  2  6  2       21 0.307557977273D-01 0.100000000000D+01
-.622394770904D-07 0.107190269167D-06 -.410044202548D-08 0.272720201266D-06 0.000000000000D+00  6 1 21 25 23 1 21 4 0.13073306D+00 0.38050920D-02 0.20631279D+05 0.20631279D+05 0.20631279D+05 0.12323430D+01  1  2  3  2  6  2       21 -.143119825856D-02 0.100000000000D+01
0.199293122925D-06 0.000000000000D+00 0.000000000000D+00 0.272720201266D-06 0.000000000000D+00  6 1 21 25 23 1 21 4 0.13073306D+00 0.38050920D-02 0.20631279D+05 0.20631279D+05 0.20631279D+05 0.12323430D+01  1  2 15  2  6  2       21 0.458275010983D-02 0.100000000000D+01
0.140517825059D-05 0.000000000000D+00 -.206166763500D-04 0.272720201266D-06 0.000000000000D+00  6 1 21 25 23 1 21 4 0.13073306D+00 0.22955886D-01 0.20631279D+05 0.20631279D+05 0.20631279D+05 0.12323430D+01  1  2  5  2  6  2       21 0.138150608391D-02 0.100000000000D+01
0.739078910152D-06 0.000000000000D+00 -.872939278164D-05 0.272720201266D-06 0.000000000000D+00  6 1 -1 25 23 1 -1 4 0.13073306D+00 0.22955886D-01 0.20631279D+05 0.20631279D+05 0.20631279D+05 0.12323430D+01  1  2  5  5  6  2       21 0.588218750061D-04 0.100000000000D+01
0.739078910152D-06 0.000000000000D+00 -.872939278164D-05 0.272720201266D-06 0.000000000000D+00  6 1 1 25 23 1 1 4 0.13073306D+00 0.22955886D-01 0.20631279D+05 0.20631279D+05 0.20631279D+05 0.12323430D+01  1  2  5  6  6  2       21 0.928543295167D-04 0.100000000000D+01
0.739078910152D-06 0.000000000000D+00 -.872939278164D-05 0.272720201266D-06 0.000000000000D+00  6 1 -2 25 23 1 -2 4 0.13073306D+00 0.22955886D-01 0.20631279D+05 0.20631279D+05 0.20631279D+05 0.12323430D+01  1  2  5  7  6  2       21 0.531210775647D-04 0.100000000000D+01
0.739078910152D-06 0.000000000000D+00 -.872939278164D-05 0.272720201266D-06 0.000000000000D+00  6 1 -4 25 23 1 -4 4 0.13073306D+00 0.22955886D-01 0.20631279D+05 0.20631279D+05 0.20631279D+05 0.12323430D+01  1  2  5  7  6  2       21 0.291529640484D-04 0.100000000000D+01
0.739078910152D-06 0.000000000000D+00 -.872939278164D-05 0.272720201266D-06 0.000000000000D+00  6 1 2 25 23 1 2 4 0.13073306D+00 0.22955886D-01 0.20631279D+05 0.20631279D+05 0.20631279D+05 0.12323430D+01  1  2  5  8  6  2       21 0.117013409956D-03 0.100000000000D+01
0.739078910152D-06 0.000000000000D+00 -.872939278164D-05 0.272720201266D-06 0.000000000000D+00  6 1 4 25 23 1 4 4 0.13073306D+00 0.22955886D-01 0.20631279D+05 0.20631279D+05 0.20631279D+05 0.12323430D+01  1  2  5  8  6  2       21 0.291529640484D-04 0.100000000000D+01
0.739078910152D-06 0.000000000000D+00 -.872939278164D-05 0.272720201266D-06 0.000000000000D+00  6 1 -3 25 23 1 -3 4 0.13073306D+00 0.22955886D-01 0.20631279D+05 0.20631279D+05 0.20631279D+05 0.12323430D+01  1  2  5  9  6  2       21 0.343707712305D-04 0.100000000000D+01
0.739078910152D-06 0.000000000000D+00 -.872939278164D-05 0.272720201266D-06 0.000000000000D+00  6 1 3 25 23 1 3 4 0.13073306D+00 0.22955886D-01 0.20631279D+05 0.20631279D+05 0.20631279D+05 0.12323430D+01  1  2  5 10  6  2       21 0.343684876696D-04 0.100000000000D+01
  </mgrwgt>
  </event>
  <event>
  5     66 -.36102257E-03 0.50166199E+02 0.75467711E-02 0.11517388E+00
        1 -1    0    0  502    0 0.00000000E+00 0.00000000E+00 0.12301620E+04 0.12301621E+04 0.32000000E+00 0.0000E+00 0.9000E+01
       21 -1    0    0  501  502 0.00000000E+00 0.00000000E+00 -.20688409E+02 0.20701999E+02 0.75000000E+00 0.0000E+00 0.9000E+01
       25  1    1    2    0    0 -.71576529E+02 0.51004161E+02 0.68618789E+03 0.70299605E+03 0.12500000E+03 0.0000E+00 0.9000E+01
       23  1    1    2    0    0 0.27869813E+02 -.26380583E+02 0.43699562E+03 0.44805478E+03 0.91188000E+02 0.0000E+00 0.9000E+01
        1  1    1    2  501    0 0.43706716E+02 -.24623578E+02 0.86290104E+02 0.99813236E+02 0.32000000E+00 0.0000E+00 0.9000E+01
#aMCatNLO 1  0  0  2  2 0.25220203D+03 0.00000000D+00  -5  6  0 0.00000000D+00 0.00000000D+00 0.00000000D+00 0.00000000D+00 0.00000000D+00
  <mgrwgt>
 -.4173253547D-01   12    2    0
 0.159557577341359D+03 0.000000000000000D+00 0.000000000000000D+00 0.159557577341359D+03
 0.159557577341359D+03 0.000000000000000D+00 0.000000000000000D+00 -.159557577341359D+03
 0.154885824076384D+03 -.715767924335863D+02 0.510043098134465D+02 0.252970683122349D+02
 0.100029513479001D+03 0.278696430768325D+02 -.263804874004887D+02 0.147649958390857D+02
 0.641998171273329D+02 0.437071493567538D+02 -.246238224129578D+02 -.400620641513206D+02
 0.000000000000000D+00 -.000000000000000D+00 0.000000000000000D+00 -.000000000000000D+00
 0.176814547949623D+03 0.000000000000000D+00 0.000000000000000D+00 0.176814547949623D+03
 0.299453142644316D+03 0.000000000000000D+00 0.000000000000000D+00 -.299453142644316D+03
 0.144681662603161D+03 -.669056283879655D+02 0.138375835474482D+02 0.252970683122349D+02
 0.110740199453347D+03 0.311561809981143D+02 -.525302552292632D+02 0.147649958390857D+02
 0.738311781319386D+02 0.458594704560262D+02 -.417490460942331D+02 -.400620641513206D+02
 0.147014650405492D+03 -.101100230661749D+02 0.804417177760481D+02 -.122638594694693D+03
0.234558582460D-05 0.000000000000D+00 0.000000000000D+00 0.404626440647D-06 0.000000000000D+00  6 1 21 25 23 1 21 2 0.18925675D+00 0.31838807D-02 0.22786811D+05 0.22786811D+05 0.22786811D+05 0.12276373D+01  1  2  2  2  6  2       21 0.250472038032D-01 0.100000000000D+01
-.873733662336D-09 0.123779964626D-06 -.473506198663D-08 0.404626440647D-06 0.000000000000D+00  6 1 21 25 23 1 21 4 0.18925675D+00 0.31838807D-02 0.22786811D+05 0.22786811D+05 0.22786811D+05 0.12276373D+01  1  2  3  2  6  2       21 -.140613542953D-04 0.100000000000D+01
0.206595886228D-06 0.000000000000D+00 0.000000000000D+00 0.404626440647D-06 0.000000000000D+00  6 1 21 25 23 1 21 4 0.18925675D+00 0.31838807D-02 0.22786811D+05 0.22786811D+05 0.22786811D+05 0.12276373D+01  1  2 15  2  6  2       21 0.332483235732D-02 0.100000000000D+01
-.134398346489D-04 0.000000000000D+00 -.346001075661D-05 0.404626440647D-06 0.000000000000D+00  6 1 21 25 23 1 21 4 0.18925675D+00 0.66397030D-02 0.22786811D+05 0.22786811D+05 0.22786811D+05 0.12276373D+01  1  2  5  2  6  2       21 -.629442409560D-01 0.100000000000D+01
-.356782354597D-05 0.000000000000D+00 -.903171547464D-06 0.404626440647D-06 0.000000000000D+00  6 1 -1 25 23 1 -1 4 0.18925675D+00 0.66397030D-02 0.22786811D+05 0.22786811D+05 0.22786811D+05 0.12276373D+01  1  2  5  5  6  2       21 -.101622239088D-02 0.100000000000D+01
-.356782354597D-05 0.000000000000D+00 -.903171547464D-06 0.404626440647D-06 0.000000000000D+00  6 1 1 25 23 1 1 4 0.18925675D+00 0.66397030D-02 0.22786811D+05 0.22786811D+05 0.22786811D+05 0.12276373D+01  1  2  5  6  6  2       21 -.118729775040D-02 0.100000000000D+01
-.356782354597D-05 0.000000000000D+00 -.903171547464D-06 0.404626440647D-06 0.000000000000D+00  6 1 -2 25 23 1 -2 4 0.18925675D+00 0.66397030D-02 0.22786811D+05 0.22786811D+05 0.22786811D+05 0.12276373D+01  1  2  5  7  6  2       21 -.986294768125D-03 0.100000000000D+01
-.356782354597D-05 0.000000000000D+00 -.903171547464D-06 0.404626440647D-06 0.000000000000D+00  6 1 -4 25 23 1 -4 4 0.18925675D+00 0.66397030D-02 0.22786811D+05 0.22786811D+05 0.22786811D+05 0.12276373D+01  1  2  5  7  6  2       21 -.623324553483D-03 0.100000000000D+01
-.356782354597D-05 0.000000000000D+00 -.903171547464D-06 0.404626440647D-06 0.000000000000D+00  6 1 2 25 23 1 2 4 0.18925675D+00 0.66397030D-02 0.22786811D+05 0.22786811D+05 0.22786811D+05 0.12276373D+01  1  2  5  8  6  2       21 -.130217836793D-02 0.100000000000D+01
-.356782354597D-05 0.000000000000D+00 -.903171547464D-06 0.404626440647D-06 0.000000000000D+00  6 1 4 25 23 1 4 4 0.18925675D+00 0.66397030D-02 0.22786811D+05 0.22786811D+05 0.22786811D+05 0.12276373D+01  1  2  5  8  6  2       21 -.623324553483D-03 0.100000000000D+01
-.356782354597D-05 0.000000000000D+00 -.903171547464D-06 0.404626440647D-06 0.000000000000D+00  6 1 -3 25 23 1 -3 4 0.18925675D+00 0.66397030D-02 0.22786811D+05 0.22786811D+05 0.22786811D+05 0.12276373D+01  1  2  5  9  6  2       21 -.703852556206D-03 0.100000000000D+01
-.356782354597D-05 0.000000000000D+00 -.903171547464D-06 0.404626440647D-06 0.000000000000D+00  6 1 3 25 23 1 3 4 0.18925675D+00 0.66397030D-02 0.22786811D+05 0.22786811D+05 0.22786811D+05 0.12276373D+01  1  2  5 10  6  2       21 -.703774381221D-03 0.100000000000D+01
  </mgrwgt>
  </event>
  <event>
  6     66 -.36102257E-03 0.35492156E+02 0.75467711E-02 0.12146619E+00
        1 -1    0    0  502    0 0.00000000E+00 0.00000000E+00 0.22108116E+03 0.22108139E+03 0.32000000E+00 0.0000E+00 0.9000E+01
       21 -1    0    0  501  503 0.00000000E+00 0.00000000E+00 -.11619409E+03 0.11619651E+03 0.75000000E+00 0.0000E+00 0.9000E+01
       25  1    1    2    0    0 -.12606878E+02 0.45443325E+02 0.20554305E+02 0.13517214E+03 0.12500000E+03 0.0000E+00 0.9000E+01
       23  1    1    2    0    0 -.20960983E+02 -.32655509E+02 0.10901275E+03 0.14732541E+03 0.91188000E+02 0.0000E+00 0.9000E+01
        1  1    1    2  501    0 0.33599240E+02 -.19344075E+02 -.27571955E+02 0.47575385E+02 0.32000000E+00 0.0000E+00 0.9000E+01
       21  1    1    2  502  503 -.31378240E-01 0.65562598E+01 0.28919729E+01 0.72049660E+01 0.75000000E+00 0.0000E+00 0.9000E+01
#aMCatNLO 2  0  0  2  1 0.65563349D+01 0.00000000D+00  -5  6  0 0.00000000D+00 0.00000000D+00 0.00000000D+00 0.00000000D+00 0.00000000D+00
  <mgrwgt>
 -.5156039447D-01    3    2    0
 0.156925267909922D+03 0.000000000000000D+00 0.000000000000000D+00 0.156925267909922D+03
 0.156925267909922D+03 0.000000000000000D+00 0.000000000000000D+00 -.156925267909922D+03
 0.136429803450033D+03 -.126206857763900D+02 0.482828800579786D+02 -.223063455827084D+02
 0.118833541291854D+03 -.209730852646577D+02 -.301664475525723D+02 0.667553318357570D+02
 0.585871910779565D+02 0.335937710410478D+02 -.181164325054063D+02 -.444489862530486D+02
 0.000000000000000D+00 -.000000000000000D+00 0.000000000000000D+00 0.000000000000000D+00
 0.160606159433612D+03 0.000000000000000D+00 0.000000000000000D+00 0.160606159433612D+03
 0.159906419638998D+03 0.000000000000000D+00 0.000000000000000D+00 -.159906419638998D+03
 0.135449689443633D+03 -.126070962352594D+02 0.454434422291747D+02 -.223063455827084D+02
 0.119487540201707D+03 -.209611730968632D+02 -.326554101697673D+02 0.667553318357570D+02
 0.589817795939383D+02 0.335996475723949D+02 -.193442918752554D+02 -.444489862530486D+02
 0.659356983333237D+01 -.313782402722526D-01 0.655625981584793D+01 0.699739794613551D+00
-.669223347074D-05 0.000000000000D+00 0.000000000000D+00 0.604046008868D-06 0.000000000000D+00  6 1 21 25 23 1 21 4 0.33228753D-01 0.18075266D-01 0.19324882D+05 0.19324882D+05 0.19324882D+05 0.12354712D+01  1  2 13  2  6  2       21 -.626508112330D-01 0.100000000000D+01
-.410469551113D-05 0.000000000000D+00 0.000000000000D+00 0.606434325122D-06 0.000000000000D+00  6 1 21 25 23 1 21 4 0.33228753D-01 0.17540622D-01 0.18370099D+05 0.18370099D+05 0.18370099D+05 0.12379113D+01  1  2  8  2  6  2       21 -.409097307743D-01 0.100000000000D+01
0.560033663186D-05 0.000000000000D+00 0.000000000000D+00 0.606434325122D-06 0.125666633450D-06  6 1 21 25 23 1 21 4 0.34008178D-01 0.17873846D-01 0.19324882D+05 0.19324882D+05 0.19324882D+05 0.12354712D+01  1  2  1  2  6  2       21 0.520001475339D-01 0.100000000000D+01
  </mgrwgt>
  </event>
  <event>
  5     66 0.36102257E-03 0.58307914E+02 0.75467711E-02 0.12008170E+00
        1 -1    0    0  502    0 0.00000000E+00 0.00000000E+00 0.29154290E+03 0.29154307E+03 0.32000000E+00 0.0000E+00 0.9000E+01
       21 -1    0    0  501  502 0.00000000E+00 0.00000000E+00 -.13710707E+03 0.13710912E+03 0.75000000E+00 0.0000E+00 0.9000E+01
       25  1    1    2    0    0 0.69719123E+02 -.35394226E+02 0.10083055E+03 0.17862057E+03 0.12500000E+03 0.0000E+00 0.9000E+01
       23  1    1    2    0    0 -.15336790E+02 0.56426532E+02 0.12000429E+03 0.16166462E+03 0.91188000E+02 0.0000E+00 0.9000E+01
        1  1    1    2  501    0 -.54382333E+02 -.21032306E+02 -.66399009E+02 0.88367001E+02 0.32000000E+00 0.0000E+00 0.9000E+01
#aMCatNLO 1  0  0  5  1 0.10379882D+02 0.00000000D+00  -5  6  0 0.00000000D+00 0.00000000D+00 0.00000000D+00 0.00000000D+00 0.00000000D+00
  <mgrwgt>
 0.1763935720D-01    4    2    0
 0.199932662187087D+03 0.000000000000000D+00 0.000000000000000D+00 0.199932662187087D+03
 0.199932662187087D+03 -.000000000000000D+00 -.000000000000000D+00 -.199932662187087D+03
 0.152537042914379D+03 0.697191965706744D+02 -.353941973278779D+02 0.391028628890253D+02
 0.126955144095158D+03 -.153367290603392D+02 0.564265553228121D+02 0.662056331768953D+02
 0.120373137364637D+03 -.543824675103352D+02 -.210323579949343D+02 -.105308496065921D+03
 0.000000000000000D+00 0.000000000000000D+00 0.000000000000000D+00 0.000000000000000D+00
 0.199932662187087D+03 0.000000000000000D+00 0.000000000000000D+00 0.199932662187087D+03
 0.199932662187087D+03 -.000000000000000D+00 -.000000000000000D+00 -.199932662187087D+03
 0.147531339853001D+03 0.632377573900029D+02 -.379008866233640D+02 0.265519316108604D+02
 0.121704984175752D+03 -.207077564347737D+02 0.543493165414304D+02 0.558049499967308D+02
 0.111130317029429D+03 -.411442226240827D+02 -.171888461938688D+02 -.101792160180659D+03
 0.194986833159905D+02 -.138577833114653D+01 0.740416275802300D+00 0.194352785730675D+02
0.527250928240D-05 0.000000000000D+00 0.000000000000D+00 0.691616584194D-06 0.000000000000D+00  6 1 21 25 23 1 21 2 0.44852925D-01 0.21093566D-01 0.24660513D+05 0.24660513D+05 0.24660513D+05 0.12239348D+01  1  2  2  3  6  5        1 0.164393940830D-01 0.100000000000D+01
0.173555457976D-06 0.278237958989D-06 -.106436771639D-07 0.691616584194D-06 0.000000000000D+00  6 1 21 25 23 1 21 4 0.44852925D-01 0.21093566D-01 0.24660513D+05 0.24660513D+05 0.24660513D+05 0.12239348D+01  1  2  3  3  6  5        1 0.810631125658D-03 0.100000000000D+01
0.319684206729D-06 0.000000000000D+00 0.000000000000D+00 0.691616584194D-06 0.000000000000D+00  6 1 21 25 23 1 21 4 0.44852925D-01 0.21093566D-01 0.24660513D+05 0.24660513D+05 0.24660513D+05 0.12239348D+01  1  2 15  3  6  5        1 0.149315942799D-02 0.100000000000D+01
-.236328546907D-06 0.000000000000D+00 0.000000000000D+00 0.691616584194D-06 0.000000000000D+00  6 1 21 25 23 1 21 4 0.44852925D-01 0.21093566D-01 0.24660513D+05 0.24660513D+05 0.24660513D+05 0.12239348D+01  1  2  4  3  6  5        1 -.110382743498D-02 0.100000000000D+01
  </mgrwgt>
  </event>
  <event>
  5     66 -.36102257E-03 0.30316670E+02 0.75467711E-02 0.11946897E+00
        3 -1    0    0  502    0 0.00000000E+00 0.00000000E+00 0.69765903E+03 0.69765921E+03 0.50000000E+00 0.0000E+00 0.9000E+01
       21 -1    0    0  501  502 0.00000000E+00 0.00000000E+00 -.30502966E+02 0.30512185E+02 0.75000000E+00 0.0000E+00 0.9000E+01
       25  1    1    2    0    0 0.46192896E+02 0.23432686E+02 0.49932113E+03 0.51732917E+03 0.12500000E+03 0.0000E+00 0.9000E+01
       23  1    1    2    0    0 -.22172501E+02 -.49390591E+01 0.14539917E+03 0.17312476E+03 0.91188000E+02 0.0000E+00 0.9000E+01
        3  1    1    2  501    0 -.24020394E+02 -.18493627E+02 0.22435761E+02 0.37717462E+02 0.50000000E+00 0.0000E+00 0.9000E+01
#aMCatNLO 1  0  0  2  1 0.46941675D+02 0.00000000D+00  -5  6  0 0.00000000D+00 0.00000000D+00 0.00000000D+00 0.00000000D+00 0.00000000D+00
  <mgrwgt>
 -.2629760597D-01   12    2    0
 0.145890684081643D+03 0.000000000000000D+00 0.000000000000000D+00 0.145890684081643D+03
 0.145890684081643D+03 0.000000000000000D+00 0.000000000000000D+00 -.145890684081643D+03
 0.149356403938758D+03 0.461937337648653D+02 0.234333311142161D+02 0.632404407896529D+02
 0.995966708047829D+02 -.221719426254515D+02 -.493862883147806D+01 -.329887919887175D+02
 0.428282934197461D+02 -.240217911394138D+02 -.184947022827380D+02 -.302516488009353D+02
 0.000000000000000D+00 -.000000000000000D+00 -.000000000000000D+00 -.000000000000000D+00
 0.149788082357641D+03 0.000000000000000D+00 0.000000000000000D+00 0.149788082357641D+03
 0.420281364156338D+03 0.000000000000000D+00 0.000000000000000D+00 -.420281364156338D+03
 0.155879857209962D+03 0.490111304224558D+02 0.476663993526008D+02 0.632404407896529D+02
 0.996761862787610D+02 -.203326110880292D+02 0.108818792745709D+02 -.329887919887175D+02
 0.399771825228045D+02 -.232574787006729D+02 -.119206774880559D+02 -.302516488009353D+02
 0.274536220502451D+03 -.542104063375374D+01 -.466276011391158D+02 -.270493281798697D+03
0.101751062825D-05 0.000000000000D+00 0.000000000000D+00 0.730641828865D-06 0.000000000000D+00  6 3 21 25 23 3 21 2 0.10733288D+00 0.46934870D-02 0.16847822D+05 0.16847822D+05 0.16847822D+05 0.12421116D+01  1  2  2  2  6  2       21 0.174944752868D-02 0.100000000000D+01
0.371232001980D-07 0.536955110538D-07 -.205406080064D-08 0.730641828865D-06 0.000000000000D+00  6 3 21 25 23 3 21 4 0.10733288D+00 0.46934870D-02 0.16847822D+05 0.16847822D+05 0.16847822D+05 0.12421116D+01  1  2  3  2  6  2       21 0.984755931864D-04 0.100000000000D+01
0.808496476346D-07 0.000000000000D+00 0.000000000000D+00 0.730641828865D-06 0.000000000000D+00  6 3 21 25 23 3 21 4 0.10733288D+00 0.46934870D-02 0.16847822D+05 0.16847822D+05 0.16847822D+05 0.12421116D+01  1  2 15  2  6  2       21 0.214467421108D-03 0.100000000000D+01
-.583057656820D-04 0.000000000000D+00 -.250430030294D-05 0.730641828865D-06 0.000000000000D+00  6 3 21 25 23 3 21 4 0.10733288D+00 0.13782680D-01 0.16847822D+05 0.16847822D+05 0.16847822D+05 0.12421116D+01  1  2  5  2  6  2       21 -.240535769828D-01 0.100000000000D+01
-.203031778232D-04 0.000000000000D+00 -.875792482686D-06 0.730641828865D-06 0.000000000000D+00  6 3 -3 25 23 3 -3 4 0.10733288D+00 0.13782680D-01 0.16847822D+05 0.16847822D+05 0.16847822D+05 0.12421116D+01  1  2  5  5  6  2       21 -.374798582526D-03 0.100000000000D+01
-.203031778232D-04 0.000000000000D+00 -.875792482686D-06 0.730641828865D-06 0.000000000000D+00  6 3 3 25 23 3 3 4 0.10733288D+00 0.13782680D-01 0.16847822D+05 0.16847822D+05 0.16847822D+05 0.12421116D+01  1  2  5  6  6  2       21 -.374750577137D-03 0.100000000000D+01
-.203031778232D-04 0.000000000000D+00 -.875792482686D-06 0.730641828865D-06 0.000000000000D+00  6 3 -2 25 23 3 -2 4 0.10733288D+00 0.13782680D-01 0.16847822D+05 0.16847822D+05 0.16847822D+05 0.12421116D+01  1  2  5  7  6  2       21 -.561039087579D-03 0.100000000000D+01
-.203031778232D-04 0.000000000000D+00 -.875792482686D-06 0.730641828865D-06 0.000000000000D+00  6 3 -4 25 23 3 -4 4 0.10733288D+00 0.13782680D-01 0.16847822D+05 0.16847822D+05 0.16847822D+05 0.12421116D+01  1  2  5  7  6  2       21 -.323263893769D-03 0.100000000000D+01
-.203031778232D-04 0.000000000000D+00 -.875792482686D-06 0.730641828865D-06 0.000000000000D+00  6 3 2 25 23 3 2 4 0.10733288D+00 0.13782680D-01 0.16847822D+05 0.16847822D+05 0.16847822D+05 0.12421116D+01  1  2  5  8  6  2       21 -.947364049202D-03 0.100000000000D+01
-.203031778232D-04 0.000000000000D+00 -.875792482686D-06 0.730641828865D-06 0.000000000000D+00  6 3 4 25 23 3 4 4 0.10733288D+00 0.13782680D-01 0.16847822D+05 0.16847822D+05 0.16847822D+05 0.12421116D+01  1  2  5  8  6  2       21 -.323263893769D-03 0.100000000000D+01
-.203031778232D-04 0.000000000000D+00 -.875792482686D-06 0.730641828865D-06 0.000000000000D+00  6 3 -1 25 23 3 -1 4 0.10733288D+00 0.13782680D-01 0.16847822D+05 0.16847822D+05 0.16847822D+05 0.12421116D+01  1  2  5  9  6  2       21 -.596978357504D-03 0.100000000000D+01
-.203031778232D-04 0.000000000000D+00 -.875792482686D-06 0.730641828865D-06 0.000000000000D+00  6 3 1 25 23 3 1 4 0.10733288D+00 0.13782680D-01 0.16847822D+05 0.16847822D+05 0.16847822D+05 0.12421116D+01  1  2  5 10  6  2       21 -.804961088089D-03 0.100000000000D+01
  </mgrwgt>
  </event>
  <event>
  5     66 0.36102257E-03 0.38301264E+02 0.75467711E-02 0.11864555E+00
        1 -1    0    0  502    0 0.00000000E+00 0.00000000E+00 0.71358308E+02 0.71359026E+02 0.32000000E+00 0.0000E+00 0.9000E+01
       21 -1    0    0  501  502 0.00000000E+00 0.00000000E+00 -.33537702E+03 0.33537785E+03 0.75000000E+00 0.0000E+00 0.9000E+01
       25  1    1    2    0    0 -.35013751E+02 -.28736179E+02 -.70329445E+02 0.15040931E+03 0.12500000E+03 0.0000E+00 0.9000E+01
       23  1    1    2    0    0 0.39081946E+02 0.66820172E+02 -.10288166E+03 0.15777269E+03 0.91188000E+02 0.0000E+00 0.9000E+01
        1  1    1    2  501    0 -.40681949E+01 -.38083993E+02 -.90807605E+02 0.98554879E+02 0.32000000E+00 0.0000E+00 0.9000E+01
#aMCatNLO 1  0  0  1  2 0.31558444D+02 0.00000000D+00  -5  6  0 0.00000000D+00 0.00000000D+00 0.00000000D+00 0.00000000D+00 0.00000000D+00
  <mgrwgt>
 0.2883225974D-01    9    2    0
 0.154700526507369D+03 0.000000000000000D+00 0.000000000000000D+00 0.154700526507369D+03
 0.154700526507369D+03 0.000000000000000D+00 0.000000000000000D+00 -.154700526507369D+03
 0.137713578918107D+03 -.350137171982269D+02 -.287358588749421D+02 0.358931726253854D+02
 0.119616072636357D+03 0.390819760370765D+02 0.668204502567230D+02 -.616494503149067D+00
 0.520714014602734D+02 -.406825883884959D+01 -.380845913817809D+02 -.352766781222363D+02
 0.000000000000000D+00 -.000000000000000D+00 0.000000000000000D+00 0.000000000000000D+00
 0.212120258845016D+03 0.000000000000000D+00 0.000000000000000D+00 0.212120258845016D+03
 0.159900853187657D+03 0.000000000000000D+00 0.000000000000000D+00 -.159900853187657D+03
 0.135113477358458D+03 -.211840368081874D+02 -.298926162670349D+02 0.358931726253854D+02
 0.123641025556604D+03 0.514127469163651D+02 0.657890663083931D+02 -.616494503149067D+00
 0.522518426833086D+02 0.121991581452965D+01 -.385269107231144D+02 -.352766781222363D+02
 0.610147664343024D+02 -.314486259227074D+02 0.263046068175625D+01 0.522194056573590D+02
0.251914530631D-05 0.000000000000D+00 0.000000000000D+00 0.542713418899D-06 0.000000000000D+00  6 1 21 25 23 1 21 2 0.10978321D-01 0.51596584D-01 0.21151272D+05 0.21151272D+05 0.21151272D+05 0.12311591D+01  1  2  2  1  6  1        1 0.822272387935D-02 0.100000000000D+01
0.666132524911D-07 0.132938950105D-06 -.508542857551D-08 0.542713418899D-06 0.000000000000D+00  6 1 21 25 23 1 21 4 0.10978321D-01 0.51596584D-01 0.21151272D+05 0.21151272D+05 0.21151272D+05 0.12311591D+01  1  2  3  1  6  1        1 0.329572870510D-03 0.100000000000D+01
0.238757810575D-06 0.000000000000D+00 0.000000000000D+00 0.542713418899D-06 0.000000000000D+00  6 1 21 25 23 1 21 4 0.10978321D-01 0.51596584D-01 0.21151272D+05 0.21151272D+05 0.21151272D+05 0.12311591D+01  1  2 15  1  6  1        1 0.118126790158D-02 0.100000000000D+01
0.204465404492D-04 0.000000000000D+00 0.000000000000D+00 0.533830700081D-06 0.000000000000D+00  6 1 21 25 23 1 21 4 0.15186399D-01 0.51596584D-01 0.26244464D+05 0.26244464D+05 0.26244464D+05 0.12210422D+01  1  2 12  1  6  1        1 0.639015127413D-01 0.100000000000D+01
-.173608661274D-04 0.000000000000D+00 0.000000000000D+00 0.542713418899D-06 0.000000000000D+00  6 1 21 25 23 1 21 4 0.10978321D-01 0.51596584D-01 0.21151272D+05 0.21151272D+05 0.21151272D+05 0.12311591D+01  1  2  4  1  6  1        1 -.858938765212D-01 0.100000000000D+01
-.251047114448D-04 0.000000000000D+00 -.380380935353D-05 0.542713418899D-06 0.000000000000D+00  6 1 21 25 23 1 21 4 0.15495553D-01 0.51596584D-01 0.21151272D+05 0.21151272D+05 0.21151272D+05 0.12311591D+01  1  2  5  1  6  1        1 -.791346188354D-01 0.100000000000D+01
0.251240276933D-04 0.000000000000D+00 0.358858334183D-05 0.542713418899D-06 0.000000000000D+00  6 1 21 25 23 1 21 4 0.10978321D-01 0.51596584D-01 0.21151272D+05 0.21151272D+05 0.21151272D+05 0.12311591D+01  1  2  6  1  6  1        1 0.124302561668D+00 0.100000000000D+01
0.836361341558D-06 0.000000000000D+00 0.000000000000D+00 0.533830700081D-06 0.000000000000D+00  6 21 21 25 23 1 -1 4 0.15186399D-01 0.51596584D-01 0.26244464D+05 0.26244464D+05 0.26244464D+05 0.12210422D+01  1  2 12  4  6  1        1 0.257196059964D-01 0.100000000000D+01
-.967296731107D-06 0.000000000000D+00 -.162497508054D-06 0.542713418899D-06 0.000000000000D+00  6 21 21 25 23 1 -1 4 0.15495553D-01 0.51596584D-01 0.21151272D+05 0.21151272D+05 0.21151272D+05 0.12311591D+01  1  2  5  4  6  1        1 -.297964899603D-01 0.100000000000D+01
  </mgrwgt>
  </event>
  <event>
  5     66 0.36102257E-03 0.24562348E+02 0.75467711E-02 0.11752058E+00
        1 -1    0    0  502    0 0.00000000E+00 0.00000000E+00 0.54255990E+03 0.54256000E+03 0.32000000E+00 0.0000E+00 0.9000E+01
       21 -1    0    0  501  502 0.00000000E+00 0.00000000E+00 -.51926176E+02 0.51931592E+02 0.75000000E+00 0.0000E+00 0.9000E+01
       25  1    1    2    0    0 0.59464352E+02 0.86718831E+02 0.31373764E+03 0.35371242E+03 0.12500000E+03 0.0000E+00 0.9000E+01
       23  1    1    2    0    0 -.37229081E+02 -.97149895E+02 0.14355744E+03 0.19936925E+03 0.91188000E+02 0.0000E+00 0.9000E+01
        1  1    1    2  501    0 -.22235271E+02 0.10431064E+02 0.33338644E+02 0.41409926E+02 0.32000000E+00 0.0000E+00 0.9000E+01
#aMCatNLO 1  0  0  2  1 0.18414083D+02 0.00000000D+00  -5  6  0 0.00000000D+00 0.00000000D+00 0.00000000D+00 0.00000000D+00 0.00000000D+00
  <mgrwgt>
 0.2007283715D+00   23    2    0
 0.167853206441131D+03 0.000000000000000D+00 0.000000000000000D+00 0.167853206441131D+03
 0.167853206441131D+03 0.000000000000000D+00 0.000000000000000D+00 -.167853206441131D+03
 0.167851508205515D+03 0.594652925638676D+02 0.867183901679696D+02 0.386384341535132D+02
 0.143247873097999D+03 -.372282788254409D+02 -.971502715477527D+02 -.371561811411434D+02
 0.246070315787484D+02 -.222370137384267D+02 0.104318813797831D+02 -.148225301236974D+01
 0.000000000000000D+00 0.000000000000000D+00 -.000000000000000D+00 -.000000000000000D+00
 0.172684248438240D+03 0.000000000000000D+00 0.000000000000000D+00 0.172684248438240D+03
 0.186619348302865D+03 0.000000000000000D+00 0.000000000000000D+00 -.186619348302865D+03
 0.172833889220266D+03 0.593896195501180D+02 0.960546602662264D+02 0.386384341535132D+02
 0.138151071014740D+03 -.372907831368316D+02 -.894387095980711D+02 -.371561811411434D+02
 0.252260956304039D+02 -.222480826687330D+02 0.117975270428520D+02 -.148225301236974D+01
 0.230925408756946D+02 0.149246255446628D+00 -.184134777110073D+02 -.139350998646258D+02
0.340995196270D-05 0.000000000000D+00 0.000000000000D+00 0.314642801141D-06 0.000000000000D+00  6 1 21 25 23 1 21 2 0.83471178D-01 0.79890663D-02 0.26609974D+05 0.26609974D+05 0.26609974D+05 0.12204023D+01  1  2  2  2  6  2       21 0.273533068892D-01 0.100000000000D+01
0.225474865896D-06 0.179948108867D-06 -.688371056199D-08 0.314642801141D-06 0.000000000000D+00  6 1 21 25 23 1 21 4 0.83471178D-01 0.79890663D-02 0.26609974D+05 0.26609974D+05 0.26609974D+05 0.12204023D+01  1  2  3  2  6  2       21 0.269380265066D-02 0.100000000000D+01
0.399920463438D-06 0.000000000000D+00 0.000000000000D+00 0.314642801141D-06 0.000000000000D+00  6 1 21 25 23 1 21 4 0.83471178D-01 0.79890663D-02 0.26609974D+05 0.26609974D+05 0.26609974D+05 0.12204023D+01  1  2 15  2  6  2       21 0.477794631424D-02 0.100000000000D+01
0.114213778741D-04 0.000000000000D+00 0.000000000000D+00 0.311986300311D-06 0.000000000000D+00  6 1 21 25 23 1 21 4 0.83471178D-01 0.89884537D-02 0.29776403D+05 0.29776403D+05 0.29776403D+05 0.12152395D+01  1  2 12  2  6  2       21 0.109242024135D+00 0.100000000000D+01
-.452235532851D-05 0.000000000000D+00 0.000000000000D+00 0.314642801141D-06 0.000000000000D+00  6 1 21 25 23 1 21 4 0.83471178D-01 0.79890663D-02 0.26609974D+05 0.26609974D+05 0.26609974D+05 0.12204023D+01  1  2  4  2  6  2       21 -.540296707696D-01 0.100000000000D+01
-.498457463078D-04 0.000000000000D+00 -.882079006428D-05 0.314642801141D-06 0.000000000000D+00  6 1 21 25 23 1 21 4 0.83471178D-01 0.91298515D-02 0.26609974D+05 0.26609974D+05 0.26609974D+05 0.12204023D+01  1  2  5  2  6  2       21 -.472025998555D+00 0.100000000000D+01
0.492135747617D-04 0.000000000000D+00 0.851425387004D-05 0.314642801141D-06 0.000000000000D+00  6 1 21 25 23 1 21 4 0.83471178D-01 0.79890663D-02 0.26609974D+05 0.26609974D+05 0.26609974D+05 0.12204023D+01  1  2  6  2  6  2       21 0.587966457435D+00 0.100000000000D+01
0.351779913069D-06 0.000000000000D+00 0.000000000000D+00 0.311986300311D-06 0.000000000000D+00  6 1 -1 25 23 1 -1 4 0.83471178D-01 0.89884537D-02 0.29776403D+05 0.29776403D+05 0.29776403D+05 0.12152395D+01  1  2 12  5  6  2       21 0.219568663860D-03 0.100000000000D+01
-.155098272556D-05 0.000000000000D+00 -.313572343550D-06 0.314642801141D-06 0.000000000000D+00  6 1 -1 25 23 1 -1 4 0.83471178D-01 0.91298515D-02 0.26609974D+05 0.26609974D+05 0.26609974D+05 0.12204023D+01  1  2  5  5  6  2       21 -.959730968391D-03 0.100000000000D+01
0.351779913069D-06 0.000000000000D+00 0.000000000000D+00 0.311986300311D-06 0.000000000000D+00  6 1 1 25 23 1 1 4 0.83471178D-01 0.89884537D-02 0.29776403D+05 0.29776403D+05 0.29776403D+05 0.12152395D+01  1  2 12  6  6  2       21 0.269418150279D-03 0.100000000000D+01
-.155098272556D-05 0.000000000000D+00 -.313572343550D-06 0.314642801141D-06 0.000000000000D+00  6 1 1 25 23 1 1 4 0.83471178D-01 0.91298515D-02 0.26609974D+05 0.26609974D+05 0.26609974D+05 0.12204023D+01  1  2  5  6  6  2       21 -.118123063775D-02 0.100000000000D+01
0.351779913069D-06 0.000000000000D+00 0.000000000000D+00 0.311986300311D-06 0.000000000000D+00  6 1 -2 25 23 1 -2 4 0.83471178D-01 0.89884537D-02 0.29776403D+05 0.29776403D+05 0.29776403D+05 0.12152395D+01  1  2 12  7  6  2       21 0.210908170679D-03 0.100000000000D+01
0.351779913069D-06 0.000000000000D+00 0.000000000000D+00 0.311986300311D-06 0.000000000000D+00  6 1 -4 25 23 1 -4 4 0.83471178D-01 0.89884537D-02 0.29776403D+05 0.29776403D+05 0.29776403D+05 0.12152395D+01  1  2 12  7  6  2       21 0.129948904368D-03 0.100000000000D+01
-.155098272556D-05 0.000000000000D+00 -.313572343550D-06 0.314642801141D-06 0.000000000000D+00  6 1 -2 25 23 1 -2 4 0.83471178D-01 0.91298515D-02 0.26609974D+05 0.26609974D+05 0.26609974D+05 0.12204023D+01  1  2  5  7  6  2       21 -.921240717077D-03 0.100000000000D+01
-.155098272556D-05 0.000000000000D+00 -.313572343550D-06 0.314642801141D-06 0.000000000000D+00  6 1 -4 25 23 1 -4 4 0.83471178D-01 0.91298515D-02 0.26609974D+05 0.26609974D+05 0.26609974D+05 0.12204023D+01  1  2  5  7  6  2       21 -.564662595329D-03 0.100000000000D+01
0.351779913069D-06 0.000000000000D+00 0.000000000000D+00 0.311986300311D-06 0.000000000000D+00  6 1 2 25 23 1 2 4 0.83471178D-01 0.89884537D-02 0.29776403D+05 0.29776403D+05 0.29776403D+05 0.12152395D+01  1  2 12  8  6  2       21 0.303105075964D-03 0.100000000000D+01
0.351779913069D-06 0.000000000000D+00 0.000000000000D+00 0.311986300311D-06 0.000000000000D+00  6 1 4 25 23 1 4 4 0.83471178D-01 0.89884537D-02 0.29776403D+05 0.29776403D+05 0.29776403D+05 0.12152395D+01  1  2 12  8  6  2       21 0.129948904368D-03 0.100000000000D+01
-.155098272556D-05 0.000000000000D+00 -.313572343550D-06 0.314642801141D-06 0.000000000000D+00  6 1 2 25 23 1 2 4 0.83471178D-01 0.91298515D-02 0.26609974D+05 0.26609974D+05 0.26609974D+05 0.12204023D+01  1  2  5  8  6  2       21 -.133087150331D-02 0.100000000000D+01
-.155098272556D-05 0.000000000000D+00 -.313572343550D-06 0.314642801141D-06 0.000000000000D+00  6 1 4 25 23 1 4 4 0.83471178D-01 0.91298515D-02 0.26609974D+05 0.26609974D+05 0.26609974D+05 0.12204023D+01  1  2  5  8  6  2       21 -.564662595329D-03 0.100000000000D+01
0.351779913069D-06 0.000000000000D+00 0.000000000000D+00 0.311986300311D-06 0.000000000000D+00  6 1 -3 25 23 1 -3 4 0.83471178D-01 0.89884537D-02 0.29776403D+05 0.29776403D+05 0.29776403D+05 0.12152395D+01  1  2 12  9  6  2       21 0.147678732918D-03 0.100000000000D+01
-.155098272556D-05 0.000000000000D+00 -.313572343550D-06 0.314642801141D-06 0.000000000000D+00  6 1 -3 25 23 1 -3 4 0.83471178D-01 0.91298515D-02 0.26609974D+05 0.26609974D+05 0.26609974D+05 0.12204023D+01  1  2  5  9  6  2       21 -.642706567942D-03 0.100000000000D+01
0.351779913069D-06 0.000000000000D+00 0.000000000000D+00 0.311986300311D-06 0.000000000000D+00  6 1 3 25 23 1 3 4 0.83471178D-01 0.89884537D-02 0.29776403D+05 0.29776403D+05 0.29776403D+05 0.12152395D+01  1  2 12 10  6  2       21 0.147661078401D-03 0.100000000000D+01
-.155098272556D-05 0.000000000000D+00 -.313572343550D-06 0.314642801141D-06 0.000000000000D+00  6 1 3 25 23 1 3 4 0.83471178D-01 0.91298515D-02 0.26609974D+05 0.26609974D+05 0.26609974D+05 0.12204023D+01  1  2  5 10  6  2       21 -.642628687055D-03 0.100000000000D+01
  </mgrwgt>
  </event>
  <event>
  5     66 -.36102257E-03 0.22130233E+02 0.75467711E-02 0.12395186E+00
        1 -1    0    0  502    0 0.00000000E+00 0.00000000E+00 0.10515791E+04 0.10515791E+04 0.32000000E+00 0.0000E+00 0.9000E+01
       21 -1    0    0  501  502 0.00000000E+00 0.00000000E+00 -.18048159E+02 0.18063736E+02 0.75000000E+00 0.0000E+00 0.9000E+01
       25  1    1    2    0    0 0.20674380E+01 0.17006341E+02 0.71055087E+03 0.72166545E+03 0.12500000E+03 0.0000E+00 0.9000E+01
       23  1    1    2    0    0 0.98989633E+01 0.16090746E+01 0.30769663E+03 0.32108106E+03 0.91188000E+02 0.0000E+00 0.9000E+01
        1  1    1    2  501    0 -.11966401E+02 -.18615416E+02 0.15283425E+02 0.26896356E+02 0.32000000E+00 0.0000E+00 0.9000E+01
#aMCatNLO 1  0  0  5  2 0.57908937D+01 0.00000000D+00  -5  6  0 0.00000000D+00 0.00000000D+00 0.00000000D+00 0.00000000D+00 0.00000000D+00
  <mgrwgt>
 -.2219627121D+00    7    2    0
 0.137794859531297D+03 0.000000000000000D+00 0.000000000000000D+00 0.137794859531297D+03
 0.137794859531297D+03 -.000000000000000D+00 -.000000000000000D+00 -.137794859531297D+03
 0.136246253056051D+03 0.206757463911806D+01 0.170065536701217D+02 0.514251275077704D+02
 0.922678673541243D+02 0.989905582510076D+01 0.160921857980910D+01 -.987558157336635D+01
 0.470755986524188D+02 -.119666304642188D+02 -.186157722499308D+02 -.415495459344041D+02
 0.000000000000000D+00 0.000000000000000D+00 0.000000000000000D+00 -.000000000000000D+00
 0.137794859531297D+03 0.000000000000000D+00 0.000000000000000D+00 0.137794859531297D+03
 0.137794859531297D+03 -.000000000000000D+00 -.000000000000000D+00 -.137794859531297D+03
 0.135682903837509D+03 0.169242798409634D+01 0.164229604263018D+02 0.501225742768029D+02
 0.923336933821457D+02 0.964438413482260D+01 0.121304104270716D+01 -.107598315821758D+02
 0.397244312876262D+02 -.149344782872393D+02 -.174919184118907D+02 -.323886490870656D+02
 0.784869055531272D+01 0.359766616832036D+01 -.144083057118237D+00 -.697409360756146D+01
0.543727215828D-05 0.000000000000D+00 0.000000000000D+00 0.202873478141D-05 0.000000000000D+00  6 1 21 25 23 1 21 2 0.16178260D+00 0.27778418D-02 0.14404393D+05 0.14404393D+05 0.14404393D+05 0.12498335D+01  1  2  2  3  6  5        1 0.100070307238D+00 0.100000000000D+01
0.543503827268D-06 0.286932734824D-06 -.109762859400D-07 0.202873478141D-05 0.000000000000D+00  6 1 21 25 23 1 21 4 0.16178260D+00 0.27778418D-02 0.14404393D+05 0.14404393D+05 0.14404393D+05 0.12498335D+01  1  2  3  3  6  5        1 0.156253988626D-01 0.100000000000D+01
0.438378612954D-06 0.000000000000D+00 0.000000000000D+00 0.202873478141D-05 0.000000000000D+00  6 1 21 25 23 1 21 4 0.16178260D+00 0.27778418D-02 0.14404393D+05 0.14404393D+05 0.14404393D+05 0.12498335D+01  1  2 15  3  6  5        1 0.126031139737D-01 0.100000000000D+01
-.230930789751D-04 0.000000000000D+00 0.000000000000D+00 0.202873478141D-05 0.000000000000D+00  6 1 21 25 23 1 21 4 0.16178260D+00 0.27778418D-02 0.14404393D+05 0.14404393D+05 0.14404393D+05 0.12498335D+01  1  2  4  3  6  5        1 -.663911736857D+00 0.100000000000D+01
-.119243546768D-04 0.000000000000D+00 0.000000000000D+00 0.202873478141D-05 0.000000000000D+00  6 1 21 25 23 1 21 4 0.16178260D+00 0.27778418D-02 0.14404393D+05 0.14404393D+05 0.14404393D+05 0.12498335D+01  1  2  5  3  6  5        1 -.342817821431D+00 0.100000000000D+01
0.149692458765D-04 0.000000000000D+00 -.000000000000D+00 0.202873478141D-05 0.000000000000D+00  6 1 21 25 23 1 21 4 0.16178260D+00 0.27778418D-02 0.14404393D+05 0.14404393D+05 0.14404393D+05 0.12498335D+01  1  2  6  3  6  5        1 0.430356560077D+00 0.100000000000D+01
0.790754612414D-05 0.000000000000D+00 0.000000000000D+00 0.202873478141D-05 0.162629167319D-05  6 1 21 25 23 1 21 4 0.16178260D+00 0.27778418D-02 0.14931727D+05 0.14931727D+05 0.14931727D+05 0.12480485D+01  1  2 11  3  6  5        1 0.226111465996D+00 0.100000000000D+01
  </mgrwgt>
  </event>
  <event>
  6     66 0.36102257E-03 0.98415056E+02 0.75467711E-02 0.10981680E+00
        1 -1    0    0  502    0 0.00000000E+00 0.00000000E+00 0.13844289E+04 0.13844290E+04 0.32000000E+00 0.0000E+00 0.9000E+01
       21 -1    0    0  501  503 0.00000000E+00 0.00000000E+00 -.24792193E+03 0.24792306E+03 0.75000000E+00 0.0000E+00 0.9000E+01
       25  1    1    2    0    0 0.30365194E+00 -.98685886E+01 0.39968851E+03 0.41889544E+03 0.12500000E+03 0.0000E+00 0.9000E+01
       23  1    1    2    0    0 0.23569761E+02 0.57928756E+02 0.66336856E+03 0.67252091E+03 0.91188000E+02 0.0000E+00 0.9000E+01
        1  1    1    2  501    0 0.14360074E+03 -.15407557E+02 0.25420415E+03 0.29236692E+03 0.32000000E+00 0.0000E+00 0.9000E+01
       21  1    1    2  502  503 -.16747415E+03 -.32652610E+02 -.18075421E+03 0.24856877E+03 0.75000000E+00 0.0000E+00 0.9000E+01
#aMCatNLO 2  0  0  2  1 0.13185061D+02 0.00000000D+00  -5  6  0 0.00000000D+00 0.00000000D+00 0.00000000D+00 0.00000000D+00 0.00000000D+00
  <mgrwgt>
 0.4592313376D-01    1    2    0
 0.194013674824537D+03 0.000000000000000D+00 0.000000000000000D+00 0.194013674824537D+03
 0.194013674824537D+03 0.000000000000000D+00 0.000000000000000D+00 -.194013674824537D+03
 0.137716368589528D+03 -.539751279052577D+02 -.204513233545497D+02 0.303761718216978D+01
 0.131317253866867D+03 -.311541082578659D+02 0.472592389319783D+02 0.756634369650406D+02
 0.118993727192678D+03 0.851292361631236D+02 -.268079155774286D+02 -.787010541472104D+02
 0.000000000000000D+00 -.000000000000000D+00 -.000000000000000D+00 -.000000000000000D+00
 0.217263907512817D+03 0.000000000000000D+00 0.000000000000000D+00 0.217263907512817D+03
 0.157978806832842D+04 0.000000000000000D+00 0.000000000000000D+00 -.157978806832842D+04
 0.125426104111550D+03 0.303550794343799D+00 -.986855264824809D+01 0.303761718216978D+01
 0.133983142437746D+03 0.235696876466182D+02 0.579287946048553D+02 0.756634369650406D+02
 0.164476361553702D+03 0.143600913920332D+03 -.154076314632570D+02 -.787010541472104D+02
 0.137316636773824D+04 -.167474152361294D+03 -.326526104933502D+02 -.136252416081561D+04
0.393470916771D-03 0.000000000000D+00 0.000000000000D+00 0.306921438522D-06 0.112591694686D-07  6 1 21 25 23 1 21 4 0.21298906D+00 0.38141907D-01 0.75904573D+05 0.75904573D+05 0.75904573D+05 0.11747334D+01  1  2  1  2  6  2       21 0.459231337634D-01 0.100000000000D+01
  </mgrwgt>
  </event>
  <event>
  5     66 0.36102257E-03 0.40273715E+02 0.75467711E-02 0.10054792E+00
        1 -1    0    0  502    0 0.00000000E+00 0.00000000E+00 0.10116889E+03 0.10116939E+03 0.32000000E+00 0.0000E+00 0.9000E+01
       21 -1    0    0  501  502 0.00000000E+00 0.00000000E+00 -.18695784E+03 0.18695934E+03 0.75000000E+00 0.0000E+00 0.9000E+01
       25  1    1    2    0    0 -.16423778E+02 0.36936073E+02 -.76263678E+01 0.13159474E+03 0.12500000E+03 0.0000E+00 0.9000E+01
       23  1    1    2    0    0 -.84502056E+01 -.52627994E+01 -.36896935E+02 0.98872333E+02 0.91188000E+02 0.0000E+00 0.9000E+01
        1  1    1    2  501    0 0.24873983E+02 -.31673274E+02 -.41265645E+02 0.57661661E+02 0.32000000E+00 0.0000E+00 0.9000E+01
#aMCatNLO 1  0  0  2  1 0.50556783D+03 0.00000000D+00  -5  6  0 0.00000000D+00 0.00000000D+00 0.00000000D+00 0.00000000D+00 0.00000000D+00
  <mgrwgt>
 0.6159552192D-01    3    2    0
 0.137530381651341D+03 0.000000000000000D+00 0.000000000000000D+00 0.137530381651341D+03
 0.137530381651341D+03 0.000000000000000D+00 0.000000000000000D+00 -.137530381651341D+03
 0.135468329903528D+03 -.164240553627020D+02 0.369364265365149D+02 0.330547909841619D+02
 0.920618666065327D+02 -.845039432812837D+01 -.526255916494465D+01 -.781231372985102D+01
 0.475305667926218D+02 0.248744496908303D+02 -.316738673715703D+02 -.252424772543109D+02
 0.000000000000000D+00 0.000000000000000D+00 -.000000000000000D+00 0.000000000000000D+00
 0.159379119530046D+04 0.000000000000000D+00 0.000000000000000D+00 0.159379119530046D+04
 0.336701946610857D+03 0.000000000000000D+00 0.000000000000000D+00 -.336701946610857D+03
 0.343445016219892D+03 -.263270577216919D+03 0.178676979857914D+03 0.330547909841619D+02
 0.201287267295832D+03 -.159651470637420D+03 0.815578831807127D+02 -.781231372985102D+01
 0.308172398315030D+02 -.155083955913471D+02 -.848582813167083D+01 -.252424772543109D+02
 0.135494361856409D+04 0.438430443445686D+03 -.251749034906956D+03 0.125708924868960D+04
0.762657007108D-05 0.000000000000D+00 0.000000000000D+00 0.590021412978D-06 0.000000000000D+00  6 1 21 25 23 1 21 2 0.15564599D-01 0.28762899D-01 0.17341889D+05 0.17341889D+05 0.17341889D+05 0.12407032D+01  1  2  2  2  6  2       21 0.513857111777D-01 0.100000000000D+01
-.407170283882D-08 0.402465159757D-06 -.153958476613D-07 0.590021412978D-06 0.000000000000D+00  6 1 21 25 23 1 21 4 0.15564599D-01 0.28762899D-01 0.17341889D+05 0.17341889D+05 0.17341889D+05 0.12407032D+01  1  2  3  2  6  2       21 -.422303814346D-04 0.100000000000D+01
0.988465259202D-06 0.000000000000D+00 0.000000000000D+00 0.590021412978D-06 0.000000000000D+00  6 1 21 25 23 1 21 4 0.15564599D-01 0.28762899D-01 0.17341889D+05 0.17341889D+05 0.17341889D+05 0.12407032D+01  1  2 15  2  6  2       21 0.102520411197D-01 0.100000000000D+01
  </mgrwgt>
  </event>
  <event>
  5     66 0.36102257E-03 0.22019168E+02 0.75467711E-02 0.10716165E+00
        3 -1    0    0  502    0 0.00000000E+00 0.00000000E+00 0.10639784E+03 0.10639902E+03 0.50000000E+00 0.0000E+00 0.9000E+01
       21 -1    0    0  501  502 0.00000000E+00 0.00000000E+00 -.24191315E+03 0.24191431E+03 0.75000000E+00 0.0000E+00 0.9000E+01
       25  1    1    2    0    0 0.35107750E+02 -.11289356E+02 -.72438405E+02 0.14910508E+03 0.12500000E+03 0.0000E+00 0.9000E+01
       23  1    1    2    0    0 -.22905539E+02 -.70391694E+01 -.11149528E+03 0.14601597E+03 0.91188000E+02 0.0000E+00 0.9000E+01
        3  1    1    2  501    0 -.12202210E+02 0.18328525E+02 0.48418379E+02 0.53192276E+02 0.50000000E+00 0.0000E+00 0.9000E+01
#aMCatNLO 1  0  0  2  2 0.45531670D+02 0.00000000D+00  -5  6  0 0.00000000D+00 0.00000000D+00 0.00000000D+00 0.00000000D+00 0.00000000D+00
  <mgrwgt>
 0.1973933473D-01   12    2    0
 0.160435171284764D+03 0.000000000000000D+00 0.000000000000000D+00 0.160435171284764D+03
 0.160435171284764D+03 0.000000000000000D+00 0.000000000000000D+00 -.160435171284764D+03
 0.131264273967087D+03 0.351078516358425D+02 -.112895091996508D+02 -.156619077909759D+02
 0.111415964308194D+03 -.229054524847010D+02 -.703929948072776D+01 -.593637454008458D+02
 0.781901042942469D+02 -.122023991511415D+02 0.183288086803785D+02 0.750256531918217D+02
 0.000000000000000D+00 0.000000000000000D+00 -.000000000000000D+00 -.000000000000000D+00
 0.344250658436358D+03 0.000000000000000D+00 0.000000000000000D+00 0.344250658436358D+03
 0.352807581211371D+03 0.000000000000000D+00 0.000000000000000D+00 -.352807581211371D+03
 0.151887162916467D+03 -.677835736582113D+01 0.845781814334024D+02 -.156619077909759D+02
 0.148973127022219D+03 -.614244585023337D+02 0.811216546950119D+02 -.593637454008458D+02
 0.121467940175664D+03 -.417375435656458D+02 0.859278145350210D+02 0.750256531918217D+02
 0.274730009533379D+03 0.109940359433801D+03 -.251627650663435D+03 -.855692277501367D+01
0.675802564055D-05 0.000000000000D+00 0.000000000000D+00 0.165031110767D-06 0.000000000000D+00  6 3 21 25 23 3 21 2 0.16369078D-01 0.37217588D-01 0.15206550D+05 0.15206550D+05 0.15206550D+05 0.12471460D+01  1  2  2  2  6  2       21 0.112721685665D-01 0.100000000000D+01
-.901304621671D-06 0.356630810930D-06 -.136425066948D-07 0.165031110767D-06 0.000000000000D+00  6 3 21 25 23 3 21 4 0.16369078D-01 0.37217588D-01 0.15206550D+05 0.15206550D+05 0.15206550D+05 0.12471460D+01  1  2  3  2  6  2       21 -.233826556121D-02 0.100000000000D+01
0.148122509538D-05 0.000000000000D+00 0.000000000000D+00 0.165031110767D-06 0.000000000000D+00  6 3 21 25 23 3 21 4 0.16369078D-01 0.37217588D-01 0.15206550D+05 0.15206550D+05 0.15206550D+05 0.12471460D+01  1  2 15  2  6  2       21 0.384276031172D-02 0.100000000000D+01
0.343404140472D-04 0.000000000000D+00 -.312049932085D-04 0.165031110767D-06 0.000000000000D+00  6 3 21 25 23 3 21 4 0.16369078D-01 0.15496713D+00 0.15206550D+05 0.15206550D+05 0.15206550D+05 0.12471460D+01  1  2  5  2  6  2       21 0.366722930223D-02 0.100000000000D+01
0.141730690168D-04 0.000000000000D+00 -.124356461775D-04 0.165031110767D-06 0.000000000000D+00  6 3 -3 25 23 3 -3 4 0.16369078D-01 0.15496713D+00 0.15206550D+05 0.15206550D+05 0.15206550D+05 0.12471460D+01  1  2  5  5  6  2       21 0.816484062165D-04 0.100000000000D+01
0.141730690168D-04 0.000000000000D+00 -.124356461775D-04 0.165031110767D-06 0.000000000000D+00  6 3 3 25 23 3 3 4 0.16369078D-01 0.15496713D+00 0.15206550D+05 0.15206550D+05 0.15206550D+05 0.12471460D+01  1  2  5  6  6  2       21 0.819838952503D-04 0.100000000000D+01
0.141730690168D-04 0.000000000000D+00 -.124356461775D-04 0.165031110767D-06 0.000000000000D+00  6 3 -2 25 23 3 -2 4 0.16369078D-01 0.15496713D+00 0.15206550D+05 0.15206550D+05 0.15206550D+05 0.12471460D+01  1  2  5  7  6  2       21 0.127916931980D-03 0.100000000000D+01
0.141730690168D-04 0.000000000000D+00 -.124356461775D-04 0.165031110767D-06 0.000000000000D+00  6 3 -4 25 23 3 -4 4 0.16369078D-01 0.15496713D+00 0.15206550D+05 0.15206550D+05 0.15206550D+05 0.12471460D+01  1  2  5  7  6  2       21 0.636969545565D-04 0.100000000000D+01
0.141730690168D-04 0.000000000000D+00 -.124356461775D-04 0.165031110767D-06 0.000000000000D+00  6 3 2 25 23 3 2 4 0.16369078D-01 0.15496713D+00 0.15206550D+05 0.15206550D+05 0.15206550D+05 0.12471460D+01  1  2  5  8  6  2       21 0.175379321362D-02 0.100000000000D+01
0.141730690168D-04 0.000000000000D+00 -.124356461775D-04 0.165031110767D-06 0.000000000000D+00  6 3 4 25 23 3 4 4 0.16369078D-01 0.15496713D+00 0.15206550D+05 0.15206550D+05 0.15206550D+05 0.12471460D+01  1  2  5  8  6  2       21 0.636969545565D-04 0.100000000000D+01
0.141730690168D-04 0.000000000000D+00 -.124356461775D-04 0.165031110767D-06 0.000000000000D+00  6 3 -1 25 23 3 -1 4 0.16369078D-01 0.15496713D+00 0.15206550D+05 0.15206550D+05 0.15206550D+05 0.12471460D+01  1  2  5  9  6  2       21 0.175625186926D-03 0.100000000000D+01
0.141730690168D-04 0.000000000000D+00 -.124356461775D-04 0.165031110767D-06 0.000000000000D+00  6 3 1 25 23 3 1 4 0.16369078D-01 0.15496713D+00 0.15206550D+05 0.15206550D+05 0.15206550D+05 0.12471460D+01  1  2  5 10  6  2       21 0.947080571817D-03 0.100000000000D+01
  </mgrwgt>
  </event>
  <event>
  6     66 0.36102257E-03 0.21737637E+02 0.75467711E-02 0.12034383E+00
        3 -1    0    0  502    0 0.00000000E+00 0.00000000E+00 0.92545868E+02 0.92547219E+02 0.50000000E+00 0.0000E+00 0.9000E+01
        2 -1    0    0  501    0 0.00000000E+00 0.00000000E+00 -.21641919E+04 0.21641919E+04 0.32000000E+00 0.0000E+00 0.9000E+01
       25  1    1    2    0    0 0.80680458E+01 -.24382596E+01 -.15739406E+02 0.12626863E+03 0.12500000E+03 0.0000E+00 0.9000E+01
       23  1    1    2    0    0 0.19846465E+02 0.18792424E+01 -.26407636E+02 0.97005300E+02 0.91188000E+02 0.0000E+00 0.9000E+01
        3  1    1    2  501    0 -.19398033E+02 -.35009641E+02 -.22095269E+03 0.22454910E+03 0.50000000E+00 0.0000E+00 0.9000E+01
        2  1    1    2  502    0 -.85164782E+01 0.35568658E+02 -.18085463E+04 0.18089161E+04 0.32000000E+00 0.0000E+00 0.9000E+01
#aMCatNLO 2  0  0  2  5 0.15082782D+02 0.00000000D+00  -5  6  0 0.00000000D+00 0.00000000D+00 0.00000000D+00 0.00000000D+00 0.00000000D+00
  <mgrwgt>
 0.5194403911D-01    1    2    0
 0.180268093231229D+03 0.000000000000000D+00 0.000000000000000D+00 0.180268093231229D+03
 0.180268093231229D+03 0.000000000000000D+00 0.000000000000000D+00 -.180268093231229D+03
 0.144921959019025D+03 0.465725862224363D+01 0.118071706173831D+02 0.722237832715060D+02
 0.100936420293527D+03 0.174710894269624D+02 0.118001921466332D+02 0.377945246988138D+02
 0.114677807149905D+03 -.221283480492060D+02 -.236073627640162D+02 -.110018307970320D+03
 0.000000000000000D+00 -.000000000000000D+00 0.000000000000000D+00 -.000000000000000D+00
 0.181555980209358D+03 0.000000000000000D+00 0.000000000000000D+00 0.181555980209358D+03
 0.110317770765663D+04 0.000000000000000D+00 0.000000000000000D+00 -.110317770765663D+04
 0.144610907103972D+03 0.806813542244399D+01 -.243819076147105D+01 0.722237832715060D+02
 0.100702998030555D+03 0.198465268796326D+02 0.187929293849887D+01 0.377945246988138D+02
 0.117072630992821D+03 -.193981841010431D+02 -.350097599607768D+02 -.110018307970320D+03
 0.922347151738644D+03 -.851647820103346D+01 0.355686577837490D+02 -.921621727447277D+03
0.142663553047D-02 0.000000000000D+00 0.000000000000D+00 0.338334846796D-05 0.802395088505D-06  6 3 2 25 23 3 2 4 0.14237929D-01 0.33295266D+00 0.21789331D+05 0.21789331D+05 0.21789331D+05 0.12297500D+01  1  2  1  8  6  2       21 0.519440391109D-01 0.100000000000D+01
  </mgrwgt>
  </event>
  <event>
  5     66 0.36102257E-03 0.19339477E+03 0.75467711E-02 0.10122997E+00
        1 -1    0    0  502    0 0.00000000E+00 0.00000000E+00 0.26697819E+04 0.26697819E+04 0.32000000E+00 0.0000E+00 0.9000E+01
       21 -1    0    0  501  502 0.00000000E+00 0.00000000E+00 -.10813244E+03 0.10813504E+03 0.75000000E+00 0.0000E+00 0.9000E+01
       25  1    1    2    0    0 0.27584599E+03 -.22643995E+03 0.85683937E+03 0.93657075E+03 0.12500000E+03 0.0000E+00 0.9000E+01
       23  1    1    2    0    0 -.37782025E+02 0.34403165E+03 0.54852212E+03 0.65496338E+03 0.91188000E+02 0.0000E+00 0.9000E+01
        1  1    1    2  501    0 -.23806397E+03 -.11759171E+03 0.11562880E+04 0.11863828E+04 0.32000000E+00 0.0000E+00 0.9000E+01
#aMCatNLO 1  0  0  2  5 0.10061515D+02 0.00000000D+00  -5  6  0 0.00000000D+00 0.00000000D+00 0.00000000D+00 0.00000000D+00 0.00000000D+00
  <mgrwgt>
 0.6742108272D-01   32    2    0
 0.537302220115256D+03 0.000000000000000D+00 0.000000000000000D+00 0.537302220115256D+03
 0.537302220115256D+03 0.000000000000000D+00 0.000000000000000D+00 -.537302220115256D+03
 0.378552022180254D+03 0.275846038286644D+03 -.226439924386529D+03 -.176226360725779D+02
 0.385548860167907D+03 -.377819797804886D+02 0.344031675473178D+03 -.143343644811191D+03
 0.310503557882352D+03 -.238064058506155D+03 -.117591751086649D+03 0.160966280883769D+03
 0.000000000000000D+00 -.000000000000000D+00 -.000000000000000D+00 -.000000000000000D+00
 0.538575916029526D+03 0.000000000000000D+00 0.000000000000000D+00 0.538575916029526D+03
 0.557570240950394D+03 0.000000000000000D+00 0.000000000000000D+00 -.557570240950394D+03
 0.379163154242116D+03 0.278548594103322D+03 -.224142412219881D+03 -.176226360725779D+02
 0.387382600855376D+03 -.350251517785136D+02 0.346375325819566D+03 -.143343644811191D+03
 0.308105787054901D+03 -.235857653863046D+03 -.115716029785796D+03 0.160966280883769D+03
 0.214946148275260D+02 -.766578846176228D+01 -.651688381388963D+01 -.189943249208672D+02
0.210075244398D-03 0.000000000000D+00 0.000000000000D+00 0.792262341008D-08 0.000000000000D+00  6 1 21 25 23 1 21 2 0.41073588D+00 0.16635962D-01 0.25078845D+06 0.25078845D+06 0.25078845D+06 0.11285805D+01  1  2  2  2  6  2       21 0.106043119158D-01 0.100000000000D+01
-.235128947687D-04 0.110859752169D-04 -.424081393079D-06 0.792262341008D-08 0.000000000000D+00  6 1 21 25 23 1 21 4 0.41073588D+00 0.16635962D-01 0.25078845D+06 0.25078845D+06 0.25078845D+06 0.11285805D+01  1  2  3  2  6  2       21 -.151174594929D-02 0.100000000000D+01
0.178093345198D-04 0.000000000000D+00 0.000000000000D+00 0.792262341008D-08 0.000000000000D+00  6 1 21 25 23 1 21 4 0.41073588D+00 0.16635962D-01 0.25078845D+06 0.25078845D+06 0.25078845D+06 0.11285805D+01  1  2 15  2  6  2       21 0.114503933202D-02 0.100000000000D+01
0.205835558662D-02 0.000000000000D+00 0.000000000000D+00 0.791266719969D-08 0.000000000000D+00  6 1 21 25 23 1 21 4 0.41073588D+00 0.17282804D-01 0.25574037D+06 0.25574037D+06 0.25574037D+06 0.11278712D+01  1  2 12  2  6  2       21 0.122705197547D+00 0.100000000000D+01
0.197754682317D-02 0.000000000000D+00 0.000000000000D+00 0.791266719969D-08 0.000000000000D+00  6 1 21 25 23 1 21 4 0.41073588D+00 0.17308399D-01 0.25574037D+06 0.25574037D+06 0.25574037D+06 0.11278712D+01  1  2 12  2  6  2       21 0.117560109142D+00 0.100000000000D+01
-.450123907803D-02 0.000000000000D+00 0.000000000000D+00 0.792262341008D-08 0.000000000000D+00  6 1 21 25 23 1 21 4 0.41073588D+00 0.16635962D-01 0.25078845D+06 0.25078845D+06 0.25078845D+06 0.11285805D+01  1  2  4  2  6  2       21 -.289404176301D+00 0.100000000000D+01
-.236259503405D-01 0.000000000000D+00 -.169335544337D-02 0.792262341008D-08 0.000000000000D+00  6 1 21 25 23 1 21 4 0.41073588D+00 0.17301836D-01 0.25078845D+06 0.25078845D+06 0.25078845D+06 0.11285805D+01  1  2  5  2  6  2       21 -.141107033597D+01 0.100000000000D+01
0.236375672620D-01 0.000000000000D+00 0.168815045297D-02 0.792262341008D-08 0.000000000000D+00  6 1 21 25 23 1 21 4 0.41073588D+00 0.16635962D-01 0.25078845D+06 0.25078845D+06 0.25078845D+06 0.11285805D+01  1  2  6  2  6  2       21 0.151976168442D+01 0.100000000000D+01
0.650125987489D-04 0.000000000000D+00 0.000000000000D+00 0.791266719969D-08 0.000000000000D+00  6 1 -1 25 23 1 -1 4 0.41073588D+00 0.17282804D-01 0.25574037D+06 0.25574037D+06 0.25574037D+06 0.11278712D+01  1  2 12  5  6  2       21 0.309103892383D-03 0.100000000000D+01
0.650200122952D-04 0.000000000000D+00 0.000000000000D+00 0.791266719969D-08 0.000000000000D+00  6 1 -1 25 23 1 -1 4 0.41073588D+00 0.17308399D-01 0.25574037D+06 0.25574037D+06 0.25574037D+06 0.11278712D+01  1  2 12  5  6  2       21 0.308393170956D-03 0.100000000000D+01
-.195919299796D-03 0.000000000000D+00 -.156397585230D-04 0.792262341008D-08 0.000000000000D+00  6 1 -1 25 23 1 -1 4 0.41073588D+00 0.17301836D-01 0.25078845D+06 0.25078845D+06 0.25078845D+06 0.11285805D+01  1  2  5  5  6  2       21 -.933123596968D-03 0.100000000000D+01
0.650125987489D-04 0.000000000000D+00 0.000000000000D+00 0.791266719969D-08 0.000000000000D+00  6 1 1 25 23 1 1 4 0.41073588D+00 0.17282804D-01 0.25574037D+06 0.25574037D+06 0.25574037D+06 0.11278712D+01  1  2 12  6  6  2       21 0.443169469902D-03 0.100000000000D+01
0.650200122952D-04 0.000000000000D+00 0.000000000000D+00 0.791266719969D-08 0.000000000000D+00  6 1 1 25 23 1 1 4 0.41073588D+00 0.17308399D-01 0.25574037D+06 0.25574037D+06 0.25574037D+06 0.11278712D+01  1  2 12  6  6  2       21 0.442350610741D-03 0.100000000000D+01
-.195919299796D-03 0.000000000000D+00 -.156397585230D-04 0.792262341008D-08 0.000000000000D+00  6 1 1 25 23 1 1 4 0.41073588D+00 0.17301836D-01 0.25078845D+06 0.25078845D+06 0.25078845D+06 0.11285805D+01  1  2  5  6  6  2       21 -.133829560917D-02 0.100000000000D+01
0.650125987489D-04 0.000000000000D+00 0.000000000000D+00 0.791266719969D-08 0.000000000000D+00  6 1 -2 25 23 1 -2 4 0.41073588D+00 0.17282804D-01 0.25574037D+06 0.25574037D+06 0.25574037D+06 0.11278712D+01  1  2 12  7  6  2       21 0.286581107647D-03 0.100000000000D+01
0.650125987489D-04 0.000000000000D+00 0.000000000000D+00 0.791266719969D-08 0.000000000000D+00  6 1 -4 25 23 1 -4 4 0.41073588D+00 0.17282804D-01 0.25574037D+06 0.25574037D+06 0.25574037D+06 0.11278712D+01  1  2 12  7  6  2       21 0.173598742026D-03 0.100000000000D+01
0.650200122952D-04 0.000000000000D+00 0.000000000000D+00 0.791266719969D-08 0.000000000000D+00  6 1 -2 25 23 1 -2 4 0.41073588D+00 0.17308399D-01 0.25574037D+06 0.25574037D+06 0.25574037D+06 0.11278712D+01  1  2 12  7  6  2       21 0.285890873208D-03 0.100000000000D+01
0.650200122952D-04 0.000000000000D+00 0.000000000000D+00 0.791266719969D-08 0.000000000000D+00  6 1 -4 25 23 1 -4 4 0.41073588D+00 0.17308399D-01 0.25574037D+06 0.25574037D+06 0.25574037D+06 0.11278712D+01  1  2 12  7  6  2       21 0.173152920257D-03 0.100000000000D+01
-.195919299796D-03 0.000000000000D+00 -.156397585230D-04 0.792262341008D-08 0.000000000000D+00  6 1 -2 25 23 1 -2 4 0.41073588D+00 0.17301836D-01 0.25078845D+06 0.25078845D+06 0.25078845D+06 0.11285805D+01  1  2  5  7  6  2       21 -.865051643078D-03 0.100000000000D+01
-.195919299796D-03 0.000000000000D+00 -.156397585230D-04 0.792262341008D-08 0.000000000000D+00  6 1 -4 25 23 1 -4 4 0.41073588D+00 0.17301836D-01 0.25078845D+06 0.25078845D+06 0.25078845D+06 0.11285805D+01  1  2  5  7  6  2       21 -.523727766348D-03 0.100000000000D+01
0.650125987489D-04 0.000000000000D+00 0.000000000000D+00 0.791266719969D-08 0.000000000000D+00  6 1 2 25 23 1 2 4 0.41073588D+00 0.17282804D-01 0.25574037D+06 0.25574037D+06 0.25574037D+06 0.11278712D+01  1  2 12  8  6  2       21 0.538039198852D-03 0.100000000000D+01
0.650125987489D-04 0.000000000000D+00 0.000000000000D+00 0.791266719969D-08 0.000000000000D+00  6 1 4 25 23 1 4 4 0.41073588D+00 0.17282804D-01 0.25574037D+06 0.25574037D+06 0.25574037D+06 0.11278712D+01  1  2 12  8  6  2       21 0.173598742026D-03 0.100000000000D+01
0.650200122952D-04 0.000000000000D+00 0.000000000000D+00 0.791266719969D-08 0.000000000000D+00  6 1 2 25 23 1 2 4 0.41073588D+00 0.17308399D-01 0.25574037D+06 0.25574037D+06 0.25574037D+06 0.11278712D+01  1  2 12  8  6  2       21 0.537153656079D-03 0.100000000000D+01
0.650200122952D-04 0.000000000000D+00 0.000000000000D+00 0.791266719969D-08 0.000000000000D+00  6 1 4 25 23 1 4 4 0.41073588D+00 0.17308399D-01 0.25574037D+06 0.25574037D+06 0.25574037D+06 0.11278712D+01  1  2 12  8  6  2       21 0.173152920257D-03 0.100000000000D+01
-.195919299796D-03 0.000000000000D+00 -.156397585230D-04 0.792262341008D-08 0.000000000000D+00  6 1 2 25 23 1 2 4 0.41073588D+00 0.17301836D-01 0.25078845D+06 0.25078845D+06 0.25078845D+06 0.11285805D+01  1  2  5  8  6  2       21 -.162499601399D-02 0.100000000000D+01
-.195919299796D-03 0.000000000000D+00 -.156397585230D-04 0.792262341008D-08 0.000000000000D+00  6 1 4 25 23 1 4 4 0.41073588D+00 0.17301836D-01 0.25078845D+06 0.25078845D+06 0.25078845D+06 0.11285805D+01  1  2  5  8  6  2       21 -.523727766348D-03 0.100000000000D+01
0.650125987489D-04 0.000000000000D+00 0.000000000000D+00 0.791266719969D-08 0.000000000000D+00  6 1 -3 25 23 1 -3 4 0.41073588D+00 0.17282804D-01 0.25574037D+06 0.25574037D+06 0.25574037D+06 0.11278712D+01  1  2 12  9  6  2       21 0.198194518985D-03 0.100000000000D+01
0.650200122952D-04 0.000000000000D+00 0.000000000000D+00 0.791266719969D-08 0.000000000000D+00  6 1 -3 25 23 1 -3 4 0.41073588D+00 0.17308399D-01 0.25574037D+06 0.25574037D+06 0.25574037D+06 0.11278712D+01  1  2 12  9  6  2       21 0.197695885862D-03 0.100000000000D+01
-.195919299796D-03 0.000000000000D+00 -.156397585230D-04 0.792262341008D-08 0.000000000000D+00  6 1 -3 25 23 1 -3 4 0.41073588D+00 0.17301836D-01 0.25078845D+06 0.25078845D+06 0.25078845D+06 0.11285805D+01  1  2  5  9  6  2       21 -.598030481641D-03 0.100000000000D+01
0.650125987489D-04 0.000000000000D+00 0.000000000000D+00 0.791266719969D-08 0.000000000000D+00  6 1 3 25 23 1 3 4 0.41073588D+00 0.17282804D-01 0.25574037D+06 0.25574037D+06 0.25574037D+06 0.11278712D+01  1  2 12 10  6  2       21 0.198179086200D-03 0.100000000000D+01
0.650200122952D-04 0.000000000000D+00 0.000000000000D+00 0.791266719969D-08 0.000000000000D+00  6 1 3 25 23 1 3 4 0.41073588D+00 0.17308399D-01 0.25574037D+06 0.25574037D+06 0.25574037D+06 0.11278712D+01  1  2 12 10  6  2       21 0.197680524714D-03 0.100000000000D+01
-.195919299796D-03 0.000000000000D+00 -.156397585230D-04 0.792262341008D-08 0.000000000000D+00  6 1 3 25 23 1 3 4 0.41073588D+00 0.17301836D-01 0.25078845D+06 0.25078845D+06 0.25078845D+06 0.11285805D+01  1  2  5 10  6  2       21 -.597983861380D-03 0.100000000000D+01
  </mgrwgt>
  </event>
  <event>
  6     66 -.36102257E-03 0.32657202E+02 0.75467711E-02 0.11935879E+00
        1 -1    0    0  502    0 0.00000000E+00 0.00000000E+00 0.13074250E+03 0.13074290E+03 0.32000000E+00 0.0000E+00 0.9000E+01
       21 -1    0    0  501  503 0.00000000E+00 0.00000000E+00 -.35018196E+03 0.35018276E+03 0.75000000E+00 0.0000E+00 0.9000E+01
       25  1    1    2    0    0 -.65863660E+02 -.54824584E+02 0.55569546E+02 0.16142097E+03 0.12500000E+03 0.0000E+00 0.9000E+01
       23  1    1    2    0    0 0.52219968E+02 0.21746071E+02 -.16107424E+03 0.19354581E+03 0.91188000E+02 0.0000E+00 0.9000E+01
        1  1    1    2  501    0 0.18591710E+01 0.39268512E+02 -.94885119E+02 0.10270716E+03 0.32000000E+00 0.0000E+00 0.9000E+01
       21  1    1    2  502  503 0.11784521E+02 -.61899996E+01 -.19049637E+02 0.23251714E+02 0.75000000E+00 0.0000E+00 0.9000E+01
#aMCatNLO 2  0  0  2  1 0.13311312D+02 0.00000000D+00  -5  6  0 0.00000000D+00 0.00000000D+00 0.00000000D+00 0.00000000D+00 0.00000000D+00
  <mgrwgt>
 -.2374445878D-01    3    2    0
 0.205628407364056D+03 0.000000000000000D+00 0.000000000000000D+00 0.205628407364056D+03
 0.205628407364056D+03 0.000000000000000D+00 0.000000000000000D+00 -.205628407364056D+03
 0.205655077184952D+03 -.599585434179557D+02 -.579265621618709D+02 0.140422566702267D+03
 0.138074185886733D+03 0.561576521814913D+02 0.196775901735188D+02 -.849019435037252D+02
 0.675275516564283D+02 0.380089123646441D+01 0.382489719883521D+02 -.555206231985414D+02
 0.000000000000000D+00 0.000000000000000D+00 -.000000000000000D+00 -.000000000000000D+00
 0.209087861028805D+03 0.000000000000000D+00 0.000000000000000D+00 0.209087861028805D+03
 0.218952325673708D+03 0.000000000000000D+00 0.000000000000000D+00 -.218952325673708D+03
 0.206609004791362D+03 -.658636892936471D+02 -.548247941560623D+02 0.140422566702267D+03
 0.136833477590441D+03 0.522199580525338D+02 0.217459241186867D+02 -.849019435037252D+02
 0.680297022085655D+02 0.185921017915875D+01 0.392688696010135D+02 -.555206231985414D+02
 0.165680021121446D+02 0.117845210619545D+02 -.618999956363792D+01 -.986446464490290D+01
-.166114385497D-04 0.000000000000D+00 0.000000000000D+00 0.288270280094D-06 0.000000000000D+00  6 1 21 25 23 1 21 4 0.19780728D-01 0.54279414D-01 0.24256034D+05 0.24256034D+05 0.24256034D+05 0.12247068D+01  1  2 13  2  6  2       21 -.336461401684D-01 0.100000000000D+01
-.565720406314D-06 0.000000000000D+00 0.000000000000D+00 0.290294939887D-06 0.000000000000D+00  6 1 21 25 23 1 21 4 0.19780728D-01 0.50593793D-01 0.22137686D+05 0.22137686D+05 0.22137686D+05 0.12290001D+01  1  2  8  2  6  2       21 -.134722048719D-02 0.100000000000D+01
0.558425468260D-05 0.000000000000D+00 0.000000000000D+00 0.290294939887D-06 0.159228016595D-07  6 1 21 25 23 1 21 4 0.20113515D-01 0.53872074D-01 0.24256034D+05 0.24256034D+05 0.24256034D+05 0.12247068D+01  1  2  1  2  6  2       21 0.112489018719D-01 0.100000000000D+01
  </mgrwgt>
  </event>
  <event>
  6     66 0.36102257E-03 0.18139850E+02 0.75467711E-02 0.11884717E+00
        1 -1    0    0  502    0 0.00000000E+00 0.00000000E+00 0.95530533E+02 0.95531069E+02 0.32000000E+00 0.0000E+00 0.9000E+01
       21 -1    0    0  501  502 -.00000000E+00 -.00000000E+00 -.30437672E+03 0.30437764E+03 0.75000000E+00 0.0000E+00 0.9000E+01
       25  1    1    2    0    0 -.93477829E+02 0.42827804E+02 -.69561911E+02 0.17617090E+03 0.12500000E+03 0.0000E+00 0.9000E+01
       23  1    1    2    0    0 0.81653338E+02 -.28976444E+02 -.69072674E+02 0.14350327E+03 0.91188000E+02 0.0000E+00 0.9000E+01
        1  1    1    2  503    0 0.20974886E+02 -.10175703E+02 -.25966760E+02 0.34897934E+02 0.32000000E+00 0.0000E+00 0.9000E+01
       21  1    1    2  501  503 -.91503954E+01 -.36756568E+01 -.44244842E+02 0.45336616E+02 0.75000000E+00 0.0000E+00 0.9000E+01
#aMCatNLO 2  0  0  5  2 0.17104120D+02 0.00000000D+00  -5  6  0 0.00000000D+00 0.00000000D+00 0.00000000D+00 0.00000000D+00 0.00000000D+00
  <mgrwgt>
 0.4895719704D-01    1    2    0
 0.170521442469483D+03 0.000000000000000D+00 0.000000000000000D+00 0.170521442469483D+03
 0.170521442469483D+03 -.000000000000000D+00 -.000000000000000D+00 -.170521442469483D+03
 0.166796120842758D+03 -.955199851991308D+02 0.452200113114876D+02 0.320472921280184D+02
 0.124883609292220D+03 0.801045883826340D+02 -.271622186591593D+02 0.112309092869899D+02
 0.493631548039889D+02 0.154153968164968D+02 -.180577926523283D+02 -.432782014150083D+02
 0.000000000000000D+00 0.000000000000000D+00 0.000000000000000D+00 -.000000000000000D+00
 0.170521442469483D+03 0.000000000000000D+00 0.000000000000000D+00 0.170521442469483D+03
 0.170521442469483D+03 -.000000000000000D+00 -.000000000000000D+00 -.170521442469483D+03
 0.163988277739088D+03 -.934833517216525D+02 0.428342728525375D+02 0.263295130207995D+02
 0.125971069061317D+03 0.816490960380955D+02 -.289714746468098D+02 0.689475666012085D+01
 0.245453218858465D+02 0.207540799962403D+02 -.994058195688652D+01 -.853966160617000D+01
 0.265382162527145D+02 -.891982431268325D+01 -.392221624884114D+01 -.246846080747503D+02
0.122361646545D-04 0.000000000000D+00 0.000000000000D+00 0.110342910272D-05 0.930581215457D-07  6 1 21 25 23 1 21 4 0.14697117D-01 0.46827300D-01 0.25663878D+05 0.25663878D+05 0.25663878D+05 0.12220792D+01  1  2  1  3  6  5        1 0.489571970401D-01 0.100000000000D+01
  </mgrwgt>
  </event>
  <event>
  5     66 0.36102257E-03 0.23294454E+02 0.75467711E-02 0.12306457E+00
        1 -1    0    0  502    0 0.00000000E+00 0.00000000E+00 0.16708899E+03 0.16708929E+03 0.32000000E+00 0.0000E+00 0.9000E+01
       21 -1    0    0  501  502 0.00000000E+00 0.00000000E+00 -.92317280E+02 0.92320326E+02 0.75000000E+00 0.0000E+00 0.9000E+01
       25  1    1    2    0    0 -.17474308E+02 -.20890701E+02 0.27374667E+02 0.13082869E+03 0.12500000E+03 0.0000E+00 0.9000E+01
       23  1    1    2    0    0 0.26547193E+02 -.56216452E+00 0.45200896E+02 0.10518290E+03 0.91188000E+02 0.0000E+00 0.9000E+01
        1  1    1    2  501    0 -.90728852E+01 0.21452866E+02 0.21961451E+01 0.23398037E+02 0.32000000E+00 0.0000E+00 0.9000E+01
#aMCatNLO 1  0  0  2  2 0.93793838D+01 0.00000000D+00  -5  6  0 0.00000000D+00 0.00000000D+00 0.00000000D+00 0.00000000D+00 0.00000000D+00
  <mgrwgt>
 0.3057481119D-01   13    2    0
 0.124199983003462D+03 0.000000000000000D+00 0.000000000000000D+00 0.124199983003462D+03
 0.124199983003462D+03 0.000000000000000D+00 0.000000000000000D+00 -.124199983003462D+03
 0.128387259870700D+03 -.174738831982465D+02 -.208917057822938D+02 -.107929853417251D+02
 0.962388894798120D+02 0.265475116801749D+02 -.562917548209500D+00 0.155430129554203D+02
 0.237738166564123D+02 -.907362848192842D+01 0.214546233305033D+02 -.475002761369521D+01
 0.000000000000000D+00 -.000000000000000D+00 0.000000000000000D+00 0.000000000000000D+00
 0.131396904213965D+03 0.000000000000000D+00 0.000000000000000D+00 0.131396904213965D+03
 0.127382459934560D+03 0.000000000000000D+00 0.000000000000000D+00 -.127382459934560D+03
 0.129214628193231D+03 -.171006729653755D+02 -.257390479750047D+02 -.107929853417251D+02
 0.964056150601315D+02 0.268266125087482D+02 -.418794468628154D+01 0.155430129554203D+02
 0.229567386899186D+02 -.900592586695898D+01 0.205752858601085D+02 -.475002761369521D+01
 0.102023822052431D+02 -.720013676413667D+00 0.935170680117777D+01 0.401444427940462D+01
0.204422222135D-05 0.000000000000D+00 0.000000000000D+00 0.778574420260D-06 0.000000000000D+00  6 1 21 25 23 1 21 2 0.25706256D-01 0.14202916D-01 0.15153944D+05 0.15153944D+05 0.15153944D+05 0.12473173D+01  1  2  2  2  6  2       21 0.271544713203D-01 0.100000000000D+01
0.816643897620D-07 0.107876570362D-06 -.412669569839D-08 0.778574420260D-06 0.000000000000D+00  6 1 21 25 23 1 21 4 0.25706256D-01 0.14202916D-01 0.15153944D+05 0.15153944D+05 0.15153944D+05 0.12473173D+01  1  2  3  2  6  2       21 0.168771797413D-02 0.100000000000D+01
0.161791625899D-06 0.000000000000D+00 0.000000000000D+00 0.778574420260D-06 0.000000000000D+00  6 1 21 25 23 1 21 4 0.25706256D-01 0.14202916D-01 0.15153944D+05 0.15153944D+05 0.15153944D+05 0.12473173D+01  1  2 15  2  6  2       21 0.334366834663D-02 0.100000000000D+01
-.779563104269D-07 0.000000000000D+00 0.000000000000D+00 0.778574420260D-06 0.000000000000D+00  6 1 21 25 23 1 21 4 0.25706256D-01 0.14202916D-01 0.15153944D+05 0.15153944D+05 0.15153944D+05 0.12473173D+01  1  2  4  2  6  2       21 -.161108491336D-02 0.100000000000D+01
0.164570681439D-11 0.000000000000D+00 0.000000000000D+00 0.778574420260D-06 0.115926474200D-06  6 1 21 25 23 1 21 4 0.27195837D-01 0.14566849D-01 0.16351608D+05 0.16351608D+05 0.16351608D+05 0.12435735D+01  1  2 11  2  6  2       21 0.299694891784D-07 0.100000000000D+01
0.131667190982D-11 0.000000000000D+00 0.000000000000D+00 0.773907650810D-06 0.910255303169D-07  6 1 -1 25 23 1 -1 4 0.27195837D-01 0.14566849D-01 0.16351608D+05 0.16351608D+05 0.16351608D+05 0.12435735D+01  1  2 11  5  6  2       21 0.173056344170D-08 0.100000000000D+01
0.597223411773D-12 0.000000000000D+00 0.000000000000D+00 0.773907650810D-06 0.572334149486D-09  6 1 1 25 23 1 1 4 0.27195837D-01 0.14566849D-01 0.16351608D+05 0.16351608D+05 0.16351608D+05 0.12435735D+01  1  2 11  6  6  2       21 0.107390512827D-08 0.100000000000D+01
0.110673308963D-11 0.000000000000D+00 0.000000000000D+00 0.773907650810D-06 0.534103894528D-09  6 1 -2 25 23 1 -2 4 0.27195837D-01 0.14566849D-01 0.16351608D+05 0.16351608D+05 0.16351608D+05 0.12435735D+01  1  2 11  7  6  2       21 0.136223261091D-08 0.100000000000D+01
0.110673308963D-11 0.000000000000D+00 0.000000000000D+00 0.773907650810D-06 0.534103894528D-09  6 1 -4 25 23 1 -4 4 0.27195837D-01 0.14566849D-01 0.16351608D+05 0.16351608D+05 0.16351608D+05 0.12435735D+01  1  2 11  7  6  2       21 0.779191291330D-09 0.100000000000D+01
0.993902590448D-12 0.000000000000D+00 0.000000000000D+00 0.773907650810D-06 0.479652455784D-09  6 1 2 25 23 1 2 4 0.27195837D-01 0.14566849D-01 0.16351608D+05 0.16351608D+05 0.16351608D+05 0.12435735D+01  1  2 11  8  6  2       21 0.211735645624D-08 0.100000000000D+01
0.993902590448D-12 0.000000000000D+00 0.000000000000D+00 0.773907650810D-06 0.479652455784D-09  6 1 4 25 23 1 4 4 0.27195837D-01 0.14566849D-01 0.16351608D+05 0.16351608D+05 0.16351608D+05 0.12435735D+01  1  2 11  8  6  2       21 0.699753400493D-09 0.100000000000D+01
0.349475575835D-12 0.000000000000D+00 0.000000000000D+00 0.773907650810D-06 0.168655177878D-09  6 1 -3 25 23 1 -3 4 0.27195837D-01 0.14566849D-01 0.16351608D+05 0.16351608D+05 0.16351608D+05 0.12435735D+01  1  2 11  9  6  2       21 0.285928588032D-09 0.100000000000D+01
0.544386615233D-12 0.000000000000D+00 0.000000000000D+00 0.773907650810D-06 0.262718277830D-09  6 1 3 25 23 1 3 4 0.27195837D-01 0.14566849D-01 0.16351608D+05 0.16351608D+05 0.16351608D+05 0.12435735D+01  1  2 11 10  6  2       21 0.445341588103D-09 0.100000000000D+01
  </mgrwgt>
  </event>
  <event>
  6     66 0.36102257E-03 0.18912129E+03 0.75467711E-02 0.10927202E+00
        1 -1    0    0  502    0 0.00000000E+00 0.00000000E+00 0.10466572E+04 0.10466573E+04 0.32000000E+00 0.0000E+00 0.9000E+01
       21 -1    0    0  501  502 0.00000000E+00 0.00000000E+00 -.23813278E+03 0.23813396E+03 0.75000000E+00 0.0000E+00 0.9000E+01
       25  1    1    2    0    0 0.37176252E+01 0.11873045E+01 0.30902670E+02 0.12882238E+03 0.12500000E+03 0.0000E+00 0.9000E+01
       23  1    1    2    0    0 0.19705531E+03 0.61577402E+02 0.88312458E+03 0.91150801E+03 0.91188000E+02 0.0000E+00 0.9000E+01
        1  1    1    2  503    0 -.18457688E+03 -.75707690E+02 -.91875078E+02 0.21963927E+03 0.32000000E+00 0.0000E+00 0.9000E+01
       21  1    1    2  501  503 -.16196058E+02 0.12942983E+02 -.13627731E+02 0.24821577E+02 0.75000000E+00 0.0000E+00 0.9000E+01
#aMCatNLO 2  0  0  5  2 0.20045909D+02 0.00000000D+00  -5  6  0 0.00000000D+00 0.00000000D+00 0.00000000D+00 0.00000000D+00 0.00000000D+00
  <mgrwgt>
 0.1830250198D-01    3    2    0
 0.499243615410681D+03 0.000000000000000D+00 0.000000000000000D+00 0.499243615410681D+03
 0.499243615410681D+03 -.000000000000000D+00 -.000000000000000D+00 -.499243615410681D+03
 0.140448463467275D+03 0.411391977295195D+01 0.131119225371997D+01 -.638915278365907D+02
 0.460244781640577D+03 0.198349121134642D+03 0.619818671307834D+02 0.400407145260270D+03
 0.397793985713510D+03 -.202463040907594D+03 -.632930593845035D+02 -.336515617423679D+03
 0.000000000000000D+00 0.000000000000000D+00 0.000000000000000D+00 -.000000000000000D+00
 0.499243615410681D+03 0.000000000000000D+00 0.000000000000000D+00 0.499243615410681D+03
 0.499243615410681D+03 -.000000000000000D+00 -.000000000000000D+00 -.499243615410681D+03
 0.140737537459739D+03 0.371716939716965D+01 0.118716198635540D+01 -.645509701578704D+02
 0.457759336396737D+03 0.197053827351878D+03 0.615769383796131D+02 0.398254225966468D+03
 0.356983930192749D+03 -.184565648101851D+03 -.757320350567131D+02 -.296036664659589D+03
 0.430064267721369D+02 -.162053486471970D+02 0.129679346907445D+02 -.376665911490083D+02
-.817834216797D-04 0.000000000000D+00 0.000000000000D+00 0.400550510296D-07 0.000000000000D+00  6 1 21 25 23 1 21 4 0.16102428D+00 0.36635907D-01 0.81512460D+05 0.81512460D+05 0.81512460D+05 0.11718160D+01  1  2 13  3  6  5        1 -.176166173862D-01 0.100000000000D+01
-.427131193399D-05 0.000000000000D+00 0.000000000000D+00 0.401226748105D-07 0.000000000000D+00  6 1 21 25 23 1 21 4 0.16102428D+00 0.36635907D-01 0.79562061D+05 0.79562061D+05 0.79562061D+05 0.11728048D+01  1  2  8  3  6  5        1 -.924401860829D-03 0.100000000000D+01
0.171042440589D-03 0.000000000000D+00 0.000000000000D+00 0.401226748105D-07 0.150735747199D-08  6 1 21 25 23 1 21 4 0.16102428D+00 0.36635907D-01 0.81512460D+05 0.81512460D+05 0.81512460D+05 0.11718160D+01  1  2  1  3  6  5        1 0.368435212268D-01 0.100000000000D+01
  </mgrwgt>
  </event>
  <event>
  6     66 0.36102257E-03 0.75214013E+02 0.75467711E-02 0.11338655E+00
       21 -1    0    0  502  503 0.00000000E+00 0.00000000E+00 0.56344547E+03 0.56344597E+03 0.75000000E+00 0.0000E+00 0.9000E+01
       21 -1    0    0  501  502 0.00000000E+00 0.00000000E+00 -.12418025E+03 0.12418251E+03 0.75000000E+00 0.0000E+00 0.9000E+01
       25  1    1    2    0    0 -.12786666E+03 -.10990141E+02 0.15320658E+03 0.23572850E+03 0.12500000E+03 0.0000E+00 0.9000E+01
       23  1    1    2    0    0 -.31460289E+02 0.27858515E+02 0.10003351E+02 0.10090176E+03 0.91188000E+02 0.0000E+00 0.9000E+01
        3  1    1    2  501    0 0.10343643E+03 -.64664236E+01 0.44888606E+02 0.11294311E+03 0.50000000E+00 0.0000E+00 0.9000E+01
       -3  1    1    2    0  503 0.55890520E+02 -.10401951E+02 0.23116669E+03 0.23805512E+03 0.50000000E+00 0.0000E+00 0.9000E+01
#aMCatNLO 2  0  0  1  2 0.56850249D+02 0.00000000D+00  -5  6  0 0.00000000D+00 0.00000000D+00 0.00000000D+00 0.00000000D+00 0.00000000D+00
  <mgrwgt>
 0.7620057000D-03    2    2    0
 0.197217683512045D+03 0.000000000000000D+00 0.000000000000000D+00 0.197217683512045D+03
 0.197217683512045D+03 0.000000000000000D+00 0.000000000000000D+00 -.197217683512045D+03
 0.170022989962627D+03 -.102777926985401D+03 -.156595273697747D+02 0.497422762142077D+02
 0.104536675796612D+03 -.164372299198079D+02 0.250624992416646D+02 -.414047563322249D+02
 0.119875701264850D+03 0.119215156905209D+03 -.940297187188987D+01 -.833751988198270D+01
 0.000000000000000D+00 0.000000000000000D+00 -.000000000000000D+00 0.000000000000000D+00
 0.341415608251762D+03 0.000000000000000D+00 0.000000000000000D+00 0.341415608251762D+03
 0.204939271252508D+03 0.000000000000000D+00 0.000000000000000D+00 -.204939271252508D+03
 0.185930322301161D+03 -.127867151646706D+03 -.109900972607822D+02 0.497422762142077D+02
 0.108606956238059D+03 -.314605722655629D+02 0.278585381003371D+02 -.414047563322249D+02
 0.103973962864836D+03 0.103437204234986D+03 -.646649024477010D+01 -.833751988198270D+01
 0.147843638100214D+03 0.558905196772832D+02 -.104019505947848D+02 0.136476336999254D+03
-.856651712651D-06 0.000000000000D+00 0.000000000000D+00 0.134979026641D-06 0.000000000000D+00  6 21 21 25 23 3 -3 4 0.87028782D-01 0.18385006D-01 0.48410370D+05 0.48410370D+05 0.48410370D+05 0.11936739D+01  1  2 13  4  6  1        3 -.525083939903D-02 0.100000000000D+01
0.104408508682D-05 0.000000000000D+00 0.000000000000D+00 0.138006271599D-06 0.274209917932D-10  6 21 21 25 23 3 -3 4 0.86683957D-01 0.19104827D-01 0.48410370D+05 0.48410370D+05 0.48410370D+05 0.11936739D+01  1  2  1  4  6  1        3 0.601284509900D-02 0.100000000000D+01
  </mgrwgt>
  </event>
  <event>
  6     66 -.36102257E-03 0.56376703E+02 0.75467711E-02 0.11743523E+00
        1 -1    0    0  502    0 0.00000000E+00 0.00000000E+00 0.18932672E+03 0.18932699E+03 0.32000000E+00 0.0000E+00 0.9000E+01
       21 -1    0    0  503  502 0.00000000E+00 0.00000000E+00 -.20280070E+03 0.20280209E+03 0.75000000E+00 0.0000E+00 0.9000E+01
       25  1    1    2    0    0 0.77792403E+02 0.61963083E+02 -.15299112E+02 0.16046852E+03 0.12500000E+03 0.0000E+00 0.9000E+01
       23  1    1    2    0    0 -.24958345E+02 0.12798356E+02 -.46427728E+02 0.10610138E+03 0.91188000E+02 0.0000E+00 0.9000E+01
        1  1    1    2  501    0 -.40854491E+02 -.54526573E+02 0.66938267E+02 0.95514767E+02 0.32000000E+00 0.0000E+00 0.9000E+01
       21  1    1    2  503  501 -.11979567E+02 -.20234866E+02 -.18685412E+02 0.30044416E+02 0.75000000E+00 0.0000E+00 0.9000E+01
#aMCatNLO 2  0  0  2  5 0.23515097D+02 0.00000000D+00  -5  6  0 0.00000000D+00 0.00000000D+00 0.00000000D+00 0.00000000D+00 0.00000000D+00
  <mgrwgt>
 -.1003493080D-01    3    2    0
 0.180641344530591D+03 0.000000000000000D+00 0.000000000000000D+00 0.180641344530591D+03
 0.180641344530591D+03 0.000000000000000D+00 0.000000000000000D+00 -.180641344530591D+03
 0.154995589089500D+03 0.725639612589163D+02 0.531316110635458D+02 -.176106805492456D+02
 0.107117406414389D+03 -.285007907725353D+02 0.681473572788125D+01 -.479598969478112D+02
 0.991696935572933D+02 -.440631704863811D+02 -.599463467914270D+02 0.655705774970568D+02
 0.000000000000000D+00 -.000000000000000D+00 -.000000000000000D+00 -.000000000000000D+00
 0.186617361111087D+03 0.000000000000000D+00 0.000000000000000D+00 0.186617361111087D+03
 0.205736711961515D+03 0.000000000000000D+00 0.000000000000000D+00 -.205736711961515D+03
 0.160705479113997D+03 0.777925054630766D+02 0.619632232992190D+02 -.176106805492456D+02
 0.106780704871203D+03 -.249582758979190D+02 0.127984505995698D+02 -.479598969478112D+02
 0.945609693298453D+02 -.408546627028288D+02 -.545268082940905D+02 0.655705774970568D+02
 0.303069197575570D+02 -.119795668623288D+02 -.202348656046983D+02 -.191193508504288D+02
-.574623187956D-05 0.000000000000D+00 0.000000000000D+00 0.129834870344D-06 0.000000000000D+00  6 1 21 25 23 1 21 4 0.28193888D-01 0.31609390D-01 0.30066038D+05 0.30066038D+05 0.30066038D+05 0.12147982D+01  1  2 13  2  6  2       21 -.214231875956D-01 0.100000000000D+01
-.505192931389D-05 0.000000000000D+00 0.000000000000D+00 0.129834870344D-06 0.000000000000D+00  6 1 21 25 23 1 21 4 0.28193888D-01 0.32159195D-01 0.30066038D+05 0.30066038D+05 0.30066038D+05 0.12147982D+01  1  2 13  2  6  2       21 -.182094960035D-01 0.100000000000D+01
0.806158402976D-05 0.000000000000D+00 0.000000000000D+00 0.131162647202D-06 0.532817753104D-08  6 1 21 25 23 1 21 4 0.29126604D-01 0.31199474D-01 0.30066038D+05 0.30066038D+05 0.30066038D+05 0.12147982D+01  1  2  1  2  6  2       21 0.295977528026D-01 0.100000000000D+01
  </mgrwgt>
  </event>
  <event>
  5     66 -.36102257E-03 0.20560742E+02 0.75467711E-02 0.12205313E+00
        1 -1    0    0  502    0 0.00000000E+00 0.00000000E+00 0.10224683E+03 0.10224733E+03 0.32000000E+00 0.0000E+00 0.9000E+01
       21 -1    0    0  501  502 0.00000000E+00 0.00000000E+00 -.15129319E+03 0.15129505E+03 0.75000000E+00 0.0000E+00 0.9000E+01
       25  1    1    2    0    0 -.29656500E+02 -.74978729E+01 -.51351933E+02 0.13855593E+03 0.12500000E+03 0.0000E+00 0.9000E+01
       23  1    1    2    0    0 0.10438350E+02 0.14799533E+02 0.88995218E+01 0.93393994E+02 0.91188000E+02 0.0000E+00 0.9000E+01
        1  1    1    2  501    0 0.19218151E+02 -.73016603E+01 -.65939495E+01 0.21592455E+02 0.32000000E+00 0.0000E+00 0.9000E+01
#aMCatNLO 1  0  0  2  1 0.20225735D+01 0.00000000D+00  -5  6  0 0.00000000D+00 0.00000000D+00 0.00000000D+00 0.00000000D+00 0.00000000D+00
  <mgrwgt>
 -.2429639282D+00   12    2    0
 0.124376640973312D+03 0.000000000000000D+00 0.000000000000000D+00 0.124376640973312D+03
 0.124376640973312D+03 0.000000000000000D+00 0.000000000000000D+00 -.124376640973312D+03
 0.131098695999270D+03 -.296577097741820D+02 -.749741334194277D+01 -.250215334629874D+02
 0.969467497680403D+02 0.104374550822561D+02 0.147998730175404D+02 0.274853458529739D+02
 0.207078361793134D+02 0.192202546919259D+02 -.730245967559765D+01 -.246381238998657D+01
 0.000000000000000D+00 -.000000000000000D+00 -.000000000000000D+00 -.000000000000000D+00
 0.125692455110996D+03 0.000000000000000D+00 0.000000000000000D+00 0.125692455110996D+03
 0.386365511819647D+03 0.000000000000000D+00 0.000000000000000D+00 -.386365511819647D+03
 0.129905398835042D+03 -.244746157459313D+02 0.503276203898710D+01 -.250215334629874D+02
 0.993120199398317D+02 0.143348179106456D+02 0.242217819191853D+02 0.274853458529739D+02
 0.208823070606784D+02 0.200461636616612D+02 -.530581748021021D+01 -.246381238998657D+01
 0.261958241095091D+03 -.990636582637550D+01 -.239487264779622D+02 -.260673056708651D+03
0.546114583739D-06 0.000000000000D+00 0.000000000000D+00 0.773411197989D-06 0.000000000000D+00  6 1 21 25 23 1 21 2 0.15730463D-01 0.23276057D-01 0.14667443D+05 0.14667443D+05 0.14667443D+05 0.12489341D+01  1  2  2  2  6  2       21 0.548270952716D-02 0.100000000000D+01
0.278393037281D-07 0.288192583483D-07 -.110244800198D-08 0.773411197989D-06 0.000000000000D+00  6 1 21 25 23 1 21 4 0.15730463D-01 0.23276057D-01 0.14667443D+05 0.14667443D+05 0.14667443D+05 0.12489341D+01  1  2  3  2  6  2       21 0.435962225070D-03 0.100000000000D+01
0.633674284950D-07 0.000000000000D+00 0.000000000000D+00 0.773411197989D-06 0.000000000000D+00  6 1 21 25 23 1 21 4 0.15730463D-01 0.23276057D-01 0.14667443D+05 0.14667443D+05 0.14667443D+05 0.12489341D+01  1  2 15  2  6  2       21 0.992331036489D-03 0.100000000000D+01
-.110122498220D-03 0.000000000000D+00 -.146675668656D-05 0.773411197989D-06 0.000000000000D+00  6 1 21 25 23 1 21 4 0.15730463D-01 0.72520364D-01 0.14667443D+05 0.14667443D+05 0.14667443D+05 0.12489341D+01  1  2  5  2  6  2       21 -.175204576035D+00 0.100000000000D+01
-.408351190578D-04 0.000000000000D+00 -.528743719666D-06 0.773411197989D-06 0.000000000000D+00  6 1 -1 25 23 1 -1 4 0.15730463D-01 0.72520364D-01 0.14667443D+05 0.14667443D+05 0.14667443D+05 0.12489341D+01  1  2  5  5  6  2       21 -.689041402387D-02 0.100000000000D+01
-.408351190578D-04 0.000000000000D+00 -.528743719666D-06 0.773411197989D-06 0.000000000000D+00  6 1 1 25 23 1 1 4 0.15730463D-01 0.72520364D-01 0.14667443D+05 0.14667443D+05 0.14667443D+05 0.12489341D+01  1  2  5  6  6  2       21 -.199230465667D-01 0.100000000000D+01
-.408351190578D-04 0.000000000000D+00 -.528743719666D-06 0.773411197989D-06 0.000000000000D+00  6 1 -2 25 23 1 -2 4 0.15730463D-01 0.72520364D-01 0.14667443D+05 0.14667443D+05 0.14667443D+05 0.12489341D+01  1  2  5  7  6  2       21 -.531861059580D-02 0.100000000000D+01
-.408351190578D-04 0.000000000000D+00 -.528743719666D-06 0.773411197989D-06 0.000000000000D+00  6 1 -4 25 23 1 -4 4 0.15730463D-01 0.72520364D-01 0.14667443D+05 0.14667443D+05 0.14667443D+05 0.12489341D+01  1  2  5  7  6  2       21 -.265773671966D-02 0.100000000000D+01
-.408351190578D-04 0.000000000000D+00 -.528743719666D-06 0.773411197989D-06 0.000000000000D+00  6 1 2 25 23 1 2 4 0.15730463D-01 0.72520364D-01 0.14667443D+05 0.14667443D+05 0.14667443D+05 0.12489341D+01  1  2  5  8  6  2       21 -.306257508135D-01 0.100000000000D+01
-.408351190578D-04 0.000000000000D+00 -.528743719666D-06 0.773411197989D-06 0.000000000000D+00  6 1 4 25 23 1 4 4 0.15730463D-01 0.72520364D-01 0.14667443D+05 0.14667443D+05 0.14667443D+05 0.12489341D+01  1  2  5  8  6  2       21 -.265773671966D-02 0.100000000000D+01
-.408351190578D-04 0.000000000000D+00 -.528743719666D-06 0.773411197989D-06 0.000000000000D+00  6 1 -3 25 23 1 -3 4 0.15730463D-01 0.72520364D-01 0.14667443D+05 0.14667443D+05 0.14667443D+05 0.12489341D+01  1  2  5  9  6  2       21 -.329682579751D-02 0.100000000000D+01
-.408351190578D-04 0.000000000000D+00 -.528743719666D-06 0.773411197989D-06 0.000000000000D+00  6 1 3 25 23 1 3 4 0.15730463D-01 0.72520364D-01 0.14667443D+05 0.14667443D+05 0.14667443D+05 0.12489341D+01  1  2  5 10  6  2       21 -.330023373523D-02 0.100000000000D+01
  </mgrwgt>
  </event>
  <event>
  5     66 -.36102257E-03 0.32778728E+02 0.75467711E-02 0.11989421E+00
        1 -1    0    0  502    0 0.00000000E+00 0.00000000E+00 0.41140515E+03 0.41140527E+03 0.32000000E+00 0.0000E+00 0.9000E+01
       21 -1    0    0  501  502 0.00000000E+00 0.00000000E+00 -.11004322E+03 0.11004578E+03 0.75000000E+00 0.0000E+00 0.9000E+01
       25  1    1    2    0    0 -.20768075E+02 -.84926357E+02 0.13468642E+03 0.20349258E+03 0.12500000E+03 0.0000E+00 0.9000E+01
       23  1    1    2    0    0 -.62838857E+01 0.66416058E+02 0.22459084E+03 0.25140978E+03 0.91188000E+02 0.0000E+00 0.9000E+01
        1  1    1    2  501    0 0.27051961E+02 0.18510299E+02 -.57915332E+02 0.66548688E+02 0.32000000E+00 0.0000E+00 0.9000E+01
#aMCatNLO 1  0  0  1  2 0.41098678D+01 0.00000000D+00  -5  6  0 0.00000000D+00 0.00000000D+00 0.00000000D+00 0.00000000D+00 0.00000000D+00
  <mgrwgt>
 -.5297146226D-01   11    2    0
 0.212774636408269D+03 0.000000000000000D+00 0.000000000000000D+00 0.212774636408269D+03
 0.212774636408269D+03 0.000000000000000D+00 0.000000000000000D+00 -.212774636408269D+03
 0.153970599357096D+03 -.207681083346291D+02 -.849263801084067D+02 0.209318203763305D+02
 0.149018698857735D+03 -.628391795780212D+01 0.664160356994892D+02 0.971634902744645D+02
 0.122559974601706D+03 0.270520262924313D+02 0.185103444089175D+02 -.118095310650795D+03
 0.000000000000000D+00 -.000000000000000D+00 0.000000000000000D+00 0.000000000000000D+00
 0.307658857260296D+03 0.000000000000000D+00 0.000000000000000D+00 0.307658857260296D+03
 0.212829068171636D+03 0.000000000000000D+00 0.000000000000000D+00 -.212829068171636D+03
 0.154379687302193D+03 -.196644724516282D+02 -.859258707867143D+02 0.209318203763305D+02
 0.148550091362627D+03 -.521887080605016D+01 0.654514923056666D+02 0.971634902744645D+02
 0.122639339820384D+03 0.279296345632563D+02 0.177155521233404D+02 -.118095310650795D+03
 0.949188069467275D+02 -.304629130557792D+01 0.275882635770728D+01 0.948297890886598D+02
0.712295623410D-06 0.000000000000D+00 0.000000000000D+00 0.170387743306D-05 0.000000000000D+00  6 1 21 25 23 1 21 2 0.63293306D-01 0.16929932D-01 0.22246595D+05 0.22246595D+05 0.22246595D+05 0.12287684D+01  1  2  2  1  6  1        1 0.218390001917D-02 0.100000000000D+01
0.105077971562D-06 0.375888727433D-07 -.143791964220D-08 0.170387743306D-05 0.000000000000D+00  6 1 21 25 23 1 21 4 0.63293306D-01 0.16929932D-01 0.22246595D+05 0.22246595D+05 0.22246595D+05 0.12287684D+01  1  2  3  1  6  1        1 0.486434318445D-03 0.100000000000D+01
0.504311904921D-07 0.000000000000D+00 0.000000000000D+00 0.170387743306D-05 0.000000000000D+00  6 1 21 25 23 1 21 4 0.63293306D-01 0.16929932D-01 0.22246595D+05 0.22246595D+05 0.22246595D+05 0.12287684D+01  1  2 15  1  6  1        1 0.233459605383D-03 0.100000000000D+01
0.885615211306D-04 0.000000000000D+00 0.000000000000D+00 0.170022490525D-05 0.000000000000D+00  6 1 21 25 23 1 21 4 0.91523477D-01 0.16929932D-01 0.22877374D+05 0.22877374D+05 0.22877374D+05 0.12274506D+01  1  2 12  1  6  1        1 0.251784424476D+00 0.100000000000D+01
-.670607112066D-03 0.000000000000D+00 0.000000000000D+00 0.170387743306D-05 0.000000000000D+00  6 1 21 25 23 1 21 4 0.63293306D-01 0.16929932D-01 0.22246595D+05 0.22246595D+05 0.22246595D+05 0.12287684D+01  1  2  4  1  6  1        1 -.310442149436D+01 0.100000000000D+01
-.716643736659D-03 0.000000000000D+00 -.970672390501D-06 0.170387743306D-05 0.000000000000D+00  6 1 21 25 23 1 21 4 0.91526902D-01 0.16929932D-01 0.22246595D+05 0.22246595D+05 0.22246595D+05 0.12287684D+01  1  2  5  1  6  1        1 -.204695342935D+01 0.100000000000D+01
0.670905189882D-03 0.000000000000D+00 0.908187987678D-06 0.170387743306D-05 0.000000000000D+00  6 1 21 25 23 1 21 4 0.63293306D-01 0.16929932D-01 0.22246595D+05 0.22246595D+05 0.22246595D+05 0.12287684D+01  1  2  6  1  6  1        1 0.310580137710D+01 0.100000000000D+01
0.613623716871D-03 0.000000000000D+00 0.000000000000D+00 0.170387743306D-05 0.848727652657D-06  6 1 21 25 23 1 21 4 0.91518174D-01 0.16934263D-01 0.22877374D+05 0.22877374D+05 0.22877374D+05 0.12274506D+01  1  2 11  1  6  1        1 0.174388222893D+01 0.100000000000D+01
0.397335258805D-05 0.000000000000D+00 0.000000000000D+00 0.170022490525D-05 0.000000000000D+00  6 21 21 25 23 1 -1 4 0.91523477D-01 0.16929932D-01 0.22877374D+05 0.22877374D+05 0.22877374D+05 0.12274506D+01  1  2 12  4  6  1        1 0.293382970777D-01 0.100000000000D+01
-.321253053374D-04 0.000000000000D+00 -.435528572417D-07 0.170387743306D-05 0.000000000000D+00  6 21 21 25 23 1 -1 4 0.91526902D-01 0.16929932D-01 0.22246595D+05 0.22246595D+05 0.22246595D+05 0.12287684D+01  1  2  5  4  6  1        1 -.238495953355D+00 0.100000000000D+01
0.275275834736D-04 0.000000000000D+00 0.000000000000D+00 0.170387743306D-05 0.380732081165D-07  6 21 21 25 23 1 -1 4 0.91518174D-01 0.16934263D-01 0.22877374D+05 0.22877374D+05 0.22877374D+05 0.12274506D+01  1  2 11  4  6  1        1 0.203189293284D+00 0.100000000000D+01
  </mgrwgt>
  </event>
  <event>
  6     66 0.36102257E-03 0.40703019E+02 0.75467711E-02 0.11826710E+00
        1 -1    0    0  502    0 0.00000000E+00 0.00000000E+00 0.48301320E+03 0.48301331E+03 0.32000000E+00 0.0000E+00 0.9000E+01
       21 -1    0    0  501  502 0.00000000E+00 0.00000000E+00 -.84304460E+02 0.84307796E+02 0.75000000E+00 0.0000E+00 0.9000E+01
       25  1    1    2    0    0 0.44047183E+02 -.37876054E+02 0.13609162E+03 0.19370255E+03 0.12500000E+03 0.0000E+00 0.9000E+01
       23  1    1    2    0    0 -.82986611E+02 0.48202755E+02 0.27840797E+03 0.30827996E+03 0.91188000E+02 0.0000E+00 0.9000E+01
        1  1    1    2  503    0 0.41213166E+02 -.23427487E+02 -.40427071E+01 0.47579598E+02 0.32000000E+00 0.0000E+00 0.9000E+01
       21  1    1    2  501  503 -.22737389E+01 0.13100786E+02 -.11748144E+02 0.17758994E+02 0.75000000E+00 0.0000E+00 0.9000E+01
#aMCatNLO 2  0  0  5  5 0.22937640D+02 0.00000000D+00  -5  6  0 0.00000000D+00 0.00000000D+00 0.00000000D+00 0.00000000D+00 0.00000000D+00
  <mgrwgt>
 0.2757184334D-01    1    2    0
 0.201794805811362D+03 0.000000000000000D+00 0.000000000000000D+00 0.201794805811362D+03
 0.201794805811362D+03 -.000000000000000D+00 -.000000000000000D+00 -.201794805811362D+03
 0.137245057486039D+03 0.423853660329860D+02 -.374353410759283D+02 0.364441890085661D+01
 0.161868420843060D+03 -.849208112309343D+02 0.487157029081434D+02 0.911118567052146D+02
 0.104476133293624D+03 0.425354451979483D+02 -.112803618322152D+02 -.947562756060712D+02
 0.000000000000000D+00 0.000000000000000D+00 0.000000000000000D+00 -.000000000000000D+00
 0.201794805811362D+03 0.000000000000000D+00 0.000000000000000D+00 0.201794805811362D+03
 0.201794805811362D+03 -.000000000000000D+00 -.000000000000000D+00 -.201794805811362D+03
 0.137841785389176D+03 0.440527578380185D+02 -.378775318838370D+02 -.700323452910476D-01
 0.158292765623001D+03 -.829802090086567D+02 0.482010569431648D+02 0.867887741993151D+02
 0.706135907171057D+02 0.411461125035599D+02 -.234627584617478D+02 -.523715150169727D+02
 0.368414698934411D+02 -.221866133292181D+01 0.131392334024199D+02 -.343472268370514D+02
0.467077675041D-05 0.000000000000D+00 0.000000000000D+00 0.666070525257D-06 0.345000721572D-07  6 1 21 25 23 1 21 4 0.74309988D-01 0.12970182D-01 0.27375696D+05 0.27375696D+05 0.27375696D+05 0.12190932D+01  1  2  1  3  6  5        1 0.275718433440D-01 0.100000000000D+01
  </mgrwgt>
  </event>
  <event>
  5     66 0.36102257E-03 0.14333275E+03 0.75467711E-02 0.10586374E+00
        3 -1    0    0  502    0 0.00000000E+00 0.00000000E+00 0.11733564E+04 0.11733565E+04 0.50000000E+00 0.0000E+00 0.9000E+01
       21 -1    0    0  501  502 0.00000000E+00 0.00000000E+00 -.23472720E+03 0.23472840E+03 0.75000000E+00 0.0000E+00 0.9000E+01
       25  1    1    2    0    0 -.15870079E+02 -.11507208E+03 0.48680530E+03 0.51584672E+03 0.12500000E+03 0.0000E+00 0.9000E+01
       23  1    1    2    0    0 -.13538035E+03 0.13291818E+03 0.62624852E+03 0.66067960E+03 0.91188000E+02 0.0000E+00 0.9000E+01
        3  1    1    2  501    0 0.15125043E+03 -.17846098E+02 -.17442462E+03 0.23155858E+03 0.50000000E+00 0.0000E+00 0.9000E+01
#aMCatNLO 1  0  0  2  1 0.14530163D+03 0.00000000D+00  -5  6  0 0.00000000D+00 0.00000000D+00 0.00000000D+00 0.00000000D+00 0.00000000D+00
  <mgrwgt>
 0.2560561529D-02   23    2    0
 0.524804328722220D+03 0.000000000000000D+00 0.000000000000000D+00 0.524804328722220D+03
 0.524804328722220D+03 0.000000000000000D+00 0.000000000000000D+00 -.524804328722220D+03
 0.256692210549512D+03 -.158701004515848D+02 -.115072077002917D+03 0.191761435024580D+03
 0.326291051172689D+03 -.135380379710889D+03 0.132918180261693D+03 0.249310065734688D+03
 0.466625395722238D+03 0.151250480162474D+03 -.178461032587755D+02 -.441071500759268D+03
 0.000000000000000D+00 -.000000000000000D+00 -.000000000000000D+00 -.000000000000000D+00
 0.601257220976590D+03 0.000000000000000D+00 0.000000000000000D+00 0.601257220976590D+03
 0.603682930798973D+03 0.000000000000000D+00 0.000000000000000D+00 -.603682930798973D+03
 0.255223582375414D+03 0.191858267829087D+02 -.111236383834200D+03 0.191761435024580D+03
 0.312774023162717D+03 -.916172861442611D+02 0.137706580177992D+03 0.249310065734688D+03
 0.491620673142456D+03 0.216871046918043D+03 -.106661374302282D+02 -.441071500759268D+03
 0.145321873094977D+03 -.144439587556690D+03 -.158040589135644D+02 -.242570982238290D+01
0.102334363918D-03 0.000000000000D+00 0.000000000000D+00 0.563250193641D-06 0.000000000000D+00  6 3 21 25 23 3 21 2 0.18051647D+00 0.36111978D-01 0.71139868D+05 0.71139868D+05 0.71139868D+05 0.11774064D+01  1  2  2  2  6  2       21 0.107701144942D-02 0.100000000000D+01
0.440671819889D-05 0.540033274973D-05 -.206583596914D-06 0.563250193641D-06 0.000000000000D+00  6 3 21 25 23 3 21 4 0.18051647D+00 0.36111978D-01 0.71139868D+05 0.71139868D+05 0.71139868D+05 0.11774064D+01  1  2  3  2  6  2       21 0.642934774435D-04 0.100000000000D+01
0.143070051659D-04 0.000000000000D+00 0.000000000000D+00 0.563250193641D-06 0.000000000000D+00  6 3 21 25 23 3 21 4 0.18051647D+00 0.36111978D-01 0.71139868D+05 0.71139868D+05 0.71139868D+05 0.11774064D+01  1  2 15  2  6  2       21 0.208737448686D-03 0.100000000000D+01
0.439185836567D-04 0.000000000000D+00 0.000000000000D+00 0.540512392552D-06 0.000000000000D+00  6 3 21 25 23 3 21 4 0.18051647D+00 0.43803428D-01 0.12950257D+06 0.12950257D+06 0.12950257D+06 0.11533963D+01  1  2 12  2  6  2       21 0.387401093258D-03 0.100000000000D+01
-.443149053434D-04 0.000000000000D+00 0.000000000000D+00 0.563250193641D-06 0.000000000000D+00  6 3 21 25 23 3 21 4 0.18051647D+00 0.36111978D-01 0.71139868D+05 0.71139868D+05 0.71139868D+05 0.11774064D+01  1  2  4  2  6  2       21 -.646549027760D-03 0.100000000000D+01
-.228105497646D-03 0.000000000000D+00 -.149550063743D-03 0.563250193641D-06 0.000000000000D+00  6 3 21 25 23 3 21 4 0.18051647D+00 0.47522269D-01 0.71139868D+05 0.71139868D+05 0.71139868D+05 0.11774064D+01  1  2  5  2  6  2       21 -.189742894295D-02 0.100000000000D+01
0.235338095476D-03 0.000000000000D+00 0.129202389778D-03 0.563250193641D-06 0.000000000000D+00  6 3 21 25 23 3 21 4 0.18051647D+00 0.36111978D-01 0.71139868D+05 0.71139868D+05 0.71139868D+05 0.11774064D+01  1  2  6  2  6  2       21 0.343355391703D-02 0.100000000000D+01
0.241516050663D-05 0.000000000000D+00 0.000000000000D+00 0.540512392552D-06 0.000000000000D+00  6 3 -3 25 23 3 -3 4 0.18051647D+00 0.43803428D-01 0.12950257D+06 0.12950257D+06 0.12950257D+06 0.11533963D+01  1  2 12  5  6  2       21 0.115669148607D-05 0.100000000000D+01
-.112016967858D-04 0.000000000000D+00 -.126267425106D-04 0.563250193641D-06 0.000000000000D+00  6 3 -3 25 23 3 -3 4 0.18051647D+00 0.47522269D-01 0.71139868D+05 0.71139868D+05 0.71139868D+05 0.11774064D+01  1  2  5  5  6  2       21 -.495707161722D-05 0.100000000000D+01
0.241516050663D-05 0.000000000000D+00 0.000000000000D+00 0.540512392552D-06 0.000000000000D+00  6 3 3 25 23 3 3 4 0.18051647D+00 0.43803428D-01 0.12950257D+06 0.12950257D+06 0.12950257D+06 0.11533963D+01  1  2 12  6  6  2       21 0.115704547846D-05 0.100000000000D+01
-.112016967858D-04 0.000000000000D+00 -.126267425106D-04 0.563250193641D-06 0.000000000000D+00  6 3 3 25 23 3 3 4 0.18051647D+00 0.47522269D-01 0.71139868D+05 0.71139868D+05 0.71139868D+05 0.11774064D+01  1  2  5  6  6  2       21 -.495894974247D-05 0.100000000000D+01
0.241516050663D-05 0.000000000000D+00 0.000000000000D+00 0.540512392552D-06 0.000000000000D+00  6 3 -2 25 23 3 -2 4 0.18051647D+00 0.43803428D-01 0.12950257D+06 0.12950257D+06 0.12950257D+06 0.11533963D+01  1  2 12  7  6  2       21 0.178040499837D-05 0.100000000000D+01
0.241516050663D-05 0.000000000000D+00 0.000000000000D+00 0.540512392552D-06 0.000000000000D+00  6 3 -4 25 23 3 -4 4 0.18051647D+00 0.43803428D-01 0.12950257D+06 0.12950257D+06 0.12950257D+06 0.11533963D+01  1  2 12  7  6  2       21 0.972480662283D-06 0.100000000000D+01
-.112016967858D-04 0.000000000000D+00 -.126267425106D-04 0.563250193641D-06 0.000000000000D+00  6 3 -2 25 23 3 -2 4 0.18051647D+00 0.47522269D-01 0.71139868D+05 0.71139868D+05 0.71139868D+05 0.11774064D+01  1  2  5  7  6  2       21 -.772636026172D-05 0.100000000000D+01
-.112016967858D-04 0.000000000000D+00 -.126267425106D-04 0.563250193641D-06 0.000000000000D+00  6 3 -4 25 23 3 -4 4 0.18051647D+00 0.47522269D-01 0.71139868D+05 0.71139868D+05 0.71139868D+05 0.11774064D+01  1  2  5  7  6  2       21 -.413295531861D-05 0.100000000000D+01
0.241516050663D-05 0.000000000000D+00 0.000000000000D+00 0.540512392552D-06 0.000000000000D+00  6 3 2 25 23 3 2 4 0.18051647D+00 0.43803428D-01 0.12950257D+06 0.12950257D+06 0.12950257D+06 0.11533963D+01  1  2 12  8  6  2       21 0.633737261893D-05 0.100000000000D+01
0.241516050663D-05 0.000000000000D+00 0.000000000000D+00 0.540512392552D-06 0.000000000000D+00  6 3 4 25 23 3 4 4 0.18051647D+00 0.43803428D-01 0.12950257D+06 0.12950257D+06 0.12950257D+06 0.11533963D+01  1  2 12  8  6  2       21 0.972480662283D-06 0.100000000000D+01
-.112016967858D-04 0.000000000000D+00 -.126267425106D-04 0.563250193641D-06 0.000000000000D+00  6 3 2 25 23 3 2 4 0.18051647D+00 0.47522269D-01 0.71139868D+05 0.71139868D+05 0.71139868D+05 0.11774064D+01  1  2  5  8  6  2       21 -.295174358739D-04 0.100000000000D+01
-.112016967858D-04 0.000000000000D+00 -.126267425106D-04 0.563250193641D-06 0.000000000000D+00  6 3 4 25 23 3 4 4 0.18051647D+00 0.47522269D-01 0.71139868D+05 0.71139868D+05 0.71139868D+05 0.11774064D+01  1  2  5  8  6  2       21 -.413295531861D-05 0.100000000000D+01
0.241516050663D-05 0.000000000000D+00 0.000000000000D+00 0.540512392552D-06 0.000000000000D+00  6 3 -1 25 23 3 -1 4 0.18051647D+00 0.43803428D-01 0.12950257D+06 0.12950257D+06 0.12950257D+06 0.11533963D+01  1  2 12  9  6  2       21 0.212381984428D-05 0.100000000000D+01
-.112016967858D-04 0.000000000000D+00 -.126267425106D-04 0.563250193641D-06 0.000000000000D+00  6 3 -1 25 23 3 -1 4 0.18051647D+00 0.47522269D-01 0.71139868D+05 0.71139868D+05 0.71139868D+05 0.11774064D+01  1  2  5  9  6  2       21 -.933681021286D-05 0.100000000000D+01
0.241516050663D-05 0.000000000000D+00 0.000000000000D+00 0.540512392552D-06 0.000000000000D+00  6 3 1 25 23 3 1 4 0.18051647D+00 0.43803428D-01 0.12950257D+06 0.12950257D+06 0.12950257D+06 0.11533963D+01  1  2 12 10  6  2       21 0.450230004063D-05 0.100000000000D+01
-.112016967858D-04 0.000000000000D+00 -.126267425106D-04 0.563250193641D-06 0.000000000000D+00  6 3 1 25 23 3 1 4 0.18051647D+00 0.47522269D-01 0.71139868D+05 0.71139868D+05 0.71139868D+05 0.11774064D+01  1  2  5 10  6  2       21 -.206979436107D-04 0.100000000000D+01
  </mgrwgt>
  </event>
  <event>
  5     66 -.36102257E-03 0.22560482E+02 0.75467711E-02 0.11748609E+00
        1 -1    0    0  502    0 0.00000000E+00 0.00000000E+00 0.42893026E+03 0.42893038E+03 0.32000000E+00 0.0000E+00 0.9000E+01
       21 -1    0    0  501  502 0.00000000E+00 0.00000000E+00 -.55875818E+02 0.55880851E+02 0.75000000E+00 0.0000E+00 0.9000E+01
       25  1    1    2    0    0 0.40755010E+02 0.35459875E+02 0.22250735E+03 0.26086949E+03 0.12500000E+03 0.0000E+00 0.9000E+01
       23  1    1    2    0    0 -.50314200E+02 -.55894653E+02 0.16046249E+03 0.19929674E+03 0.91188000E+02 0.0000E+00 0.9000E+01
        1  1    1    2  501    0 0.95591904E+01 0.20434778E+02 -.99153913E+01 0.24644993E+02 0.32000000E+00 0.0000E+00 0.9000E+01
#aMCatNLO 1  0  0  2  2 0.62792474D+02 0.00000000D+00  -5  6  0 0.00000000D+00 0.00000000D+00 0.00000000D+00 0.00000000D+00 0.00000000D+00
  <mgrwgt>
 -.4047021027D+00   12    2    0
 0.154816271750832D+03 0.000000000000000D+00 0.000000000000000D+00 0.154816271750832D+03
 0.154816271750832D+03 0.000000000000000D+00 0.000000000000000D+00 -.154816271750832D+03
 0.140376441980929D+03 0.407549229379954D+02 0.354596892271888D+02 0.340909395507703D+02
 0.118721688919129D+03 -.503142736997189D+02 -.558948101117320D+02 0.111279890570363D+02
 0.505344126016071D+02 0.955935076172348D+01 0.204351208845432D+02 -.452189286078066D+02
 0.000000000000000D+00 0.000000000000000D+00 -.000000000000000D+00 -.000000000000000D+00
 0.158945464703262D+03 0.000000000000000D+00 0.000000000000000D+00 0.158945464703262D+03
 0.116613201723008D+04 0.000000000000000D+00 0.000000000000000D+00 -.116613201723008D+04
 0.136417660372973D+03 0.134363549597866D+02 0.405222194305311D+02 0.340909395507703D+02
 0.129105723400842D+03 -.747739350608211D+02 -.513620771184478D+02 0.111279890570363D+02
 0.504120633781641D+02 -.403698099368439D+00 0.222814195564533D+02 -.452189286078066D+02
 0.100914203478136D+04 0.617412782004029D+02 -.114415618685366D+02 -.100718655252682D+04
0.490509520728D-06 0.000000000000D+00 0.000000000000D+00 0.159627922705D-05 0.000000000000D+00  6 1 21 25 23 1 21 2 0.65989667D-01 0.85966760D-02 0.19173038D+05 0.19173038D+05 0.19173038D+05 0.12358501D+01  1  2  2  2  6  2       21 0.481557513491D-02 0.100000000000D+01
0.602641843033D-07 0.258848985563D-07 -.990197400293D-09 0.159627922705D-05 0.000000000000D+00  6 1 21 25 23 1 21 4 0.65989667D-01 0.85966760D-02 0.19173038D+05 0.19173038D+05 0.19173038D+05 0.12358501D+01  1  2  3  2  6  2       21 0.903632049270D-03 0.100000000000D+01
0.478612353833D-07 0.000000000000D+00 0.000000000000D+00 0.159627922705D-05 0.000000000000D+00  6 1 21 25 23 1 21 4 0.65989667D-01 0.85966760D-02 0.19173038D+05 0.19173038D+05 0.19173038D+05 0.12358501D+01  1  2 15  2  6  2       21 0.717655879856D-03 0.100000000000D+01
-.883770855797D-03 0.000000000000D+00 -.795176662017D-05 0.159627922705D-05 0.000000000000D+00  6 1 21 25 23 1 21 4 0.65989667D-01 0.65221338D-01 0.19173038D+05 0.19173038D+05 0.19173038D+05 0.12358501D+01  1  2  5  2  6  2       21 -.279803065106D+00 0.100000000000D+01
-.385715819073D-03 0.000000000000D+00 -.343079859170D-05 0.159627922705D-05 0.000000000000D+00  6 1 -1 25 23 1 -1 4 0.65989667D-01 0.65221338D-01 0.19173038D+05 0.19173038D+05 0.19173038D+05 0.12358501D+01  1  2  5  5  6  2       21 -.127460263183D-01 0.100000000000D+01
-.385715819073D-03 0.000000000000D+00 -.343079859170D-05 0.159627922705D-05 0.000000000000D+00  6 1 1 25 23 1 1 4 0.65989667D-01 0.65221338D-01 0.19173038D+05 0.19173038D+05 0.19173038D+05 0.12358501D+01  1  2  5  6  6  2       21 -.342914972593D-01 0.100000000000D+01
-.385715819073D-03 0.000000000000D+00 -.343079859170D-05 0.159627922705D-05 0.000000000000D+00  6 1 -2 25 23 1 -2 4 0.65989667D-01 0.65221338D-01 0.19173038D+05 0.19173038D+05 0.19173038D+05 0.12358501D+01  1  2  5  7  6  2       21 -.100112048207D-01 0.100000000000D+01
-.385715819073D-03 0.000000000000D+00 -.343079859170D-05 0.159627922705D-05 0.000000000000D+00  6 1 -4 25 23 1 -4 4 0.65989667D-01 0.65221338D-01 0.19173038D+05 0.19173038D+05 0.19173038D+05 0.12358501D+01  1  2  5  7  6  2       21 -.506600033228D-02 0.100000000000D+01
-.385715819073D-03 0.000000000000D+00 -.343079859170D-05 0.159627922705D-05 0.000000000000D+00  6 1 2 25 23 1 2 4 0.65989667D-01 0.65221338D-01 0.19173038D+05 0.19173038D+05 0.19173038D+05 0.12358501D+01  1  2  5  8  6  2       21 -.516749622522D-01 0.100000000000D+01
-.385715819073D-03 0.000000000000D+00 -.343079859170D-05 0.159627922705D-05 0.000000000000D+00  6 1 4 25 23 1 4 4 0.65989667D-01 0.65221338D-01 0.19173038D+05 0.19173038D+05 0.19173038D+05 0.12358501D+01  1  2  5  8  6  2       21 -.506600033228D-02 0.100000000000D+01
-.385715819073D-03 0.000000000000D+00 -.343079859170D-05 0.159627922705D-05 0.000000000000D+00  6 1 -3 25 23 1 -3 4 0.65989667D-01 0.65221338D-01 0.19173038D+05 0.19173038D+05 0.19173038D+05 0.12358501D+01  1  2  5  9  6  2       21 -.623755090092D-02 0.100000000000D+01
-.385715819073D-03 0.000000000000D+00 -.343079859170D-05 0.159627922705D-05 0.000000000000D+00  6 1 3 25 23 1 3 4 0.65989667D-01 0.65221338D-01 0.19173038D+05 0.19173038D+05 0.19173038D+05 0.12358501D+01  1  2  5 10  6  2       21 -.624265849176D-02 0.100000000000D+01
  </mgrwgt>
  </event>
  <event>
  5     66 0.36102257E-03 0.48738788E+02 0.75467711E-02 0.11793477E+00
        1 -1    0    0  502    0 0.00000000E+00 0.00000000E+00 0.10919077E+04 0.10919078E+04 0.32000000E+00 0.0000E+00 0.9000E+01
       21 -1    0    0  501  502 0.00000000E+00 0.00000000E+00 -.14027793E+03 0.14027993E+03 0.75000000E+00 0.0000E+00 0.9000E+01
       25  1    1    2    0    0 0.40444502E+02 0.27679098E+02 0.10035651E+04 0.10125067E+04 0.12500000E+03 0.0000E+00 0.9000E+01
       23  1    1    2    0    0 0.98787677E+01 -.54660812E+02 0.37843525E+02 0.11328185E+03 0.91188000E+02 0.0000E+00 0.9000E+01
        1  1    1    2  501    0 -.50323270E+02 0.26981714E+02 -.89778817E+02 0.10639917E+03 0.32000000E+00 0.0000E+00 0.9000E+01
#aMCatNLO 1  0  0  2  1 0.33566404D+02 0.00000000D+00  -5  6  0 0.00000000D+00 0.00000000D+00 0.00000000D+00 0.00000000D+00 0.00000000D+00
  <mgrwgt>
 0.9166860292D-01   23    2    0
 0.391371708125354D+03 0.000000000000000D+00 0.000000000000000D+00 0.391371708125354D+03
 0.391371708125354D+03 0.000000000000000D+00 0.000000000000000D+00 -.391371708125354D+03
 0.373782638013110D+03 0.404445180276452D+02 0.276790890872956D+02 0.348836020887822D+03
 0.132318540586792D+03 0.987877336044586D+01 -.546608152383538D+02 -.781508154365011D+02
 0.276642237650806D+03 -.503232913880911D+02 0.269817261510582D+02 -.270685205451321D+03
 0.000000000000000D+00 -.000000000000000D+00 -.000000000000000D+00 -.000000000000000D+00
 0.400888704261679D+03 0.000000000000000D+00 0.000000000000000D+00 0.400888704261679D+03
 0.422491093450615D+03 0.000000000000000D+00 0.000000000000000D+00 -.422491093450615D+03
 0.375941329587037D+03 0.473228797018460D+02 0.422002236907006D+02 0.348836020887822D+03
 0.130503113495564D+03 0.122900373332075D+02 -.495703168942287D+02 -.781508154365011D+02
 0.277018357031370D+03 -.452437181323936D+02 0.377053796120998D+02 -.270685205451321D+03
 0.399169975983233D+02 -.143691989026599D+02 -.303352864085717D+02 -.216023891889363D+02
0.274726846701D-04 0.000000000000D+00 0.000000000000D+00 0.386782493889D-06 0.000000000000D+00  6 1 21 25 23 1 21 2 0.16798596D+00 0.21581377D-01 0.22221625D+05 0.22221625D+05 0.22221625D+05 0.12288214D+01  1  2  2  2  6  2       21 0.130629798727D-01 0.100000000000D+01
0.280054991627D-05 0.144977340032D-05 -.554594351177D-07 0.386782493889D-06 0.000000000000D+00  6 1 21 25 23 1 21 4 0.16798596D+00 0.21581377D-01 0.22221625D+05 0.22221625D+05 0.22221625D+05 0.12288214D+01  1  2  3  2  6  2       21 0.201076817583D-02 0.100000000000D+01
0.298731127272D-05 0.000000000000D+00 0.000000000000D+00 0.386782493889D-06 0.000000000000D+00  6 1 21 25 23 1 21 4 0.16798596D+00 0.21581377D-01 0.22221625D+05 0.22221625D+05 0.22221625D+05 0.12288214D+01  1  2 15  2  6  2       21 0.214486105160D-02 0.100000000000D+01
0.103687474528D-03 0.000000000000D+00 0.000000000000D+00 0.379612938535D-06 0.000000000000D+00  6 1 21 25 23 1 21 4 0.16798596D+00 0.23545436D-01 0.28415733D+05 0.28415733D+05 0.28415733D+05 0.12173792D+01  1  2 12  2  6  2       21 0.602713577849D-01 0.100000000000D+01
-.413108562510D-04 0.000000000000D+00 0.000000000000D+00 0.386782493889D-06 0.000000000000D+00  6 1 21 25 23 1 21 4 0.16798596D+00 0.21581377D-01 0.22221625D+05 0.22221625D+05 0.22221625D+05 0.12288214D+01  1  2  4  2  6  2       21 -.296608014672D-01 0.100000000000D+01
-.374573174497D-03 0.000000000000D+00 -.912844946060D-04 0.386782493889D-06 0.000000000000D+00  6 1 21 25 23 1 21 4 0.16798596D+00 0.23832125D-01 0.22221625D+05 0.22221625D+05 0.22221625D+05 0.12288214D+01  1  2  5  2  6  2       21 -.223216759328D+00 0.100000000000D+01
0.375016597873D-03 0.000000000000D+00 0.895125136683D-04 0.386782493889D-06 0.000000000000D+00  6 1 21 25 23 1 21 4 0.16798596D+00 0.21581377D-01 0.22221625D+05 0.22221625D+05 0.22221625D+05 0.12288214D+01  1  2  6  2  6  2       21 0.269258346737D+00 0.100000000000D+01
0.227382649832D-05 0.000000000000D+00 0.000000000000D+00 0.379612938535D-06 0.000000000000D+00  6 1 -1 25 23 1 -1 4 0.16798596D+00 0.23545436D-01 0.28415733D+05 0.28415733D+05 0.28415733D+05 0.12173792D+01  1  2 12  5  6  2       21 0.108355408677D-03 0.100000000000D+01
-.810369752750D-05 0.000000000000D+00 -.231131399915D-05 0.386782493889D-06 0.000000000000D+00  6 1 -1 25 23 1 -1 4 0.16798596D+00 0.23832125D-01 0.22221625D+05 0.22221625D+05 0.22221625D+05 0.12288214D+01  1  2  5  5  6  2       21 -.395145998740D-03 0.100000000000D+01
0.227382649832D-05 0.000000000000D+00 0.000000000000D+00 0.379612938535D-06 0.000000000000D+00  6 1 1 25 23 1 1 4 0.16798596D+00 0.23545436D-01 0.28415733D+05 0.28415733D+05 0.28415733D+05 0.12173792D+01  1  2 12  6  6  2       21 0.172638132155D-03 0.100000000000D+01
-.810369752750D-05 0.000000000000D+00 -.231131399915D-05 0.386782493889D-06 0.000000000000D+00  6 1 1 25 23 1 1 4 0.16798596D+00 0.23832125D-01 0.22221625D+05 0.22221625D+05 0.22221625D+05 0.12288214D+01  1  2  5  6  6  2       21 -.632487307433D-03 0.100000000000D+01
0.227382649832D-05 0.000000000000D+00 0.000000000000D+00 0.379612938535D-06 0.000000000000D+00  6 1 -2 25 23 1 -2 4 0.16798596D+00 0.23545436D-01 0.28415733D+05 0.28415733D+05 0.28415733D+05 0.12173792D+01  1  2 12  7  6  2       21 0.976496397803D-04 0.100000000000D+01
0.227382649832D-05 0.000000000000D+00 0.000000000000D+00 0.379612938535D-06 0.000000000000D+00  6 1 -4 25 23 1 -4 4 0.16798596D+00 0.23545436D-01 0.28415733D+05 0.28415733D+05 0.28415733D+05 0.12173792D+01  1  2 12  7  6  2       21 0.540161217169D-04 0.100000000000D+01
-.810369752750D-05 0.000000000000D+00 -.231131399915D-05 0.386782493889D-06 0.000000000000D+00  6 1 -2 25 23 1 -2 4 0.16798596D+00 0.23832125D-01 0.22221625D+05 0.22221625D+05 0.22221625D+05 0.12288214D+01  1  2  5  7  6  2       21 -.355572378479D-03 0.100000000000D+01
-.810369752750D-05 0.000000000000D+00 -.231131399915D-05 0.386782493889D-06 0.000000000000D+00  6 1 -4 25 23 1 -4 4 0.16798596D+00 0.23832125D-01 0.22221625D+05 0.22221625D+05 0.22221625D+05 0.12288214D+01  1  2  5  7  6  2       21 -.194878216931D-03 0.100000000000D+01
0.227382649832D-05 0.000000000000D+00 0.000000000000D+00 0.379612938535D-06 0.000000000000D+00  6 1 2 25 23 1 2 4 0.16798596D+00 0.23545436D-01 0.28415733D+05 0.28415733D+05 0.28415733D+05 0.12173792D+01  1  2 12  8  6  2       21 0.218488130059D-03 0.100000000000D+01
0.227382649832D-05 0.000000000000D+00 0.000000000000D+00 0.379612938535D-06 0.000000000000D+00  6 1 4 25 23 1 4 4 0.16798596D+00 0.23545436D-01 0.28415733D+05 0.28415733D+05 0.28415733D+05 0.12173792D+01  1  2 12  8  6  2       21 0.540161217169D-04 0.100000000000D+01
-.810369752750D-05 0.000000000000D+00 -.231131399915D-05 0.386782493889D-06 0.000000000000D+00  6 1 2 25 23 1 2 4 0.16798596D+00 0.23832125D-01 0.22221625D+05 0.22221625D+05 0.22221625D+05 0.12288214D+01  1  2  5  8  6  2       21 -.801605351551D-03 0.100000000000D+01
-.810369752750D-05 0.000000000000D+00 -.231131399915D-05 0.386782493889D-06 0.000000000000D+00  6 1 4 25 23 1 4 4 0.16798596D+00 0.23832125D-01 0.22221625D+05 0.22221625D+05 0.22221625D+05 0.12288214D+01  1  2  5  8  6  2       21 -.194878216931D-03 0.100000000000D+01
0.227382649832D-05 0.000000000000D+00 0.000000000000D+00 0.379612938535D-06 0.000000000000D+00  6 1 -3 25 23 1 -3 4 0.16798596D+00 0.23545436D-01 0.28415733D+05 0.28415733D+05 0.28415733D+05 0.12173792D+01  1  2 12  9  6  2       21 0.635296142716D-04 0.100000000000D+01
-.810369752750D-05 0.000000000000D+00 -.231131399915D-05 0.386782493889D-06 0.000000000000D+00  6 1 -3 25 23 1 -3 4 0.16798596D+00 0.23832125D-01 0.22221625D+05 0.22221625D+05 0.22221625D+05 0.12288214D+01  1  2  5  9  6  2       21 -.229907316539D-03 0.100000000000D+01
0.227382649832D-05 0.000000000000D+00 0.000000000000D+00 0.379612938535D-06 0.000000000000D+00  6 1 3 25 23 1 3 4 0.16798596D+00 0.23545436D-01 0.28415733D+05 0.28415733D+05 0.28415733D+05 0.12173792D+01  1  2 12 10  6  2       21 0.635261363491D-04 0.100000000000D+01
-.810369752750D-05 0.000000000000D+00 -.231131399915D-05 0.386782493889D-06 0.000000000000D+00  6 1 3 25 23 1 3 4 0.16798596D+00 0.23832125D-01 0.22221625D+05 0.22221625D+05 0.22221625D+05 0.12288214D+01  1  2  5 10  6  2       21 -.229894429649D-03 0.100000000000D+01
  </mgrwgt>
  </event>
  <event>
  5     66 0.36102257E-03 0.47746772E+02 0.75467711E-02 0.96712582E-01
        1 -1    0    0  502    0 0.00000000E+00 0.00000000E+00 0.91072549E+03 0.91072555E+03 0.32000000E+00 0.0000E+00 0.9000E+01
       21 -1    0    0  501  502 0.00000000E+00 0.00000000E+00 -.26510135E+02 0.26520742E+02 0.75000000E+00 0.0000E+00 0.9000E+01
       25  1    1    2    0    0 0.27877234E+02 0.37633922E+02 0.49389400E+03 0.51161483E+03 0.12500000E+03 0.0000E+00 0.9000E+01
       23  1    1    2    0    0 -.63125049E+02 -.54268271E+01 0.33302208E+03 0.35104584E+03 0.91188000E+02 0.0000E+00 0.9000E+01
        1  1    1    2  501    0 0.35247815E+02 -.32207095E+02 0.57299279E+02 0.74585624E+02 0.32000000E+00 0.0000E+00 0.9000E+01
#aMCatNLO 1  0  0  2  1 0.83898901D+00 0.00000000D+00  -5  6  0 0.00000000D+00 0.00000000D+00 0.00000000D+00 0.00000000D+00 0.00000000D+00
  <mgrwgt>
 0.1288402125D+00   12    2    0
 0.155397723190079D+03 0.000000000000000D+00 0.000000000000000D+00 0.155397723190079D+03
 0.155397723190079D+03 0.000000000000000D+00 0.000000000000000D+00 -.155397723190079D+03
 0.137712646593128D+03 0.278770254026226D+02 0.376341129267295D+02 0.338573187155065D+02
 0.111176663555362D+03 -.631252178682755D+02 -.542667322510571D+01 0.554592301540296D+01
 0.619061362316687D+02 0.352481924656529D+02 -.322074397016238D+02 -.394032417309095D+02
 0.000000000000000D+00 -.000000000000000D+00 -.000000000000000D+00 -.000000000000000D+00
 0.674952278464676D+03 0.000000000000000D+00 0.000000000000000D+00 0.674952278464676D+03
 0.795425273960771D+03 0.000000000000000D+00 0.000000000000000D+00 -.795425273960771D+03
 0.403089036001005D+03 0.378698016666859D+03 0.479297933044114D+02 0.338573187155065D+02
 0.131122575107047D+03 0.940556153761184D+02 -.813826044125284D+00 0.554592301540296D+01
 0.228888386515610D+03 0.223888180113349D+03 -.266713484538578D+02 -.394032417309095D+02
 0.707277554801785D+03 -.696641812156326D+03 -.204446188064283D+02 -.120472995496095D+03
0.244179243554D-05 0.000000000000D+00 0.000000000000D+00 0.465514983979D-06 0.000000000000D+00  6 1 21 25 23 1 21 2 0.14011243D+00 0.40793025D-02 0.21355556D+05 0.21355556D+05 0.21355556D+05 0.12307028D+01  1  2  2  2  6  2       21 0.294445799119D-01 0.100000000000D+01
0.478086614654D-08 0.128856926967D-06 -.492927541577D-08 0.465514983979D-06 0.000000000000D+00  6 1 21 25 23 1 21 4 0.14011243D+00 0.40793025D-02 0.21355556D+05 0.21355556D+05 0.21355556D+05 0.12307028D+01  1  2  3  2  6  2       21 0.873191686291D-04 0.100000000000D+01
0.297573886123D-06 0.000000000000D+00 0.000000000000D+00 0.465514983979D-06 0.000000000000D+00  6 1 21 25 23 1 21 4 0.14011243D+00 0.40793025D-02 0.21355556D+05 0.21355556D+05 0.21355556D+05 0.12307028D+01  1  2 15  2  6  2       21 0.543497842139D-02 0.100000000000D+01
0.211841491998D-02 0.000000000000D+00 -.683979229602D-03 0.465514983979D-06 0.000000000000D+00  6 1 21 25 23 1 21 4 0.14011243D+00 0.12391167D+00 0.21355556D+05 0.21355556D+05 0.21355556D+05 0.12307028D+01  1  2  5  2  6  2       21 0.521892806302D-01 0.100000000000D+01
0.940124137795D-03 0.000000000000D+00 -.303480512133D-03 0.465514983979D-06 0.000000000000D+00  6 1 -1 25 23 1 -1 4 0.14011243D+00 0.12391167D+00 0.21355556D+05 0.21355556D+05 0.21355556D+05 0.12307028D+01  1  2  5  5  6  2       21 0.269362420294D-02 0.100000000000D+01
0.940124137795D-03 0.000000000000D+00 -.303480512133D-03 0.465514983979D-06 0.000000000000D+00  6 1 1 25 23 1 1 4 0.14011243D+00 0.12391167D+00 0.21355556D+05 0.21355556D+05 0.21355556D+05 0.12307028D+01  1  2  5  6  6  2       21 0.118784836627D-01 0.100000000000D+01
0.940124137795D-03 0.000000000000D+00 -.303480512133D-03 0.465514983979D-06 0.000000000000D+00  6 1 -2 25 23 1 -2 4 0.14011243D+00 0.12391167D+00 0.21355556D+05 0.21355556D+05 0.21355556D+05 0.12307028D+01  1  2  5  7  6  2       21 0.196659509407D-02 0.100000000000D+01
0.940124137795D-03 0.000000000000D+00 -.303480512133D-03 0.465514983979D-06 0.000000000000D+00  6 1 -4 25 23 1 -4 4 0.14011243D+00 0.12391167D+00 0.21355556D+05 0.21355556D+05 0.21355556D+05 0.12307028D+01  1  2  5  7  6  2       21 0.987365944171D-03 0.100000000000D+01
0.940124137795D-03 0.000000000000D+00 -.303480512133D-03 0.465514983979D-06 0.000000000000D+00  6 1 2 25 23 1 2 4 0.14011243D+00 0.12391167D+00 0.21355556D+05 0.21355556D+05 0.21355556D+05 0.12307028D+01  1  2  5  8  6  2       21 0.206732721533D-01 0.100000000000D+01
0.940124137795D-03 0.000000000000D+00 -.303480512133D-03 0.465514983979D-06 0.000000000000D+00  6 1 4 25 23 1 4 4 0.14011243D+00 0.12391167D+00 0.21355556D+05 0.21355556D+05 0.21355556D+05 0.12307028D+01  1  2  5  8  6  2       21 0.987365944171D-03 0.100000000000D+01
0.940124137795D-03 0.000000000000D+00 -.303480512133D-03 0.465514983979D-06 0.000000000000D+00  6 1 -3 25 23 1 -3 4 0.14011243D+00 0.12391167D+00 0.21355556D+05 0.21355556D+05 0.21355556D+05 0.12307028D+01  1  2  5  9  6  2       21 0.124689650972D-02 0.100000000000D+01
0.940124137795D-03 0.000000000000D+00 -.303480512133D-03 0.465514983979D-06 0.000000000000D+00  6 1 3 25 23 1 3 4 0.14011243D+00 0.12391167D+00 0.21355556D+05 0.21355556D+05 0.21355556D+05 0.12307028D+01  1  2  5 10  6  2       21 0.125045081789D-02 0.100000000000D+01
  </mgrwgt>
  </event>
  <event>
  5     66 -.36102257E-03 0.51825794E+02 0.75467711E-02 0.11974241E+00
        1 -1    0    0  502    0 0.00000000E+00 0.00000000E+00 0.46637467E+03 0.46637478E+03 0.32000000E+00 0.0000E+00 0.9000E+01
       21 -1    0    0  501  502 0.00000000E+00 0.00000000E+00 -.67822843E+02 0.67826990E+02 0.75000000E+00 0.0000E+00 0.9000E+01
       25  1    1    2    0    0 0.53411705E+02 -.55215451E+01 0.29882937E+03 0.32834021E+03 0.12500000E+03 0.0000E+00 0.9000E+01
       23  1    1    2    0    0 -.46676852E+02 0.56907530E+02 0.99970938E+02 0.15403453E+03 0.91188000E+02 0.0000E+00 0.9000E+01
        1  1    1    2  501    0 -.67348524E+01 -.51385985E+02 -.24848284E+00 0.51827038E+02 0.32000000E+00 0.0000E+00 0.9000E+01
#aMCatNLO 1  0  0  5  2 0.23744123D+01 0.00000000D+00  -5  6  0 0.00000000D+00 0.00000000D+00 0.00000000D+00 0.00000000D+00 0.00000000D+00
  <mgrwgt>
 -.3691136033D-01    8    2    0
 0.177853853835008D+03 0.000000000000000D+00 0.000000000000000D+00 0.177853853835008D+03
 0.177853853835008D+03 -.000000000000000D+00 -.000000000000000D+00 -.177853853835008D+03
 0.158278740562049D+03 0.534117298189275D+02 -.552135326222564D+01 0.808941375490959D+02
 0.119316862723722D+03 -.466768333194093D+02 0.569076749442930D+02 -.224511057620389D+02
 0.781121043842443D+02 -.673489649951826D+01 -.513863216820673D+02 -.584430317870570D+02
 0.000000000000000D+00 0.000000000000000D+00 0.000000000000000D+00 -.000000000000000D+00
 0.177853853835008D+03 0.000000000000000D+00 0.000000000000000D+00 0.177853853835008D+03
 0.177853853835008D+03 -.000000000000000D+00 -.000000000000000D+00 -.177853853835008D+03
 0.158249861714283D+03 0.534053180093144D+02 -.557027447599154D+01 0.808384981501743D+02
 0.119309069058434D+03 -.466816670817686D+02 0.568707940111487D+02 -.224930514292423D+02
 0.534330187198404D+02 -.595066238551212D+01 -.365045667124143D+02 -.385628540933806D+02
 0.247157581774583D+02 -.772988542033657D+00 -.147959528227429D+02 -.197825926275514D+02
0.317145853598D-06 0.000000000000D+00 0.000000000000D+00 0.383963103333D-06 0.000000000000D+00  6 1 21 25 23 1 21 2 0.71750277D-01 0.10434611D-01 0.23264880D+05 0.23264880D+05 0.23264880D+05 0.12266611D+01  1  2  2  3  6  5        1 0.196551390777D-02 0.100000000000D+01
0.206994266791D-08 0.167362464968D-07 -.640226104644D-09 0.383963103333D-06 0.000000000000D+00  6 1 21 25 23 1 21 4 0.71750277D-01 0.10434611D-01 0.23264880D+05 0.23264880D+05 0.23264880D+05 0.12266611D+01  1  2  3  3  6  5        1 0.193029903967D-04 0.100000000000D+01
0.370815863556D-07 0.000000000000D+00 0.000000000000D+00 0.383963103333D-06 0.000000000000D+00  6 1 21 25 23 1 21 4 0.71750277D-01 0.10434611D-01 0.23264880D+05 0.23264880D+05 0.23264880D+05 0.12266611D+01  1  2 15  3  6  5        1 0.345799676682D-03 0.100000000000D+01
0.512941091366D-07 0.000000000000D+00 0.000000000000D+00 0.383970768255D-06 0.000000000000D+00  6 1 21 25 23 1 21 4 0.71750277D-01 0.10434611D-01 0.23258815D+05 0.23258815D+05 0.23258815D+05 0.12266734D+01  1  2 12  3  6  5        1 0.478355626844D-03 0.100000000000D+01
-.307674785407D-04 0.000000000000D+00 0.000000000000D+00 0.383963103333D-06 0.000000000000D+00  6 1 21 25 23 1 21 4 0.71750277D-01 0.10434611D-01 0.23264880D+05 0.23264880D+05 0.23264880D+05 0.12266611D+01  1  2  4  3  6  5        1 -.286918257209D+00 0.100000000000D+01
-.141300393621D-04 0.000000000000D+00 0.000000000000D+00 0.383963103333D-06 0.000000000000D+00  6 1 21 25 23 1 21 4 0.71750277D-01 0.10434611D-01 0.23264880D+05 0.23264880D+05 0.23264880D+05 0.12266611D+01  1  2  5  3  6  5        1 -.131767907555D+00 0.100000000000D+01
0.200502791170D-04 0.000000000000D+00 -.000000000000D+00 0.383963103333D-06 0.000000000000D+00  6 1 21 25 23 1 21 4 0.71750277D-01 0.10434611D-01 0.23264880D+05 0.23264880D+05 0.23264880D+05 0.12266611D+01  1  2  6  3  6  5        1 0.186976359899D+00 0.100000000000D+01
0.205870452746D-04 0.000000000000D+00 0.000000000000D+00 0.383963103333D-06 0.401071621586D-06  6 1 21 25 23 1 21 4 0.71750277D-01 0.10434611D-01 0.23258815D+05 0.23258815D+05 0.23258815D+05 0.12266734D+01  1  2 11  3  6  5        1 0.191989472338D+00 0.100000000000D+01
  </mgrwgt>
  </event>
  <event>
  6     66 0.36102257E-03 0.30842702E+02 0.75467711E-02 0.12002253E+00
        1 -1    0    0  502    0 0.00000000E+00 0.00000000E+00 0.79529936E+03 0.79529943E+03 0.32000000E+00 0.0000E+00 0.9000E+01
       21 -1    0    0  501  502 0.00000000E+00 0.00000000E+00 -.11847640E+03 0.11847878E+03 0.75000000E+00 0.0000E+00 0.9000E+01
       25  1    1    2    0    0 0.15704702E+02 -.47062692E+02 0.38715429E+03 0.40984750E+03 0.12500000E+03 0.0000E+00 0.9000E+01
       23  1    1    2    0    0 0.94322179E+01 -.15198314E+02 0.36353797E+03 0.37522668E+03 0.91188000E+02 0.0000E+00 0.9000E+01
        1  1    1    2  503    0 0.37062843E+01 0.28365691E+02 0.12746588E+02 0.31319752E+02 0.32000000E+00 0.0000E+00 0.9000E+01
       21  1    1    2  501  503 -.28843204E+02 0.33895316E+02 -.86615880E+02 0.97384270E+02 0.75000000E+00 0.0000E+00 0.9000E+01
#aMCatNLO 2  0  0  5  5 0.24069178D+02 0.00000000D+00  -5  6  0 0.00000000D+00 0.00000000D+00 0.00000000D+00 0.00000000D+00 0.00000000D+00
  <mgrwgt>
 0.4176843099D-01    1    2    0
 0.306961432824983D+03 0.000000000000000D+00 0.000000000000000D+00 0.306961432824983D+03
 0.306961432824983D+03 -.000000000000000D+00 -.000000000000000D+00 -.306961432824983D+03
 0.185950861817275D+03 0.160669618084593D+02 -.479599647900896D+02 0.128040686995057D+03
 0.160343129700270D+03 0.974433054361001D+01 -.159713782392801D+02 0.130555087980026D+03
 0.267628874132421D+03 -.258112923520693D+02 0.639313430293697D+02 -.258595774975084D+03
 0.000000000000000D+00 0.000000000000000D+00 0.000000000000000D+00 -.000000000000000D+00
 0.306961432824983D+03 0.000000000000000D+00 0.000000000000000D+00 0.306961432824983D+03
 0.306961432824983D+03 -.000000000000000D+00 -.000000000000000D+00 -.306961432824983D+03
 0.183257152392727D+03 0.157114002007145D+02 -.470792831565338D+02 0.124478419432008D+03
 0.157760589135747D+03 0.943798435028333D+01 -.152125970320408D+02 0.127485895233169D+03
 0.319586218955690D+02 0.364573938334199D+01 0.278553243047700D+02 -.152362398802582D+02
 0.240946502225923D+03 -.287951239343399D+02 0.344365558838046D+02 -.236728074784919D+03
0.254123166251D-04 0.000000000000D+00 0.000000000000D+00 0.396942897055D-05 0.477493024006D-07  6 1 21 25 23 1 21 4 0.12235394D+00 0.18227326D-01 0.22560573D+05 0.22560573D+05 0.22560573D+05 0.12281073D+01  1  2  1  3  6  5        1 0.417684309873D-01 0.100000000000D+01
  </mgrwgt>
  </event>
  <event>
  6     66 -.36102257E-03 0.16974292E+02 0.75467711E-02 0.12337907E+00
        3 -1    0    0  502    0 0.00000000E+00 0.00000000E+00 0.60505837E+02 0.60507903E+02 0.50000000E+00 0.0000E+00 0.9000E+01
       21 -1    0    0  501  502 -.00000000E+00 -.00000000E+00 -.28462154E+03 0.28462253E+03 0.75000000E+00 0.0000E+00 0.9000E+01
       25  1    1    2    0    0 0.81698249E+01 0.31716072E+01 -.65813704E+02 0.14153886E+03 0.12500000E+03 0.0000E+00 0.9000E+01
       23  1    1    2    0    0 -.99532533E+01 -.23043385E+02 -.11800010E+03 0.15122612E+03 0.91188000E+02 0.0000E+00 0.9000E+01
        3  1    1    2  503    0 0.13598537E+01 0.18332447E+02 -.44316451E+02 0.47980472E+02 0.50000000E+00 0.0000E+00 0.9000E+01
       21  1    1    2  501  503 0.42357471E+00 0.15393302E+01 0.40145494E+01 0.43849811E+01 0.75000000E+00 0.0000E+00 0.9000E+01
#aMCatNLO 2  0  0  5  2 0.92818173D+01 0.00000000D+00  -5  6  0 0.00000000D+00 0.00000000D+00 0.00000000D+00 0.00000000D+00 0.00000000D+00
  <mgrwgt>
 -.6347416791D-01    2    2    0
 0.131231824402956D+03 0.000000000000000D+00 0.000000000000000D+00 0.131231824402956D+03
 0.131231824402956D+03 -.000000000000000D+00 -.000000000000000D+00 -.131231824402956D+03
 0.130564328286235D+03 0.763046394410111D+01 -.283820029696152D+01 0.368207069447044D+02
 0.988253776941073D+02 -.103610024720876D+02 -.275867128925738D+02 -.241418067248305D+02
 0.330739428255703D+02 0.273053852798645D+01 0.304249131895352D+02 -.126789002198739D+02
 0.000000000000000D+00 0.000000000000000D+00 0.000000000000000D+00 0.000000000000000D+00
 0.131231824402956D+03 0.000000000000000D+00 0.000000000000000D+00 0.131231824402956D+03
 0.131231824402956D+03 -.000000000000000D+00 -.000000000000000D+00 -.131231824402956D+03
 0.129908314789072D+03 0.818393747882658D+01 0.332885578891080D+01 0.342507246319846D+02
 0.980818718095114D+02 -.994259787454858D+01 -.229246568813688D+02 -.260846140096796D+02
 0.249974819183619D+02 0.130437381502685D+01 0.178355992511388D+02 -.174660845801880D+02
 0.947598028896667D+01 0.454286580695143D+00 0.176020184131923D+01 0.929997395788297D+01
-.121515822715D-04 0.000000000000D+00 0.000000000000D+00 0.635838644155D-06 0.000000000000D+00  6 3 21 25 23 3 21 4 0.93088252D-02 0.43788165D-01 0.14347567D+05 0.14347567D+05 0.14347567D+05 0.12500303D+01  1  2 13  3  6  5        3 -.591568607003D-01 0.100000000000D+01
-.897714011756D-06 0.000000000000D+00 0.000000000000D+00 0.630895214658D-06 0.000000000000D+00  6 3 21 25 23 3 21 4 0.93088252D-02 0.43788165D-01 0.15831085D+05 0.15831085D+05 0.15831085D+05 0.12451615D+01  1  2  8  3  6  5        3 -.431730721076D-02 0.100000000000D+01
  </mgrwgt>
  </event>
  <event>
  6     66 0.36102257E-03 0.91345271E+02 0.75467711E-02 0.11065901E+00
        1 -1    0    0  502    0 0.00000000E+00 0.00000000E+00 0.39046738E+03 0.39046751E+03 0.32000000E+00 0.0000E+00 0.9000E+01
       21 -1    0    0  501  502 0.00000000E+00 0.00000000E+00 -.25301613E+03 0.25301725E+03 0.75000000E+00 0.0000E+00 0.9000E+01
       25  1    1    2    0    0 0.22674092E+03 -.29041104E+02 0.80589576E+02 0.27271690E+03 0.12500000E+03 0.0000E+00 0.9000E+01
       23  1    1    2    0    0 -.13087295E+03 0.13850114E+02 0.15987937E+03 0.22626582E+03 0.91188000E+02 0.0000E+00 0.9000E+01
        1  1    1    2  503    0 -.88278236E+02 0.49389114E+01 -.87402135E+02 0.12432488E+03 0.32000000E+00 0.0000E+00 0.9000E+01
       21  1    1    2  501  503 -.75897313E+01 0.10252079E+02 -.15615570E+02 0.20177157E+02 0.75000000E+00 0.0000E+00 0.9000E+01
#aMCatNLO 2  0  0  5  2 0.99891128D+01 0.00000000D+00  -5  6  0 0.00000000D+00 0.00000000D+00 0.00000000D+00 0.00000000D+00 0.00000000D+00
  <mgrwgt>
 0.4133013403D-01    3    2    0
 0.314316633606235D+03 0.000000000000000D+00 0.000000000000000D+00 0.314316633606235D+03
 0.314316633606235D+03 -.000000000000000D+00 -.000000000000000D+00 -.314316633606235D+03
 0.262142115196806D+03 0.227337104682147D+03 -.291355742380992D+02 0.237159800221336D+02
 0.196723824074099D+03 -.130425105694813D+03 0.137791494796239D+02 0.114823510042378D+03
 0.169767327941565D+03 -.969119989873347D+02 0.153564247584753D+02 -.138539490064512D+03
 0.000000000000000D+00 0.000000000000000D+00 0.000000000000000D+00 -.000000000000000D+00
 0.314316633606235D+03 0.000000000000000D+00 0.000000000000000D+00 0.314316633606235D+03
 0.314316633606235D+03 -.000000000000000D+00 -.000000000000000D+00 -.314316633606235D+03
 0.261537462215913D+03 0.226739526818018D+03 -.290408835950031D+02 0.228617191108387D+02
 0.196653423229322D+03 -.130873993803839D+03 0.138502791286175D+02 0.114181806947092D+03
 0.146334526416443D+03 -.882765189011167D+02 0.489890438207007D+01 -.116606391626191D+03
 0.241078553507926D+02 -.758901411306180D+01 0.102917000843155D+02 -.204371344317394D+02
-.485126592216D-04 0.000000000000D+00 0.000000000000D+00 0.105927291830D-06 0.000000000000D+00  6 1 21 25 23 1 21 4 0.60072000D-01 0.38925655D-01 0.68080676D+05 0.68080676D+05 0.68080676D+05 0.11792295D+01  1  2 13  3  6  5        1 -.402118106743D-01 0.100000000000D+01
-.942945965137D-05 0.000000000000D+00 0.000000000000D+00 0.106011194903D-06 0.000000000000D+00  6 1 21 25 23 1 21 4 0.60072000D-01 0.38925655D-01 0.67320784D+05 0.67320784D+05 0.67320784D+05 0.11796964D+01  1  2  8  3  6  5        1 -.783130585359D-02 0.100000000000D+01
0.107822402794D-03 0.000000000000D+00 0.000000000000D+00 0.106011194903D-06 0.127234614032D-07  6 1 21 25 23 1 21 4 0.60072000D-01 0.38925655D-01 0.68080676D+05 0.68080676D+05 0.68080676D+05 0.11792295D+01  1  2  1  3  6  5        1 0.893732505530D-01 0.100000000000D+01
  </mgrwgt>
  </event>
  <event>
  5     66 0.36102257E-03 0.26063250E+02 0.75467711E-02 0.12350764E+00
        3 -1    0    0  502    0 0.00000000E+00 0.00000000E+00 0.26915569E+03 0.26915615E+03 0.50000000E+00 0.0000E+00 0.9000E+01
       21 -1    0    0  501  502 0.00000000E+00 0.00000000E+00 -.63600551E+02 0.63604973E+02 0.75000000E+00 0.0000E+00 0.9000E+01
       25  1    1    2    0    0 0.53185351E+01 0.51941606E+01 0.10189303E+03 0.16143871E+03 0.12500000E+03 0.0000E+00 0.9000E+01
       23  1    1    2    0    0 0.16363306E+02 0.92660737E+01 0.11038004E+03 0.14440437E+03 0.91188000E+02 0.0000E+00 0.9000E+01
        3  1    1    2  501    0 -.21681841E+02 -.14460234E+02 -.67179349E+01 0.26918047E+02 0.50000000E+00 0.0000E+00 0.9000E+01
#aMCatNLO 1  0  0  2  5 0.54313735D+01 0.00000000D+00  -5  6  0 0.00000000D+00 0.00000000D+00 0.00000000D+00 0.00000000D+00 0.00000000D+00
  <mgrwgt>
 0.1397517447D-01   41    2    0
 0.130840602124183D+03 0.000000000000000D+00 0.000000000000000D+00 0.130840602124183D+03
 0.130840602124183D+03 0.000000000000000D+00 0.000000000000000D+00 -.130840602124183D+03
 0.125251302017697D+03 0.531936634324598D+01 0.519471495796165D+01 0.275824860016143D+01
 0.969235845468742D+02 0.163639494451935D+02 0.926650265229401D+01 0.269310784144498D+02
 0.395063176837943D+02 -.216833157884395D+02 -.144612176102557D+02 -.296893270146112D+02
 0.000000000000000D+00 0.000000000000000D+00 -.000000000000000D+00 -.000000000000000D+00
 0.131182988834660D+03 0.000000000000000D+00 0.000000000000000D+00 0.131182988834660D+03
 0.154340441949360D+03 0.000000000000000D+00 0.000000000000000D+00 -.154340441949360D+03
 0.125241203628556D+03 0.310972910314362D+01 0.656359169161820D+01 0.275824860016143D+01
 0.967570190724583D+02 0.146554597107854D+02 0.103249170402656D+02 0.269310784144498D+02
 0.397393414252945D+02 -.223823553027440D+02 -.140281605863824D+02 -.296893270146112D+02
 0.237858666577117D+02 0.461716648881502D+01 -.286034814550138D+01 -.231574531147001D+02
0.250609432802D-06 0.000000000000D+00 0.000000000000D+00 0.131877495022D-05 0.000000000000D+00  6 3 21 25 23 3 21 2 0.41408944D-01 0.97850760D-02 0.14931752D+05 0.14931752D+05 0.14931752D+05 0.12480484D+01  1  2  2  2  6  2       21 0.912605842254D-03 0.100000000000D+01
0.143818505366D-07 0.132250231059D-07 -.505908241048D-09 0.131877495022D-05 0.000000000000D+00  6 3 21 25 23 3 21 4 0.41408944D-01 0.97850760D-02 0.14931752D+05 0.14931752D+05 0.14931752D+05 0.12480484D+01  1  2  3  2  6  2       21 0.815761942084D-04 0.100000000000D+01
0.153899994130D-07 0.000000000000D+00 0.000000000000D+00 0.131877495022D-05 0.000000000000D+00  6 3 21 25 23 3 21 4 0.41408944D-01 0.97850760D-02 0.14931752D+05 0.14931752D+05 0.14931752D+05 0.12480484D+01  1  2 15  2  6  2       21 0.872945785234D-04 0.100000000000D+01
0.506133578850D-05 0.000000000000D+00 0.000000000000D+00 0.131404895093D-05 0.000000000000D+00  6 3 21 25 23 3 21 4 0.41408944D-01 0.11553898D-01 0.15623855D+05 0.15623855D+05 0.15623855D+05 0.12458101D+01  1  2 12  2  6  2       21 0.213334345587D-01 0.100000000000D+01
0.421972064748D-05 0.000000000000D+00 0.000000000000D+00 0.131404895093D-05 0.000000000000D+00  6 3 21 25 23 3 21 4 0.41408944D-01 0.11898365D-01 0.15623855D+05 0.15623855D+05 0.15623855D+05 0.12458101D+01  1  2 12  2  6  2       21 0.168862518938D-01 0.100000000000D+01
-.121850496026D-04 0.000000000000D+00 0.000000000000D+00 0.131877495022D-05 0.000000000000D+00  6 3 21 25 23 3 21 4 0.41408944D-01 0.97850760D-02 0.14931752D+05 0.14931752D+05 0.14931752D+05 0.12480484D+01  1  2  4  2  6  2       21 -.691155821911D-01 0.100000000000D+01
-.189835312545D-04 0.000000000000D+00 -.536582038773D-06 0.131877495022D-05 0.000000000000D+00  6 3 21 25 23 3 21 4 0.41408944D-01 0.11561923D-01 0.14931752D+05 0.14931752D+05 0.14931752D+05 0.12480484D+01  1  2  5  2  6  2       21 -.803532168653D-01 0.100000000000D+01
0.178569573706D-04 0.000000000000D+00 0.507842305278D-06 0.131877495022D-05 0.000000000000D+00  6 3 21 25 23 3 21 4 0.41408944D-01 0.97850760D-02 0.14931752D+05 0.14931752D+05 0.14931752D+05 0.12480484D+01  1  2  6  2  6  2       21 0.101287565096D+00 0.100000000000D+01
0.546348480554D-05 0.000000000000D+00 0.000000000000D+00 0.131877495022D-05 0.760425178027D-06  6 3 21 25 23 3 21 4 0.41517303D-01 0.11542541D-01 0.15623855D+05 0.15623855D+05 0.15623855D+05 0.12458101D+01  1  2 11  2  6  2       21 0.229522723798D-01 0.100000000000D+01
0.252210725706D-06 0.000000000000D+00 0.000000000000D+00 0.131404895093D-05 0.000000000000D+00  6 3 -3 25 23 3 -3 4 0.41408944D-01 0.11553898D-01 0.15623855D+05 0.15623855D+05 0.15623855D+05 0.12458101D+01  1  2 12  5  6  2       21 0.466218355967D-04 0.100000000000D+01
0.257765014850D-06 0.000000000000D+00 0.000000000000D+00 0.131404895093D-05 0.000000000000D+00  6 3 -3 25 23 3 -3 4 0.41408944D-01 0.11898365D-01 0.15623855D+05 0.15623855D+05 0.15623855D+05 0.12458101D+01  1  2 12  5  6  2       21 0.453670294350D-04 0.100000000000D+01
-.941410424678D-06 0.000000000000D+00 -.247859739992D-07 0.131877495022D-05 0.000000000000D+00  6 3 -3 25 23 3 -3 4 0.41408944D-01 0.11561923D-01 0.14931752D+05 0.14931752D+05 0.14931752D+05 0.12480484D+01  1  2  5  5  6  2       21 -.174443986310D-03 0.100000000000D+01
0.673596418513D-06 0.000000000000D+00 0.000000000000D+00 0.131877495022D-05 0.924454337407D-07  6 3 -3 25 23 3 -3 4 0.41517303D-01 0.11542541D-01 0.15623855D+05 0.15623855D+05 0.15623855D+05 0.12458101D+01  1  2 11  5  6  2       21 0.124092187764D-03 0.100000000000D+01
0.252210725706D-06 0.000000000000D+00 0.000000000000D+00 0.131404895093D-05 0.000000000000D+00  6 3 3 25 23 3 3 4 0.41408944D-01 0.11553898D-01 0.15623855D+05 0.15623855D+05 0.15623855D+05 0.12458101D+01  1  2 12  6  6  2       21 0.466157065803D-04 0.100000000000D+01
0.257765014850D-06 0.000000000000D+00 0.000000000000D+00 0.131404895093D-05 0.000000000000D+00  6 3 3 25 23 3 3 4 0.41408944D-01 0.11898365D-01 0.15623855D+05 0.15623855D+05 0.15623855D+05 0.12458101D+01  1  2 12  6  6  2       21 0.453610647516D-04 0.100000000000D+01
-.941410424678D-06 0.000000000000D+00 -.247859739992D-07 0.131877495022D-05 0.000000000000D+00  6 3 3 25 23 3 3 4 0.41408944D-01 0.11561923D-01 0.14931752D+05 0.14931752D+05 0.14931752D+05 0.12480484D+01  1  2  5  6  6  2       21 -.174420942374D-03 0.100000000000D+01
0.374922464563D-06 0.000000000000D+00 0.000000000000D+00 0.131877495022D-05 0.224536398986D-07  6 3 3 25 23 3 3 4 0.41517303D-01 0.11542541D-01 0.15623855D+05 0.15623855D+05 0.15623855D+05 0.12458101D+01  1  2 11  6  6  2       21 0.690603920079D-04 0.100000000000D+01
0.252210725706D-06 0.000000000000D+00 0.000000000000D+00 0.131404895093D-05 0.000000000000D+00  6 3 -2 25 23 3 -2 4 0.41408944D-01 0.11553898D-01 0.15623855D+05 0.15623855D+05 0.15623855D+05 0.12458101D+01  1  2 12  7  6  2       21 0.689453508328D-04 0.100000000000D+01
0.252210725706D-06 0.000000000000D+00 0.000000000000D+00 0.131404895093D-05 0.000000000000D+00  6 3 -4 25 23 3 -4 4 0.41408944D-01 0.11553898D-01 0.15623855D+05 0.15623855D+05 0.15623855D+05 0.12458101D+01  1  2 12  7  6  2       21 0.404220318808D-04 0.100000000000D+01
0.257765014850D-06 0.000000000000D+00 0.000000000000D+00 0.131404895093D-05 0.000000000000D+00  6 3 -2 25 23 3 -2 4 0.41408944D-01 0.11898365D-01 0.15623855D+05 0.15623855D+05 0.15623855D+05 0.12458101D+01  1  2 12  7  6  2       21 0.672479721324D-04 0.100000000000D+01
0.257765014850D-06 0.000000000000D+00 0.000000000000D+00 0.131404895093D-05 0.000000000000D+00  6 3 -4 25 23 3 -4 4 0.41408944D-01 0.11898365D-01 0.15623855D+05 0.15623855D+05 0.15623855D+05 0.12458101D+01  1  2 12  7  6  2       21 0.392949915911D-04 0.100000000000D+01
-.941410424678D-06 0.000000000000D+00 -.247859739992D-07 0.131877495022D-05 0.000000000000D+00  6 3 -2 25 23 3 -2 4 0.41408944D-01 0.11561923D-01 0.14931752D+05 0.14931752D+05 0.14931752D+05 0.12480484D+01  1  2  5  7  6  2       21 -.258268108327D-03 0.100000000000D+01
-.941410424678D-06 0.000000000000D+00 -.247859739992D-07 0.131877495022D-05 0.000000000000D+00  6 3 -4 25 23 3 -4 4 0.41408944D-01 0.11561923D-01 0.14931752D+05 0.14931752D+05 0.14931752D+05 0.12480484D+01  1  2  5  7  6  2       21 -.151165286967D-03 0.100000000000D+01
0.367751923074D-06 0.000000000000D+00 0.000000000000D+00 0.131877495022D-05 0.432868658560D-07  6 3 -2 25 23 3 -2 4 0.41517303D-01 0.11542541D-01 0.15623855D+05 0.15623855D+05 0.15623855D+05 0.12458101D+01  1  2 11  7  6  2       21 0.100179974823D-03 0.100000000000D+01
0.367751923074D-06 0.000000000000D+00 0.000000000000D+00 0.131877495022D-05 0.432868658560D-07  6 3 -4 25 23 3 -4 4 0.41517303D-01 0.11542541D-01 0.15623855D+05 0.15623855D+05 0.15623855D+05 0.12458101D+01  1  2 11  7  6  2       21 0.587411976981D-04 0.100000000000D+01
0.252210725706D-06 0.000000000000D+00 0.000000000000D+00 0.131404895093D-05 0.000000000000D+00  6 3 2 25 23 3 2 4 0.41408944D-01 0.11553898D-01 0.15623855D+05 0.15623855D+05 0.15623855D+05 0.12458101D+01  1  2 12  8  6  2       21 0.108322592292D-03 0.100000000000D+01
0.252210725706D-06 0.000000000000D+00 0.000000000000D+00 0.131404895093D-05 0.000000000000D+00  6 3 4 25 23 3 4 4 0.41408944D-01 0.11553898D-01 0.15623855D+05 0.15623855D+05 0.15623855D+05 0.12458101D+01  1  2 12  8  6  2       21 0.404220318808D-04 0.100000000000D+01
0.257765014850D-06 0.000000000000D+00 0.000000000000D+00 0.131404895093D-05 0.000000000000D+00  6 3 2 25 23 3 2 4 0.41408944D-01 0.11898365D-01 0.15623855D+05 0.15623855D+05 0.15623855D+05 0.12458101D+01  1  2 12  8  6  2       21 0.106865647689D-03 0.100000000000D+01
0.257765014850D-06 0.000000000000D+00 0.000000000000D+00 0.131404895093D-05 0.000000000000D+00  6 3 4 25 23 3 4 4 0.41408944D-01 0.11898365D-01 0.15623855D+05 0.15623855D+05 0.15623855D+05 0.12458101D+01  1  2 12  8  6  2       21 0.392949915911D-04 0.100000000000D+01
-.941410424678D-06 0.000000000000D+00 -.247859739992D-07 0.131877495022D-05 0.000000000000D+00  6 3 2 25 23 3 2 4 0.41408944D-01 0.11561923D-01 0.14931752D+05 0.14931752D+05 0.14931752D+05 0.12480484D+01  1  2  5  8  6  2       21 -.405918787325D-03 0.100000000000D+01
-.941410424678D-06 0.000000000000D+00 -.247859739992D-07 0.131877495022D-05 0.000000000000D+00  6 3 4 25 23 3 4 4 0.41408944D-01 0.11561923D-01 0.14931752D+05 0.14931752D+05 0.14931752D+05 0.12480484D+01  1  2  5  8  6  2       21 -.151165286967D-03 0.100000000000D+01
0.370387726152D-06 0.000000000000D+00 0.000000000000D+00 0.131877495022D-05 0.435971175423D-07  6 3 2 25 23 3 2 4 0.41517303D-01 0.11542541D-01 0.15623855D+05 0.15623855D+05 0.15623855D+05 0.12458101D+01  1  2 11  8  6  2       21 0.158464837621D-03 0.100000000000D+01
0.370387726152D-06 0.000000000000D+00 0.000000000000D+00 0.131877495022D-05 0.435971175423D-07  6 3 4 25 23 3 4 4 0.41517303D-01 0.11542541D-01 0.15623855D+05 0.15623855D+05 0.15623855D+05 0.12458101D+01  1  2 11  8  6  2       21 0.591622158355D-04 0.100000000000D+01
0.252210725706D-06 0.000000000000D+00 0.000000000000D+00 0.131404895093D-05 0.000000000000D+00  6 3 -1 25 23 3 -1 4 0.41408944D-01 0.11553898D-01 0.15623855D+05 0.15623855D+05 0.15623855D+05 0.12458101D+01  1  2 12  9  6  2       21 0.726350314787D-04 0.100000000000D+01
0.257765014850D-06 0.000000000000D+00 0.000000000000D+00 0.131404895093D-05 0.000000000000D+00  6 3 -1 25 23 3 -1 4 0.41408944D-01 0.11898365D-01 0.15623855D+05 0.15623855D+05 0.15623855D+05 0.12458101D+01  1  2 12  9  6  2       21 0.709565870056D-04 0.100000000000D+01
-.941410424678D-06 0.000000000000D+00 -.247859739992D-07 0.131877495022D-05 0.000000000000D+00  6 3 -1 25 23 3 -1 4 0.41408944D-01 0.11561923D-01 0.14931752D+05 0.14931752D+05 0.14931752D+05 0.12480484D+01  1  2  5  9  6  2       21 -.272107352727D-03 0.100000000000D+01
0.379525352862D-06 0.000000000000D+00 0.000000000000D+00 0.131877495022D-05 0.446726774423D-07  6 3 -1 25 23 3 -1 4 0.41517303D-01 0.11542541D-01 0.15623855D+05 0.15623855D+05 0.15623855D+05 0.12458101D+01  1  2 11  9  6  2       21 0.108914505024D-03 0.100000000000D+01
0.252210725706D-06 0.000000000000D+00 0.000000000000D+00 0.131404895093D-05 0.000000000000D+00  6 3 1 25 23 3 1 4 0.41408944D-01 0.11553898D-01 0.15623855D+05 0.15623855D+05 0.15623855D+05 0.12458101D+01  1  2 12 10  6  2       21 0.938948692207D-04 0.100000000000D+01
0.257765014850D-06 0.000000000000D+00 0.000000000000D+00 0.131404895093D-05 0.000000000000D+00  6 3 1 25 23 3 1 4 0.41408944D-01 0.11898365D-01 0.15623855D+05 0.15623855D+05 0.15623855D+05 0.12458101D+01  1  2 12 10  6  2       21 0.923375811321D-04 0.100000000000D+01
-.941410424678D-06 0.000000000000D+00 -.247859739992D-07 0.131877495022D-05 0.000000000000D+00  6 3 1 25 23 3 1 4 0.41408944D-01 0.11561923D-01 0.14931752D+05 0.14931752D+05 0.14931752D+05 0.12480484D+01  1  2  5 10  6  2       21 -.351831261680D-03 0.100000000000D+01
0.374972088264D-06 0.000000000000D+00 0.000000000000D+00 0.131877495022D-05 0.441367276852D-07  6 3 1 25 23 3 1 4 0.41517303D-01 0.11542541D-01 0.15623855D+05 0.15623855D+05 0.15623855D+05 0.12458101D+01  1  2 11 10  6  2       21 0.139073366486D-03 0.100000000000D+01
  </mgrwgt>
  </event>
  <event>
  5     66 0.36102257E-03 0.30689158E+02 0.75467711E-02 0.11806489E+00
        1 -1    0    0  502    0 0.00000000E+00 0.00000000E+00 0.46970368E+03 0.46970379E+03 0.32000000E+00 0.0000E+00 0.9000E+01
       21 -1    0    0  501  502 0.00000000E+00 0.00000000E+00 -.58536719E+02 0.58541523E+02 0.75000000E+00 0.0000E+00 0.9000E+01
       25  1    1    2    0    0 -.23426968E+02 0.92862042E+02 0.14878059E+03 0.21663990E+03 0.12500000E+03 0.0000E+00 0.9000E+01
       23  1    1    2    0    0 0.38072401E+02 -.65893889E+02 0.25303294E+03 0.27952179E+03 0.91188000E+02 0.0000E+00 0.9000E+01
        1  1    1    2  501    0 -.14645433E+02 -.26968153E+02 0.93534388E+01 0.32083628E+02 0.32000000E+00 0.0000E+00 0.9000E+01
#aMCatNLO 1  0  0  1  2 0.26785749D+02 0.00000000D+00  -5  6  0 0.00000000D+00 0.00000000D+00 0.00000000D+00 0.00000000D+00 0.00000000D+00
  <mgrwgt>
 0.2178602261D-01    9    2    0
 0.165819812277202D+03 0.000000000000000D+00 0.000000000000000D+00 0.165819812277202D+03
 0.165819812277202D+03 0.000000000000000D+00 0.000000000000000D+00 -.165819812277202D+03
 0.160612270398356D+03 -.234267353741188D+02 0.928624702181954D+02 -.316077695701589D+02
 0.131520162683183D+03 0.380725918551448D+02 -.658935379827337D+02 0.564873547775114D+02
 0.395071914728654D+02 -.146458564810260D+02 -.269689322354617D+02 -.248795852073525D+02
 0.000000000000000D+00 0.000000000000000D+00 -.000000000000000D+00 0.000000000000000D+00
 0.252411147214566D+03 0.000000000000000D+00 0.000000000000000D+00 0.252411147214566D+03
 0.168444230765291D+03 0.000000000000000D+00 0.000000000000000D+00 -.168444230765291D+03
 0.164642783415251D+03 -.362142390858484D+02 0.957691177831037D+02 -.316077695701589D+02
 0.127770264397192D+03 0.278785079821042D+02 -.635763844761533D+02 0.564873547775114D+02
 0.403065292016809D+02 -.177837577600561D+02 -.262556755031685D+02 -.248795852073525D+02
 0.881358009657323D+02 0.261194888638003D+02 -.593705780378186D+01 0.839669164492751D+02
0.969331162460D-06 0.000000000000D+00 0.000000000000D+00 0.463116956568D-06 0.000000000000D+00  6 1 21 25 23 1 21 2 0.72262483D-01 0.90060270D-02 0.23551867D+05 0.23551867D+05 0.23551867D+05 0.12260858D+01  1  2  2  1  6  1        1 0.769864131560D-02 0.100000000000D+01
0.484878829885D-07 0.511530107926D-07 -.195680034032D-08 0.463116956568D-06 0.000000000000D+00  6 1 21 25 23 1 21 4 0.72262483D-01 0.90060270D-02 0.23551867D+05 0.23551867D+05 0.23551867D+05 0.12260858D+01  1  2  3  1  6  1        1 0.578917750273D-03 0.100000000000D+01
0.678013136895D-07 0.000000000000D+00 0.000000000000D+00 0.463116956568D-06 0.000000000000D+00  6 1 21 25 23 1 21 4 0.72262483D-01 0.90060270D-02 0.23551867D+05 0.23551867D+05 0.23551867D+05 0.12260858D+01  1  2 15  1  6  1        1 0.809509130271D-03 0.100000000000D+01
0.169800048589D-04 0.000000000000D+00 0.000000000000D+00 0.457066684546D-06 0.000000000000D+00  6 1 21 25 23 1 21 4 0.11032808D+00 0.90060270D-02 0.28003194D+05 0.28003194D+05 0.28003194D+05 0.12180505D+01  1  2 12  1  6  1        1 0.110876502326D+00 0.100000000000D+01
-.151032112794D-04 0.000000000000D+00 0.000000000000D+00 0.463116956568D-06 0.000000000000D+00  6 1 21 25 23 1 21 4 0.72262483D-01 0.90060270D-02 0.23551867D+05 0.23551867D+05 0.23551867D+05 0.12260858D+01  1  2  4  1  6  1        1 -.180323754243D+00 0.100000000000D+01
-.178486641275D-04 0.000000000000D+00 -.118751807793D-05 0.463116956568D-06 0.000000000000D+00  6 1 21 25 23 1 21 4 0.11072400D+00 0.90060270D-02 0.23551867D+05 0.23551867D+05 0.23551867D+05 0.12260858D+01  1  2  5  1  6  1        1 -.119198901493D+00 0.100000000000D+01
0.168941796829D-04 0.000000000000D+00 0.108703101933D-05 0.463116956568D-06 0.000000000000D+00  6 1 21 25 23 1 21 4 0.72262483D-01 0.90060270D-02 0.23551867D+05 0.23551867D+05 0.23551867D+05 0.12260858D+01  1  2  6  1  6  1        1 0.201706898547D+00 0.100000000000D+01
0.842546666849D-06 0.000000000000D+00 0.000000000000D+00 0.457066684546D-06 0.000000000000D+00  6 21 21 25 23 1 -1 4 0.11032808D+00 0.90060270D-02 0.28003194D+05 0.28003194D+05 0.28003194D+05 0.12180505D+01  1  2 12  4  6  1        1 0.118800373241D-01 0.100000000000D+01
-.847058476057D-06 0.000000000000D+00 -.592956536604D-07 0.463116956568D-06 0.000000000000D+00  6 21 21 25 23 1 -1 4 0.11072400D+00 0.90060270D-02 0.23551867D+05 0.23551867D+05 0.23551867D+05 0.12260858D+01  1  2  5  4  6  1        1 -.122418280487D-01 0.100000000000D+01
  </mgrwgt>
  </event>
  <event>
  5     66 0.36102257E-03 0.23625999E+02 0.75467711E-02 0.11858069E+00
        1 -1    0    0  502    0 0.00000000E+00 0.00000000E+00 0.24898560E+03 0.24898580E+03 0.32000000E+00 0.0000E+00 0.9000E+01
       21 -1    0    0  501  502 0.00000000E+00 0.00000000E+00 -.13459180E+03 0.13459389E+03 0.75000000E+00 0.0000E+00 0.9000E+01
       25  1    1    2    0    0 0.45369125E+01 -.13773987E+00 0.91662946E+02 0.15507320E+03 0.12500000E+03 0.0000E+00 0.9000E+01
       23  1    1    2    0    0 0.15640585E+02 0.12428127E+02 0.10641106E+03 0.14155441E+03 0.91188000E+02 0.0000E+00 0.9000E+01
        1  1    1    2  501    0 -.20177497E+02 -.12290387E+02 -.83680206E+02 0.86952081E+02 0.32000000E+00 0.0000E+00 0.9000E+01
#aMCatNLO 1  0  0  5  2 0.11365513D+02 0.00000000D+00  -5  6  0 0.00000000D+00 0.00000000D+00 0.00000000D+00 0.00000000D+00 0.00000000D+00
  <mgrwgt>
 0.1829687931D+00    4    2    0
 0.183062448193330D+03 0.000000000000000D+00 0.000000000000000D+00 0.183062448193330D+03
 0.183062448193330D+03 -.000000000000000D+00 -.000000000000000D+00 -.183062448193330D+03
 0.133826681013754D+03 0.453693994295917D+01 -.137723134795996D+00 0.475812753028891D+02
 0.115055443319076D+03 0.156406086149163D+02 0.124281409487594D+02 0.672563481618054D+02
 0.117242772053829D+03 -.201775485578755D+02 -.122904178139634D+02 -.114837623464694D+03
 0.000000000000000D+00 0.000000000000000D+00 0.000000000000000D+00 0.000000000000000D+00
 0.183062448193330D+03 0.000000000000000D+00 0.000000000000000D+00 0.183062448193330D+03
 0.183062448193330D+03 -.000000000000000D+00 -.000000000000000D+00 -.183062448193330D+03
 0.126684160297712D+03 -.246074529282051D+00 -.305112196049893D+01 0.203594344824374D+02
 0.102624814817809D+03 0.116439694741095D+02 0.999373397651186D+01 0.445100497470211D+02
 0.488230111852974D+02 0.471809773498768D+02 -.125434325203960D+02 0.551450919264443D+00
 0.879929100858415D+02 -.585788722947043D+02 0.560082050438308D+01 -.654209351487229D+02
0.359694990473D-04 0.000000000000D+00 0.000000000000D+00 0.635937877913D-05 0.000000000000D+00  6 1 21 25 23 1 21 2 0.38305653D-01 0.20706607D-01 0.14648141D+05 0.14648141D+05 0.14648141D+05 0.12489995D+01  1  2  2  3  6  5        1 0.147075884143D+00 0.100000000000D+01
0.745239840323D-05 0.189816261380D-05 -.726120553045D-07 0.635937877913D-05 0.000000000000D+00  6 1 21 25 23 1 21 4 0.38305653D-01 0.20706607D-01 0.14648141D+05 0.14648141D+05 0.14648141D+05 0.12489995D+01  1  2  3  3  6  5        1 0.475365481209D-01 0.100000000000D+01
0.214692815533D-05 0.000000000000D+00 0.000000000000D+00 0.635937877913D-05 0.000000000000D+00  6 1 21 25 23 1 21 4 0.38305653D-01 0.20706607D-01 0.14648141D+05 0.14648141D+05 0.14648141D+05 0.12489995D+01  1  2 15  3  6  5        1 0.136945917335D-01 0.100000000000D+01
-.397232442907D-05 0.000000000000D+00 0.000000000000D+00 0.635937877913D-05 0.000000000000D+00  6 1 21 25 23 1 21 4 0.38305653D-01 0.20706607D-01 0.14648141D+05 0.14648141D+05 0.14648141D+05 0.12489995D+01  1  2  4  3  6  5        1 -.253382308831D-01 0.100000000000D+01
  </mgrwgt>
  </event>
  <event>
  5     66 -.36102257E-03 0.32294016E+02 0.75467711E-02 0.11699771E+00
        1 -1    0    0  502    0 0.00000000E+00 0.00000000E+00 0.14892966E+04 0.14892966E+04 0.32000000E+00 0.0000E+00 0.9000E+01
       21 -1    0    0  501  502 0.00000000E+00 0.00000000E+00 -.34908667E+02 0.34916722E+02 0.75000000E+00 0.0000E+00 0.9000E+01
       25  1    1    2    0    0 0.12316142E+03 0.13537473E+01 0.63767434E+03 0.66138047E+03 0.12500000E+03 0.0000E+00 0.9000E+01
       23  1    1    2    0    0 -.10095722E+03 -.24803077E+02 0.81887114E+03 0.83046538E+03 0.91188000E+02 0.0000E+00 0.9000E+01
        1  1    1    2  501    0 -.22204197E+02 0.23449330E+02 -.21575522E+01 0.32367497E+02 0.32000000E+00 0.0000E+00 0.9000E+01
#aMCatNLO 1  0  0  5  1 0.99726674D+01 0.00000000D+00  -5  6  0 0.00000000D+00 0.00000000D+00 0.00000000D+00 0.00000000D+00 0.00000000D+00
  <mgrwgt>
 -.4840515632D-01    7    2    0
 0.228025269818560D+03 0.000000000000000D+00 0.000000000000000D+00 0.228025269818560D+03
 0.228025269818560D+03 -.000000000000000D+00 -.000000000000000D+00 -.228025269818560D+03
 0.176864401475212D+03 0.123161448757867D+03 0.135371212074697D+01 0.220327372911838D+02
 0.164126877500511D+03 -.100957187574761D+03 -.248031100664104D+02 0.884015417404910D+02
 0.115059260661398D+03 -.222042611831054D+02 0.234493979456635D+02 -.110434279031675D+03
 0.000000000000000D+00 0.000000000000000D+00 0.000000000000000D+00 -.000000000000000D+00
 0.228025269818560D+03 0.000000000000000D+00 0.000000000000000D+00 0.228025269818560D+03
 0.228025269818560D+03 -.000000000000000D+00 -.000000000000000D+00 -.228025269818560D+03
 0.176513608317918D+03 0.122889192301530D+03 0.164123576025311D+01 0.206786528107635D+02
 0.163569822217395D+03 -.101209658129651D+03 -.245364818520170D+02 0.871458636759936D+02
 0.984718023598087D+02 -.282241750015679D+02 0.166087628395201D+02 -.928667906326620D+02
 0.174953067419991D+02 0.654464082968897D+01 0.628648325224383D+01 -.149577258540951D+02
0.323795083464D-05 0.000000000000D+00 0.000000000000D+00 0.114342633469D-05 0.000000000000D+00  6 1 21 25 23 1 21 2 0.22912317D+00 0.53711864D-02 0.29940403D+05 0.29940403D+05 0.29940403D+05 0.12149890D+01  1  2  2  3  6  5        1 0.945376853923D-02 0.100000000000D+01
0.522462557230D-06 0.170871359969D-06 -.653648984014D-08 0.114342633469D-05 0.000000000000D+00  6 1 21 25 23 1 21 4 0.22912317D+00 0.53711864D-02 0.29940403D+05 0.29940403D+05 0.29940403D+05 0.12149890D+01  1  2  3  3  6  5        1 0.225182488108D-02 0.100000000000D+01
0.357489412481D-06 0.000000000000D+00 0.000000000000D+00 0.114342633469D-05 0.000000000000D+00  6 1 21 25 23 1 21 4 0.22912317D+00 0.53711864D-02 0.29940403D+05 0.29940403D+05 0.29940403D+05 0.12149890D+01  1  2 15  3  6  5        1 0.154078707193D-02 0.100000000000D+01
-.166671045127D-04 0.000000000000D+00 0.000000000000D+00 0.114342633469D-05 0.000000000000D+00  6 1 21 25 23 1 21 4 0.22912317D+00 0.53711864D-02 0.29940403D+05 0.29940403D+05 0.29940403D+05 0.12149890D+01  1  2  4  3  6  5        1 -.718355796372D-01 0.100000000000D+01
-.144554090747D-04 0.000000000000D+00 0.000000000000D+00 0.114342633469D-05 0.000000000000D+00  6 1 21 25 23 1 21 4 0.22912317D+00 0.53711864D-02 0.29940403D+05 0.29940403D+05 0.29940403D+05 0.12149890D+01  1  2  5  3  6  5        1 -.623031246357D-01 0.100000000000D+01
0.168182842254D-04 0.000000000000D+00 -.000000000000D+00 0.114342633469D-05 0.000000000000D+00  6 1 21 25 23 1 21 4 0.22912317D+00 0.53711864D-02 0.29940403D+05 0.29940403D+05 0.29940403D+05 0.12149890D+01  1  2  6  3  6  5        1 0.724871674569D-01 0.100000000000D+01
0.105380125631D-14 0.000000000000D+00 0.000000000000D+00 0.114342633469D-05 0.114515179266D-06  6 1 21 25 23 1 21 4 0.22912317D+00 0.53711864D-02 0.31602789D+05 0.31602789D+05 0.31602789D+05 0.12125331D+01  1  2 11  3  6  5        1 0.449955509568D-11 0.100000000000D+01
  </mgrwgt>
  </event>
  <event>
  5     66 -.36102257E-03 0.20834188E+02 0.75467711E-02 0.12004490E+00
        1 -1    0    0  502    0 0.00000000E+00 0.00000000E+00 0.16289300E+04 0.16289300E+04 0.32000000E+00 0.0000E+00 0.9000E+01
       21 -1    0    0  501  502 0.00000000E+00 0.00000000E+00 -.34539514E+02 0.34547656E+02 0.75000000E+00 0.0000E+00 0.9000E+01
       25  1    1    2    0    0 0.20491083E+02 0.19146014E+01 0.66152460E+03 0.67354536E+03 0.12500000E+03 0.0000E+00 0.9000E+01
       23  1    1    2    0    0 -.25925511E+01 -.12577862E+02 0.95506028E+03 0.95948961E+03 0.91188000E+02 0.0000E+00 0.9000E+01
        1  1    1    2  501    0 -.17898532E+02 0.10663260E+02 -.22194424E+02 0.30442691E+02 0.32000000E+00 0.0000E+00 0.9000E+01
#aMCatNLO 1  0  0  2  1 0.21101697D+02 0.00000000D+00  -5  6  0 0.00000000D+00 0.00000000D+00 0.00000000D+00 0.00000000D+00 0.00000000D+00
  <mgrwgt>
 -.8919899422D+00   12    2    0
 0.237211398711042D+03 0.000000000000000D+00 0.000000000000000D+00 0.237211398711042D+03
 0.237211398711042D+03 0.000000000000000D+00 0.000000000000000D+00 -.237211398711042D+03
 0.138482296601133D+03 0.204910909131980D+02 0.191459652717572D+01 0.559356414573882D+02
 0.154610129611315D+03 -.259254204556540D+01 -.125778672678990D+02 0.124193867864564D+03
 0.181330371209636D+03 -.178985488676326D+02 0.106632707407233D+02 -.180129509321952D+03
 0.000000000000000D+00 0.000000000000000D+00 -.000000000000000D+00 -.000000000000000D+00
 0.239998460371989D+03 0.000000000000000D+00 0.000000000000000D+00 0.239998460371989D+03
 0.548847407025220D+03 0.000000000000000D+00 0.000000000000000D+00 -.548847407025220D+03
 0.138716219062371D+03 0.165416456305870D+02 0.146549447471566D+02 0.559356414573882D+02
 0.154242944581794D+03 -.699299243748813D+01 0.161735922749985D+01 0.124193867864564D+03
 0.183665708497051D+03 -.230989087675353D+02 0.274388914299626D+02 -.180129509321952D+03
 0.312220995255994D+03 0.135502555744365D+02 -.437111954046190D+02 -.308848946653230D+03
0.137624734284D-04 0.000000000000D+00 0.000000000000D+00 0.156586607689D-04 0.000000000000D+00  6 1 21 25 23 1 21 2 0.25060524D+00 0.53144001D-02 0.14352631D+05 0.14352631D+05 0.14352631D+05 0.12500127D+01  1  2  2  2  6  2       21 0.357467229933D-01 0.100000000000D+01
0.425931404516D-05 0.726265675841D-06 -.277824687076D-07 0.156586607689D-04 0.000000000000D+00  6 1 21 25 23 1 21 4 0.25060524D+00 0.53144001D-02 0.14352631D+05 0.14352631D+05 0.14352631D+05 0.12500127D+01  1  2  3  2  6  2       21 0.172865470792D-01 0.100000000000D+01
0.122005260593D-05 0.000000000000D+00 0.000000000000D+00 0.156586607689D-04 0.000000000000D+00  6 1 21 25 23 1 21 4 0.25060524D+00 0.53144001D-02 0.14352631D+05 0.14352631D+05 0.14352631D+05 0.12500127D+01  1  2 15  2  6  2       21 0.495161816855D-02 0.100000000000D+01
-.880340855218D-03 0.000000000000D+00 -.233478905185D-04 0.156586607689D-04 0.000000000000D+00  6 1 21 25 23 1 21 4 0.25060524D+00 0.12384904D-01 0.14352631D+05 0.14352631D+05 0.14352631D+05 0.12500127D+01  1  2  5  2  6  2       21 -.830928750407D+00 0.100000000000D+01
-.254351750580D-03 0.000000000000D+00 -.688948896008D-05 0.156586607689D-04 0.000000000000D+00  6 1 -1 25 23 1 -1 4 0.25060524D+00 0.12384904D-01 0.14352631D+05 0.14352631D+05 0.14352631D+05 0.12500127D+01  1  2  5  5  6  2       21 -.166446840919D-01 0.100000000000D+01
-.254351750580D-03 0.000000000000D+00 -.688948896008D-05 0.156586607689D-04 0.000000000000D+00  6 1 1 25 23 1 1 4 0.25060524D+00 0.12384904D-01 0.14352631D+05 0.14352631D+05 0.14352631D+05 0.12500127D+01  1  2  5  6  6  2       21 -.218657770607D-01 0.100000000000D+01
-.254351750580D-03 0.000000000000D+00 -.688948896008D-05 0.156586607689D-04 0.000000000000D+00  6 1 -2 25 23 1 -2 4 0.25060524D+00 0.12384904D-01 0.14352631D+05 0.14352631D+05 0.14352631D+05 0.12500127D+01  1  2  5  7  6  2       21 -.157394067945D-01 0.100000000000D+01
-.254351750580D-03 0.000000000000D+00 -.688948896008D-05 0.156586607689D-04 0.000000000000D+00  6 1 -4 25 23 1 -4 4 0.25060524D+00 0.12384904D-01 0.14352631D+05 0.14352631D+05 0.14352631D+05 0.12500127D+01  1  2  5  7  6  2       21 -.912748095675D-02 0.100000000000D+01
-.254351750580D-03 0.000000000000D+00 -.688948896008D-05 0.156586607689D-04 0.000000000000D+00  6 1 2 25 23 1 2 4 0.25060524D+00 0.12384904D-01 0.14352631D+05 0.14352631D+05 0.14352631D+05 0.12500127D+01  1  2  5  8  6  2       21 -.254175703453D-01 0.100000000000D+01
-.254351750580D-03 0.000000000000D+00 -.688948896008D-05 0.156586607689D-04 0.000000000000D+00  6 1 4 25 23 1 4 4 0.25060524D+00 0.12384904D-01 0.14352631D+05 0.14352631D+05 0.14352631D+05 0.12500127D+01  1  2  5  8  6  2       21 -.912748095675D-02 0.100000000000D+01
-.254351750580D-03 0.000000000000D+00 -.688948896008D-05 0.156586607689D-04 0.000000000000D+00  6 1 -3 25 23 1 -3 4 0.25060524D+00 0.12384904D-01 0.14352631D+05 0.14352631D+05 0.14352631D+05 0.12500127D+01  1  2  5  9  6  2       21 -.105625397213D-01 0.100000000000D+01
-.254351750580D-03 0.000000000000D+00 -.688948896008D-05 0.156586607689D-04 0.000000000000D+00  6 1 3 25 23 1 3 4 0.25060524D+00 0.12384904D-01 0.14352631D+05 0.14352631D+05 0.14352631D+05 0.12500127D+01  1  2  5 10  6  2       21 -.105611401455D-01 0.100000000000D+01
  </mgrwgt>
  </event>
  <event>
  5     66 -.36102257E-03 0.10137844E+03 0.75467711E-02 0.11620014E+00
        1 -1    0    0  502    0 0.00000000E+00 0.00000000E+00 0.16291881E+04 0.16291882E+04 0.32000000E+00 0.0000E+00 0.9000E+01
       21 -1    0    0  501  502 0.00000000E+00 0.00000000E+00 -.28396036E+02 0.28405939E+02 0.75000000E+00 0.0000E+00 0.9000E+01
       25  1    1    2    0    0 -.74523659E+02 -.73911866E+02 0.10809755E+04 0.10932290E+04 0.12500000E+03 0.0000E+00 0.9000E+01
       23  1    1    2    0    0 -.24869217E+02 0.20680863E+02 0.32688163E+03 0.34090032E+03 0.91188000E+02 0.0000E+00 0.9000E+01
        1  1    1    2  501    0 0.99392876E+02 0.53231003E+02 0.19293502E+03 0.22346478E+03 0.32000000E+00 0.0000E+00 0.9000E+01
#aMCatNLO 1  0  0  5  2 0.73192581D+01 0.00000000D+00  -5  6  0 0.00000000D+00 0.00000000D+00 0.00000000D+00 0.00000000D+00 0.00000000D+00
  <mgrwgt>
 -.5649231196D-01    8    2    0
 0.215106296528509D+03 0.000000000000000D+00 0.000000000000000D+00 0.215106296528509D+03
 0.215106296528509D+03 -.000000000000000D+00 -.000000000000000D+00 -.215106296528509D+03
 0.189936442542129D+03 -.745237685052960D+02 -.739119244676519D+02 0.971292312067616D+02
 0.971724926671173D+02 -.248692732731074D+02 0.206808327571321D+02 -.900357653824325D+01
 0.143103657847772D+03 0.993930417784034D+02 0.532310917105198D+02 -.881256546685183D+02
 0.000000000000000D+00 0.000000000000000D+00 0.000000000000000D+00 -.000000000000000D+00
 0.215106296528509D+03 0.000000000000000D+00 0.000000000000000D+00 0.215106296528509D+03
 0.215106296528509D+03 -.000000000000000D+00 -.000000000000000D+00 -.215106296528509D+03
 0.189541821845718D+03 -.741490906032589D+02 -.737112613889455D+02 0.967970275150739D+02
 0.971614113879557D+02 -.246773976736353D+02 0.207835939509718D+02 -.917370074931316D+01
 0.115963294352033D+03 0.820985422609535D+02 0.481155635616754D+02 -.662737318908860D+02
 0.275460654713116D+02 0.167279460159407D+02 0.481210387629832D+01 -.213495948748747D+02
0.535698230142D-06 0.000000000000D+00 0.000000000000D+00 0.225158535320D-06 0.000000000000D+00  6 1 21 25 23 1 21 2 0.25064509D+00 0.43693851D-02 0.34731423D+05 0.34731423D+05 0.34731423D+05 0.12082793D+01  1  2  2  3  6  5        1 0.177159805499D-02 0.100000000000D+01
-.253433662320D-07 0.282695722672D-07 -.108142038515D-08 0.225158535320D-06 0.000000000000D+00  6 1 21 25 23 1 21 4 0.25064509D+00 0.43693851D-02 0.34731423D+05 0.34731423D+05 0.34731423D+05 0.12082793D+01  1  2  3  3  6  5        1 -.122361272010D-03 0.100000000000D+01
0.529250894502D-07 0.000000000000D+00 0.000000000000D+00 0.225158535320D-06 0.000000000000D+00  6 1 21 25 23 1 21 4 0.25064509D+00 0.43693851D-02 0.34731423D+05 0.34731423D+05 0.34731423D+05 0.12082793D+01  1  2 15  3  6  5        1 0.255529640661D-03 0.100000000000D+01
0.768649227944D-05 0.000000000000D+00 0.000000000000D+00 0.225200962481D-06 0.000000000000D+00  6 1 21 25 23 1 21 4 0.25064509D+00 0.43693851D-02 0.34643332D+05 0.34643332D+05 0.34643332D+05 0.12083932D+01  1  2 12  3  6  5        1 0.371276620193D-01 0.100000000000D+01
-.218671003115D-04 0.000000000000D+00 0.000000000000D+00 0.225158535320D-06 0.000000000000D+00  6 1 21 25 23 1 21 4 0.25064509D+00 0.43693851D-02 0.34731423D+05 0.34731423D+05 0.34731423D+05 0.12082793D+01  1  2  4  3  6  5        1 -.105577380084D+00 0.100000000000D+01
-.798554389784D-05 0.000000000000D+00 0.000000000000D+00 0.225158535320D-06 0.000000000000D+00  6 1 21 25 23 1 21 4 0.25064509D+00 0.43693851D-02 0.34731423D+05 0.34731423D+05 0.34731423D+05 0.12082793D+01  1  2  5  3  6  5        1 -.385553087183D-01 0.100000000000D+01
0.966730781145D-05 0.000000000000D+00 -.000000000000D+00 0.225158535320D-06 0.000000000000D+00  6 1 21 25 23 1 21 4 0.25064509D+00 0.43693851D-02 0.34731423D+05 0.34731423D+05 0.34731423D+05 0.12082793D+01  1  2  6  3  6  5        1 0.466750971397D-01 0.100000000000D+01
0.400155718757D-06 0.000000000000D+00 0.000000000000D+00 0.225158535320D-06 0.485389826108D-07  6 1 21 25 23 1 21 4 0.25064509D+00 0.43693851D-02 0.34643332D+05 0.34643332D+05 0.34643332D+05 0.12083932D+01  1  2 11  3  6  5        1 0.193285125919D-02 0.100000000000D+01
  </mgrwgt>
  </event>
  <event>
  6     66 0.36102257E-03 0.15827048E+02 0.75467711E-02 0.11963600E+00
        1 -1    0    0  502    0 0.00000000E+00 0.00000000E+00 0.11267504E+03 0.11267550E+03 0.32000000E+00 0.0000E+00 0.9000E+01
       21 -1    0    0  501  503 0.00000000E+00 0.00000000E+00 -.28024044E+03 0.28024144E+03 0.75000000E+00 0.0000E+00 0.9000E+01
       25  1    1    2    0    0 -.60860734E+01 -.72863704E+02 -.41119740E+02 0.15053901E+03 0.12500000E+03 0.0000E+00 0.9000E+01
       23  1    1    2    0    0 0.94262170E+00 0.91078553E+02 -.33174573E+02 0.13308642E+03 0.91188000E+02 0.0000E+00 0.9000E+01
        1  1    1    2  501    0 0.11234925E+02 0.24903899E+01 0.19291194E+01 0.11672595E+02 0.32000000E+00 0.0000E+00 0.9000E+01
       21  1    1    2  502  503 -.60914729E+01 -.20705239E+02 -.95200202E+02 0.97618922E+02 0.75000000E+00 0.0000E+00 0.9000E+01
#aMCatNLO 2  0  0  2  5 0.52054601D+00 0.00000000D+00  -5  6  0 0.00000000D+00 0.00000000D+00 0.00000000D+00 0.00000000D+00 0.00000000D+00
  <mgrwgt>
 0.1245906415D+00    1    2    0
 0.142739611707902D+03 0.000000000000000D+00 0.000000000000000D+00 0.142739611707902D+03
 0.142739611707902D+03 0.000000000000000D+00 0.000000000000000D+00 -.142739611707902D+03
 0.150708184611980D+03 -.923717557073895D+01 -.835679195267553D+02 -.436283422603010D+01
 0.122628499346663D+03 -.173857283395118D+01 0.819703580468654D+02 -.579028655882215D+00
 0.121425394571609D+02 0.109757484046901D+02 0.159756147988986D+01 0.494186288191233D+01
 0.000000000000000D+00 -.000000000000000D+00 -.000000000000000D+00 -.000000000000000D+00
 0.144698215307849D+03 0.000000000000000D+00 0.000000000000000D+00 0.144698215307849D+03
 0.218216912059304D+03 0.000000000000000D+00 0.000000000000000D+00 -.218216912059304D+03
 0.144880150721645D+03 -.608807981344362D+01 -.728639762490896D+02 -.436283422603010D+01
 0.128886497841837D+03 0.940980842104705D+00 0.910783029200936D+02 -.579028655882215D+00
 0.125272563083146D+02 0.112385718651989D+02 0.249091234316801D+01 0.494186288191233D+01
 0.766212224953565D+02 -.609147289385996D+01 -.207052390141720D+02 -.735186967514544D+02
0.321302278136D-04 0.000000000000D+00 0.000000000000D+00 0.605323356173D-06 0.261117409083D-07  6 1 21 25 23 1 21 4 0.17334517D-01 0.43113485D-01 0.23530586D+05 0.23530586D+05 0.23530586D+05 0.12261282D+01  1  2  1  2  6  2       21 0.124590641499D+00 0.100000000000D+01
  </mgrwgt>
  </event>
  <event>
  5     66 -.36102257E-03 0.24589492E+02 0.75467711E-02 0.11516577E+00
        1 -1    0    0  502    0 0.00000000E+00 0.00000000E+00 0.30755422E+03 0.30755438E+03 0.32000000E+00 0.0000E+00 0.9000E+01
       21 -1    0    0  501  502 0.00000000E+00 0.00000000E+00 -.71493119E+02 0.71497053E+02 0.75000000E+00 0.0000E+00 0.9000E+01
       25  1    1    2    0    0 0.68425824E+02 -.25047798E+02 0.13637178E+03 0.19882593E+03 0.12500000E+03 0.0000E+00 0.9000E+01
       23  1    1    2    0    0 -.45557508E+02 0.34083305E+02 0.38313413E+02 0.11410665E+03 0.91188000E+02 0.0000E+00 0.9000E+01
        1  1    1    2  501    0 -.22868317E+02 -.90355065E+01 0.61375903E+02 0.66118864E+02 0.32000000E+00 0.0000E+00 0.9000E+01
#aMCatNLO 1  0  0  1  1 0.21586281D+02 0.00000000D+00  -5  6  0 0.00000000D+00 0.00000000D+00 0.00000000D+00 0.00000000D+00 0.00000000D+00
  <mgrwgt>
 -.2777965144D-01    5    2    0
 0.148286167538295D+03 0.000000000000000D+00 0.000000000000000D+00 0.148286167538295D+03
 0.148286167538295D+03 0.000000000000000D+00 0.000000000000000D+00 -.148286167538295D+03
 0.145573987172540D+03 0.684262762334949D+02 -.250476194605753D+02 0.160389283147755D+02
 0.115344529801581D+03 -.455571492661638D+02 0.340834461962389D+02 -.418565891739441D+02
 0.356538181024682D+02 -.228691269673311D+02 -.903582673566360D+01 0.258176608591685D+02
 0.000000000000000D+00 0.000000000000000D+00 -.000000000000000D+00 0.000000000000000D+00
 0.505050700457705D+03 0.000000000000000D+00 0.000000000000000D+00 0.505050700457705D+03
 0.163382092725885D+03 0.000000000000000D+00 0.000000000000000D+00 -.163382092725885D+03
 0.130249701890923D+03 0.328281733452325D+02 0.224692145016334D+01 0.160389283147755D+02
 0.140619423219762D+03 -.785921331947691D+02 0.594127375676119D+02 -.418565891739441D+02
 0.418175920053795D+02 -.328676707373820D+02 -.136952881984270D+01 0.258176608591685D+02
 0.355746076067525D+03 0.786316305869186D+02 -.602901301979325D+02 0.341668607731819D+03
0.249575279322D-05 0.000000000000D+00 0.000000000000D+00 0.209412733775D-06 0.000000000000D+00  6 1 21 25 23 1 21 2 0.47316349D-01 0.10999257D-01 0.19148920D+05 0.19148920D+05 0.19148920D+05 0.12359106D+01  1  2  2  1  6  1        1 0.241535430543D-01 0.100000000000D+01
-.107068208159D-06 0.131704493275D-06 -.503820583126D-08 0.209412733775D-06 0.000000000000D+00  6 1 21 25 23 1 21 4 0.47316349D-01 0.10999257D-01 0.19148920D+05 0.19148920D+05 0.19148920D+05 0.12359106D+01  1  2  3  1  6  1        1 -.158275592949D-02 0.100000000000D+01
0.227276858682D-06 0.000000000000D+00 0.000000000000D+00 0.209412733775D-06 0.000000000000D+00  6 1 21 25 23 1 21 4 0.47316349D-01 0.10999257D-01 0.19148920D+05 0.19148920D+05 0.19148920D+05 0.12359106D+01  1  2 15  1  6  1        1 0.335976292028D-02 0.100000000000D+01
-.175609825661D-04 0.000000000000D+00 -.265753197322D-05 0.209412733775D-06 0.000000000000D+00  6 1 21 25 23 1 21 4 0.16725872D+00 0.10999257D-01 0.19148920D+05 0.19148920D+05 0.19148920D+05 0.12359106D+01  1  2  5  1  6  1        1 -.443326767361D-01 0.100000000000D+01
-.251720288254D-05 0.000000000000D+00 -.393226488076D-06 0.209412733775D-06 0.000000000000D+00  6 21 21 25 23 1 -1 4 0.16725872D+00 0.10999257D-01 0.19148920D+05 0.19148920D+05 0.19148920D+05 0.12359106D+01  1  2  5  4  6  1        1 -.937752474427D-02 0.100000000000D+01
  </mgrwgt>
  </event>
  <event>
  5     66 0.36102257E-03 0.21006173E+02 0.75467711E-02 0.12260510E+00
        1 -1    0    0  502    0 0.00000000E+00 0.00000000E+00 0.11009106E+04 0.11009107E+04 0.32000000E+00 0.0000E+00 0.9000E+01
       21 -1    0    0  501  502 0.00000000E+00 0.00000000E+00 -.33020118E+02 0.33028634E+02 0.75000000E+00 0.0000E+00 0.9000E+01
       25  1    1    2    0    0 0.22874920E+02 -.14921213E+02 0.34034255E+03 0.36359862E+03 0.12500000E+03 0.0000E+00 0.9000E+01
       23  1    1    2    0    0 -.19257723E+02 -.57711134E+01 0.74003390E+03 0.74590187E+03 0.91188000E+02 0.0000E+00 0.9000E+01
        1  1    1    2  501    0 -.36171969E+01 0.20692326E+02 -.12485921E+02 0.24438844E+02 0.32000000E+00 0.0000E+00 0.9000E+01
#aMCatNLO 1  0  0  2  1 0.19087596D+02 0.00000000D+00  -5  6  0 0.00000000D+00 0.00000000D+00 0.00000000D+00 0.00000000D+00 0.00000000D+00
  <mgrwgt>
 0.1990497731D+00   23    2    0
 0.190675257791765D+03 0.000000000000000D+00 0.000000000000000D+00 0.190675257791765D+03
 0.190675257791765D+03 0.000000000000000D+00 0.000000000000000D+00 -.190675257791765D+03
 0.128097864686772D+03 0.228749252848586D+02 -.149212436965669D+02 -.617715282879660D+01
 0.145620143910482D+03 -.192577169302458D+02 -.577114830978904D+01 0.111739917461623D+03
 0.107632506986277D+03 -.361720835461276D+01 0.206923920063559D+02 -.105562764632827D+03
 0.000000000000000D+00 -.000000000000000D+00 -.000000000000000D+00 -.000000000000000D+00
 0.192492226694855D+03 0.000000000000000D+00 0.000000000000000D+00 0.192492226694855D+03
 0.248625213314264D+03 0.000000000000000D+00 0.000000000000000D+00 -.248625213314264D+03
 0.129275311466594D+03 0.292360857535272D+02 -.139355741728482D+02 -.617715282879660D+01
 0.144805674753615D+03 -.120796369749909D+02 -.465889612159799D+01 0.111739917461623D+03
 0.107746922717425D+03 0.170604690637519D+01 0.215172368603059D+02 -.105562764632827D+03
 0.592895310714842D+02 -.188624956849115D+02 -.292276656585972D+01 -.561329866194083D+02
0.252709516843D-05 0.000000000000D+00 0.000000000000D+00 0.394238379609D-05 0.000000000000D+00  6 1 21 25 23 1 21 2 0.16937153D+00 0.50806768D-02 0.14681300D+05 0.14681300D+05 0.14681300D+05 0.12488872D+01  1  2  2  2  6  2       21 0.157861151296D-01 0.100000000000D+01
0.530994029849D-06 0.133358475855D-06 -.510147705667D-08 0.394238379609D-05 0.000000000000D+00  6 1 21 25 23 1 21 4 0.16937153D+00 0.50806768D-02 0.14681300D+05 0.14681300D+05 0.14681300D+05 0.12488872D+01  1  2  3  2  6  2       21 0.517356287494D-02 0.100000000000D+01
0.173353142295D-06 0.000000000000D+00 0.000000000000D+00 0.394238379609D-05 0.000000000000D+00  6 1 21 25 23 1 21 4 0.16937153D+00 0.50806768D-02 0.14681300D+05 0.14681300D+05 0.14681300D+05 0.12488872D+01  1  2 15  2  6  2       21 0.168900840841D-02 0.100000000000D+01
0.284584134971D-04 0.000000000000D+00 0.000000000000D+00 0.389431319680D-05 0.000000000000D+00  6 1 21 25 23 1 21 4 0.16937153D+00 0.66438163D-02 0.17148233D+05 0.17148233D+05 0.17148233D+05 0.12412498D+01  1  2 12  2  6  2       21 0.171637197073D+00 0.100000000000D+01
-.104589356878D-04 0.000000000000D+00 0.000000000000D+00 0.394238379609D-05 0.000000000000D+00  6 1 21 25 23 1 21 4 0.16937153D+00 0.50806768D-02 0.14681300D+05 0.14681300D+05 0.14681300D+05 0.12488872D+01  1  2  4  2  6  2       21 -.101903144562D+00 0.100000000000D+01
-.642433588439D-04 0.000000000000D+00 -.382006129163D-05 0.394238379609D-05 0.000000000000D+00  6 1 21 25 23 1 21 4 0.16937153D+00 0.66793826D-02 0.14681300D+05 0.14681300D+05 0.14681300D+05 0.12488872D+01  1  2  5  2  6  2       21 -.394163016889D+00 0.100000000000D+01
0.525779647223D-04 0.000000000000D+00 0.330368959873D-05 0.394238379609D-05 0.000000000000D+00  6 1 21 25 23 1 21 4 0.16937153D+00 0.50806768D-02 0.14681300D+05 0.14681300D+05 0.14681300D+05 0.12488872D+01  1  2  6  2  6  2       21 0.512275828043D+00 0.100000000000D+01
0.247466137157D-05 0.000000000000D+00 0.000000000000D+00 0.389431319680D-05 0.000000000000D+00  6 1 -1 25 23 1 -1 4 0.16937153D+00 0.66438163D-02 0.17148233D+05 0.17148233D+05 0.17148233D+05 0.12412498D+01  1  2 12  5  6  2       21 0.903884192721D-03 0.100000000000D+01
-.684338889889D-05 0.000000000000D+00 -.321101126245D-06 0.394238379609D-05 0.000000000000D+00  6 1 -1 25 23 1 -1 4 0.16937153D+00 0.66793826D-02 0.14681300D+05 0.14681300D+05 0.14681300D+05 0.12488872D+01  1  2  5  5  6  2       21 -.253976627834D-02 0.100000000000D+01
0.247466137157D-05 0.000000000000D+00 0.000000000000D+00 0.389431319680D-05 0.000000000000D+00  6 1 1 25 23 1 1 4 0.16937153D+00 0.66438163D-02 0.17148233D+05 0.17148233D+05 0.17148233D+05 0.12412498D+01  1  2 12  6  6  2       21 0.105662749956D-02 0.100000000000D+01
-.684338889889D-05 0.000000000000D+00 -.321101126245D-06 0.394238379609D-05 0.000000000000D+00  6 1 1 25 23 1 1 4 0.16937153D+00 0.66793826D-02 0.14681300D+05 0.14681300D+05 0.14681300D+05 0.12488872D+01  1  2  5  6  6  2       21 -.297202302537D-02 0.100000000000D+01
0.247466137157D-05 0.000000000000D+00 0.000000000000D+00 0.389431319680D-05 0.000000000000D+00  6 1 -2 25 23 1 -2 4 0.16937153D+00 0.66438163D-02 0.17148233D+05 0.17148233D+05 0.17148233D+05 0.12412498D+01  1  2 12  7  6  2       21 0.877139353899D-03 0.100000000000D+01
0.247466137157D-05 0.000000000000D+00 0.000000000000D+00 0.389431319680D-05 0.000000000000D+00  6 1 -4 25 23 1 -4 4 0.16937153D+00 0.66438163D-02 0.17148233D+05 0.17148233D+05 0.17148233D+05 0.12412498D+01  1  2 12  7  6  2       21 0.549197191851D-03 0.100000000000D+01
-.684338889889D-05 0.000000000000D+00 -.321101126245D-06 0.394238379609D-05 0.000000000000D+00  6 1 -2 25 23 1 -2 4 0.16937153D+00 0.66793826D-02 0.14681300D+05 0.14681300D+05 0.14681300D+05 0.12488872D+01  1  2  5  7  6  2       21 -.246405005303D-02 0.100000000000D+01
-.684338889889D-05 0.000000000000D+00 -.321101126245D-06 0.394238379609D-05 0.000000000000D+00  6 1 -4 25 23 1 -4 4 0.16937153D+00 0.66793826D-02 0.14681300D+05 0.14681300D+05 0.14681300D+05 0.12488872D+01  1  2  5  7  6  2       21 -.153367245971D-02 0.100000000000D+01
0.247466137157D-05 0.000000000000D+00 0.000000000000D+00 0.389431319680D-05 0.000000000000D+00  6 1 2 25 23 1 2 4 0.16937153D+00 0.66438163D-02 0.17148233D+05 0.17148233D+05 0.17148233D+05 0.12412498D+01  1  2 12  8  6  2       21 0.115904028672D-02 0.100000000000D+01
0.247466137157D-05 0.000000000000D+00 0.000000000000D+00 0.389431319680D-05 0.000000000000D+00  6 1 4 25 23 1 4 4 0.16937153D+00 0.66438163D-02 0.17148233D+05 0.17148233D+05 0.17148233D+05 0.12412498D+01  1  2 12  8  6  2       21 0.549197191851D-03 0.100000000000D+01
-.684338889889D-05 0.000000000000D+00 -.321101126245D-06 0.394238379609D-05 0.000000000000D+00  6 1 2 25 23 1 2 4 0.16937153D+00 0.66793826D-02 0.14681300D+05 0.14681300D+05 0.14681300D+05 0.12488872D+01  1  2  5  8  6  2       21 -.326160589336D-02 0.100000000000D+01
-.684338889889D-05 0.000000000000D+00 -.321101126245D-06 0.394238379609D-05 0.000000000000D+00  6 1 4 25 23 1 4 4 0.16937153D+00 0.66793826D-02 0.14681300D+05 0.14681300D+05 0.14681300D+05 0.12488872D+01  1  2  5  8  6  2       21 -.153367245971D-02 0.100000000000D+01
0.247466137157D-05 0.000000000000D+00 0.000000000000D+00 0.389431319680D-05 0.000000000000D+00  6 1 -3 25 23 1 -3 4 0.16937153D+00 0.66438163D-02 0.17148233D+05 0.17148233D+05 0.17148233D+05 0.12412498D+01  1  2 12  9  6  2       21 0.621960458198D-03 0.100000000000D+01
-.684338889889D-05 0.000000000000D+00 -.321101126245D-06 0.394238379609D-05 0.000000000000D+00  6 1 -3 25 23 1 -3 4 0.16937153D+00 0.66793826D-02 0.14681300D+05 0.14681300D+05 0.14681300D+05 0.12488872D+01  1  2  5  9  6  2       21 -.174006196796D-02 0.100000000000D+01
0.247466137157D-05 0.000000000000D+00 0.000000000000D+00 0.389431319680D-05 0.000000000000D+00  6 1 3 25 23 1 3 4 0.16937153D+00 0.66438163D-02 0.17148233D+05 0.17148233D+05 0.17148233D+05 0.12412498D+01  1  2 12 10  6  2       21 0.621889639942D-03 0.100000000000D+01
-.684338889889D-05 0.000000000000D+00 -.321101126245D-06 0.394238379609D-05 0.000000000000D+00  6 1 3 25 23 1 3 4 0.16937153D+00 0.66793826D-02 0.14681300D+05 0.14681300D+05 0.14681300D+05 0.12488872D+01  1  2  5 10  6  2       21 -.173986061811D-02 0.100000000000D+01
  </mgrwgt>
  </event>
  <event>
  5     66 0.36102257E-03 0.28371202E+02 0.75467711E-02 0.11963327E+00
        1 -1    0    0  502    0 0.00000000E+00 0.00000000E+00 0.12714323E+04 0.12714323E+04 0.32000000E+00 0.0000E+00 0.9000E+01
       21 -1    0    0  501  502 0.00000000E+00 0.00000000E+00 -.24973001E+02 0.24984261E+02 0.75000000E+00 0.0000E+00 0.9000E+01
       25  1    1    2    0    0 -.77330612E+02 -.65984227E+02 0.85103260E+03 0.86614977E+03 0.12500000E+03 0.0000E+00 0.9000E+01
       23  1    1    2    0    0 0.60704008E+02 0.42996796E+02 0.19437914E+03 0.22722721E+03 0.91188000E+02 0.0000E+00 0.9000E+01
        1  1    1    2  501    0 0.16626603E+02 0.22987431E+02 0.20104751E+03 0.20303957E+03 0.32000000E+00 0.0000E+00 0.9000E+01
#aMCatNLO 1  0  0  5  2 0.26817930D+01 0.00000000D+00  -5  6  0 0.00000000D+00 0.00000000D+00 0.00000000D+00 0.00000000D+00 0.00000000D+00
  <mgrwgt>
 0.1147334849D-01    8    2    0
 0.178209999731560D+03 0.000000000000000D+00 0.000000000000000D+00 0.178209999731560D+03
 0.178209999731560D+03 -.000000000000000D+00 -.000000000000000D+00 -.178209999731560D+03
 0.174270530292407D+03 -.773309432479419D+02 -.659846858063547D+02 0.664165956957814D+02
 0.146724162140403D+03 0.607037290865761D+02 0.429964097597669D+02 -.876304423962195D+02
 0.354253070303100D+02 0.166272141613658D+02 0.229882760465878D+02 0.212138467004381D+02
 0.000000000000000D+00 0.000000000000000D+00 0.000000000000000D+00 0.000000000000000D+00
 0.178209999731560D+03 0.000000000000000D+00 0.000000000000000D+00 0.178209999731560D+03
 0.178209999731560D+03 -.000000000000000D+00 -.000000000000000D+00 -.178209999731560D+03
 0.174222623985784D+03 -.772310867143087D+02 -.658466272273326D+02 0.665439977473802D+02
 0.146729054323241D+03 0.607878145861615D+02 0.431126637910931D+02 -.875231618331244D+02
 0.220878358484993D+02 0.113277526949375D+02 0.154569915654253D+02 0.109834385826552D+02
 0.133804853055959D+02 0.511551943320972D+01 0.727697187081412D+01 0.999572550308890D+01
0.171835129026D-05 0.000000000000D+00 0.000000000000D+00 0.124263411011D-06 0.000000000000D+00  6 1 21 25 23 1 21 2 0.19560583D+00 0.38428694D-02 0.23588448D+05 0.23588448D+05 0.23588448D+05 0.12260130D+01  1  2  2  3  6  5        1 0.125599888961D-01 0.100000000000D+01
-.342146441461D-07 0.906798888761D-07 -.346885617607D-08 0.124263411011D-06 0.000000000000D+00  6 1 21 25 23 1 21 4 0.19560583D+00 0.38428694D-02 0.23588448D+05 0.23588448D+05 0.23588448D+05 0.12260130D+01  1  2  3  3  6  5        1 -.375906217128D-03 0.100000000000D+01
0.180132680912D-06 0.000000000000D+00 0.000000000000D+00 0.124263411011D-06 0.000000000000D+00  6 1 21 25 23 1 21 4 0.19560583D+00 0.38428694D-02 0.23588448D+05 0.23588448D+05 0.23588448D+05 0.12260130D+01  1  2 15  3  6  5        1 0.197906470614D-02 0.100000000000D+01
0.829962007034D-07 0.000000000000D+00 0.000000000000D+00 0.124283918718D-06 0.000000000000D+00  6 1 21 25 23 1 21 4 0.19560583D+00 0.38428694D-02 0.23537610D+05 0.23537610D+05 0.23537610D+05 0.12261142D+01  1  2 12  3  6  5        1 0.912169012478D-03 0.100000000000D+01
-.235593076621D-04 0.000000000000D+00 0.000000000000D+00 0.124263411011D-06 0.000000000000D+00  6 1 21 25 23 1 21 4 0.19560583D+00 0.38428694D-02 0.23588448D+05 0.23588448D+05 0.23588448D+05 0.12260130D+01  1  2  4  3  6  5        1 -.258839173764D+00 0.100000000000D+01
-.115418879103D-04 0.000000000000D+00 0.000000000000D+00 0.124263411011D-06 0.000000000000D+00  6 1 21 25 23 1 21 4 0.19560583D+00 0.38428694D-02 0.23588448D+05 0.23588448D+05 0.23588448D+05 0.12260130D+01  1  2  5  3  6  5        1 -.126807322746D+00 0.100000000000D+01
0.224394015763D-04 0.000000000000D+00 -.000000000000D+00 0.124263411011D-06 0.000000000000D+00  6 1 21 25 23 1 21 4 0.19560583D+00 0.38428694D-02 0.23588448D+05 0.23588448D+05 0.23588448D+05 0.12260130D+01  1  2  6  3  6  5        1 0.246535095474D+00 0.100000000000D+01
0.123296976275D-04 0.000000000000D+00 0.000000000000D+00 0.124263411011D-06 0.643928623401D-07  6 1 21 25 23 1 21 4 0.19560583D+00 0.38428694D-02 0.23537610D+05 0.23537610D+05 0.23537610D+05 0.12261142D+01  1  2 11  3  6  5        1 0.135509433127D+00 0.100000000000D+01
  </mgrwgt>
  </event>
  <event>
  6     66 0.36102257E-03 0.27937729E+02 0.75467711E-02 0.11555947E+00
        1 -1    0    0  503    0 0.00000000E+00 0.00000000E+00 0.29868435E+03 0.29868453E+03 0.32000000E+00 0.0000E+00 0.9000E+01
       21 -1    0    0  501  502 0.00000000E+00 0.00000000E+00 -.19142275E+03 0.19142422E+03 0.75000000E+00 0.0000E+00 0.9000E+01
       25  1    1    2    0    0 -.20561955E+02 -.99040789E+02 -.45021485E+02 0.16698445E+03 0.12500000E+03 0.0000E+00 0.9000E+01
       23  1    1    2    0    0 0.13737575E+02 0.97951369E+02 -.47710126E+01 0.13461503E+03 0.91188000E+02 0.0000E+00 0.9000E+01
        1  1    1    2  501    0 -.42010558E+02 -.28081677E+01 0.28258854E+02 0.50709348E+02 0.32000000E+00 0.0000E+00 0.9000E+01
       21  1    1    2  503  502 0.48834938E+02 0.38975875E+01 0.12879524E+03 0.13779993E+03 0.75000000E+00 0.0000E+00 0.9000E+01
#aMCatNLO 2  0  0  1  2 0.49115696D+02 0.00000000D+00  -5  6  0 0.00000000D+00 0.00000000D+00 0.00000000D+00 0.00000000D+00 0.00000000D+00
  <mgrwgt>
 0.2861641442D-01    1    2    0
 0.174110429962940D+03 0.000000000000000D+00 0.000000000000000D+00 0.174110429962940D+03
 0.174110429962940D+03 0.000000000000000D+00 0.000000000000000D+00 -.174110429962940D+03
 0.162168567630414D+03 0.223520038027097D+01 -.972213205956463D+02 -.348806970715714D+02
 0.138923330229296D+03 0.328218021745373D+02 0.994745040335926D+02 0.346304595469783D+01
 0.471289620661696D+02 -.350570025548083D+02 -.225318343794627D+01 0.314176511168735D+02
 0.000000000000000D+00 0.000000000000000D+00 0.000000000000000D+00 0.000000000000000D+00
 0.317533282033068D+03 0.000000000000000D+00 0.000000000000000D+00 0.317533282033068D+03
 0.180059188764734D+03 0.000000000000000D+00 0.000000000000000D+00 -.180059188764734D+03
 0.164540313975845D+03 -.205615838836123D+02 -.990407651589388D+02 -.348806970715714D+02
 0.134575065509736D+03 0.137378890175788D+02 0.979513891223907D+02 0.346304595469783D+01
 0.525347443608833D+02 -.420112426819398D+02 -.280821147368485D+01 0.314176511168735D+02
 0.145942346951338D+03 0.488349375479734D+02 0.389758751023287D+01 0.137474093268333D+03
0.127543674085D-04 0.000000000000D+00 0.000000000000D+00 0.126489290152D-06 0.490072211250D-09  6 1 21 25 23 1 21 4 0.45951325D-01 0.29449627D-01 0.37331337D+05 0.37331337D+05 0.37331337D+05 0.12050573D+01  1  2  1  1  6  1        1 0.286164144213D-01 0.100000000000D+01
  </mgrwgt>
  </event>
  <event>
  6     66 -.36102257E-03 0.37914485E+02 0.75467711E-02 0.12156719E+00
        1 -1    0    0  502    0 0.00000000E+00 0.00000000E+00 0.42792423E+03 0.42792435E+03 0.32000000E+00 0.0000E+00 0.9000E+01
       21 -1    0    0  501  503 0.00000000E+00 0.00000000E+00 -.25019054E+03 0.25019167E+03 0.75000000E+00 0.0000E+00 0.9000E+01
       25  1    1    2    0    0 0.28750486E+02 -.20541171E+02 0.19263322E+03 0.23233830E+03 0.12500000E+03 0.0000E+00 0.9000E+01
       23  1    1    2    0    0 0.14270531E+02 0.29257571E+02 0.20136878E+03 0.22343744E+03 0.91188000E+02 0.0000E+00 0.9000E+01
        1  1    1    2  501    0 -.41875344E+02 -.86008231E+00 -.19839972E+03 0.20277286E+03 0.32000000E+00 0.0000E+00 0.9000E+01
       21  1    1    2  502  503 -.11456728E+01 -.78563175E+01 -.17868593E+02 0.19567407E+02 0.75000000E+00 0.0000E+00 0.9000E+01
#aMCatNLO 2  0  0  2  1 0.79394137D+01 0.00000000D+00  -5  6  0 0.00000000D+00 0.00000000D+00 0.00000000D+00 0.00000000D+00 0.00000000D+00
  <mgrwgt>
 -.1368170048D+00    5    2    0
 0.314389480185097D+03 0.000000000000000D+00 0.000000000000000D+00 0.314389480185097D+03
 0.314389480185097D+03 0.000000000000000D+00 0.000000000000000D+00 -.314389480185097D+03
 0.183617838649572D+03 0.284161443123479D+02 -.228339353120175D+02 0.129466771068591D+03
 0.170982251439051D+03 0.139586668007341D+02 0.271189482773548D+02 0.141383864810109D+03
 0.274178870281571D+03 -.423748111130820D+02 -.428501296533737D+01 -.270850635878700D+03
 0.000000000000000D+00 -.000000000000000D+00 -.000000000000000D+00 -.000000000000000D+00
 0.315034488666667D+03 0.000000000000000D+00 0.000000000000000D+00 0.315034488666667D+03
 0.339833754574340D+03 0.000000000000000D+00 0.000000000000000D+00 -.339833754574340D+03
 0.183398951427738D+03 0.287504942444443D+02 -.205411697468076D+02 0.129466771068591D+03
 0.171360153980345D+03 0.142705385273153D+02 0.292575721765268D+02 0.141383864810109D+03
 0.274069977327818D+03 -.418753599437458D+02 -.860084970353803D+00 -.270850635878700D+03
 0.260391605051062D+02 -.114567282801379D+01 -.785631745936534D+01 -.247992659076737D+02
-.260870643269D-03 0.000000000000D+00 0.000000000000D+00 0.102134403730D-04 0.000000000000D+00  6 1 21 25 23 1 21 4 0.65698677D-01 0.38525134D-01 0.19119402D+05 0.19119402D+05 0.19119402D+05 0.12359848D+01  1  2 13  2  6  2       21 -.247181333113D+00 0.100000000000D+01
-.119319717354D-04 0.000000000000D+00 0.000000000000D+00 0.102578812588D-04 0.000000000000D+00  6 1 21 25 23 1 21 4 0.65698677D-01 0.35608418D-01 0.18083744D+05 0.18083744D+05 0.18083744D+05 0.12386709D+01  1  2  8  2  6  2       21 -.133490377414D-01 0.100000000000D+01
-.224355689819D-04 0.000000000000D+00 0.000000000000D+00 0.102578812588D-04 0.000000000000D+00  6 1 21 25 23 1 21 4 0.65698677D-01 0.38533801D-01 0.18083744D+05 0.18083744D+05 0.18083744D+05 0.12386709D+01  1  2  9  2  6  2       21 -.214666028879D-01 0.100000000000D+01
0.221210634386D-04 0.000000000000D+00 0.000000000000D+00 0.102578812588D-04 0.000000000000D+00  6 1 21 25 23 1 21 4 0.65698677D-01 0.35608418D-01 0.18083744D+05 0.18083744D+05 0.18083744D+05 0.12386709D+01  1  2 10  2  6  2       21 0.247482073599D-01 0.100000000000D+01
0.127203727727D-03 0.000000000000D+00 0.000000000000D+00 0.102578812588D-04 0.164643488061D-05  6 1 21 25 23 1 21 4 0.65833466D-01 0.38490290D-01 0.19119402D+05 0.19119402D+05 0.19119402D+05 0.12359848D+01  1  2  1  2  6  2       21 0.120431761595D+00 0.100000000000D+01
  </mgrwgt>
  </event>
  <event>
  5     66 0.36102257E-03 0.50521459E+02 0.75467711E-02 0.11940090E+00
        1 -1    0    0  502    0 0.00000000E+00 0.00000000E+00 0.10245296E+03 0.10245346E+03 0.32000000E+00 0.0000E+00 0.9000E+01
       21 -1    0    0  501  502 0.00000000E+00 0.00000000E+00 -.51875260E+03 0.51875314E+03 0.75000000E+00 0.0000E+00 0.9000E+01
       25  1    1    2    0    0 -.73129765E+01 0.24428178E+02 -.17009429E+03 0.21262004E+03 0.12500000E+03 0.0000E+00 0.9000E+01
       23  1    1    2    0    0 -.45895722E+02 -.32027312E+02 0.42348975E+02 0.11506891E+03 0.91188000E+02 0.0000E+00 0.9000E+01
        1  1    1    2  501    0 0.53208698E+02 0.75991337E+01 -.28855433E+03 0.29351766E+03 0.32000000E+00 0.0000E+00 0.9000E+01
#aMCatNLO 1  0  0  2  1 0.23499123D+02 0.00000000D+00  -5  6  0 0.00000000D+00 0.00000000D+00 0.00000000D+00 0.00000000D+00 0.00000000D+00
  <mgrwgt>
 0.6512912629D-01   23    2    0
 0.230538638393768D+03 0.000000000000000D+00 0.000000000000000D+00 0.230538638393768D+03
 0.230538638393768D+03 0.000000000000000D+00 0.000000000000000D+00 -.230538638393768D+03
 0.132886121463451D+03 -.731301963569112D+01 0.244281720813791D+02 -.371955028218427D+02
 0.193268016692049D+03 -.458957845038247D+02 -.320273209328020D+02 0.160950621653735D+03
 0.134923138632035D+03 0.532088041395158D+02 0.759914885142293D+01 -.123755118831893D+03
 0.000000000000000D+00 0.000000000000000D+00 -.000000000000000D+00 -.000000000000000D+00
 0.238518018557943D+03 0.000000000000000D+00 0.000000000000000D+00 0.238518018557943D+03
 0.248813023647306D+03 0.000000000000000D+00 0.000000000000000D+00 -.248813023647306D+03
 0.134216042703309D+03 -.120137000218988D+02 0.293447048128049D+02 -.371955028218427D+02
 0.193955516782961D+03 -.527104581121882D+02 -.248997217138019D+02 0.160950621653735D+03
 0.133504153495868D+03 0.484848030773579D+02 0.125400731298608D+02 -.123755118831893D+03
 0.256553292231107D+02 0.162393550567291D+02 -.169850562288638D+02 -.102950050893636D+02
0.107870818561D-04 0.000000000000D+00 0.000000000000D+00 0.446194372507D-06 0.000000000000D+00  6 1 21 25 23 1 21 2 0.15762074D-01 0.79808173D-01 0.20781486D+05 0.20781486D+05 0.20781486D+05 0.12319976D+01  1  2  2  2  6  2       21 0.858095311744D-02 0.100000000000D+01
0.377846535622D-06 0.569249948803D-06 -.217760103713D-07 0.446194372507D-06 0.000000000000D+00  6 1 21 25 23 1 21 4 0.15762074D-01 0.79808173D-01 0.20781486D+05 0.20781486D+05 0.20781486D+05 0.12319976D+01  1  2  3  2  6  2       21 0.456212019757D-03 0.100000000000D+01
0.144206942831D-05 0.000000000000D+00 0.000000000000D+00 0.446194372507D-06 0.000000000000D+00  6 1 21 25 23 1 21 4 0.15762074D-01 0.79808173D-01 0.20781486D+05 0.20781486D+05 0.20781486D+05 0.12319976D+01  1  2 15  2  6  2       21 0.174115505767D-02 0.100000000000D+01
0.304442248885D-04 0.000000000000D+00 0.000000000000D+00 0.441084521496D-06 0.000000000000D+00  6 1 21 25 23 1 21 4 0.15762074D-01 0.87434352D-01 0.24144186D+05 0.24144186D+05 0.24144186D+05 0.12249228D+01  1  2 12  2  6  2       21 0.291195287113D-01 0.100000000000D+01
-.725267472477D-05 0.000000000000D+00 0.000000000000D+00 0.446194372507D-06 0.000000000000D+00  6 1 21 25 23 1 21 4 0.15762074D-01 0.79808173D-01 0.20781486D+05 0.20781486D+05 0.20781486D+05 0.12319976D+01  1  2  4  2  6  2       21 -.875688162493D-02 0.100000000000D+01
-.148716887397D-03 0.000000000000D+00 -.327071423828D-04 0.446194372507D-06 0.000000000000D+00  6 1 21 25 23 1 21 4 0.15762074D-01 0.88426850D-01 0.20781486D+05 0.20781486D+05 0.20781486D+05 0.12319976D+01  1  2  5  2  6  2       21 -.142371625086D+00 0.100000000000D+01
0.148812611969D-03 0.000000000000D+00 0.320293335334D-04 0.446194372507D-06 0.000000000000D+00  6 1 21 25 23 1 21 4 0.15762074D-01 0.79808173D-01 0.20781486D+05 0.20781486D+05 0.20781486D+05 0.12319976D+01  1  2  6  2  6  2       21 0.179676392056D+00 0.100000000000D+01
0.701889705944D-06 0.000000000000D+00 0.000000000000D+00 0.441084521496D-06 0.000000000000D+00  6 1 -1 25 23 1 -1 4 0.15762074D-01 0.87434352D-01 0.24144186D+05 0.24144186D+05 0.24144186D+05 0.12249228D+01  1  2 12  5  6  2       21 0.747309614049D-04 0.100000000000D+01
-.326114069500D-05 0.000000000000D+00 -.859748934951D-06 0.446194372507D-06 0.000000000000D+00  6 1 -1 25 23 1 -1 4 0.15762074D-01 0.88426850D-01 0.20781486D+05 0.20781486D+05 0.20781486D+05 0.12319976D+01  1  2  5  5  6  2       21 -.346858783086D-03 0.100000000000D+01
0.701889705944D-06 0.000000000000D+00 0.000000000000D+00 0.441084521496D-06 0.000000000000D+00  6 1 1 25 23 1 1 4 0.15762074D-01 0.87434352D-01 0.24144186D+05 0.24144186D+05 0.24144186D+05 0.12249228D+01  1  2 12  6  6  2       21 0.248008155974D-03 0.100000000000D+01
-.326114069500D-05 0.000000000000D+00 -.859748934951D-06 0.446194372507D-06 0.000000000000D+00  6 1 1 25 23 1 1 4 0.15762074D-01 0.88426850D-01 0.20781486D+05 0.20781486D+05 0.20781486D+05 0.12319976D+01  1  2  5  6  6  2       21 -.116063144757D-02 0.100000000000D+01
0.701889705944D-06 0.000000000000D+00 0.000000000000D+00 0.441084521496D-06 0.000000000000D+00  6 1 -2 25 23 1 -2 4 0.15762074D-01 0.87434352D-01 0.24144186D+05 0.24144186D+05 0.24144186D+05 0.12249228D+01  1  2 12  7  6  2       21 0.563423504365D-04 0.100000000000D+01
0.701889705944D-06 0.000000000000D+00 0.000000000000D+00 0.441084521496D-06 0.000000000000D+00  6 1 -4 25 23 1 -4 4 0.15762074D-01 0.87434352D-01 0.24144186D+05 0.24144186D+05 0.24144186D+05 0.12249228D+01  1  2 12  7  6  2       21 0.284772455943D-04 0.100000000000D+01
-.326114069500D-05 0.000000000000D+00 -.859748934951D-06 0.446194372507D-06 0.000000000000D+00  6 1 -2 25 23 1 -2 4 0.15762074D-01 0.88426850D-01 0.20781486D+05 0.20781486D+05 0.20781486D+05 0.12319976D+01  1  2  5  7  6  2       21 -.260908978483D-03 0.100000000000D+01
-.326114069500D-05 0.000000000000D+00 -.859748934951D-06 0.446194372507D-06 0.000000000000D+00  6 1 -4 25 23 1 -4 4 0.15762074D-01 0.88426850D-01 0.20781486D+05 0.20781486D+05 0.20781486D+05 0.12319976D+01  1  2  5  7  6  2       21 -.131244559906D-03 0.100000000000D+01
0.701889705944D-06 0.000000000000D+00 0.000000000000D+00 0.441084521496D-06 0.000000000000D+00  6 1 2 25 23 1 2 4 0.15762074D-01 0.87434352D-01 0.24144186D+05 0.24144186D+05 0.24144186D+05 0.12249228D+01  1  2 12  8  6  2       21 0.397350541623D-03 0.100000000000D+01
0.701889705944D-06 0.000000000000D+00 0.000000000000D+00 0.441084521496D-06 0.000000000000D+00  6 1 4 25 23 1 4 4 0.15762074D-01 0.87434352D-01 0.24144186D+05 0.24144186D+05 0.24144186D+05 0.12249228D+01  1  2 12  8  6  2       21 0.284772455943D-04 0.100000000000D+01
-.326114069500D-05 0.000000000000D+00 -.859748934951D-06 0.446194372507D-06 0.000000000000D+00  6 1 2 25 23 1 2 4 0.15762074D-01 0.88426850D-01 0.20781486D+05 0.20781486D+05 0.20781486D+05 0.12319976D+01  1  2  5  8  6  2       21 -.186280437087D-02 0.100000000000D+01
-.326114069500D-05 0.000000000000D+00 -.859748934951D-06 0.446194372507D-06 0.000000000000D+00  6 1 4 25 23 1 4 4 0.15762074D-01 0.88426850D-01 0.20781486D+05 0.20781486D+05 0.20781486D+05 0.12319976D+01  1  2  5  8  6  2       21 -.131244559906D-03 0.100000000000D+01
0.701889705944D-06 0.000000000000D+00 0.000000000000D+00 0.441084521496D-06 0.000000000000D+00  6 1 -3 25 23 1 -3 4 0.15762074D-01 0.87434352D-01 0.24144186D+05 0.24144186D+05 0.24144186D+05 0.12249228D+01  1  2 12  9  6  2       21 0.353883130054D-04 0.100000000000D+01
-.326114069500D-05 0.000000000000D+00 -.859748934951D-06 0.446194372507D-06 0.000000000000D+00  6 1 -3 25 23 1 -3 4 0.15762074D-01 0.88426850D-01 0.20781486D+05 0.20781486D+05 0.20781486D+05 0.12319976D+01  1  2  5  9  6  2       21 -.163439067961D-03 0.100000000000D+01
0.701889705944D-06 0.000000000000D+00 0.000000000000D+00 0.441084521496D-06 0.000000000000D+00  6 1 3 25 23 1 3 4 0.15762074D-01 0.87434352D-01 0.24144186D+05 0.24144186D+05 0.24144186D+05 0.12249228D+01  1  2 12 10  6  2       21 0.354422198353D-04 0.100000000000D+01
-.326114069500D-05 0.000000000000D+00 -.859748934951D-06 0.446194372507D-06 0.000000000000D+00  6 1 3 25 23 1 3 4 0.15762074D-01 0.88426850D-01 0.20781486D+05 0.20781486D+05 0.20781486D+05 0.12319976D+01  1  2  5 10  6  2       21 -.163693229515D-03 0.100000000000D+01
  </mgrwgt>
  </event>
  <event>
  5     66 0.36102257E-03 0.24288590E+03 0.75467711E-02 0.10403369E+00
        1 -1    0    0  502    0 0.00000000E+00 0.00000000E+00 0.46662293E+03 0.46662304E+03 0.32000000E+00 0.0000E+00 0.9000E+01
       21 -1    0    0  501  502 0.00000000E+00 0.00000000E+00 -.38211093E+03 0.38211167E+03 0.75000000E+00 0.0000E+00 0.9000E+01
       25  1    1    2    0    0 -.25995270E+03 0.14212033E+03 0.49316048E+02 0.32531626E+03 0.12500000E+03 0.0000E+00 0.9000E+01
       23  1    1    2    0    0 0.13420832E+02 0.74777446E+02 0.13544764E+03 0.18009192E+03 0.91188000E+02 0.0000E+00 0.9000E+01
        1  1    1    2  501    0 0.24653187E+03 -.21689777E+03 -.10025169E+03 0.34332653E+03 0.32000000E+00 0.0000E+00 0.9000E+01
#aMCatNLO 1  0  0  2  1 0.48458484D+02 0.00000000D+00  -5  6  0 0.00000000D+00 0.00000000D+00 0.00000000D+00 0.00000000D+00 0.00000000D+00
  <mgrwgt>
 0.1848672202D-01   32    2    0
 0.422258312916964D+03 0.000000000000000D+00 0.000000000000000D+00 0.422258312916964D+03
 0.422258312916964D+03 0.000000000000000D+00 0.000000000000000D+00 -.422258312916964D+03
 0.322006022924816D+03 -.259952738989687D+03 0.142120359757559D+03 0.170075169851002D+02
 0.167436993780503D+03 0.134208120562899D+02 0.747774633660527D+02 0.118102109712488D+03
 0.355073609128610D+03 0.246531926933397D+03 -.216897823123612D+03 -.135109626697589D+03
 0.000000000000000D+00 -.000000000000000D+00 -.000000000000000D+00 -.000000000000000D+00
 0.433606832153194D+03 0.000000000000000D+00 0.000000000000000D+00 0.433606832153194D+03
 0.478055078691659D+03 0.000000000000000D+00 0.000000000000000D+00 -.478055078691659D+03
 0.312730615051128D+03 -.243613885938867D+03 0.150128133719244D+03 0.170075169851002D+02
 0.170292233180405D+03 0.221143518334761D+02 0.790382215261322D+02 0.118102109712488D+03
 0.362882912460793D+03 0.265012955759043D+03 -.207840155430853D+03 -.135109626697589D+03
 0.657561501525273D+02 -.435134216536523D+02 -.213261998145234D+02 -.444482465384653D+02
0.177509899769D-04 0.000000000000D+00 0.000000000000D+00 0.530296148393D-07 0.000000000000D+00  6 1 21 25 23 1 21 2 0.71788209D-01 0.58786362D-01 0.14768995D+06 0.14768995D+06 0.14768995D+06 0.11483281D+01  1  2  2  2  6  2       21 0.324549702994D-02 0.100000000000D+01
-.145501880267D-05 0.936745476710D-06 -.358341344764D-07 0.530296148393D-07 0.000000000000D+00  6 1 21 25 23 1 21 4 0.71788209D-01 0.58786362D-01 0.14768995D+06 0.14768995D+06 0.14768995D+06 0.11483281D+01  1  2  3  2  6  2       21 -.350799682077D-03 0.100000000000D+01
0.218560635545D-05 0.000000000000D+00 0.000000000000D+00 0.530296148393D-07 0.000000000000D+00  6 1 21 25 23 1 21 4 0.71788209D-01 0.58786362D-01 0.14768995D+06 0.14768995D+06 0.14768995D+06 0.11483281D+01  1  2 15  2  6  2       21 0.526941654108D-03 0.100000000000D+01
0.626572527550D-04 0.000000000000D+00 0.000000000000D+00 0.525739256048D-07 0.000000000000D+00  6 1 21 25 23 1 21 4 0.71788209D-01 0.67274298D-01 0.16818323D+06 0.16818323D+06 0.16818323D+06 0.11433836D+01  1  2 12  2  6  2       21 0.109616079390D-01 0.100000000000D+01
0.489525085541D-04 0.000000000000D+00 0.000000000000D+00 0.525739256048D-07 0.000000000000D+00  6 1 21 25 23 1 21 4 0.71788209D-01 0.69525756D-01 0.16818323D+06 0.16818323D+06 0.16818323D+06 0.11433836D+01  1  2 12  2  6  2       21 0.795585597502D-02 0.100000000000D+01
-.735194603693D-04 0.000000000000D+00 0.000000000000D+00 0.530296148393D-07 0.000000000000D+00  6 1 21 25 23 1 21 4 0.71788209D-01 0.58786362D-01 0.14768995D+06 0.14768995D+06 0.14768995D+06 0.11483281D+01  1  2  4  2  6  2       21 -.177252715062D-01 0.100000000000D+01
-.239601406497D-03 0.000000000000D+00 -.409555025030D-04 0.530296148393D-07 0.000000000000D+00  6 1 21 25 23 1 21 4 0.71788209D-01 0.67854629D-01 0.14768995D+06 0.14768995D+06 0.14768995D+06 0.11483281D+01  1  2  5  2  6  2       21 -.421120275430D-01 0.100000000000D+01
0.235482324422D-03 0.000000000000D+00 0.393176899988D-04 0.530296148393D-07 0.000000000000D+00  6 1 21 25 23 1 21 4 0.71788209D-01 0.58786362D-01 0.14768995D+06 0.14768995D+06 0.14768995D+06 0.11483281D+01  1  2  6  2  6  2       21 0.567739223645D-01 0.100000000000D+01
0.225442144553D-05 0.000000000000D+00 0.000000000000D+00 0.525739256048D-07 0.000000000000D+00  6 1 -1 25 23 1 -1 4 0.71788209D-01 0.67274298D-01 0.16818323D+06 0.16818323D+06 0.16818323D+06 0.11433836D+01  1  2 12  5  6  2       21 0.439688789019D-04 0.100000000000D+01
0.227616765839D-05 0.000000000000D+00 0.000000000000D+00 0.525739256048D-07 0.000000000000D+00  6 1 -1 25 23 1 -1 4 0.71788209D-01 0.69525756D-01 0.16818323D+06 0.16818323D+06 0.16818323D+06 0.11433836D+01  1  2 12  5  6  2       21 0.415500574080D-04 0.100000000000D+01
-.817134526434D-05 0.000000000000D+00 -.158348617081D-05 0.530296148393D-07 0.000000000000D+00  6 1 -1 25 23 1 -1 4 0.71788209D-01 0.67854629D-01 0.14768995D+06 0.14768995D+06 0.14768995D+06 0.11483281D+01  1  2  5  5  6  2       21 -.159856027288D-03 0.100000000000D+01
0.225442144553D-05 0.000000000000D+00 0.000000000000D+00 0.525739256048D-07 0.000000000000D+00  6 1 1 25 23 1 1 4 0.71788209D-01 0.67274298D-01 0.16818323D+06 0.16818323D+06 0.16818323D+06 0.11433836D+01  1  2 12  6  6  2       21 0.121398645277D-03 0.100000000000D+01
0.227616765839D-05 0.000000000000D+00 0.000000000000D+00 0.525739256048D-07 0.000000000000D+00  6 1 1 25 23 1 1 4 0.71788209D-01 0.69525756D-01 0.16818323D+06 0.16818323D+06 0.16818323D+06 0.11433836D+01  1  2 12  6  6  2       21 0.117343540211D-03 0.100000000000D+01
-.817134526434D-05 0.000000000000D+00 -.158348617081D-05 0.530296148393D-07 0.000000000000D+00  6 1 1 25 23 1 1 4 0.71788209D-01 0.67854629D-01 0.14768995D+06 0.14768995D+06 0.14768995D+06 0.11483281D+01  1  2  5  6  6  2       21 -.443815220979D-03 0.100000000000D+01
0.225442144553D-05 0.000000000000D+00 0.000000000000D+00 0.525739256048D-07 0.000000000000D+00  6 1 -2 25 23 1 -2 4 0.71788209D-01 0.67274298D-01 0.16818323D+06 0.16818323D+06 0.16818323D+06 0.11433836D+01  1  2 12  7  6  2       21 0.346659980224D-04 0.100000000000D+01
0.225442144553D-05 0.000000000000D+00 0.000000000000D+00 0.525739256048D-07 0.000000000000D+00  6 1 -4 25 23 1 -4 4 0.71788209D-01 0.67274298D-01 0.16818323D+06 0.16818323D+06 0.16818323D+06 0.11433836D+01  1  2 12  7  6  2       21 0.185776970335D-04 0.100000000000D+01
0.227616765839D-05 0.000000000000D+00 0.000000000000D+00 0.525739256048D-07 0.000000000000D+00  6 1 -2 25 23 1 -2 4 0.71788209D-01 0.69525756D-01 0.16818323D+06 0.16818323D+06 0.16818323D+06 0.11433836D+01  1  2 12  7  6  2       21 0.326061644058D-04 0.100000000000D+01
0.227616765839D-05 0.000000000000D+00 0.000000000000D+00 0.525739256048D-07 0.000000000000D+00  6 1 -4 25 23 1 -4 4 0.71788209D-01 0.69525756D-01 0.16818323D+06 0.16818323D+06 0.16818323D+06 0.11433836D+01  1  2 12  7  6  2       21 0.174485874687D-04 0.100000000000D+01
-.817134526434D-05 0.000000000000D+00 -.158348617081D-05 0.530296148393D-07 0.000000000000D+00  6 1 -2 25 23 1 -2 4 0.71788209D-01 0.67854629D-01 0.14768995D+06 0.14768995D+06 0.14768995D+06 0.11483281D+01  1  2  5  7  6  2       21 -.125822282397D-03 0.100000000000D+01
-.817134526434D-05 0.000000000000D+00 -.158348617081D-05 0.530296148393D-07 0.000000000000D+00  6 1 -4 25 23 1 -4 4 0.71788209D-01 0.67854629D-01 0.14768995D+06 0.14768995D+06 0.14768995D+06 0.11483281D+01  1  2  5  7  6  2       21 -.672015867071D-04 0.100000000000D+01
0.225442144553D-05 0.000000000000D+00 0.000000000000D+00 0.525739256048D-07 0.000000000000D+00  6 1 2 25 23 1 2 4 0.71788209D-01 0.67274298D-01 0.16818323D+06 0.16818323D+06 0.16818323D+06 0.11433836D+01  1  2 12  8  6  2       21 0.185591731615D-03 0.100000000000D+01
0.225442144553D-05 0.000000000000D+00 0.000000000000D+00 0.525739256048D-07 0.000000000000D+00  6 1 4 25 23 1 4 4 0.71788209D-01 0.67274298D-01 0.16818323D+06 0.16818323D+06 0.16818323D+06 0.11433836D+01  1  2 12  8  6  2       21 0.185776970335D-04 0.100000000000D+01
0.227616765839D-05 0.000000000000D+00 0.000000000000D+00 0.525739256048D-07 0.000000000000D+00  6 1 2 25 23 1 2 4 0.71788209D-01 0.69525756D-01 0.16818323D+06 0.16818323D+06 0.16818323D+06 0.11433836D+01  1  2 12  8  6  2       21 0.180594968556D-03 0.100000000000D+01
0.227616765839D-05 0.000000000000D+00 0.000000000000D+00 0.525739256048D-07 0.000000000000D+00  6 1 4 25 23 1 4 4 0.71788209D-01 0.69525756D-01 0.16818323D+06 0.16818323D+06 0.16818323D+06 0.11433836D+01  1  2 12  8  6  2       21 0.174485874687D-04 0.100000000000D+01
-.817134526434D-05 0.000000000000D+00 -.158348617081D-05 0.530296148393D-07 0.000000000000D+00  6 1 2 25 23 1 2 4 0.71788209D-01 0.67854629D-01 0.14768995D+06 0.14768995D+06 0.14768995D+06 0.11483281D+01  1  2  5  8  6  2       21 -.679350664475D-03 0.100000000000D+01
-.817134526434D-05 0.000000000000D+00 -.158348617081D-05 0.530296148393D-07 0.000000000000D+00  6 1 4 25 23 1 4 4 0.71788209D-01 0.67854629D-01 0.14768995D+06 0.14768995D+06 0.14768995D+06 0.11483281D+01  1  2  5  8  6  2       21 -.672015867071D-04 0.100000000000D+01
0.225442144553D-05 0.000000000000D+00 0.000000000000D+00 0.525739256048D-07 0.000000000000D+00  6 1 -3 25 23 1 -3 4 0.71788209D-01 0.67274298D-01 0.16818323D+06 0.16818323D+06 0.16818323D+06 0.11433836D+01  1  2 12  9  6  2       21 0.224454233005D-04 0.100000000000D+01
0.227616765839D-05 0.000000000000D+00 0.000000000000D+00 0.525739256048D-07 0.000000000000D+00  6 1 -3 25 23 1 -3 4 0.71788209D-01 0.69525756D-01 0.16818323D+06 0.16818323D+06 0.16818323D+06 0.11433836D+01  1  2 12  9  6  2       21 0.211100719339D-04 0.100000000000D+01
-.817134526434D-05 0.000000000000D+00 -.158348617081D-05 0.530296148393D-07 0.000000000000D+00  6 1 -3 25 23 1 -3 4 0.71788209D-01 0.67854629D-01 0.14768995D+06 0.14768995D+06 0.14768995D+06 0.11483281D+01  1  2  5  9  6  2       21 -.813030364122D-04 0.100000000000D+01
0.225442144553D-05 0.000000000000D+00 0.000000000000D+00 0.525739256048D-07 0.000000000000D+00  6 1 3 25 23 1 3 4 0.71788209D-01 0.67274298D-01 0.16818323D+06 0.16818323D+06 0.16818323D+06 0.11433836D+01  1  2 12 10  6  2       21 0.224659404370D-04 0.100000000000D+01
0.227616765839D-05 0.000000000000D+00 0.000000000000D+00 0.525739256048D-07 0.000000000000D+00  6 1 3 25 23 1 3 4 0.71788209D-01 0.69525756D-01 0.16818323D+06 0.16818323D+06 0.16818323D+06 0.11433836D+01  1  2 12 10  6  2       21 0.211307742830D-04 0.100000000000D+01
-.817134526434D-05 0.000000000000D+00 -.158348617081D-05 0.530296148393D-07 0.000000000000D+00  6 1 3 25 23 1 3 4 0.71788209D-01 0.67854629D-01 0.14768995D+06 0.14768995D+06 0.14768995D+06 0.11483281D+01  1  2  5 10  6  2       21 -.813785719205D-04 0.100000000000D+01
  </mgrwgt>
  </event>
  <event>
  6     66 -.36102257E-03 0.11114853E+03 0.75467711E-02 0.11455683E+00
        3 -1    0    0  502    0 0.00000000E+00 0.00000000E+00 0.17621392E+03 0.17621463E+03 0.50000000E+00 0.0000E+00 0.9000E+01
       21 -1    0    0  501  503 0.00000000E+00 0.00000000E+00 -.25365178E+03 0.25365289E+03 0.75000000E+00 0.0000E+00 0.9000E+01
       25  1    1    2    0    0 -.77088452E+02 0.46379183E+02 -.61738766E+02 0.16592267E+03 0.12500000E+03 0.0000E+00 0.9000E+01
       23  1    1    2    0    0 -.26531517E+02 -.95308348E+02 0.22707366E+02 0.13644955E+03 0.91188000E+02 0.0000E+00 0.9000E+01
        3  1    1    2  501    0 0.10049317E+03 0.55075031E+02 -.36964383E+02 0.12041076E+03 0.50000000E+00 0.0000E+00 0.9000E+01
       21  1    1    2  502  503 0.31268015E+01 -.61458664E+01 -.14420818E+01 0.70845368E+01 0.75000000E+00 0.0000E+00 0.9000E+01
#aMCatNLO 2  0  0  2  1 0.68955465D+01 0.00000000D+00  -5  6  0 0.00000000D+00 0.00000000D+00 0.00000000D+00 0.00000000D+00 0.00000000D+00
  <mgrwgt>
 -.2687301756D-02    3    2    0
 0.207919779638268D+03 0.000000000000000D+00 0.000000000000000D+00 0.207919779638268D+03
 0.207919779638268D+03 0.000000000000000D+00 0.000000000000000D+00 -.207919779638268D+03
 0.156145222328263D+03 -.759101194988909D+02 0.440622322619347D+02 -.324423165279856D+02
 0.144087019108314D+03 -.254531140502417D+02 -.974288145569429D+02 0.480164847806874D+02
 0.115607317839959D+03 0.101363233549133D+03 0.533665822950082D+02 -.155741682527018D+02
 0.000000000000000D+00 0.000000000000000D+00 -.000000000000000D+00 -.000000000000000D+00
 0.211311500386087D+03 0.000000000000000D+00 0.000000000000000D+00 0.211311500386087D+03
 0.211482903178407D+03 0.000000000000000D+00 0.000000000000000D+00 -.211482903178407D+03
 0.157388689774680D+03 -.770888083873409D+02 0.463789972801092D+02 -.324423165279856D+02
 0.142858274784838D+03 -.265318465778855D+02 -.953085181763614D+02 0.480164847806874D+02
 0.115649762550538D+03 0.100493853426251D+03 0.550753872866608D+02 -.155741682527018D+02
 0.689767645443807D+01 0.312680153897559D+01 -.614586639040861D+01 -.171402792319929D+00
-.451208952098D-05 0.000000000000D+00 0.000000000000D+00 0.108298717791D-06 0.000000000000D+00  6 3 21 25 23 3 21 4 0.26672271D-01 0.39327438D-01 0.42034766D+05 0.42034766D+05 0.42034766D+05 0.11998181D+01  1  2 13  2  6  2       21 -.383684253410D-02 0.100000000000D+01
-.936470389895D-05 0.000000000000D+00 0.000000000000D+00 0.108568327561D-06 0.000000000000D+00  6 3 21 25 23 3 21 4 0.26672271D-01 0.38362323D-01 0.40630910D+05 0.40630910D+05 0.40630910D+05 0.12013107D+01  1  2  8  2  6  2       21 -.841263257667D-02 0.100000000000D+01
0.114025253279D-04 0.000000000000D+00 0.000000000000D+00 0.108568327561D-06 0.268422832246D-07  6 3 21 25 23 3 21 4 0.27107367D-01 0.39019739D-01 0.42034766D+05 0.42034766D+05 0.42034766D+05 0.11998181D+01  1  2  1  2  6  2       21 0.956217335519D-02 0.100000000000D+01
  </mgrwgt>
  </event>
  <event>
  5     66 0.36102257E-03 0.14958088E+03 0.75467711E-02 0.11267727E+00
        1 -1    0    0  502    0 0.00000000E+00 0.00000000E+00 0.23968279E+04 0.23968279E+04 0.32000000E+00 0.0000E+00 0.9000E+01
       21 -1    0    0  501  502 0.00000000E+00 0.00000000E+00 -.69693811E+02 0.69697846E+02 0.75000000E+00 0.0000E+00 0.9000E+01
       25  1    1    2    0    0 -.67803759E+01 0.20229995E+02 0.12632522E+04 0.12696009E+04 0.12500000E+03 0.0000E+00 0.9000E+01
       23  1    1    2    0    0 -.10572122E+02 0.13458724E+03 0.10229622E+04 0.10358534E+04 0.91188000E+02 0.0000E+00 0.9000E+01
        1  1    1    2  501    0 0.17352498E+02 -.15481724E+03 0.40919696E+02 0.16107144E+03 0.32000000E+00 0.0000E+00 0.9000E+01
#aMCatNLO 1  0  0  1  2 0.12899372D+02 0.00000000D+00  -5  6  0 0.00000000D+00 0.00000000D+00 0.00000000D+00 0.00000000D+00 0.00000000D+00
  <mgrwgt>
 0.9270298303D-02    6    2    0
 0.408716370266521D+03 0.000000000000000D+00 0.000000000000000D+00 0.408716370266521D+03
 0.408716370266521D+03 0.000000000000000D+00 0.000000000000000D+00 -.408716370266521D+03
 0.234570992024430D+03 -.678037780324806D+01 0.202300118221381D+02 0.197340627843955D+03
 0.213337533501037D+03 -.105721240218610D+02 0.134587256805512D+03 0.137739436457172D+03
 0.369524215007575D+03 0.173525018251091D+02 -.154817268627650D+03 -.335080064301128D+03
 0.000000000000000D+00 0.000000000000000D+00 0.000000000000000D+00 -.000000000000000D+00
 0.415133071672175D+03 0.000000000000000D+00 0.000000000000000D+00 0.415133071672175D+03
 0.415301917376039D+03 0.000000000000000D+00 0.000000000000000D+00 -.415301917376039D+03
 0.234529426142847D+03 -.996395422507633D+01 0.183425174184828D+02 0.197340627843955D+03
 0.212424469399187D+03 -.134615818463480D+02 0.132874140878430D+03 0.137739436457172D+03
 0.370580616929694D+03 0.123297386780584D+02 -.157795189077727D+03 -.335080064301128D+03
 0.129004765764857D+02 0.110957973933659D+02 0.657853078081398D+01 -.168845703864268D+00
0.173054012350D-04 0.000000000000D+00 0.000000000000D+00 0.881718122152D-06 0.000000000000D+00  6 1 21 25 23 1 21 2 0.36874306D+00 0.10722437D-01 0.49619313D+05 0.49619313D+05 0.49619313D+05 0.11926106D+01  1  2  2  1  6  1        1 0.370610273838D-02 0.100000000000D+01
0.849387430717D-07 0.913231112779D-06 -.349346191864D-07 0.881718122152D-06 0.000000000000D+00  6 1 21 25 23 1 21 4 0.36874306D+00 0.10722437D-01 0.49619313D+05 0.49619313D+05 0.49619313D+05 0.11926106D+01  1  2  3  1  6  1        1 0.258725335466D-04 0.100000000000D+01
0.152672314738D-05 0.000000000000D+00 0.000000000000D+00 0.881718122152D-06 0.000000000000D+00  6 1 21 25 23 1 21 4 0.36874306D+00 0.10722437D-01 0.49619313D+05 0.49619313D+05 0.49619313D+05 0.11926106D+01  1  2 15  1  6  1        1 0.465043329093D-03 0.100000000000D+01
0.447816348277D-04 0.000000000000D+00 0.000000000000D+00 0.877765721400D-06 0.000000000000D+00  6 1 21 25 23 1 21 4 0.37745607D+00 0.10722437D-01 0.52813159D+05 0.52813159D+05 0.52813159D+05 0.11899346D+01  1  2 12  1  6  1        1 0.123572725579D-01 0.100000000000D+01
-.245150431656D-04 0.000000000000D+00 0.000000000000D+00 0.881718122152D-06 0.000000000000D+00  6 1 21 25 23 1 21 4 0.36874306D+00 0.10722437D-01 0.49619313D+05 0.49619313D+05 0.49619313D+05 0.11926106D+01  1  2  4  1  6  1        1 -.746733768079D-02 0.100000000000D+01
0.112169808980D-05 0.000000000000D+00 0.000000000000D+00 0.877765721400D-06 0.000000000000D+00  6 21 21 25 23 1 -1 4 0.37745607D+00 0.10722437D-01 0.52813159D+05 0.52813159D+05 0.52813159D+05 0.11899346D+01  1  2 12  4  6  1        1 0.183344824640D-03 0.100000000000D+01
  </mgrwgt>
  </event>
  <event>
  5     66 -.36102257E-03 0.98688909E+02 0.75467711E-02 0.11592465E+00
        1 -1    0    0  502    0 0.00000000E+00 0.00000000E+00 0.46083625E+03 0.46083637E+03 0.32000000E+00 0.0000E+00 0.9000E+01
       21 -1    0    0  501  502 -.00000000E+00 -.00000000E+00 -.96450765E+03 0.96450794E+03 0.75000000E+00 0.0000E+00 0.9000E+01
       25  1    1    2    0    0 -.58950123E+02 0.15192966E+01 0.30615215E+03 0.33590410E+03 0.12500000E+03 0.0000E+00 0.9000E+01
       23  1    1    2    0    0 -.70390085E+01 0.71862813E+02 0.11251952E+03 0.16183234E+03 0.91188000E+02 0.0000E+00 0.9000E+01
        1  1    1    2  501    0 0.65989132E+02 -.73382109E+02 -.92234307E+03 0.92760786E+03 0.32000000E+00 0.0000E+00 0.9000E+01
#aMCatNLO 1  0  0  5  2 0.22182856D+02 0.00000000D+00  -5  6  0 0.00000000D+00 0.00000000D+00 0.00000000D+00 0.00000000D+00 0.00000000D+00
  <mgrwgt>
 -.2522060941D-01    6    2    0
 0.666693616414562D+03 0.000000000000000D+00 0.000000000000000D+00 0.666693616414562D+03
 0.666693616414562D+03 -.000000000000000D+00 -.000000000000000D+00 -.666693616414562D+03
 0.474715149481772D+03 -.589501260103573D+02 0.151929986913575D+01 0.454149807353005D+03
 0.215496051219642D+03 -.703900982172848D+01 0.718628142232707D+02 0.181409715891679D+03
 0.643176032127711D+03 0.659891358320860D+02 -.733821140924067D+02 -.635559523244684D+03
 0.000000000000000D+00 0.000000000000000D+00 0.000000000000000D+00 -.000000000000000D+00
 0.666693616414562D+03 0.000000000000000D+00 0.000000000000000D+00 0.666693616414562D+03
 0.666693616414562D+03 -.000000000000000D+00 -.000000000000000D+00 -.666693616414562D+03
 0.471894138322057D+03 -.586480679062179D+02 0.118340120974289D+01 0.451240602644710D+03
 0.214329667178785D+03 -.690185466882375D+01 0.717102931309438D+02 0.180088736877611D+03
 0.611951855398456D+03 0.514835268449513D+02 -.888578906128609D+02 -.603273399931616D+03
 0.352115719298259D+02 0.140663957300906D+02 0.159641962721739D+02 -.280559395907052D+02
0.218531310817D-03 0.000000000000D+00 0.000000000000D+00 0.735926193821D-05 0.000000000000D+00  6 1 21 25 23 1 21 2 0.70897916D-01 0.14838582D+00 0.31190197D+05 0.31190197D+05 0.31190197D+05 0.12131290D+01  1  2  2  3  6  5        1 0.556778176930D-02 0.100000000000D+01
0.332665655962D-04 0.115322141015D-04 -.441151754877D-06 0.735926193821D-05 0.000000000000D+00  6 1 21 25 23 1 21 4 0.70897916D-01 0.14838582D+00 0.31190197D+05 0.31190197D+05 0.31190197D+05 0.12131290D+01  1  2  3  3  6  5        1 0.124735614595D-02 0.100000000000D+01
0.282115177454D-04 0.000000000000D+00 0.000000000000D+00 0.735926193821D-05 0.000000000000D+00  6 1 21 25 23 1 21 4 0.70897916D-01 0.14838582D+00 0.31190197D+05 0.31190197D+05 0.31190197D+05 0.12131290D+01  1  2 15  3  6  5        1 0.105781313507D-02 0.100000000000D+01
-.104609537189D-02 0.000000000000D+00 0.000000000000D+00 0.735926193821D-05 0.000000000000D+00  6 1 21 25 23 1 21 4 0.70897916D-01 0.14838582D+00 0.31190197D+05 0.31190197D+05 0.31190197D+05 0.12131290D+01  1  2  4  3  6  5        1 -.392241720173D-01 0.100000000000D+01
-.290707219869D-02 0.000000000000D+00 0.000000000000D+00 0.735926193821D-05 0.000000000000D+00  6 1 21 25 23 1 21 4 0.70897916D-01 0.14838582D+00 0.31190197D+05 0.31190197D+05 0.31190197D+05 0.12131290D+01  1  2  5  3  6  5        1 -.109002967657D+00 0.100000000000D+01
0.307057353081D-02 0.000000000000D+00 -.000000000000D+00 0.735926193821D-05 0.000000000000D+00  6 1 21 25 23 1 21 4 0.70897916D-01 0.14838582D+00 0.31190197D+05 0.31190197D+05 0.31190197D+05 0.12131290D+01  1  2  6  3  6  5        1 0.115133579214D+00 0.100000000000D+01
  </mgrwgt>
  </event>
  <event>
  5     66 0.36102257E-03 0.36729748E+02 0.75467711E-02 0.12096852E+00
        3 -1    0    0  502    0 0.00000000E+00 0.00000000E+00 0.61099742E+02 0.61101788E+02 0.50000000E+00 0.0000E+00 0.9000E+01
       21 -1    0    0  501  502 0.00000000E+00 0.00000000E+00 -.28820987E+03 0.28821084E+03 0.75000000E+00 0.0000E+00 0.9000E+01
       25  1    1    2    0    0 -.26634581E+02 -.24351913E+01 -.14991416E+03 0.19701418E+03 0.12500000E+03 0.0000E+00 0.9000E+01
       23  1    1    2    0    0 -.59835292E+01 -.14445771E+02 -.66834613E+02 0.11413413E+03 0.91188000E+02 0.0000E+00 0.9000E+01
        3  1    1    2  501    0 0.32618110E+02 0.16880962E+02 -.10361354E+02 0.38164324E+02 0.50000000E+00 0.0000E+00 0.9000E+01
#aMCatNLO 1  0  0  2  1 0.27354301D+02 0.00000000D+00  -5  6  0 0.00000000D+00 0.00000000D+00 0.00000000D+00 0.00000000D+00 0.00000000D+00
  <mgrwgt>
 0.4035893391D-01   23    2    0
 0.132702963431980D+03 0.000000000000000D+00 0.000000000000000D+00 0.132702963431980D+03
 0.132702963431980D+03 0.000000000000000D+00 0.000000000000000D+00 -.132702963431980D+03
 0.131016757353747D+03 -.266357576651742D+02 -.243580019146792D+01 -.287227087601405D+02
 0.930261623361358D+02 -.598436456800365D+01 -.144462028947019D+02 0.970103796670333D+01
 0.413630071740778D+02 0.326201222331779D+02 0.168820030861698D+02 0.190216707934372D+02
 0.000000000000000D+00 0.000000000000000D+00 0.000000000000000D+00 -.000000000000000D+00
 0.143445516804749D+03 0.000000000000000D+00 0.000000000000000D+00 0.143445516804749D+03
 0.152038601046727D+03 0.000000000000000D+00 0.000000000000000D+00 -.152038601046727D+03
 0.134461299403863D+03 -.402764849469317D+02 -.276618856462524D+01 -.287227087601405D+02
 0.941716010946691D+02 -.156029133471444D+02 -.146791711681402D+02 0.970103796670333D+01
 0.381789504508459D+02 0.285331172103509D+02 0.167830128408048D+02 0.190216707934372D+02
 0.286722669020978D+02 0.273462810837252D+02 0.662346891960648D+00 -.859308424197850D+01
0.273129611614D-05 0.000000000000D+00 0.000000000000D+00 0.309382337814D-06 0.000000000000D+00  6 3 21 25 23 3 21 2 0.94001928D-02 0.44340212D-01 0.16522308D+05 0.16522308D+05 0.16522308D+05 0.12430650D+01  1  2  2  2  6  2       21 0.811292404257D-02 0.100000000000D+01
-.155283504756D-06 0.144134455919D-06 -.551369993720D-08 0.309382337814D-06 0.000000000000D+00  6 3 21 25 23 3 21 4 0.94001928D-02 0.44340212D-01 0.16522308D+05 0.16522308D+05 0.16522308D+05 0.12430650D+01  1  2  3  2  6  2       21 -.712724448468D-03 0.100000000000D+01
0.242330508479D-06 0.000000000000D+00 0.000000000000D+00 0.309382337814D-06 0.000000000000D+00  6 3 21 25 23 3 21 4 0.94001928D-02 0.44340212D-01 0.16522308D+05 0.16522308D+05 0.16522308D+05 0.12430650D+01  1  2 15  2  6  2       21 0.111225515082D-02 0.100000000000D+01
0.369697834141D-05 0.000000000000D+00 0.000000000000D+00 0.304361736291D-06 0.000000000000D+00  6 3 21 25 23 3 21 4 0.94001928D-02 0.52386830D-01 0.20375507D+05 0.20375507D+05 0.20375507D+05 0.12329377D+01  1  2 12  2  6  2       21 0.117298377983D-01 0.100000000000D+01
-.939451480323D-06 0.000000000000D+00 0.000000000000D+00 0.309382337814D-06 0.000000000000D+00  6 3 21 25 23 3 21 4 0.94001928D-02 0.44340212D-01 0.16522308D+05 0.16522308D+05 0.16522308D+05 0.12430650D+01  1  2  4  2  6  2       21 -.431191992497D-02 0.100000000000D+01
-.182788413069D-04 0.000000000000D+00 -.482561978842D-05 0.309382337814D-06 0.000000000000D+00  6 3 21 25 23 3 21 4 0.94001928D-02 0.54380941D-01 0.16522308D+05 0.16522308D+05 0.16522308D+05 0.12430650D+01  1  2  5  2  6  2       21 -.551231674864D-01 0.100000000000D+01
0.177723955255D-04 0.000000000000D+00 0.444606275361D-05 0.309382337814D-06 0.000000000000D+00  6 3 21 25 23 3 21 4 0.94001928D-02 0.44340212D-01 0.16522308D+05 0.16522308D+05 0.16522308D+05 0.12430650D+01  1  2  6  2  6  2       21 0.815722237771D-01 0.100000000000D+01
0.170655955171D-06 0.000000000000D+00 0.000000000000D+00 0.304361736291D-06 0.000000000000D+00  6 3 -3 25 23 3 -3 4 0.94001928D-02 0.52386830D-01 0.20375507D+05 0.20375507D+05 0.20375507D+05 0.12329377D+01  1  2 12  5  6  2       21 0.273249870813D-04 0.100000000000D+01
-.882458477901D-06 0.000000000000D+00 -.283751508991D-06 0.309382337814D-06 0.000000000000D+00  6 3 -3 25 23 3 -3 4 0.94001928D-02 0.54380941D-01 0.16522308D+05 0.16522308D+05 0.16522308D+05 0.12430650D+01  1  2  5  5  6  2       21 -.133304798922D-03 0.100000000000D+01
0.170655955171D-06 0.000000000000D+00 0.000000000000D+00 0.304361736291D-06 0.000000000000D+00  6 3 3 25 23 3 3 4 0.94001928D-02 0.52386830D-01 0.20375507D+05 0.20375507D+05 0.20375507D+05 0.12329377D+01  1  2 12  6  6  2       21 0.273378970691D-04 0.100000000000D+01
-.882458477901D-06 0.000000000000D+00 -.283751508991D-06 0.309382337814D-06 0.000000000000D+00  6 3 3 25 23 3 3 4 0.94001928D-02 0.54380941D-01 0.16522308D+05 0.16522308D+05 0.16522308D+05 0.12430650D+01  1  2  5  6  6  2       21 -.133373950687D-03 0.100000000000D+01
0.170655955171D-06 0.000000000000D+00 0.000000000000D+00 0.304361736291D-06 0.000000000000D+00  6 3 -2 25 23 3 -2 4 0.94001928D-02 0.52386830D-01 0.20375507D+05 0.20375507D+05 0.20375507D+05 0.12329377D+01  1  2 12  7  6  2       21 0.437312617101D-04 0.100000000000D+01
0.170655955171D-06 0.000000000000D+00 0.000000000000D+00 0.304361736291D-06 0.000000000000D+00  6 3 -4 25 23 3 -4 4 0.94001928D-02 0.52386830D-01 0.20375507D+05 0.20375507D+05 0.20375507D+05 0.12329377D+01  1  2 12  7  6  2       21 0.224080382386D-04 0.100000000000D+01
-.882458477901D-06 0.000000000000D+00 -.283751508991D-06 0.309382337814D-06 0.000000000000D+00  6 3 -2 25 23 3 -2 4 0.94001928D-02 0.54380941D-01 0.16522308D+05 0.16522308D+05 0.16522308D+05 0.12430650D+01  1  2  5  7  6  2       21 -.214423149311D-03 0.100000000000D+01
-.882458477901D-06 0.000000000000D+00 -.283751508991D-06 0.309382337814D-06 0.000000000000D+00  6 3 -4 25 23 3 -4 4 0.94001928D-02 0.54380941D-01 0.16522308D+05 0.16522308D+05 0.16522308D+05 0.12430650D+01  1  2  5  7  6  2       21 -.108884553714D-03 0.100000000000D+01
0.170655955171D-06 0.000000000000D+00 0.000000000000D+00 0.304361736291D-06 0.000000000000D+00  6 3 2 25 23 3 2 4 0.94001928D-02 0.52386830D-01 0.20375507D+05 0.20375507D+05 0.20375507D+05 0.12329377D+01  1  2 12  8  6  2       21 0.182257439255D-03 0.100000000000D+01
0.170655955171D-06 0.000000000000D+00 0.000000000000D+00 0.304361736291D-06 0.000000000000D+00  6 3 4 25 23 3 4 4 0.94001928D-02 0.52386830D-01 0.20375507D+05 0.20375507D+05 0.20375507D+05 0.12329377D+01  1  2 12  8  6  2       21 0.224080382386D-04 0.100000000000D+01
-.882458477901D-06 0.000000000000D+00 -.283751508991D-06 0.309382337814D-06 0.000000000000D+00  6 3 2 25 23 3 2 4 0.94001928D-02 0.54380941D-01 0.16522308D+05 0.16522308D+05 0.16522308D+05 0.12430650D+01  1  2  5  8  6  2       21 -.925346905715D-03 0.100000000000D+01
-.882458477901D-06 0.000000000000D+00 -.283751508991D-06 0.309382337814D-06 0.000000000000D+00  6 3 4 25 23 3 4 4 0.94001928D-02 0.54380941D-01 0.16522308D+05 0.16522308D+05 0.16522308D+05 0.12430650D+01  1  2  5  8  6  2       21 -.108884553714D-03 0.100000000000D+01
0.170655955171D-06 0.000000000000D+00 0.000000000000D+00 0.304361736291D-06 0.000000000000D+00  6 3 -1 25 23 3 -1 4 0.94001928D-02 0.52386830D-01 0.20375507D+05 0.20375507D+05 0.20375507D+05 0.12329377D+01  1  2 12  9  6  2       21 0.538167202947D-04 0.100000000000D+01
-.882458477901D-06 0.000000000000D+00 -.283751508991D-06 0.309382337814D-06 0.000000000000D+00  6 3 -1 25 23 3 -1 4 0.94001928D-02 0.54380941D-01 0.16522308D+05 0.16522308D+05 0.16522308D+05 0.12430650D+01  1  2  5  9  6  2       21 -.265596939143D-03 0.100000000000D+01
0.170655955171D-06 0.000000000000D+00 0.000000000000D+00 0.304361736291D-06 0.000000000000D+00  6 3 1 25 23 3 1 4 0.94001928D-02 0.52386830D-01 0.20375507D+05 0.20375507D+05 0.20375507D+05 0.12329377D+01  1  2 12 10  6  2       21 0.126043099352D-03 0.100000000000D+01
-.882458477901D-06 0.000000000000D+00 -.283751508991D-06 0.309382337814D-06 0.000000000000D+00  6 3 1 25 23 3 1 4 0.94001928D-02 0.54380941D-01 0.16522308D+05 0.16522308D+05 0.16522308D+05 0.12430650D+01  1  2  5 10  6  2       21 -.636007626208D-03 0.100000000000D+01
  </mgrwgt>
  </event>
  <event>
  6     66 -.36102257E-03 0.17413646E+02 0.75467711E-02 0.10288777E+00
        1 -1    0    0  502    0 0.00000000E+00 0.00000000E+00 0.23231744E+04 0.23231744E+04 0.32000000E+00 0.0000E+00 0.9000E+01
       21 -1    0    0  501  503 0.00000000E+00 0.00000000E+00 -.12035030E+03 0.12035264E+03 0.75000000E+00 0.0000E+00 0.9000E+01
       25  1    1    2    0    0 -.41203990E+03 -.96208277E+02 0.99212223E+03 0.10858013E+04 0.12500000E+03 0.0000E+00 0.9000E+01
       23  1    1    2    0    0 0.39433743E+03 0.65664237E+02 0.12400590E+04 0.13060916E+04 0.91188000E+02 0.0000E+00 0.9000E+01
        1  1    1    2  501    0 0.29013716E+01 0.25127159E+02 -.11449735E+02 0.27766723E+02 0.32000000E+00 0.0000E+00 0.9000E+01
       21  1    1    2  502  503 0.14801096E+02 0.54168819E+01 -.17907405E+02 0.23867398E+02 0.75000000E+00 0.0000E+00 0.9000E+01
#aMCatNLO 2  0  0  2  1 0.15761188D+02 0.00000000D+00  -5  6  0 0.00000000D+00 0.00000000D+00 0.00000000D+00 0.00000000D+00 0.00000000D+00
  <mgrwgt>
 -.3693929818D+00    2    2    0
 0.480326977738075D+03 0.000000000000000D+00 0.000000000000000D+00 0.480326977738075D+03
 0.480326977738075D+03 0.000000000000000D+00 0.000000000000000D+00 -.480326977738075D+03
 0.434508901974582D+03 -.405293119502617D+03 -.937391620411081D+02 -.111104760845633D+02
 0.429552718331898D+03 0.400905133035916D+03 0.680678155333071D+02 0.104125564950694D+03
 0.965923351696690D+02 0.438798646670065D+01 0.256713465078010D+02 -.930150888661304D+02
 0.000000000000000D+00 0.000000000000000D+00 0.000000000000000D+00 -.000000000000000D+00
 0.481007239039741D+03 0.000000000000000D+00 0.000000000000000D+00 0.481007239039741D+03
 0.581271926292206D+03 0.000000000000000D+00 0.000000000000000D+00 -.581271926292206D+03
 0.441340427569742D+03 -.412039907580670D+03 -.962083410600670D+02 -.111104760845633D+02
 0.423049840505940D+03 0.394337418036034D+03 0.656641734012883D+02 0.104125564950694D+03
 0.963929734569784D+02 0.290139404085594D+01 0.251272857213685D+02 -.930150888661304D+02
 0.101495923799286D+03 0.148010955037805D+02 0.541688193741019D+01 -.100264687252464D+03
-.574606633603D-02 0.000000000000D+00 0.000000000000D+00 0.388599252106D-06 0.000000000000D+00  6 1 21 25 23 1 21 4 0.35690513D+00 0.18524925D-01 0.19904598D+06 0.19904598D+06 0.19904598D+06 0.11370690D+01  1  2 13  2  6  2       21 -.544692254801D+00 0.100000000000D+01
0.185683808197D-02 0.000000000000D+00 0.000000000000D+00 0.389470561980D-06 0.226341150329D-07  6 1 21 25 23 1 21 4 0.35741060D+00 0.18515559D-01 0.19904598D+06 0.19904598D+06 0.19904598D+06 0.11370690D+01  1  2  1  2  6  2       21 0.175299272963D+00 0.100000000000D+01
  </mgrwgt>
  </event>
  <event>
  6     66 0.36102257E-03 0.14760501E+02 0.75467711E-02 0.12137569E+00
        1 -1    0    0  502    0 0.00000000E+00 0.00000000E+00 0.95384059E+03 0.95384064E+03 0.32000000E+00 0.0000E+00 0.9000E+01
       21 -1    0    0  501  503 0.00000000E+00 0.00000000E+00 -.40130786E+02 0.40137794E+02 0.75000000E+00 0.0000E+00 0.9000E+01
       25  1    1    2    0    0 0.16848702E+02 0.87198745E+01 0.40309008E+03 0.42245299E+03 0.12500000E+03 0.0000E+00 0.9000E+01
       23  1    1    2    0    0 -.20019947E+02 -.13172493E+02 0.38480344E+03 0.39618588E+03 0.91188000E+02 0.0000E+00 0.9000E+01
        1  1    1    2  501    0 0.25762704E+02 -.14140685E+02 0.13983270E+03 0.14288794E+03 0.32000000E+00 0.0000E+00 0.9000E+01
       21  1    1    2  502  503 -.22591458E+02 0.18593303E+02 -.14016429E+02 0.32451621E+02 0.75000000E+00 0.0000E+00 0.9000E+01
#aMCatNLO 2  0  0  2  1 0.18619091D+02 0.00000000D+00  -5  6  0 0.00000000D+00 0.00000000D+00 0.00000000D+00 0.00000000D+00 0.00000000D+00
  <mgrwgt>
 0.1523800891D+00    1    2    0
 0.125500769031319D+03 0.000000000000000D+00 0.000000000000000D+00 0.125500769031319D+03
 0.125500769031319D+03 0.000000000000000D+00 0.000000000000000D+00 -.125500769031319D+03
 0.127585456866473D+03 0.540297946109311D+01 0.181397250268206D+02 -.171699444588810D+02
 0.962484065604398D+02 -.285883470676003D+02 -.612068542717053D+01 0.968235731977330D+01
 0.271676746357240D+02 0.231853676065072D+02 -.120190395996501D+02 0.748758713910773D+01
 0.000000000000000D+00 -.000000000000000D+00 0.000000000000000D+00 -.000000000000000D+00
 0.127582684160661D+03 0.000000000000000D+00 0.000000000000000D+00 0.127582684160661D+03
 0.300051722956811D+03 0.000000000000000D+00 0.000000000000000D+00 -.300051722956811D+03
 0.127591934764367D+03 0.168478851301714D+02 0.872029763448459D+01 -.171699444588810D+02
 0.947804217183171D+02 -.200205546556149D+02 -.131721807274199D+02 0.968235731977330D+01
 0.303287654570698D+02 0.257641279307047D+02 -.141414201887399D+02 0.748758713910773D+01
 0.174933285177718D+03 -.225914584052612D+02 0.185933032816752D+02 -.172469038796150D+03
0.178248747901D-04 0.000000000000D+00 0.000000000000D+00 0.481046946458D-06 0.330182522034D-07  6 1 21 25 23 1 21 4 0.14674433D+00 0.61744718D-02 0.19511180D+05 0.19511180D+05 0.19511180D+05 0.12350109D+01  1  2  1  2  6  2       21 0.152380089051D+00 0.100000000000D+01
  </mgrwgt>
  </event>
  <event>
  5     66 0.36102257E-03 0.30725688E+02 0.75467711E-02 0.12236651E+00
        1 -1    0    0  502    0 0.00000000E+00 0.00000000E+00 0.88712395E+03 0.88712400E+03 0.32000000E+00 0.0000E+00 0.9000E+01
       21 -1    0    0  501  502 0.00000000E+00 0.00000000E+00 -.17874967E+02 0.17890694E+02 0.75000000E+00 0.0000E+00 0.9000E+01
       25  1    1    2    0    0 -.86020026E+01 0.23780524E+02 0.45556860E+03 0.47308272E+03 0.12500000E+03 0.0000E+00 0.9000E+01
       23  1    1    2    0    0 0.19406558E+02 0.49812716E+01 0.31997474E+03 0.33331744E+03 0.91188000E+02 0.0000E+00 0.9000E+01
        1  1    1    2  501    0 -.10804556E+02 -.28761796E+02 0.93705634E+02 0.98614540E+02 0.32000000E+00 0.0000E+00 0.9000E+01
#aMCatNLO 1  0  0  2  1 0.13200912D+02 0.00000000D+00  -5  6  0 0.00000000D+00 0.00000000D+00 0.00000000D+00 0.00000000D+00 0.00000000D+00
  <mgrwgt>
 0.1111669988D+00   23    2    0
 0.125954174463646D+03 0.000000000000000D+00 0.000000000000000D+00 0.125954174463646D+03
 0.125954174463646D+03 0.000000000000000D+00 0.000000000000000D+00 -.125954174463646D+03
 0.127603171665104D+03 -.860170988752965D+01 0.237813035059230D+02 0.424612877383171D+01
 0.933652319366455D+02 0.194067723340616D+02 0.498184174627194D+01 -.611253607440760D+00
 0.309399453255426D+02 -.108050624465320D+02 -.287631452521949D+02 -.363487516639096D+01
 0.000000000000000D+00 0.000000000000000D+00 0.000000000000000D+00 -.000000000000000D+00
 0.132511372492040D+03 0.000000000000000D+00 0.000000000000000D+00 0.132511372492040D+03
 0.132950852336331D+03 0.000000000000000D+00 0.000000000000000D+00 -.132950852336331D+03
 0.127597702867689D+03 -.145171859056284D+02 0.206735454368263D+02 0.424612877383171D+01
 0.924716201307202D+02 0.150991325436572D+02 0.271877749304317D+01 -.611253607440760D+00
 0.321846766321552D+02 -.122682713325749D+02 -.295318575601243D+02 -.363487516639096D+01
 0.132082251978075D+02 0.116863246945461D+02 0.613953463025488D+01 -.439479844290931D+00
0.700804587796D-06 0.000000000000D+00 0.000000000000D+00 0.582968137353D-06 0.000000000000D+00  6 1 21 25 23 1 21 2 0.13648182D+00 0.27512092D-02 0.15828335D+05 0.15828335D+05 0.15828335D+05 0.12451700D+01  1  2  2  2  6  2       21 0.172304904255D-01 0.100000000000D+01
0.200484917768D-08 0.369824741341D-07 -.141472255201D-08 0.582968137353D-06 0.000000000000D+00  6 1 21 25 23 1 21 4 0.13648182D+00 0.27512092D-02 0.15828335D+05 0.15828335D+05 0.15828335D+05 0.12451700D+01  1  2  3  2  6  2       21 0.764257552614D-04 0.100000000000D+01
0.621875560996D-07 0.000000000000D+00 0.000000000000D+00 0.582968137353D-06 0.000000000000D+00  6 1 21 25 23 1 21 4 0.13648182D+00 0.27512092D-02 0.15828335D+05 0.15828335D+05 0.15828335D+05 0.12451700D+01  1  2 15  2  6  2       21 0.237061769817D-02 0.100000000000D+01
0.145174836047D-05 0.000000000000D+00 0.000000000000D+00 0.578175832041D-06 0.000000000000D+00  6 1 21 25 23 1 21 4 0.13648182D+00 0.29718792D-02 0.17579618D+05 0.17579618D+05 0.17579618D+05 0.12400415D+01  1  2 12  2  6  2       21 0.480455062757D-01 0.100000000000D+01
-.501877409894D-06 0.000000000000D+00 0.000000000000D+00 0.582968137353D-06 0.000000000000D+00  6 1 21 25 23 1 21 4 0.13648182D+00 0.27512092D-02 0.15828335D+05 0.15828335D+05 0.15828335D+05 0.12451700D+01  1  2  4  2  6  2       21 -.191317933173D-01 0.100000000000D+01
-.107186657601D-04 0.000000000000D+00 -.222583486680D-05 0.582968137353D-06 0.000000000000D+00  6 1 21 25 23 1 21 4 0.13648182D+00 0.30603065D-02 0.15828335D+05 0.15828335D+05 0.15828335D+05 0.12451700D+01  1  2  5  2  6  2       21 -.343255693320D+00 0.100000000000D+01
0.107120773460D-04 0.000000000000D+00 0.217616633782D-05 0.582968137353D-06 0.000000000000D+00  6 1 21 25 23 1 21 4 0.13648182D+00 0.27512092D-02 0.15828335D+05 0.15828335D+05 0.15828335D+05 0.12451700D+01  1  2  6  2  6  2       21 0.408349221827D+00 0.100000000000D+01
0.277745527157D-07 0.000000000000D+00 0.000000000000D+00 0.578175832041D-06 0.000000000000D+00  6 1 -1 25 23 1 -1 4 0.13648182D+00 0.29718792D-02 0.17579618D+05 0.17579618D+05 0.17579618D+05 0.12400415D+01  1  2 12  5  6  2       21 0.474709095433D-04 0.100000000000D+01
-.244778282073D-06 0.000000000000D+00 -.610520956202D-07 0.582968137353D-06 0.000000000000D+00  6 1 -1 25 23 1 -1 4 0.13648182D+00 0.30603065D-02 0.15828335D+05 0.15828335D+05 0.15828335D+05 0.12451700D+01  1  2  5  5  6  2       21 -.406439477673D-03 0.100000000000D+01
0.277745527157D-07 0.000000000000D+00 0.000000000000D+00 0.578175832041D-06 0.000000000000D+00  6 1 1 25 23 1 1 4 0.13648182D+00 0.29718792D-02 0.17579618D+05 0.17579618D+05 0.17579618D+05 0.12400415D+01  1  2 12  6  6  2       21 0.510690778260D-04 0.100000000000D+01
-.244778282073D-06 0.000000000000D+00 -.610520956202D-07 0.582968137353D-06 0.000000000000D+00  6 1 1 25 23 1 1 4 0.13648182D+00 0.30603065D-02 0.15828335D+05 0.15828335D+05 0.15828335D+05 0.12451700D+01  1  2  5  6  6  2       21 -.438225226551D-03 0.100000000000D+01
0.277745527157D-07 0.000000000000D+00 0.000000000000D+00 0.578175832041D-06 0.000000000000D+00  6 1 -2 25 23 1 -2 4 0.13648182D+00 0.29718792D-02 0.17579618D+05 0.17579618D+05 0.17579618D+05 0.12400415D+01  1  2 12  7  6  2       21 0.468261348709D-04 0.100000000000D+01
0.277745527157D-07 0.000000000000D+00 0.000000000000D+00 0.578175832041D-06 0.000000000000D+00  6 1 -4 25 23 1 -4 4 0.13648182D+00 0.29718792D-02 0.17579618D+05 0.17579618D+05 0.17579618D+05 0.12400415D+01  1  2 12  7  6  2       21 0.319060095370D-04 0.100000000000D+01
-.244778282073D-06 0.000000000000D+00 -.610520956202D-07 0.582968137353D-06 0.000000000000D+00  6 1 -2 25 23 1 -2 4 0.13648182D+00 0.30603065D-02 0.15828335D+05 0.15828335D+05 0.15828335D+05 0.12451700D+01  1  2  5  7  6  2       21 -.400745637387D-03 0.100000000000D+01
-.244778282073D-06 0.000000000000D+00 -.610520956202D-07 0.582968137353D-06 0.000000000000D+00  6 1 -4 25 23 1 -4 4 0.13648182D+00 0.30603065D-02 0.15828335D+05 0.15828335D+05 0.15828335D+05 0.12451700D+01  1  2  5  7  6  2       21 -.271357886756D-03 0.100000000000D+01
0.277745527157D-07 0.000000000000D+00 0.000000000000D+00 0.578175832041D-06 0.000000000000D+00  6 1 2 25 23 1 2 4 0.13648182D+00 0.29718792D-02 0.17579618D+05 0.17579618D+05 0.17579618D+05 0.12400415D+01  1  2 12  8  6  2       21 0.535150964653D-04 0.100000000000D+01
0.277745527157D-07 0.000000000000D+00 0.000000000000D+00 0.578175832041D-06 0.000000000000D+00  6 1 4 25 23 1 4 4 0.13648182D+00 0.29718792D-02 0.17579618D+05 0.17579618D+05 0.17579618D+05 0.12400415D+01  1  2 12  8  6  2       21 0.319060095370D-04 0.100000000000D+01
-.244778282073D-06 0.000000000000D+00 -.610520956202D-07 0.582968137353D-06 0.000000000000D+00  6 1 2 25 23 1 2 4 0.13648182D+00 0.30603065D-02 0.15828335D+05 0.15828335D+05 0.15828335D+05 0.12451700D+01  1  2  5  8  6  2       21 -.459808251877D-03 0.100000000000D+01
-.244778282073D-06 0.000000000000D+00 -.610520956202D-07 0.582968137353D-06 0.000000000000D+00  6 1 4 25 23 1 4 4 0.13648182D+00 0.30603065D-02 0.15828335D+05 0.15828335D+05 0.15828335D+05 0.12451700D+01  1  2  5  8  6  2       21 -.271357886756D-03 0.100000000000D+01
0.277745527157D-07 0.000000000000D+00 0.000000000000D+00 0.578175832041D-06 0.000000000000D+00  6 1 -3 25 23 1 -3 4 0.13648182D+00 0.29718792D-02 0.17579618D+05 0.17579618D+05 0.17579618D+05 0.12400415D+01  1  2 12  9  6  2       21 0.354123275716D-04 0.100000000000D+01
-.244778282073D-06 0.000000000000D+00 -.610520956202D-07 0.582968137353D-06 0.000000000000D+00  6 1 -3 25 23 1 -3 4 0.13648182D+00 0.30603065D-02 0.15828335D+05 0.15828335D+05 0.15828335D+05 0.12451700D+01  1  2  5  9  6  2       21 -.301690242493D-03 0.100000000000D+01
0.277745527157D-07 0.000000000000D+00 0.000000000000D+00 0.578175832041D-06 0.000000000000D+00  6 1 3 25 23 1 3 4 0.13648182D+00 0.29718792D-02 0.17579618D+05 0.17579618D+05 0.17579618D+05 0.12400415D+01  1  2 12 10  6  2       21 0.354096933361D-04 0.100000000000D+01
-.244778282073D-06 0.000000000000D+00 -.610520956202D-07 0.582968137353D-06 0.000000000000D+00  6 1 3 25 23 1 3 4 0.13648182D+00 0.30603065D-02 0.15828335D+05 0.15828335D+05 0.15828335D+05 0.12451700D+01  1  2  5 10  6  2       21 -.301667189836D-03 0.100000000000D+01
  </mgrwgt>
  </event>
  <event>
  6     66 -.36102257E-03 0.13315316E+02 0.75467711E-02 0.12354471E+00
        3 -1    0    0  502    0 0.00000000E+00 0.00000000E+00 0.65661119E+02 0.65663022E+02 0.50000000E+00 0.0000E+00 0.9000E+01
       21 -1    0    0  501  502 -.00000000E+00 -.00000000E+00 -.31979262E+03 0.31979350E+03 0.75000000E+00 0.0000E+00 0.9000E+01
       25  1    1    2    0    0 -.21036075E+02 0.16869558E+02 -.49935223E+02 0.13727937E+03 0.12500000E+03 0.0000E+00 0.9000E+01
       23  1    1    2    0    0 0.18959020E+02 -.35848991E+02 -.10873335E+03 0.14758993E+03 0.91188000E+02 0.0000E+00 0.9000E+01
        3  1    1    2  503    0 -.18636636E+01 0.15871052E+02 -.93937155E+02 0.95287998E+02 0.50000000E+00 0.0000E+00 0.9000E+01
       21  1    1    2  501  503 0.39407191E+01 0.31083813E+01 -.15257715E+01 0.52992245E+01 0.75000000E+00 0.0000E+00 0.9000E+01
#aMCatNLO 2  0  0  5  2 0.57319561D+01 0.00000000D+00  -5  6  0 0.00000000D+00 0.00000000D+00 0.00000000D+00 0.00000000D+00 0.00000000D+00
  <mgrwgt>
 -.6044736068D-01    1    2    0
 0.144908514569521D+03 0.000000000000000D+00 0.000000000000000D+00 0.144908514569521D+03
 0.144908514569521D+03 -.000000000000000D+00 -.000000000000000D+00 -.144908514569521D+03
 0.139841410316181D+03 -.211965274760318D+02 0.154033971845439D+02 0.569566731590917D+02
 0.101007408671694D+03 0.188427226727010D+02 -.369116721441711D+02 -.130278748985231D+02
 0.489682101511668D+02 0.235380480333080D+01 0.215082749596271D+02 -.439287982605685D+02
 0.000000000000000D+00 0.000000000000000D+00 0.000000000000000D+00 0.000000000000000D+00
 0.144908514569521D+03 0.000000000000000D+00 0.000000000000000D+00 0.144908514569521D+03
 0.144908514569521D+03 -.000000000000000D+00 -.000000000000000D+00 -.144908514569521D+03
 0.138776792618020D+03 -.210332035124129D+02 0.168957965169101D+02 0.539085761211479D+02
 0.100949156031772D+03 0.189611081417007D+02 -.358299056294341D+02 -.152372897902390D+02
 0.443006670389784D+02 -.195763425820204D+01 0.157592633510395D+02 -.413565277416048D+02
 0.579041345027121D+01 0.402972962891423D+01 0.317484576148452D+01 0.268524141069593D+01
-.181974324713D-04 0.000000000000D+00 0.000000000000D+00 0.191910535064D-05 0.000000000000D+00  6 3 21 25 23 3 21 4 0.10101925D-01 0.49199079D-01 0.15564698D+05 0.15564698D+05 0.15564698D+05 0.12459970D+01  1  2  8  3  6  5        3 -.604473606774D-01 0.100000000000D+01
  </mgrwgt>
  </event>
  <event>
  6     66 0.36102257E-03 0.28471182E+02 0.75467711E-02 0.11825193E+00
        1 -1    0    0  502    0 0.00000000E+00 0.00000000E+00 0.20971831E+04 0.20971832E+04 0.32000000E+00 0.0000E+00 0.9000E+01
       21 -1    0    0  503  502 0.00000000E+00 0.00000000E+00 -.54566802E+02 0.54571956E+02 0.75000000E+00 0.0000E+00 0.9000E+01
       25  1    1    2    0    0 -.59695286E+01 0.40216716E+02 0.16242759E+04 0.16295859E+04 0.12500000E+03 0.0000E+00 0.9000E+01
       23  1    1    2    0    0 0.36175408E+02 -.17973419E+02 0.31170311E+03 0.32727020E+03 0.91188000E+02 0.0000E+00 0.9000E+01
        1  1    1    2  501    0 0.17138469E+02 -.44508119E+02 0.12934643E+03 0.13785971E+03 0.32000000E+00 0.0000E+00 0.9000E+01
       21  1    1    2  503  501 -.47344348E+02 0.22264822E+02 -.22709143E+02 0.57039261E+02 0.75000000E+00 0.0000E+00 0.9000E+01
#aMCatNLO 2  0  0  2  2 0.13481967D+02 0.00000000D+00  -5  6  0 0.00000000D+00 0.00000000D+00 0.00000000D+00 0.00000000D+00 0.00000000D+00
  <mgrwgt>
 0.2627994038D+00    1    2    0
 0.172864097352546D+03 0.000000000000000D+00 0.000000000000000D+00 0.172864097352546D+03
 0.172864097352546D+03 0.000000000000000D+00 0.000000000000000D+00 -.172864097352546D+03
 0.173660058333386D+03 -.292536505801967D+02 0.511669212525073D+02 0.105161713363878D+03
 0.114705072901698D+03 0.202329481090293D+02 -.104759049690435D+02 -.657486549769702D+02
 0.573630634700090D+02 0.902070247116731D+01 -.406910162834637D+02 -.394130583869083D+02
 0.000000000000000D+00 -.000000000000000D+00 0.000000000000000D+00 -.000000000000000D+00
 0.176274684523738D+03 0.000000000000000D+00 0.000000000000000D+00 0.176274684523738D+03
 0.649224070133694D+03 0.000000000000000D+00 0.000000000000000D+00 -.649224070133694D+03
 0.168336062810294D+03 -.596956112746274D+01 0.402170166072790D+02 0.105161713363878D+03
 0.119456385908038D+03 0.361753404820059D+02 -.179731994909219D+02 -.657486549769702D+02
 0.618719535288556D+02 0.171385688154275D+02 -.445086387235768D+02 -.394130583869083D+02
 0.475834352410243D+03 -.473443481699706D+02 0.222648216072198D+02 -.472949385609956D+03
0.317930845399D-03 0.000000000000D+00 0.000000000000D+00 0.319657512620D-06 0.225078952484D-07  6 1 21 25 23 1 21 4 0.32264342D+00 0.83952770D-02 0.27422203D+05 0.27422203D+05 0.27422203D+05 0.12190150D+01  1  2  1  2  6  2       21 0.262799403792D+00 0.100000000000D+01
  </mgrwgt>
  </event>
  <event>
  5     66 0.36102257E-03 0.92909129E+02 0.75467711E-02 0.11767767E+00
        3 -1    0    0  502    0 0.00000000E+00 0.00000000E+00 0.18745945E+03 0.18746012E+03 0.50000000E+00 0.0000E+00 0.9000E+01
       21 -1    0    0  501  502 0.00000000E+00 0.00000000E+00 -.26878280E+03 0.26878385E+03 0.75000000E+00 0.0000E+00 0.9000E+01
       25  1    1    2    0    0 0.25639608E+02 -.37742058E+02 0.54364862E+02 0.14374419E+03 0.12500000E+03 0.0000E+00 0.9000E+01
       23  1    1    2    0    0 0.59962338E+02 0.16260539E+01 0.37957658E+02 0.11556021E+03 0.91188000E+02 0.0000E+00 0.9000E+01
        3  1    1    2  501    0 -.85601946E+02 0.36116005E+02 -.17364587E+03 0.19693957E+03 0.50000000E+00 0.0000E+00 0.9000E+01
#aMCatNLO 1  0  0  2  2 0.69203521D+01 0.00000000D+00  -5  6  0 0.00000000D+00 0.00000000D+00 0.00000000D+00 0.00000000D+00 0.00000000D+00
  <mgrwgt>
 0.5996963494D-02   13    2    0
 0.224468855833786D+03 0.000000000000000D+00 0.000000000000000D+00 0.224468855833786D+03
 0.224468855833786D+03 0.000000000000000D+00 0.000000000000000D+00 -.224468855833786D+03
 0.155931688303239D+03 0.256397390014707D+02 -.377421135734427D+02 0.812885481728165D+02
 0.124316910563446D+03 0.599624420738108D+02 0.162601000534418D+01 0.595088610212565D+02
 0.168689112800886D+03 -.856021810752815D+02 0.361161035680985D+02 -.140797409194073D+03
 0.000000000000000D+00 -.000000000000000D+00 -.000000000000000D+00 0.000000000000000D+00
 0.303313240601986D+03 0.000000000000000D+00 0.000000000000000D+00 0.303313240601986D+03
 0.224647428634503D+03 0.000000000000000D+00 0.000000000000000D+00 -.224647428634503D+03
 0.155595986543343D+03 0.266760044791103D+02 -.355763088217762D+02 0.812885481728165D+02
 0.124753231639293D+03 0.607909488509458D+02 0.335759708744395D+01 0.595088610212565D+02
 0.168641828755645D+03 -.844800836261645D+02 0.384612979604331D+02 -.140797409194073D+03
 0.789696222982086D+02 -.298686970389160D+01 -.624258622610078D+01 0.786658119674831D+02
0.115044473410D-04 0.000000000000D+00 0.000000000000D+00 0.738409283735D-06 0.000000000000D+00  6 3 21 25 23 3 21 2 0.28840048D-01 0.41351332D-01 0.28077148D+05 0.28077148D+05 0.28077148D+05 0.12179294D+01  1  2  2  2  6  2       21 0.546732640503D-02 0.100000000000D+01
-.837660060468D-07 0.607106365488D-06 -.232241646032D-07 0.738409283735D-06 0.000000000000D+00  6 3 21 25 23 3 21 4 0.28840048D-01 0.41351332D-01 0.28077148D+05 0.28077148D+05 0.28077148D+05 0.12179294D+01  1  2  3  2  6  2       21 -.590501847214D-04 0.100000000000D+01
0.979398658149D-06 0.000000000000D+00 0.000000000000D+00 0.738409283735D-06 0.000000000000D+00  6 3 21 25 23 3 21 4 0.28840048D-01 0.41351332D-01 0.28077148D+05 0.28077148D+05 0.28077148D+05 0.12179294D+01  1  2 15  2  6  2       21 0.690419352778D-03 0.100000000000D+01
-.153847368236D-06 0.000000000000D+00 0.000000000000D+00 0.738409283735D-06 0.000000000000D+00  6 3 21 25 23 3 21 4 0.28840048D-01 0.41351332D-01 0.28077148D+05 0.28077148D+05 0.28077148D+05 0.12179294D+01  1  2  4  2  6  2       21 -.108453487781D-03 0.100000000000D+01
0.806840288108D-08 0.000000000000D+00 0.000000000000D+00 0.738409283735D-06 0.126694988248D-06  6 3 21 25 23 3 21 4 0.38970076D-01 0.41384228D-01 0.29251667D+05 0.29251667D+05 0.29251667D+05 0.12160515D+01  1  2 11  2  6  2       21 0.319875830080D-05 0.100000000000D+01
0.111495317545D-07 0.000000000000D+00 0.000000000000D+00 0.736133988781D-06 0.691574579947D-10  6 3 -3 25 23 3 -3 4 0.38970076D-01 0.41384228D-01 0.29251667D+05 0.29251667D+05 0.29251667D+05 0.12160515D+01  1  2 11  5  6  2       21 0.222969277940D-06 0.100000000000D+01
0.429144254966D-09 0.000000000000D+00 0.000000000000D+00 0.736133988781D-06 0.336866477687D-08  6 3 3 25 23 3 3 4 0.38970076D-01 0.41384228D-01 0.29251667D+05 0.29251667D+05 0.29251667D+05 0.12160515D+01  1  2 11  6  6  2       21 0.858402406220D-08 0.100000000000D+01
0.135046559333D-07 0.000000000000D+00 0.000000000000D+00 0.736133988781D-06 0.345982575596D-10  6 3 -2 25 23 3 -2 4 0.38970076D-01 0.41384228D-01 0.29251667D+05 0.29251667D+05 0.29251667D+05 0.12160515D+01  1  2 11  7  6  2       21 0.426497279011D-06 0.100000000000D+01
0.135046559333D-07 0.000000000000D+00 0.000000000000D+00 0.736133988781D-06 0.345982575596D-10  6 3 -4 25 23 3 -4 4 0.38970076D-01 0.41384228D-01 0.29251667D+05 0.29251667D+05 0.29251667D+05 0.12160515D+01  1  2 11  7  6  2       21 0.224523372930D-06 0.100000000000D+01
0.161190220520D-07 0.000000000000D+00 0.000000000000D+00 0.736133988781D-06 0.412961336680D-10  6 3 2 25 23 3 2 4 0.38970076D-01 0.41384228D-01 0.29251667D+05 0.29251667D+05 0.29251667D+05 0.12160515D+01  1  2 11  8  6  2       21 0.172097954800D-05 0.100000000000D+01
0.161190220520D-07 0.000000000000D+00 0.000000000000D+00 0.736133988781D-06 0.412961336680D-10  6 3 4 25 23 3 4 4 0.38970076D-01 0.41384228D-01 0.29251667D+05 0.29251667D+05 0.29251667D+05 0.12160515D+01  1  2 11  8  6  2       21 0.267988848980D-06 0.100000000000D+01
0.872584694642D-08 0.000000000000D+00 0.000000000000D+00 0.736133988781D-06 0.223551863571D-10  6 3 -1 25 23 3 -1 4 0.38970076D-01 0.41384228D-01 0.29251667D+05 0.29251667D+05 0.29251667D+05 0.12160515D+01  1  2 11  9  6  2       21 0.327210688399D-06 0.100000000000D+01
0.420961400193D-08 0.000000000000D+00 0.000000000000D+00 0.736133988781D-06 0.107848219299D-10  6 3 1 25 23 3 1 4 0.38970076D-01 0.41384228D-01 0.29251667D+05 0.29251667D+05 0.29251667D+05 0.12160515D+01  1  2 11 10  6  2       21 0.323897319153D-06 0.100000000000D+01
  </mgrwgt>
  </event>
  <event>
  5     66 0.36102257E-03 0.28059547E+02 0.75467711E-02 0.12111487E+00
        1 -1    0    0  502    0 0.00000000E+00 0.00000000E+00 0.39563602E+03 0.39563615E+03 0.32000000E+00 0.0000E+00 0.9000E+01
       21 -1    0    0  501  502 0.00000000E+00 0.00000000E+00 -.69725197E+02 0.69729231E+02 0.75000000E+00 0.0000E+00 0.9000E+01
       25  1    1    2    0    0 -.58393707E+01 0.16870924E+02 0.30364625E+03 0.32885372E+03 0.12500000E+03 0.0000E+00 0.9000E+01
       23  1    1    2    0    0 -.99840619E+01 0.63011259E+01 0.43111616E+02 0.10155417E+03 0.91188000E+02 0.0000E+00 0.9000E+01
        1  1    1    2  501    0 0.15823433E+02 -.23172050E+02 -.20847040E+02 0.34957495E+02 0.32000000E+00 0.0000E+00 0.9000E+01
#aMCatNLO 1  0  0  2  1 0.11546815D+03 0.00000000D+00  -5  6  0 0.00000000D+00 0.00000000D+00 0.00000000D+00 0.00000000D+00 0.00000000D+00
  <mgrwgt>
 0.6192862195D-01    4    2    0
 0.166092649884225D+03 0.000000000000000D+00 0.000000000000000D+00 0.166092649884225D+03
 0.166092649884225D+03 0.000000000000000D+00 0.000000000000000D+00 -.166092649884225D+03
 0.162787496593775D+03 -.583945310616826D+01 0.168710449002864D+02 0.102742579676889D+03
 0.999719955778455D+02 -.998411250153210D+01 0.630119997505192D+01 -.392397876172630D+02
 0.694258075968289D+02 0.158235656077004D+02 -.231722448753384D+02 -.635027920596257D+02
 0.000000000000000D+00 0.000000000000000D+00 0.000000000000000D+00 0.000000000000000D+00
 0.210046691726252D+03 0.000000000000000D+00 0.000000000000000D+00 0.210046691726252D+03
 0.173769219646534D+03 0.000000000000000D+00 0.000000000000000D+00 -.173769219646534D+03
 0.163021471151910D+03 -.188396366409995D+02 0.632696365615197D+01 0.102742579676889D+03
 0.100891073737794D+03 -.179987990969946D+02 -.199285682124606D+00 -.392397876172630D+02
 0.700309741632407D+02 0.102590663534228D+02 -.276854528668123D+02 -.635027920596257D+02
 0.498723923198417D+02 0.265793693845713D+02 0.215577748927849D+02 0.362774720797182D+02
0.796939857156D-05 0.000000000000D+00 0.000000000000D+00 0.118366703263D-05 0.000000000000D+00  6 1 21 25 23 1 21 2 0.60867400D-01 0.10727274D-01 0.15163108D+05 0.15163108D+05 0.15163108D+05 0.12472874D+01  1  2  2  2  6  2       21 0.598625116359D-01 0.100000000000D+01
0.633251616301D-06 0.420556716765D-06 -.160879196305D-07 0.118366703263D-05 0.000000000000D+00  6 1 21 25 23 1 21 4 0.60867400D-01 0.10727274D-01 0.15163108D+05 0.15163108D+05 0.15163108D+05 0.12472874D+01  1  2  3  2  6  2       21 0.740012037390D-02 0.100000000000D+01
0.545827113457D-06 0.000000000000D+00 0.000000000000D+00 0.118366703263D-05 0.000000000000D+00  6 1 21 25 23 1 21 4 0.60867400D-01 0.10727274D-01 0.15163108D+05 0.15163108D+05 0.15163108D+05 0.12472874D+01  1  2 15  2  6  2       21 0.637848564290D-02 0.100000000000D+01
-.100227516009D-05 0.000000000000D+00 0.000000000000D+00 0.118366703263D-05 0.000000000000D+00  6 1 21 25 23 1 21 4 0.60867400D-01 0.10727274D-01 0.15163108D+05 0.15163108D+05 0.15163108D+05 0.12472874D+01  1  2  4  2  6  2       21 -.117124956992D-01 0.100000000000D+01
  </mgrwgt>
  </event>
  <event>
  6     66 0.36102257E-03 0.31860050E+02 0.75467711E-02 0.12043491E+00
        1 -1    0    0  502    0 0.00000000E+00 0.00000000E+00 0.48298652E+03 0.48298663E+03 0.32000000E+00 0.0000E+00 0.9000E+01
       21 -1    0    0  501  502 0.00000000E+00 0.00000000E+00 -.17784029E+03 0.17784187E+03 0.75000000E+00 0.0000E+00 0.9000E+01
       25  1    1    2    0    0 0.40872287E+02 0.11669341E+02 0.36711998E+03 0.39013946E+03 0.12500000E+03 0.0000E+00 0.9000E+01
       23  1    1    2    0    0 -.39104585E+02 -.38129638E+02 0.69727698E+02 0.12712294E+03 0.91188000E+02 0.0000E+00 0.9000E+01
        1  1    1    2  503    0 -.12874296E+02 0.37546204E+02 -.10861894E+03 0.11564446E+03 0.32000000E+00 0.0000E+00 0.9000E+01
       21  1    1    2  501  503 0.11106594E+02 -.11085908E+02 -.23082504E+02 0.27921645E+02 0.75000000E+00 0.0000E+00 0.9000E+01
#aMCatNLO 2  0  0  5  2 0.19523731D+02 0.00000000D+00  -5  6  0 0.00000000D+00 0.00000000D+00 0.00000000D+00 0.00000000D+00 0.00000000D+00
  <mgrwgt>
 0.6300352298D-01    1    2    0
 0.293078522010951D+03 0.000000000000000D+00 0.000000000000000D+00 0.293078522010951D+03
 0.293078522010951D+03 -.000000000000000D+00 -.000000000000000D+00 -.293078522010951D+03
 0.250743258202941D+03 0.408912401105636D+02 0.113856395945785D+02 0.213179396817491D+03
 0.107182407236330D+03 -.390964566943549D+02 -.382513057617828D+02 0.134581484030885D+02
 0.228231378582632D+03 -.179478341620873D+01 0.268656661672041D+02 -.226637545220579D+03
 0.000000000000000D+00 0.000000000000000D+00 0.000000000000000D+00 -.000000000000000D+00
 0.293078522010951D+03 0.000000000000000D+00 0.000000000000000D+00 0.293078522010951D+03
 0.293078522010951D+03 -.000000000000000D+00 -.000000000000000D+00 -.293078522010951D+03
 0.248718312159093D+03 0.408722550949461D+02 0.116698215672625D+02 0.210782050543470D+03
 0.107017661270295D+03 -.391045986453821D+02 -.381294309236984D+02 0.124300177788302D+02
 0.186827274435774D+03 -.129007805555616D+02 0.375718458567211D+02 -.182555078628550D+03
 0.435937961567415D+02 0.111331241059976D+02 -.111122365002853D+02 -.406569896937503D+02
0.408011680286D-04 0.000000000000D+00 0.000000000000D+00 0.737740886623D-05 0.123585698880D-06  6 1 21 25 23 1 21 4 0.74305749D-01 0.27360174D-01 0.21576295D+05 0.21576295D+05 0.21576295D+05 0.12302153D+01  1  2  1  3  6  5        1 0.630035229814D-01 0.100000000000D+01
  </mgrwgt>
  </event>
  <event>
  5     66 0.36102257E-03 0.60754529E+02 0.75467711E-02 0.12028164E+00
        1 -1    0    0  502    0 0.00000000E+00 0.00000000E+00 0.34587388E+02 0.34588868E+02 0.32000000E+00 0.0000E+00 0.9000E+01
       21 -1    0    0  501  502 -.00000000E+00 -.00000000E+00 -.65291694E+03 0.65291738E+03 0.75000000E+00 0.0000E+00 0.9000E+01
       25  1    1    2    0    0 -.55773902E+02 0.12527859E+02 -.24316491E+03 0.27932392E+03 0.12500000E+03 0.0000E+00 0.9000E+01
       23  1    1    2    0    0 -.13526266E+01 -.33206395E+02 -.19081934E+03 0.21408355E+03 0.91188000E+02 0.0000E+00 0.9000E+01
        1  1    1    2  501    0 0.57126528E+02 0.20678536E+02 -.18434530E+03 0.19409878E+03 0.32000000E+00 0.0000E+00 0.9000E+01
#aMCatNLO 1  0  0  5  2 0.10354854D+02 0.00000000D+00  -5  6  0 0.00000000D+00 0.00000000D+00 0.00000000D+00 0.00000000D+00 0.00000000D+00
  <mgrwgt>
 0.1323181786D-01    7    2    0
 0.150277571567030D+03 0.000000000000000D+00 0.000000000000000D+00 0.150277571567030D+03
 0.150277571567030D+03 -.000000000000000D+00 -.000000000000000D+00 -.150277571567030D+03
 0.138679790769300D+03 -.557742237014768D+02 0.125277423719012D+02 0.184221608227046D+02
 0.971354175249985D+02 -.135285218049902D+01 -.332064763441392D+02 0.394179065142057D+01
 0.647399348397621D+02 0.571270758819758D+02 0.206787339722379D+02 -.223639514741252D+02
 0.000000000000000D+00 0.000000000000000D+00 0.000000000000000D+00 0.000000000000000D+00
 0.150277571567030D+03 0.000000000000000D+00 0.000000000000000D+00 0.150277571567030D+03
 0.150277571567030D+03 -.000000000000000D+00 -.000000000000000D+00 -.150277571567030D+03
 0.137407105773677D+03 -.526621470433075D+02 0.136542450735002D+02 0.172038535613485D+02
 0.968308005198573D+02 0.833552705821984D+00 -.324150462857682D+02 0.308586284441197D+01
 0.114256302314015D+02 0.361604686391547D+00 0.110649355971821D+02 -.282514928202187D+01
 0.548916066091242D+02 0.514669896510940D+02 0.769586561508599D+01 -.174645671237386D+02
0.822173949424D-05 0.000000000000D+00 0.000000000000D+00 0.330895191313D-06 0.000000000000D+00  6 1 21 25 23 1 21 2 0.53212836D-02 0.10044891D+00 0.21794718D+05 0.21794718D+05 0.21794718D+05 0.12297383D+01  1  2  2  3  6  5        1 0.163382928848D-01 0.100000000000D+01
-.317763959336D-06 0.433873113101D-06 -.165973232507D-07 0.330895191313D-06 0.000000000000D+00  6 1 21 25 23 1 21 4 0.53212836D-02 0.10044891D+00 0.21794718D+05 0.21794718D+05 0.21794718D+05 0.12297383D+01  1  2  3  3  6  5        1 -.954933281065D-03 0.100000000000D+01
0.799259101194D-06 0.000000000000D+00 0.000000000000D+00 0.330895191313D-06 0.000000000000D+00  6 1 21 25 23 1 21 4 0.53212836D-02 0.10044891D+00 0.21794718D+05 0.21794718D+05 0.21794718D+05 0.12297383D+01  1  2 15  3  6  5        1 0.240190585968D-02 0.100000000000D+01
0.148382005530D-05 0.000000000000D+00 0.000000000000D+00 0.330730480615D-06 0.000000000000D+00  6 1 21 25 23 1 21 4 0.53212836D-02 0.10044891D+00 0.21936203D+05 0.21936203D+05 0.21936203D+05 0.12294322D+01  1  2 12  3  6  5        1 0.445443959601D-02 0.100000000000D+01
-.449427107988D-05 0.000000000000D+00 0.000000000000D+00 0.330895191313D-06 0.000000000000D+00  6 1 21 25 23 1 21 4 0.53212836D-02 0.10044891D+00 0.21794718D+05 0.21794718D+05 0.21794718D+05 0.12297383D+01  1  2  4  3  6  5        1 -.135060283025D-01 0.100000000000D+01
-.124562372123D-05 0.000000000000D+00 0.000000000000D+00 0.330895191313D-06 0.000000000000D+00  6 1 21 25 23 1 21 4 0.53212836D-02 0.10044891D+00 0.21794718D+05 0.21794718D+05 0.21794718D+05 0.12297383D+01  1  2  5  3  6  5        1 -.374330540686D-02 0.100000000000D+01
0.274242685226D-05 0.000000000000D+00 -.000000000000D+00 0.330895191313D-06 0.000000000000D+00  6 1 21 25 23 1 21 4 0.53212836D-02 0.10044891D+00 0.21794718D+05 0.21794718D+05 0.21794718D+05 0.12297383D+01  1  2  6  3  6  5        1 0.824144650509D-02 0.100000000000D+01
  </mgrwgt>
  </event>
  <event>
  6     66 -.36102257E-03 0.92677155E+01 0.75467711E-02 0.11962571E+00
        1 -1    0    0  502    0 0.00000000E+00 0.00000000E+00 0.20998615E+04 0.20998615E+04 0.32000000E+00 0.0000E+00 0.9000E+01
       21 -1    0    0  501  503 0.00000000E+00 0.00000000E+00 -.44396348E+02 0.44402683E+02 0.75000000E+00 0.0000E+00 0.9000E+01
       25  1    1    2    0    0 0.57446158E+02 -.88821727E+02 0.95344230E+03 0.96740197E+03 0.12500000E+03 0.0000E+00 0.9000E+01
       23  1    1    2    0    0 -.27488377E+02 0.73214920E+02 0.11236430E+04 0.11300464E+04 0.91188000E+02 0.0000E+00 0.9000E+01
        1  1    1    2  501    0 -.17810411E+02 0.20140526E+01 -.22233485E+02 0.28560417E+02 0.32000000E+00 0.0000E+00 0.9000E+01
       21  1    1    2  502  503 -.12147371E+02 0.13592754E+02 0.61334398E+00 0.18255418E+02 0.75000000E+00 0.0000E+00 0.9000E+01
#aMCatNLO 2  0  0  2  1 0.18229690D+02 0.00000000D+00  -5  6  0 0.00000000D+00 0.00000000D+00 0.00000000D+00 0.00000000D+00 0.00000000D+00
  <mgrwgt>
 -.5694375933D+00    1    2    0
 0.272564257390713D+03 0.000000000000000D+00 0.000000000000000D+00 0.272564257390713D+03
 0.272564257390713D+03 0.000000000000000D+00 0.000000000000000D+00 -.272564257390713D+03
 0.175403290897250D+03 0.535008467330888D+02 -.844069658934330D+02 0.717944145814461D+02
 0.174083488136424D+03 -.313382453870245D+02 0.775228824456040D+02 0.122466022108715D+03
 0.195641735747752D+03 -.221626013460644D+02 0.688408344782904D+01 -.194260436690161D+03
 0.000000000000000D+00 -.000000000000000D+00 0.000000000000000D+00 -.000000000000000D+00
 0.273945391285631D+03 0.000000000000000D+00 0.000000000000000D+00 0.273945391285631D+03
 0.340329197203338D+03 0.000000000000000D+00 0.000000000000000D+00 -.340329197203338D+03
 0.178798210636774D+03 0.574461684741494D+02 -.888217309528426D+02 0.717944145814461D+02
 0.171549445028810D+03 -.274883658135683D+02 0.732149159629363D+02 0.122466022108715D+03
 0.195085584256736D+03 -.178104317935252D+02 0.201406084024032D+01 -.194260436690161D+03
 0.688413485666492D+02 -.121473708670560D+02 0.135927541496660D+02 -.663838059177073D+02
-.471713250453D-03 0.000000000000D+00 0.000000000000D+00 0.727832093155D-05 0.000000000000D+00  6 1 21 25 23 1 21 4 0.32142498D+00 0.68421920D-02 0.25605574D+05 0.25605574D+05 0.25605574D+05 0.12221848D+01  1  2 13  2  6  2       21 -.569437593304D+00 0.100000000000D+01
  </mgrwgt>
  </event>
  <event>
  6     66 -.36102257E-03 0.23687237E+02 0.75467711E-02 0.11652653E+00
        1 -1    0    0  503    0 0.00000000E+00 0.00000000E+00 0.11711038E+04 0.11711039E+04 0.32000000E+00 0.0000E+00 0.9000E+01
       21 -1    0    0  501  502 0.00000000E+00 0.00000000E+00 -.84003628E+02 0.84006976E+02 0.75000000E+00 0.0000E+00 0.9000E+01
       25  1    1    2    0    0 -.94695636E+02 0.17880230E+02 0.10414957E+03 0.18910077E+03 0.12500000E+03 0.0000E+00 0.9000E+01
       23  1    1    2    0    0 0.97954669E+02 -.28409296E+02 0.42904307E+03 0.45032812E+03 0.91188000E+02 0.0000E+00 0.9000E+01
        1  1    1    2  501    0 -.32062342E+02 0.22796485E+02 -.17754742E+02 0.43162562E+02 0.32000000E+00 0.0000E+00 0.9000E+01
       21  1    1    2  503  502 0.28803309E+02 -.12267419E+02 0.57166228E+03 0.57251938E+03 0.75000000E+00 0.0000E+00 0.9000E+01
#aMCatNLO 2  0  0  1  2 0.31306871D+02 0.00000000D+00  -5  6  0 0.00000000D+00 0.00000000D+00 0.00000000D+00 0.00000000D+00 0.00000000D+00
  <mgrwgt>
 -.7660694810D-01    2    2    0
 0.223200991842976D+03 0.000000000000000D+00 0.000000000000000D+00 0.223200991842976D+03
 0.223200991842976D+03 0.000000000000000D+00 0.000000000000000D+00 -.223200991842976D+03
 0.162295391448597D+03 -.840371984644866D+02 0.133407445732973D+02 -.589454654229138D+02
 0.200301731872769D+03 0.110618944556899D+03 -.338030803164302D+02 0.135743630839423D+03
 0.838048603645852D+02 -.265817460924122D+02 0.204623357431329D+02 -.767981654165089D+02
 0.000000000000000D+00 0.000000000000000D+00 -.000000000000000D+00 0.000000000000000D+00
 0.437440340242094D+03 0.000000000000000D+00 0.000000000000000D+00 0.437440340242094D+03
 0.224895873784754D+03 0.000000000000000D+00 0.000000000000000D+00 -.224895873784754D+03
 0.168482987663323D+03 -.946955577174143D+02 0.178801730031766D+02 -.589454654229138D+02
 0.192727288248274D+03 0.979547417014308D+02 -.284093568436473D+02 0.135743630839423D+03
 0.862881611922112D+02 -.320624928541432D+02 0.227966028734453D+02 -.767981654165089D+02
 0.214837776923040D+03 0.288033088701267D+02 -.122674190329746D+02 0.212544466457340D+03
-.110196502506D-03 0.000000000000D+00 0.000000000000D+00 0.470625154905D-06 0.000000000000D+00  6 1 21 25 23 1 21 4 0.18018972D+00 0.12826461D-01 0.33360029D+05 0.33360029D+05 0.33360029D+05 0.12100891D+01  1  2 13  1  6  1        1 -.167198069245D+00 0.100000000000D+01
0.605106390501D-04 0.000000000000D+00 0.000000000000D+00 0.477407592271D-06 0.331175697491D-08  6 1 21 25 23 1 21 4 0.18016956D+00 0.12923859D-01 0.33360029D+05 0.33360029D+05 0.33360029D+05 0.12100891D+01  1  2  1  1  6  1        1 0.905911211474D-01 0.100000000000D+01
  </mgrwgt>
  </event>
  <event>
  6     66 -.36102257E-03 0.29942504E+02 0.75467711E-02 0.12033388E+00
        3 -1    0    0  503    0 0.00000000E+00 0.00000000E+00 0.10658427E+03 0.10658545E+03 0.50000000E+00 0.0000E+00 0.9000E+01
       21 -1    0    0  501  502 0.00000000E+00 0.00000000E+00 -.21018087E+03 0.21018221E+03 0.75000000E+00 0.0000E+00 0.9000E+01
       25  1    1    2    0    0 -.17420716E+02 0.54002386E+02 -.54315936E+02 0.14763116E+03 0.12500000E+03 0.0000E+00 0.9000E+01
       23  1    1    2    0    0 0.26524522E+02 -.83900889E+02 -.53186925E+02 0.13743002E+03 0.91188000E+02 0.0000E+00 0.9000E+01
        3  1    1    2  501    0 -.69803568E+01 0.18235259E+02 0.15249140E+01 0.19591463E+02 0.50000000E+00 0.0000E+00 0.9000E+01
       21  1    1    2  503  502 -.21234493E+01 0.11663244E+02 0.23813484E+01 0.12115016E+02 0.75000000E+00 0.0000E+00 0.9000E+01
#aMCatNLO 2  0  0  1  2 0.11854969D+02 0.00000000D+00  -5  6  0 0.00000000D+00 0.00000000D+00 0.00000000D+00 0.00000000D+00 0.00000000D+00
  <mgrwgt>
 -.6984836140D-01    3    2    0
 0.142689669222984D+03 0.000000000000000D+00 0.000000000000000D+00 0.142689669222984D+03
 0.142689669222984D+03 0.000000000000000D+00 0.000000000000000D+00 -.142689669222984D+03
 0.139766437445164D+03 -.184502381778787D+02 0.596596125800438D+02 -.315853986701113D+01
 0.123335262143880D+03 0.255949159462127D+02 -.787927493989906D+02 -.573920412198156D+01
 0.222776388569237D+02 -.714467776833392D+01 0.191331368189468D+02 0.889774398899269D+01
 0.000000000000000D+00 -.000000000000000D+00 0.000000000000000D+00 0.000000000000000D+00
 0.153222551309913D+03 0.000000000000000D+00 0.000000000000000D+00 0.153222551309913D+03
 0.146187919176486D+03 0.000000000000000D+00 0.000000000000000D+00 -.146187919176486D+03
 0.137311451386000D+03 -.174198425759493D+02 0.540000684468779D+02 -.315853986701113D+01
 0.126852281982244D+03 0.265253118944876D+02 -.839030360895788D+02 -.573920412198156D+01
 0.214617331053169D+02 -.698202005251556D+01 0.182397241145931D+02 0.889774398899269D+01
 0.137850040128378D+02 -.212344926602278D+01 0.116632435281078D+02 0.703463213342624D+01
-.209793098949D-04 0.000000000000D+00 0.000000000000D+00 0.362657654570D-06 0.000000000000D+00  6 3 21 25 23 3 21 4 0.16574195D-01 0.31559749D-01 0.21812759D+05 0.21812759D+05 0.21812759D+05 0.12296992D+01  1  2 13  1  6  1        3 -.702996985380D-01 0.100000000000D+01
-.200177737348D-08 0.000000000000D+00 0.000000000000D+00 0.364993316136D-06 0.000000000000D+00  6 3 21 25 23 3 21 4 0.15269500D-01 0.31559749D-01 0.20072656D+05 0.20072656D+05 0.20072656D+05 0.12336527D+01  1  2  8  1  6  1        3 -.780545243627D-05 0.100000000000D+01
0.140997103804D-06 0.000000000000D+00 0.000000000000D+00 0.364993316136D-06 0.286853363843D-06  6 3 21 25 23 3 21 4 0.16396644D-01 0.32333484D-01 0.21812759D+05 0.21812759D+05 0.21812759D+05 0.12296992D+01  1  2  1  1  6  1        3 0.459142595389D-03 0.100000000000D+01
  </mgrwgt>
  </event>
  <event>
  5     66 -.36102257E-03 0.72579133E+02 0.75467711E-02 0.11231426E+00
        1 -1    0    0  502    0 0.00000000E+00 0.00000000E+00 0.19319901E+03 0.19319927E+03 0.32000000E+00 0.0000E+00 0.9000E+01
       21 -1    0    0  501  502 0.00000000E+00 0.00000000E+00 -.14719067E+03 0.14719258E+03 0.75000000E+00 0.0000E+00 0.9000E+01
       25  1    1    2    0    0 -.58671397E+02 -.57417973E+02 0.32404062E+02 0.15301693E+03 0.12500000E+03 0.0000E+00 0.9000E+01
       23  1    1    2    0    0 0.60039344E+02 -.15147738E+02 -.10920464E+02 0.11076409E+03 0.91188000E+02 0.0000E+00 0.9000E+01
        1  1    1    2  501    0 -.13679464E+01 0.72565711E+02 0.24524740E+02 0.76610828E+02 0.32000000E+00 0.0000E+00 0.9000E+01
#aMCatNLO 1  0  0  2  1 0.11759218D+03 0.00000000D+00  -5  6  0 0.00000000D+00 0.00000000D+00 0.00000000D+00 0.00000000D+00 0.00000000D+00
  <mgrwgt>
 -.2146358985D-01   12    2    0
 0.168634103324176D+03 0.000000000000000D+00 0.000000000000000D+00 0.168634103324176D+03
 0.168634103324176D+03 0.000000000000000D+00 0.000000000000000D+00 -.168634103324176D+03
 0.150013825637253D+03 -.586713916629523D+02 -.574182748146962D+02 0.118303592490072D+02
 0.113279701569345D+03 0.600393480614735D+02 -.151479658595788D+02 -.261314993505929D+02
 0.739746794417538D+02 -.136795639852117D+01 0.725662406742749D+02 0.143011401015856D+02
 0.000000000000000D+00 -.000000000000000D+00 0.000000000000000D+00 -.000000000000000D+00
 0.186999672337855D+03 0.000000000000000D+00 0.000000000000000D+00 0.186999672337855D+03
 0.589669254021592D+03 0.000000000000000D+00 0.000000000000000D+00 -.589669254021592D+03
 0.160304888246461D+03 -.238465691521257D+02 -.967679747407298D+02 0.118303592490072D+02
 0.137796069795597D+03 0.882157640601217D+02 -.469854149720102D+02 -.261314993505929D+02
 0.590793368974104D+02 0.135637325266282D+02 0.556944395786386D+02 0.143011401015856D+02
 0.419488631419979D+03 -.779329274346242D+02 0.880589501341014D+02 -.402669581683738D+03
0.210472021602D-05 0.000000000000D+00 0.000000000000D+00 0.154772874873D-06 0.000000000000D+00  6 1 21 25 23 1 21 2 0.29723091D-01 0.22644885D-01 0.27614168D+05 0.27614168D+05 0.27614168D+05 0.12186938D+01  1  2  2  2  6  2       21 0.950103491044D-02 0.100000000000D+01
-.158635542418D-06 0.111069137251D-06 -.424882371936D-08 0.154772874873D-06 0.000000000000D+00  6 1 21 25 23 1 21 4 0.29723091D-01 0.22644885D-01 0.27614168D+05 0.27614168D+05 0.27614168D+05 0.12186938D+01  1  2  3  2  6  2       21 -.106357048107D-02 0.100000000000D+01
0.172785513515D-06 0.000000000000D+00 0.000000000000D+00 0.154772874873D-06 0.000000000000D+00  6 1 21 25 23 1 21 4 0.29723091D-01 0.22644885D-01 0.27614168D+05 0.27614168D+05 0.27614168D+05 0.12186938D+01  1  2 15  2  6  2       21 0.115843882732D-02 0.100000000000D+01
-.457703013723D-04 0.000000000000D+00 -.786680358279D-05 0.154772874873D-06 0.000000000000D+00  6 1 21 25 23 1 21 4 0.29723091D-01 0.84035053D-01 0.27614168D+05 0.27614168D+05 0.27614168D+05 0.12186938D+01  1  2  5  2  6  2       21 -.208637211615D-01 0.100000000000D+01
-.170506683315D-04 0.000000000000D+00 -.303647874286D-05 0.154772874873D-06 0.000000000000D+00  6 1 -1 25 23 1 -1 4 0.29723091D-01 0.84035053D-01 0.27614168D+05 0.27614168D+05 0.27614168D+05 0.12186938D+01  1  2  5  5  6  2       21 -.862109785687D-03 0.100000000000D+01
-.170506683315D-04 0.000000000000D+00 -.303647874286D-05 0.154772874873D-06 0.000000000000D+00  6 1 1 25 23 1 1 4 0.29723091D-01 0.84035053D-01 0.27614168D+05 0.27614168D+05 0.27614168D+05 0.12186938D+01  1  2  5  6  6  2       21 -.277767142847D-02 0.100000000000D+01
-.170506683315D-04 0.000000000000D+00 -.303647874286D-05 0.154772874873D-06 0.000000000000D+00  6 1 -2 25 23 1 -2 4 0.29723091D-01 0.84035053D-01 0.27614168D+05 0.27614168D+05 0.27614168D+05 0.12186938D+01  1  2  5  7  6  2       21 -.653775737206D-03 0.100000000000D+01
-.170506683315D-04 0.000000000000D+00 -.303647874286D-05 0.154772874873D-06 0.000000000000D+00  6 1 -4 25 23 1 -4 4 0.29723091D-01 0.84035053D-01 0.27614168D+05 0.27614168D+05 0.27614168D+05 0.12186938D+01  1  2  5  7  6  2       21 -.332023320997D-03 0.100000000000D+01
-.170506683315D-04 0.000000000000D+00 -.303647874286D-05 0.154772874873D-06 0.000000000000D+00  6 1 2 25 23 1 2 4 0.29723091D-01 0.84035053D-01 0.27614168D+05 0.27614168D+05 0.27614168D+05 0.12186938D+01  1  2  5  8  6  2       21 -.441487084391D-02 0.100000000000D+01
-.170506683315D-04 0.000000000000D+00 -.303647874286D-05 0.154772874873D-06 0.000000000000D+00  6 1 4 25 23 1 4 4 0.29723091D-01 0.84035053D-01 0.27614168D+05 0.27614168D+05 0.27614168D+05 0.12186938D+01  1  2  5  8  6  2       21 -.332023320997D-03 0.100000000000D+01
-.170506683315D-04 0.000000000000D+00 -.303647874286D-05 0.154772874873D-06 0.000000000000D+00  6 1 -3 25 23 1 -3 4 0.29723091D-01 0.84035053D-01 0.27614168D+05 0.27614168D+05 0.27614168D+05 0.12186938D+01  1  2  5  9  6  2       21 -.411358404138D-03 0.100000000000D+01
-.170506683315D-04 0.000000000000D+00 -.303647874286D-05 0.154772874873D-06 0.000000000000D+00  6 1 3 25 23 1 3 4 0.29723091D-01 0.84035053D-01 0.27614168D+05 0.27614168D+05 0.27614168D+05 0.12186938D+01  1  2  5 10  6  2       21 -.411939099693D-03 0.100000000000D+01
  </mgrwgt>
  </event>
  <event>
  5     66 0.36102257E-03 0.10750711E+03 0.75467711E-02 0.11119192E+00
        1 -1    0    0  502    0 0.00000000E+00 0.00000000E+00 0.23462403E+03 0.23462425E+03 0.32000000E+00 0.0000E+00 0.9000E+01
       21 -1    0    0  501  502 0.00000000E+00 0.00000000E+00 -.17031057E+03 0.17031222E+03 0.75000000E+00 0.0000E+00 0.9000E+01
       25  1    1    2    0    0 0.69761913E+01 -.35676911E+02 0.92846413E+02 0.15989673E+03 0.12500000E+03 0.0000E+00 0.9000E+01
       23  1    1    2    0    0 -.13751744E+02 -.71616139E+02 -.62315300E+02 0.13234965E+03 0.91188000E+02 0.0000E+00 0.9000E+01
        1  1    1    2  501    0 0.67755526E+01 0.10729305E+03 0.33782342E+02 0.11269009E+03 0.32000000E+00 0.0000E+00 0.9000E+01
#aMCatNLO 1  0  0  1  1 0.12509977D+03 0.00000000D+00  -5  6  0 0.00000000D+00 0.00000000D+00 0.00000000D+00 0.00000000D+00 0.00000000D+00
  <mgrwgt>
 0.3366413287D-01    7    2    0
 0.199898302301453D+03 0.000000000000000D+00 0.000000000000000D+00 0.199898302301453D+03
 0.199898302301453D+03 0.000000000000000D+00 0.000000000000000D+00 -.199898302301453D+03
 0.147016649512720D+03 0.697618054947650D+01 -.356770815367535D+02 0.683181820008907D+02
 0.144075640743843D+03 -.137517545353627D+02 -.716163068200160D+02 -.844069473231284D+02
 0.108704314346344D+03 0.677557398588624D+01 0.107293388356769D+03 0.160887653222377D+02
 0.000000000000000D+00 -.000000000000000D+00 0.000000000000000D+00 0.000000000000000D+00
 0.277875060083901D+03 0.000000000000000D+00 0.000000000000000D+00 0.277875060083901D+03
 0.266640200801580D+03 0.000000000000000D+00 0.000000000000000D+00 -.266640200801580D+03
 0.163867893352667D+03 0.383636006463898D+02 -.713340495512395D+02 0.683181820008907D+02
 0.164941955096112D+03 0.174471754872424D+02 -.107059144952852D+03 -.844069473231284D+02
 0.901021684377866D+02 0.268474068780001D+02 0.844912370102624D+02 0.160887653222377D+02
 0.125603243998915D+03 -.826581830116323D+02 0.939019574938291D+02 0.112348592823208D+02
0.603809209507D-05 0.000000000000D+00 0.000000000000D+00 0.868703567910D-07 0.000000000000D+00  6 1 21 25 23 1 21 2 0.36096148D-01 0.26201770D-01 0.31408251D+05 0.31408251D+05 0.31408251D+05 0.12128130D+01  1  2  2  1  6  1        1 0.160407595148D-01 0.100000000000D+01
-.577345914672D-06 0.318638873966D-06 -.121891682885D-07 0.868703567910D-07 0.000000000000D+00  6 1 21 25 23 1 21 4 0.36096148D-01 0.26201770D-01 0.31408251D+05 0.31408251D+05 0.31408251D+05 0.12128130D+01  1  2  3  1  6  1        1 -.225605136357D-02 0.100000000000D+01
0.770522798872D-06 0.000000000000D+00 0.000000000000D+00 0.868703567910D-07 0.000000000000D+00  6 1 21 25 23 1 21 4 0.36096148D-01 0.26201770D-01 0.31408251D+05 0.31408251D+05 0.31408251D+05 0.12128130D+01  1  2 15  1  6  1        1 0.301091419698D-02 0.100000000000D+01
-.206039390036D-05 0.000000000000D+00 0.000000000000D+00 0.868703567910D-07 0.000000000000D+00  6 1 21 25 23 1 21 4 0.36096148D-01 0.26201770D-01 0.31408251D+05 0.31408251D+05 0.31408251D+05 0.12128130D+01  1  2  4  1  6  1        1 -.805124683532D-02 0.100000000000D+01
-.661144821952D-05 0.000000000000D+00 -.647370755686D-05 0.868703567910D-07 0.000000000000D+00  6 1 21 25 23 1 21 4 0.65005357D-01 0.26201770D-01 0.31408251D+05 0.31408251D+05 0.31408251D+05 0.12128130D+01  1  2  5  1  6  1        1 -.123474908838D-01 0.100000000000D+01
0.967537153659D-05 0.000000000000D+00 0.549510106845D-05 0.868703567910D-07 0.000000000000D+00  6 1 21 25 23 1 21 4 0.36096148D-01 0.26201770D-01 0.31408251D+05 0.31408251D+05 0.31408251D+05 0.12128130D+01  1  2  6  1  6  1        1 0.378077242662D-01 0.100000000000D+01
-.821051621064D-07 0.000000000000D+00 -.417636694419D-06 0.868703567910D-07 0.000000000000D+00  6 21 21 25 23 1 -1 4 0.65005357D-01 0.26201770D-01 0.31408251D+05 0.31408251D+05 0.31408251D+05 0.12128130D+01  1  2  5  4  6  1        1 -.540476025712D-03 0.100000000000D+01
  </mgrwgt>
  </event>
  <event>
  5     66 0.36102257E-03 0.50030366E+02 0.75467711E-02 0.11195332E+00
        1 -1    0    0  502    0 0.00000000E+00 0.00000000E+00 0.14647400E+04 0.14647400E+04 0.32000000E+00 0.0000E+00 0.9000E+01
       21 -1    0    0  501  502 0.00000000E+00 0.00000000E+00 -.23442816E+02 0.23454810E+02 0.75000000E+00 0.0000E+00 0.9000E+01
       25  1    1    2    0    0 0.68723495E+01 -.93823047E+02 0.42137291E+03 0.44947761E+03 0.12500000E+03 0.0000E+00 0.9000E+01
       23  1    1    2    0    0 -.16372474E+02 0.44703466E+02 0.93115554E+03 0.93682034E+03 0.91188000E+02 0.0000E+00 0.9000E+01
        1  1    1    2  501    0 0.95001244E+01 0.49119581E+02 0.88768696E+02 0.10189686E+03 0.32000000E+00 0.0000E+00 0.9000E+01
#aMCatNLO 1  0  0  2  1 0.93984271D+02 0.00000000D+00  -5  6  0 0.00000000D+00 0.00000000D+00 0.00000000D+00 0.00000000D+00 0.00000000D+00
  <mgrwgt>
 0.6603812020D-01    3    2    0
 0.185328303973844D+03 0.000000000000000D+00 0.000000000000000D+00 0.185328303973844D+03
 0.185328303973844D+03 0.000000000000000D+00 0.000000000000000D+00 -.185328303973844D+03
 0.166155685490059D+03 0.687229612924492D+01 -.938233228676100D+02 -.559702372039242D+02
 0.140559654253366D+03 -.163725189567456D+02 0.447032327919070D+02 0.957879254436036D+02
 0.639412682042641D+02 0.950022282750066D+01 0.491200900757030D+02 -.398176882396794D+02
 0.000000000000000D+00 0.000000000000000D+00 -.000000000000000D+00 0.000000000000000D+00
 0.582983152764148D+03 0.000000000000000D+00 0.000000000000000D+00 0.582983152764148D+03
 0.210019322139301D+03 0.000000000000000D+00 0.000000000000000D+00 -.210019322139301D+03
 0.153920584942907D+03 -.386666067956360D+02 -.586410482121089D+02 -.559702372039242D+02
 0.164920295207314D+03 -.598347279645228D+02 0.782811030574414D+02 0.957879254436036D+02
 0.765785839190930D+02 -.104922617644002D+02 0.645658087641483D+02 -.398176882396794D+02
 0.397583010834135D+03 0.108993596524559D+03 -.842058636094808D+02 0.372963830624847D+03
0.965385115874D-05 0.000000000000D+00 0.000000000000D+00 0.217922646557D-06 0.000000000000D+00  6 1 21 25 23 1 21 2 0.22534553D+00 0.36075124D-02 0.23923231D+05 0.23923231D+05 0.23923231D+05 0.12253529D+01  1  2  2  2  6  2       21 0.582622117850D-01 0.100000000000D+01
-.741079239650D-07 0.509447721932D-06 -.194883440917D-07 0.217922646557D-06 0.000000000000D+00  6 1 21 25 23 1 21 4 0.22534553D+00 0.36075124D-02 0.23923231D+05 0.23923231D+05 0.23923231D+05 0.12253529D+01  1  2  3  2  6  2       21 -.671542299700D-03 0.100000000000D+01
0.932216832507D-06 0.000000000000D+00 0.000000000000D+00 0.217922646557D-06 0.000000000000D+00  6 1 21 25 23 1 21 4 0.22534553D+00 0.36075124D-02 0.23923231D+05 0.23923231D+05 0.23923231D+05 0.12253529D+01  1  2 15  2  6  2       21 0.844745071816D-02 0.100000000000D+01
  </mgrwgt>
  </event>
  <event>
  5     66 -.36102257E-03 0.25758285E+02 0.75467711E-02 0.12160710E+00
        1 -1    0    0  502    0 0.00000000E+00 0.00000000E+00 0.19335372E+03 0.19335398E+03 0.32000000E+00 0.0000E+00 0.9000E+01
       21 -1    0    0  501  502 -.00000000E+00 -.00000000E+00 -.32123294E+03 0.32123382E+03 0.75000000E+00 0.0000E+00 0.9000E+01
       25  1    1    2    0    0 -.31436509E+02 -.42893584E+02 0.10844384E+03 0.17381939E+03 0.12500000E+03 0.0000E+00 0.9000E+01
       23  1    1    2    0    0 0.20109440E+02 0.66027656E+02 -.12024159E+02 0.11499510E+03 0.91188000E+02 0.0000E+00 0.9000E+01
        1  1    1    2  501    0 0.11327070E+02 -.23134072E+02 -.22429890E+03 0.22577331E+03 0.32000000E+00 0.0000E+00 0.9000E+01
#aMCatNLO 1  0  0  5  2 0.12483359D+01 0.00000000D+00  -5  6  0 0.00000000D+00 0.00000000D+00 0.00000000D+00 0.00000000D+00 0.00000000D+00
  <mgrwgt>
 -.5459523232D+00    8    2    0
 0.249222545843623D+03 0.000000000000000D+00 0.000000000000000D+00 0.249222545843623D+03
 0.249222545843623D+03 -.000000000000000D+00 -.000000000000000D+00 -.249222545843623D+03
 0.207270766084343D+03 -.314365171200571D+02 -.428935676959480D+02 0.156550495734967D+03
 0.115634485375291D+03 0.201094352921405D+02 0.660276645670419D+02 0.170892067709937D+02
 0.175539840227613D+03 0.113270818279166D+02 -.231340968710938D+02 -.173639702505961D+03
 0.000000000000000D+00 0.000000000000000D+00 0.000000000000000D+00 -.000000000000000D+00
 0.249222545843623D+03 0.000000000000000D+00 0.000000000000000D+00 0.249222545843623D+03
 0.249222545843623D+03 -.000000000000000D+00 -.000000000000000D+00 -.249222545843623D+03
 0.207263756749368D+03 -.314358972205888D+02 -.428948337602855D+02 0.156540992920305D+03
 0.115633358814049D+03 0.201097811326092D+02 0.660269582326986D+02 0.170839051728410D+02
 0.129996151775676D+03 0.890071006865509D+01 -.182544936506965D+02 -.128399962220847D+03
 0.455518243481545D+02 0.242540601932450D+01 -.487763082171654D+01 -.452249358722993D+02
0.886181769599D-06 0.000000000000D+00 0.000000000000D+00 0.542860508715D-05 0.000000000000D+00  6 1 21 25 23 1 21 2 0.29746814D-01 0.49420540D-01 0.19039206D+05 0.19039206D+05 0.19039206D+05 0.12361869D+01  1  2  2  3  6  5        1 0.889652727321D-03 0.100000000000D+01
0.225856242943D-06 0.467650967802D-07 -.178894567254D-08 0.542860508715D-05 0.000000000000D+00  6 1 21 25 23 1 21 4 0.29746814D-01 0.49420540D-01 0.19039206D+05 0.19039206D+05 0.19039206D+05 0.12361869D+01  1  2  3  3  6  5        1 0.346495876476D-03 0.100000000000D+01
0.945420840598D-07 0.000000000000D+00 0.000000000000D+00 0.542860508715D-05 0.000000000000D+00  6 1 21 25 23 1 21 4 0.29746814D-01 0.49420540D-01 0.19039206D+05 0.19039206D+05 0.19039206D+05 0.12361869D+01  1  2 15  3  6  5        1 0.145041119312D-03 0.100000000000D+01
0.384631795951D-07 0.000000000000D+00 0.000000000000D+00 0.542861169041D-05 0.000000000000D+00  6 1 21 25 23 1 21 4 0.29746814D-01 0.49420540D-01 0.19038908D+05 0.19038908D+05 0.19038908D+05 0.12361876D+01  1  2 12  3  6  5        1 0.590081955705D-04 0.100000000000D+01
-.185829726707D-02 0.000000000000D+00 0.000000000000D+00 0.542860508715D-05 0.000000000000D+00  6 1 21 25 23 1 21 4 0.29746814D-01 0.49420540D-01 0.19039206D+05 0.19039206D+05 0.19039206D+05 0.12361869D+01  1  2  4  3  6  5        1 -.285089458637D+01 0.100000000000D+01
-.732738137951D-03 0.000000000000D+00 0.000000000000D+00 0.542860508715D-05 0.000000000000D+00  6 1 21 25 23 1 21 4 0.29746814D-01 0.49420540D-01 0.19039206D+05 0.19039206D+05 0.19039206D+05 0.12361869D+01  1  2  5  3  6  5        1 -.112412541725D+01 0.100000000000D+01
0.946478123015D-03 0.000000000000D+00 -.000000000000D+00 0.542860508715D-05 0.000000000000D+00  6 1 21 25 23 1 21 4 0.29746814D-01 0.49420540D-01 0.19039206D+05 0.19039206D+05 0.19039206D+05 0.12361869D+01  1  2  6  3  6  5        1 0.145203321602D+01 0.100000000000D+01
0.128774717384D-02 0.000000000000D+00 0.000000000000D+00 0.542860508715D-05 0.289487028616D-04  6 1 21 25 23 1 21 4 0.29746814D-01 0.49420540D-01 0.19038908D+05 0.19038908D+05 0.19038908D+05 0.12361876D+01  1  2 11  3  6  5        1 0.197559426650D+01 0.100000000000D+01
  </mgrwgt>
  </event>
  <event>
  6     66 -.36102257E-03 0.28619123E+02 0.75467711E-02 0.11617946E+00
        1 -1    0    0  502    0 0.00000000E+00 0.00000000E+00 0.53306307E+03 0.53306317E+03 0.32000000E+00 0.0000E+00 0.9000E+01
       21 -1    0    0  501  503 0.00000000E+00 0.00000000E+00 -.73456946E+02 0.73460774E+02 0.75000000E+00 0.0000E+00 0.9000E+01
       25  1    1    2    0    0 0.29019675E+02 0.10969505E+03 0.14803756E+03 0.22453344E+03 0.12500000E+03 0.0000E+00 0.9000E+01
       23  1    1    2    0    0 -.12686027E+02 -.13107032E+03 0.29229479E+03 0.33330445E+03 0.91188000E+02 0.0000E+00 0.9000E+01
        1  1    1    2  501    0 -.26380689E+02 0.20885719E+02 0.18897000E+02 0.38592136E+02 0.32000000E+00 0.0000E+00 0.9000E+01
       21  1    1    2  502  503 0.10047041E+02 0.48955657E+00 0.37677893E+00 0.10093917E+02 0.75000000E+00 0.0000E+00 0.9000E+01
#aMCatNLO 2  0  0  2  1 0.10058961D+02 0.00000000D+00  -5  6  0 0.00000000D+00 0.00000000D+00 0.00000000D+00 0.00000000D+00 0.00000000D+00
  <mgrwgt>
 -.4006773317D-01    3    2    0
 0.190220923748278D+03 0.000000000000000D+00 0.000000000000000D+00 0.190220923748278D+03
 0.190220923748278D+03 0.000000000000000D+00 0.000000000000000D+00 -.190220923748278D+03
 0.174219730057103D+03 0.336074774150483D+02 0.109918214639522D+03 -.389363312784694D+02
 0.169200486534492D+03 -.821213371485909D+01 -.130852693398437D+03 0.558899524935644D+02
 0.370216309049602D+02 -.253953437001892D+02 0.209344787589146D+02 -.169536212150949D+02
 0.000000000000000D+00 0.000000000000000D+00 0.000000000000000D+00 -.000000000000000D+00
 0.192165701835217D+03 0.000000000000000D+00 0.000000000000000D+00 0.192165701835217D+03
 0.203754729226492D+03 0.000000000000000D+00 0.000000000000000D+00 -.203754729226492D+03
 0.173251637037995D+03 0.290201153288045D+02 0.109694688792217D+03 -.389363312784694D+02
 0.169644874742140D+03 -.126856141527295D+02 -.131070670197843D+03 0.558899524935644D+02
 0.376782929788491D+02 -.263815417905087D+02 0.208864248317110D+02 -.169536212150949D+02
 0.153456263027242D+02 0.100470406144337D+02 0.489556573914600D+00 -.115890273912748D+02
-.150276968462D-04 0.000000000000D+00 0.000000000000D+00 0.274294706554D-06 0.000000000000D+00  6 1 21 25 23 1 21 4 0.81176198D-01 0.11352409D-01 0.34726551D+05 0.34726551D+05 0.34726551D+05 0.12082856D+01  1  2 13  2  6  2       21 -.964826456944D-01 0.100000000000D+01
-.963540278819D-06 0.000000000000D+00 0.000000000000D+00 0.275437100855D-06 0.000000000000D+00  6 1 21 25 23 1 21 4 0.81176198D-01 0.10550211D-01 0.32838499D+05 0.32838499D+05 0.32838499D+05 0.12107992D+01  1  2  8  2  6  2       21 -.710732044333D-02 0.100000000000D+01
0.994822922541D-05 0.000000000000D+00 0.000000000000D+00 0.275437100855D-06 0.327810942234D-07  6 1 21 25 23 1 21 4 0.82006126D-01 0.11300836D-01 0.34726551D+05 0.34726551D+05 0.34726551D+05 0.12082856D+01  1  2  1  2  6  2       21 0.635222329685D-01 0.100000000000D+01
  </mgrwgt>
  </event>
  <event>
  6     66 0.36102257E-03 0.56924862E+02 0.75467711E-02 0.11689438E+00
        1 -1    0    0  502    0 0.00000000E+00 0.00000000E+00 0.32566582E+03 0.32566597E+03 0.32000000E+00 0.0000E+00 0.9000E+01
       21 -1    0    0  501  502 0.00000000E+00 0.00000000E+00 -.13349140E+03 0.13349350E+03 0.75000000E+00 0.0000E+00 0.9000E+01
       25  1    1    2    0    0 0.12263351E+03 -.19364737E+02 0.10077676E+03 0.20296533E+03 0.12500000E+03 0.0000E+00 0.9000E+01
       23  1    1    2    0    0 -.73567943E+02 -.18693658E+02 -.26312316E+02 0.12152895E+03 0.91188000E+02 0.0000E+00 0.9000E+01
        1  1    1    2  503    0 -.37037946E+02 0.33565436E+02 0.10632589E+03 0.11748934E+03 0.32000000E+00 0.0000E+00 0.9000E+01
       21  1    1    2  501  503 -.12027620E+02 0.44929587E+01 0.11384081E+02 0.17175859E+02 0.75000000E+00 0.0000E+00 0.9000E+01
#aMCatNLO 2  0  0  5  2 0.70877215D+01 0.00000000D+00  -5  6  0 0.00000000D+00 0.00000000D+00 0.00000000D+00 0.00000000D+00 0.00000000D+00
  <mgrwgt>
 0.2006508595D-01    3    2    0
 0.208504447924802D+03 0.000000000000000D+00 0.000000000000000D+00 0.208504447924802D+03
 0.208504447924802D+03 -.000000000000000D+00 -.000000000000000D+00 -.208504447924802D+03
 0.177374350678815D+03 0.123152570556436D+03 -.197673541337519D+02 0.167139568811200D+02
 0.146110511960617D+03 -.731402176388907D+02 -.190254297388233D+02 -.855661846080704D+02
 0.935240332101716D+02 -.500123529175454D+02 0.387927838725752D+02 0.688522277269504D+02
 0.000000000000000D+00 -.000000000000000D+00 0.000000000000000D+00 0.000000000000000D+00
 0.208504447924802D+03 0.000000000000000D+00 0.000000000000000D+00 0.208504447924802D+03
 0.208504447924802D+03 -.000000000000000D+00 -.000000000000000D+00 -.208504447924802D+03
 0.177037298948339D+03 0.122631222550169D+03 -.193629632313107D+02 0.174316989899888D+02
 0.145937915837022D+03 -.735698278555020D+02 -.186921965412185D+02 -.849747383204560D+02
 0.803261648037422D+02 -.369647915699668D+02 0.335500911183137D+02 0.629308217189297D+02
 0.137075162604998D+02 -.120966031246997D+02 0.450506865421549D+01 0.461221761153748D+01
-.706677245291D-05 0.000000000000D+00 0.000000000000D+00 0.687814977905D-07 0.000000000000D+00  6 1 21 25 23 1 21 4 0.50102607D-01 0.20537312D-01 0.31978830D+05 0.31978830D+05 0.31978830D+05 0.12119976D+01  1  2 13  3  6  5        1 -.289928766792D-01 0.100000000000D+01
-.383032656763D-05 0.000000000000D+00 0.000000000000D+00 0.687625415120D-07 0.000000000000D+00  6 1 21 25 23 1 21 4 0.50102607D-01 0.20537312D-01 0.32097125D+05 0.32097125D+05 0.32097125D+05 0.12118306D+01  1  2  8  3  6  5        1 -.157054348100D-01 0.100000000000D+01
0.157855392560D-04 0.000000000000D+00 0.000000000000D+00 0.687625415120D-07 0.148274952049D-07  6 1 21 25 23 1 21 4 0.50102607D-01 0.20537312D-01 0.31978830D+05 0.31978830D+05 0.31978830D+05 0.12119976D+01  1  2  1  3  6  5        1 0.647633974371D-01 0.100000000000D+01
  </mgrwgt>
  </event>
  <event>
  5     66 -.36102257E-03 0.48472916E+02 0.75467711E-02 0.11957219E+00
        1 -1    0    0  502    0 0.00000000E+00 0.00000000E+00 0.55909165E+03 0.55909174E+03 0.32000000E+00 0.0000E+00 0.9000E+01
       21 -1    0    0  501  502 0.00000000E+00 0.00000000E+00 -.47164810E+02 0.47170773E+02 0.75000000E+00 0.0000E+00 0.9000E+01
       25  1    1    2    0    0 0.11268443E+02 0.16366619E+02 0.18838824E+03 0.22695808E+03 0.12500000E+03 0.0000E+00 0.9000E+01
       23  1    1    2    0    0 -.30422485E+02 0.53616999E+02 0.11815646E+03 0.16148223E+03 0.91188000E+02 0.0000E+00 0.9000E+01
        1  1    1    2  501    0 0.19154042E+02 -.69983618E+02 0.20538214E+03 0.21782220E+03 0.32000000E+00 0.0000E+00 0.9000E+01
#aMCatNLO 1  0  0  5  2 0.15291769D+02 0.00000000D+00  -5  6  0 0.00000000D+00 0.00000000D+00 0.00000000D+00 0.00000000D+00 0.00000000D+00
  <mgrwgt>
 -.1624881788D-01    7    2    0
 0.162392384869297D+03 0.000000000000000D+00 0.000000000000000D+00 0.162392384869297D+03
 0.162392384869297D+03 -.000000000000000D+00 -.000000000000000D+00 -.162392384869297D+03
 0.126715278256894D+03 0.112683868694315D+02 0.163668226086420D+02 -.607555090342076D+01
 0.115193830694737D+03 -.304225354311649D+02 0.536171841012826D+02 -.339710787746927D+02
 0.828756607869625D+02 0.191541485617334D+02 -.699840067099246D+02 0.400466296781134D+02
 0.000000000000000D+00 0.000000000000000D+00 -.000000000000000D+00 0.000000000000000D+00
 0.162392384869297D+03 0.000000000000000D+00 0.000000000000000D+00 0.162392384869297D+03
 0.162392384869297D+03 -.000000000000000D+00 -.000000000000000D+00 -.162392384869297D+03
 0.126265027677766D+03 0.123911700169414D+02 0.122644808587140D+02 -.372808655269600D+01
 0.112638433154841D+03 -.294113649158782D+02 0.499226443049234D+02 -.318569690800434D+02
 0.695162219376008D+02 0.278725585034900D+02 -.504023546597358D+02 0.389259327402891D+02
 0.163650869683852D+02 -.108523636045532D+02 -.117847705039016D+02 -.334087710754977D+01
0.150313106456D-05 0.000000000000D+00 0.000000000000D+00 0.172753293670D-06 0.000000000000D+00  6 1 21 25 23 1 21 2 0.86014566D-01 0.72565903D-02 0.23900884D+05 0.23900884D+05 0.23900884D+05 0.12253966D+01  1  2  2  3  6  5        1 0.137836634578D-01 0.100000000000D+01
-.152830124815D-06 0.793224055370D-07 -.303438854810D-08 0.172753293670D-06 0.000000000000D+00  6 1 21 25 23 1 21 4 0.86014566D-01 0.72565903D-02 0.23900884D+05 0.23900884D+05 0.23900884D+05 0.12253966D+01  1  2  3  3  6  5        1 -.210440895658D-02 0.100000000000D+01
0.167689573029D-06 0.000000000000D+00 0.000000000000D+00 0.172753293670D-06 0.000000000000D+00  6 1 21 25 23 1 21 4 0.86014566D-01 0.72565903D-02 0.23900884D+05 0.23900884D+05 0.23900884D+05 0.12253966D+01  1  2 15  3  6  5        1 0.230901754372D-02 0.100000000000D+01
0.202029530420D-05 0.000000000000D+00 0.000000000000D+00 0.172867364003D-06 0.000000000000D+00  6 1 21 25 23 1 21 4 0.86014566D-01 0.72565903D-02 0.23695338D+05 0.23695338D+05 0.23695338D+05 0.12258011D+01  1  2 12  3  6  5        1 0.278540924196D-01 0.100000000000D+01
-.451845870065D-05 0.000000000000D+00 0.000000000000D+00 0.172753293670D-06 0.000000000000D+00  6 1 21 25 23 1 21 4 0.86014566D-01 0.72565903D-02 0.23900884D+05 0.23900884D+05 0.23900884D+05 0.12253966D+01  1  2  4  3  6  5        1 -.622173473397D-01 0.100000000000D+01
-.138410361348D-05 0.000000000000D+00 0.000000000000D+00 0.172753293670D-06 0.000000000000D+00  6 1 21 25 23 1 21 4 0.86014566D-01 0.72565903D-02 0.23900884D+05 0.23900884D+05 0.23900884D+05 0.12253966D+01  1  2  5  3  6  5        1 -.190585465043D-01 0.100000000000D+01
0.168376129614D-05 0.000000000000D+00 -.000000000000D+00 0.172753293670D-06 0.000000000000D+00  6 1 21 25 23 1 21 4 0.86014566D-01 0.72565903D-02 0.23900884D+05 0.23900884D+05 0.23900884D+05 0.12253966D+01  1  2  6  3  6  5        1 0.231847115000D-01 0.100000000000D+01
  </mgrwgt>
  </event>
  <event>
  5     66 0.36102257E-03 0.24117106E+02 0.75467711E-02 0.12172027E+00
        3 -1    0    0  502    0 0.00000000E+00 0.00000000E+00 0.33366836E+03 0.33366873E+03 0.50000000E+00 0.0000E+00 0.9000E+01
       21 -1    0    0  501  502 0.00000000E+00 0.00000000E+00 -.56012212E+02 0.56017233E+02 0.75000000E+00 0.0000E+00 0.9000E+01
       25  1    1    2    0    0 0.48938538E+02 0.20591537E+02 0.77719930E+02 0.15647485E+03 0.12500000E+03 0.0000E+00 0.9000E+01
       23  1    1    2    0    0 -.26022019E+02 -.13091066E+02 0.16500517E+03 0.19076288E+03 0.91188000E+02 0.0000E+00 0.9000E+01
        3  1    1    2  501    0 -.22916518E+02 -.75004702E+01 0.34931047E+02 0.42448227E+02 0.50000000E+00 0.0000E+00 0.9000E+01
#aMCatNLO 1  0  0  2  1 0.18047381D+02 0.00000000D+00  -5  6  0 0.00000000D+00 0.00000000D+00 0.00000000D+00 0.00000000D+00 0.00000000D+00
  <mgrwgt>
 0.4228142497D-01   23    2    0
 0.136713400482644D+03 0.000000000000000D+00 0.000000000000000D+00 0.136713400482644D+03
 0.136713400482644D+03 0.000000000000000D+00 0.000000000000000D+00 -.136713400482644D+03
 0.144085935510910D+03 0.489409489255060D+02 0.205923257849479D+02 -.481299953157240D+02
 0.104315765096167D+03 -.260202738860043D+02 -.130904951431766D+02 0.414501120312422D+02
 0.250251003582114D+02 -.229206750395017D+02 -.750183064177130D+01 0.667988328448175D+01
 0.000000000000000D+00 -.000000000000000D+00 0.000000000000000D+00 -.000000000000000D+00
 0.143471968857166D+03 0.000000000000000D+00 0.000000000000000D+00 0.143471968857166D+03
 0.149613549613112D+03 0.000000000000000D+00 0.000000000000000D+00 -.149613549613112D+03
 0.147138953379440D+03 0.581803987350434D+02 0.179837803460971D+02 -.481299953157240D+02
 0.103124667197145D+03 -.194389838391758D+02 -.149485705142543D+02 0.414501120312422D+02
 0.237581367031259D+02 -.213729698550568D+02 -.793878948486195D+01 0.667988328448175D+01
 0.190637611905675D+02 -.173684450408109D+02 0.490357965301913D+01 -.614158075594665D+01
0.204624189192D-05 0.000000000000D+00 0.000000000000D+00 0.362382276986D-06 0.000000000000D+00  6 3 21 25 23 3 21 2 0.51334008D-01 0.86176784D-02 0.16339716D+05 0.16339716D+05 0.16339716D+05 0.12436091D+01  1  2  2  2  6  2       21 0.607118928175D-02 0.100000000000D+01
0.237730690380D-07 0.107983151306D-06 -.413077283136D-08 0.362382276986D-06 0.000000000000D+00  6 3 21 25 23 3 21 4 0.51334008D-01 0.86176784D-02 0.16339716D+05 0.16339716D+05 0.16339716D+05 0.12436091D+01  1  2  3  2  6  2       21 0.109086212993D-03 0.100000000000D+01
0.213217323794D-06 0.000000000000D+00 0.000000000000D+00 0.362382276986D-06 0.000000000000D+00  6 3 21 25 23 3 21 4 0.51334008D-01 0.86176784D-02 0.16339716D+05 0.16339716D+05 0.16339716D+05 0.12436091D+01  1  2 15  2  6  2       21 0.978378953094D-03 0.100000000000D+01
0.429383511121D-05 0.000000000000D+00 0.000000000000D+00 0.358403237460D-06 0.000000000000D+00  6 3 21 25 23 3 21 4 0.51334008D-01 0.96281680D-02 0.18812770D+05 0.18812770D+05 0.18812770D+05 0.12367627D+01  1  2 12  2  6  2       21 0.159752053987D-01 0.100000000000D+01
-.449196196807D-06 0.000000000000D+00 0.000000000000D+00 0.362382276986D-06 0.000000000000D+00  6 3 21 25 23 3 21 4 0.51334008D-01 0.86176784D-02 0.16339716D+05 0.16339716D+05 0.16339716D+05 0.12436091D+01  1  2  4  2  6  2       21 -.206120261218D-02 0.100000000000D+01
-.236112851288D-04 0.000000000000D+00 -.516096865623D-05 0.362382276986D-06 0.000000000000D+00  6 3 21 25 23 3 21 4 0.51334008D-01 0.98864657D-02 0.16339716D+05 0.16339716D+05 0.16339716D+05 0.12436091D+01  1  2  5  2  6  2       21 -.853160208907D-01 0.100000000000D+01
0.234342574340D-04 0.000000000000D+00 0.497132756286D-05 0.362382276986D-06 0.000000000000D+00  6 3 21 25 23 3 21 4 0.51334008D-01 0.86176784D-02 0.16339716D+05 0.16339716D+05 0.16339716D+05 0.12436091D+01  1  2  6  2  6  2       21 0.107531526270D+00 0.100000000000D+01
0.123327913327D-06 0.000000000000D+00 0.000000000000D+00 0.358403237460D-06 0.000000000000D+00  6 3 -3 25 23 3 -3 4 0.51334008D-01 0.96281680D-02 0.18812770D+05 0.18812770D+05 0.18812770D+05 0.12367627D+01  1  2 12  5  6  2       21 0.199139202855D-04 0.100000000000D+01
-.722684010879D-06 0.000000000000D+00 -.189672256668D-06 0.362382276986D-06 0.000000000000D+00  6 3 -3 25 23 3 -3 4 0.51334008D-01 0.98864657D-02 0.16339716D+05 0.16339716D+05 0.16339716D+05 0.12436091D+01  1  2  5  5  6  2       21 -.112993857070D-03 0.100000000000D+01
0.123327913327D-06 0.000000000000D+00 0.000000000000D+00 0.358403237460D-06 0.000000000000D+00  6 3 3 25 23 3 3 4 0.51334008D-01 0.96281680D-02 0.18812770D+05 0.18812770D+05 0.18812770D+05 0.12367627D+01  1  2 12  6  6  2       21 0.199114011600D-04 0.100000000000D+01
-.722684010879D-06 0.000000000000D+00 -.189672256668D-06 0.362382276986D-06 0.000000000000D+00  6 3 3 25 23 3 3 4 0.51334008D-01 0.98864657D-02 0.16339716D+05 0.16339716D+05 0.16339716D+05 0.12436091D+01  1  2  5  6  6  2       21 -.112979297756D-03 0.100000000000D+01
0.123327913327D-06 0.000000000000D+00 0.000000000000D+00 0.358403237460D-06 0.000000000000D+00  6 3 -2 25 23 3 -2 4 0.51334008D-01 0.96281680D-02 0.18812770D+05 0.18812770D+05 0.18812770D+05 0.12367627D+01  1  2 12  7  6  2       21 0.288905494167D-04 0.100000000000D+01
0.123327913327D-06 0.000000000000D+00 0.000000000000D+00 0.358403237460D-06 0.000000000000D+00  6 3 -4 25 23 3 -4 4 0.51334008D-01 0.96281680D-02 0.18812770D+05 0.18812770D+05 0.18812770D+05 0.12367627D+01  1  2 12  7  6  2       21 0.174047157685D-04 0.100000000000D+01
-.722684010879D-06 0.000000000000D+00 -.189672256668D-06 0.362382276986D-06 0.000000000000D+00  6 3 -2 25 23 3 -2 4 0.51334008D-01 0.98864657D-02 0.16339716D+05 0.16339716D+05 0.16339716D+05 0.12436091D+01  1  2  5  7  6  2       21 -.164823519806D-03 0.100000000000D+01
-.722684010879D-06 0.000000000000D+00 -.189672256668D-06 0.362382276986D-06 0.000000000000D+00  6 3 -4 25 23 3 -4 4 0.51334008D-01 0.98864657D-02 0.16339716D+05 0.16339716D+05 0.16339716D+05 0.12436091D+01  1  2  5  7  6  2       21 -.985224480172D-04 0.100000000000D+01
0.123327913327D-06 0.000000000000D+00 0.000000000000D+00 0.358403237460D-06 0.000000000000D+00  6 3 2 25 23 3 2 4 0.51334008D-01 0.96281680D-02 0.18812770D+05 0.18812770D+05 0.18812770D+05 0.12367627D+01  1  2 12  8  6  2       21 0.425014246743D-04 0.100000000000D+01
0.123327913327D-06 0.000000000000D+00 0.000000000000D+00 0.358403237460D-06 0.000000000000D+00  6 3 4 25 23 3 4 4 0.51334008D-01 0.96281680D-02 0.18812770D+05 0.18812770D+05 0.18812770D+05 0.12367627D+01  1  2 12  8  6  2       21 0.174047157685D-04 0.100000000000D+01
-.722684010879D-06 0.000000000000D+00 -.189672256668D-06 0.362382276986D-06 0.000000000000D+00  6 3 2 25 23 3 2 4 0.51334008D-01 0.98864657D-02 0.16339716D+05 0.16339716D+05 0.16339716D+05 0.12436091D+01  1  2  5  8  6  2       21 -.244728082747D-03 0.100000000000D+01
-.722684010879D-06 0.000000000000D+00 -.189672256668D-06 0.362382276986D-06 0.000000000000D+00  6 3 4 25 23 3 4 4 0.51334008D-01 0.98864657D-02 0.16339716D+05 0.16339716D+05 0.16339716D+05 0.12436091D+01  1  2  5  8  6  2       21 -.985224480172D-04 0.100000000000D+01
0.123327913327D-06 0.000000000000D+00 0.000000000000D+00 0.358403237460D-06 0.000000000000D+00  6 3 -1 25 23 3 -1 4 0.51334008D-01 0.96281680D-02 0.18812770D+05 0.18812770D+05 0.18812770D+05 0.12367627D+01  1  2 12  9  6  2       21 0.301706104419D-04 0.100000000000D+01
-.722684010879D-06 0.000000000000D+00 -.189672256668D-06 0.362382276986D-06 0.000000000000D+00  6 3 -1 25 23 3 -1 4 0.51334008D-01 0.98864657D-02 0.16339716D+05 0.16339716D+05 0.16339716D+05 0.12436091D+01  1  2  5  9  6  2       21 -.172340372489D-03 0.100000000000D+01
0.123327913327D-06 0.000000000000D+00 0.000000000000D+00 0.358403237460D-06 0.000000000000D+00  6 3 1 25 23 3 1 4 0.51334008D-01 0.96281680D-02 0.18812770D+05 0.18812770D+05 0.18812770D+05 0.12367627D+01  1  2 12 10  6  2       21 0.375318861708D-04 0.100000000000D+01
-.722684010879D-06 0.000000000000D+00 -.189672256668D-06 0.362382276986D-06 0.000000000000D+00  6 3 1 25 23 3 1 4 0.51334008D-01 0.98864657D-02 0.16339716D+05 0.16339716D+05 0.16339716D+05 0.12436091D+01  1  2  5 10  6  2       21 -.215556843832D-03 0.100000000000D+01
  </mgrwgt>
  </event>
  <event>
  6     66 -.36102257E-03 0.63351395E+02 0.75467711E-02 0.11943339E+00
        1 -1    0    0  503    0 0.00000000E+00 0.00000000E+00 0.11957978E+03 0.11958021E+03 0.32000000E+00 0.0000E+00 0.9000E+01
       21 -1    0    0  501  502 0.00000000E+00 0.00000000E+00 -.22358383E+03 0.22358509E+03 0.75000000E+00 0.0000E+00 0.9000E+01
       25  1    1    2    0    0 0.20677289E+02 0.45952370E+01 -.60691013E+02 0.14055983E+03 0.12500000E+03 0.0000E+00 0.9000E+01
       23  1    1    2    0    0 0.35936688E+02 -.49459274E+02 0.83169953E+01 0.11010036E+03 0.91188000E+02 0.0000E+00 0.9000E+01
        1  1    1    2  501    0 -.49757928E+02 0.44542953E+02 -.53248789E+02 0.85413476E+02 0.32000000E+00 0.0000E+00 0.9000E+01
       21  1    1    2  503  502 -.68560491E+01 0.32108434E+00 0.16187563E+01 0.70916412E+01 0.75000000E+00 0.0000E+00 0.9000E+01
#aMCatNLO 2  0  0  1  2 0.68635635D+01 0.00000000D+00  -5  6  0 0.00000000D+00 0.00000000D+00 0.00000000D+00 0.00000000D+00 0.00000000D+00
  <mgrwgt>
 -.6169986147D-01    3    2    0
 0.159485282971455D+03 0.000000000000000D+00 0.000000000000000D+00 0.159485282971455D+03
 0.159485282971455D+03 0.000000000000000D+00 0.000000000000000D+00 -.159485282971455D+03
 0.127559778476536D+03 0.179315850521741D+02 0.472366442346393D+01 -.173966185482744D+02
 0.117935898205130D+03 0.333936746922007D+02 -.493403267955384D+02 0.452108325925518D+02
 0.734748892612442D+02 -.513252597443747D+02 0.446166623720745D+02 -.278142140442774D+02
 0.000000000000000D+00 -.000000000000000D+00 0.000000000000000D+00 0.000000000000000D+00
 0.165533759113098D+03 0.000000000000000D+00 0.000000000000000D+00 0.165533759113098D+03
 0.161481281438097D+03 0.000000000000000D+00 0.000000000000000D+00 -.161481281438097D+03
 0.127969978212479D+03 0.206774838696978D+02 0.459506774777393D+01 -.173966185482744D+02
 0.118730639243305D+03 0.359368711235971D+02 -.494594304582870D+02 0.452108325925518D+02
 0.723437845350576D+02 -.497583059416619D+02 0.445432783680090D+02 -.278142140442774D+02
 0.797063856035262D+01 -.685604905163293D+01 0.321084342504151D+00 0.405247767500105D+01
-.154084551522D-04 0.000000000000D+00 0.000000000000D+00 0.274084269348D-06 0.000000000000D+00  6 1 21 25 23 1 21 4 0.18503064D-01 0.33968788D-01 0.24058280D+05 0.24058280D+05 0.24058280D+05 0.12250895D+01  1  2 13  1  6  1        1 -.881434334615D-01 0.100000000000D+01
-.633995407044D-05 0.000000000000D+00 0.000000000000D+00 0.275031055174D-06 0.000000000000D+00  6 1 21 25 23 1 21 4 0.17722887D-01 0.33968788D-01 0.22997827D+05 0.22997827D+05 0.22997827D+05 0.12272036D+01  1  2  8  1  6  1        1 -.385936228450D-01 0.100000000000D+01
0.115637939467D-04 0.000000000000D+00 0.000000000000D+00 0.275031055174D-06 0.548305978889D-07  6 1 21 25 23 1 21 4 0.18395027D-01 0.34393916D-01 0.24058280D+05 0.24058280D+05 0.24058280D+05 0.12250895D+01  1  2  1  1  6  1        1 0.650371948397D-01 0.100000000000D+01
  </mgrwgt>
  </event>
  <event>
  6     66 0.36102257E-03 0.39896258E+02 0.75467711E-02 0.11487864E+00
        3 -1    0    0  502    0 0.00000000E+00 0.00000000E+00 0.32212798E+03 0.32212837E+03 0.50000000E+00 0.0000E+00 0.9000E+01
       21 -1    0    0  501  503 0.00000000E+00 0.00000000E+00 -.41003354E+03 0.41003422E+03 0.75000000E+00 0.0000E+00 0.9000E+01
       25  1    1    2    0    0 0.69173558E+02 -.50145187E+02 0.17128422E+03 0.22861060E+03 0.12500000E+03 0.0000E+00 0.9000E+01
       23  1    1    2    0    0 -.15942254E+02 0.61211135E+02 0.20493172E+02 0.11285469E+03 0.91188000E+02 0.0000E+00 0.9000E+01
        3  1    1    2  501    0 -.21867039E+02 -.69881143E+02 0.26097074E+02 0.77735763E+02 0.50000000E+00 0.0000E+00 0.9000E+01
       21  1    1    2  502  503 -.31364265E+02 0.58815195E+02 -.30578002E+03 0.31296155E+03 0.75000000E+00 0.0000E+00 0.9000E+01
#aMCatNLO 2  0  0  2  5 0.98150074D+02 0.00000000D+00  -5  6  0 0.00000000D+00 0.00000000D+00 0.00000000D+00 0.00000000D+00 0.00000000D+00
  <mgrwgt>
 0.2578281400D-01    1    2    0
 0.175938404583679D+03 0.000000000000000D+00 0.000000000000000D+00 0.175938404583679D+03
 0.175938404583679D+03 0.000000000000000D+00 0.000000000000000D+00 -.175938404583679D+03
 0.151747708875750D+03 0.552529361253353D+02 -.240394832849614D+02 0.614132187884735D+02
 0.133410658316820D+03 -.271198737923821D+02 0.821729181684423D+02 -.446685165826548D+02
 0.667184419747891D+02 -.281330623329532D+02 -.581334348834809D+02 -.167447022058188D+02
 0.000000000000000D+00 -.000000000000000D+00 0.000000000000000D+00 -.000000000000000D+00
 0.181085497412724D+03 0.000000000000000D+00 0.000000000000000D+00 0.181085497412724D+03
 0.729397454287372D+03 0.000000000000000D+00 0.000000000000000D+00 -.729397454287372D+03
 0.163389358190976D+03 0.691739031773944D+02 -.501444916945267D+02 0.614132187884735D+02
 0.119630879361979D+03 -.159419348034308D+02 0.612117169661867D+02 -.446685165826548D+02
 0.751141409639023D+02 -.218677037942831D+02 -.698824201895508D+02 -.167447022058188D+02
 0.552348573183239D+03 -.313642645796806D+02 0.588151949178908D+02 -.548311956874648D+03
0.265297368181D-03 0.000000000000D+00 0.000000000000D+00 0.161062344320D-06 0.864690758423D-08  6 3 21 25 23 3 21 4 0.49558164D-01 0.63082078D-01 0.40454576D+05 0.40454576D+05 0.40454576D+05 0.12015022D+01  1  2  1  2  6  2       21 0.257828140040D-01 0.100000000000D+01
  </mgrwgt>
  </event>
  <event>
  6     66 0.36102257E-03 0.35999866E+02 0.75467711E-02 0.11404313E+00
        3 -1    0    0  502    0 0.00000000E+00 0.00000000E+00 0.92704333E+02 0.92705681E+02 0.50000000E+00 0.0000E+00 0.9000E+01
       21 -1    0    0  503  502 0.00000000E+00 0.00000000E+00 -.62542353E+03 0.62542398E+03 0.75000000E+00 0.0000E+00 0.9000E+01
       25  1    1    2    0    0 -.91173906E+01 -.10428594E+03 -.12425036E+03 0.20499228E+03 0.12500000E+03 0.0000E+00 0.9000E+01
       23  1    1    2    0    0 -.29049648E+02 0.12128614E+03 -.10253265E+03 0.18542493E+03 0.91188000E+02 0.0000E+00 0.9000E+01
        3  1    1    2  501    0 0.22952900E+02 0.40120270E+02 -.65846270E+02 0.80451556E+02 0.50000000E+00 0.0000E+00 0.9000E+01
       21  1    1    2  503  501 0.15214139E+02 -.57120463E+02 -.24008991E+03 0.24726089E+03 0.75000000E+00 0.0000E+00 0.9000E+01
#aMCatNLO 2  0  0  2  1 0.54357682D+02 0.00000000D+00  -5  6  0 0.00000000D+00 0.00000000D+00 0.00000000D+00 0.00000000D+00 0.00000000D+00
  <mgrwgt>
 0.5330694757D-02    1    2    0
 0.182065432131699D+03 0.000000000000000D+00 0.000000000000000D+00 0.182065432131699D+03
 0.182065432131699D+03 0.000000000000000D+00 0.000000000000000D+00 -.182065432131699D+03
 0.181208431092951D+03 -.197207754655989D+01 -.131116288926403D+03 0.401561794589221D+01
 0.137139513670541D+03 -.229796130396423D+02 0.984937601890644D+02 0.162145445252030D+02
 0.457829194999067D+02 0.249516905862022D+02 0.326225287373382D+02 -.202301624710952D+02
 0.000000000000000D+00 0.000000000000000D+00 -.000000000000000D+00 -.000000000000000D+00
 0.191868547098462D+03 0.000000000000000D+00 0.000000000000000D+00 0.191868547098462D+03
 0.302183242912121D+03 0.000000000000000D+00 0.000000000000000D+00 -.302183242912121D+03
 0.163095077334673D+03 -.911815876423888D+01 -.104286807622372D+03 0.401561794589221D+01
 0.155345451849929D+03 -.290501910831381D+02 0.121285337161307D+03 0.162145445252030D+02
 0.504571580412684D+02 0.229542104744085D+02 0.401219334714964D+02 -.202301624710952D+02
 0.125154102784713D+03 0.152141393729685D+02 -.571204630104320D+02 -.110314695813659D+03
0.145067275493D-04 0.000000000000D+00 0.000000000000D+00 0.251267616290D-06 0.130991483609D-08  6 3 21 25 23 3 21 4 0.14262263D-01 0.96218598D-01 0.44706564D+05 0.44706564D+05 0.44706564D+05 0.11971250D+01  1  2  1  2  6  2       21 0.533069475675D-02 0.100000000000D+01
  </mgrwgt>
  </event>
  <event>
  6     66 -.36102257E-03 0.21241189E+02 0.75467711E-02 0.12108028E+00
        3 -1    0    0  502    0 0.00000000E+00 0.00000000E+00 0.19581432E+04 0.19581433E+04 0.50000000E+00 0.0000E+00 0.9000E+01
       21 -1    0    0  503  502 0.00000000E+00 0.00000000E+00 -.12026118E+02 0.12049482E+02 0.75000000E+00 0.0000E+00 0.9000E+01
       25  1    1    2    0    0 0.48435288E+02 -.30147164E+02 0.97785163E+03 0.98745817E+03 0.12500000E+03 0.0000E+00 0.9000E+01
       23  1    1    2    0    0 -.62252257E+02 0.43315760E+02 0.91163133E+03 0.91931417E+03 0.91188000E+02 0.0000E+00 0.9000E+01
        3  1    1    2  501    0 0.17322234E+02 -.15760581E+02 0.51899495E+02 0.56940875E+02 0.50000000E+00 0.0000E+00 0.9000E+01
       21  1    1    2  503  501 -.35052648E+01 0.25919855E+01 0.47346480E+01 0.64795573E+01 0.75000000E+00 0.0000E+00 0.9000E+01
#aMCatNLO 2  0  0  2  1 0.43595035D+01 0.00000000D+00  -5  6  0 0.00000000D+00 0.00000000D+00 0.00000000D+00 0.00000000D+00 0.00000000D+00
  <mgrwgt>
 -.1620991016D-02    6    2    0
 0.147635302169881D+03 0.000000000000000D+00 0.000000000000000D+00 0.147635302169881D+03
 0.147635302169881D+03 0.000000000000000D+00 0.000000000000000D+00 -.147635302169881D+03
 0.137001965170438D+03 0.468033675341316D+02 -.289403084665944D+02 0.107908198893937D+02
 0.121160016856497D+03 -.636844133294592D+02 0.443748848148516D+02 0.184299603151450D+02
 0.371086223128277D+02 0.168810457953277D+02 -.154345763482572D+02 -.292207802045387D+02
 0.000000000000000D+00 -.000000000000000D+00 0.000000000000000D+00 -.000000000000000D+00
 0.148063663268783D+03 0.000000000000000D+00 0.000000000000000D+00 0.148063663268783D+03
 0.159176148297449D+03 0.000000000000000D+00 0.000000000000000D+00 -.159176148297449D+03
 0.137826564442670D+03 0.484345733997524D+02 -.301465117678352D+02 0.107908198893937D+02
 0.120027663239024D+03 -.622528779679698D+02 0.433163288623114D+02 0.184299603151450D+02
 0.374485577058575D+02 0.173235693919202D+02 -.157618026256613D+02 -.292207802045387D+02
 0.119370261786794D+02 -.350526482370277D+01 0.259198553118513D+01 -.111124850286655D+02
-.371851709205D-05 0.000000000000D+00 0.000000000000D+00 0.114780256473D-05 0.000000000000D+00  6 3 21 25 23 3 21 4 0.30035924D+00 0.18542076D-02 0.20133939D+05 0.20133939D+05 0.20133939D+05 0.12335070D+01  1  2 13  2  6  2       21 -.267271162129D-02 0.100000000000D+01
-.218639739477D-05 0.000000000000D+00 0.000000000000D+00 0.114780256473D-05 0.000000000000D+00  6 3 21 25 23 3 21 4 0.30035924D+00 0.19438235D-02 0.20133939D+05 0.20133939D+05 0.20133939D+05 0.12335070D+01  1  2 13  2  6  2       21 -.145623722905D-02 0.100000000000D+01
-.390759119792D-06 0.000000000000D+00 0.000000000000D+00 0.115070853959D-05 0.000000000000D+00  6 3 21 25 23 3 21 4 0.30035924D+00 0.17175632D-02 0.19488148D+05 0.19488148D+05 0.19488148D+05 0.12350675D+01  1  2  8  2  6  2       21 -.319257195936D-03 0.100000000000D+01
-.867430899075D-07 0.000000000000D+00 0.000000000000D+00 0.115070853959D-05 0.000000000000D+00  6 3 21 25 23 3 21 4 0.30035924D+00 0.18575181D-02 0.19488148D+05 0.19488148D+05 0.19488148D+05 0.12350675D+01  1  2  9  2  6  2       21 -.624750272653D-04 0.100000000000D+01
0.859606592594D-07 0.000000000000D+00 0.000000000000D+00 0.115070853959D-05 0.000000000000D+00  6 3 21 25 23 3 21 4 0.30035924D+00 0.17175632D-02 0.19488148D+05 0.19488148D+05 0.19488148D+05 0.12350675D+01  1  2 10  2  6  2       21 0.702313974157D-04 0.100000000000D+01
0.395539368971D-05 0.000000000000D+00 0.000000000000D+00 0.115070853959D-05 0.779882786614D-06  6 3 21 25 23 3 21 4 0.30123073D+00 0.18518274D-02 0.20133939D+05 0.20133939D+05 0.20133939D+05 0.12335070D+01  1  2  1  2  6  2       21 0.281945866007D-02 0.100000000000D+01
  </mgrwgt>
  </event>
  <event>
  5     66 0.36102257E-03 0.23509160E+02 0.75467711E-02 0.11886079E+00
        1 -1    0    0  502    0 0.00000000E+00 0.00000000E+00 0.11217610E+04 0.11217611E+04 0.32000000E+00 0.0000E+00 0.9000E+01
       21 -1    0    0  501  502 0.00000000E+00 0.00000000E+00 -.31322579E+02 0.31331557E+02 0.75000000E+00 0.0000E+00 0.9000E+01
       25  1    1    2    0    0 0.90998354E+02 -.46803745E+02 0.43935416E+03 0.46811149E+03 0.12500000E+03 0.0000E+00 0.9000E+01
       23  1    1    2    0    0 -.67535132E+02 0.48269361E+02 0.64984070E+03 0.66143715E+03 0.91188000E+02 0.0000E+00 0.9000E+01
        1  1    1    2  501    0 -.23463222E+02 -.14656163E+01 0.12436025E+01 0.23543996E+02 0.32000000E+00 0.0000E+00 0.9000E+01
#aMCatNLO 1  0  0  5  2 0.20702238D+02 0.00000000D+00  -5  6  0 0.00000000D+00 0.00000000D+00 0.00000000D+00 0.00000000D+00 0.00000000D+00
  <mgrwgt>
 0.2064737959D-01    6    2    0
 0.187461067090510D+03 0.000000000000000D+00 0.000000000000000D+00 0.187461067090510D+03
 0.187461067090510D+03 -.000000000000000D+00 -.000000000000000D+00 -.187461067090510D+03
 0.161866300066432D+03 0.909984636401692D+02 -.468037377435044D+02 -.102170859623596D+02
 0.144262120691457D+03 -.675350343998340D+02 0.482693670067065D+02 0.748691889884058D+02
 0.687937134231309D+02 -.234634292403352D+02 -.146562926320215D+01 -.646521030260462D+02
 0.000000000000000D+00 0.000000000000000D+00 -.000000000000000D+00 0.000000000000000D+00
 0.187461067090510D+03 0.000000000000000D+00 0.000000000000000D+00 0.187461067090510D+03
 0.187461067090510D+03 -.000000000000000D+00 -.000000000000000D+00 -.187461067090510D+03
 0.161110854529188D+03 0.885230203319733D+02 -.469583648491473D+02 -.170380248011504D+02
 0.142233498399279D+03 -.697308666839891D+02 0.481322056386994D+02 0.688187019257957D+02
 0.474381854440302D+02 0.517186595268960D+00 0.120558675488322D+02 -.458777725472029D+02
 0.241395958085221D+02 -.193093402432531D+02 -.132297083383844D+02 -.590290457744231D+01
0.784942854126D-05 0.000000000000D+00 0.000000000000D+00 0.134664562284D-05 0.000000000000D+00  6 1 21 25 23 1 21 2 0.17257932D+00 0.48195525D-02 0.23772391D+05 0.23772391D+05 0.23772391D+05 0.12256490D+01  1  2  2  3  6  5        1 0.497510678807D-01 0.100000000000D+01
0.120971302177D-05 0.414225724331D-06 -.158457347042D-07 0.134664562284D-05 0.000000000000D+00  6 1 21 25 23 1 21 4 0.17257932D+00 0.48195525D-02 0.23772391D+05 0.23772391D+05 0.23772391D+05 0.12256490D+01  1  2  3  3  6  5        1 0.115180505551D-01 0.100000000000D+01
0.763145049293D-06 0.000000000000D+00 0.000000000000D+00 0.134664562284D-05 0.000000000000D+00  6 1 21 25 23 1 21 4 0.17257932D+00 0.48195525D-02 0.23772391D+05 0.23772391D+05 0.23772391D+05 0.12256490D+01  1  2 15  3  6  5        1 0.726613924163D-02 0.100000000000D+01
-.688282326540D-05 0.000000000000D+00 0.000000000000D+00 0.134664562284D-05 0.000000000000D+00  6 1 21 25 23 1 21 4 0.17257932D+00 0.48195525D-02 0.23772391D+05 0.23772391D+05 0.23772391D+05 0.12256490D+01  1  2  4  3  6  5        1 -.655334818306D-01 0.100000000000D+01
-.331027537041D-05 0.000000000000D+00 0.000000000000D+00 0.134664562284D-05 0.000000000000D+00  6 1 21 25 23 1 21 4 0.17257932D+00 0.48195525D-02 0.23772391D+05 0.23772391D+05 0.23772391D+05 0.12256490D+01  1  2  5  3  6  5        1 -.315181521413D-01 0.100000000000D+01
0.516355049940D-05 0.000000000000D+00 -.000000000000D+00 0.134664562284D-05 0.000000000000D+00  6 1 21 25 23 1 21 4 0.17257932D+00 0.48195525D-02 0.23772391D+05 0.23772391D+05 0.23772391D+05 0.12256490D+01  1  2  6  3  6  5        1 0.491637558870D-01 0.100000000000D+01
  </mgrwgt>
  </event>
  <event>
  6     66 0.36102257E-03 0.88892569E+02 0.75467711E-02 0.11179763E+00
        1 -1    0    0  502    0 0.00000000E+00 0.00000000E+00 0.11570293E+04 0.11570293E+04 0.32000000E+00 0.0000E+00 0.9000E+01
       21 -1    0    0  501  502 0.00000000E+00 0.00000000E+00 -.58261638E+02 0.58266465E+02 0.75000000E+00 0.0000E+00 0.9000E+01
       25  1    1    2    0    0 -.40886452E+02 0.17325355E+01 0.27164938E+03 0.30181632E+03 0.12500000E+03 0.0000E+00 0.9000E+01
       23  1    1    2    0    0 0.58599822E+02 0.15708292E+03 0.55628030E+03 0.58810884E+03 0.91188000E+02 0.0000E+00 0.9000E+01
        1  1    1    2  503    0 0.23976005E+01 -.11388774E+03 0.24404698E+03 0.26932359E+03 0.32000000E+00 0.0000E+00 0.9000E+01
       21  1    1    2  501  503 -.20110970E+02 -.44927713E+02 0.26790955E+02 0.56047019E+02 0.75000000E+00 0.0000E+00 0.9000E+01
#aMCatNLO 2  0  0  5  2 0.40664929D+02 0.00000000D+00  -5  6  0 0.00000000D+00 0.00000000D+00 0.00000000D+00 0.00000000D+00 0.00000000D+00
  <mgrwgt>
 0.1931742814D-01    2    2    0
 0.259640867914474D+03 0.000000000000000D+00 0.000000000000000D+00 0.259640867914474D+03
 0.259640867914474D+03 -.000000000000000D+00 -.000000000000000D+00 -.259640867914474D+03
 0.131518787242086D+03 -.403576628426437D+02 0.647358056155893D+01 -.124225690646638D+01
 0.206078909865648D+03 0.594146764324134D+02 0.164388780394575D+03 0.599957569518856D+02
 0.181684038721215D+03 -.190570135897698D+02 -.170862360956134D+03 -.587535000454192D+02
 0.000000000000000D+00 0.000000000000000D+00 0.000000000000000D+00 -.000000000000000D+00
 0.259640867914474D+03 0.000000000000000D+00 0.000000000000000D+00 0.259640867914474D+03
 0.259640867914474D+03 -.000000000000000D+00 -.000000000000000D+00 -.259640867914474D+03
 0.131559867752955D+03 -.408870904078617D+02 0.172681143520641D+01 -.287450229111460D+01
 0.199312338376145D+03 0.585988546337146D+02 0.157074242994024D+03 0.574805472176260D+02
 0.113644671120304D+03 0.245145248965482D+01 -.113609129163211D+03 0.143785448148164D+01
 0.747648585795446D+02 -.201632167155078D+02 -.451919252660198D+02 -.560438994079931D+02
-.256799845332D-05 0.000000000000D+00 0.000000000000D+00 0.847531368268D-07 0.000000000000D+00  6 1 21 25 23 1 21 4 0.17800488D+00 0.89637037D-02 0.58926094D+05 0.58926094D+05 0.58926094D+05 0.11852807D+01  1  2 13  3  6  5        1 -.681867545336D-02 0.100000000000D+01
0.984318348200D-05 0.000000000000D+00 0.000000000000D+00 0.843849439216D-07 0.947933211431D-09  6 1 21 25 23 1 21 4 0.17800488D+00 0.89637037D-02 0.58926094D+05 0.58926094D+05 0.58926094D+05 0.11852807D+01  1  2  1  3  6  5        1 0.261361035887D-01 0.100000000000D+01
  </mgrwgt>
  </event>
  <event>
  5     66 0.36102257E-03 0.22047212E+02 0.75467711E-02 0.10048746E+00
        1 -1    0    0  502    0 0.00000000E+00 0.00000000E+00 0.58715654E+03 0.58715663E+03 0.32000000E+00 0.0000E+00 0.9000E+01
       21 -1    0    0  501  502 0.00000000E+00 0.00000000E+00 -.37543398E+02 0.37550888E+02 0.75000000E+00 0.0000E+00 0.9000E+01
       25  1    1    2    0    0 -.34069643E+02 0.53184801E+02 0.20419312E+03 0.24760694E+03 0.12500000E+03 0.0000E+00 0.9000E+01
       23  1    1    2    0    0 0.14098971E+02 -.62523251E+02 0.33433057E+03 0.35242037E+03 0.91188000E+02 0.0000E+00 0.9000E+01
        1  1    1    2  501    0 0.19970672E+02 0.93384495E+01 0.11089455E+02 0.24680211E+02 0.32000000E+00 0.0000E+00 0.9000E+01
#aMCatNLO 1  0  0  2  1 0.18062291D+01 0.00000000D+00  -5  6  0 0.00000000D+00 0.00000000D+00 0.00000000D+00 0.00000000D+00 0.00000000D+00
  <mgrwgt>
 0.1489157476D+00   12    2    0
 0.148479690389060D+03 0.000000000000000D+00 0.000000000000000D+00 0.148479690389060D+03
 0.148479690389060D+03 0.000000000000000D+00 0.000000000000000D+00 -.148479690389060D+03
 0.142964558037031D+03 -.340701426914633D+02 0.531845677051669D+02 -.287139685470580D+02
 0.122600118559965D+03 0.140985424176678D+02 -.625234510766555D+02 0.510645365599231D+02
 0.313947041811234D+02 0.199716002737955D+02 0.933888337148862D+01 -.223505680128651D+02
 0.000000000000000D+00 0.000000000000000D+00 0.000000000000000D+00 -.000000000000000D+00
 0.429265308487366D+03 0.000000000000000D+00 0.000000000000000D+00 0.429265308487366D+03
 0.747591871707729D+03 0.000000000000000D+00 0.000000000000000D+00 -.747591871707729D+03
 0.207069873614205D+03 -.816044128487914D+02 -.140602846246033D+03 -.287139685470580D+02
 0.337507693267176D+03 -.483835652016189D+02 -.317250114885450D+03 0.510645365599231D+02
 0.382654146814994D+02 0.105118368625585D+02 -.292266206740422D+02 -.223505680128651D+02
 0.594014198632215D+03 0.119476141187852D+03 0.487079581805525D+03 -.318326563220362D+03
0.401228823518D-05 0.000000000000D+00 0.000000000000D+00 0.928120445890D-06 0.000000000000D+00  6 1 21 25 23 1 21 2 0.90332358D-01 0.57764902D-02 0.18708489D+05 0.18708489D+05 0.18708489D+05 0.12370306D+01  1  2  2  2  6  2       21 0.517292850810D-01 0.100000000000D+01
0.332991136455D-06 0.211734267241D-06 -.809965395535D-08 0.928120445890D-06 0.000000000000D+00  6 1 21 25 23 1 21 4 0.90332358D-01 0.57764902D-02 0.18708489D+05 0.18708489D+05 0.18708489D+05 0.12370306D+01  1  2  3  2  6  2       21 0.656958416969D-02 0.100000000000D+01
0.457093062473D-06 0.000000000000D+00 0.000000000000D+00 0.928120445890D-06 0.000000000000D+00  6 1 21 25 23 1 21 4 0.90332358D-01 0.57764902D-02 0.18708489D+05 0.18708489D+05 0.18708489D+05 0.12370306D+01  1  2 15  2  6  2       21 0.901799182784D-02 0.100000000000D+01
0.414734781536D-03 0.000000000000D+00 -.240202765839D-03 0.928120445890D-06 0.000000000000D+00  6 1 21 25 23 1 21 4 0.90332358D-01 0.82449937D-01 0.18708489D+05 0.18708489D+05 0.18708489D+05 0.12370306D+01  1  2  5  2  6  2       21 0.522143457790D-01 0.100000000000D+01
0.182993575066D-03 0.000000000000D+00 -.105917455393D-03 0.928120445890D-06 0.000000000000D+00  6 1 -1 25 23 1 -1 4 0.90332358D-01 0.82449937D-01 0.18708489D+05 0.18708489D+05 0.18708489D+05 0.12370306D+01  1  2  5  5  6  2       21 0.252087709609D-02 0.100000000000D+01
0.182993575066D-03 0.000000000000D+00 -.105917455393D-03 0.928120445890D-06 0.000000000000D+00  6 1 1 25 23 1 1 4 0.90332358D-01 0.82449937D-01 0.18708489D+05 0.18708489D+05 0.18708489D+05 0.12370306D+01  1  2  5  6  6  2       21 0.800012208867D-02 0.100000000000D+01
0.182993575066D-03 0.000000000000D+00 -.105917455393D-03 0.928120445890D-06 0.000000000000D+00  6 1 -2 25 23 1 -2 4 0.90332358D-01 0.82449937D-01 0.18708489D+05 0.18708489D+05 0.18708489D+05 0.12370306D+01  1  2  5  7  6  2       21 0.191244724848D-02 0.100000000000D+01
0.182993575066D-03 0.000000000000D+00 -.105917455393D-03 0.928120445890D-06 0.000000000000D+00  6 1 -4 25 23 1 -4 4 0.90332358D-01 0.82449937D-01 0.18708489D+05 0.18708489D+05 0.18708489D+05 0.12370306D+01  1  2  5  7  6  2       21 0.960236080097D-03 0.100000000000D+01
0.182993575066D-03 0.000000000000D+00 -.105917455393D-03 0.928120445890D-06 0.000000000000D+00  6 1 2 25 23 1 2 4 0.90332358D-01 0.82449937D-01 0.18708489D+05 0.18708489D+05 0.18708489D+05 0.12370306D+01  1  2  5  8  6  2       21 0.126413538218D-01 0.100000000000D+01
0.182993575066D-03 0.000000000000D+00 -.105917455393D-03 0.928120445890D-06 0.000000000000D+00  6 1 4 25 23 1 4 4 0.90332358D-01 0.82449937D-01 0.18708489D+05 0.18708489D+05 0.18708489D+05 0.12370306D+01  1  2  5  8  6  2       21 0.960236080097D-03 0.100000000000D+01
0.182993575066D-03 0.000000000000D+00 -.105917455393D-03 0.928120445890D-06 0.000000000000D+00  6 1 -3 25 23 1 -3 4 0.90332358D-01 0.82449937D-01 0.18708489D+05 0.18708489D+05 0.18708489D+05 0.12370306D+01  1  2  5  9  6  2       21 0.119382562453D-02 0.100000000000D+01
0.182993575066D-03 0.000000000000D+00 -.105917455393D-03 0.928120445890D-06 0.000000000000D+00  6 1 3 25 23 1 3 4 0.90332358D-01 0.82449937D-01 0.18708489D+05 0.18708489D+05 0.18708489D+05 0.12370306D+01  1  2  5 10  6  2       21 0.119544266913D-02 0.100000000000D+01
  </mgrwgt>
  </event>
  <event>
  5     66 0.36102257E-03 0.10798570E+03 0.75467711E-02 0.11354675E+00
        3 -1    0    0  502    0 0.00000000E+00 0.00000000E+00 0.44455292E+03 0.44455320E+03 0.50000000E+00 0.0000E+00 0.9000E+01
       21 -1    0    0  501  502 0.00000000E+00 0.00000000E+00 -.91908127E+02 0.91911187E+02 0.75000000E+00 0.0000E+00 0.9000E+01
       25  1    1    2    0    0 0.97779267E+02 0.90007645E+02 0.10041395E+03 0.20825495E+03 0.12500000E+03 0.0000E+00 0.9000E+01
       23  1    1    2    0    0 -.48192403E+00 -.34399497E+02 0.12833791E+03 0.16115033E+03 0.91188000E+02 0.0000E+00 0.9000E+01
        3  1    1    2  501    0 -.97297343E+02 -.55608148E+02 0.12389293E+03 0.16705911E+03 0.50000000E+00 0.0000E+00 0.9000E+01
#aMCatNLO 1  0  0  2  1 0.41674701D+02 0.00000000D+00  -5  6  0 0.00000000D+00 0.00000000D+00 0.00000000D+00 0.00000000D+00 0.00000000D+00
  <mgrwgt>
 0.4452889916D-02   23    2    0
 0.202135900742105D+03 0.000000000000000D+00 0.000000000000000D+00 0.202135900742105D+03
 0.202135900742105D+03 0.000000000000000D+00 0.000000000000000D+00 -.202135900742105D+03
 0.188761754820469D+03 0.977797065339398D+02 0.900078964501807D+02 -.484118544331148D+02
 0.101896030362296D+03 -.481686542906651D+00 -.343993614166761D+02 0.297321639271882D+02
 0.113614016301446D+03 -.972980199910332D+02 -.556085350335046D+02 0.186796905059266D+02
 0.000000000000000D+00 0.000000000000000D+00 -.000000000000000D+00 -.000000000000000D+00
 0.222561418505505D+03 0.000000000000000D+00 0.000000000000000D+00 0.222561418505505D+03
 0.225641078707295D+03 0.000000000000000D+00 0.000000000000000D+00 -.225641078707295D+03
 0.189678262473011D+03 0.845166947943131D+02 0.104240413977364D+03 -.484118544331148D+02
 0.998755962978523D+02 -.755308314693392D+01 -.268110565818260D+02 0.297321639271882D+02
 0.116860302173839D+03 -.105375346520827D+03 -.469407683403186D+02 0.186796905059266D+02
 0.417883362680977D+02 0.284117348734477D+02 -.304885890552193D+02 -.307966020178995D+01
0.184880702380D-05 0.000000000000D+00 0.000000000000D+00 0.888057974730D-07 0.000000000000D+00  6 3 21 25 23 3 21 2 0.68393014D-01 0.14139969D-01 0.38411637D+05 0.38411637D+05 0.38411637D+05 0.12037914D+01  1  2  2  2  6  2       21 0.120963365260D-02 0.100000000000D+01
-.172570893051D-06 0.975642270719D-07 -.373220871615D-08 0.888057974730D-07 0.000000000000D+00  6 3 21 25 23 3 21 4 0.68393014D-01 0.14139969D-01 0.38411637D+05 0.38411637D+05 0.38411637D+05 0.12037914D+01  1  2  3  2  6  2       21 -.163618447545D-03 0.100000000000D+01
0.253289278790D-06 0.000000000000D+00 0.000000000000D+00 0.888057974730D-07 0.000000000000D+00  6 3 21 25 23 3 21 4 0.68393014D-01 0.14139969D-01 0.38411637D+05 0.38411637D+05 0.38411637D+05 0.12037914D+01  1  2 15  2  6  2       21 0.240149412470D-03 0.100000000000D+01
0.209353211876D-05 0.000000000000D+00 0.000000000000D+00 0.874426765798D-07 0.000000000000D+00  6 3 21 25 23 3 21 4 0.68393014D-01 0.16423440D-01 0.47475171D+05 0.47475171D+05 0.47475171D+05 0.11945169D+01  1  2 12  2  6  2       21 0.146596608807D-02 0.100000000000D+01
-.135717087574D-05 0.000000000000D+00 0.000000000000D+00 0.888057974730D-07 0.000000000000D+00  6 3 21 25 23 3 21 4 0.68393014D-01 0.14139969D-01 0.38411637D+05 0.38411637D+05 0.38411637D+05 0.12037914D+01  1  2  4  2  6  2       21 -.128676503793D-02 0.100000000000D+01
-.118210523897D-04 0.000000000000D+00 -.337164680878D-05 0.888057974730D-07 0.000000000000D+00  6 3 21 25 23 3 21 4 0.68393014D-01 0.17339132D-01 0.38411637D+05 0.38411637D+05 0.38411637D+05 0.12037914D+01  1  2  5  2  6  2       21 -.771952396820D-02 0.100000000000D+01
0.114856742569D-04 0.000000000000D+00 0.310684671143D-05 0.888057974730D-07 0.000000000000D+00  6 3 21 25 23 3 21 4 0.68393014D-01 0.14139969D-01 0.38411637D+05 0.38411637D+05 0.38411637D+05 0.12037914D+01  1  2  6  2  6  2       21 0.108898329128D-01 0.100000000000D+01
0.850860600557D-07 0.000000000000D+00 0.000000000000D+00 0.874426765798D-07 0.000000000000D+00  6 3 -3 25 23 3 -3 4 0.68393014D-01 0.16423440D-01 0.47475171D+05 0.47475171D+05 0.47475171D+05 0.11945169D+01  1  2 12  5  6  2       21 0.283219989645D-05 0.100000000000D+01
-.584060848504D-06 0.000000000000D+00 -.198067136510D-06 0.888057974730D-07 0.000000000000D+00  6 3 -3 25 23 3 -3 4 0.68393014D-01 0.17339132D-01 0.38411637D+05 0.38411637D+05 0.38411637D+05 0.12037914D+01  1  2  5  5  6  2       21 -.180561822028D-04 0.100000000000D+01
0.850860600557D-07 0.000000000000D+00 0.000000000000D+00 0.874426765798D-07 0.000000000000D+00  6 3 3 25 23 3 3 4 0.68393014D-01 0.16423440D-01 0.47475171D+05 0.47475171D+05 0.47475171D+05 0.11945169D+01  1  2 12  6  6  2       21 0.283190693701D-05 0.100000000000D+01
-.584060848504D-06 0.000000000000D+00 -.198067136510D-06 0.888057974730D-07 0.000000000000D+00  6 3 3 25 23 3 3 4 0.68393014D-01 0.17339132D-01 0.38411637D+05 0.38411637D+05 0.38411637D+05 0.12037914D+01  1  2  5  6  6  2       21 -.180543519873D-04 0.100000000000D+01
0.850860600557D-07 0.000000000000D+00 0.000000000000D+00 0.874426765798D-07 0.000000000000D+00  6 3 -2 25 23 3 -2 4 0.68393014D-01 0.16423440D-01 0.47475171D+05 0.47475171D+05 0.47475171D+05 0.11945169D+01  1  2 12  7  6  2       21 0.420133292218D-05 0.100000000000D+01
0.850860600557D-07 0.000000000000D+00 0.000000000000D+00 0.874426765798D-07 0.000000000000D+00  6 3 -4 25 23 3 -4 4 0.68393014D-01 0.16423440D-01 0.47475171D+05 0.47475171D+05 0.47475171D+05 0.11945169D+01  1  2 12  7  6  2       21 0.245295037200D-05 0.100000000000D+01
-.584060848504D-06 0.000000000000D+00 -.198067136510D-06 0.888057974730D-07 0.000000000000D+00  6 3 -2 25 23 3 -2 4 0.68393014D-01 0.17339132D-01 0.38411637D+05 0.38411637D+05 0.38411637D+05 0.12037914D+01  1  2  5  7  6  2       21 -.270066424865D-04 0.100000000000D+01
-.584060848504D-06 0.000000000000D+00 -.198067136510D-06 0.888057974730D-07 0.000000000000D+00  6 3 -4 25 23 3 -4 4 0.68393014D-01 0.17339132D-01 0.38411637D+05 0.38411637D+05 0.38411637D+05 0.12037914D+01  1  2  5  7  6  2       21 -.155772565795D-04 0.100000000000D+01
0.850860600557D-07 0.000000000000D+00 0.000000000000D+00 0.874426765798D-07 0.000000000000D+00  6 3 2 25 23 3 2 4 0.68393014D-01 0.16423440D-01 0.47475171D+05 0.47475171D+05 0.47475171D+05 0.11945169D+01  1  2 12  8  6  2       21 0.768877798783D-05 0.100000000000D+01
0.850860600557D-07 0.000000000000D+00 0.000000000000D+00 0.874426765798D-07 0.000000000000D+00  6 3 4 25 23 3 4 4 0.68393014D-01 0.16423440D-01 0.47475171D+05 0.47475171D+05 0.47475171D+05 0.11945169D+01  1  2 12  8  6  2       21 0.245295037200D-05 0.100000000000D+01
-.584060848504D-06 0.000000000000D+00 -.198067136510D-06 0.888057974730D-07 0.000000000000D+00  6 3 2 25 23 3 2 4 0.68393014D-01 0.17339132D-01 0.38411637D+05 0.38411637D+05 0.38411637D+05 0.12037914D+01  1  2  5  8  6  2       21 -.507997088087D-04 0.100000000000D+01
-.584060848504D-06 0.000000000000D+00 -.198067136510D-06 0.888057974730D-07 0.000000000000D+00  6 3 4 25 23 3 4 4 0.68393014D-01 0.17339132D-01 0.38411637D+05 0.38411637D+05 0.38411637D+05 0.12037914D+01  1  2  5  8  6  2       21 -.155772565795D-04 0.100000000000D+01
0.850860600557D-07 0.000000000000D+00 0.000000000000D+00 0.874426765798D-07 0.000000000000D+00  6 3 -1 25 23 3 -1 4 0.68393014D-01 0.16423440D-01 0.47475171D+05 0.47475171D+05 0.47475171D+05 0.11945169D+01  1  2 12  9  6  2       21 0.451968225353D-05 0.100000000000D+01
-.584060848504D-06 0.000000000000D+00 -.198067136510D-06 0.888057974730D-07 0.000000000000D+00  6 3 -1 25 23 3 -1 4 0.68393014D-01 0.17339132D-01 0.38411637D+05 0.38411637D+05 0.38411637D+05 0.12037914D+01  1  2  5  9  6  2       21 -.291740474721D-04 0.100000000000D+01
0.850860600557D-07 0.000000000000D+00 0.000000000000D+00 0.874426765798D-07 0.000000000000D+00  6 3 1 25 23 3 1 4 0.68393014D-01 0.16423440D-01 0.47475171D+05 0.47475171D+05 0.47475171D+05 0.11945169D+01  1  2 12 10  6  2       21 0.638704691059D-05 0.100000000000D+01
-.584060848504D-06 0.000000000000D+00 -.198067136510D-06 0.888057974730D-07 0.000000000000D+00  6 3 1 25 23 3 1 4 0.68393014D-01 0.17339132D-01 0.38411637D+05 0.38411637D+05 0.38411637D+05 0.12037914D+01  1  2  5 10  6  2       21 -.419060975643D-04 0.100000000000D+01
  </mgrwgt>
  </event>
  <event>
  6     66 0.36102257E-03 0.55907015E+02 0.75467711E-02 0.11834770E+00
        3 -1    0    0  502    0 0.00000000E+00 0.00000000E+00 0.23984171E+03 0.23984223E+03 0.50000000E+00 0.0000E+00 0.9000E+01
       21 -1    0    0  501  502 0.00000000E+00 0.00000000E+00 -.18065642E+03 0.18065798E+03 0.75000000E+00 0.0000E+00 0.9000E+01
       25  1    1    2    0    0 0.61316203E+02 0.30213732E+02 0.13668767E+03 0.19743623E+03 0.12500000E+03 0.0000E+00 0.9000E+01
       23  1    1    2    0    0 -.13297020E+02 -.65178086E+02 -.94175810E+02 0.14700112E+03 0.91188000E+02 0.0000E+00 0.9000E+01
        3  1    1    2  503    0 0.78340246E+01 0.10341601E+02 0.90635724E+00 0.13015073E+02 0.50000000E+00 0.0000E+00 0.9000E+01
       21  1    1    2  501  503 -.55853207E+02 0.24622753E+02 0.15767068E+02 0.63047789E+02 0.75000000E+00 0.0000E+00 0.9000E+01
#aMCatNLO 2  0  0  5  2 0.11997336D+02 0.00000000D+00  -5  6  0 0.00000000D+00 0.00000000D+00 0.00000000D+00 0.00000000D+00 0.00000000D+00
  <mgrwgt>
 0.3398606179D-02    2    2    0
 0.208157108390296D+03 0.000000000000000D+00 0.000000000000000D+00 0.208157108390296D+03
 0.208157108390296D+03 -.000000000000000D+00 -.000000000000000D+00 -.208157108390296D+03
 0.180846770089548D+03 0.665508570116901D+02 0.264022069606400D+02 0.109336458468523D+03
 0.163387217968596D+03 -.857854163496325D+01 -.686137664337829D+02 -.116613426888610D+03
 0.720802287224471D+02 -.579723153767268D+02 0.422115594731428D+02 0.727696842008725D+01
 0.000000000000000D+00 0.000000000000000D+00 -.000000000000000D+00 0.000000000000000D+00
 0.208157108390296D+03 0.000000000000000D+00 0.000000000000000D+00 0.208157108390296D+03
 0.208157108390296D+03 -.000000000000000D+00 -.000000000000000D+00 -.208157108390296D+03
 0.180044194558081D+03 0.616995886182913D+02 0.299345758677191D+02 0.109945413392381D+03
 0.161972031061712D+03 -.129521757680922D+02 -.654291788228755D+02 -.116064426951985D+03
 0.120082994235991D+02 0.738924920815764D+01 0.942438429310219D+01 -.882741118608819D+00
 0.622896917371996D+02 -.561366620583568D+02 0.260702186620542D+02 0.700175467821323D+01
-.114921370295D-05 0.000000000000D+00 0.000000000000D+00 0.624576096393D-07 0.000000000000D+00  6 3 21 25 23 3 21 4 0.36898884D-01 0.27793456D-01 0.27130135D+05 0.27130135D+05 0.27130135D+05 0.12195085D+01  1  2 13  3  6  5        3 -.112136442507D-02 0.100000000000D+01
0.463222484977D-05 0.000000000000D+00 0.000000000000D+00 0.624352578580D-07 0.888341464250D-09  6 3 21 25 23 3 21 4 0.36898884D-01 0.27793456D-01 0.27130135D+05 0.27130135D+05 0.27130135D+05 0.12195085D+01  1  2  1  3  6  5        3 0.451997060436D-02 0.100000000000D+01
  </mgrwgt>
  </event>
  <event>
  5     66 -.36102257E-03 0.31725139E+02 0.75467711E-02 0.12151940E+00
        1 -1    0    0  502    0 0.00000000E+00 0.00000000E+00 0.22672490E+03 0.22672513E+03 0.32000000E+00 0.0000E+00 0.9000E+01
       21 -1    0    0  501  502 0.00000000E+00 0.00000000E+00 -.87235580E+02 0.87238804E+02 0.75000000E+00 0.0000E+00 0.9000E+01
       25  1    1    2    0    0 -.22580556E+02 -.68870566E+02 0.71143353E+02 0.16105717E+03 0.12500000E+03 0.0000E+00 0.9000E+01
       23  1    1    2    0    0 0.22618035E+02 0.37146624E+02 0.35098830E+02 0.10695151E+03 0.91188000E+02 0.0000E+00 0.9000E+01
        1  1    1    2  501    0 -.37478838E-01 0.31723942E+02 0.33247139E+02 0.45955245E+02 0.32000000E+00 0.0000E+00 0.9000E+01
#aMCatNLO 1  0  0  5  2 0.10456112D+02 0.00000000D+00  -5  6  0 0.00000000D+00 0.00000000D+00 0.00000000D+00 0.00000000D+00 0.00000000D+00
  <mgrwgt>
 -.2771920025D+00    7    2    0
 0.140637903962795D+03 0.000000000000000D+00 0.000000000000000D+00 0.140637903962795D+03
 0.140637903962795D+03 -.000000000000000D+00 -.000000000000000D+00 -.140637903962795D+03
 0.144493400796007D+03 -.225805554363714D+02 -.688712549511397D+02 -.460033950560739D+00
 0.101974517021652D+03 0.226180356621560D+02 0.371461380796563D+02 -.138614453197227D+02
 0.348078901079305D+02 -.374802257846338D-01 0.317251168714834D+02 0.143214792702834D+02
 0.000000000000000D+00 0.000000000000000D+00 0.000000000000000D+00 0.000000000000000D+00
 0.140637903962795D+03 0.000000000000000D+00 0.000000000000000D+00 0.140637903962795D+03
 0.140637903962795D+03 -.000000000000000D+00 -.000000000000000D+00 -.140637903962795D+03
 0.142974909282805D+03 -.225843985729861D+02 -.656182340393505D+02 0.100845777297534D+01
 0.102704543990391D+03 0.226152993271721D+02 0.394623073488707D+02 -.128158709153826D+02
 0.194988323374422D+02 -.292538480933895D+01 0.108653562387556D+02 0.159245288798729D+02
 0.160975223149515D+02 0.289448405515302D+01 0.152905704517241D+02 -.411711573746564D+01
0.636357418169D-05 0.000000000000D+00 0.000000000000D+00 0.282623112093D-06 0.000000000000D+00  6 1 21 25 23 1 21 2 0.34881020D-01 0.13421124D-01 0.19216313D+05 0.19216313D+05 0.19216313D+05 0.12357418D+01  1  2  2  3  6  5        1 0.630531388745D-01 0.100000000000D+01
-.173031225612D-06 0.335815035565D-06 -.128462228458D-07 0.282623112093D-06 0.000000000000D+00  6 1 21 25 23 1 21 4 0.34881020D-01 0.13421124D-01 0.19216313D+05 0.19216313D+05 0.19216313D+05 0.12357418D+01  1  2  3  3  6  5        1 -.261809599460D-02 0.100000000000D+01
0.534694769285D-06 0.000000000000D+00 0.000000000000D+00 0.282623112093D-06 0.000000000000D+00  6 1 21 25 23 1 21 4 0.34881020D-01 0.13421124D-01 0.19216313D+05 0.19216313D+05 0.19216313D+05 0.12357418D+01  1  2 15  3  6  5        1 0.809034455397D-02 0.100000000000D+01
0.309437589580D-05 0.000000000000D+00 0.000000000000D+00 0.283516064779D-06 0.000000000000D+00  6 1 21 25 23 1 21 4 0.34881020D-01 0.13421124D-01 0.18453532D+05 0.18453532D+05 0.18453532D+05 0.12376924D+01  1  2 12  3  6  5        1 0.470954556204D-01 0.100000000000D+01
-.284774502791D-04 0.000000000000D+00 0.000000000000D+00 0.282623112093D-06 0.000000000000D+00  6 1 21 25 23 1 21 4 0.34881020D-01 0.13421124D-01 0.19216313D+05 0.19216313D+05 0.19216313D+05 0.12357418D+01  1  2  4  3  6  5        1 -.430885802538D+00 0.100000000000D+01
-.238221098803D-05 0.000000000000D+00 0.000000000000D+00 0.282623112093D-06 0.000000000000D+00  6 1 21 25 23 1 21 4 0.34881020D-01 0.13421124D-01 0.19216313D+05 0.19216313D+05 0.19216313D+05 0.12357418D+01  1  2  5  3  6  5        1 -.360446909164D-01 0.100000000000D+01
0.489847105467D-05 0.000000000000D+00 -.000000000000D+00 0.282623112093D-06 0.000000000000D+00  6 1 21 25 23 1 21 4 0.34881020D-01 0.13421124D-01 0.19216313D+05 0.19216313D+05 0.19216313D+05 0.12357418D+01  1  2  6  3  6  5        1 0.741176478554D-01 0.100000000000D+01
  </mgrwgt>
  </event>
  <event>
  5     66 0.36102257E-03 0.23654116E+02 0.75467711E-02 0.10148256E+00
        1 -1    0    0  502    0 0.00000000E+00 0.00000000E+00 0.23739826E+04 0.23739826E+04 0.32000000E+00 0.0000E+00 0.9000E+01
       21 -1    0    0  501  502 0.00000000E+00 0.00000000E+00 -.15918046E+02 0.15935705E+02 0.75000000E+00 0.0000E+00 0.9000E+01
       25  1    1    2    0    0 0.36180824E+02 0.16350761E+02 0.13728321E+04 0.13790828E+04 0.12500000E+03 0.0000E+00 0.9000E+01
       23  1    1    2    0    0 -.42064539E+02 0.65598624E+01 0.98178513E+03 0.98692946E+03 0.91188000E+02 0.0000E+00 0.9000E+01
        1  1    1    2  501    0 0.58837146E+01 -.22910624E+02 0.34473494E+01 0.23906095E+02 0.32000000E+00 0.0000E+00 0.9000E+01
#aMCatNLO 1  0  0  2  2 0.43368617D+02 0.00000000D+00  -5  6  0 0.00000000D+00 0.00000000D+00 0.00000000D+00 0.00000000D+00 0.00000000D+00
  <mgrwgt>
 0.4573309920D+00   12    2    0
 0.194448688811948D+03 0.000000000000000D+00 0.000000000000000D+00 0.194448688811948D+03
 0.194448688811948D+03 0.000000000000000D+00 0.000000000000000D+00 -.194448688811948D+03
 0.150858767658604D+03 0.361808167403598D+02 0.163507898895109D+02 0.745450732742419D+02
 0.112029810355046D+03 -.420645441720078D+02 0.655988366823816D+01 0.492236641672280D+02
 0.126008799610246D+03 0.588372743164806D+01 -.229106735577491D+02 -.123768737441470D+03
 0.000000000000000D+00 -.000000000000000D+00 -.000000000000000D+00 -.000000000000000D+00
 0.415218718740507D+03 0.000000000000000D+00 0.000000000000000D+00 0.415218718740507D+03
 0.766053321689894D+03 0.000000000000000D+00 0.000000000000000D+00 -.766053321689894D+03
 0.266122645326609D+03 0.999868174656225D+02 0.199102814493583D+03 0.745450732742419D+02
 0.164497876917484D+03 0.249394208003444D+00 0.127754721458115D+03 0.492236641672280D+02
 0.171933265738570D+03 0.514744685192059D+02 0.107669524891398D+03 -.123768737441470D+03
 0.578718252447740D+03 -.151710680192832D+03 -.434527060843096D+03 -.350834602949387D+03
0.280959361684D-04 0.000000000000D+00 0.000000000000D+00 0.622561827914D-05 0.000000000000D+00  6 1 21 25 23 1 21 2 0.36522945D+00 0.24502902D-02 0.16313004D+05 0.16313004D+05 0.16313004D+05 0.12436893D+01  1  2  2  2  6  2       21 0.869040345413D-01 0.100000000000D+01
0.635315273350D-05 0.148266328548D-05 -.567176003261D-07 0.622561827914D-05 0.000000000000D+00  6 1 21 25 23 1 21 4 0.36522945D+00 0.24502902D-02 0.16313004D+05 0.16313004D+05 0.16313004D+05 0.12436893D+01  1  2  3  2  6  2       21 0.303955167527D-01 0.100000000000D+01
0.208706978277D-05 0.000000000000D+00 0.000000000000D+00 0.622561827914D-05 0.000000000000D+00  6 1 21 25 23 1 21 4 0.36522945D+00 0.24502902D-02 0.16313004D+05 0.16313004D+05 0.16313004D+05 0.12436893D+01  1  2 15  2  6  2       21 0.998521005358D-02 0.100000000000D+01
0.797549793957D-02 0.000000000000D+00 -.251707207884D-02 0.622561827914D-05 0.000000000000D+00  6 1 21 25 23 1 21 4 0.36522945D+00 0.42504013D-01 0.16313004D+05 0.16313004D+05 0.16313004D+05 0.12436893D+01  1  2  5  2  6  2       21 0.242138296960D+00 0.100000000000D+01
0.353093940183D-02 0.000000000000D+00 -.111280852012D-02 0.622561827914D-05 0.000000000000D+00  6 1 -1 25 23 1 -1 4 0.36522945D+00 0.42504013D-01 0.16313004D+05 0.16313004D+05 0.16313004D+05 0.12436893D+01  1  2  5  5  6  2       21 0.100777166577D-01 0.100000000000D+01
0.353093940183D-02 0.000000000000D+00 -.111280852012D-02 0.622561827914D-05 0.000000000000D+00  6 1 1 25 23 1 1 4 0.36522945D+00 0.42504013D-01 0.16313004D+05 0.16313004D+05 0.16313004D+05 0.12436893D+01  1  2  5  6  6  2       21 0.209612654196D-01 0.100000000000D+01
0.353093940183D-02 0.000000000000D+00 -.111280852012D-02 0.622561827914D-05 0.000000000000D+00  6 1 -2 25 23 1 -2 4 0.36522945D+00 0.42504013D-01 0.16313004D+05 0.16313004D+05 0.16313004D+05 0.12436893D+01  1  2  5  7  6  2       21 0.844290633701D-02 0.100000000000D+01
0.353093940183D-02 0.000000000000D+00 -.111280852012D-02 0.622561827914D-05 0.000000000000D+00  6 1 -4 25 23 1 -4 4 0.36522945D+00 0.42504013D-01 0.16313004D+05 0.16313004D+05 0.16313004D+05 0.12436893D+01  1  2  5  7  6  2       21 0.435143913967D-02 0.100000000000D+01
0.353093940183D-02 0.000000000000D+00 -.111280852012D-02 0.622561827914D-05 0.000000000000D+00  6 1 2 25 23 1 2 4 0.36522945D+00 0.42504013D-01 0.16313004D+05 0.16313004D+05 0.16313004D+05 0.12436893D+01  1  2  5  8  6  2       21 0.291734613669D-01 0.100000000000D+01
0.353093940183D-02 0.000000000000D+00 -.111280852012D-02 0.622561827914D-05 0.000000000000D+00  6 1 4 25 23 1 4 4 0.36522945D+00 0.42504013D-01 0.16313004D+05 0.16313004D+05 0.16313004D+05 0.12436893D+01  1  2  5  8  6  2       21 0.435143913967D-02 0.100000000000D+01
0.353093940183D-02 0.000000000000D+00 -.111280852012D-02 0.622561827914D-05 0.000000000000D+00  6 1 -3 25 23 1 -3 4 0.36522945D+00 0.42504013D-01 0.16313004D+05 0.16313004D+05 0.16313004D+05 0.12436893D+01  1  2  5  9  6  2       21 0.527421945035D-02 0.100000000000D+01
0.353093940183D-02 0.000000000000D+00 -.111280852012D-02 0.622561827914D-05 0.000000000000D+00  6 1 3 25 23 1 3 4 0.36522945D+00 0.42504013D-01 0.16313004D+05 0.16313004D+05 0.16313004D+05 0.12436893D+01  1  2  5 10  6  2       21 0.527548617061D-02 0.100000000000D+01
  </mgrwgt>
  </event>
  <event>
  5     66 0.36102257E-03 0.13146263E+03 0.75467711E-02 0.11311692E+00
        1 -1    0    0  502    0 0.00000000E+00 0.00000000E+00 0.33198777E+03 0.33198793E+03 0.32000000E+00 0.0000E+00 0.9000E+01
       21 -1    0    0  501  502 0.00000000E+00 0.00000000E+00 -.20555270E+03 0.20555407E+03 0.75000000E+00 0.0000E+00 0.9000E+01
       25  1    1    2    0    0 0.80019852E+02 0.27943150E+02 0.10462387E+03 0.18372575E+03 0.12500000E+03 0.0000E+00 0.9000E+01
       23  1    1    2    0    0 -.34369701E+02 0.10787277E+03 0.11287114E+03 0.18404607E+03 0.91188000E+02 0.0000E+00 0.9000E+01
        1  1    1    2  501    0 -.45650151E+02 -.13581592E+03 -.91059933E+02 0.16977018E+03 0.32000000E+00 0.0000E+00 0.9000E+01
#aMCatNLO 1  0  0  2  5 0.71577989D+01 0.00000000D+00  -5  6  0 0.00000000D+00 0.00000000D+00 0.00000000D+00 0.00000000D+00 0.00000000D+00
  <mgrwgt>
 0.2842918471D-01   41    2    0
 0.261230536404176D+03 0.000000000000000D+00 0.000000000000000D+00 0.261230536404176D+03
 0.261230536404176D+03 0.000000000000000D+00 0.000000000000000D+00 -.261230536404176D+03
 0.163710187495552D+03 0.800198713661738D+02 0.279432062887005D+02 0.631824572067032D+02
 0.162043942291617D+03 -.343696823102308D+02 0.107872825802483D+03 0.715902666616760D+02
 0.196706943021183D+03 -.456501890559430D+02 -.135816032091183D+03 -.134772723868379D+03
 0.000000000000000D+00 0.000000000000000D+00 0.000000000000000D+00 -.000000000000000D+00
 0.261621090014309D+03 0.000000000000000D+00 0.000000000000000D+00 0.261621090014309D+03
 0.296247280397827D+03 0.000000000000000D+00 0.000000000000000D+00 -.296247280397827D+03
 0.162648171126365D+03 0.783366624329277D+02 0.264720983479562D+02 0.631824572067032D+02
 0.161441141506840D+03 -.360380721903632D+02 0.106414669567424D+03 0.715902666616760D+02
 0.198420789360192D+03 -.476880793423324D+02 -.137597128022567D+03 -.134772723868379D+03
 0.353582684187387D+02 0.538948909976788D+01 0.471036010718726D+01 -.346261903835187D+02
0.926091540725D-06 0.000000000000D+00 0.000000000000D+00 0.240788673099D-06 0.000000000000D+00  6 1 21 25 23 1 21 2 0.51075159D-01 0.31623610D-01 0.48329932D+05 0.48329932D+05 0.48329932D+05 0.11937457D+01  1  2  2  2  6  2       21 0.106331757537D-02 0.100000000000D+01
-.386929491958D-07 0.488711932643D-07 -.186951200192D-08 0.240788673099D-06 0.000000000000D+00  6 1 21 25 23 1 21 4 0.51075159D-01 0.31623610D-01 0.48329932D+05 0.48329932D+05 0.48329932D+05 0.11937457D+01  1  2  3  2  6  2       21 -.633088664869D-04 0.100000000000D+01
0.741163482683D-07 0.000000000000D+00 0.000000000000D+00 0.240788673099D-06 0.000000000000D+00  6 1 21 25 23 1 21 4 0.51075159D-01 0.31623610D-01 0.48329932D+05 0.48329932D+05 0.48329932D+05 0.11937457D+01  1  2 15  2  6  2       21 0.121268140437D-03 0.100000000000D+01
0.506578592954D-04 0.000000000000D+00 0.000000000000D+00 0.240187192796D-06 0.000000000000D+00  6 1 21 25 23 1 21 4 0.51075159D-01 0.35884351D-01 0.50032526D+05 0.50032526D+05 0.50032526D+05 0.11922538D+01  1  2 12  2  6  2       21 0.641337522728D-01 0.100000000000D+01
0.484027594758D-04 0.000000000000D+00 0.000000000000D+00 0.240187192796D-06 0.000000000000D+00  6 1 21 25 23 1 21 4 0.51075159D-01 0.36069957D-01 0.50032526D+05 0.50032526D+05 0.50032526D+05 0.11922538D+01  1  2 12  2  6  2       21 0.606500763632D-01 0.100000000000D+01
-.837089531649D-04 0.000000000000D+00 0.000000000000D+00 0.240788673099D-06 0.000000000000D+00  6 1 21 25 23 1 21 4 0.51075159D-01 0.31623610D-01 0.48329932D+05 0.48329932D+05 0.48329932D+05 0.11937457D+01  1  2  4  2  6  2       21 -.136963427441D+00 0.100000000000D+01
-.111684026926D-03 0.000000000000D+00 -.244965679895D-05 0.240788673099D-06 0.000000000000D+00  6 1 21 25 23 1 21 4 0.51075159D-01 0.35889369D-01 0.48329932D+05 0.48329932D+05 0.48329932D+05 0.11937457D+01  1  2  5  2  6  2       21 -.142199531136D+00 0.100000000000D+01
0.108997373894D-03 0.000000000000D+00 0.237295550613D-05 0.240788673099D-06 0.000000000000D+00  6 1 21 25 23 1 21 4 0.51075159D-01 0.31623610D-01 0.48329932D+05 0.48329932D+05 0.48329932D+05 0.11937457D+01  1  2  6  2  6  2       21 0.178339990482D+00 0.100000000000D+01
0.279077843867D-05 0.000000000000D+00 0.000000000000D+00 0.240788673099D-06 0.690337481321D-07  6 1 21 25 23 1 21 4 0.51151519D-01 0.35862608D-01 0.50032526D+05 0.50032526D+05 0.50032526D+05 0.11922538D+01  1  2 11  2  6  2       21 0.353078871024D-02 0.100000000000D+01
0.159476107362D-05 0.000000000000D+00 0.000000000000D+00 0.240187192796D-06 0.000000000000D+00  6 1 -1 25 23 1 -1 4 0.51075159D-01 0.35884351D-01 0.50032526D+05 0.50032526D+05 0.50032526D+05 0.11922538D+01  1  2 12  5  6  2       21 0.186703219412D-03 0.100000000000D+01
0.159268644363D-05 0.000000000000D+00 0.000000000000D+00 0.240187192796D-06 0.000000000000D+00  6 1 -1 25 23 1 -1 4 0.51075159D-01 0.36069957D-01 0.50032526D+05 0.50032526D+05 0.50032526D+05 0.11922538D+01  1  2 12  5  6  2       21 0.184790299310D-03 0.100000000000D+01
-.345337130957D-05 0.000000000000D+00 -.818670005916D-07 0.240788673099D-06 0.000000000000D+00  6 1 -1 25 23 1 -1 4 0.51075159D-01 0.35889369D-01 0.48329932D+05 0.48329932D+05 0.48329932D+05 0.11937457D+01  1  2  5  5  6  2       21 -.406248539764D-03 0.100000000000D+01
0.119074024670D-06 0.000000000000D+00 0.000000000000D+00 0.240788673099D-06 0.293853164020D-08  6 1 -1 25 23 1 -1 4 0.51151519D-01 0.35862608D-01 0.50032526D+05 0.50032526D+05 0.50032526D+05 0.11922538D+01  1  2 11  5  6  2       21 0.139287659413D-04 0.100000000000D+01
0.159476107362D-05 0.000000000000D+00 0.000000000000D+00 0.240187192796D-06 0.000000000000D+00  6 1 1 25 23 1 1 4 0.51075159D-01 0.35884351D-01 0.50032526D+05 0.50032526D+05 0.50032526D+05 0.11922538D+01  1  2 12  6  6  2       21 0.356525681770D-03 0.100000000000D+01
0.159268644363D-05 0.000000000000D+00 0.000000000000D+00 0.240187192796D-06 0.000000000000D+00  6 1 1 25 23 1 1 4 0.51075159D-01 0.36069957D-01 0.50032526D+05 0.50032526D+05 0.50032526D+05 0.11922538D+01  1  2 12  6  6  2       21 0.353761992355D-03 0.100000000000D+01
-.345337130957D-05 0.000000000000D+00 -.818670005916D-07 0.240788673099D-06 0.000000000000D+00  6 1 1 25 23 1 1 4 0.51075159D-01 0.35889369D-01 0.48329932D+05 0.48329932D+05 0.48329932D+05 0.11937457D+01  1  2  5  6  6  2       21 -.775796821611D-03 0.100000000000D+01
0.106575890778D-06 0.000000000000D+00 0.000000000000D+00 0.240788673099D-06 0.129607223296D-08  6 1 1 25 23 1 1 4 0.51151519D-01 0.35862608D-01 0.50032526D+05 0.50032526D+05 0.50032526D+05 0.11922538D+01  1  2 11  6  6  2       21 0.237993663724D-04 0.100000000000D+01
0.159476107362D-05 0.000000000000D+00 0.000000000000D+00 0.240187192796D-06 0.000000000000D+00  6 1 -2 25 23 1 -2 4 0.51075159D-01 0.35884351D-01 0.50032526D+05 0.50032526D+05 0.50032526D+05 0.11922538D+01  1  2 12  7  6  2       21 0.160481703140D-03 0.100000000000D+01
0.159476107362D-05 0.000000000000D+00 0.000000000000D+00 0.240187192796D-06 0.000000000000D+00  6 1 -4 25 23 1 -4 4 0.51075159D-01 0.35884351D-01 0.50032526D+05 0.50032526D+05 0.50032526D+05 0.11922538D+01  1  2 12  7  6  2       21 0.868229573000D-04 0.100000000000D+01
0.159268644363D-05 0.000000000000D+00 0.000000000000D+00 0.240187192796D-06 0.000000000000D+00  6 1 -2 25 23 1 -2 4 0.51075159D-01 0.36069957D-01 0.50032526D+05 0.50032526D+05 0.50032526D+05 0.11922538D+01  1  2 12  7  6  2       21 0.158730926683D-03 0.100000000000D+01
0.159268644363D-05 0.000000000000D+00 0.000000000000D+00 0.240187192796D-06 0.000000000000D+00  6 1 -4 25 23 1 -4 4 0.51075159D-01 0.36069957D-01 0.50032526D+05 0.50032526D+05 0.50032526D+05 0.11922538D+01  1  2 12  7  6  2       21 0.858389774823D-04 0.100000000000D+01
-.345337130957D-05 0.000000000000D+00 -.818670005916D-07 0.240788673099D-06 0.000000000000D+00  6 1 -2 25 23 1 -2 4 0.51075159D-01 0.35889369D-01 0.48329932D+05 0.48329932D+05 0.48329932D+05 0.11937457D+01  1  2  5  7  6  2       21 -.349164126528D-03 0.100000000000D+01
-.345337130957D-05 0.000000000000D+00 -.818670005916D-07 0.240788673099D-06 0.000000000000D+00  6 1 -4 25 23 1 -4 4 0.51075159D-01 0.35889369D-01 0.48329932D+05 0.48329932D+05 0.48329932D+05 0.11937457D+01  1  2  5  7  6  2       21 -.188710644231D-03 0.100000000000D+01
0.104855098772D-06 0.000000000000D+00 0.000000000000D+00 0.240788673099D-06 0.254387460467D-08  6 1 -2 25 23 1 -2 4 0.51151519D-01 0.35862608D-01 0.50032526D+05 0.50032526D+05 0.50032526D+05 0.11922538D+01  1  2 11  7  6  2       21 0.105437002729D-04 0.100000000000D+01
0.104855098772D-06 0.000000000000D+00 0.000000000000D+00 0.240788673099D-06 0.254387460467D-08  6 1 -4 25 23 1 -4 4 0.51151519D-01 0.35862608D-01 0.50032526D+05 0.50032526D+05 0.50032526D+05 0.11922538D+01  1  2 11  7  6  2       21 0.570458431161D-05 0.100000000000D+01
0.159476107362D-05 0.000000000000D+00 0.000000000000D+00 0.240187192796D-06 0.000000000000D+00  6 1 2 25 23 1 2 4 0.51075159D-01 0.35884351D-01 0.50032526D+05 0.50032526D+05 0.50032526D+05 0.11922538D+01  1  2 12  8  6  2       21 0.483360525887D-03 0.100000000000D+01
0.159476107362D-05 0.000000000000D+00 0.000000000000D+00 0.240187192796D-06 0.000000000000D+00  6 1 4 25 23 1 4 4 0.51075159D-01 0.35884351D-01 0.50032526D+05 0.50032526D+05 0.50032526D+05 0.11922538D+01  1  2 12  8  6  2       21 0.868229573000D-04 0.100000000000D+01
0.159268644363D-05 0.000000000000D+00 0.000000000000D+00 0.240187192796D-06 0.000000000000D+00  6 1 2 25 23 1 2 4 0.51075159D-01 0.36069957D-01 0.50032526D+05 0.50032526D+05 0.50032526D+05 0.11922538D+01  1  2 12  8  6  2       21 0.480035842983D-03 0.100000000000D+01
0.159268644363D-05 0.000000000000D+00 0.000000000000D+00 0.240187192796D-06 0.000000000000D+00  6 1 4 25 23 1 4 4 0.51075159D-01 0.36069957D-01 0.50032526D+05 0.50032526D+05 0.50032526D+05 0.11922538D+01  1  2 12  8  6  2       21 0.858389774823D-04 0.100000000000D+01
-.345337130957D-05 0.000000000000D+00 -.818670005916D-07 0.240788673099D-06 0.000000000000D+00  6 1 2 25 23 1 2 4 0.51075159D-01 0.35889369D-01 0.48329932D+05 0.48329932D+05 0.48329932D+05 0.11937457D+01  1  2  5  8  6  2       21 -.105172390052D-02 0.100000000000D+01
-.345337130957D-05 0.000000000000D+00 -.818670005916D-07 0.240788673099D-06 0.000000000000D+00  6 1 4 25 23 1 4 4 0.51075159D-01 0.35889369D-01 0.48329932D+05 0.48329932D+05 0.48329932D+05 0.11937457D+01  1  2  5  8  6  2       21 -.188710644231D-03 0.100000000000D+01
0.103952297662D-06 0.000000000000D+00 0.000000000000D+00 0.240788673099D-06 0.252197187564D-08  6 1 2 25 23 1 2 4 0.51151519D-01 0.35862608D-01 0.50032526D+05 0.50032526D+05 0.50032526D+05 0.11922538D+01  1  2 11  8  6  2       21 0.314684979983D-04 0.100000000000D+01
0.103952297662D-06 0.000000000000D+00 0.000000000000D+00 0.240788673099D-06 0.252197187564D-08  6 1 4 25 23 1 4 4 0.51151519D-01 0.35862608D-01 0.50032526D+05 0.50032526D+05 0.50032526D+05 0.11922538D+01  1  2 11  8  6  2       21 0.565546791090D-05 0.100000000000D+01
0.159476107362D-05 0.000000000000D+00 0.000000000000D+00 0.240187192796D-06 0.000000000000D+00  6 1 -3 25 23 1 -3 4 0.51075159D-01 0.35884351D-01 0.50032526D+05 0.50032526D+05 0.50032526D+05 0.11922538D+01  1  2 12  9  6  2       21 0.103273042792D-03 0.100000000000D+01
0.159268644363D-05 0.000000000000D+00 0.000000000000D+00 0.240187192796D-06 0.000000000000D+00  6 1 -3 25 23 1 -3 4 0.51075159D-01 0.36069957D-01 0.50032526D+05 0.50032526D+05 0.50032526D+05 0.11922538D+01  1  2 12  9  6  2       21 0.102124125746D-03 0.100000000000D+01
-.345337130957D-05 0.000000000000D+00 -.818670005916D-07 0.240788673099D-06 0.000000000000D+00  6 1 -3 25 23 1 -3 4 0.51075159D-01 0.35889369D-01 0.48329932D+05 0.48329932D+05 0.48329932D+05 0.11937457D+01  1  2  5  9  6  2       21 -.224540360190D-03 0.100000000000D+01
0.108061384216D-06 0.000000000000D+00 0.000000000000D+00 0.240788673099D-06 0.262166183878D-08  6 1 -3 25 23 1 -3 4 0.51151519D-01 0.35862608D-01 0.50032526D+05 0.50032526D+05 0.50032526D+05 0.11922538D+01  1  2 11  9  6  2       21 0.699272802557D-05 0.100000000000D+01
0.159476107362D-05 0.000000000000D+00 0.000000000000D+00 0.240187192796D-06 0.000000000000D+00  6 1 3 25 23 1 3 4 0.51075159D-01 0.35884351D-01 0.50032526D+05 0.50032526D+05 0.50032526D+05 0.11922538D+01  1  2 12 10  6  2       21 0.103286776068D-03 0.100000000000D+01
0.159268644363D-05 0.000000000000D+00 0.000000000000D+00 0.240187192796D-06 0.000000000000D+00  6 1 3 25 23 1 3 4 0.51075159D-01 0.36069957D-01 0.50032526D+05 0.50032526D+05 0.50032526D+05 0.11922538D+01  1  2 12 10  6  2       21 0.102138044803D-03 0.100000000000D+01
-.345337130957D-05 0.000000000000D+00 -.818670005916D-07 0.240788673099D-06 0.000000000000D+00  6 1 3 25 23 1 3 4 0.51075159D-01 0.35889369D-01 0.48329932D+05 0.48329932D+05 0.48329932D+05 0.11937457D+01  1  2  5 10  6  2       21 -.224570100558D-03 0.100000000000D+01
0.109620943944D-06 0.000000000000D+00 0.000000000000D+00 0.240788673099D-06 0.265949809505D-08  6 1 3 25 23 1 3 4 0.51151519D-01 0.35862608D-01 0.50032526D+05 0.50032526D+05 0.50032526D+05 0.11922538D+01  1  2 11 10  6  2       21 0.709458879833D-05 0.100000000000D+01
  </mgrwgt>
  </event>
</LesHouchesEvents>
