<event>
 5    0  0.2159162E+000  0.2597395E+03  0.7546771E-02  0.1107300E+00
         21   -1    0    0  502  501  0.00000000000E+00  0.00000000000E+00  0.57148686203E+03  0.57148686203E+03  0.00000000000E+00 0.  1.
         21   -1    0    0  503  502 -0.00000000000E+00 -0.00000000000E+00 -0.16798180043E+03  0.16798180043E+03  0.00000000000E+00 0. -1.
         25    1    1    2    0    0  0.22420796049E+03  0.39628449213E+02  0.43265607669E+03  0.50463442633E+03  0.12500000000E+03 0.  0.
         21    1    1    2  503  504 -0.11932574294E+03 -0.46135371917E+02 -0.16065378543E+02  0.12893875235E+03  0.00000000000E+00 0. -1.
         21    1    1    2  504  501 -0.10488221755E+03  0.65069227037E+01 -0.13085636544E+02  0.10589548378E+03  0.00000000000E+00 0. -1.
<mgrwt>
<rscale>  4 0.25973953E+03</rscale>
<asrwt>0</asrwt>
<pdfrwt beam="1">  1       21 0.87921055E-01 0.25973953E+03</pdfrwt>
<pdfrwt beam="2">  1       21 0.25843354E-01 0.25973953E+03</pdfrwt>
<totfact> 0.15167223E+04</totfact>
</mgrwt>
</event>
<event>
 5    0  0.2159162E+000  0.2457721E+03  0.7546771E-02  0.1116006E+00
         21   -1    0    0  502  501  0.00000000000E+00  0.00000000000E+00  0.15660136615E+04  0.15660136615E+04  0.00000000000E+00 0.  1.
         21   -1    0    0  503  502 -0.00000000000E+00 -0.00000000000E+00 -0.46867815911E+02  0.46867815911E+02  0.00000000000E+00 0.  1.
         25    1    1    2    0    0  0.14512697147E+03  0.15400353998E+03  0.37206620272E+03  0.44591163629E+03  0.12500000000E+03 0.  0.
         21    1    1    2  503  504 -0.19380119593E+02 -0.26808558462E+02  0.25497068395E+03  0.25710763800E+03  0.00000000000E+00 0.  1.
         21    1    1    2  504  501 -0.12574685188E+03 -0.12719498152E+03  0.89210895889E+03  0.90986220309E+03  0.00000000000E+00 0.  1.
<mgrwt>
<rscale>  4 0.24577211E+03</rscale>
<asrwt>0</asrwt>
<pdfrwt beam="1">  1       21 0.24092514E+00 0.24577211E+03</pdfrwt>
<pdfrwt beam="2">  1       21 0.72104344E-02 0.24577211E+03</pdfrwt>
<totfact> 0.10341107E+04</totfact>
</mgrwt>
</event>
<event>
 5    0  0.2159162E+000  0.2001822E+03  0.7546771E-02  0.1149585E+00
         21   -1    0    0  502  501  0.00000000000E+00  0.00000000000E+00  0.43751045981E+03  0.43751045981E+03  0.00000000000E+00 0.  1.
         21   -1    0    0  503  502 -0.00000000000E+00 -0.00000000000E+00 -0.52694198998E+03  0.52694198998E+03  0.00000000000E+00 0.  1.
         25    1    1    2    0    0 -0.11573385116E+03  0.19794641701E+03  0.23178743742E+03  0.34918122008E+03  0.12500000000E+03 0.  0.
         21    1    1    2  503  504  0.17555348153E+02 -0.80269619870E+02  0.12155727783E+03  0.14672277913E+03  0.00000000000E+00 0.  1.
         21    1    1    2  504  501  0.98178503005E+02 -0.11767679714E+03 -0.44277624541E+03  0.46854845058E+03  0.00000000000E+00 0.  1.
<mgrwt>
<rscale>  4 0.20018218E+03</rscale>
<asrwt>0</asrwt>
<pdfrwt beam="1">  1       21 0.67309301E-01 0.20018218E+03</pdfrwt>
<pdfrwt beam="2">  1       21 0.81067999E-01 0.20018218E+03</pdfrwt>
<totfact> 0.26780206E+03</totfact>
</mgrwt>
</event>
<event>
 5    0  0.3785794E+000  0.3331400E+03  0.7546771E-02  0.1069756E+00
         21   -1    0    0  502  501  0.00000000000E+00  0.00000000000E+00  0.10007614604E+03  0.10007614604E+03  0.00000000000E+00 0. -1.
         21   -1    0    0  503  502 -0.00000000000E+00 -0.00000000000E+00 -0.11019407097E+04  0.11019407097E+04  0.00000000000E+00 0. -1.
         25    1    1    2    0    0 -0.74185060939E+00 -0.30879877961E+03 -0.38750513222E+03  0.51102100165E+03  0.12500000000E+03 0.  0.
         21    1    1    2  503  504  0.20164923186E+02  0.30955307595E+02 -0.89235363019E+02  0.96580563306E+02  0.00000000000E+00 0. -1.
         21    1    1    2  504  501 -0.19423072576E+02  0.27784347202E+03 -0.52512406843E+03  0.59441529080E+03  0.00000000000E+00 0. -1.
<mgrwt>
<rscale>  4 0.33313997E+03</rscale>
<asrwt>0</asrwt>
<pdfrwt beam="1">  1       21 0.15396331E-01 0.33313997E+03</pdfrwt>
<pdfrwt beam="2">  1       21 0.16952934E+00 0.33313997E+03</pdfrwt>
<totfact> 0.73618925E+03</totfact>
</mgrwt>
</event>
<event>
 5    0  0.2159162E+000  0.2645323E+03  0.7546771E-02  0.1104450E+00
         21   -1    0    0  502  501  0.00000000000E+00  0.00000000000E+00  0.36682452092E+02  0.36682452092E+02  0.00000000000E+00 0.  1.
         21   -1    0    0  503  502 -0.00000000000E+00 -0.00000000000E+00 -0.17462621549E+04  0.17462621549E+04  0.00000000000E+00 0.  1.
         25    1    1    2    0    0  0.13809364915E+03 -0.18783626719E+03 -0.10112982692E+04  0.10453236382E+04  0.12500000000E+03 0.  0.
         21    1    1    2  503  504 -0.41877009714E+02  0.54472272592E+02 -0.14569652031E+03  0.16108503486E+03  0.00000000000E+00 0. -1.
         21    1    1    2  504  501 -0.96216639441E+02  0.13336399460E+03 -0.55258491327E+03  0.57653593395E+03  0.00000000000E+00 0.  1.
<mgrwt>
<rscale>  4 0.26453226E+03</rscale>
<asrwt>0</asrwt>
<pdfrwt beam="1">  1       21 0.56434558E-02 0.26453226E+03</pdfrwt>
<pdfrwt beam="2">  1       21 0.26865564E+00 0.26453226E+03</pdfrwt>
<totfact> 0.10655415E+04</totfact>
</mgrwt>
</event>
<event>
 5    0  0.2159162E+000  0.5453297E+03  0.7546771E-02  0.1002581E+00
         21   -1    0    0  502  501  0.00000000000E+00  0.00000000000E+00  0.15897205750E+04  0.15897205750E+04  0.00000000000E+00 0.  1.
         21   -1    0    0  503  502 -0.00000000000E+00 -0.00000000000E+00 -0.27542003276E+03  0.27542003276E+03  0.00000000000E+00 0.  1.
         25    1    1    2    0    0  0.51838782847E+03  0.11416458892E+03  0.11891238475E+04  0.13082048841E+04  0.12500000000E+03 0.  0.
         21    1    1    2  503  504 -0.46155105865E+03 -0.10025721956E+03  0.14672632815E+03  0.49458013019E+03  0.00000000000E+00 0.  1.
         21    1    1    2  504  501 -0.56836769825E+02 -0.13907369362E+02 -0.21549633465E+02  0.62355593407E+02  0.00000000000E+00 0. -1.
<mgrwt>
<rscale>  4 0.54532971E+03</rscale>
<asrwt>0</asrwt>
<pdfrwt beam="1">  1       21 0.24457239E+00 0.54532971E+03</pdfrwt>
<pdfrwt beam="2">  1       21 0.42372314E-01 0.54532971E+03</pdfrwt>
<totfact> 0.29444490E+02</totfact>
</mgrwt>
</event>
<event>
 5    0  0.2159162E+000  0.2462053E+03  0.7546771E-02  0.1115727E+00
         21   -1    0    0  502  501  0.00000000000E+00  0.00000000000E+00  0.28918739814E+03  0.28918739814E+03  0.00000000000E+00 0.  1.
         21   -1    0    0  503  502 -0.00000000000E+00 -0.00000000000E+00 -0.19292544808E+03  0.19292544808E+03  0.00000000000E+00 0.  1.
         25    1    1    2    0    0  0.21148622787E+03 -0.16297968529E+02  0.82027316689E+02  0.25951017137E+03  0.12500000000E+03 0.  0.
         21    1    1    2  503  504 -0.13408617306E+03  0.19157178896E+02  0.39573290019E+02  0.14111039859E+03  0.00000000000E+00 0.  1.
         21    1    1    2  504  501 -0.77400054818E+02 -0.28592103671E+01 -0.25338656645E+02  0.81492276262E+02  0.00000000000E+00 0.  1.
<mgrwt>
<rscale>  4 0.24620530E+03</rscale>
<asrwt>0</asrwt>
<pdfrwt beam="1">  1       21 0.44490369E-01 0.24620530E+03</pdfrwt>
<pdfrwt beam="2">  1       21 0.29680838E-01 0.24620530E+03</pdfrwt>
<totfact> 0.51537127E+04</totfact>
</mgrwt>
</event>
<event>
 5    0  0.2159162E+000  0.2372015E+03  0.7546771E-02  0.1121671E+00
         21   -1    0    0  502  501  0.00000000000E+00  0.00000000000E+00  0.46070107991E+03  0.46070107991E+03  0.00000000000E+00 0.  1.
         21   -1    0    0  503  502 -0.00000000000E+00 -0.00000000000E+00 -0.64191458983E+03  0.64191458983E+03  0.00000000000E+00 0.  1.
         25    1    1    2    0    0  0.21265838959E+03 -0.36858638216E+02  0.35287091218E+03  0.43211691767E+03  0.12500000000E+03 0.  0.
         21    1    1    2  503  504 -0.88889049015E+02 -0.96125186472E+02 -0.45302821165E+03  0.47156746607E+03  0.00000000000E+00 0.  1.
         21    1    1    2  504  501 -0.12376934057E+03  0.13298382469E+03 -0.81056210462E+02  0.19893128600E+03  0.00000000000E+00 0.  1.
<mgrwt>
<rscale>  4 0.23720153E+03</rscale>
<asrwt>0</asrwt>
<pdfrwt beam="1">  1       21 0.70877090E-01 0.23720153E+03</pdfrwt>
<pdfrwt beam="2">  1       21 0.98756090E-01 0.23720153E+03</pdfrwt>
<totfact> 0.14658680E+03</totfact>
</mgrwt>
</event>
<event>
 5    0  0.2159162E+000  0.4079376E+03  0.7546771E-02  0.1041065E+00
         21   -1    0    0  502  501  0.00000000000E+00  0.00000000000E+00  0.88950524650E+03  0.88950524650E+03  0.00000000000E+00 0.  1.
         21   -1    0    0  503  502 -0.00000000000E+00 -0.00000000000E+00 -0.49335888089E+03  0.49335888089E+03  0.00000000000E+00 0. -1.
         25    1    1    2    0    0 -0.38923421092E+03  0.44638522151E+02  0.73783402198E+03  0.84470107885E+03  0.12500000000E+03 0.  0.
         21    1    1    2  503  504  0.34087294789E+02  0.33138076872E+02 -0.16310005437E+02  0.50260243555E+02  0.00000000000E+00 0.  1.
         21    1    1    2  504  501  0.35514691613E+03 -0.77776599022E+02 -0.32537765093E+03  0.48790280499E+03  0.00000000000E+00 0. -1.
<mgrwt>
<rscale>  4 0.40793755E+03</rscale>
<asrwt>0</asrwt>
<pdfrwt beam="1">  1       21 0.13684696E+00 0.40793755E+03</pdfrwt>
<pdfrwt beam="2">  1       21 0.75901366E-01 0.40793755E+03</pdfrwt>
<totfact> 0.50012040E+02</totfact>
</mgrwt>
</event>
