<LesHouchesEvents version="3.0">
  <!--
  <scalesfunctionalform>
    muR  H_T/2 := sum_i mT(i)/2, i=final state
    muF1 H_T/2 := sum_i mT(i)/2, i=final state
    muF2 H_T/2 := sum_i mT(i)/2, i=final state
    QES  H_T/2 := sum_i mT(i)/2, i=final state
  </scalesfunctionalform>
HERWIG6   
  -->
  <header>
      120
  </header>
  <init>
   2212   2212 0.65000000D+04 0.65000000D+04 -1 -1   244800   244800 -4   1
 0.11992523D-03 0.50675055D-05 0.20411069D-05     66
  </init>
  <event>
  6     66 -.20411069E-05 0.32994011E+02 0.75467711E-02 0.91334188E-01
       -4 -1    0    0    0  501 0.00000000E+00 0.00000000E+00 0.56552229E+03 0.56552441E+03 0.15500000E+01 0.0000E+00 0.9000E+01
        2 -1    0    0  502    0 -.00000000E+00 -.00000000E+00 -.19024531E+04 0.19024531E+04 0.32000000E+00 0.0000E+00 0.9000E+01
       25  1    1    2    0    0 0.47737968E+03 0.46837175E+03 -.79919632E+03 0.10495729E+04 0.12500000E+03 0.0000E+00 0.9000E+01
        1  1    1    2  503    0 -.40804343E+03 -.40479287E+03 -.82323929E+03 0.10040317E+04 0.32000000E+00 0.0000E+00 0.9000E+01
       -3  1    1    2    0  501 -.24766253E+02 -.34544610E+02 0.33739280E+03 0.34006006E+03 0.50000000E+00 0.0000E+00 0.9000E+01
       21  1    1    2  502  503 -.44570000E+02 -.29034271E+02 -.51887991E+02 0.74312852E+02 0.75000000E+00 0.0000E+00 0.9000E+01
#aMCatNLO 2  0  0  4  2 0.16466628D+02 0.00000000D+00  -5  6  0 0.00000000D+00 0.00000000D+00 0.00000000D+00 0.00000000D+00 0.00000000D+00
  <mgrwgt>
 -.2349439872D-03    5    2    0
 0.103724745331065D+04 0.000000000000000D+00 0.000000000000000D+00 0.103724745331065D+04
 0.103724745331065D+04 -.000000000000000D+00 -.000000000000000D+00 -.103724745331065D+04
 0.734269600742455D+03 0.478077801521503D+03 0.469040297554050D+03 -.273805882948594D+03
 0.718040518066102D+03 -.453834981883657D+03 -.435000170664040D+03 -.346973840981641D+03
 0.622184787812736D+03 -.242428196378455D+02 -.340401268900093D+02 0.620779723930234D+03
 0.000000000000000D+00 -.000000000000000D+00 0.000000000000000D+00 0.000000000000000D+00
 0.103724745331065D+04 0.000000000000000D+00 0.000000000000000D+00 0.103724745331065D+04
 0.103724745331065D+04 -.000000000000000D+00 -.000000000000000D+00 -.103724745331065D+04
 0.733672461407481D+03 0.477466999206408D+03 0.468454844422593D+03 -.274272864194661D+03
 0.664037583907119D+03 -.408136439076768D+03 -.404899658892580D+03 -.332305320703134D+03
 0.621837689242403D+03 -.247604502914028D+02 -.345362751192706D+02 0.620383975908940D+03
 0.549471720642897D+02 -.445701098382370D+02 -.290189104107431D+02 -.138057910111451D+02
-.120580480945D-02 0.000000000000D+00 0.000000000000D+00 0.134891086452D-04 0.000000000000D+00  6 -4 2 25 1 -3 21 2 0.87003595D-01 0.29268526D+00 0.45634419D+06 0.45634419D+06 0.45634419D+06 0.10713259D+01  1  2 13  3  6  4        1 -.676538890342D-03 0.100000000000D+01
-.675692588250D-03 0.000000000000D+00 0.000000000000D+00 0.134891086452D-04 0.000000000000D+00  6 -4 2 25 1 -3 21 2 0.87003595D-01 0.29268526D+00 0.45680168D+06 0.45680168D+06 0.45680168D+06 0.10712949D+01  1  2  8  3  6  4        1 -.379070843252D-03 0.100000000000D+01
-.408538388619D-03 0.000000000000D+00 0.000000000000D+00 0.134891086452D-04 0.000000000000D+00  6 -4 2 25 1 -3 21 2 0.87003595D-01 0.29268526D+00 0.45680168D+06 0.45680168D+06 0.45680168D+06 0.10712949D+01  1  2  9  3  6  4        1 -.229194450505D-03 0.100000000000D+01
0.440993685949D-03 0.000000000000D+00 0.000000000000D+00 0.134891086452D-04 0.000000000000D+00  6 -4 2 25 1 -3 21 2 0.87003595D-01 0.29268526D+00 0.45680168D+06 0.45680168D+06 0.45680168D+06 0.10712949D+01  1  2 10  3  6  4        1 0.247402223006D-03 0.100000000000D+01
0.143023216861D-02 0.000000000000D+00 0.000000000000D+00 0.134891086452D-04 0.171933060247D-06  6 -4 2 25 1 -3 21 2 0.87003595D-01 0.29268526D+00 0.45634419D+06 0.45634419D+06 0.45634419D+06 0.10713259D+01  1  2  1  3  6  4        1 0.802457973876D-03 0.100000000000D+01
  </mgrwgt>
  </event>
  <event>
  6     66 0.20411069E-05 0.77837465E+02 0.75467711E-02 0.88657281E-01
       -2 -1    0    0    0  501 0.00000000E+00 0.00000000E+00 0.20111548E+04 0.20111549E+04 0.32000000E+00 0.0000E+00 0.9000E+01
       21 -1    0    0  502  503 0.00000000E+00 0.00000000E+00 -.40523114E+03 0.40523183E+03 0.75000000E+00 0.0000E+00 0.9000E+01
       25  1    1    2    0    0 0.71421272E+03 -.10704371E+03 0.86486892E+03 0.11336584E+04 0.12500000E+03 0.0000E+00 0.9000E+01
        3  1    1    2  502    0 0.95663900E+02 -.42548850E+02 0.17543243E+03 0.20430070E+03 0.50000000E+00 0.0000E+00 0.9000E+01
       -1  1    1    2    0  501 -.85553643E+03 0.12295639E+03 0.52080976E+03 0.10091104E+04 0.32000000E+00 0.0000E+00 0.9000E+01
       -4  1    1    2    0  503 0.45659813E+02 0.26636169E+02 0.44812594E+02 0.69317206E+02 0.15500000E+01 0.0000E+00 0.9000E+01
#aMCatNLO 2  0  0  2  1 0.52861177D+02 0.00000000D+00  -5  6  0 0.00000000D+00 0.00000000D+00 0.00000000D+00 0.00000000D+00 0.00000000D+00
  <mgrwgt>
 0.7930871441D-01    1    2    0
 0.875909959487165D+03 0.000000000000000D+00 0.000000000000000D+00 0.875909959487165D+03
 0.875909959487165D+03 0.000000000000000D+00 0.000000000000000D+00 -.875909959487165D+03
 0.765617304880331D+03 0.734341247713926D+03 -.957716256466334D+02 0.148713096797751D+03
 0.118715335144860D+03 0.983627170414716D+02 -.405288420678466D+02 0.526832008842999D+02
 0.867487278949139D+03 -.832703964755397D+03 0.136300467714480D+03 -.201396297682051D+03
 0.000000000000000D+00 0.000000000000000D+00 0.000000000000000D+00 -.000000000000000D+00
 0.901887959163895D+03 0.000000000000000D+00 0.000000000000000D+00 0.901887959163895D+03
 0.903618828048169D+03 0.000000000000000D+00 0.000000000000000D+00 -.903618828048169D+03
 0.748281949638509D+03 0.714616438190065D+03 -.107278316840713D+03 0.148713096797751D+03
 0.116821857946950D+03 0.952938693254474D+02 -.423190891648961D+02 0.526832008842999D+02
 0.887513473086561D+03 -.855570120112043D+03 0.122961236825255D+03 -.201396297682051D+03
 0.528895065400442D+02 0.456598125965311D+02 0.266361691803549D+02 -.173086888427338D+01
0.137907903831D+00 0.000000000000D+00 0.000000000000D+00 0.510500458996D-10 0.862239242405D-09  6 -2 21 25 3 -1 -4 2 0.30940460D+00 0.62342524D-01 0.76987076D+06 0.76987076D+06 0.76987076D+06 0.10555095D+01  1  2  1  6  6  2        4 0.793087144134D-01 0.100000000000D+01
  </mgrwgt>
  </event>
  <event>
  5     66 0.20411069E-05 0.11427454E+03 0.75467711E-02 0.93185209E-01
       -4 -1    0    0    0  501 0.00000000E+00 0.00000000E+00 0.15732557E+03 0.15733320E+03 0.15500000E+01 0.0000E+00 0.9000E+01
        2 -1    0    0  502    0 0.00000000E+00 0.00000000E+00 -.36732302E+04 0.36732303E+04 0.32000000E+00 0.0000E+00 0.9000E+01
       25  1    1    2    0    0 0.44867680E+03 0.20505794E+03 -.62043807E+03 0.80245126E+03 0.12500000E+03 0.0000E+00 0.9000E+01
        1  1    1    2  502    0 -.11354010E+03 0.12585193E+02 -.23455884E+04 0.23483686E+04 0.32000000E+00 0.0000E+00 0.9000E+01
       -3  1    1    2    0  501 -.33513670E+03 -.21764313E+03 -.54987816E+03 0.67974362E+03 0.50000000E+00 0.0000E+00 0.9000E+01
#aMCatNLO 1  0  0  2  4 0.11161366D+03 0.00000000D+00  -5  6  0 0.00000000D+00 0.00000000D+00 0.00000000D+00 0.00000000D+00 0.00000000D+00
  <mgrwgt>
 0.3991432519D-02    7    2    0
 0.760202395690133D+03 0.000000000000000D+00 0.000000000000000D+00 0.760202395690133D+03
 0.760202395690133D+03 0.000000000000000D+00 0.000000000000000D+00 -.760202395690133D+03
 0.586987552000928D+03 0.448569668159781D+03 0.204961453255365D+03 0.292754917448904D+03
 0.492620969209109D+03 -.113579254272499D+03 0.125866762713843D+02 -.479183417788914D+03
 0.440796270170228D+03 -.334990413887282D+03 -.217548129526750D+03 0.186428500340010D+03
 0.000000000000000D+00 -.000000000000000D+00 -.000000000000000D+00 -.000000000000000D+00
 0.805961707966133D+03 0.000000000000000D+00 0.000000000000000D+00 0.805961707966133D+03
 0.833493563164615D+03 0.000000000000000D+00 0.000000000000000D+00 -.833493563164615D+03
 0.613712571010037D+03 0.463213652724450D+03 0.246466610426054D+03 0.292754917448904D+03
 0.492043727987568D+03 -.101570081998107D+03 0.466240368365610D+02 -.479183417788914D+03
 0.418739794510378D+03 -.324507336037340D+03 -.187836148346152D+03 0.186428500340010D+03
 0.114959177622766D+03 -.371362346890026D+02 -.105254498916463D+03 -.275318551984818D+02
0.167132301779D-02 0.000000000000D+00 0.000000000000D+00 0.158230885491D-05 0.000000000000D+00  6 -4 2 25 1 -3 21 0 0.24204522D-01 0.56511293D+00 0.26136549D+06 0.26136549D+06 0.26136549D+06 0.10890095D+01  1  2  2  2  6  2        2 0.117067773164D-02 0.100000000000D+01
0.265920549682D-03 0.000000000000D+00 -.641832045778D-05 0.158230885491D-05 0.000000000000D+00  6 -4 2 25 1 -3 21 2 0.24204522D-01 0.56511293D+00 0.26136549D+06 0.26136549D+06 0.26136549D+06 0.10890095D+01  1  2  3  2  6  2        2 0.220898220680D-03 0.100000000000D+01
-.999108331588D-03 0.000000000000D+00 0.000000000000D+00 0.158230885491D-05 0.000000000000D+00  6 -4 2 25 1 -3 21 2 0.24204522D-01 0.56511293D+00 0.26136549D+06 0.26136549D+06 0.26136549D+06 0.10890095D+01  1  2 15  2  6  2        2 -.829951852081D-03 0.100000000000D+01
-.230123314802D-03 0.000000000000D+00 0.000000000000D+00 0.158230885491D-05 0.000000000000D+00  6 -4 2 25 1 -3 21 2 0.24204522D-01 0.56511293D+00 0.26136549D+06 0.26136549D+06 0.26136549D+06 0.10890095D+01  1  2  4  2  6  2        2 -.191161724198D-03 0.100000000000D+01
-.789949422912D-02 0.000000000000D+00 -.183394634710D-02 0.158230885491D-05 0.000000000000D+00  6 -4 2 25 1 -3 21 2 0.24204522D-01 0.62751869D+00 0.26136549D+06 0.26136549D+06 0.26136549D+06 0.10890095D+01  1  2  5  2  6  2        2 -.313549259936D-02 0.100000000000D+01
0.813459995493D-02 0.000000000000D+00 0.188212413186D-02 0.158230885491D-05 0.000000000000D+00  6 -4 2 25 1 -3 21 2 0.24204522D-01 0.56511293D+00 0.26136549D+06 0.26136549D+06 0.26136549D+06 0.10890095D+01  1  2  6  2  6  2        2 0.675735161551D-02 0.100000000000D+01
-.126939165279D-03 0.000000000000D+00 -.310013337196D-04 0.158230885491D-05 0.000000000000D+00  6 -4 21 25 1 -3 -2 2 0.24204522D-01 0.62751869D+00 0.26136549D+06 0.26136549D+06 0.26136549D+06 0.10890095D+01  1  2  5  6  6  2        2 -.888873370920D-06 0.100000000000D+01
  </mgrwgt>
  </event>
  <event>
  5     66 -.20411069E-05 0.45391822E+02 0.75467711E-02 0.93381925E-01
       -4 -1    0    0    0  501 0.00000000E+00 0.00000000E+00 0.28903173E+03 0.28903589E+03 0.15500000E+01 0.0000E+00 0.9000E+01
        2 -1    0    0  502    0 -.00000000E+00 -.00000000E+00 -.14907285E+04 0.14907286E+04 0.32000000E+00 0.0000E+00 0.9000E+01
       25  1    1    2    0    0 0.17146205E+03 0.51022594E+03 -.41373366E+03 0.69031173E+03 0.12500000E+03 0.0000E+00 0.9000E+01
        1  1    1    2  502    0 0.32031762E+02 -.32142664E+02 -.48676305E+03 0.48887376E+03 0.32000000E+00 0.0000E+00 0.9000E+01
       -3  1    1    2    0  501 -.20349381E+03 -.47808327E+03 -.30120008E+03 0.60057896E+03 0.50000000E+00 0.0000E+00 0.9000E+01
#aMCatNLO 1  0  0  4  2 0.12422530D+01 0.00000000D+00  -5  6  0 0.00000000D+00 0.00000000D+00 0.00000000D+00 0.00000000D+00 0.00000000D+00
  <mgrwgt>
 -.3691367486D-02    8    2    0
 0.656408089517627D+03 0.000000000000000D+00 0.000000000000000D+00 0.656408089517627D+03
 0.656408089517627D+03 -.000000000000000D+00 -.000000000000000D+00 -.656408089517627D+03
 0.557095408967567D+03 0.171430598638334D+03 0.510182732411337D+03 0.711015055575082D+02
 0.217292070270751D+03 0.320402733240972D+02 -.321533578816321D+02 -.212498061790695D+03
 0.538428699796935D+03 -.203470871962432D+03 -.478029374529705D+03 0.141396556233186D+03
 0.000000000000000D+00 0.000000000000000D+00 0.000000000000000D+00 -.000000000000000D+00
 0.656408089517627D+03 0.000000000000000D+00 0.000000000000000D+00 0.656408089517627D+03
 0.656408089517627D+03 -.000000000000000D+00 -.000000000000000D+00 -.656408089517627D+03
 0.557088751070352D+03 0.171435166401161D+03 0.510178148526819D+03 0.710712111609068D+02
 0.206128231859157D+03 0.307651081735035D+02 -.316633452192350D+02 -.201344949422583D+03
 0.538423276573450D+03 -.203466457248416D+03 -.478033804825235D+03 0.141367276889589D+03
 0.111759195322944D+02 0.126618267375198D+01 -.480998482348409D+00 -.110935386279125D+02
0.426265894574D-05 0.000000000000D+00 0.000000000000D+00 0.139484073606D-05 0.000000000000D+00  6 -4 2 25 1 -3 21 0 0.44466743D-01 0.22934317D+00 0.31218051D+06 0.31218051D+06 0.31218051D+06 0.10832754D+01  1  2  2  3  6  4        1 0.178585982423D-04 0.100000000000D+01
0.126572365262D-05 0.000000000000D+00 -.163697327355D-07 0.139484073606D-05 0.000000000000D+00  6 -4 2 25 1 -3 21 2 0.44466743D-01 0.22934317D+00 0.31218051D+06 0.31218051D+06 0.31218051D+06 0.10832754D+01  1  2  3  3  6  4        1 0.622276547121D-05 0.100000000000D+01
-.279643133027D-05 0.000000000000D+00 0.000000000000D+00 0.139484073606D-05 0.000000000000D+00  6 -4 2 25 1 -3 21 2 0.44466743D-01 0.22934317D+00 0.31218051D+06 0.31218051D+06 0.31218051D+06 0.10832754D+01  1  2 15  3  6  4        1 -.137482903860D-04 0.100000000000D+01
0.717513877751D-08 0.000000000000D+00 0.000000000000D+00 0.139484073606D-05 0.000000000000D+00  6 -4 2 25 1 -3 21 2 0.44466743D-01 0.22934317D+00 0.31224215D+06 0.31224215D+06 0.31224215D+06 0.10832691D+01  1  2 12  3  6  4        1 0.352750600986D-07 0.100000000000D+01
-.103982350215D-01 0.000000000000D+00 0.000000000000D+00 0.139484073606D-05 0.000000000000D+00  6 -4 2 25 1 -3 21 2 0.44466743D-01 0.22934317D+00 0.31218051D+06 0.31218051D+06 0.31218051D+06 0.10832754D+01  1  2  4  3  6  4        1 -.511215680608D-01 0.100000000000D+01
-.360771145708D-02 0.000000000000D+00 0.000000000000D+00 0.139484073606D-05 0.000000000000D+00  6 -4 2 25 1 -3 21 2 0.44466743D-01 0.22934317D+00 0.31218051D+06 0.31218051D+06 0.31218051D+06 0.10832754D+01  1  2  5  3  6  4        1 -.177368434561D-01 0.100000000000D+01
0.387859306564D-02 0.000000000000D+00 -.000000000000D+00 0.139484073606D-05 0.000000000000D+00  6 -4 2 25 1 -3 21 2 0.44466743D-01 0.22934317D+00 0.31218051D+06 0.31218051D+06 0.31218051D+06 0.10832754D+01  1  2  6  3  6  4        1 0.190685976009D-01 0.100000000000D+01
0.937456535303D-02 0.000000000000D+00 0.000000000000D+00 0.139484073606D-05 0.153058320017D-04  6 -4 2 25 1 -3 21 2 0.44466743D-01 0.22934317D+00 0.31224215D+06 0.31224215D+06 0.31224215D+06 0.10832691D+01  1  2 11  3  6  4        1 0.460880780819D-01 0.100000000000D+01
  </mgrwgt>
  </event>
  <event>
  5     66 0.20411069E-05 0.17311479E+03 0.75467711E-02 0.87563260E-01
       -4 -1    0    0    0  501 0.00000000E+00 0.00000000E+00 0.67228442E+03 0.67228621E+03 0.15500000E+01 0.0000E+00 0.9000E+01
        2 -1    0    0  502    0 0.00000000E+00 0.00000000E+00 -.11824240E+04 0.11824240E+04 0.32000000E+00 0.0000E+00 0.9000E+01
       25  1    1    2    0    0 0.51786118E+03 0.38387313E+03 -.58028072E+03 0.87629304E+03 0.12500000E+03 0.0000E+00 0.9000E+01
        1  1    1    2  502    0 -.60008913E+02 -.16232808E+03 -.30207194E+03 0.34813652E+03 0.32000000E+00 0.0000E+00 0.9000E+01
       -3  1    1    2    0  501 -.45785226E+03 -.22154505E+03 0.37221309E+03 0.63028068E+03 0.50000000E+00 0.0000E+00 0.9000E+01
#aMCatNLO 1  0  0  1  5 0.61715368D+03 0.00000000D+00  -5  6  0 0.00000000D+00 0.00000000D+00 0.00000000D+00 0.00000000D+00 0.00000000D+00
  <mgrwgt>
 0.2626377982D-03    7    4    0
 0.891586747672673D+03 0.000000000000000D+00 0.000000000000000D+00 0.891586747672673D+03
 0.891586747672673D+03 0.000000000000000D+00 0.000000000000000D+00 -.891586747672673D+03
 0.745394060957031D+03 0.517859595093842D+03 0.383900618071571D+03 -.352745037276957D+03
 0.275780033001033D+03 -.600380744582527D+02 -.162370443824530D+03 -.214676256697431D+03
 0.761999401387282D+03 -.457821520635589D+03 -.221530174247041D+03 0.567421293974387D+03
 0.000000000000000D+00 -.000000000000000D+00 -.000000000000000D+00 0.000000000000000D+00
 0.129715294741763D+04 0.000000000000000D+00 0.000000000000000D+00 0.129715294741763D+04
 0.121270345402417D+04 0.000000000000000D+00 0.000000000000000D+00 -.121270345402417D+04
 0.100732863830613D+04 0.785077743893985D+03 0.508241930846420D+03 -.352745037276957D+03
 0.249282559209857D+03 0.200123830121632D+02 -.125121555548071D+03 -.214676256697431D+03
 0.630340412142813D+03 -.245546944840650D+03 -.122755074046763D+03 0.567421293974387D+03
 0.622904791783001D+03 -.559543182065499D+03 -.260365301251585D+03 0.844494933934567D+02
 0.891586747672673D+03 0.000000000000000D+00 0.000000000000000D+00 0.891586747672673D+03
 0.891586747672673D+03 0.000000000000000D+00 0.000000000000000D+00 -.891586747672673D+03
 0.745394060957031D+03 0.517859595093842D+03 0.383900618071571D+03 -.352745037276957D+03
 0.275780033001033D+03 -.600380744582527D+02 -.162370443824530D+03 -.214676256697431D+03
 0.000000000000000D+00 -.000000000000000D+00 -.000000000000000D+00 0.000000000000000D+00
 0.761999401387282D+03 -.457821520635589D+03 -.221530174247041D+03 0.567421293974387D+03
 0.129715294741763D+04 0.000000000000000D+00 0.000000000000000D+00 0.129715294741763D+04
 0.121270345402417D+04 0.000000000000000D+00 0.000000000000000D+00 -.121270345402417D+04
 0.100732863830613D+04 0.785077743893985D+03 0.508241930846420D+03 -.352745037276957D+03
 0.249282559209857D+03 0.200123830121632D+02 -.125121555548071D+03 -.214676256697431D+03
 0.622904791783001D+03 -.559543182065499D+03 -.260365301251585D+03 0.844494933934567D+02
 0.630340412142813D+03 -.245546944840650D+03 -.122755074046763D+03 0.567421293974387D+03
0.301237144809D-03 0.000000000000D+00 0.000000000000D+00 0.156492158250D-06 0.000000000000D+00  6 -4 2 25 1 -3 21 0 0.10342851D+00 0.18191152D+00 0.44780348D+06 0.44780348D+06 0.44780348D+06 0.10719110D+01  1  2  2  1  6  1       -4 0.231084827400D-03 0.100000000000D+01
0.220298479753D-04 0.000000000000D+00 -.115682995363D-05 0.156492158250D-06 0.000000000000D+00  6 -4 2 25 1 -3 21 2 0.10342851D+00 0.18191152D+00 0.44780348D+06 0.44780348D+06 0.44780348D+06 0.10719110D+01  1  2  3  1  6  1       -4 0.194174358420D-04 0.100000000000D+01
-.161709363368D-03 0.000000000000D+00 0.000000000000D+00 0.156492158250D-06 0.000000000000D+00  6 -4 2 25 1 -3 21 2 0.10342851D+00 0.18191152D+00 0.44780348D+06 0.44780348D+06 0.44780348D+06 0.10719110D+01  1  2 15  1  6  1       -4 -.142533039346D-03 0.100000000000D+01
-.981220147761D-05 0.000000000000D+00 0.000000000000D+00 0.156492158250D-06 0.000000000000D+00  6 -4 2 25 1 -3 21 2 0.10342851D+00 0.18191152D+00 0.44780348D+06 0.44780348D+06 0.44780348D+06 0.10719110D+01  1  2  4  1  6  1       -4 -.864862040239D-05 0.100000000000D+01
-.105362019793D-03 0.000000000000D+00 -.162380339705D-03 0.156492158250D-06 0.000000000000D+00  6 -4 2 25 1 -3 21 2 0.19009815D+00 0.18191152D+00 0.44780348D+06 0.44780348D+06 0.44780348D+06 0.10719110D+01  1  2  5  1  6  1       -4 -.131704047013D-04 0.100000000000D+01
0.193312709669D-03 0.000000000000D+00 0.136336856750D-03 0.156492158250D-06 0.000000000000D+00  6 -4 2 25 1 -3 21 2 0.10342851D+00 0.18191152D+00 0.44780348D+06 0.44780348D+06 0.44780348D+06 0.10719110D+01  1  2  6  1  6  1       -4 0.170388699080D-03 0.100000000000D+01
0.189248073565D-05 0.000000000000D+00 -.107937796234D-04 0.156492158250D-06 0.000000000000D+00  6 21 2 25 1 4 -3 2 0.19009815D+00 0.18191152D+00 0.44780348D+06 0.44780348D+06 0.44780348D+06 0.10719110D+01  3  4  5  5  5  1       -4 0.609890034570D-05 0.100000000000D+01
  </mgrwgt>
  </event>
  <event>
  6     66 0.20411069E-05 0.59399363E+02 0.75467711E-02 0.90935722E-01
       -4 -1    0    0    0  501 0.00000000E+00 0.00000000E+00 0.71950376E+03 0.71950543E+03 0.15500000E+01 0.0000E+00 0.9000E+01
        2 -1    0    0  502    0 -.00000000E+00 -.00000000E+00 -.98697513E+03 0.98697518E+03 0.32000000E+00 0.0000E+00 0.9000E+01
       25  1    1    2    0    0 0.23159112E+01 -.60015183E+03 0.37890008E+02 0.61420537E+03 0.12500000E+03 0.0000E+00 0.9000E+01
        1  1    1    2  503    0 -.27725291E+02 0.80913744E+02 -.29231320E+03 0.30456992E+03 0.32000000E+00 0.0000E+00 0.9000E+01
       -3  1    1    2    0  501 0.91737047E+02 0.59587386E+03 -.14619861E+03 0.62036734E+03 0.50000000E+00 0.0000E+00 0.9000E+01
       21  1    1    2  502  503 -.66327667E+02 -.76635776E+02 0.13315043E+03 0.16733798E+03 0.75000000E+00 0.0000E+00 0.9000E+01
#aMCatNLO 2  0  0  4  1 0.18056709D+03 0.00000000D+00  -5  6  0 0.00000000D+00 0.00000000D+00 0.00000000D+00 0.00000000D+00 0.00000000D+00
  <mgrwgt>
 0.5875387496D-03    1    2    0
 0.842694357882604D+03 0.000000000000000D+00 0.000000000000000D+00 0.842694357882604D+03
 0.842694357882604D+03 -.000000000000000D+00 -.000000000000000D+00 -.842694357882604D+03
 0.666855219026651D+03 0.104091523094834D+03 -.604735097824654D+03 0.229197075509021D+03
 0.396707928418374D+03 -.292182823588240D+03 0.133111539060602D+02 -.268009684996066D+03
 0.621825568320182D+03 0.188091300493406D+03 0.591423943918593D+03 0.388126094870457D+02
 0.000000000000000D+00 0.000000000000000D+00 0.000000000000000D+00 0.000000000000000D+00
 0.842694357882604D+03 0.000000000000000D+00 0.000000000000000D+00 0.842694357882604D+03
 0.842694357882604D+03 -.000000000000000D+00 -.000000000000000D+00 -.842694357882604D+03
 0.627835178461592D+03 0.223662477015077D+01 -.600094831120966D+03 0.135768930486455D+03
 0.261742312979486D+03 -.266255479953906D+02 0.811429893441775D+02 -.247418539883508D+03
 0.604864446687526D+03 0.915860765441808D+02 0.595820492192551D+03 -.497084553499350D+02
 0.190946777636605D+03 -.671971533189407D+02 -.768686504157627D+02 0.161358064746988D+03
0.621438530407D-03 0.000000000000D+00 0.000000000000D+00 0.321031396957D-08 0.406509974716D-10  6 -4 2 25 1 -3 21 2 0.11069302D+00 0.15184246D+00 0.49231045D+06 0.49231045D+06 0.49231045D+06 0.10689864D+01  1  2  1  3  6  4        1 0.587538749583D-03 0.100000000000D+01
  </mgrwgt>
  </event>
  <event>
  6     66 0.20411069E-05 0.12808659E+03 0.75467711E-02 0.93833142E-01
       21 -1    0    0  503  501 0.00000000E+00 0.00000000E+00 0.40332911E+03 0.40332981E+03 0.75000000E+00 0.0000E+00 0.9000E+01
        2 -1    0    0  502    0 0.00000000E+00 0.00000000E+00 -.12676172E+04 0.12676173E+04 0.32000000E+00 0.0000E+00 0.9000E+01
       25  1    1    2    0    0 -.28676787E+03 -.43262954E+03 -.89053350E+03 0.10383059E+04 0.12500000E+03 0.0000E+00 0.9000E+01
        1  1    1    2  502    0 0.28755415E+02 0.16144805E+03 -.13947933E+03 0.21528338E+03 0.32000000E+00 0.0000E+00 0.9000E+01
        4  1    1    2  503    0 0.12264953E+03 0.11207775E+03 0.31658308E+02 0.16914189E+03 0.15500000E+01 0.0000E+00 0.9000E+01
       -3  1    1    2    0  501 0.13536293E+03 0.15910374E+03 0.13406639E+03 0.24821597E+03 0.50000000E+00 0.0000E+00 0.9000E+01
#aMCatNLO 2  0  0  1  5 0.69405517D+01 0.00000000D+00  -5  6  0 0.00000000D+00 0.00000000D+00 0.00000000D+00 0.00000000D+00 0.00000000D+00
  <mgrwgt>
 0.1963567039D-01    1    2    0
 0.596886608691572D+03 0.000000000000000D+00 0.000000000000000D+00 0.596886608691572D+03
 0.596886608691572D+03 0.000000000000000D+00 0.000000000000000D+00 -.596886608691572D+03
 0.567759230020646D+03 -.225459533013846D+03 -.376653773626800D+03 -.337676586484029D+03
 0.184387370103145D+03 0.466476528564527D+02 0.177854232137339D+03 -.138047400328945D+02
 0.000000000000000D+00 0.000000000000000D+00 0.000000000000000D+00 0.000000000000000D+00
 0.441626617259352D+03 0.178811880157393D+03 0.198799541489462D+03 0.351481326516924D+03
 0.802370004452251D+03 0.000000000000000D+00 0.000000000000000D+00 0.802370004452251D+03
 0.637191798615324D+03 0.000000000000000D+00 0.000000000000000D+00 -.637191798615324D+03
 0.631757856477164D+03 -.286783821195481D+03 -.432692214006253D+03 -.337676586484029D+03
 0.164674086423470D+03 0.288021835471011D+02 0.161546953282777D+03 -.138047400328945D+02
 0.234282240802727D+03 0.122649527612506D+03 0.112077750015201D+03 0.165178205836927D+03
 0.408847619364214D+03 0.135332110035873D+03 0.159067510708275D+03 0.351481326516924D+03
0.308183547595D-03 0.000000000000D+00 0.000000000000D+00 0.489820081568D-07 0.642248558647D-09  6 21 2 25 1 4 -3 2 0.62050448D-01 0.19501734D+00 0.28784724D+06 0.28784724D+06 0.28784724D+06 0.10858831D+01  1  2  1  5  5  1       -4 0.196356703859D-01 0.100000000000D+01
  </mgrwgt>
  </event>
  <event>
  5     66 0.20411069E-05 0.43634754E+02 0.75467711E-02 0.89477302E-01
       -4 -1    0    0    0  501 0.00000000E+00 0.00000000E+00 0.11797798E+04 0.11797808E+04 0.15500000E+01 0.0000E+00 0.9000E+01
        2 -1    0    0  502    0 -.00000000E+00 -.00000000E+00 -.33779272E+04 0.33779272E+04 0.32000000E+00 0.0000E+00 0.9000E+01
       25  1    1    2    0    0 0.68148183E+03 -.33206450E+03 -.63452845E+03 0.99646158E+03 0.12500000E+03 0.0000E+00 0.9000E+01
        1  1    1    2  502    0 -.72389539E+03 0.34232655E+03 -.24993528E+04 0.26244955E+04 0.32000000E+00 0.0000E+00 0.9000E+01
       -3  1    1    2    0  501 0.42413558E+02 -.10262045E+02 0.93573386E+03 0.93675094E+03 0.50000000E+00 0.0000E+00 0.9000E+01
#aMCatNLO 1  0  0  5  2 0.17307363D+02 0.00000000D+00  -5  6  0 0.00000000D+00 0.00000000D+00 0.00000000D+00 0.00000000D+00 0.00000000D+00
  <mgrwgt>
 0.5384919839D-02    6    2    0
 0.199629971427445D+04 0.000000000000000D+00 0.000000000000000D+00 0.199629971427445D+04
 0.199629971427445D+04 -.000000000000000D+00 -.000000000000000D+00 -.199629971427445D+04
 0.788232296443821D+03 0.681566597597592D+03 -.332104443165169D+03 -.175666630372119D+03
 0.161995084297667D+04 -.723977619511481D+03 0.342365874957057D+03 -.140814869519245D+04
 0.158441628912840D+04 0.424110219138819D+02 -.102614317918865D+02 0.158381532556457D+04
 0.000000000000000D+00 0.000000000000000D+00 0.000000000000000D+00 0.000000000000000D+00
 0.199629971427445D+04 0.000000000000000D+00 0.000000000000000D+00 0.199629971427445D+04
 0.199629971427445D+04 -.000000000000000D+00 -.000000000000000D+00 -.199629971427445D+04
 0.788207273165753D+03 0.681570000680452D+03 -.332105266547890D+03 -.175539544191604D+03
 0.161972034218406D+04 -.723970625986520D+03 0.342364182859669D+03 -.140788752600780D+04
 0.130118586017393D+04 0.186333409466694D+02 -.145230492451265D+02 0.130097137645775D+04
 0.283485953025148D+03 0.237672843593919D+02 0.426413293334881D+01 0.282455693741661D+03
0.117327487764D-01 0.000000000000D+00 0.000000000000D+00 0.336440649082D-03 0.000000000000D+00  6 -4 2 25 1 -3 21 0 0.18150466D+00 0.51968118D+00 0.65035466D+06 0.65035466D+06 0.65035466D+06 0.10605331D+01  1  2  2  4  6  5       -3 0.745411258664D-04 0.100000000000D+01
0.845083818157D-02 0.000000000000D+00 -.450568446052D-04 0.336440649082D-03 0.000000000000D+00  6 -4 2 25 1 -3 21 2 0.18150466D+00 0.51968118D+00 0.65035466D+06 0.65035466D+06 0.65035466D+06 0.10605331D+01  1  2  3  4  6  5       -3 0.603871351824D-04 0.100000000000D+01
-.761962904446D-02 0.000000000000D+00 0.000000000000D+00 0.336440649082D-03 0.000000000000D+00  6 -4 2 25 1 -3 21 2 0.18150466D+00 0.51968118D+00 0.65035466D+06 0.65035466D+06 0.65035466D+06 0.10605331D+01  1  2 15  4  6  5       -3 -.544475659409D-04 0.100000000000D+01
-.434248018371D+00 0.000000000000D+00 0.000000000000D+00 0.336440649082D-03 0.000000000000D+00  6 -4 2 25 1 -3 21 2 0.18150466D+00 0.51968118D+00 0.65035466D+06 0.65035466D+06 0.65035466D+06 0.10605331D+01  1  2  4  4  6  5       -3 -.310300507768D-02 0.100000000000D+01
-.604544109078D+01 0.000000000000D+00 0.000000000000D+00 0.336440649082D-03 0.000000000000D+00  6 -4 2 25 1 -3 21 2 0.18150466D+00 0.51968118D+00 0.65035466D+06 0.65035466D+06 0.65035466D+06 0.10605331D+01  1  2  5  4  6  5       -3 -.431988946590D-01 0.100000000000D+01
0.722201537974D+01 0.000000000000D+00 -.000000000000D+00 0.336440649082D-03 0.000000000000D+00  6 -4 2 25 1 -3 21 2 0.18150466D+00 0.51968118D+00 0.65035466D+06 0.65035466D+06 0.65035466D+06 0.10605331D+01  1  2  6  4  6  5       -3 0.516063388809D-01 0.100000000000D+01
  </mgrwgt>
  </event>
  <event>
  5     66 0.20411069E-05 0.57465717E+02 0.75467711E-02 0.92645266E-01
       -4 -1    0    0    0  501 0.00000000E+00 0.00000000E+00 0.38016964E+03 0.38017280E+03 0.15500000E+01 0.0000E+00 0.9000E+01
        2 -1    0    0  502    0 0.00000000E+00 0.00000000E+00 -.18093629E+04 0.18093630E+04 0.32000000E+00 0.0000E+00 0.9000E+01
       25  1    1    2    0    0 -.23166364E+03 -.43490939E+03 -.10823550E+04 0.11957975E+04 0.12500000E+03 0.0000E+00 0.9000E+01
        1  1    1    2  502    0 -.53657269E+02 0.20580934E+02 -.47187788E+03 0.47536461E+03 0.32000000E+00 0.0000E+00 0.9000E+01
       -3  1    1    2    0  501 0.28532091E+03 0.41432846E+03 0.12503962E+03 0.51837365E+03 0.50000000E+00 0.0000E+00 0.9000E+01
#aMCatNLO 1  0  0  2  5 0.84830860D+03 0.00000000D+00  -5  6  0 0.00000000D+00 0.00000000D+00 0.00000000D+00 0.00000000D+00 0.00000000D+00
  <mgrwgt>
 0.1966419929D-02    4    2    0
 0.829378283762734D+03 0.000000000000000D+00 0.000000000000000D+00 0.829378283762734D+03
 0.829378283762734D+03 0.000000000000000D+00 0.000000000000000D+00 -.829378283762734D+03
 0.645886843242305D+03 -.231667785826948D+03 -.434909807260055D+03 -.398407217344980D+03
 0.220885575391954D+03 -.536543667167019D+02 0.205795427563627D+02 -.213279461665682D+03
 0.791984148891210D+03 0.285322152543650D+03 0.414330264503692D+03 0.611686679010662D+03
 0.000000000000000D+00 0.000000000000000D+00 -.000000000000000D+00 0.000000000000000D+00
 0.950609819366903D+03 0.000000000000000D+00 0.000000000000000D+00 0.950609819366903D+03
 0.857854598654917D+03 0.000000000000000D+00 0.000000000000000D+00 -.857854598654917D+03
 0.646899261289960D+03 -.270056607038635D+03 -.413756900147545D+03 -.398407217344980D+03
 0.225258366116682D+03 -.669024515663212D+02 0.278794675625282D+02 -.213279461665682D+03
 0.790416795033001D+03 0.238333322211590D+03 0.440221925981356D+03 0.611686679010662D+03
 0.145889995582177D+03 0.986257363933660D+02 -.543444933963384D+02 0.927552207119861D+02
0.320838410220D-02 0.000000000000D+00 0.000000000000D+00 0.619522448896D-05 0.000000000000D+00  6 -4 2 25 1 -3 21 0 0.58487882D-01 0.27836377D+00 0.28564002D+06 0.28564002D+06 0.28564002D+06 0.10861314D+01  1  2  2  2  6  2        2 0.484834301093D-02 0.100000000000D+01
0.636072110075D-03 0.000000000000D+00 -.123210397394D-04 0.619522448896D-05 0.000000000000D+00  6 -4 2 25 1 -3 21 2 0.58487882D-01 0.27836377D+00 0.28564002D+06 0.28564002D+06 0.28564002D+06 0.10861314D+01  1  2  3  2  6  2        2 0.113390871205D-02 0.100000000000D+01
-.197657624235D-02 0.000000000000D+00 0.000000000000D+00 0.619522448896D-05 0.000000000000D+00  6 -4 2 25 1 -3 21 2 0.58487882D-01 0.27836377D+00 0.28564002D+06 0.28564002D+06 0.28564002D+06 0.10861314D+01  1  2 15  2  6  2        2 -.352358952032D-02 0.100000000000D+01
-.276125916009D-03 0.000000000000D+00 0.000000000000D+00 0.619522448896D-05 0.000000000000D+00  6 -4 2 25 1 -3 21 2 0.58487882D-01 0.27836377D+00 0.28564002D+06 0.28564002D+06 0.28564002D+06 0.10861314D+01  1  2  4  2  6  2        2 -.492242273834D-03 0.100000000000D+01
  </mgrwgt>
  </event>
  <event>
  5     66 0.20411069E-05 0.11158715E+03 0.75467711E-02 0.91654709E-01
       -4 -1    0    0    0  501 0.00000000E+00 0.00000000E+00 0.65702031E+03 0.65702214E+03 0.15500000E+01 0.0000E+00 0.9000E+01
        2 -1    0    0  502    0 -.00000000E+00 -.00000000E+00 -.18677964E+04 0.18677965E+04 0.32000000E+00 0.0000E+00 0.9000E+01
       25  1    1    2    0    0 -.36836667E+03 0.54049429E+03 -.60472312E+03 0.89952384E+03 0.12500000E+03 0.0000E+00 0.9000E+01
        1  1    1    2  502    0 0.36112564E+03 -.42911963E+03 -.10376379E+04 0.11795117E+04 0.32000000E+00 0.0000E+00 0.9000E+01
       -3  1    1    2    0  501 0.72410283E+01 -.11137466E+03 0.43158490E+03 0.44578304E+03 0.50000000E+00 0.0000E+00 0.9000E+01
#aMCatNLO 1  0  0  4  5 0.14705761D+03 0.00000000D+00  -5  6  0 0.00000000D+00 0.00000000D+00 0.00000000D+00 0.00000000D+00 0.00000000D+00
  <mgrwgt>
 0.3559713989D-03    6    2    0
 0.110778271537036D+04 0.000000000000000D+00 0.000000000000000D+00 0.110778271537036D+04
 0.110778271537036D+04 -.000000000000000D+00 -.000000000000000D+00 -.110778271537036D+04
 0.694674750382484D+03 -.368442600621513D+03 0.540577367026866D+03 -.197418765887450D+03
 0.777180205265622D+03 0.361203041657838D+03 -.429225307429445D+03 -.537872726224280D+03
 0.743710475092607D+03 0.723955896367520D+01 -.111352059597422D+03 0.735291492111730D+03
 0.000000000000000D+00 0.000000000000000D+00 -.000000000000000D+00 0.000000000000000D+00
 0.110778271537036D+04 0.000000000000000D+00 0.000000000000000D+00 0.110778271537036D+04
 0.110778271537036D+04 -.000000000000000D+00 -.000000000000000D+00 -.110778271537036D+04
 0.685107243659843D+03 -.358943437728922D+03 0.529289308393193D+03 -.211564108126086D+03
 0.268104779643545D+03 0.555864443432377D+02 -.330829190218739D+02 -.260184243454484D+03
 0.730879452694327D+03 0.173914307697312D+02 -.123415746206867D+03 0.720174191494491D+03
 0.531473954742997D+03 0.285965562615953D+03 -.372790643164452D+03 -.248425839913920D+03
0.979633171515D-03 0.000000000000D+00 0.000000000000D+00 0.659896442854D-05 0.000000000000D+00  6 -4 2 25 1 -3 21 0 0.10108019D+00 0.28735344D+00 0.44796408D+06 0.44796408D+06 0.44796408D+06 0.10718999D+01  1  2  2  3  6  4        1 0.332379041069D-03 0.100000000000D+01
0.246278281386D-03 0.000000000000D+00 -.376204932195D-05 0.659896442854D-05 0.000000000000D+00  6 -4 2 25 1 -3 21 2 0.10108019D+00 0.28735344D+00 0.44796408D+06 0.44796408D+06 0.44796408D+06 0.10718999D+01  1  2  3  3  6  4        1 0.960074039701D-04 0.100000000000D+01
-.530845740953D-03 0.000000000000D+00 0.000000000000D+00 0.659896442854D-05 0.000000000000D+00  6 -4 2 25 1 -3 21 2 0.10108019D+00 0.28735344D+00 0.44796408D+06 0.44796408D+06 0.44796408D+06 0.10718999D+01  1  2 15  3  6  4        1 -.206941193558D-03 0.100000000000D+01
-.238964511167D-03 0.000000000000D+00 0.000000000000D+00 0.659896442854D-05 0.000000000000D+00  6 -4 2 25 1 -3 21 2 0.10108019D+00 0.28735344D+00 0.44796408D+06 0.44796408D+06 0.44796408D+06 0.10718999D+01  1  2  4  3  6  4        1 -.931562549040D-04 0.100000000000D+01
-.713770183757D-03 0.000000000000D+00 0.000000000000D+00 0.659896442854D-05 0.000000000000D+00  6 -4 2 25 1 -3 21 2 0.10108019D+00 0.28735344D+00 0.44796408D+06 0.44796408D+06 0.44796408D+06 0.10718999D+01  1  2  5  3  6  4        1 -.278251179877D-03 0.100000000000D+01
0.129782129252D-02 0.000000000000D+00 -.000000000000D+00 0.659896442854D-05 0.000000000000D+00  6 -4 2 25 1 -3 21 2 0.10108019D+00 0.28735344D+00 0.44796408D+06 0.44796408D+06 0.44796408D+06 0.10718999D+01  1  2  6  3  6  4        1 0.505933582168D-03 0.100000000000D+01
  </mgrwgt>
  </event>
  <event>
  6     66 0.20411069E-05 0.19802017E+02 0.75467711E-02 0.95015340E-01
       -4 -1    0    0    0  503 0.00000000E+00 0.00000000E+00 0.41012708E+03 0.41013001E+03 0.15500000E+01 0.0000E+00 0.9000E+01
        2 -1    0    0  502    0 0.00000000E+00 0.00000000E+00 -.15036199E+04 0.15036200E+04 0.32000000E+00 0.0000E+00 0.9000E+01
       25  1    1    2    0    0 0.34364528E+03 -.29126733E+03 -.11041590E+03 0.48035967E+03 0.12500000E+03 0.0000E+00 0.9000E+01
        1  1    1    2  502    0 0.17000240E+02 -.15626390E+02 -.95433663E+03 0.95461600E+03 0.32000000E+00 0.0000E+00 0.9000E+01
       -3  1    1    2    0  501 -.35415759E+03 0.30805308E+03 -.33543855E+02 0.47058447E+03 0.50000000E+00 0.0000E+00 0.9000E+01
       21  1    1    2  501  503 -.64879302E+01 -.11593550E+01 0.48035271E+01 0.81898544E+01 0.75000000E+00 0.0000E+00 0.9000E+01
#aMCatNLO 2  0  0  1  5 0.64885770D+01 0.00000000D+00  -5  6  0 0.00000000D+00 0.00000000D+00 0.00000000D+00 0.00000000D+00 0.00000000D+00
  <mgrwgt>
 0.1668180007D+00    1    2    0
 0.778598262337706D+03 0.000000000000000D+00 0.000000000000000D+00 0.778598262337706D+03
 0.778598262337706D+03 0.000000000000000D+00 0.000000000000000D+00 -.778598262337706D+03
 0.508714144682671D+03 0.341439325809389D+03 -.291573270831875D+03 0.203885496118417D+03
 0.495158913513651D+03 0.149418069743596D+02 -.159994117439691D+02 -.494674752600340D+03
 0.553323466479091D+03 -.356381132783749D+03 0.307572682575844D+03 0.290789256481922D+03
 0.000000000000000D+00 -.000000000000000D+00 -.000000000000000D+00 0.000000000000000D+00
 0.791126700555876D+03 0.000000000000000D+00 0.000000000000000D+00 0.791126700555876D+03
 0.779472493557601D+03 0.000000000000000D+00 0.000000000000000D+00 -.779472493557601D+03
 0.509924199220893D+03 0.343561352389251D+03 -.291194077151451D+03 0.203885496118417D+03
 0.495213690476340D+03 0.170049503875360D+02 -.156307401394240D+02 -.494674752600340D+03
 0.552072582205287D+03 -.354078372622970D+03 0.307984172285156D+03 0.290789256481922D+03
 0.133887222109583D+02 -.648793015381628D+01 -.115935499428118D+01 0.116542069982752D+02
0.749554177423D-01 0.000000000000D+00 0.000000000000D+00 0.282868886321D-04 0.641145454962D-05  6 -4 2 25 1 -3 21 2 0.63095853D-01 0.23132326D+00 0.23346301D+06 0.23346301D+06 0.23346301D+06 0.10927021D+01  1  2  1  1  6  1       -4 0.166818000737D+00 0.100000000000D+01
  </mgrwgt>
  </event>
  <event>
  5     66 0.20411069E-05 0.59399052E+02 0.75467711E-02 0.93768710E-01
       -4 -1    0    0    0  501 0.00000000E+00 0.00000000E+00 0.13289426E+04 0.13289435E+04 0.15500000E+01 0.0000E+00 0.9000E+01
        2 -1    0    0  502    0 -.00000000E+00 -.00000000E+00 -.13952786E+04 0.13952787E+04 0.32000000E+00 0.0000E+00 0.9000E+01
       25  1    1    2    0    0 0.50246350E+03 0.71752637E+02 0.94815782E+03 0.10827032E+04 0.12500000E+03 0.0000E+00 0.9000E+01
        1  1    1    2  502    0 0.19789406E+02 0.55994377E+02 -.10961027E+04 0.10977105E+04 0.32000000E+00 0.0000E+00 0.9000E+01
       -3  1    1    2    0  501 -.52225290E+03 -.12774701E+03 0.81608833E+02 0.54380846E+03 0.50000000E+00 0.0000E+00 0.9000E+01
#aMCatNLO 1  0  0  5  4 0.75379080D+02 0.00000000D+00  -5  6  0 0.00000000D+00 0.00000000D+00 0.00000000D+00 0.00000000D+00 0.00000000D+00
  <mgrwgt>
 0.2015869546D-02    6    2    0
 0.136170718785345D+04 0.000000000000000D+00 0.000000000000000D+00 0.136170718785345D+04
 0.136170718785345D+04 -.000000000000000D+00 -.000000000000000D+00 -.136170718785345D+04
 0.110620928006344D+04 0.502179846668214D+03 0.716739932369813D+02 0.975065234531638D+03
 0.107154086343775D+04 0.197926805025091D+02 0.560044385185788D+02 -.106989325387240D+04
 0.545664232205705D+03 -.521972527170723D+03 -.127678431755560D+03 0.948280193407575D+02
 0.000000000000000D+00 -.000000000000000D+00 0.000000000000000D+00 0.000000000000000D+00
 0.136170718785345D+04 0.000000000000000D+00 0.000000000000000D+00 0.136170718785345D+04
 0.136170718785345D+04 -.000000000000000D+00 -.000000000000000D+00 -.136170718785345D+04
 0.109976203212625D+04 0.480684351615174D+03 0.664160324146796D+02 0.978970373431720D+03
 0.106732212432847D+04 -.104889550466989D+01 0.509064312454095D+02 -.106610691403682D+04
 0.825552907209956D+02 -.109014455327486D+02 -.530073642209823D+02 0.623438356990387D+02
 0.473774928531184D+03 -.468734010577756D+03 -.643150994391068D+02 0.247927049060643D+02
0.326942019992D-01 0.000000000000D+00 0.000000000000D+00 0.698897037441D-05 0.000000000000D+00  6 -4 2 25 1 -3 21 0 0.20445277D+00 0.21465833D+00 0.31315404D+06 0.31315404D+06 0.31315404D+06 0.10831757D+01  1  2  2  4  6  5       -3 0.207673203931D-02 0.100000000000D+01
0.137414930324D-01 0.000000000000D+00 -.125554344258D-03 0.698897037441D-05 0.000000000000D+00  6 -4 2 25 1 -3 21 2 0.20445277D+00 0.21465833D+00 0.31315404D+06 0.31315404D+06 0.31315404D+06 0.10831757D+01  1  2  3  4  6  5       -3 0.102409791027D-02 0.100000000000D+01
-.223515443634D-01 0.000000000000D+00 0.000000000000D+00 0.698897037441D-05 0.000000000000D+00  6 -4 2 25 1 -3 21 2 0.20445277D+00 0.21465833D+00 0.31315404D+06 0.31315404D+06 0.31315404D+06 0.10831757D+01  1  2 15  4  6  5       -3 -.166577022015D-02 0.100000000000D+01
-.276274194450D-02 0.000000000000D+00 0.000000000000D+00 0.698897037441D-05 0.000000000000D+00  6 -4 2 25 1 -3 21 2 0.20445277D+00 0.21465833D+00 0.31315404D+06 0.31315404D+06 0.31315404D+06 0.10831757D+01  1  2  4  4  6  5       -3 -.205895985632D-03 0.100000000000D+01
-.785610637303D-02 0.000000000000D+00 0.000000000000D+00 0.698897037441D-05 0.000000000000D+00  6 -4 2 25 1 -3 21 2 0.20445277D+00 0.21465833D+00 0.31315404D+06 0.31315404D+06 0.31315404D+06 0.10831757D+01  1  2  5  4  6  5       -3 -.585483840838D-03 0.100000000000D+01
0.184122379641D-01 0.000000000000D+00 -.000000000000D+00 0.698897037441D-05 0.000000000000D+00  6 -4 2 25 1 -3 21 2 0.20445277D+00 0.21465833D+00 0.31315404D+06 0.31315404D+06 0.31315404D+06 0.10831757D+01  1  2  6  4  6  5       -3 0.137218964329D-02 0.100000000000D+01
  </mgrwgt>
  </event>
  <event>
  5     66 -.20411069E-05 0.58748794E+02 0.75467711E-02 0.93869791E-01
       -4 -1    0    0    0  501 0.00000000E+00 0.00000000E+00 0.14430952E+04 0.14430960E+04 0.15500000E+01 0.0000E+00 0.9000E+01
        2 -1    0    0  502    0 0.00000000E+00 0.00000000E+00 -.28061770E+03 0.28061789E+03 0.32000000E+00 0.0000E+00 0.9000E+01
       25  1    1    2    0    0 0.45519337E+03 0.54425414E+02 0.56591677E+03 0.73895191E+03 0.12500000E+03 0.0000E+00 0.9000E+01
        1  1    1    2  502    0 0.57413116E+02 -.12391315E+02 -.10174902E+03 0.11748522E+03 0.32000000E+00 0.0000E+00 0.9000E+01
       -3  1    1    2    0  501 -.51260649E+03 -.42034099E+02 0.69830972E+03 0.86727677E+03 0.50000000E+00 0.0000E+00 0.9000E+01
#aMCatNLO 1  0  0  2  4 0.23577956D+02 0.00000000D+00  -5  6  0 0.00000000D+00 0.00000000D+00 0.00000000D+00 0.00000000D+00 0.00000000D+00
  <mgrwgt>
 -.2412205874D-02    9    2    0
 0.636363833690070D+03 0.000000000000000D+00 0.000000000000000D+00 0.636363833690070D+03
 0.636363833690070D+03 0.000000000000000D+00 0.000000000000000D+00 -.636363833690070D+03
 0.483865968534489D+03 0.455135008511829D+03 0.544252360415278D+02 0.916040021755639D+02
 0.252134708003870D+03 0.574263778732287D+02 -.123948354272181D+02 -.245194800432819D+03
 0.536726990841780D+03 -.512561386385058D+03 -.420304006143097D+02 0.153590798257255D+03
 0.000000000000000D+00 0.000000000000000D+00 0.000000000000000D+00 -.000000000000000D+00
 0.636930394295468D+03 0.000000000000000D+00 0.000000000000000D+00 0.636930394295468D+03
 0.940339836239685D+03 0.000000000000000D+00 0.000000000000000D+00 -.940339836239685D+03
 0.476063334065849D+03 0.447328739093160D+03 0.501697519291791D+02 0.916040021755639D+02
 0.251353797474834D+03 0.533319441349076D+02 -.146268616087408D+02 -.245194800432819D+03
 0.545528914180334D+03 -.521362431578347D+03 -.468281735303373D+02 0.153590798257255D+03
 0.304324184814134D+03 0.207017483502796D+02 0.112852832098990D+02 -.303409441944217D+03
0.120169548163D-03 0.000000000000D+00 0.000000000000D+00 0.122232088803D-05 0.000000000000D+00  6 -4 2 25 1 -3 21 0 0.22201472D+00 0.43172032D-01 0.27465267D+06 0.27465267D+06 0.27465267D+06 0.10873997D+01  1  2  2  2  6  2        2 0.423849494827D-04 0.100000000000D+01
0.286519228379D-04 0.000000000000D+00 -.461482706316D-06 0.122232088803D-05 0.000000000000D+00  6 -4 2 25 1 -3 21 2 0.22201472D+00 0.43172032D-01 0.27465267D+06 0.27465267D+06 0.27465267D+06 0.10873997D+01  1  2  3  2  6  2        2 0.119494913244D-04 0.100000000000D+01
-.807673761850D-04 0.000000000000D+00 0.000000000000D+00 0.122232088803D-05 0.000000000000D+00  6 -4 2 25 1 -3 21 2 0.22201472D+00 0.43172032D-01 0.27465267D+06 0.27465267D+06 0.27465267D+06 0.10873997D+01  1  2 15  2  6  2        2 -.336846174853D-04 0.100000000000D+01
0.175285280597D-01 0.000000000000D+00 0.000000000000D+00 0.122232088803D-05 0.000000000000D+00  6 -4 2 25 1 -3 21 2 0.22201472D+00 0.67741995D-01 0.28596160D+06 0.28596160D+06 0.28596160D+06 0.10860951D+01  1  2 12  2  6  2        2 0.442072952758D-02 0.100000000000D+01
-.221825751055D-01 0.000000000000D+00 0.000000000000D+00 0.122232088803D-05 0.000000000000D+00  6 -4 2 25 1 -3 21 2 0.22201472D+00 0.43172032D-01 0.27465267D+06 0.27465267D+06 0.27465267D+06 0.10873997D+01  1  2  4  2  6  2        2 -.925140313530D-02 0.100000000000D+01
-.216178838333D-01 0.000000000000D+00 -.955622961559D-04 0.122232088803D-05 0.000000000000D+00  6 -4 2 25 1 -3 21 2 0.22201472D+00 0.63816157D-01 0.27465267D+06 0.27465267D+06 0.27465267D+06 0.10873997D+01  1  2  5  2  6  2        2 -.584830512851D-02 0.100000000000D+01
0.201069297358D-01 0.000000000000D+00 0.887017016502D-04 0.122232088803D-05 0.000000000000D+00  6 -4 2 25 1 -3 21 2 0.22201472D+00 0.43172032D-01 0.27465267D+06 0.27465267D+06 0.27465267D+06 0.10873997D+01  1  2  6  2  6  2        2 0.838574024494D-02 0.100000000000D+01
0.911660935635D-03 0.000000000000D+00 0.000000000000D+00 0.122232088803D-05 0.000000000000D+00  6 -4 21 25 1 -3 -2 2 0.22201472D+00 0.67741995D-01 0.28596160D+06 0.28596160D+06 0.28596160D+06 0.10860951D+01  1  2 12  6  6  2        2 0.505755168904D-03 0.100000000000D+01
-.100848665693D-02 0.000000000000D+00 -.447200410800D-05 0.122232088803D-05 0.000000000000D+00  6 -4 21 25 1 -3 -2 2 0.22201472D+00 0.63816157D-01 0.27465267D+06 0.27465267D+06 0.27465267D+06 0.10873997D+01  1  2  5  6  6  2        2 -.645372374450D-03 0.100000000000D+01
  </mgrwgt>
  </event>
  <event>
  5     66 -.20411069E-05 0.13711635E+03 0.75467711E-02 0.87865350E-01
       -4 -1    0    0    0  501 0.00000000E+00 0.00000000E+00 0.11685645E+04 0.11685655E+04 0.15500000E+01 0.0000E+00 0.9000E+01
        2 -1    0    0  502    0 -.00000000E+00 -.00000000E+00 -.12314347E+04 0.12314348E+04 0.32000000E+00 0.0000E+00 0.9000E+01
       25  1    1    2    0    0 -.49786190E+03 -.78382535E+03 -.10873058E+03 0.94323697E+03 0.12500000E+03 0.0000E+00 0.9000E+01
        1  1    1    2  502    0 0.38760876E+03 0.70219491E+03 -.46546914E+03 0.92735099E+03 0.32000000E+00 0.0000E+00 0.9000E+01
       -3  1    1    2    0  501 0.11025314E+03 0.81630439E+02 0.51132948E+03 0.52941229E+03 0.50000000E+00 0.0000E+00 0.9000E+01
#aMCatNLO 1  0  0  5  1 0.10093568D+03 0.00000000D+00  -5  6  0 0.00000000D+00 0.00000000D+00 0.00000000D+00 0.00000000D+00 0.00000000D+00
  <mgrwgt>
 -.2043883010D-04    4    2    0
 0.119958832098251D+04 0.000000000000000D+00 0.000000000000000D+00 0.119958832098251D+04
 0.119958832098251D+04 -.000000000000000D+00 -.000000000000000D+00 -.119958832098251D+04
 0.940822221557375D+03 -.497914329935655D+03 -.783948980253397D+03 -.838258252601206D+02
 0.915626658386305D+03 0.387715074275135D+03 0.702358438014131D+03 -.441295618919844D+03
 0.542727762021331D+03 0.110199255660520D+03 0.815905422392661D+02 0.525121444179965D+03
 0.000000000000000D+00 0.000000000000000D+00 0.000000000000000D+00 -.000000000000000D+00
 0.119958832098251D+04 0.000000000000000D+00 0.000000000000000D+00 0.119958832098251D+04
 0.119958832098251D+04 -.000000000000000D+00 -.000000000000000D+00 -.119958832098251D+04
 0.927151067266398D+03 -.488555080934278D+03 -.777019476089348D+03 -.392271360712985D+02
 0.904759025944960D+03 0.396835891473183D+03 0.709111409405757D+03 -.397833104854457D+03
 0.466270199564523D+03 -.617045492126496D+01 0.647322369225499D+02 0.461713722983201D+03
 0.100996349189130D+03 0.978896443823592D+02 0.317582976104106D+01 -.246534820574454D+02
0.507614732367D-03 0.000000000000D+00 0.000000000000D+00 0.337164591940D-06 0.000000000000D+00  6 -4 2 25 1 -3 21 0 0.17977923D+00 0.18945158D+00 0.88027789D+06 0.88027789D+06 0.88027789D+06 0.10515704D+01  1  2  2  4  6  5       -3 0.614345562567D-04 0.100000000000D+01
0.103774425815D-03 0.000000000000D+00 -.194937423032D-05 0.337164591940D-06 0.000000000000D+00  6 -4 2 25 1 -3 21 2 0.17977923D+00 0.18945158D+00 0.88027789D+06 0.88027789D+06 0.88027789D+06 0.10515704D+01  1  2  3  4  6  5       -3 0.138881881007D-04 0.100000000000D+01
-.315439362572D-03 0.000000000000D+00 0.000000000000D+00 0.337164591940D-06 0.000000000000D+00  6 -4 2 25 1 -3 21 2 0.17977923D+00 0.18945158D+00 0.88027789D+06 0.88027789D+06 0.88027789D+06 0.10515704D+01  1  2 15  4  6  5       -3 -.422154222232D-04 0.100000000000D+01
-.400104114580D-03 0.000000000000D+00 0.000000000000D+00 0.337164591940D-06 0.000000000000D+00  6 -4 2 25 1 -3 21 2 0.17977923D+00 0.18945158D+00 0.88027789D+06 0.88027789D+06 0.88027789D+06 0.10515704D+01  1  2  4  4  6  5       -3 -.535461522384D-04 0.100000000000D+01
  </mgrwgt>
  </event>
  <event>
  6     66 -.20411069E-05 0.32479721E+02 0.75467711E-02 0.94719807E-01
       -4 -1    0    0    0  501 0.00000000E+00 0.00000000E+00 0.21345867E+03 0.21346430E+03 0.15500000E+01 0.0000E+00 0.9000E+01
        2 -1    0    0  502    0 -.00000000E+00 -.00000000E+00 -.15222616E+04 0.15222616E+04 0.32000000E+00 0.0000E+00 0.9000E+01
       25  1    1    2    0    0 0.38450600E+03 -.24103923E+03 -.29863598E+03 0.55745243E+03 0.12500000E+03 0.0000E+00 0.9000E+01
        1  1    1    2  502    0 -.41583334E+03 0.20534713E+03 -.10197177E+04 0.11202272E+04 0.32000000E+00 0.0000E+00 0.9000E+01
       -3  1    1    2    0  503 0.15631905E+02 0.37800360E+02 0.10263948E+02 0.42176087E+02 0.50000000E+00 0.0000E+00 0.9000E+01
       21  1    1    2  503  501 0.15695433E+02 -.21082620E+01 -.71321816E+00 0.15870179E+02 0.75000000E+00 0.0000E+00 0.9000E+01
#aMCatNLO 2  0  0  5  1 0.13207951D+02 0.00000000D+00  -5  6  0 0.00000000D+00 0.00000000D+00 0.00000000D+00 0.00000000D+00 0.00000000D+00
  <mgrwgt>
 -.1182846662D-02    3    2    0
 0.570039343835102D+03 0.000000000000000D+00 0.000000000000000D+00 0.570039343835102D+03
 0.570039343835102D+03 -.000000000000000D+00 -.000000000000000D+00 -.570039343835102D+03
 0.505701752687101D+03 0.384425556006919D+03 -.241891872921112D+03 0.183887401347383D+03
 0.536514251576023D+03 -.417023444485878D+03 0.204752202079608D+03 -.268357084193553D+03
 0.978626834070801D+02 0.325978884789588D+02 0.371396708415043D+02 0.844696828461696D+02
 0.000000000000000D+00 0.000000000000000D+00 0.000000000000000D+00 0.000000000000000D+00
 0.570039343835102D+03 0.000000000000000D+00 0.000000000000000D+00 0.570039343835102D+03
 0.570039343835102D+03 -.000000000000000D+00 -.000000000000000D+00 -.570039343835102D+03
 0.506610081275155D+03 0.385206324555924D+03 -.241002321840767D+03 0.185910577534186D+03
 0.535163903362924D+03 -.416196888310241D+03 0.205693920262213D+03 -.266215260251317D+03
 0.749545640784530D+02 0.152983875720948D+02 0.373851932129129D+02 0.631386834065937D+02
 0.233501389536725D+02 0.156921761822227D+02 -.207679163435866D+01 0.171659993105370D+02
-.137317481872D-03 0.000000000000D+00 0.000000000000D+00 0.520353869428D-06 0.000000000000D+00  6 -4 2 25 1 -3 21 2 0.32840231D-01 0.23419453D+00 0.24588730D+06 0.24588730D+06 0.24588730D+06 0.10910015D+01  1  2 13  4  6  5       -3 -.125438203464D-02 0.100000000000D+01
-.150162557345D-03 0.000000000000D+00 0.000000000000D+00 0.520353869428D-06 0.000000000000D+00  6 -4 2 25 1 -3 21 2 0.32840231D-01 0.23419453D+00 0.24259424D+06 0.24259424D+06 0.24259424D+06 0.10914429D+01  1  2  8  4  6  5       -3 -.137317115652D-02 0.100000000000D+01
0.158152346801D-03 0.000000000000D+00 0.000000000000D+00 0.520353869428D-06 0.415460722094D-08  6 -4 2 25 1 -3 21 2 0.32840231D-01 0.23419453D+00 0.24588730D+06 0.24588730D+06 0.24588730D+06 0.10910015D+01  1  2  1  4  6  5       -3 0.144470652868D-02 0.100000000000D+01
  </mgrwgt>
  </event>
  <event>
  5     66 0.20411069E-05 0.23341703E+03 0.75467711E-02 0.94546033E-01
       -4 -1    0    0    0  501 0.00000000E+00 0.00000000E+00 0.89175898E+03 0.89176032E+03 0.15500000E+01 0.0000E+00 0.9000E+01
        2 -1    0    0  502    0 0.00000000E+00 0.00000000E+00 -.62805408E+03 0.62805416E+03 0.32000000E+00 0.0000E+00 0.9000E+01
       25  1    1    2    0    0 0.10215449E+03 -.45743363E+03 0.26343352E+02 0.48579835E+03 0.12500000E+03 0.0000E+00 0.9000E+01
        1  1    1    2  502    0 -.27059147E+02 0.23636815E+03 -.33785874E+03 0.41321996E+03 0.32000000E+00 0.0000E+00 0.9000E+01
       -3  1    1    2    0  501 -.75095346E+02 0.22106548E+03 0.57522029E+03 0.62079618E+03 0.50000000E+00 0.0000E+00 0.9000E+01
#aMCatNLO 1  0  0  2  2 0.38046102D+02 0.00000000D+00  -5  6  0 0.00000000D+00 0.00000000D+00 0.00000000D+00 0.00000000D+00 0.00000000D+00
  <mgrwgt>
 0.8746410480D-03    7    2    0
 0.748380883308439D+03 0.000000000000000D+00 0.000000000000000D+00 0.748380883308439D+03
 0.748380883308439D+03 0.000000000000000D+00 0.000000000000000D+00 -.748380883308439D+03
 0.488645416447725D+03 0.102149884081799D+03 -.457466942094008D+03 -.586407800818124D+02
 0.479228411076672D+03 -.270722746465443D+02 0.236453674933020D+03 -.415952667426479D+03
 0.528887939092481D+03 -.750776094352544D+02 0.221013267160987D+03 0.474593447508292D+03
 0.000000000000000D+00 0.000000000000000D+00 -.000000000000000D+00 -.000000000000000D+00
 0.761688788990329D+03 0.000000000000000D+00 0.000000000000000D+00 0.761688788990329D+03
 0.776318294522548D+03 0.000000000000000D+00 0.000000000000000D+00 -.776318294522548D+03
 0.478206147240661D+03 0.942874257437734D+02 -.448025958530045D+03 -.586407800818124D+02
 0.484442110623683D+03 -.349088646806420D+02 0.245863596681237D+03 -.415952667426479D+03
 0.534596976530309D+03 -.837258923322737D+02 0.231397843228295D+03 0.474593447508292D+03
 0.407618491182241D+02 0.243473312691423D+02 -.292354813794863D+02 -.146295055322189D+02
0.587966165908D-03 0.000000000000D+00 0.000000000000D+00 0.320853648677D-05 0.000000000000D+00  6 -4 2 25 1 -3 21 0 0.13719380D+00 0.96623814D-01 0.22873715D+06 0.22873715D+06 0.22873715D+06 0.10933752D+01  1  2  2  2  6  2        2 0.465878928440D-03 0.100000000000D+01
0.472133093896D-04 0.000000000000D+00 -.225794489214D-05 0.320853648677D-05 0.000000000000D+00  6 -4 2 25 1 -3 21 2 0.13719380D+00 0.96623814D-01 0.22873715D+06 0.22873715D+06 0.22873715D+06 0.10933752D+01  1  2  3  2  6  2        2 0.447222432457D-04 0.100000000000D+01
-.365179928863D-03 0.000000000000D+00 0.000000000000D+00 0.320853648677D-05 0.000000000000D+00  6 -4 2 25 1 -3 21 2 0.13719380D+00 0.96623814D-01 0.22873715D+06 0.22873715D+06 0.22873715D+06 0.10933752D+01  1  2 15  2  6  2        2 -.345912324685D-03 0.100000000000D+01
-.133597715339D-03 0.000000000000D+00 0.000000000000D+00 0.320853648677D-05 0.000000000000D+00  6 -4 2 25 1 -3 21 2 0.13719380D+00 0.96623814D-01 0.22873715D+06 0.22873715D+06 0.22873715D+06 0.10933752D+01  1  2  4  2  6  2        2 -.126548839717D-03 0.100000000000D+01
-.162250615540D-01 0.000000000000D+00 -.272844901140D-02 0.320853648677D-05 0.000000000000D+00  6 -4 2 25 1 -3 21 2 0.13719380D+00 0.10156413D+00 0.22873715D+06 0.22873715D+06 0.22873715D+06 0.10933752D+01  1  2  5  2  6  2        2 -.144833464378D-01 0.100000000000D+01
0.163441804377D-01 0.000000000000D+00 0.272506032818D-02 0.320853648677D-05 0.000000000000D+00  6 -4 2 25 1 -3 21 2 0.13719380D+00 0.96623814D-01 0.22873715D+06 0.22873715D+06 0.22873715D+06 0.10933752D+01  1  2  6  2  6  2        2 0.154818296500D-01 0.100000000000D+01
-.138585848081D-03 0.000000000000D+00 -.237066076483D-04 0.320853648677D-05 0.000000000000D+00  6 -4 21 25 1 -3 -2 2 0.13719380D+00 0.10156413D+00 0.22873715D+06 0.22873715D+06 0.22873715D+06 0.10933752D+01  1  2  5  6  6  2        2 -.161982171538D-03 0.100000000000D+01
  </mgrwgt>
  </event>
  <event>
  5     66 0.20411069E-05 0.16043216E+03 0.75467711E-02 0.93407895E-01
       -4 -1    0    0    0  501 0.00000000E+00 0.00000000E+00 0.37631652E+03 0.37631972E+03 0.15500000E+01 0.0000E+00 0.9000E+01
        2 -1    0    0  502    0 0.00000000E+00 0.00000000E+00 -.28495578E+04 0.28495578E+04 0.32000000E+00 0.0000E+00 0.9000E+01
       25  1    1    2    0    0 -.21544520E+02 0.47434456E+03 -.59646825E+03 0.77257123E+03 0.12500000E+03 0.0000E+00 0.9000E+01
        1  1    1    2  502    0 -.14583120E+03 -.66792219E+02 -.19915653E+04 0.19980141E+04 0.32000000E+00 0.0000E+00 0.9000E+01
       -3  1    1    2    0  501 0.16737572E+03 -.40755234E+03 0.11479221E+03 0.45529226E+03 0.50000000E+00 0.0000E+00 0.9000E+01
#aMCatNLO 1  0  0  1  5 0.17930077D+02 0.00000000D+00  -5  6  0 0.00000000D+00 0.00000000D+00 0.00000000D+00 0.00000000D+00 0.00000000D+00
  <mgrwgt>
 0.5015095280D-02    9    4    0
 0.103553892947432D+04 0.000000000000000D+00 0.000000000000000D+00 0.103553892947432D+04
 0.103553892947432D+04 0.000000000000000D+00 0.000000000000000D+00 -.103553892947432D+04
 0.491032465043134D+03 -.215018735018319D+02 0.474326663519045D+03 -.630614280991654D+01
 0.733880977992082D+03 -.145859210269561D+03 -.668099560467089D+02 -.716130442315638D+03
 0.846164415913421D+03 0.167361083771393D+03 -.407516707472336D+03 0.722436585125555D+03
 0.000000000000000D+00 -.000000000000000D+00 0.000000000000000D+00 0.000000000000000D+00
 0.122896144703659D+04 0.000000000000000D+00 0.000000000000000D+00 0.122896144703659D+04
 0.103599334403313D+04 0.000000000000000D+00 0.000000000000000D+00 -.103599334403313D+04
 0.486951647947852D+03 -.209957209370101D+02 0.470123728080518D+03 -.630614280991654D+01
 0.734331747871980D+03 -.145099341446511D+03 -.731196733671233D+02 -.716130442315638D+03
 0.849872075281003D+03 0.168238862059042D+03 -.414805508772056D+03 0.722436585125555D+03
 0.193799319968885D+03 -.214379967552121D+01 0.178014540586614D+02 0.192968103003452D+03
 0.103553892947432D+04 0.000000000000000D+00 0.000000000000000D+00 0.103553892947432D+04
 0.103553892947432D+04 0.000000000000000D+00 0.000000000000000D+00 -.103553892947432D+04
 0.491032465043134D+03 -.215018735018319D+02 0.474326663519045D+03 -.630614280991654D+01
 0.733880977992082D+03 -.145859210269561D+03 -.668099560467089D+02 -.716130442315638D+03
 0.000000000000000D+00 -.000000000000000D+00 0.000000000000000D+00 0.000000000000000D+00
 0.846164415913421D+03 0.167361083771393D+03 -.407516707472336D+03 0.722436585125555D+03
 0.122896144703659D+04 0.000000000000000D+00 0.000000000000000D+00 0.122896144703659D+04
 0.103599334403313D+04 0.000000000000000D+00 0.000000000000000D+00 -.103599334403313D+04
 0.486951647947852D+03 -.209957209370101D+02 0.470123728080518D+03 -.630614280991654D+01
 0.734331747871980D+03 -.145099341446511D+03 -.731196733671233D+02 -.716130442315638D+03
 0.193799319968885D+03 -.214379967552121D+01 0.178014540586614D+02 0.192968103003452D+03
 0.849872075281003D+03 0.168238862059042D+03 -.414805508772056D+03 0.722436585125555D+03
0.159894096649D-03 0.000000000000D+00 0.000000000000D+00 0.950144147163D-05 0.000000000000D+00  6 -4 2 25 1 -3 21 0 0.57895097D-01 0.43839376D+00 0.29809896D+06 0.29809896D+06 0.29809896D+06 0.10847562D+01  1  2  2  1  6  1       -4 0.630386106525D-04 0.100000000000D+01
0.221546986656D-04 0.000000000000D+00 -.614035432215D-06 0.950144147163D-05 0.000000000000D+00  6 -4 2 25 1 -3 21 2 0.57895097D-01 0.43839376D+00 0.29809896D+06 0.29809896D+06 0.29809896D+06 0.10847562D+01  1  2  3  1  6  1       -4 0.102778983219D-04 0.100000000000D+01
-.977983257337D-04 0.000000000000D+00 0.000000000000D+00 0.950144147163D-05 0.000000000000D+00  6 -4 2 25 1 -3 21 2 0.57895097D-01 0.43839376D+00 0.29809896D+06 0.29809896D+06 0.29809896D+06 0.10847562D+01  1  2 15  1  6  1       -4 -.453701159793D-04 0.100000000000D+01
0.429794227080D-01 0.000000000000D+00 0.000000000000D+00 0.950144147163D-05 0.000000000000D+00  6 -4 2 25 1 -3 21 2 0.68936450D-01 0.43839376D+00 0.31077690D+06 0.31077690D+06 0.31077690D+06 0.10834197D+01  1  2 12  1  6  1       -4 0.130408302663D-01 0.100000000000D+01
-.312790530450D-01 0.000000000000D+00 0.000000000000D+00 0.950144147163D-05 0.000000000000D+00  6 -4 2 25 1 -3 21 2 0.57895097D-01 0.43839376D+00 0.29809896D+06 0.29809896D+06 0.29809896D+06 0.10847562D+01  1  2  4  1  6  1       -4 -.145108237153D-01 0.100000000000D+01
-.442480709583D-01 0.000000000000D+00 -.223297099906D-03 0.950144147163D-05 0.000000000000D+00  6 -4 2 25 1 -3 21 2 0.68722004D-01 0.43839376D+00 0.29809896D+06 0.29809896D+06 0.29809896D+06 0.10847562D+01  1  2  5  1  6  1       -4 -.135966582231D-01 0.100000000000D+01
0.436466222998D-01 0.000000000000D+00 0.220055396826D-03 0.950144147163D-05 0.000000000000D+00  6 -4 2 25 1 -3 21 2 0.57895097D-01 0.43839376D+00 0.29809896D+06 0.29809896D+06 0.29809896D+06 0.10847562D+01  1  2  6  1  6  1       -4 0.202483253265D-01 0.100000000000D+01
0.110652373872D-02 0.000000000000D+00 0.000000000000D+00 0.950144147163D-05 0.000000000000D+00  6 21 2 25 1 4 -3 2 0.68936450D-01 0.43839376D+00 0.31077690D+06 0.31077690D+06 0.31077690D+06 0.10834197D+01  3  4 12  5  5  1       -4 0.700994137414D-02 0.100000000000D+01
-.112115847922D-02 0.000000000000D+00 -.566782740484D-05 0.950144147163D-05 0.000000000000D+00  6 21 2 25 1 4 -3 2 0.68722004D-01 0.43839376D+00 0.29809896D+06 0.29809896D+06 0.29809896D+06 0.10847562D+01  3  4  5  5  5  1       -4 -.720446614201D-02 0.100000000000D+01
  </mgrwgt>
  </event>
  <event>
  5     66 0.20411069E-05 0.18617145E+03 0.75467711E-02 0.94153188E-01
       -2 -1    0    0    0  501 0.00000000E+00 0.00000000E+00 0.21680455E+04 0.21680455E+04 0.32000000E+00 0.0000E+00 0.9000E+01
        4 -1    0    0  502    0 0.00000000E+00 0.00000000E+00 -.73386206E+03 0.73386370E+03 0.15500000E+01 0.0000E+00 0.9000E+01
       25  1    1    2    0    0 0.92787508E+02 0.49420504E+03 0.18228559E+03 0.54927332E+03 0.12500000E+03 0.0000E+00 0.9000E+01
        3  1    1    2  502    0 0.31642151E+02 -.18344753E+03 -.51848144E+03 0.55088790E+03 0.50000000E+00 0.0000E+00 0.9000E+01
       -1  1    1    2    0  501 -.12442966E+03 -.31075751E+03 0.17703793E+04 0.18017480E+04 0.32000000E+00 0.0000E+00 0.9000E+01
#aMCatNLO 1  0  0  4  2 0.42892667D+02 0.00000000D+00  -5  6  0 0.00000000D+00 0.00000000D+00 0.00000000D+00 0.00000000D+00 0.00000000D+00
  <mgrwgt>
 0.9833406997D-03    7    2    0
 0.126136781297767D+04 0.000000000000000D+00 0.000000000000000D+00 0.126136781297767D+04
 0.126136781297767D+04 -.000000000000000D+00 -.000000000000000D+00 -.126136781297767D+04
 0.528194810585252D+03 0.927824699081035D+02 0.494211843576222D+03 -.102522314039112D+03
 0.928479751458778D+03 0.316439418076327D+02 -.183462443942604D+03 -.909623461372032D+03
 0.106606106391132D+04 -.124426411715736D+03 -.310749399633617D+03 0.101214577541114D+04
 0.000000000000000D+00 0.000000000000000D+00 -.000000000000000D+00 0.000000000000000D+00
 0.126136781297767D+04 0.000000000000000D+00 0.000000000000000D+00 0.126136781297767D+04
 0.126136781297767D+04 -.000000000000000D+00 -.000000000000000D+00 -.126136781297767D+04
 0.528205464720553D+03 0.928124881499720D+02 0.494037806471441D+03 -.103385205812796D+03
 0.354902504697451D+03 0.200128180679716D+02 -.282525108320030D+02 -.353209669438975D+03
 0.106450437536474D+04 -.124365870432126D+03 -.311100400527185D+03 0.101040548109863D+04
 0.575123281172603D+03 0.115405642141826D+02 -.154684895112252D+03 -.553810605846864D+03
0.112087705472D-01 0.000000000000D+00 0.000000000000D+00 0.515194402141D-04 0.000000000000D+00  6 -2 4 25 3 -1 21 0 0.33354559D+00 0.11290198D+00 0.26990902D+06 0.26990902D+06 0.26990902D+06 0.10879645D+01  1  2  2  3  6  4        3 0.450929234039D-04 0.100000000000D+01
0.149193386430D-02 0.000000000000D+00 -.430446302383D-04 0.515194402141D-04 0.000000000000D+00  6 -2 4 25 3 -1 21 2 0.33354559D+00 0.11290198D+00 0.26990902D+06 0.26990902D+06 0.26990902D+06 0.10879645D+01  1  2  3  3  6  4        3 0.710443264954D-05 0.100000000000D+01
-.641716498921D-02 0.000000000000D+00 0.000000000000D+00 0.515194402141D-04 0.000000000000D+00  6 -2 4 25 3 -1 21 2 0.33354559D+00 0.11290198D+00 0.26990902D+06 0.26990902D+06 0.26990902D+06 0.10879645D+01  1  2 15  3  6  4        3 -.305578669121D-04 0.100000000000D+01
0.148609380975D+00 0.000000000000D+00 0.000000000000D+00 0.515194402141D-04 0.000000000000D+00  6 -2 4 25 3 -1 21 2 0.33354559D+00 0.11290198D+00 0.27183920D+06 0.27183920D+06 0.27183920D+06 0.10877334D+01  1  2 12  3  6  4        3 0.707005822594D-03 0.100000000000D+01
-.742743033224D-01 0.000000000000D+00 0.000000000000D+00 0.515194402141D-04 0.000000000000D+00  6 -2 4 25 3 -1 21 2 0.33354559D+00 0.11290198D+00 0.26990902D+06 0.26990902D+06 0.26990902D+06 0.10879645D+01  1  2  4  3  6  4        3 -.353686445608D-03 0.100000000000D+01
-.171037628383D+00 0.000000000000D+00 0.000000000000D+00 0.515194402141D-04 0.000000000000D+00  6 -2 4 25 3 -1 21 2 0.33354559D+00 0.11290198D+00 0.26990902D+06 0.26990902D+06 0.26990902D+06 0.10879645D+01  1  2  5  3  6  4        3 -.814463255017D-03 0.100000000000D+01
0.298798071006D+00 0.000000000000D+00 -.000000000000D+00 0.515194402141D-04 0.000000000000D+00  6 -2 4 25 3 -1 21 2 0.33354559D+00 0.11290198D+00 0.26990902D+06 0.26990902D+06 0.26990902D+06 0.10879645D+01  1  2  6  3  6  4        3 0.142284508856D-02 0.100000000000D+01
  </mgrwgt>
  </event>
  <event>
  6     66 0.20411069E-05 0.42361232E+03 0.75467711E-02 0.88522780E-01
       -4 -1    0    0    0  501 0.00000000E+00 0.00000000E+00 0.79141612E+03 0.79141764E+03 0.15500000E+01 0.0000E+00 0.9000E+01
        2 -1    0    0  503    0 0.00000000E+00 0.00000000E+00 -.25836876E+04 0.25836877E+04 0.32000000E+00 0.0000E+00 0.9000E+01
       25  1    1    2    0    0 0.32986036E+03 -.30607903E+03 0.26958089E+03 0.53925049E+03 0.12500000E+03 0.0000E+00 0.9000E+01
        1  1    1    2  502    0 -.78169006E+03 0.25745435E+03 -.17244388E+04 0.19107620E+04 0.32000000E+00 0.0000E+00 0.9000E+01
       -3  1    1    2    0  501 0.15578011E+02 -.40401748E+02 0.21287641E+03 0.21723626E+03 0.50000000E+00 0.0000E+00 0.9000E+01
       21  1    1    2  503  502 0.43625168E+03 0.89026424E+02 -.55028999E+03 0.70785653E+03 0.75000000E+00 0.0000E+00 0.9000E+01
#aMCatNLO 2  0  0  2  1 0.44524289D+03 0.00000000D+00  -5  6  0 0.00000000D+00 0.00000000D+00 0.00000000D+00 0.00000000D+00 0.00000000D+00
  <mgrwgt>
 0.1027930274D-03    1    2    0
 0.115903587383624D+04 0.000000000000000D+00 0.000000000000000D+00 0.115903587383624D+04
 0.115903587383624D+04 0.000000000000000D+00 0.000000000000000D+00 -.115903587383624D+04
 0.815562562076214D+03 0.476107168316865D+03 -.276357541227769D+03 0.588613426914607D+03
 0.113745122841967D+04 -.559013782649614D+03 0.302979349403352D+03 -.943134349748913D+03
 0.365057957176590D+03 0.829066143327485D+02 -.266218081755830D+02 0.354520922834307D+03
 0.000000000000000D+00 0.000000000000000D+00 0.000000000000000D+00 -.000000000000000D+00
 0.131069820324973D+04 0.000000000000000D+00 0.000000000000000D+00 0.131069820324973D+04
 0.156006456370054D+04 0.000000000000000D+00 0.000000000000000D+00 -.156006456370054D+04
 0.751482637195587D+03 0.329986886203982D+03 -.306176489292822D+03 0.588613426914607D+03
 0.125181109796392D+04 -.781802305491895D+03 0.257514617909118D+03 -.943134349748913D+03
 0.357150685007307D+03 0.155637383331841D+02 -.403645528031291D+02 0.354520922834307D+03
 0.510318346783457D+03 0.436251680954730D+03 0.890264241868335D+02 -.249366360450803D+03
0.123059560808D-02 0.000000000000D+00 0.000000000000D+00 0.507223277510D-05 0.110812538719D-09  6 -4 2 25 1 -3 21 2 0.12175642D+00 0.39749044D+00 0.79104016D+06 0.79104016D+06 0.79104016D+06 0.10547085D+01  1  2  1  2  6  2        2 0.102793027414D-03 0.100000000000D+01
  </mgrwgt>
  </event>
  <event>
  5     66 -.20411069E-05 0.85189555E+02 0.75467711E-02 0.92247259E-01
       -4 -1    0    0    0  501 0.00000000E+00 0.00000000E+00 0.83950756E+03 0.83950899E+03 0.15500000E+01 0.0000E+00 0.9000E+01
        2 -1    0    0  502    0 -.00000000E+00 -.00000000E+00 -.91682131E+03 0.91682137E+03 0.32000000E+00 0.0000E+00 0.9000E+01
       25  1    1    2    0    0 0.52216149E+03 -.17899877E+03 0.14642410E+03 0.58460089E+03 0.12500000E+03 0.0000E+00 0.9000E+01
        1  1    1    2  502    0 -.52635830E+03 0.26414924E+03 -.56731957E+03 0.81772824E+03 0.32000000E+00 0.0000E+00 0.9000E+01
       -3  1    1    2    0  501 0.41968028E+01 -.85150465E+02 0.34358173E+03 0.35400123E+03 0.50000000E+00 0.0000E+00 0.9000E+01
#aMCatNLO 1  0  0  4  2 0.18934113D+02 0.00000000D+00  -5  6  0 0.00000000D+00 0.00000000D+00 0.00000000D+00 0.00000000D+00 0.00000000D+00
  <mgrwgt>
 -.1263669488D-02    7    2    0
 0.877313929266842D+03 0.000000000000000D+00 0.000000000000000D+00 0.877313929266842D+03
 0.877313929266842D+03 -.000000000000000D+00 -.000000000000000D+00 -.877313929266842D+03
 0.591841130383638D+03 0.522310614361248D+03 -.179114419605307D+03 0.172512522527530D+03
 0.793581738554302D+03 -.526504253257612D+03 0.264200691965466D+03 -.531754869684784D+03
 0.369204989595744D+03 0.419363889636433D+01 -.850862723601582D+02 0.359242347157254D+03
 0.000000000000000D+00 0.000000000000000D+00 0.000000000000000D+00 -.000000000000000D+00
 0.877313929266842D+03 0.000000000000000D+00 0.000000000000000D+00 0.877313929266842D+03
 0.877313929266842D+03 -.000000000000000D+00 -.000000000000000D+00 -.877313929266842D+03
 0.591571584102103D+03 0.522107747828469D+03 -.179012620848687D+03 0.172307632887924D+03
 0.419610770112827D+03 -.292267927339028D+03 0.134517321448920D+03 -.269365453007316D+03
 0.369064568091729D+03 0.406708103232328D+01 -.850227654178184D+02 0.359114527182231D+03
 0.374380936227024D+03 -.233906901521764D+03 0.129518064817586D+03 -.262056707062839D+03
0.655382956316D-04 0.000000000000D+00 0.000000000000D+00 0.299959422631D-05 0.000000000000D+00  6 -4 2 25 1 -3 21 0 0.12915512D+00 0.14104955D+00 0.38465101D+06 0.38465101D+06 0.38465101D+06 0.10766548D+01  1  2  2  3  6  4        1 0.382598793996D-04 0.100000000000D+01
0.138089059105D-04 0.000000000000D+00 -.251684311855D-06 0.299959422631D-05 0.000000000000D+00  6 -4 2 25 1 -3 21 2 0.12915512D+00 0.14104955D+00 0.38465101D+06 0.38465101D+06 0.38465101D+06 0.10766548D+01  1  2  3  3  6  4        1 0.934459911622D-05 0.100000000000D+01
-.407077584953D-04 0.000000000000D+00 0.000000000000D+00 0.299959422631D-05 0.000000000000D+00  6 -4 2 25 1 -3 21 2 0.12915512D+00 0.14104955D+00 0.38465101D+06 0.38465101D+06 0.38465101D+06 0.10766548D+01  1  2 15  3  6  4        1 -.275472717770D-04 0.100000000000D+01
0.611577812480D-02 0.000000000000D+00 0.000000000000D+00 0.299959422631D-05 0.000000000000D+00  6 -4 2 25 1 -3 21 2 0.12915512D+00 0.14104955D+00 0.38449348D+06 0.38449348D+06 0.38449348D+06 0.10766677D+01  1  2 12  3  6  4        1 0.413874658190D-02 0.100000000000D+01
-.114637480544D-01 0.000000000000D+00 0.000000000000D+00 0.299959422631D-05 0.000000000000D+00  6 -4 2 25 1 -3 21 2 0.12915512D+00 0.14104955D+00 0.38465101D+06 0.38465101D+06 0.38465101D+06 0.10766548D+01  1  2  4  3  6  4        1 -.775761169151D-02 0.100000000000D+01
-.612182345668D-02 0.000000000000D+00 0.000000000000D+00 0.299959422631D-05 0.000000000000D+00  6 -4 2 25 1 -3 21 2 0.12915512D+00 0.14104955D+00 0.38465101D+06 0.38465101D+06 0.38465101D+06 0.10766548D+01  1  2  5  3  6  4        1 -.414268780118D-02 0.100000000000D+01
0.957255539859D-02 0.000000000000D+00 -.000000000000D+00 0.299959422631D-05 0.000000000000D+00  6 -4 2 25 1 -3 21 2 0.12915512D+00 0.14104955D+00 0.38465101D+06 0.38465101D+06 0.38465101D+06 0.10766548D+01  1  2  6  3  6  4        1 0.647782621575D-02 0.100000000000D+01
  </mgrwgt>
  </event>
  <event>
  5     66 -.20411069E-05 0.21826530E+03 0.75467711E-02 0.93743119E-01
       -4 -1    0    0    0  501 0.00000000E+00 0.00000000E+00 0.22848884E+03 0.22849409E+03 0.15500000E+01 0.0000E+00 0.9000E+01
        2 -1    0    0  502    0 0.00000000E+00 0.00000000E+00 -.21496503E+04 0.21496503E+04 0.32000000E+00 0.0000E+00 0.9000E+01
       25  1    1    2    0    0 -.43117921E+03 0.30337507E+03 -.53932261E+03 0.76449056E+03 0.12500000E+03 0.0000E+00 0.9000E+01
        1  1    1    2  502    0 0.22867716E+03 -.11759860E+03 -.13024722E+04 0.13276131E+04 0.32000000E+00 0.0000E+00 0.9000E+01
       -3  1    1    2    0  501 0.20250205E+03 -.18577647E+03 -.79366649E+02 0.28604072E+03 0.50000000E+00 0.0000E+00 0.9000E+01
#aMCatNLO 1  0  0  2  4 0.10118431D+02 0.00000000D+00  -5  6  0 0.00000000D+00 0.00000000D+00 0.00000000D+00 0.00000000D+00 0.00000000D+00
  <mgrwgt>
 -.1606985977D-02    9    2    0
 0.700840476685420D+03 0.000000000000000D+00 0.000000000000000D+00 0.700840476685420D+03
 0.700840476685420D+03 0.000000000000000D+00 0.000000000000000D+00 -.700840476685420D+03
 0.557890280230018D+03 -.431160640724458D+03 0.303326566504964D+03 0.133079152076920D+03
 0.467478147850111D+03 0.228773477783301D+03 -.117655494626665D+03 -.390327681780909D+03
 0.376312525290710D+03 0.202387162941157D+03 -.185671071878299D+03 0.257248529703990D+03
 0.000000000000000D+00 0.000000000000000D+00 -.000000000000000D+00 -.000000000000000D+00
 0.701169766322711D+03 0.000000000000000D+00 0.000000000000000D+00 0.701169766322711D+03
 0.783152175086728D+03 0.000000000000000D+00 0.000000000000000D+00 -.783152175086728D+03
 0.561700489068874D+03 -.434290028978623D+03 0.305883228426221D+03 0.133079152076920D+03
 0.465674057958467D+03 0.226165207304228D+03 -.115524577887487D+03 -.390327681780909D+03
 0.374342927247158D+03 0.200288992412681D+03 -.183956898928580D+03 0.257248529703990D+03
 0.826044671349393D+02 0.783582926171350D+01 -.640175161015342D+01 -.819824087640174D+02
0.419886034511D-05 0.000000000000D+00 0.000000000000D+00 0.339806202373D-06 0.000000000000D+00  6 -4 2 25 1 -3 21 0 0.35152535D-01 0.33071584D+00 0.28820444D+06 0.28820444D+06 0.28820444D+06 0.10858431D+01  1  2  2  2  6  2        2 0.126755341769D-04 0.100000000000D+01
0.234420014053D-06 0.000000000000D+00 -.161247293106D-07 0.339806202373D-06 0.000000000000D+00  6 -4 2 25 1 -3 21 2 0.35152535D-01 0.33071584D+00 0.28820444D+06 0.28820444D+06 0.28820444D+06 0.10858431D+01  1  2  3  2  6  2        2 0.834379565307D-06 0.100000000000D+01
-.242851746943D-05 0.000000000000D+00 0.000000000000D+00 0.339806202373D-06 0.000000000000D+00  6 -4 2 25 1 -3 21 2 0.35152535D-01 0.33071584D+00 0.28820444D+06 0.28820444D+06 0.28820444D+06 0.10858431D+01  1  2 15  2  6  2        2 -.864390934654D-05 0.100000000000D+01
0.768766550366D-03 0.000000000000D+00 0.000000000000D+00 0.339806202373D-06 0.000000000000D+00  6 -4 2 25 1 -3 21 2 0.35152535D-01 0.37103173D+00 0.29253854D+06 0.29253854D+06 0.29253854D+06 0.10853620D+01  1  2 12  2  6  2        2 0.194572707029D-02 0.100000000000D+01
-.122375481232D-02 0.000000000000D+00 0.000000000000D+00 0.339806202373D-06 0.000000000000D+00  6 -4 2 25 1 -3 21 2 0.35152535D-01 0.33071584D+00 0.28820444D+06 0.28820444D+06 0.28820444D+06 0.10858431D+01  1  2  4  2  6  2        2 -.435575440293D-02 0.100000000000D+01
-.818810123398D-03 0.000000000000D+00 -.670589233490D-05 0.339806202373D-06 0.000000000000D+00  6 -4 2 25 1 -3 21 2 0.35152535D-01 0.36960931D+00 0.28820444D+06 0.28820444D+06 0.28820444D+06 0.10858431D+01  1  2  5  2  6  2        2 -.210083926120D-02 0.100000000000D+01
0.814556778919D-03 0.000000000000D+00 0.666465379772D-05 0.339806202373D-06 0.000000000000D+00  6 -4 2 25 1 -3 21 2 0.35152535D-01 0.33071584D+00 0.28820444D+06 0.28820444D+06 0.28820444D+06 0.10858431D+01  1  2  6  2  6  2        2 0.289928116360D-02 0.100000000000D+01
0.140748752246D-04 0.000000000000D+00 0.000000000000D+00 0.339806202373D-06 0.000000000000D+00  6 -4 21 25 1 -3 -2 2 0.35152535D-01 0.37103173D+00 0.29253854D+06 0.29253854D+06 0.29253854D+06 0.10853620D+01  1  2 12  6  6  2        2 0.457375600059D-05 0.100000000000D+01
-.145382735197D-04 0.000000000000D+00 -.119286212805D-06 0.339806202373D-06 0.000000000000D+00  6 -4 21 25 1 -3 -2 2 0.35152535D-01 0.36960931D+00 0.28820444D+06 0.28820444D+06 0.28820444D+06 0.10858431D+01  1  2  5  6  6  2        2 -.484030747850D-05 0.100000000000D+01
  </mgrwgt>
  </event>
  <event>
  5     66 0.20411069E-05 0.39790641E+02 0.75467711E-02 0.94235043E-01
       -4 -1    0    0    0  501 0.00000000E+00 0.00000000E+00 0.75948692E+03 0.75948851E+03 0.15500000E+01 0.0000E+00 0.9000E+01
        2 -1    0    0  502    0 0.00000000E+00 0.00000000E+00 -.58265249E+03 0.58265257E+03 0.32000000E+00 0.0000E+00 0.9000E+01
       25  1    1    2    0    0 -.20010762E+03 -.42649695E+03 0.39239993E+02 0.48898618E+03 0.12500000E+03 0.0000E+00 0.9000E+01
        1  1    1    2  502    0 -.29403566E+02 -.26797352E+02 -.22529655E+03 0.22878222E+03 0.32000000E+00 0.0000E+00 0.9000E+01
       -3  1    1    2    0  501 0.22951119E+03 0.45329431E+03 0.36289099E+03 0.62437267E+03 0.50000000E+00 0.0000E+00 0.9000E+01
#aMCatNLO 1  0  0  5  1 0.54352357D+01 0.00000000D+00  -5  6  0 0.00000000D+00 0.00000000D+00 0.00000000D+00 0.00000000D+00 0.00000000D+00
  <mgrwgt>
 0.1498684634D-02    8    2    0
 0.665220312555917D+03 0.000000000000000D+00 0.000000000000000D+00 0.665220312555917D+03
 0.665220312555917D+03 -.000000000000000D+00 -.000000000000000D+00 -.665220312555917D+03
 0.488032392208042D+03 -.200088798828773D+03 -.426466774570978D+03 -.253215049827106D+02
 0.260810415519658D+03 -.294096521658098D+02 -.268023784165436D+02 -.257757206910377D+03
 0.581597817384134D+03 0.229498450994583D+03 0.453269152987522D+03 0.283078711893088D+03
 0.000000000000000D+00 0.000000000000000D+00 0.000000000000000D+00 0.000000000000000D+00
 0.665220312555917D+03 0.000000000000000D+00 0.000000000000000D+00 0.665220312555917D+03
 0.665220312555917D+03 -.000000000000000D+00 -.000000000000000D+00 -.665220312555917D+03
 0.487910031184918D+03 -.200033174828522D+03 -.426356914816499D+03 -.252528946270713D+02
 0.260764798301729D+03 -.293799249000110D+02 -.267436658085462D+02 -.257720539316004D+03
 0.540204468759339D+03 0.216949919956153D+03 0.417734295994610D+03 0.265050293809431D+03
 0.415613268658483D+02 0.124631797723795D+02 0.353662846304358D+02 0.179231401336440D+02
0.394809220407D-04 0.000000000000D+00 0.000000000000D+00 0.551878073630D-05 0.000000000000D+00  6 -4 2 25 1 -3 21 0 0.11684427D+00 0.89638972D-01 0.26792178D+06 0.26792178D+06 0.26792178D+06 0.10882043D+01  1  2  2  4  6  5       -3 0.554261195977D-04 0.100000000000D+01
0.139455223095D-04 0.000000000000D+00 -.151617136202D-06 0.551878073630D-05 0.000000000000D+00  6 -4 2 25 1 -3 21 2 0.11684427D+00 0.89638972D-01 0.26792178D+06 0.26792178D+06 0.26792178D+06 0.10882043D+01  1  2  3  4  6  5       -3 0.231837047590D-04 0.100000000000D+01
-.261729425510D-04 0.000000000000D+00 0.000000000000D+00 0.551878073630D-05 0.000000000000D+00  6 -4 2 25 1 -3 21 2 0.11684427D+00 0.89638972D-01 0.26792178D+06 0.26792178D+06 0.26792178D+06 0.10882043D+01  1  2 15  4  6  5       -3 -.435111542837D-04 0.100000000000D+01
0.665909877563D-02 0.000000000000D+00 0.000000000000D+00 0.551878073630D-05 0.000000000000D+00  6 -4 2 25 1 -3 21 2 0.11684427D+00 0.89638972D-01 0.26790700D+06 0.26790700D+06 0.26790700D+06 0.10882061D+01  1  2 12  4  6  5       -3 0.110704520153D-01 0.100000000000D+01
-.127678069926D-01 0.000000000000D+00 0.000000000000D+00 0.551878073630D-05 0.000000000000D+00  6 -4 2 25 1 -3 21 2 0.11684427D+00 0.89638972D-01 0.26792178D+06 0.26792178D+06 0.26792178D+06 0.10882043D+01  1  2  4  4  6  5       -3 -.212258143630D-01 0.100000000000D+01
-.133322581575D-01 0.000000000000D+00 0.000000000000D+00 0.551878073630D-05 0.000000000000D+00  6 -4 2 25 1 -3 21 2 0.11684427D+00 0.89638972D-01 0.26792178D+06 0.26792178D+06 0.26792178D+06 0.10882043D+01  1  2  5  4  6  5       -3 -.221641850361D-01 0.100000000000D+01
0.143189372924D-01 0.000000000000D+00 -.000000000000D+00 0.551878073630D-05 0.000000000000D+00  6 -4 2 25 1 -3 21 2 0.11684427D+00 0.89638972D-01 0.26792178D+06 0.26792178D+06 0.26792178D+06 0.10882043D+01  1  2  6  4  6  5       -3 0.238044877260D-01 0.100000000000D+01
0.600235534681D-02 0.000000000000D+00 0.000000000000D+00 0.551878073630D-05 0.919836466758D-06  6 -4 2 25 1 -3 21 2 0.11684427D+00 0.89638972D-01 0.26790700D+06 0.26790700D+06 0.26790700D+06 0.10882061D+01  1  2 11  4  6  5       -3 0.997864562221D-02 0.100000000000D+01
  </mgrwgt>
  </event>
  <event>
  5     66 -.20411069E-05 0.17563677E+02 0.75467711E-02 0.95232833E-01
       -4 -1    0    0    0  501 0.00000000E+00 0.00000000E+00 0.44481296E+03 0.44481566E+03 0.15500000E+01 0.0000E+00 0.9000E+01
        2 -1    0    0  502    0 -.00000000E+00 -.00000000E+00 -.15006509E+04 0.15006509E+04 0.32000000E+00 0.0000E+00 0.9000E+01
       25  1    1    2    0    0 -.40394190E+03 0.21553399E+03 -.60793529E+03 0.77125500E+03 0.12500000E+03 0.0000E+00 0.9000E+01
        1  1    1    2  502    0 -.63262385E+01 -.16381922E+02 -.66771892E+03 0.66794989E+03 0.32000000E+00 0.0000E+00 0.9000E+01
       -3  1    1    2    0  501 0.41026814E+03 -.19915207E+03 0.21981626E+03 0.50626172E+03 0.50000000E+00 0.0000E+00 0.9000E+01
#aMCatNLO 1  0  0  4  2 0.51490408D+00 0.00000000D+00  -5  6  0 0.00000000D+00 0.00000000D+00 0.00000000D+00 0.00000000D+00 0.00000000D+00
  <mgrwgt>
 -.6795654401D-01    8    2    0
 0.817013850680159D+03 0.000000000000000D+00 0.000000000000000D+00 0.817013850680159D+03
 0.817013850680159D+03 -.000000000000000D+00 -.000000000000000D+00 -.817013850680159D+03
 0.525389113928359D+03 -.403930780359059D+03 0.215531535285836D+03 -.225377024140168D+03
 0.363868859139164D+03 -.632691249879624D+01 -.163845336795604D+02 -.363444719160387D+03
 0.744769728292796D+03 0.410257692857855D+03 -.199147001606276D+03 0.588821743300555D+03
 0.000000000000000D+00 0.000000000000000D+00 0.000000000000000D+00 -.000000000000000D+00
 0.817013850680159D+03 0.000000000000000D+00 0.000000000000000D+00 0.817013850680159D+03
 0.817013850680159D+03 -.000000000000000D+00 -.000000000000000D+00 -.817013850680159D+03
 0.525389430674022D+03 -.403930793367924D+03 0.215531501597336D+03 -.225377771424623D+03
 0.707138350855329D+02 -.150699135724277D+01 -.361713583198018D+01 -.706051823730110D+02
 0.744768893397634D+03 0.410257674417045D+03 -.199147049361649D+03 0.588820683982146D+03
 0.293155542203131D+03 -.481988969187863D+01 -.127673164037075D+02 -.292837730184512D+03
0.778310894767D-05 0.000000000000D+00 0.000000000000D+00 0.928951098541D-04 0.000000000000D+00  6 -4 2 25 1 -3 21 0 0.68432973D-01 0.23086958D+00 0.22476862D+06 0.22476862D+06 0.22476862D+06 0.10939522D+01  1  2  2  3  6  4        1 0.119709520604D-04 0.100000000000D+01
0.517985245555D-05 0.000000000000D+00 -.298891876987D-07 0.928951098541D-04 0.000000000000D+00  6 -4 2 25 1 -3 21 2 0.68432973D-01 0.23086958D+00 0.22476862D+06 0.22476862D+06 0.22476862D+06 0.10939522D+01  1  2  3  3  6  4        1 0.953431798617D-05 0.100000000000D+01
-.493684210005D-05 0.000000000000D+00 0.000000000000D+00 0.928951098541D-04 0.000000000000D+00  6 -4 2 25 1 -3 21 2 0.68432973D-01 0.23086958D+00 0.22476862D+06 0.22476862D+06 0.22476862D+06 0.10939522D+01  1  2 15  3  6  4        1 -.908701991674D-05 0.100000000000D+01
0.236073420828D-12 0.000000000000D+00 0.000000000000D+00 0.928951098541D-04 0.000000000000D+00  6 -4 2 25 1 -3 21 2 0.68432973D-01 0.23086958D+00 0.22476940D+06 0.22476940D+06 0.22476940D+06 0.10939520D+01  1  2 12  3  6  4        1 0.434529432782D-12 0.100000000000D+01
-.121653508810D+00 0.000000000000D+00 0.000000000000D+00 0.928951098541D-04 0.000000000000D+00  6 -4 2 25 1 -3 21 2 0.68432973D-01 0.23086958D+00 0.22476862D+06 0.22476862D+06 0.22476862D+06 0.10939522D+01  1  2  4  3  6  4        1 -.223922060924D+00 0.100000000000D+01
-.387246021385D-01 0.000000000000D+00 0.000000000000D+00 0.928951098541D-04 0.000000000000D+00  6 -4 2 25 1 -3 21 2 0.68432973D-01 0.23086958D+00 0.22476862D+06 0.22476862D+06 0.22476862D+06 0.10939522D+01  1  2  5  3  6  4        1 -.712786076138D-01 0.100000000000D+01
0.815882572351D-01 0.000000000000D+00 -.000000000000D+00 0.928951098541D-04 0.000000000000D+00  6 -4 2 25 1 -3 21 2 0.68432973D-01 0.23086958D+00 0.22476862D+06 0.22476862D+06 0.22476862D+06 0.10939522D+01  1  2  6  3  6  4        1 0.150175781085D+00 0.100000000000D+01
0.418633456864D-01 0.000000000000D+00 0.000000000000D+00 0.928951098541D-04 0.243828771069D-03  6 -4 2 25 1 -3 21 2 0.68432973D-01 0.23086958D+00 0.22476940D+06 0.22476940D+06 0.22476940D+06 0.10939520D+01  1  2 11  3  6  4        1 0.770559251933D-01 0.100000000000D+01
  </mgrwgt>
  </event>
  <event>
  5     66 0.20411069E-05 0.55030703E+02 0.75467711E-02 0.94109222E-01
       -2 -1    0    0    0  501 0.00000000E+00 0.00000000E+00 0.18470055E+04 0.18470056E+04 0.32000000E+00 0.0000E+00 0.9000E+01
        4 -1    0    0  502    0 0.00000000E+00 0.00000000E+00 -.24893991E+03 0.24894473E+03 0.15500000E+01 0.0000E+00 0.9000E+01
       25  1    1    2    0    0 -.35382731E+03 0.33920359E+03 0.40439037E+03 0.64761827E+03 0.12500000E+03 0.0000E+00 0.9000E+01
        3  1    1    2  502    0 0.44731081E+02 0.32060688E+02 -.73714335E+02 0.91993535E+02 0.50000000E+00 0.0000E+00 0.9000E+01
       -1  1    1    2    0  501 0.30909623E+03 -.37126428E+03 0.12673896E+04 0.13563385E+04 0.32000000E+00 0.0000E+00 0.9000E+01
#aMCatNLO 1  0  0  4  2 0.99991204D+01 0.00000000D+00  -5  6  0 0.00000000D+00 0.00000000D+00 0.00000000D+00 0.00000000D+00 0.00000000D+00
  <mgrwgt>
 0.2692326953D-02    8    2    0
 0.678084415358381D+03 0.000000000000000D+00 0.000000000000000D+00 0.678084415358381D+03
 0.678084415358381D+03 -.000000000000000D+00 -.000000000000000D+00 -.678084415358381D+03
 0.524381507559875D+03 -.353828833882447D+03 0.339210797565231D+03 -.138174370269291D+03
 0.229017577840398D+03 0.447283233500944D+02 0.320586240699380D+02 -.222307608220939D+03
 0.602769745316489D+03 0.309100510532352D+03 -.371269421635169D+03 0.360481978490231D+03
 0.000000000000000D+00 0.000000000000000D+00 0.000000000000000D+00 0.000000000000000D+00
 0.678084415358381D+03 0.000000000000000D+00 0.000000000000000D+00 0.678084415358381D+03
 0.678084415358381D+03 -.000000000000000D+00 -.000000000000000D+00 -.678084415358381D+03
 0.524454986428184D+03 -.353762042292134D+03 0.339258669837753D+03 -.138506336182153D+03
 0.126626246925597D+03 0.271507369017359D+02 0.802873128971983D+01 -.123420352333123D+03
 0.602547158241335D+03 0.309177267046147D+03 -.371214407093233D+03 0.360100485160745D+03
 0.102540439121646D+03 0.174340383442507D+02 0.239270059657601D+02 -.981737966454681D+02
0.707454539766D-03 0.000000000000D+00 0.000000000000D+00 0.369181768744D-05 0.000000000000D+00  6 -2 4 25 3 -1 21 0 0.28415507D+00 0.38298821D-01 0.27247290D+06 0.27247290D+06 0.27247290D+06 0.10876579D+01  1  2  2  3  6  4        3 0.846228116774D-04 0.100000000000D+01
0.170485188382D-03 0.000000000000D+00 -.271681170976D-05 0.369181768744D-05 0.000000000000D+00  6 -2 4 25 3 -1 21 2 0.28415507D+00 0.38298821D-01 0.27247290D+06 0.27247290D+06 0.27247290D+06 0.10876579D+01  1  2  3  3  6  4        3 0.241246033542D-04 0.100000000000D+01
-.417554645009D-03 0.000000000000D+00 0.000000000000D+00 0.369181768744D-05 0.000000000000D+00  6 -2 4 25 3 -1 21 2 0.28415507D+00 0.38298821D-01 0.27247290D+06 0.27247290D+06 0.27247290D+06 0.10876579D+01  1  2 15  3  6  4        3 -.590863070578D-04 0.100000000000D+01
0.199082713518D-01 0.000000000000D+00 0.000000000000D+00 0.369181768744D-05 0.000000000000D+00  6 -2 4 25 3 -1 21 2 0.28415507D+00 0.38298821D-01 0.27397795D+06 0.27397795D+06 0.27397795D+06 0.10874794D+01  1  2 12  3  6  4        3 0.281556529488D-02 0.100000000000D+01
-.179691084559D-01 0.000000000000D+00 0.000000000000D+00 0.369181768744D-05 0.000000000000D+00  6 -2 4 25 3 -1 21 2 0.28415507D+00 0.38298821D-01 0.27247290D+06 0.27247290D+06 0.27247290D+06 0.10876579D+01  1  2  4  3  6  4        3 -.254272889183D-02 0.100000000000D+01
-.208873032254D-01 0.000000000000D+00 0.000000000000D+00 0.369181768744D-05 0.000000000000D+00  6 -2 4 25 3 -1 21 2 0.28415507D+00 0.38298821D-01 0.27247290D+06 0.27247290D+06 0.27247290D+06 0.10876579D+01  1  2  5  3  6  4        3 -.295566969914D-02 0.100000000000D+01
0.376345555189D-01 0.000000000000D+00 -.000000000000D+00 0.369181768744D-05 0.000000000000D+00  6 -2 4 25 3 -1 21 2 0.28415507D+00 0.38298821D-01 0.27247290D+06 0.27247290D+06 0.27247290D+06 0.10876579D+01  1  2  6  3  6  4        3 0.532549914115D-02 0.100000000000D+01
0.137699449577D-17 0.000000000000D+00 0.000000000000D+00 0.369181768744D-05 0.506594185177D-07  6 -2 4 25 3 -1 21 2 0.28415507D+00 0.38298821D-01 0.27397795D+06 0.27397795D+06 0.27397795D+06 0.10874794D+01  1  2 11  3  6  4        3 0.194744076219D-18 0.100000000000D+01
  </mgrwgt>
  </event>
  <event>
  5     66 0.20411069E-05 0.24188792E+02 0.75467711E-02 0.94053733E-01
       -4 -1    0    0    0  501 0.00000000E+00 0.00000000E+00 0.48455891E+03 0.48456139E+03 0.15500000E+01 0.0000E+00 0.9000E+01
        2 -1    0    0  502    0 -.00000000E+00 -.00000000E+00 -.12614497E+04 0.12614498E+04 0.32000000E+00 0.0000E+00 0.9000E+01
       25  1    1    2    0    0 -.21108914E+03 0.45837105E+03 -.85831166E+03 0.10034872E+04 0.12500000E+03 0.0000E+00 0.9000E+01
        1  1    1    2  502    0 0.12916232E+02 -.20456601E+02 -.18931446E+03 0.19085432E+03 0.32000000E+00 0.0000E+00 0.9000E+01
       -3  1    1    2    0  501 0.19817291E+03 -.43791445E+03 0.27073529E+03 0.55166966E+03 0.50000000E+00 0.0000E+00 0.9000E+01
#aMCatNLO 1  0  0  4  1 0.28581211D+02 0.00000000D+00  -5  6  0 0.00000000D+00 0.00000000D+00 0.00000000D+00 0.00000000D+00 0.00000000D+00
  <mgrwgt>
 0.5872909551D-02    6    2    0
 0.781824095638528D+03 0.000000000000000D+00 0.000000000000000D+00 0.781824095638528D+03
 0.781824095638528D+03 -.000000000000000D+00 -.000000000000000D+00 -.781824095638528D+03
 0.694100574107942D+03 -.211088992843730D+03 0.458372095860679D+03 -.459877229066065D+03
 0.119017363764182D+03 0.129139917683996D+02 -.204530308595007D+02 -.116533408182553D+03
 0.750530253404933D+03 0.198175001075331D+03 -.437919065001178D+03 0.576410637248619D+03
 0.000000000000000D+00 0.000000000000000D+00 0.000000000000000D+00 -.000000000000000D+00
 0.781824095638528D+03 0.000000000000000D+00 0.000000000000000D+00 0.781824095638528D+03
 0.781824095638528D+03 -.000000000000000D+00 -.000000000000000D+00 -.781824095638528D+03
 0.697802285540112D+03 -.210295455858440D+03 0.457115301157742D+03 -.467037956056852D+03
 0.430549365947236D+02 0.286977205177121D+02 -.180534139942346D+02 -.265375704505091D+02
 0.745657586636486D+03 0.199027991914299D+03 -.439270022030204D+03 0.568713409977903D+03
 0.771333825057345D+02 -.174302565735714D+02 0.208134866696492D+00 -.751378834705416D+02
0.196150587023D-02 0.000000000000D+00 0.000000000000D+00 0.115297540221D-04 0.000000000000D+00  6 -4 2 25 1 -3 21 0 0.74547719D-01 0.19406938D+00 0.26253045D+06 0.26253045D+06 0.26253045D+06 0.10888648D+01  1  2  2  3  6  4        1 0.329902644052D-02 0.100000000000D+01
0.634565499487D-03 0.000000000000D+00 -.753269901803D-05 0.115297540221D-04 0.000000000000D+00  6 -4 2 25 1 -3 21 2 0.74547719D-01 0.19406938D+00 0.26253045D+06 0.26253045D+06 0.26253045D+06 0.10888648D+01  1  2  3  3  6  4        1 0.126537891124D-02 0.100000000000D+01
-.117603093699D-02 0.000000000000D+00 0.000000000000D+00 0.115297540221D-04 0.000000000000D+00  6 -4 2 25 1 -3 21 2 0.74547719D-01 0.19406938D+00 0.26253045D+06 0.26253045D+06 0.26253045D+06 0.10888648D+01  1  2 15  3  6  4        1 -.234510818479D-02 0.100000000000D+01
-.261519832743D-03 0.000000000000D+00 0.000000000000D+00 0.115297540221D-04 0.000000000000D+00  6 -4 2 25 1 -3 21 2 0.74547719D-01 0.19406938D+00 0.26253045D+06 0.26253045D+06 0.26253045D+06 0.10888648D+01  1  2  4  3  6  4        1 -.521493339129D-03 0.100000000000D+01
-.973304629010D-03 0.000000000000D+00 0.000000000000D+00 0.115297540221D-04 0.000000000000D+00  6 -4 2 25 1 -3 21 2 0.74547719D-01 0.19406938D+00 0.26253045D+06 0.26253045D+06 0.26253045D+06 0.10888648D+01  1  2  5  3  6  4        1 -.194085425816D-02 0.100000000000D+01
0.306704747937D-02 0.000000000000D+00 -.000000000000D+00 0.115297540221D-04 0.000000000000D+00  6 -4 2 25 1 -3 21 2 0.74547719D-01 0.19406938D+00 0.26253045D+06 0.26253045D+06 0.26253045D+06 0.10888648D+01  1  2  6  3  6  4        1 0.611595998095D-02 0.100000000000D+01
  </mgrwgt>
  </event>
  <event>
  5     66 -.20411069E-05 0.20770602E+02 0.75467711E-02 0.94515617E-01
       -4 -1    0    0    0  501 0.00000000E+00 0.00000000E+00 0.27296629E+03 0.27297069E+03 0.15500000E+01 0.0000E+00 0.9000E+01
        2 -1    0    0  502    0 -.00000000E+00 -.00000000E+00 -.37896114E+04 0.37896114E+04 0.32000000E+00 0.0000E+00 0.9000E+01
       25  1    1    2    0    0 -.17131802E+03 0.46318974E+03 -.14219950E+03 0.52890481E+03 0.12500000E+03 0.0000E+00 0.9000E+01
        1  1    1    2  502    0 0.17998291E+03 -.44427593E+03 -.34357033E+04 0.34689814E+04 0.32000000E+00 0.0000E+00 0.9000E+01
       -3  1    1    2    0  501 -.86648940E+01 -.18913807E+02 0.61257632E+02 0.64695904E+02 0.50000000E+00 0.0000E+00 0.9000E+01
#aMCatNLO 1  0  0  5  1 0.49202454D+00 0.00000000D+00  -5  6  0 0.00000000D+00 0.00000000D+00 0.00000000D+00 0.00000000D+00 0.00000000D+00
  <mgrwgt>
 -.1668737608D-01    7    2    0
 0.101707675426545D+04 0.000000000000000D+00 0.000000000000000D+00 0.101707675426545D+04
 0.101707675426545D+04 -.000000000000000D+00 -.000000000000000D+00 -.101707675426545D+04
 0.810824329291042D+03 -.171374827190683D+03 0.463270915547911D+03 0.630731179174640D+03
 0.988596860947486D+03 0.180025750116020D+03 -.444387604664085D+03 -.864542734392757D+03
 0.234732318292369D+03 -.865092292533736D+01 -.188833108838267D+02 0.233811555218117D+03
 0.000000000000000D+00 0.000000000000000D+00 0.000000000000000D+00 0.000000000000000D+00
 0.101707675426545D+04 0.000000000000000D+00 0.000000000000000D+00 0.101707675426545D+04
 0.101707675426545D+04 -.000000000000000D+00 -.000000000000000D+00 -.101707675426545D+04
 0.810825091182623D+03 -.171374865307221D+03 0.463270832346795D+03 0.630732209363806D+03
 0.988595799644951D+03 0.180025703642511D+03 -.444387706106871D+03 -.864541478336773D+03
 0.170509139727260D+03 -.649941840550755D+01 -.141569554657212D+02 0.169796068573044D+03
 0.642234779760632D+02 -.215141992978223D+01 -.472617077420329D+01 0.640132003999228D+02
0.205717145886D-04 0.000000000000D+00 0.000000000000D+00 0.968278693876D-04 0.000000000000D+00  6 -4 2 25 1 -3 21 0 0.41995153D-01 0.58301748D+00 0.25490494D+06 0.25490494D+06 0.25490494D+06 0.10898249D+01  1  2  2  4  6  5       -3 0.384704053256D-05 0.100000000000D+01
0.857612636933D-05 0.000000000000D+00 -.790008006770D-07 0.968278693876D-04 0.000000000000D+00  6 -4 2 25 1 -3 21 2 0.41995153D-01 0.58301748D+00 0.25490494D+06 0.25490494D+06 0.25490494D+06 0.10898249D+01  1  2  3  4  6  5       -3 0.190485039155D-05 0.100000000000D+01
-.136564162377D-04 0.000000000000D+00 0.000000000000D+00 0.968278693876D-04 0.000000000000D+00  6 -4 2 25 1 -3 21 2 0.41995153D-01 0.58301748D+00 0.25490494D+06 0.25490494D+06 0.25490494D+06 0.10898249D+01  1  2 15  4  6  5       -3 -.303323769931D-05 0.100000000000D+01
-.642490559901D+00 0.000000000000D+00 0.000000000000D+00 0.968278693876D-04 0.000000000000D+00  6 -4 2 25 1 -3 21 2 0.41995153D-01 0.58301748D+00 0.25490494D+06 0.25490494D+06 0.25490494D+06 0.10898249D+01  1  2  4  4  6  5       -3 -.142704099950D+00 0.100000000000D+01
-.314537030148D+00 0.000000000000D+00 0.000000000000D+00 0.968278693876D-04 0.000000000000D+00  6 -4 2 25 1 -3 21 2 0.41995153D-01 0.58301748D+00 0.25490494D+06 0.25490494D+06 0.25490494D+06 0.10898249D+01  1  2  5  4  6  5       -3 -.698620751646D-01 0.100000000000D+01
0.498893887390D+00 0.000000000000D+00 -.000000000000D+00 0.968278693876D-04 0.000000000000D+00  6 -4 2 25 1 -3 21 2 0.41995153D-01 0.58301748D+00 0.25490494D+06 0.25490494D+06 0.25490494D+06 0.10898249D+01  1  2  6  4  6  5       -3 0.110809726421D+00 0.100000000000D+01
0.382990586837D+00 0.000000000000D+00 0.000000000000D+00 0.968278693876D-04 0.171193137192D-02  6 -4 2 25 1 -3 21 2 0.41995153D-01 0.58301748D+00 0.25490485D+06 0.25490485D+06 0.25490485D+06 0.10898249D+01  1  2 11  4  6  5       -3 0.850663539569D-01 0.100000000000D+01
  </mgrwgt>
  </event>
  <event>
  5     66 0.20411069E-05 0.63954396E+02 0.75467711E-02 0.86686853E-01
       -4 -1    0    0    0  501 0.00000000E+00 0.00000000E+00 0.55961124E+03 0.55961338E+03 0.15500000E+01 0.0000E+00 0.9000E+01
        2 -1    0    0  502    0 0.00000000E+00 0.00000000E+00 -.34557278E+04 0.34557278E+04 0.32000000E+00 0.0000E+00 0.9000E+01
       25  1    1    2    0    0 0.21717255E+02 -.57726476E+03 -.11783045E+04 0.13182309E+04 0.12500000E+03 0.0000E+00 0.9000E+01
        1  1    1    2  502    0 -.16468159E+02 0.51352186E+03 -.21753105E+04 0.22351626E+04 0.32000000E+00 0.0000E+00 0.9000E+01
       -3  1    1    2    0  501 -.52490959E+01 0.63742897E+02 0.45749838E+03 0.46194775E+03 0.50000000E+00 0.0000E+00 0.9000E+01
#aMCatNLO 1  0  0  2  4 0.61465449D+02 0.00000000D+00  -5  6  0 0.00000000D+00 0.00000000D+00 0.00000000D+00 0.00000000D+00 0.00000000D+00
  <mgrwgt>
 0.5363597366D-02    4    2    0
 0.139063599473069D+04 0.000000000000000D+00 0.000000000000000D+00 0.139063599473069D+04
 0.139063599473069D+04 0.000000000000000D+00 0.000000000000000D+00 -.139063599473069D+04
 0.676213999383506D+03 0.217198511178649D+02 -.577345746872143D+03 -.328390787931545D+03
 0.961827724127514D+03 -.164711050417546D+02 0.513607097393708D+03 -.813049213212722D+03
 0.114323026595036D+04 -.524874607611025D+01 0.637386494784354D+02 0.114144000114427D+04
 0.000000000000000D+00 -.000000000000000D+00 0.000000000000000D+00 0.000000000000000D+00
 0.227239502012794D+04 0.000000000000000D+00 0.000000000000000D+00 0.227239502012794D+04
 0.160953731389261D+04 0.000000000000000D+00 0.000000000000000D+00 -.160953731389261D+04
 0.802107509250089D+03 0.174877458540002D+03 -.699520422354966D+03 -.328390787931545D+03
 0.906333016744347D+03 0.177074769574088D+03 0.359214476483570D+03 -.813049213212722D+03
 0.117227586240755D+04 0.234643169531870D+03 -.127624466162150D+03 0.114144000114427D+04
 0.100121594561856D+04 -.586595397645960D+03 0.467930412033545D+03 0.662857706235336D+03
0.125963083681D+00 0.000000000000D+00 0.000000000000D+00 0.170245990643D-03 0.000000000000D+00  6 -4 2 25 1 -3 21 0 0.86094203D-01 0.53165060D+00 0.34160941D+06 0.34160941D+06 0.34160941D+06 0.10804030D+01  1  2  2  2  6  2        2 0.733936027829D-02 0.100000000000D+01
0.555854222360D-01 0.000000000000D+00 -.483731408178D-03 0.170245990643D-03 0.000000000000D+00  6 -4 2 25 1 -3 21 2 0.86094203D-01 0.53165060D+00 0.34160941D+06 0.34160941D+06 0.34160941D+06 0.10804030D+01  1  2  3  2  6  2        2 0.378048407023D-02 0.100000000000D+01
-.843574333117D-01 0.000000000000D+00 0.000000000000D+00 0.170245990643D-03 0.000000000000D+00  6 -4 2 25 1 -3 21 2 0.86094203D-01 0.53165060D+00 0.34160941D+06 0.34160941D+06 0.34160941D+06 0.10804030D+01  1  2 15  2  6  2        2 -.573733040088D-02 0.100000000000D+01
-.278135333295D-03 0.000000000000D+00 0.000000000000D+00 0.170245990643D-03 0.000000000000D+00  6 -4 2 25 1 -3 21 2 0.86094203D-01 0.53165060D+00 0.34160941D+06 0.34160941D+06 0.34160941D+06 0.10804030D+01  1  2  4  2  6  2        2 -.189165819848D-04 0.100000000000D+01
  </mgrwgt>
  </event>
  <event>
  5     66 0.20411069E-05 0.61102720E+02 0.75467711E-02 0.92998984E-01
       -2 -1    0    0    0  501 0.00000000E+00 0.00000000E+00 0.81838658E+03 0.81838664E+03 0.32000000E+00 0.0000E+00 0.9000E+01
        4 -1    0    0  502    0 -.00000000E+00 -.00000000E+00 -.10084722E+04 0.10084734E+04 0.15500000E+01 0.0000E+00 0.9000E+01
       25  1    1    2    0    0 0.33621228E+03 -.33249251E+03 0.78623051E+02 0.49537517E+03 0.12500000E+03 0.0000E+00 0.9000E+01
        3  1    1    2  502    0 0.42655645E+02 0.43739576E+02 -.69172125E+03 0.69441428E+03 0.50000000E+00 0.0000E+00 0.9000E+01
       -1  1    1    2    0  501 -.37886793E+03 0.28875294E+03 0.42301259E+03 0.63707058E+03 0.32000000E+00 0.0000E+00 0.9000E+01
#aMCatNLO 1  0  0  4  2 0.13895333D+02 0.00000000D+00  -5  6  0 0.00000000D+00 0.00000000D+00 0.00000000D+00 0.00000000D+00 0.00000000D+00
  <mgrwgt>
 0.1403511970D-03    4    2    0
 0.908471932733709D+03 0.000000000000000D+00 0.000000000000000D+00 0.908471932733709D+03
 0.908471932733709D+03 -.000000000000000D+00 -.000000000000000D+00 -.908471932733709D+03
 0.506296388434769D+03 0.336179125425105D+03 -.332476398131736D+03 0.130973559376881D+03
 0.625896731447546D+03 0.426603108244567D+02 0.437451748354827D+02 -.622907036399249D+03
 0.684750745585102D+03 -.378839436249562D+03 0.288731223296253D+03 0.491933477022368D+03
 0.000000000000000D+00 0.000000000000000D+00 0.000000000000000D+00 0.000000000000000D+00
 0.908471932733709D+03 0.000000000000000D+00 0.000000000000000D+00 0.908471932733709D+03
 0.908471932733709D+03 -.000000000000000D+00 -.000000000000000D+00 -.908471932733709D+03
 0.501132737404405D+03 0.337658714805217D+03 -.330959182366852D+03 0.109369248061719D+03
 0.839497822401951D+02 0.449563250512264D+02 -.692431769920370D+02 -.152275150997845D+02
 0.664034871073670D+03 -.376858503970288D+03 0.290762531254854D+03 0.463008777892355D+03
 0.567826474749148D+03 -.575653588615551D+01 0.109439828104035D+03 -.557150510854289D+03
0.830780543858D-02 0.000000000000D+00 0.000000000000D+00 0.337996612388D-04 0.000000000000D+00  6 -2 4 25 3 -1 21 0 0.12590572D+00 0.15514966D+00 0.26342020D+06 0.26342020D+06 0.26342020D+06 0.10887548D+01  1  2  2  3  6  4        3 0.342345775590D-03 0.100000000000D+01
0.297575097310D-02 0.000000000000D+00 -.319041603795D-04 0.337996612388D-04 0.000000000000D+00  6 -2 4 25 3 -1 21 2 0.12590572D+00 0.15514966D+00 0.26342020D+06 0.26342020D+06 0.26342020D+06 0.10887548D+01  1  2  3  3  6  4        3 0.145356821418D-03 0.100000000000D+01
-.563381605833D-02 0.000000000000D+00 0.000000000000D+00 0.337996612388D-04 0.000000000000D+00  6 -2 4 25 3 -1 21 2 0.12590572D+00 0.15514966D+00 0.26342020D+06 0.26342020D+06 0.26342020D+06 0.10887548D+01  1  2 15  3  6  4        3 -.275195606788D-03 0.100000000000D+01
-.147717643936D-02 0.000000000000D+00 0.000000000000D+00 0.337996612388D-04 0.000000000000D+00  6 -2 4 25 3 -1 21 2 0.12590572D+00 0.15514966D+00 0.26342020D+06 0.26342020D+06 0.26342020D+06 0.10887548D+01  1  2  5  3  6  4        3 -.721557932235D-04 0.100000000000D+01
  </mgrwgt>
  </event>
  <event>
  5     66 -.20411069E-05 0.10299502E+02 0.75467711E-02 0.95467519E-01
       -4 -1    0    0    0  501 0.00000000E+00 0.00000000E+00 0.26303572E+03 0.26304029E+03 0.15500000E+01 0.0000E+00 0.9000E+01
        2 -1    0    0  502    0 -.00000000E+00 -.00000000E+00 -.13537249E+04 0.13537249E+04 0.32000000E+00 0.0000E+00 0.9000E+01
       25  1    1    2    0    0 0.19917000E+03 0.40596574E+03 -.11409340E+03 0.48282417E+03 0.12500000E+03 0.0000E+00 0.9000E+01
        1  1    1    2  502    0 -.20672426E+03 -.39887079E+03 -.10065399E+04 0.11022502E+04 0.32000000E+00 0.0000E+00 0.9000E+01
       -3  1    1    2    0  501 0.75542533E+01 -.70949550E+01 0.29944161E+02 0.31690817E+02 0.50000000E+00 0.0000E+00 0.9000E+01
#aMCatNLO 1  0  0  4  2 0.13895333D+02 0.00000000D+00  -5  6  0 0.00000000D+00 0.00000000D+00 0.00000000D+00 0.00000000D+00 0.00000000D+00
  <mgrwgt>
 -.3323026924D-03    1    2    0
 0.596725836855359D+03 0.000000000000000D+00 0.000000000000000D+00 0.596725836855359D+03
 0.596725836855359D+03 -.000000000000000D+00 -.000000000000000D+00 -.596725836855359D+03
 0.550141573371805D+03 0.199294389626299D+03 0.406101113795329D+03 0.287044216784939D+03
 0.573449694655292D+03 -.206801887831126D+03 -.399050071181928D+03 -.356141225049036D+03
 0.698604056836210D+02 0.750749820482628D+01 -.705104261340071D+01 0.690970082640967D+02
 0.000000000000000D+00 0.000000000000000D+00 -.000000000000000D+00 0.000000000000000D+00
 0.596725836855359D+03 0.000000000000000D+00 0.000000000000000D+00 0.596725836855359D+03
 0.596725836855359D+03 -.000000000000000D+00 -.000000000000000D+00 -.596725836855359D+03
 0.510387638701642D+03 0.184451129999489D+03 0.377459190490028D+03 0.261482087141665D+03
 0.481580202511742D+03 -.205766702697077D+03 -.238314960919679D+03 -.364397495757414D+03
 0.669062003340565D+02 0.559330082272019D+01 -.107447255366894D+02 0.658004977351134D+02
 0.134577632163278D+03 0.157222718748676D+02 -.128399504033659D+03 0.371149108806352D+02
-.449355044138D-04 0.000000000000D+00 0.000000000000D+00 0.600570257522D-05 0.000000000000D+00  6 -4 2 25 1 -3 21 2 0.40467388D-01 0.20826572D+00 0.21579397D+06 0.21579397D+06 0.21579397D+06 0.10952991D+01  1  2 14  3  6  4        1 -.332302692430D-03 0.100000000000D+01
  </mgrwgt>
  </event>
  <event>
  5     66 -.20411069E-05 0.17032652E+02 0.75467711E-02 0.95124079E-01
       -4 -1    0    0    0  501 0.00000000E+00 0.00000000E+00 0.67019409E+03 0.67019589E+03 0.15500000E+01 0.0000E+00 0.9000E+01
        2 -1    0    0  502    0 0.00000000E+00 0.00000000E+00 -.14463971E+04 0.14463971E+04 0.32000000E+00 0.0000E+00 0.9000E+01
       25  1    1    2    0    0 0.45147513E+03 0.91012058E+02 0.22556685E+03 0.52784315E+03 0.12500000E+03 0.0000E+00 0.9000E+01
        1  1    1    2  502    0 -.43460666E+03 -.93467937E+02 -.12568240E+04 0.13331263E+04 0.32000000E+00 0.0000E+00 0.9000E+01
       -3  1    1    2    0  501 -.16868471E+02 0.24558793E+01 0.25505408E+03 0.25562357E+03 0.50000000E+00 0.0000E+00 0.9000E+01
#aMCatNLO 1  0  0  2  4 0.18647928D+02 0.00000000D+00  -5  6  0 0.00000000D+00 0.00000000D+00 0.00000000D+00 0.00000000D+00 0.00000000D+00
  <mgrwgt>
 -.3193774446D-01    7    2    0
 0.984565253101706D+03 0.000000000000000D+00 0.000000000000000D+00 0.984565253101706D+03
 0.984565253101706D+03 0.000000000000000D+00 0.000000000000000D+00 -.984565253101706D+03
 0.656550785347064D+03 0.451572003232833D+03 0.910371788301321D+02 0.450809152199445D+03
 0.937575601279732D+03 -.434717047262043D+03 -.934910904341384D+02 -.825426261360915D+03
 0.375004119576617D+03 -.168549559707903D+02 0.245391160400633D+01 0.374617109161469D+03
 0.000000000000000D+00 -.000000000000000D+00 0.000000000000000D+00 -.000000000000000D+00
 0.985391654284284D+03 0.000000000000000D+00 0.000000000000000D+00 0.985391654284284D+03
 0.109574525045544D+04 0.000000000000000D+00 0.000000000000000D+00 -.109574525045544D+04
 0.656460071702217D+03 0.452632323569715D+03 0.849112106401675D+02 0.450809152199445D+03
 0.937787918081346D+03 -.433202599709725D+03 -.102240764667636D+03 -.825426261360915D+03
 0.374970813620368D+03 -.162493146163789D+02 -.104516272532585D+01 0.374617109161469D+03
 0.111918101335793D+03 -.318040924361061D+01 0.183747167527939D+02 -.110353596171156D+03
0.598095635658D-03 0.000000000000D+00 0.000000000000D+00 0.238275219000D-03 0.000000000000D+00  6 -4 2 25 1 -3 21 0 0.10310692D+00 0.22252277D+00 0.22043246D+06 0.22043246D+06 0.22043246D+06 0.10945955D+01  1  2  2  2  6  2        2 0.336173759126D-03 0.100000000000D+01
0.366616883944D-03 0.000000000000D+00 -.229684472313D-05 0.238275219000D-03 0.000000000000D+00  6 -4 2 25 1 -3 21 2 0.10310692D+00 0.22252277D+00 0.22043246D+06 0.22043246D+06 0.22043246D+06 0.10945955D+01  1  2  3  2  6  2        2 0.246895366736D-03 0.100000000000D+01
-.374136440257D-03 0.000000000000D+00 0.000000000000D+00 0.238275219000D-03 0.000000000000D+00  6 -4 2 25 1 -3 21 2 0.10310692D+00 0.22252277D+00 0.22043246D+06 0.22043246D+06 0.22043246D+06 0.10945955D+01  1  2 15  2  6  2        2 -.251959355043D-03 0.100000000000D+01
-.615186791307D-01 0.000000000000D+00 0.000000000000D+00 0.238275219000D-03 0.000000000000D+00  6 -4 2 25 1 -3 21 2 0.10310692D+00 0.22252277D+00 0.22043246D+06 0.22043246D+06 0.22043246D+06 0.10945955D+01  1  2  4  2  6  2        2 -.414292890216D-01 0.100000000000D+01
-.764798543560D-01 0.000000000000D+00 -.114722263658D-02 0.238275219000D-03 0.000000000000D+00  6 -4 2 25 1 -3 21 2 0.10310692D+00 0.24772538D+00 0.22043246D+06 0.22043246D+06 0.22043246D+06 0.10945955D+01  1  2  5  2  6  2        2 -.419116884444D-01 0.100000000000D+01
0.761706754046D-01 0.000000000000D+00 0.114065107137D-02 0.238275219000D-03 0.000000000000D+00  6 -4 2 25 1 -3 21 2 0.10310692D+00 0.22252277D+00 0.22043246D+06 0.22043246D+06 0.22043246D+06 0.10945955D+01  1  2  6  2  6  2        2 0.512965650579D-01 0.100000000000D+01
-.131536376954D-02 0.000000000000D+00 -.197955926806D-04 0.238275219000D-03 0.000000000000D+00  6 -4 21 25 1 -3 -2 2 0.10310692D+00 0.24772538D+00 0.22043246D+06 0.22043246D+06 0.22043246D+06 0.10945955D+01  1  2  5  6  6  2        2 -.224441822364D-03 0.100000000000D+01
  </mgrwgt>
  </event>
  <event>
  5     66 -.20411069E-05 0.91740277E+02 0.75467711E-02 0.94300865E-01
       -4 -1    0    0    0  501 0.00000000E+00 0.00000000E+00 0.58553533E+03 0.58553738E+03 0.15500000E+01 0.0000E+00 0.9000E+01
        2 -1    0    0  502    0 0.00000000E+00 0.00000000E+00 -.20661239E+04 0.20661239E+04 0.32000000E+00 0.0000E+00 0.9000E+01
       25  1    1    2    0    0 -.50654307E+00 0.49309254E+03 -.55052009E+03 0.74955845E+03 0.12500000E+03 0.0000E+00 0.9000E+01
        1  1    1    2  502    0 0.11371994E+02 -.91014959E+02 -.13310165E+04 0.13341732E+04 0.32000000E+00 0.0000E+00 0.9000E+01
       -3  1    1    2    0  501 -.10865451E+02 -.40207758E+03 0.40094807E+03 0.56792961E+03 0.50000000E+00 0.0000E+00 0.9000E+01
#aMCatNLO 1  0  0  1  5 0.54683004D+02 0.00000000D+00  -5  6  0 0.00000000D+00 0.00000000D+00 0.00000000D+00 0.00000000D+00 0.00000000D+00
  <mgrwgt>
 -.1908801780D-01    9    4    0
 0.109990511464106D+04 0.000000000000000D+00 0.000000000000000D+00 0.109990511464106D+04
 0.109990511464106D+04 0.000000000000000D+00 0.000000000000000D+00 -.109990511464106D+04
 0.532949014779092D+03 -.509068071524627D+00 0.493089488575399D+03 -.158972165677378D+03
 0.712465974777742D+03 0.113739629484558D+02 -.910324744052365D+02 -.706534844707963D+03
 0.954395239725284D+03 -.108648948769312D+02 -.402057014170162D+03 0.865507010385340D+03
 0.000000000000000D+00 0.000000000000000D+00 -.000000000000000D+00 0.000000000000000D+00
 0.151343588713435D+04 0.000000000000000D+00 0.000000000000000D+00 0.151343588713435D+04
 0.110205412085451D+04 0.000000000000000D+00 0.000000000000000D+00 -.110205412085451D+04
 0.545330749552780D+03 -.160658606377826D+01 0.506444365976028D+03 -.158972165677378D+03
 0.710407620671705D+03 0.992570302244670D+01 -.734096801616723D+02 -.706534844707963D+03
 0.944751410649746D+03 -.127979253275270D+02 -.378535409183641D+03 0.865507010385340D+03
 0.415000227114631D+03 0.447880836885853D+01 -.544992766307147D+02 0.411381766279838D+03
 0.109990511464106D+04 0.000000000000000D+00 0.000000000000000D+00 0.109990511464106D+04
 0.109990511464106D+04 0.000000000000000D+00 0.000000000000000D+00 -.109990511464106D+04
 0.532949014779092D+03 -.509068071524627D+00 0.493089488575399D+03 -.158972165677378D+03
 0.712465974777742D+03 0.113739629484558D+02 -.910324744052365D+02 -.706534844707963D+03
 0.000000000000000D+00 0.000000000000000D+00 -.000000000000000D+00 0.000000000000000D+00
 0.954395239725284D+03 -.108648948769312D+02 -.402057014170162D+03 0.865507010385340D+03
 0.151343588713435D+04 0.000000000000000D+00 0.000000000000000D+00 0.151343588713435D+04
 0.110205412085451D+04 0.000000000000000D+00 0.000000000000000D+00 -.110205412085451D+04
 0.545330749552780D+03 -.160658606377826D+01 0.506444365976028D+03 -.158972165677378D+03
 0.710407620671705D+03 0.992570302244670D+01 -.734096801616723D+02 -.706534844707963D+03
 0.415000227114631D+03 0.447880836885853D+01 -.544992766307147D+02 0.411381766279838D+03
 0.944751410649746D+03 -.127979253275270D+02 -.378535409183641D+03 0.865507010385340D+03
0.650603206371D-03 0.000000000000D+00 0.000000000000D+00 0.101017258503D-03 0.000000000000D+00  6 -4 2 25 1 -3 21 0 0.90082518D-01 0.31786537D+00 0.25131728D+06 0.25131728D+06 0.25131728D+06 0.10902874D+01  1  2  2  1  6  1       -4 0.242257201588D-03 0.100000000000D+01
0.154085795206D-03 0.000000000000D+00 -.249848762022D-05 0.101017258503D-03 0.000000000000D+00  6 -4 2 25 1 -3 21 2 0.90082518D-01 0.31786537D+00 0.25131728D+06 0.25131728D+06 0.25131728D+06 0.10902874D+01  1  2  3  1  6  1       -4 0.682032588243D-04 0.100000000000D+01
-.411988111354D-03 0.000000000000D+00 0.000000000000D+00 0.101017258503D-03 0.000000000000D+00  6 -4 2 25 1 -3 21 2 0.90082518D-01 0.31786537D+00 0.25131728D+06 0.25131728D+06 0.25131728D+06 0.10902874D+01  1  2 15  1  6  1       -4 -.182359001708D-03 0.100000000000D+01
0.404887563102D-01 0.000000000000D+00 0.000000000000D+00 0.101017258503D-03 0.000000000000D+00  6 -4 2 25 1 -3 21 2 0.12638604D+00 0.31786537D+00 0.26479120D+06 0.26479120D+06 0.26479120D+06 0.10885861D+01  1  2 12  1  6  1       -4 0.678483844923D-02 0.100000000000D+01
-.814607833719D-01 0.000000000000D+00 0.000000000000D+00 0.101017258503D-03 0.000000000000D+00  6 -4 2 25 1 -3 21 2 0.90082518D-01 0.31786537D+00 0.25131728D+06 0.25131728D+06 0.25131728D+06 0.10902874D+01  1  2  4  1  6  1       -4 -.360571257390D-01 0.100000000000D+01
-.437556635947D-01 0.000000000000D+00 -.523343068993D-03 0.101017258503D-03 0.000000000000D+00  6 -4 2 25 1 -3 21 2 0.12404207D+00 0.31786537D+00 0.25131728D+06 0.25131728D+06 0.25131728D+06 0.10902874D+01  1  2  5  1  6  1       -4 -.780655244458D-02 0.100000000000D+01
0.417921145263D-01 0.000000000000D+00 0.497661678258D-03 0.101017258503D-03 0.000000000000D+00  6 -4 2 25 1 -3 21 2 0.90082518D-01 0.31786537D+00 0.25131728D+06 0.25131728D+06 0.25131728D+06 0.10902874D+01  1  2  6  1  6  1       -4 0.184985150645D-01 0.100000000000D+01
0.170785199840D-02 0.000000000000D+00 0.000000000000D+00 0.101017258503D-03 0.000000000000D+00  6 21 2 25 1 4 -3 2 0.12638604D+00 0.31786537D+00 0.26479120D+06 0.26479120D+06 0.26479120D+06 0.10885861D+01  3  4 12  5  5  1       -4 0.672939191806D-02 0.100000000000D+01
-.175862026738D-02 0.000000000000D+00 -.211889830832D-04 0.101017258503D-03 0.000000000000D+00  6 21 2 25 1 4 -3 2 0.12404207D+00 0.31786537D+00 0.25131728D+06 0.25131728D+06 0.25131728D+06 0.10902874D+01  3  4  5  5  5  1       -4 -.736518650873D-02 0.100000000000D+01
  </mgrwgt>
  </event>
  <event>
  6     66 0.20411069E-05 0.94686170E+02 0.75467711E-02 0.92329832E-01
       21 -1    0    0  503  501 0.00000000E+00 0.00000000E+00 0.77095396E+03 0.77095432E+03 0.75000000E+00 0.0000E+00 0.9000E+01
        2 -1    0    0  502    0 0.00000000E+00 0.00000000E+00 -.10646059E+04 0.10646060E+04 0.32000000E+00 0.0000E+00 0.9000E+01
       25  1    1    2    0    0 -.51314775E+03 -.14563278E+03 0.28750580E+03 0.61871973E+03 0.12500000E+03 0.0000E+00 0.9000E+01
        1  1    1    2  502    0 0.51924646E+03 0.25112303E+03 -.78549385E+03 0.97451544E+03 0.32000000E+00 0.0000E+00 0.9000E+01
        4  1    1    2  503    0 0.13012175E+01 -.72047291E+01 0.94310110E+02 0.94606557E+02 0.15500000E+01 0.0000E+00 0.9000E+01
       -3  1    1    2    0  501 -.73999336E+01 -.98285519E+02 0.11002599E+03 0.14771855E+03 0.50000000E+00 0.0000E+00 0.9000E+01
#aMCatNLO 2  0  0  1  5 0.73212900D+01 0.00000000D+00  -5  6  0 0.00000000D+00 0.00000000D+00 0.00000000D+00 0.00000000D+00 0.00000000D+00
  <mgrwgt>
 0.2752265460D-03    2    2    0
 0.848579946839501D+03 0.000000000000000D+00 0.000000000000000D+00 0.848579946839501D+03
 0.848579946839501D+03 0.000000000000000D+00 0.000000000000000D+00 -.848579946839501D+03
 0.700965996733072D+03 -.512776712825625D+03 -.148854993033662D+03 0.436612599919750D+03
 0.819491039601818D+03 0.520025042798809D+03 0.247673497150662D+03 -.582921399211701D+03
 0.000000000000000D+00 0.000000000000000D+00 -.000000000000000D+00 0.000000000000000D+00
 0.176702857344113D+03 -.724832997318433D+01 -.988185041169996D+02 0.146308799291951D+03
 0.967069414836398D+03 0.000000000000000D+00 0.000000000000000D+00 0.967069414836398D+03
 0.848700943009802D+03 0.000000000000000D+00 0.000000000000000D+00 -.848700943009802D+03
 0.700733751887203D+03 -.513314053988546D+03 -.145879781337498D+03 0.436612599919750D+03
 0.820151375538184D+03 0.519396486388641D+03 0.251153759807378D+03 -.582921399211701D+03
 0.118594672773988D+03 0.130121748900030D+01 -.720472906166140D+01 0.118368471826597D+03
 0.176290557646825D+03 -.738364988909469D+01 -.980692494082191D+02 0.146308799291951D+03
-.614707811900D-04 0.000000000000D+00 0.000000000000D+00 0.292241779986D-06 0.000000000000D+00  6 21 2 25 1 4 -3 2 0.11904625D+00 0.16376123D+00 0.37864670D+06 0.37864670D+06 0.37864670D+06 0.10771494D+01  1  2 13  5  5  1       -4 -.980284433195D-03 0.100000000000D+01
0.779491830693D-04 0.000000000000D+00 0.000000000000D+00 0.292241779986D-06 0.871081439785D-09  6 21 2 25 1 4 -3 2 0.11860763D+00 0.16378458D+00 0.37864670D+06 0.37864670D+06 0.37864670D+06 0.10771494D+01  1  2  1  5  5  1       -4 0.125551097917D-02 0.100000000000D+01
  </mgrwgt>
  </event>
  <event>
  6     66 0.20411069E-05 0.12926554E+03 0.75467711E-02 0.94294550E-01
       -4 -1    0    0    0  501 0.00000000E+00 0.00000000E+00 0.32361119E+03 0.32361490E+03 0.15500000E+01 0.0000E+00 0.9000E+01
        2 -1    0    0  502    0 -.00000000E+00 -.00000000E+00 -.22082066E+04 0.22082067E+04 0.32000000E+00 0.0000E+00 0.9000E+01
       25  1    1    2    0    0 0.32732324E+03 -.35967223E+03 -.10919153E+04 0.12018355E+04 0.12500000E+03 0.0000E+00 0.9000E+01
        1  1    1    2  503    0 -.54750641E+02 0.14261737E+03 -.13952101E+03 0.20689022E+03 0.32000000E+00 0.0000E+00 0.9000E+01
       -3  1    1    2    0  501 -.13229045E+02 -.19484336E+02 0.19956589E+03 0.20095135E+03 0.50000000E+00 0.0000E+00 0.9000E+01
       21  1    1    2  502  503 -.25934356E+03 0.23653920E+03 -.85272504E+03 0.92214447E+03 0.75000000E+00 0.0000E+00 0.9000E+01
#aMCatNLO 2  0  0  4  5 0.93809215D+02 0.00000000D+00  -5  6  0 0.00000000D+00 0.00000000D+00 0.00000000D+00 0.00000000D+00 0.00000000D+00
  <mgrwgt>
 0.4062803941D-02    1    2    0
 0.845343186537499D+03 0.000000000000000D+00 0.000000000000000D+00 0.845343186537499D+03
 0.845343186537499D+03 -.000000000000000D+00 -.000000000000000D+00 -.845343186537499D+03
 0.590918399268739D+03 0.336020377103330D+03 -.370171220278882D+03 -.289176638826355D+03
 0.570637868613571D+03 -.330528843461678D+03 0.398986785872054D+03 -.239139719484680D+03
 0.529130105192689D+03 -.549153364165114D+01 -.288155655931721D+02 0.528316358311035D+03
 0.000000000000000D+00 0.000000000000000D+00 0.000000000000000D+00 -.000000000000000D+00
 0.845343186537499D+03 0.000000000000000D+00 0.000000000000000D+00 0.845343186537499D+03
 0.845343186537499D+03 -.000000000000000D+00 -.000000000000000D+00 -.845343186537499D+03
 0.582694578215283D+03 0.327415416288901D+03 -.359784031003820D+03 -.295402382679109D+03
 0.153754376022015D+03 -.544956625599328D+02 0.142118679363606D+03 0.217465372879816D+02
 0.523263999626089D+03 -.132077145352157D+02 -.195012371318873D+02 0.522733652381185D+03
 0.430973419211612D+03 -.259712039193752D+03 0.237166588772101D+03 -.249077806990058D+03
0.258619144803D-02 0.000000000000D+00 0.000000000000D+00 0.155455371799D-04 0.203912581049D-08  6 -4 2 25 1 -3 21 2 0.49786624D-01 0.33972438D+00 0.26508839D+06 0.26508839D+06 0.26508839D+06 0.10885496D+01  1  2  1  3  6  4        1 0.406280394104D-02 0.100000000000D+01
  </mgrwgt>
  </event>
  <event>
  5     66 0.20411069E-05 0.67300873E+02 0.75467711E-02 0.94487846E-01
       -2 -1    0    0    0  501 0.00000000E+00 0.00000000E+00 0.14554132E+04 0.14554132E+04 0.32000000E+00 0.0000E+00 0.9000E+01
        4 -1    0    0  502    0 0.00000000E+00 0.00000000E+00 -.62848372E+03 0.62848563E+03 0.15500000E+01 0.0000E+00 0.9000E+01
       25  1    1    2    0    0 0.32713170E+03 -.34771216E+03 0.44792442E+03 0.66646844E+03 0.12500000E+03 0.0000E+00 0.9000E+01
        3  1    1    2  502    0 -.26264326E+03 0.36701981E+03 -.41945395E+03 0.61613869E+03 0.50000000E+00 0.0000E+00 0.9000E+01
       -1  1    1    2    0  501 -.64488446E+02 -.19307644E+02 0.79845898E+03 0.80129170E+03 0.32000000E+00 0.0000E+00 0.9000E+01
#aMCatNLO 1  0  0  4  2 0.96814841D+02 0.00000000D+00  -5  6  0 0.00000000D+00 0.00000000D+00 0.00000000D+00 0.00000000D+00 0.00000000D+00
  <mgrwgt>
 0.5739492946D-03    4    2    0
 0.956402377426782D+03 0.000000000000000D+00 0.000000000000000D+00 0.956402377426782D+03
 0.956402377426782D+03 -.000000000000000D+00 -.000000000000000D+00 -.956402377426782D+03
 0.532535702567873D+03 0.327159121980789D+03 -.347770011880777D+03 0.199980504676486D+03
 0.852612837472427D+03 -.262685885457741D+03 0.367073102162177D+03 -.723327114017650D+03
 0.527656214813264D+03 -.644732365230475D+02 -.193030902814002D+02 0.523346609341164D+03
 0.000000000000000D+00 0.000000000000000D+00 0.000000000000000D+00 0.000000000000000D+00
 0.956402377426782D+03 0.000000000000000D+00 0.000000000000000D+00 0.956402377426782D+03
 0.956402377426782D+03 -.000000000000000D+00 -.000000000000000D+00 -.956402377426782D+03
 0.459924714190468D+03 0.297293830204194D+03 -.306036725448923D+03 0.117743976161008D+03
 0.564182317231629D+03 0.195111325736386D+03 0.351590946477527D+03 -.395748738470860D+03
 0.452533538546597D+03 -.939692773587481D+02 0.219142107250700D+02 0.442126843553381D+03
 0.436164184884871D+03 -.398435878581832D+03 -.674684317536747D+02 -.164122081243529D+03
0.289205312638D-01 0.000000000000D+00 0.000000000000D+00 0.546219179851D-04 0.000000000000D+00  6 -2 4 25 3 -1 21 0 0.22390987D+00 0.96689952D-01 0.25615968D+06 0.25615968D+06 0.25615968D+06 0.10896648D+01  1  2  2  3  6  4        3 0.923799145901D-03 0.100000000000D+01
0.806427547580D-02 0.000000000000D+00 -.111062455004D-03 0.546219179851D-04 0.000000000000D+00  6 -2 4 25 3 -1 21 2 0.22390987D+00 0.96689952D-01 0.25615968D+06 0.25615968D+06 0.25615968D+06 0.10896648D+01  1  2  3  3  6  4        3 0.305859841535D-03 0.100000000000D+01
-.170084249997D-01 0.000000000000D+00 0.000000000000D+00 0.546219179851D-04 0.000000000000D+00  6 -2 4 25 3 -1 21 2 0.22390987D+00 0.96689952D-01 0.25615968D+06 0.25615968D+06 0.25615968D+06 0.10896648D+01  1  2 15  3  6  4        3 -.645091327890D-03 0.100000000000D+01
-.279962938341D-03 0.000000000000D+00 0.000000000000D+00 0.546219179851D-04 0.000000000000D+00  6 -2 4 25 3 -1 21 2 0.22390987D+00 0.96689952D-01 0.25615968D+06 0.25615968D+06 0.25615968D+06 0.10896648D+01  1  2  4  3  6  4        3 -.106183649372D-04 0.100000000000D+01
  </mgrwgt>
  </event>
  <event>
  5     66 -.20411069E-05 0.10831104E+02 0.75467711E-02 0.89188474E-01
       -4 -1    0    0    0  501 0.00000000E+00 0.00000000E+00 0.57252767E+03 0.57252977E+03 0.15500000E+01 0.0000E+00 0.9000E+01
        2 -1    0    0  502    0 -.00000000E+00 -.00000000E+00 -.14525527E+04 0.14525527E+04 0.32000000E+00 0.0000E+00 0.9000E+01
       25  1    1    2    0    0 -.42805362E+03 0.69083182E+03 -.73607594E+03 0.11035902E+04 0.12500000E+03 0.0000E+00 0.9000E+01
        1  1    1    2  502    0 0.94483244E+01 0.53006708E+01 -.10784736E+03 0.10839060E+03 0.32000000E+00 0.0000E+00 0.9000E+01
       -3  1    1    2    0  501 0.41860529E+03 -.69613249E+03 -.36101741E+02 0.81310173E+03 0.50000000E+00 0.0000E+00 0.9000E+01
#aMCatNLO 1  0  0  4  1 0.68033936D+01 0.00000000D+00  -5  6  0 0.00000000D+00 0.00000000D+00 0.00000000D+00 0.00000000D+00 0.00000000D+00
  <mgrwgt>
 -.9727885335D-03    4    2    0
 0.911936828800437D+03 0.000000000000000D+00 0.000000000000000D+00 0.911936828800437D+03
 0.911936828800437D+03 -.000000000000000D+00 -.000000000000000D+00 -.911936828800437D+03
 0.870197188740543D+03 -.428056158149659D+03 0.690841024104459D+03 -.284824072326059D+03
 0.682838705396285D+02 0.944649877535266D+01 0.529872439685334D+01 -.674193900634394D+02
 0.885392598320703D+03 0.418609659374306D+03 -.696139748501312D+03 0.352243462389498D+03
 0.000000000000000D+00 0.000000000000000D+00 0.000000000000000D+00 0.000000000000000D+00
 0.911936828800437D+03 0.000000000000000D+00 0.000000000000000D+00 0.911936828800437D+03
 0.911936828800437D+03 -.000000000000000D+00 -.000000000000000D+00 -.911936828800437D+03
 0.874934239971816D+03 -.426034976425988D+03 0.691974744138132D+03 -.299249188155511D+03
 0.500791494317710D+02 -.998586553665042D+01 0.851780639899260D+01 -.483285699296272D+02
 0.879758246100847D+03 0.420654027246873D+03 -.694993022906981D+03 0.337652867682243D+03
 0.191020220964398D+02 0.153668147157655D+02 -.549952763014359D+01 0.992489040289577D+01
0.303848677531D-03 0.000000000000D+00 0.000000000000D+00 0.113155733767D-05 0.000000000000D+00  6 -4 2 25 1 -3 21 0 0.88081344D-01 0.22346981D+00 0.67683816D+06 0.67683816D+06 0.67683816D+06 0.10593379D+01  1  2  2  3  6  4        1 0.250695592138D-03 0.100000000000D+01
0.191310710422D-03 0.000000000000D+00 -.116685892691D-05 0.113155733767D-05 0.000000000000D+00  6 -4 2 25 1 -3 21 2 0.88081344D-01 0.22346981D+00 0.67683816D+06 0.67683816D+06 0.67683816D+06 0.10593379D+01  1  2  3  3  6  4        1 0.177132265383D-03 0.100000000000D+01
-.192255680073D-03 0.000000000000D+00 0.000000000000D+00 0.113155733767D-05 0.000000000000D+00  6 -4 2 25 1 -3 21 2 0.88081344D-01 0.22346981D+00 0.67683816D+06 0.67683816D+06 0.67683816D+06 0.10593379D+01  1  2 15  3  6  4        1 -.178007201316D-03 0.100000000000D+01
-.132047220272D-02 0.000000000000D+00 0.000000000000D+00 0.113155733767D-05 0.000000000000D+00  6 -4 2 25 1 -3 21 2 0.88081344D-01 0.22346981D+00 0.67683816D+06 0.67683816D+06 0.67683816D+06 0.10593379D+01  1  2  4  3  6  4        1 -.122260918967D-02 0.100000000000D+01
  </mgrwgt>
  </event>
  <event>
  5     66 0.20411069E-05 0.58988509E+02 0.75467711E-02 0.90696725E-01
       -4 -1    0    0    0  501 0.00000000E+00 0.00000000E+00 0.26583603E+03 0.26584055E+03 0.15500000E+01 0.0000E+00 0.9000E+01
        2 -1    0    0  502    0 -.00000000E+00 -.00000000E+00 -.36962470E+04 0.36962470E+04 0.32000000E+00 0.0000E+00 0.9000E+01
       25  1    1    2    0    0 -.63374221E+03 0.11595920E+03 -.69804475E+03 0.95810604E+03 0.12500000E+03 0.0000E+00 0.9000E+01
        1  1    1    2  502    0 0.67044350E+03 -.69713715E+02 -.28193747E+04 0.28988323E+04 0.32000000E+00 0.0000E+00 0.9000E+01
       -3  1    1    2    0  501 -.36701290E+02 -.46245481E+02 0.87008527E+02 0.10514924E+03 0.50000000E+00 0.0000E+00 0.9000E+01
#aMCatNLO 1  0  0  5  4 0.26065763D+02 0.00000000D+00  -5  6  0 0.00000000D+00 0.00000000D+00 0.00000000D+00 0.00000000D+00 0.00000000D+00
  <mgrwgt>
 0.2563261690D-03    4    2    0
 0.991264145496392D+03 0.000000000000000D+00 0.000000000000000D+00 0.991264145496392D+03
 0.991264145496392D+03 -.000000000000000D+00 -.000000000000000D+00 -.991264145496392D+03
 0.707185361188606D+03 -.633931166977550D+03 0.115948791367454D+03 0.263008152714639D+03
 0.914959353885200D+03 0.670600934353752D+03 -.697430306005984D+02 -.618531256921218D+03
 0.360383575918980D+03 -.366697673762017D+02 -.462057607668560D+02 0.355523104206579D+03
 0.000000000000000D+00 0.000000000000000D+00 0.000000000000000D+00 0.000000000000000D+00
 0.991264145496392D+03 0.000000000000000D+00 0.000000000000000D+00 0.991264145496392D+03
 0.991264145496392D+03 -.000000000000000D+00 -.000000000000000D+00 -.991264145496392D+03
 0.711459867501495D+03 -.634913917200406D+03 0.114710476402841D+03 0.272536176339793D+03
 0.905927943048528D+03 0.669339535548281D+03 -.713324568666350D+02 -.606301661506481D+03
 0.339073436636443D+03 -.415707671031594D+02 -.680905168476345D+02 0.329554772792513D+03
 0.260670438063185D+02 0.714514875528423D+01 0.247124973114285D+02 0.421071237417494D+01
0.211856136644D-02 0.000000000000D+00 0.000000000000D+00 0.592088107996D-05 0.000000000000D+00  6 -4 2 25 1 -3 21 0 0.40898200D-01 0.56865373D+00 0.48279215D+06 0.48279215D+06 0.48279215D+06 0.10695870D+01  1  2  2  4  6  5       -3 0.472487899397D-03 0.100000000000D+01
0.659359803027D-03 0.000000000000D+00 -.813583347715D-05 0.592088107996D-05 0.000000000000D+00  6 -4 2 25 1 -3 21 2 0.40898200D-01 0.56865373D+00 0.48279215D+06 0.48279215D+06 0.48279215D+06 0.10695870D+01  1  2  3  4  6  5       -3 0.168230348950D-03 0.100000000000D+01
-.127917000417D-02 0.000000000000D+00 0.000000000000D+00 0.592088107996D-05 0.000000000000D+00  6 -4 2 25 1 -3 21 2 0.40898200D-01 0.56865373D+00 0.48279215D+06 0.48279215D+06 0.48279215D+06 0.10695870D+01  1  2 15  4  6  5       -3 -.326369935171D-03 0.100000000000D+01
-.227411223957D-03 0.000000000000D+00 0.000000000000D+00 0.592088107996D-05 0.000000000000D+00  6 -4 2 25 1 -3 21 2 0.40898200D-01 0.56865373D+00 0.48279215D+06 0.48279215D+06 0.48279215D+06 0.10695870D+01  1  2  4  4  6  5       -3 -.580221441856D-04 0.100000000000D+01
  </mgrwgt>
  </event>
  <event>
  5     66 -.20411069E-05 0.76669022E+02 0.75467711E-02 0.94456497E-01
       -4 -1    0    0    0  501 0.00000000E+00 0.00000000E+00 0.18430506E+03 0.18431158E+03 0.15500000E+01 0.0000E+00 0.9000E+01
        2 -1    0    0  502    0 -.00000000E+00 -.00000000E+00 -.27174899E+04 0.27174899E+04 0.32000000E+00 0.0000E+00 0.9000E+01
       25  1    1    2    0    0 -.10380237E+02 0.49215889E+03 -.76755329E+03 0.92037556E+03 0.12500000E+03 0.0000E+00 0.9000E+01
        1  1    1    2  502    0 0.61014273E+02 -.15887752E+03 -.15941539E+04 0.16032128E+04 0.32000000E+00 0.0000E+00 0.9000E+01
       -3  1    1    2    0  501 -.50634037E+02 -.33328137E+03 -.17147767E+03 0.37821306E+03 0.50000000E+00 0.0000E+00 0.9000E+01
#aMCatNLO 1  0  0  4  2 0.58172381D+01 0.00000000D+00  -5  6  0 0.00000000D+00 0.00000000D+00 0.00000000D+00 0.00000000D+00 0.00000000D+00
  <mgrwgt>
 -.2911622270D-02    8    2    0
 0.707712244346776D+03 0.000000000000000D+00 0.000000000000000D+00 0.707712244346776D+03
 0.707712244346776D+03 -.000000000000000D+00 -.000000000000000D+00 -.707712244346776D+03
 0.513192976328026D+03 -.104141178863503D+02 0.492117035899262D+03 0.738539103825384D+02
 0.433887530469727D+03 0.610322201664335D+02 -.158940543754440D+03 -.399088161625620D+03
 0.468343981895800D+03 -.506181022800832D+02 -.333176492144822D+03 0.325234251243082D+03
 0.000000000000000D+00 0.000000000000000D+00 0.000000000000000D+00 -.000000000000000D+00
 0.707712244346776D+03 0.000000000000000D+00 0.000000000000000D+00 0.707712244346776D+03
 0.707712244346776D+03 -.000000000000000D+00 -.000000000000000D+00 -.707712244346776D+03
 0.513145691601106D+03 -.104004441274392D+02 0.492081426598624D+03 0.737644980149157D+02
 0.357202159832588D+03 0.511284072641481D+02 -.136124772335457D+03 -.326265712750079D+03
 0.468309093586637D+03 -.506056233891112D+02 -.333208989761837D+03 0.325152652087036D+03
 0.767675436732220D+02 0.987766025240225D+01 -.227476645013296D+02 -.726514373518728D+02
0.505407243868D-05 0.000000000000D+00 0.000000000000D+00 0.122624389476D-05 0.000000000000D+00  6 -4 2 25 1 -3 21 0 0.28355128D-01 0.41807587D+00 0.25761026D+06 0.25761026D+06 0.25761026D+06 0.10894807D+01  1  2  2  3  6  4        1 0.111787334587D-04 0.100000000000D+01
0.459483665331D-06 0.000000000000D+00 -.194089689324D-07 0.122624389476D-05 0.000000000000D+00  6 -4 2 25 1 -3 21 2 0.28355128D-01 0.41807587D+00 0.25761026D+06 0.25761026D+06 0.25761026D+06 0.10894807D+01  1  2  3  3  6  4        1 0.120631387545D-05 0.100000000000D+01
-.284959259595D-05 0.000000000000D+00 0.000000000000D+00 0.122624389476D-05 0.000000000000D+00  6 -4 2 25 1 -3 21 2 0.28355128D-01 0.41807587D+00 0.25761026D+06 0.25761026D+06 0.25761026D+06 0.10894807D+01  1  2 15  3  6  4        1 -.748123023131D-05 0.100000000000D+01
0.127252670462D-02 0.000000000000D+00 0.000000000000D+00 0.122624389476D-05 0.000000000000D+00  6 -4 2 25 1 -3 21 2 0.28355128D-01 0.41807587D+00 0.25758457D+06 0.25758457D+06 0.25758457D+06 0.10894840D+01  1  2 12  3  6  4        1 0.334088515619D-02 0.100000000000D+01
-.346316858483D-02 0.000000000000D+00 0.000000000000D+00 0.122624389476D-05 0.000000000000D+00  6 -4 2 25 1 -3 21 2 0.28355128D-01 0.41807587D+00 0.25761026D+06 0.25761026D+06 0.25761026D+06 0.10894807D+01  1  2  4  3  6  4        1 -.909209321703D-02 0.100000000000D+01
-.178223160825D-02 0.000000000000D+00 0.000000000000D+00 0.122624389476D-05 0.000000000000D+00  6 -4 2 25 1 -3 21 2 0.28355128D-01 0.41807587D+00 0.25761026D+06 0.25761026D+06 0.25761026D+06 0.10894807D+01  1  2  5  3  6  4        1 -.467901446888D-02 0.100000000000D+01
0.212493609975D-02 0.000000000000D+00 -.000000000000D+00 0.122624389476D-05 0.000000000000D+00  6 -4 2 25 1 -3 21 2 0.28355128D-01 0.41807587D+00 0.25761026D+06 0.25761026D+06 0.25761026D+06 0.10894807D+01  1  2  6  3  6  4        1 0.557873999661D-02 0.100000000000D+01
0.737015382217D-03 0.000000000000D+00 0.000000000000D+00 0.122624389476D-05 0.238123508605D-06  6 -4 2 25 1 -3 21 2 0.28355128D-01 0.41807587D+00 0.25758457D+06 0.25758457D+06 0.25758457D+06 0.10894840D+01  1  2 11  3  6  4        1 0.193495644640D-02 0.100000000000D+01
  </mgrwgt>
  </event>
  <event>
  5     66 0.20411069E-05 0.17243529E+03 0.75467711E-02 0.94851139E-01
       -4 -1    0    0    0  501 0.00000000E+00 0.00000000E+00 0.12674808E+03 0.12675756E+03 0.15500000E+01 0.0000E+00 0.9000E+01
        2 -1    0    0  502    0 -.00000000E+00 -.00000000E+00 -.23604081E+04 0.23604082E+04 0.32000000E+00 0.0000E+00 0.9000E+01
       25  1    1    2    0    0 -.34093420E+03 -.29569857E+03 -.91553975E+03 0.10283539E+04 0.12500000E+03 0.0000E+00 0.9000E+01
        1  1    1    2  502    0 0.31554684E+03 0.12495138E+03 -.12063034E+04 0.12531363E+04 0.32000000E+00 0.0000E+00 0.9000E+01
       -3  1    1    2    0  501 0.25387364E+02 0.17074720E+03 -.11181690E+03 0.20567545E+03 0.50000000E+00 0.0000E+00 0.9000E+01
#aMCatNLO 1  0  0  4  2 0.30207979D+02 0.00000000D+00  -5  6  0 0.00000000D+00 0.00000000D+00 0.00000000D+00 0.00000000D+00 0.00000000D+00
  <mgrwgt>
 0.2055910009D-02    7    2    0
 0.546981734588185D+03 0.000000000000000D+00 0.000000000000000D+00 0.546981734588185D+03
 0.546981734588185D+03 -.000000000000000D+00 -.000000000000000D+00 -.546981734588185D+03
 0.468711911440826D+03 -.341058672628637D+03 -.295643695744300D+03 0.184294036245540D+02
 0.386211670370881D+03 0.315699095417249D+03 0.125083381155281D+03 -.183977398726473D+03
 0.239039887364662D+03 0.253595772113871D+02 0.170560314589019D+03 0.165547995101919D+03
 0.000000000000000D+00 0.000000000000000D+00 0.000000000000000D+00 0.000000000000000D+00
 0.546981734588185D+03 0.000000000000000D+00 0.000000000000000D+00 0.546981734588185D+03
 0.546981734588185D+03 -.000000000000000D+00 -.000000000000000D+00 -.546981734588185D+03
 0.460865180143603D+03 -.333182344423191D+03 -.292523009694428D+03 0.138393797828999D+02
 0.361936719626257D+03 0.277427144437570D+03 0.131235344319766D+03 -.191858419008142D+03
 0.239031303905346D+03 0.294102854765755D+02 0.172165248823036D+03 0.163187396733259D+03
 0.321302655011633D+02 0.263449145090453D+02 -.108775834483738D+02 0.148316424919832D+02
0.861748132444D-04 0.000000000000D+00 0.000000000000D+00 0.886489014176D-07 0.000000000000D+00  6 -4 2 25 1 -3 21 0 0.19500436D-01 0.36314044D+00 0.24027673D+06 0.24027673D+06 0.24027673D+06 0.10917576D+01  1  2  2  3  6  4        1 0.630842627988D-03 0.100000000000D+01
0.345454142335D-05 0.000000000000D+00 -.330933973208D-06 0.886489014176D-07 0.000000000000D+00  6 -4 2 25 1 -3 21 2 0.19500436D-01 0.36314044D+00 0.24027673D+06 0.24027673D+06 0.24027673D+06 0.10917576D+01  1  2  3  3  6  4        1 0.301427935660D-04 0.100000000000D+01
-.471346585249D-04 0.000000000000D+00 0.000000000000D+00 0.886489014176D-07 0.000000000000D+00  6 -4 2 25 1 -3 21 2 0.19500436D-01 0.36314044D+00 0.24027673D+06 0.24027673D+06 0.24027673D+06 0.10917576D+01  1  2 15  3  6  4        1 -.411276087794D-03 0.100000000000D+01
0.238000635506D-03 0.000000000000D+00 0.000000000000D+00 0.886489014176D-07 0.000000000000D+00  6 -4 2 25 1 -3 21 2 0.19500436D-01 0.36314044D+00 0.23557446D+06 0.23557446D+06 0.23557446D+06 0.10924062D+01  1  2 12  3  6  4        1 0.208029946454D-02 0.100000000000D+01
-.666778879298D-04 0.000000000000D+00 0.000000000000D+00 0.886489014176D-07 0.000000000000D+00  6 -4 2 25 1 -3 21 2 0.19500436D-01 0.36314044D+00 0.24027673D+06 0.24027673D+06 0.24027673D+06 0.10917576D+01  1  2  4  3  6  4        1 -.581801624290D-03 0.100000000000D+01
-.407019399848D-03 0.000000000000D+00 0.000000000000D+00 0.886489014176D-07 0.000000000000D+00  6 -4 2 25 1 -3 21 2 0.19500436D-01 0.36314044D+00 0.24027673D+06 0.24027673D+06 0.24027673D+06 0.10917576D+01  1  2  5  3  6  4        1 -.355147043947D-02 0.100000000000D+01
0.442283954504D-03 0.000000000000D+00 -.000000000000D+00 0.886489014176D-07 0.000000000000D+00  6 -4 2 25 1 -3 21 2 0.19500436D-01 0.36314044D+00 0.24027673D+06 0.24027673D+06 0.24027673D+06 0.10917576D+01  1  2  6  3  6  4        1 0.385917327494D-02 0.100000000000D+01
  </mgrwgt>
  </event>
  <event>
  5     66 -.20411069E-05 0.14003410E+03 0.75467711E-02 0.93329538E-01
       -4 -1    0    0    0  501 0.00000000E+00 0.00000000E+00 0.21039157E+03 0.21039728E+03 0.15500000E+01 0.0000E+00 0.9000E+01
        2 -1    0    0  502    0 0.00000000E+00 0.00000000E+00 -.22092745E+04 0.22092745E+04 0.32000000E+00 0.0000E+00 0.9000E+01
       25  1    1    2    0    0 0.39011638E+03 -.34649757E+03 -.31230918E+03 0.62081670E+03 0.12500000E+03 0.0000E+00 0.9000E+01
        1  1    1    2  502    0 -.25016694E+03 0.35795331E+03 -.15174300E+04 0.15790212E+04 0.32000000E+00 0.0000E+00 0.9000E+01
       -3  1    1    2    0  501 -.13994943E+03 -.11455735E+02 -.16914374E+03 0.21983387E+03 0.50000000E+00 0.0000E+00 0.9000E+01
#aMCatNLO 1  0  0  2  4 0.97237510D+01 0.00000000D+00  -5  6  0 0.00000000D+00 0.00000000D+00 0.00000000D+00 0.00000000D+00 0.00000000D+00
  <mgrwgt>
 -.1720762267D-03   11    2    0
 0.681776841159754D+03 0.000000000000000D+00 0.000000000000000D+00 0.681776841159754D+03
 0.681776841159754D+03 0.000000000000000D+00 0.000000000000000D+00 -.681776841159754D+03
 0.643936977566981D+03 0.389898324004844D+03 -.346654722437005D+03 0.356145520017359D+03
 0.577857089478385D+03 -.250331027339920D+03 0.358079177010598D+03 -.378196371747250D+03
 0.141759615274142D+03 -.139567296664924D+03 -.114244545735933D+02 0.220508517298910D+02
 0.000000000000000D+00 -.000000000000000D+00 0.000000000000000D+00 -.000000000000000D+00
 0.682502341591512D+03 0.000000000000000D+00 0.000000000000000D+00 0.682502341591512D+03
 0.715173158566592D+03 0.000000000000000D+00 0.000000000000000D+00 -.715173158566592D+03
 0.647582898421850D+03 0.392583366166328D+03 -.350395889686972D+03 0.356145520017359D+03
 0.574756369207063D+03 -.247934768645028D+03 0.354740382305480D+03 -.378196371747250D+03
 0.141249085174115D+03 -.138978927637937D+03 -.122442506148754D+02 0.220508517298910D+02
 0.340871473550756D+02 -.566966988336286D+01 0.789975799636683D+01 -.326708169750798D+02
0.178094297370D-05 0.000000000000D+00 0.000000000000D+00 0.163518112956D-07 0.000000000000D+00  6 -4 2 25 1 -3 21 0 0.32368374D-01 0.33988883D+00 0.30992803D+06 0.30992803D+06 0.30992803D+06 0.10835073D+01  1  2  2  2  6  2        2 0.588684077375D-05 0.100000000000D+01
0.948642932755D-07 0.000000000000D+00 -.683928995208D-08 0.163518112956D-07 0.000000000000D+00  6 -4 2 25 1 -3 21 2 0.32368374D-01 0.33988883D+00 0.30992803D+06 0.30992803D+06 0.30992803D+06 0.10835073D+01  1  2  3  2  6  2        2 0.368127904369D-06 0.100000000000D+01
-.115295570934D-05 0.000000000000D+00 0.000000000000D+00 0.163518112956D-07 0.000000000000D+00  6 -4 2 25 1 -3 21 2 0.32368374D-01 0.33988883D+00 0.30992803D+06 0.30992803D+06 0.30992803D+06 0.10835073D+01  1  2 15  2  6  2        2 -.447412988020D-05 0.100000000000D+01
0.617928376239D-04 0.000000000000D+00 0.000000000000D+00 0.163518112956D-07 0.000000000000D+00  6 -4 2 25 1 -3 21 2 0.32368374D-01 0.35778909D+00 0.31522154D+06 0.31522154D+06 0.31522154D+06 0.10829652D+01  1  2 12  2  6  2        2 0.205931225203D-03 0.100000000000D+01
-.114499408761D-03 0.000000000000D+00 0.000000000000D+00 0.163518112956D-07 0.000000000000D+00  6 -4 2 25 1 -3 21 2 0.32368374D-01 0.33988883D+00 0.30992803D+06 0.30992803D+06 0.30992803D+06 0.10835073D+01  1  2  4  2  6  2        2 -.444323421840D-03 0.100000000000D+01
-.125431881477D-03 0.000000000000D+00 -.624679682568D-05 0.163518112956D-07 0.000000000000D+00  6 -4 2 25 1 -3 21 2 0.32368374D-01 0.35665893D+00 0.30992803D+06 0.30992803D+06 0.30992803D+06 0.10835073D+01  1  2  5  2  6  2        2 -.422713030648D-03 0.100000000000D+01
0.125594286318D-03 0.000000000000D+00 0.623955904396D-05 0.163518112956D-07 0.000000000000D+00  6 -4 2 25 1 -3 21 2 0.32368374D-01 0.33988883D+00 0.30992803D+06 0.30992803D+06 0.30992803D+06 0.10835073D+01  1  2  6  2  6  2        2 0.487377914561D-03 0.100000000000D+01
0.200045453212D-09 0.000000000000D+00 0.000000000000D+00 0.163518112956D-07 0.237049172179D-08  6 -4 2 25 1 -3 21 2 0.32402818D-01 0.35653802D+00 0.31522154D+06 0.31522154D+06 0.31522154D+06 0.10829652D+01  1  2 11  2  6  2        2 0.672315347951D-09 0.100000000000D+01
0.121386444092D-05 0.000000000000D+00 0.000000000000D+00 0.163518112956D-07 0.000000000000D+00  6 -4 21 25 1 -3 -2 2 0.32368374D-01 0.35778909D+00 0.31522154D+06 0.31522154D+06 0.31522154D+06 0.10829652D+01  1  2 12  6  6  2        2 0.566469319769D-06 0.100000000000D+01
-.146405567835D-05 0.000000000000D+00 -.525505917784D-07 0.163518112956D-07 0.000000000000D+00  6 -4 21 25 1 -3 -2 2 0.32368374D-01 0.35665893D+00 0.30992803D+06 0.30992803D+06 0.30992803D+06 0.10835073D+01  1  2  5  6  6  2        2 -.696895355567D-06 0.100000000000D+01
0.200620917440D-11 0.000000000000D+00 0.000000000000D+00 0.163518112956D-07 0.184200946552D-10  6 -4 21 25 1 -3 -2 2 0.32402818D-01 0.35653802D+00 0.31522154D+06 0.31522154D+06 0.31522154D+06 0.10829652D+01  1  2 11  6  6  2        2 0.952286282174D-12 0.100000000000D+01
  </mgrwgt>
  </event>
  <event>
  6     66 0.20411069E-05 0.51459207E+02 0.75467711E-02 0.92372799E-01
       -4 -1    0    0    0  501 0.00000000E+00 0.00000000E+00 0.45823989E+03 0.45824251E+03 0.15500000E+01 0.0000E+00 0.9000E+01
        2 -1    0    0  502    0 -.00000000E+00 -.00000000E+00 -.24643970E+04 0.24643970E+04 0.32000000E+00 0.0000E+00 0.9000E+01
       25  1    1    2    0    0 0.13271476E+03 0.54613131E+03 -.93421656E+03 0.10973870E+04 0.12500000E+03 0.0000E+00 0.9000E+01
        1  1    1    2  503    0 0.43757348E+02 0.14963072E+02 -.81681665E+03 0.81812477E+03 0.32000000E+00 0.0000E+00 0.9000E+01
       -3  1    1    2    0  501 -.18503530E+03 -.56487770E+03 0.14098908E+03 0.61090347E+03 0.50000000E+00 0.0000E+00 0.9000E+01
       21  1    1    2  502  503 0.85631974E+01 0.37833136E+01 -.39611300E+03 0.39622432E+03 0.75000000E+00 0.0000E+00 0.9000E+01
#aMCatNLO 2  0  0  4  2 0.88316279D+01 0.00000000D+00  -5  6  0 0.00000000D+00 0.00000000D+00 0.00000000D+00 0.00000000D+00 0.00000000D+00
  <mgrwgt>
 0.1796156637D-01    2    2    0
 0.106268004420725D+04 0.000000000000000D+00 0.000000000000000D+00 0.106268004420725D+04
 0.106268004420725D+04 -.000000000000000D+00 -.000000000000000D+00 -.106268004420725D+04
 0.627223981469895D+03 0.132713992636721D+03 0.546141219823443D+03 -.248800496581357D+03
 0.524839031886351D+03 0.523401340579503D+02 0.187522886607539D+02 -.521885879698025D+03
 0.973297075058257D+03 -.185054126694672D+03 -.564893508484197D+03 0.770686376279382D+03
 0.000000000000000D+00 0.000000000000000D+00 0.000000000000000D+00 -.000000000000000D+00
 0.106268004420725D+04 0.000000000000000D+00 0.000000000000000D+00 0.106268004420725D+04
 0.106268004420725D+04 -.000000000000000D+00 -.000000000000000D+00 -.106268004420725D+04
 0.627268581801395D+03 0.132723949405529D+03 0.546144787108972D+03 -.248899775980268D+03
 0.353777689285685D+03 0.437403675211054D+02 0.149554534745846D+02 -.350744590972986D+03
 0.973168954371416D+03 -.185038677808951D+03 -.564887973497141D+03 0.770532334730583D+03
 0.171144862956007D+03 0.857436088231655D+01 0.378773291358432D+01 -.170887967777329D+03
-.213919647335D-01 0.000000000000D+00 0.000000000000D+00 0.333812528735D-04 0.000000000000D+00  6 -4 2 25 1 -3 21 2 0.70498648D-01 0.37913821D+00 0.37564369D+06 0.37564369D+06 0.37564369D+06 0.10774000D+01  1  2 13  3  6  4        1 -.101865269229D-01 0.100000000000D+01
0.591117093817D-01 0.000000000000D+00 0.000000000000D+00 0.333812528735D-04 0.495219629270D-05  6 -4 2 25 1 -3 21 2 0.70498648D-01 0.37913821D+00 0.37564369D+06 0.37564369D+06 0.37564369D+06 0.10774000D+01  1  2  1  3  6  4        1 0.281480932946D-01 0.100000000000D+01
  </mgrwgt>
  </event>
  <event>
  5     66 0.20411069E-05 0.24332511E+02 0.75467711E-02 0.89895891E-01
       -4 -1    0    0    0  501 0.00000000E+00 0.00000000E+00 0.23310139E+03 0.23310654E+03 0.15500000E+01 0.0000E+00 0.9000E+01
        2 -1    0    0  502    0 0.00000000E+00 0.00000000E+00 -.50744760E+04 0.50744760E+04 0.32000000E+00 0.0000E+00 0.9000E+01
       25  1    1    2    0    0 0.11431007E+03 0.50761304E+03 -.55182711E+03 0.76868456E+03 0.12500000E+03 0.0000E+00 0.9000E+01
        1  1    1    2  502    0 -.93593985E+02 -.52040030E+03 -.43970221E+04 0.44286995E+04 0.32000000E+00 0.0000E+00 0.9000E+01
       -3  1    1    2    0  501 -.20716088E+02 0.12787259E+02 0.10747456E+03 0.11019847E+03 0.50000000E+00 0.0000E+00 0.9000E+01
#aMCatNLO 1  0  0  1  5 0.42823586D+02 0.00000000D+00  -5  6  0 0.00000000D+00 0.00000000D+00 0.00000000D+00 0.00000000D+00 0.00000000D+00
  <mgrwgt>
 0.6238299822D-02    6    4    0
 0.108760337124951D+04 0.000000000000000D+00 0.000000000000000D+00 0.108760337124951D+04
 0.108760337124951D+04 0.000000000000000D+00 0.000000000000000D+00 -.108760337124951D+04
 0.647636041403610D+03 0.114322541875028D+03 0.507735208436880D+03 0.364613160291464D+03
 0.101973266878563D+04 -.936169291468875D+02 -.520516001971288D+03 -.871867924663815D+03
 0.507838032309777D+03 -.207056127281404D+02 0.127807935344078D+02 0.507254764372351D+03
 0.000000000000000D+00 0.000000000000000D+00 -.000000000000000D+00 0.000000000000000D+00
 0.148346098794482D+04 0.000000000000000D+00 0.000000000000000D+00 0.148346098794482D+04
 0.122820416243230D+04 0.000000000000000D+00 0.000000000000000D+00 -.122820416243230D+04
 0.757199341050943D+03 0.104999844144183D+03 0.643240326907409D+03 0.364613160291464D+03
 0.938869869849345D+03 -.106614508557690D+03 -.331596593797857D+03 -.871867924663815D+03
 0.520188244733682D+03 -.275277488730148D+02 0.111940327954874D+03 0.507254764372351D+03
 0.495407694743153D+03 0.291424132865221D+02 -.423584061064426D+03 0.255256825512524D+03
 0.108760337124951D+04 0.000000000000000D+00 0.000000000000000D+00 0.108760337124951D+04
 0.108760337124951D+04 0.000000000000000D+00 0.000000000000000D+00 -.108760337124951D+04
 0.647636041403610D+03 0.114322541875028D+03 0.507735208436880D+03 0.364613160291464D+03
 0.101973266878563D+04 -.936169291468875D+02 -.520516001971288D+03 -.871867924663815D+03
 0.000000000000000D+00 0.000000000000000D+00 -.000000000000000D+00 0.000000000000000D+00
 0.507838032309777D+03 -.207056127281404D+02 0.127807935344078D+02 0.507254764372351D+03
 0.148346098794482D+04 0.000000000000000D+00 0.000000000000000D+00 0.148346098794482D+04
 0.122820416243230D+04 0.000000000000000D+00 0.000000000000000D+00 -.122820416243230D+04
 0.757199341050943D+03 0.104999844144183D+03 0.643240326907409D+03 0.364613160291464D+03
 0.938869869849345D+03 -.106614508557690D+03 -.331596593797857D+03 -.871867924663815D+03
 0.495407694743153D+03 0.291424132865221D+02 -.423584061064426D+03 0.255256825512524D+03
 0.520188244733682D+03 -.275277488730148D+02 0.111940327954874D+03 0.507254764372351D+03
0.366959824676D+00 0.000000000000D+00 0.000000000000D+00 0.177074715146D-03 0.000000000000D+00  6 -4 2 25 1 -3 21 0 0.35862149D-01 0.78068901D+00 0.29617950D+06 0.29617950D+06 0.29617950D+06 0.10849639D+01  1  2  2  1  6  1       -4 0.493666253014D-02 0.100000000000D+01
0.220492007987D+00 0.000000000000D+00 -.140922234950D-02 0.177074715146D-03 0.000000000000D+00  6 -4 2 25 1 -3 21 2 0.35862149D-01 0.78068901D+00 0.29617950D+06 0.29617950D+06 0.29617950D+06 0.10849639D+01  1  2  3  1  6  1       -4 0.349171161143D-02 0.100000000000D+01
-.199558040572D+00 0.000000000000D+00 0.000000000000D+00 0.177074715146D-03 0.000000000000D+00  6 -4 2 25 1 -3 21 2 0.35862149D-01 0.78068901D+00 0.29617950D+06 0.29617950D+06 0.29617950D+06 0.10849639D+01  1  2 15  1  6  1       -4 -.316020128703D-02 0.100000000000D+01
-.331004022239D-02 0.000000000000D+00 0.000000000000D+00 0.177074715146D-03 0.000000000000D+00  6 -4 2 25 1 -3 21 2 0.35862149D-01 0.78068901D+00 0.29617950D+06 0.29617950D+06 0.29617950D+06 0.10849639D+01  1  2  4  1  6  1       -4 -.524177995581D-04 0.100000000000D+01
0.791678827150D-01 0.000000000000D+00 -.196585273819D+00 0.177074715146D-03 0.000000000000D+00  6 -4 2 25 1 -3 21 2 0.87000676D-01 0.78068901D+00 0.29617950D+06 0.29617950D+06 0.29617950D+06 0.10849639D+01  1  2  5  1  6  1       -4 0.157930249450D-03 0.100000000000D+01
0.199984471108D-01 0.000000000000D+00 -.190902613964D-01 0.177074715146D-03 0.000000000000D+00  6 21 2 25 1 4 -3 2 0.87000676D-01 0.78068901D+00 0.29617950D+06 0.29617950D+06 0.29617950D+06 0.10849639D+01  3  4  5  5  5  1       -4 0.864614517889D-03 0.100000000000D+01
  </mgrwgt>
  </event>
  <event>
  5     66 0.20411069E-05 0.24176132E+03 0.75467711E-02 0.92861256E-01
       -4 -1    0    0    0  501 0.00000000E+00 0.00000000E+00 0.75525113E+03 0.75525272E+03 0.15500000E+01 0.0000E+00 0.9000E+01
        2 -1    0    0  502    0 0.00000000E+00 0.00000000E+00 -.12289611E+04 0.12289612E+04 0.32000000E+00 0.0000E+00 0.9000E+01
       25  1    1    2    0    0 0.73722831E+02 -.44812743E+03 -.60694034E+03 0.76828044E+03 0.12500000E+03 0.0000E+00 0.9000E+01
        1  1    1    2  502    0 -.28054842E+03 0.32288989E+03 -.42783540E+03 0.60498638E+03 0.32000000E+00 0.0000E+00 0.9000E+01
       -3  1    1    2    0  501 0.20682559E+03 0.12523755E+03 0.56106576E+03 0.61094705E+03 0.50000000E+00 0.0000E+00 0.9000E+01
#aMCatNLO 1  0  0  2  4 0.39020025D+02 0.00000000D+00  -5  6  0 0.00000000D+00 0.00000000D+00 0.00000000D+00 0.00000000D+00 0.00000000D+00
  <mgrwgt>
 0.4777991952D-03    9    2    0
 0.963418852960169D+03 0.000000000000000D+00 0.000000000000000D+00 0.963418852960169D+03
 0.963418852960169D+03 0.000000000000000D+00 0.000000000000000D+00 -.963418852960169D+03
 0.641972451066790D+03 0.737727882897817D+02 -.448206610947567D+03 -.436087190295186D+03
 0.517872373858856D+03 -.280575851668535D+03 0.322982701002082D+03 -.291806720142088D+03
 0.766992880994692D+03 0.206803063378753D+03 0.125223909945485D+03 0.727893910437274D+03
 0.000000000000000D+00 0.000000000000000D+00 -.000000000000000D+00 -.000000000000000D+00
 0.964782737709592D+03 0.000000000000000D+00 0.000000000000000D+00 0.964782737709592D+03
 0.128996601668441D+04 0.000000000000000D+00 0.000000000000000D+00 -.128996601668441D+04
 0.640375780642324D+03 0.607941699280627D+02 -.447870708794931D+03 -.436087190295186D+03
 0.523827761268651D+03 -.291118875916443D+03 0.323255567068520D+03 -.291806720142088D+03
 0.763029217068559D+03 0.191317743241263D+03 0.125624688535584D+03 0.727893910437274D+03
 0.327515995414464D+03 0.390069627471166D+02 -.100954680917256D+01 -.325183278974815D+03
0.614069962291D-04 0.000000000000D+00 0.000000000000D+00 0.431677696025D-06 0.000000000000D+00  6 -4 2 25 1 -3 21 0 0.11619261D+00 0.18907107D+00 0.32530853D+06 0.32530853D+06 0.32530853D+06 0.10819591D+01  1  2  2  2  6  2        2 0.319969968695D-04 0.100000000000D+01
0.376235790132D-05 0.000000000000D+00 -.235819034353D-06 0.431677696025D-06 0.000000000000D+00  6 -4 2 25 1 -3 21 2 0.11619261D+00 0.18907107D+00 0.32530853D+06 0.32530853D+06 0.32530853D+06 0.10819591D+01  1  2  3  2  6  2        2 0.229494954559D-05 0.100000000000D+01
-.416847251630D-04 0.000000000000D+00 0.000000000000D+00 0.431677696025D-06 0.000000000000D+00  6 -4 2 25 1 -3 21 2 0.11619261D+00 0.18907107D+00 0.32530853D+06 0.32530853D+06 0.32530853D+06 0.10819591D+01  1  2 15  2  6  2        2 -.254266987831D-04 0.100000000000D+01
0.527410608514D-02 0.000000000000D+00 0.000000000000D+00 0.431677696025D-06 0.000000000000D+00  6 -4 2 25 1 -3 21 2 0.11619261D+00 0.25440355D+00 0.34331546D+06 0.34331546D+06 0.34331546D+06 0.10802449D+01  1  2 12  2  6  2        2 0.185562904754D-02 0.100000000000D+01
-.430820756186D-02 0.000000000000D+00 0.000000000000D+00 0.431677696025D-06 0.000000000000D+00  6 -4 2 25 1 -3 21 2 0.11619261D+00 0.18907107D+00 0.32530853D+06 0.32530853D+06 0.32530853D+06 0.10819591D+01  1  2  4  2  6  2        2 -.262790495900D-02 0.100000000000D+01
-.541027510832D-02 0.000000000000D+00 -.511350651422D-04 0.431677696025D-06 0.000000000000D+00  6 -4 2 25 1 -3 21 2 0.11619261D+00 0.25327130D+00 0.32530853D+06 0.32530853D+06 0.32530853D+06 0.10819591D+01  1  2  5  2  6  2        2 -.193200432253D-02 0.100000000000D+01
0.520340003267D-02 0.000000000000D+00 0.490252146859D-04 0.431677696025D-06 0.000000000000D+00  6 -4 2 25 1 -3 21 2 0.11619261D+00 0.18907107D+00 0.32530853D+06 0.32530853D+06 0.32530853D+06 0.10819591D+01  1  2  6  2  6  2        2 0.317395124380D-02 0.100000000000D+01
0.202297148867D-03 0.000000000000D+00 0.000000000000D+00 0.431677696025D-06 0.000000000000D+00  6 -4 21 25 1 -3 -2 2 0.11619261D+00 0.25440355D+00 0.34331546D+06 0.34331546D+06 0.34331546D+06 0.10802449D+01  1  2 12  6  6  2        2 0.206122587548D-04 0.100000000000D+01
-.204157712594D-03 0.000000000000D+00 -.193999922927D-05 0.431677696025D-06 0.000000000000D+00  6 -4 21 25 1 -3 -2 2 0.11619261D+00 0.25327130D+00 0.32530853D+06 0.32530853D+06 0.32530853D+06 0.10819591D+01  1  2  5  6  6  2        2 -.213493210385D-04 0.100000000000D+01
  </mgrwgt>
  </event>
  <event>
  5     66 0.20411069E-05 0.13226124E+03 0.75467711E-02 0.92866707E-01
       -4 -1    0    0    0  501 0.00000000E+00 0.00000000E+00 0.16867013E+04 0.16867020E+04 0.15500000E+01 0.0000E+00 0.9000E+01
        2 -1    0    0  502    0 0.00000000E+00 0.00000000E+00 -.21199735E+04 0.21199735E+04 0.32000000E+00 0.0000E+00 0.9000E+01
       25  1    1    2    0    0 0.20653375E+01 0.55906044E+03 0.11440692E+03 0.58418044E+03 0.12500000E+03 0.0000E+00 0.9000E+01
        1  1    1    2  502    0 -.52794545E+02 -.43690482E+03 -.18560221E+04 0.19074829E+04 0.32000000E+00 0.0000E+00 0.9000E+01
       -3  1    1    2    0  501 0.50729208E+02 -.12215563E+03 0.13083430E+04 0.13150122E+04 0.50000000E+00 0.0000E+00 0.9000E+01
#aMCatNLO 1  0  0  2  4 0.71540426D+02 0.00000000D+00  -5  6  0 0.00000000D+00 0.00000000D+00 0.00000000D+00 0.00000000D+00 0.00000000D+00
  <mgrwgt>
 0.3622849535D-02    9    2    0
 0.189096891774864D+04 0.000000000000000D+00 0.000000000000000D+00 0.189096891774864D+04
 0.189096891774864D+04 0.000000000000000D+00 0.000000000000000D+00 -.189096891774864D+04
 0.601185920554330D+03 0.207466891073780D+01 0.559107386856321D+03 0.182192581584335D+03
 0.170735159066326D+04 -.528003764180203D+02 -.436960189636265D+03 -.164964461841438D+04
 0.147340032427969D+04 0.507257075072825D+02 -.122147197220056D+03 0.146745203683005D+04
 0.000000000000000D+00 -.000000000000000D+00 -.000000000000000D+00 -.000000000000000D+00
 0.189593374033720D+04 0.000000000000000D+00 0.000000000000000D+00 0.189593374033720D+04
 0.216786600593904D+04 0.000000000000000D+00 0.000000000000000D+00 -.216786600593904D+04
 0.611863836341321D+03 0.250274918270520D+01 0.570571602592070D+03 0.182192581584335D+03
 0.169935983147526D+04 -.515981619632435D+02 -.404764251694871D+03 -.164964461841438D+04
 0.147139074871519D+04 0.517649121699510D+02 -.943167475904244D+02 0.146745203683005D+04
 0.281185329744471D+03 -.266949938941276D+01 -.714906033067746D+02 -.271932265601841D+03
0.160009676951D-01 0.000000000000D+00 0.000000000000D+00 0.418754029356D-03 0.000000000000D+00  6 -4 2 25 1 -3 21 0 0.25949256D+00 0.32614983D+00 0.32793597D+06 0.32793597D+06 0.32793597D+06 0.10817026D+01  1  2  2  2  6  2        2 0.147684891975D-03 0.100000000000D+01
0.364039171623D-02 0.000000000000D+00 -.614479291009D-04 0.418754029356D-03 0.000000000000D+00  6 -4 2 25 1 -3 21 2 0.25949256D+00 0.32614983D+00 0.32793597D+06 0.32793597D+06 0.32793597D+06 0.10817026D+01  1  2  3  2  6  2        2 0.393145836464D-04 0.100000000000D+01
-.105110887036D-01 0.000000000000D+00 0.000000000000D+00 0.418754029356D-03 0.000000000000D+00  6 -4 2 25 1 -3 21 2 0.25949256D+00 0.32614983D+00 0.32793597D+06 0.32793597D+06 0.32793597D+06 0.10817026D+01  1  2 15  2  6  2        2 -.113515002852D-03 0.100000000000D+01
0.342689138210D+00 0.000000000000D+00 0.000000000000D+00 0.418754029356D-03 0.000000000000D+00  6 -4 2 25 1 -3 21 2 0.25949256D+00 0.40173724D+00 0.34297274D+06 0.34297274D+06 0.34297274D+06 0.10802766D+01  1  2 12  2  6  2        2 0.192852066968D-02 0.100000000000D+01
-.410284160053D-01 0.000000000000D+00 0.000000000000D+00 0.418754029356D-03 0.000000000000D+00  6 -4 2 25 1 -3 21 2 0.25949256D+00 0.32614983D+00 0.32793597D+06 0.32793597D+06 0.32793597D+06 0.10817026D+01  1  2  4  2  6  2        2 -.443088331877D-03 0.100000000000D+01
-.582049850900D+00 0.000000000000D+00 -.211536865457D-01 0.418754029356D-03 0.000000000000D+00  6 -4 2 25 1 -3 21 2 0.25949256D+00 0.37419876D+00 0.32793597D+06 0.32793597D+06 0.32793597D+06 0.10817026D+01  1  2  5  2  6  2        2 -.419112685119D-02 0.100000000000D+01
0.579672433818D+00 0.000000000000D+00 0.209554810368D-01 0.418754029356D-03 0.000000000000D+00  6 -4 2 25 1 -3 21 2 0.25949256D+00 0.32614983D+00 0.32793597D+06 0.32793597D+06 0.32793597D+06 0.10817026D+01  1  2  6  2  6  2        2 0.626020004531D-02 0.100000000000D+01
0.101213540542D-01 0.000000000000D+00 0.000000000000D+00 0.418754029356D-03 0.000000000000D+00  6 -4 21 25 1 -3 -2 2 0.25949256D+00 0.40173724D+00 0.34297274D+06 0.34297274D+06 0.34297274D+06 0.10802766D+01  1  2 12  6  6  2        2 0.586032529581D-05 0.100000000000D+01
-.122367996201D-01 0.000000000000D+00 -.449283125639D-03 0.418754029356D-03 0.000000000000D+00  6 -4 21 25 1 -3 -2 2 0.25949256D+00 0.37419876D+00 0.32793597D+06 0.32793597D+06 0.32793597D+06 0.10817026D+01  1  2  5  6  6  2        2 -.110007952278D-04 0.100000000000D+01
  </mgrwgt>
  </event>
  <event>
  6     66 0.20411069E-05 0.79268478E+02 0.75467711E-02 0.92421717E-01
       -4 -1    0    0    0  501 0.00000000E+00 0.00000000E+00 0.97035952E+03 0.97036076E+03 0.15500000E+01 0.0000E+00 0.9000E+01
        2 -1    0    0  502    0 0.00000000E+00 0.00000000E+00 -.65506190E+03 0.65506197E+03 0.32000000E+00 0.0000E+00 0.9000E+01
       25  1    1    2    0    0 0.71155898E+02 0.46346708E+03 0.16393893E+03 0.51221663E+03 0.12500000E+03 0.0000E+00 0.9000E+01
        1  1    1    2  502    0 -.15096613E+01 -.46259447E+03 -.32158623E+03 0.56339482E+03 0.32000000E+00 0.0000E+00 0.9000E+01
       -3  1    1    2    0  503 -.69672311E+01 0.12817485E+03 0.29141188E+03 0.31843126E+03 0.50000000E+00 0.0000E+00 0.9000E+01
       21  1    1    2  503  501 -.62679006E+02 -.12904746E+03 0.18153305E+03 0.23138002E+03 0.75000000E+00 0.0000E+00 0.9000E+01
#aMCatNLO 2  0  0  5  1 0.28700810D+02 0.00000000D+00  -5  6  0 0.00000000D+00 0.00000000D+00 0.00000000D+00 0.00000000D+00 0.00000000D+00
  <mgrwgt>
 0.9630128600D-05    1    2    0
 0.797274494187796D+03 0.000000000000000D+00 0.000000000000000D+00 0.797274494187796D+03
 0.797274494187796D+03 -.000000000000000D+00 -.000000000000000D+00 -.797274494187796D+03
 0.488012479487370D+03 0.761285098747512D+02 0.463890184160320D+03 0.392622867312259D+02
 0.663263922322017D+03 0.515146196086506D+01 -.462871810228544D+03 -.475018084276170D+03
 0.443272586566205D+03 -.812799718356162D+02 -.101837393177607D+01 0.435755797544944D+03
 0.000000000000000D+00 0.000000000000000D+00 -.000000000000000D+00 0.000000000000000D+00
 0.797274494187796D+03 0.000000000000000D+00 0.000000000000000D+00 0.797274494187796D+03
 0.797274494187796D+03 -.000000000000000D+00 -.000000000000000D+00 -.797274494187796D+03
 0.490105729140457D+03 0.710954292181532D+02 0.463827123629892D+03 0.662454909092428D+02
 0.638086917104856D+03 -.154486950458787D+01 -.462955709979602D+03 -.439117908716868D+03
 0.266227464944629D+03 -.683878209945532D+01 0.128099526832344D+03 0.233282672686098D+03
 0.200128877185651D+03 -.627117776141099D+02 -.128970940482634D+03 0.139589745121527D+03
0.145941944178D-04 0.000000000000D+00 0.000000000000D+00 0.998111112364D-05 0.675832075015D-11  6 -4 2 25 1 -3 21 2 0.14928618D+00 0.10077885D+00 0.37225722D+06 0.37225722D+06 0.37225722D+06 0.10776853D+01  1  2  1  4  6  5       -3 0.963012859973D-05 0.100000000000D+01
  </mgrwgt>
  </event>
  <event>
  5     66 -.20411069E-05 0.32613229E+02 0.75467711E-02 0.93068211E-01
       -4 -1    0    0    0  501 0.00000000E+00 0.00000000E+00 0.75277183E+03 0.75277342E+03 0.15500000E+01 0.0000E+00 0.9000E+01
        2 -1    0    0  502    0 0.00000000E+00 0.00000000E+00 -.10371564E+04 0.10371565E+04 0.32000000E+00 0.0000E+00 0.9000E+01
       25  1    1    2    0    0 -.55043928E+03 -.22191466E+02 0.15873800E+03 0.58676965E+03 0.12500000E+03 0.0000E+00 0.9000E+01
        1  1    1    2  502    0 0.51830956E+03 0.27942404E+02 -.74033028E+03 0.90416514E+03 0.32000000E+00 0.0000E+00 0.9000E+01
       -3  1    1    2    0  501 0.32129724E+02 -.57509376E+01 0.29720770E+03 0.29899508E+03 0.50000000E+00 0.0000E+00 0.9000E+01
#aMCatNLO 1  0  0  2  2 0.35127921D+02 0.00000000D+00  -5  6  0 0.00000000D+00 0.00000000D+00 0.00000000D+00 0.00000000D+00 0.00000000D+00
  <mgrwgt>
 -.6933071015D-02    7    2    0
 0.883596962172501D+03 0.000000000000000D+00 0.000000000000000D+00 0.883596962172501D+03
 0.883596962172501D+03 0.000000000000000D+00 0.000000000000000D+00 -.883596962172501D+03
 0.620080711247606D+03 -.550563194409704D+03 -.222028748003335D+02 0.255464850367561D+03
 0.796735157130966D+03 0.518460167032346D+03 0.279490338653833D+02 -.604321782923045D+03
 0.350378055966429D+03 0.321030273773581D+02 -.574615906504980D+01 0.348856932555484D+03
 0.000000000000000D+00 0.000000000000000D+00 0.000000000000000D+00 -.000000000000000D+00
 0.884134552837484D+03 0.000000000000000D+00 0.000000000000000D+00 0.884134552837484D+03
 0.173351656752656D+04 0.000000000000000D+00 0.000000000000000D+00 -.173351656752656D+04
 0.624667593026145D+03 -.555146019912913D+03 -.336928564922821D+02 0.255464850367561D+03
 0.792558477892441D+03 0.512608819111112D+03 0.132786344707011D+02 -.604321782923045D+03
 0.350316951778193D+03 0.295232584871836D+02 -.122141114880280D+02 0.348856932555484D+03
 0.850108097667264D+03 0.130139423146173D+02 0.326283335096090D+02 -.849382014689075D+03
0.831198421926D-04 0.000000000000D+00 0.000000000000D+00 0.381786117910D-04 0.000000000000D+00  6 -4 2 25 1 -3 21 0 0.11581118D+00 0.15956265D+00 0.31183151D+06 0.31183151D+06 0.31183151D+06 0.10833112D+01  1  2  2  2  6  2        2 0.568934506992D-04 0.100000000000D+01
0.377001393951D-04 0.000000000000D+00 -.319202079977D-06 0.381786117910D-04 0.000000000000D+00  6 -4 2 25 1 -3 21 2 0.11581118D+00 0.15956265D+00 0.31183151D+06 0.31183151D+06 0.31183151D+06 0.10833112D+01  1  2  3  2  6  2        2 0.302835645310D-04 0.100000000000D+01
-.453870476139D-04 0.000000000000D+00 0.000000000000D+00 0.381786117910D-04 0.000000000000D+00  6 -4 2 25 1 -3 21 2 0.11581118D+00 0.15956265D+00 0.31183151D+06 0.31183151D+06 0.31183151D+06 0.10833112D+01  1  2 15  2  6  2        2 -.364582626839D-04 0.100000000000D+01
-.225814090310D-01 0.000000000000D+00 0.000000000000D+00 0.381786117910D-04 0.000000000000D+00  6 -4 2 25 1 -3 21 2 0.11581118D+00 0.15956265D+00 0.31183151D+06 0.31183151D+06 0.31183151D+06 0.10833112D+01  1  2  4  2  6  2        2 -.181390723897D-01 0.100000000000D+01
-.262024566254D-01 0.000000000000D+00 -.439389895229D-04 0.381786117910D-04 0.000000000000D+00  6 -4 2 25 1 -3 21 2 0.11581118D+00 0.31308801D+00 0.31183151D+06 0.31183151D+06 0.31183151D+06 0.10833112D+01  1  2  5  2  6  2        2 -.581882102808D-02 0.100000000000D+01
0.212318203702D-01 0.000000000000D+00 0.355521479836D-04 0.381786117910D-04 0.000000000000D+00  6 -4 2 25 1 -3 21 2 0.11581118D+00 0.15956265D+00 0.31183151D+06 0.31183151D+06 0.31183151D+06 0.10833112D+01  1  2  6  2  6  2        2 0.170549820931D-01 0.100000000000D+01
-.191051432358D-02 0.000000000000D+00 -.320809685878D-05 0.381786117910D-04 0.000000000000D+00  6 -4 21 25 1 -3 -2 2 0.11581118D+00 0.31308801D+00 0.31183151D+06 0.31183151D+06 0.31183151D+06 0.10833112D+01  1  2  5  6  6  2        2 -.808784433157D-04 0.100000000000D+01
  </mgrwgt>
  </event>
  <event>
  5     66 0.20411069E-05 0.51813058E+02 0.75467711E-02 0.92145186E-01
       -4 -1    0    0    0  501 0.00000000E+00 0.00000000E+00 0.83848278E+03 0.83848421E+03 0.15500000E+01 0.0000E+00 0.9000E+01
        2 -1    0    0  502    0 0.00000000E+00 0.00000000E+00 -.16485829E+04 0.16485829E+04 0.32000000E+00 0.0000E+00 0.9000E+01
       25  1    1    2    0    0 0.50500310E+03 -.20628739E+03 -.72707882E+03 0.91752451E+03 0.12500000E+03 0.0000E+00 0.9000E+01
        1  1    1    2  502    0 -.54719885E+03 0.17620885E+03 -.72512263E+03 0.92535349E+03 0.32000000E+00 0.0000E+00 0.9000E+01
       -3  1    1    2    0  501 0.42195749E+02 0.30078533E+02 0.64210136E+03 0.64418911E+03 0.50000000E+00 0.0000E+00 0.9000E+01
#aMCatNLO 1  0  0  1  2 0.78871372D+02 0.00000000D+00  -5  6  0 0.00000000D+00 0.00000000D+00 0.00000000D+00 0.00000000D+00 0.00000000D+00
  <mgrwgt>
 0.1963028612D-02    7    4    0
 0.117571687109312D+04 0.000000000000000D+00 0.000000000000000D+00 0.117571687109312D+04
 0.117571687109312D+04 0.000000000000000D+00 0.000000000000000D+00 -.117571687109312D+04
 0.720015523586364D+03 0.505106099202783D+03 -.206322331093734D+03 -.452875566182966D+03
 0.728961173289800D+03 -.547297083206971D+03 0.176247194083098D+03 -.448092871461954D+03
 0.902457045310068D+03 0.421909840041874D+02 0.300751370106364D+02 0.900968437644920D+03
 0.000000000000000D+00 0.000000000000000D+00 0.000000000000000D+00 0.000000000000000D+00
 0.137099798612990D+04 0.000000000000000D+00 0.000000000000000D+00 0.137099798612990D+04
 0.118436888028190D+04 0.000000000000000D+00 0.000000000000000D+00 -.118436888028190D+04
 0.723509100329396D+03 0.499866736443346D+03 -.229950833030428D+03 -.452875566182966D+03
 0.727573665210744D+03 -.552583667352630D+03 0.152405732924634D+03 -.448092871461954D+03
 0.901673349589017D+03 0.356427800819287D+02 0.544017261334581D+00 0.900968437644920D+03
 0.202610751282648D+03 0.170741508273549D+02 0.770010828444594D+02 0.186629105848001D+03
 0.117571687109312D+04 0.000000000000000D+00 0.000000000000000D+00 0.117571687109312D+04
 0.117571687109312D+04 0.000000000000000D+00 0.000000000000000D+00 -.117571687109312D+04
 0.720015523586364D+03 0.505106099202783D+03 -.206322331093734D+03 -.452875566182966D+03
 0.728961173289800D+03 -.547297083206971D+03 0.176247194083098D+03 -.448092871461954D+03
 0.000000000000000D+00 0.000000000000000D+00 0.000000000000000D+00 0.000000000000000D+00
 0.902457045310068D+03 0.421909840041874D+02 0.300751370106364D+02 0.900968437644920D+03
 0.137099798612990D+04 0.000000000000000D+00 0.000000000000000D+00 0.137099798612990D+04
 0.118436888028190D+04 0.000000000000000D+00 0.000000000000000D+00 -.118436888028190D+04
 0.723509100329396D+03 0.499866736443346D+03 -.229950833030428D+03 -.452875566182966D+03
 0.727573665210744D+03 -.552583667352630D+03 0.152405732924634D+03 -.448092871461954D+03
 0.202610751282648D+03 0.170741508273549D+02 0.770010828444594D+02 0.186629105848001D+03
 0.901673349589017D+03 0.356427800819287D+02 0.544017261334581D+00 0.900968437644920D+03
0.542864124033D-02 0.000000000000D+00 0.000000000000D+00 0.333574653054D-04 0.000000000000D+00  6 -4 2 25 1 -3 21 0 0.12899746D+00 0.25362825D+00 0.35197180D+06 0.35197180D+06 0.35197180D+06 0.10794554D+01  1  2  2  1  6  1       -4 0.120185668423D-02 0.100000000000D+01
0.266114508073D-02 0.000000000000D+00 -.208474117569D-04 0.333574653054D-04 0.000000000000D+00  6 -4 2 25 1 -3 21 2 0.12899746D+00 0.25362825D+00 0.35197180D+06 0.35197180D+06 0.35197180D+06 0.10794554D+01  1  2  3  1  6  1       -4 0.686498311849D-03 0.100000000000D+01
-.381219211317D-02 0.000000000000D+00 0.000000000000D+00 0.333574653054D-04 0.000000000000D+00  6 -4 2 25 1 -3 21 2 0.12899746D+00 0.25362825D+00 0.35197180D+06 0.35197180D+06 0.35197180D+06 0.10794554D+01  1  2 15  1  6  1       -4 -.983435089310D-03 0.100000000000D+01
-.927607478119D-03 0.000000000000D+00 0.000000000000D+00 0.333574653054D-04 0.000000000000D+00  6 -4 2 25 1 -3 21 2 0.12899746D+00 0.25362825D+00 0.35197180D+06 0.35197180D+06 0.35197180D+06 0.10794554D+01  1  2  4  1  6  1       -4 -.239295847640D-03 0.100000000000D+01
-.960025704748D-01 0.000000000000D+00 -.758927860405D-02 0.333574653054D-04 0.000000000000D+00  6 -4 2 25 1 -3 21 2 0.15090197D+00 0.25362825D+00 0.35197180D+06 0.35197180D+06 0.35197180D+06 0.10794554D+01  1  2  5  1  6  1       -4 -.150696631227D-01 0.100000000000D+01
0.961008764780D-01 0.000000000000D+00 0.749688500923D-02 0.333574653054D-04 0.000000000000D+00  6 -4 2 25 1 -3 21 2 0.12899746D+00 0.25362825D+00 0.35197180D+06 0.35197180D+06 0.35197180D+06 0.10794554D+01  1  2  6  1  6  1       -4 0.247912411642D-01 0.100000000000D+01
-.221299428314D-02 0.000000000000D+00 -.179453654210D-03 0.333574653054D-04 0.000000000000D+00  6 21 2 25 1 4 -3 2 0.15090197D+00 0.25362825D+00 0.35197180D+06 0.35197180D+06 0.35197180D+06 0.10794554D+01  3  4  5  5  5  1       -4 -.842417348863D-02 0.100000000000D+01
  </mgrwgt>
  </event>
  <event>
  5     66 0.20411069E-05 0.13563397E+03 0.75467711E-02 0.94412083E-01
       -2 -1    0    0    0  501 0.00000000E+00 0.00000000E+00 0.13132241E+04 0.13132241E+04 0.32000000E+00 0.0000E+00 0.9000E+01
        4 -1    0    0  502    0 0.00000000E+00 0.00000000E+00 -.63541744E+03 0.63541933E+03 0.15500000E+01 0.0000E+00 0.9000E+01
       25  1    1    2    0    0 -.32844152E+02 0.49049459E+03 0.82490934E+03 0.96838221E+03 0.12500000E+03 0.0000E+00 0.9000E+01
        3  1    1    2  502    0 0.78825199E+02 -.32271805E+03 -.49218636E+03 0.59380806E+03 0.50000000E+00 0.0000E+00 0.9000E+01
       -1  1    1    2    0  501 -.45981047E+02 -.16777655E+03 0.34508363E+03 0.38645316E+03 0.32000000E+00 0.0000E+00 0.9000E+01
#aMCatNLO 1  0  0  4  2 0.18451909D+02 0.00000000D+00  -5  6  0 0.00000000D+00 0.00000000D+00 0.00000000D+00 0.00000000D+00 0.00000000D+00
  <mgrwgt>
 0.4152378942D-04    7    2    0
 0.913480897193120D+03 0.000000000000000D+00 0.000000000000000D+00 0.913480897193120D+03
 0.913480897193120D+03 -.000000000000000D+00 -.000000000000000D+00 -.913480897193120D+03
 0.726961801127603D+03 -.328890670867636D+02 0.490433665247513D+03 0.520808592053493D+03
 0.816043898660856D+03 0.788362657701783D+02 -.322780625716924D+03 -.745335599178528D+03
 0.283956094597780D+03 -.459471986834147D+02 -.167653039530588D+03 0.224527007125035D+03
 0.000000000000000D+00 0.000000000000000D+00 -.000000000000000D+00 0.000000000000000D+00
 0.913480897193120D+03 0.000000000000000D+00 0.000000000000000D+00 0.913480897193120D+03
 0.913480897193120D+03 -.000000000000000D+00 -.000000000000000D+00 -.913480897193120D+03
 0.725830474753774D+03 -.327709663841237D+02 0.489950123589073D+03 0.519692041731055D+03
 0.756195445583528D+03 0.908339639051965D+02 -.294167147694284D+03 -.690685479896566D+03
 0.283715505631021D+03 -.459010514014056D+02 -.167841981109905D+03 0.224090720452262D+03
 0.612203684179164D+02 -.121619461196673D+02 -.279409947848833D+02 -.530972822867504D+02
0.406357443094D-04 0.000000000000D+00 0.000000000000D+00 0.136699113649D-05 0.000000000000D+00  6 -2 4 25 3 -1 21 0 0.20203462D+00 0.97756678D-01 0.25668624D+06 0.25668624D+06 0.25668624D+06 0.10895978D+01  1  2  2  3  6  4        3 0.176178866973D-05 0.100000000000D+01
0.221004631081D-05 0.000000000000D+00 -.156051957785D-06 0.136699113649D-05 0.000000000000D+00  6 -2 4 25 3 -1 21 2 0.20203462D+00 0.97756678D-01 0.25668624D+06 0.25668624D+06 0.25668624D+06 0.10895978D+01  1  2  3  3  6  4        3 0.113757339447D-06 0.100000000000D+01
-.272266490291D-04 0.000000000000D+00 0.000000000000D+00 0.136699113649D-05 0.000000000000D+00  6 -2 4 25 3 -1 21 2 0.20203462D+00 0.97756678D-01 0.25668624D+06 0.25668624D+06 0.25668624D+06 0.10895978D+01  1  2 15  3  6  4        3 -.140143269417D-05 0.100000000000D+01
0.186267753331D-02 0.000000000000D+00 0.000000000000D+00 0.136699113649D-05 0.000000000000D+00  6 -2 4 25 3 -1 21 2 0.20203462D+00 0.97756678D-01 0.25961850D+06 0.25961850D+06 0.25961850D+06 0.10892278D+01  1  2 12  3  6  4        3 0.957650754013D-04 0.100000000000D+01
-.127236444862D-02 0.000000000000D+00 0.000000000000D+00 0.136699113649D-05 0.000000000000D+00  6 -2 4 25 3 -1 21 2 0.20203462D+00 0.97756678D-01 0.25668624D+06 0.25668624D+06 0.25668624D+06 0.10895978D+01  1  2  4  3  6  4        3 -.654921997667D-04 0.100000000000D+01
-.269019966942D-02 0.000000000000D+00 0.000000000000D+00 0.136699113649D-05 0.000000000000D+00  6 -2 4 25 3 -1 21 2 0.20203462D+00 0.97756678D-01 0.25668624D+06 0.25668624D+06 0.25668624D+06 0.10895978D+01  1  2  5  3  6  4        3 -.138472191952D-03 0.100000000000D+01
0.289956838556D-02 0.000000000000D+00 -.000000000000D+00 0.136699113649D-05 0.000000000000D+00  6 -2 4 25 3 -1 21 2 0.20203462D+00 0.97756678D-01 0.25668624D+06 0.25668624D+06 0.25668624D+06 0.10895978D+01  1  2  6  3  6  4        3 0.149248992417D-03 0.100000000000D+01
  </mgrwgt>
  </event>
  <event>
  5     66 0.20411069E-05 0.58128839E+02 0.75467711E-02 0.89721590E-01
       -2 -1    0    0    0  501 0.00000000E+00 0.00000000E+00 0.14426457E+04 0.14426458E+04 0.32000000E+00 0.0000E+00 0.9000E+01
        4 -1    0    0  502    0 0.00000000E+00 0.00000000E+00 -.47204726E+03 0.47204980E+03 0.15500000E+01 0.0000E+00 0.9000E+01
       25  1    1    2    0    0 -.52867659E+03 -.24366659E+03 0.31574928E+03 0.67393988E+03 0.12500000E+03 0.0000E+00 0.9000E+01
        3  1    1    2  502    0 0.47762919E+03 0.21581956E+03 -.56383379E+02 0.52714995E+03 0.50000000E+00 0.0000E+00 0.9000E+01
       -1  1    1    2    0  501 0.51047398E+02 0.27847030E+02 0.71123256E+03 0.71360574E+03 0.32000000E+00 0.0000E+00 0.9000E+01
#aMCatNLO 1  0  0  2  4 0.19231508D+04 0.00000000D+00  -5  6  0 0.00000000D+00 0.00000000D+00 0.00000000D+00 0.00000000D+00 0.00000000D+00
  <mgrwgt>
 0.3823341865D-03    7    2    0
 0.825226894698076D+03 0.000000000000000D+00 0.000000000000000D+00 0.825226894698076D+03
 0.825226894698076D+03 0.000000000000000D+00 0.000000000000000D+00 -.825226894698076D+03
 0.596226714945016D+03 -.528750644203339D+03 -.243699201415005D+03 -.299123903820459D+02
 0.644774137365717D+03 0.477720852021436D+03 0.215861775645938D+03 -.375393353130553D+03
 0.409452937085420D+03 0.510297921819028D+02 0.278374257690675D+02 0.405305743512599D+03
 0.000000000000000D+00 0.000000000000000D+00 0.000000000000000D+00 -.000000000000000D+00
 0.990130425685236D+03 0.000000000000000D+00 0.000000000000000D+00 0.990130425685236D+03
 0.107124206204446D+04 0.000000000000000D+00 0.000000000000000D+00 -.107124206204446D+04
 0.680982723390410D+03 -.549776629183645D+03 -.380740563194048D+03 -.299123903820459D+02
 0.597359389451112D+03 0.457272302163846D+03 0.825839709906309D+02 -.375393353130553D+03
 0.411472607209619D+03 0.375153538711483D+02 -.602458212949497D+02 0.405305743512599D+03
 0.371557767678550D+03 0.549889731486504D+02 0.358402413498367D+03 -.811116363592195D+02
0.381757594905D-02 0.000000000000D+00 0.000000000000D+00 0.788748339811D-05 0.000000000000D+00  6 -2 4 25 3 -1 21 0 0.22194569D+00 0.72622854D-01 0.34682166D+06 0.34682166D+06 0.34682166D+06 0.10799225D+01  1  2  2  2  6  2        4 0.262762099725D-03 0.100000000000D+01
0.127490135507D-02 0.000000000000D+00 -.146604968352D-04 0.788748339811D-05 0.000000000000D+00  6 -2 4 25 3 -1 21 2 0.22194569D+00 0.72622854D-01 0.34682166D+06 0.34682166D+06 0.34682166D+06 0.10799225D+01  1  2  3  2  6  2        4 0.102337969669D-03 0.100000000000D+01
-.239198536159D-02 0.000000000000D+00 0.000000000000D+00 0.788748339811D-05 0.000000000000D+00  6 -2 4 25 3 -1 21 2 0.22194569D+00 0.72622854D-01 0.34682166D+06 0.34682166D+06 0.34682166D+06 0.10799225D+01  1  2 15  2  6  2        4 -.192007738018D-03 0.100000000000D+01
-.417090322742D-03 0.000000000000D+00 0.000000000000D+00 0.788748339811D-05 0.000000000000D+00  6 -2 4 25 3 -1 21 2 0.22194569D+00 0.72622854D-01 0.34682166D+06 0.34682166D+06 0.34682166D+06 0.10799225D+01  1  2  4  2  6  2        4 -.334803760529D-04 0.100000000000D+01
-.414964526557D-02 0.000000000000D+00 -.279986503204D-02 0.788748339811D-05 0.000000000000D+00  6 -2 4 25 3 -1 21 2 0.22194569D+00 0.11070933D+00 0.34682166D+06 0.34682166D+06 0.34682166D+06 0.10799225D+01  1  2  5  2  6  2        4 -.107062184501D-03 0.100000000000D+01
0.510160858757D-02 0.000000000000D+00 0.256818903131D-02 0.788748339811D-05 0.000000000000D+00  6 -2 4 25 3 -1 21 2 0.22194569D+00 0.72622854D-01 0.34682166D+06 0.34682166D+06 0.34682166D+06 0.10799225D+01  1  2  6  2  6  2        4 0.409512675489D-03 0.100000000000D+01
-.102837381650D-03 0.000000000000D+00 -.138556701567D-03 0.788748339811D-05 0.000000000000D+00  6 -2 21 25 3 -1 -4 2 0.22194569D+00 0.11070933D+00 0.34682166D+06 0.34682166D+06 0.34682166D+06 0.10799225D+01  1  2  5  6  6  2        4 -.597282597881D-04 0.100000000000D+01
  </mgrwgt>
  </event>
  <event>
  5     66 -.20411069E-05 0.27791055E+03 0.75467711E-02 0.92629067E-01
       -4 -1    0    0    0  501 0.00000000E+00 0.00000000E+00 0.39725663E+03 0.39725966E+03 0.15500000E+01 0.0000E+00 0.9000E+01
        2 -1    0    0  502    0 -.00000000E+00 -.00000000E+00 -.28790624E+04 0.28790624E+04 0.32000000E+00 0.0000E+00 0.9000E+01
       25  1    1    2    0    0 0.42687407E+03 0.39610048E+03 -.50933800E+03 0.78368824E+03 0.12500000E+03 0.0000E+00 0.9000E+01
        1  1    1    2  502    0 -.24734916E+03 -.12654908E+03 -.21190185E+04 0.21371560E+04 0.32000000E+00 0.0000E+00 0.9000E+01
       -3  1    1    2    0  501 -.17952491E+03 -.26955140E+03 0.14655070E+03 0.35547786E+03 0.50000000E+00 0.0000E+00 0.9000E+01
#aMCatNLO 1  0  0  5  1 0.13322500D+02 0.00000000D+00  -5  6  0 0.00000000D+00 0.00000000D+00 0.00000000D+00 0.00000000D+00 0.00000000D+00
  <mgrwgt>
 -.1869148613D-02    7    2    0
 0.106945388639077D+04 0.000000000000000D+00 0.000000000000000D+00 0.106945388639077D+04
 0.106945388639077D+04 -.000000000000000D+00 -.000000000000000D+00 -.106945388639077D+04
 0.609487673374877D+03 0.426894792869974D+03 0.396077968164701D+03 0.129357268643649D+03
 0.815015999860370D+03 -.247408116243415D+03 -.126583965794764D+03 -.766170218456026D+03
 0.714404099546297D+03 -.179486676626559D+03 -.269494002369938D+03 0.636812949812377D+03
 0.000000000000000D+00 0.000000000000000D+00 0.000000000000000D+00 0.000000000000000D+00
 0.106945388639077D+04 0.000000000000000D+00 0.000000000000000D+00 0.106945388639077D+04
 0.106945388639077D+04 -.000000000000000D+00 -.000000000000000D+00 -.106945388639077D+04
 0.609406408588890D+03 0.426806657982001D+03 0.395945636204721D+03 0.129669968388536D+03
 0.814686286924981D+03 -.247525955545944D+03 -.126760898065571D+03 -.765752128404675D+03
 0.632895648020245D+03 -.163186706781921D+03 -.249863178191982D+03 0.558117722524952D+03
 0.819194292474293D+02 -.160939956541356D+02 -.193215599471682D+02 0.779644374911871D+02
0.264893061359D-04 0.000000000000D+00 0.000000000000D+00 0.335534449142D-05 0.000000000000D+00  6 -4 2 25 1 -3 21 0 0.61116639D-01 0.44293291D+00 0.35838577D+06 0.35838577D+06 0.35838577D+06 0.10788839D+01  1  2  2  4  6  5       -3 0.871922355165D-05 0.100000000000D+01
0.239996413934D-05 0.000000000000D+00 -.101725910356D-06 0.335534449142D-05 0.000000000000D+00  6 -4 2 25 1 -3 21 2 0.61116639D-01 0.44293291D+00 0.35838577D+06 0.35838577D+06 0.35838577D+06 0.10788839D+01  1  2  3  4  6  5       -3 0.919520510313D-06 0.100000000000D+01
-.151151088988D-04 0.000000000000D+00 0.000000000000D+00 0.335534449142D-05 0.000000000000D+00  6 -4 2 25 1 -3 21 2 0.61116639D-01 0.44293291D+00 0.35838577D+06 0.35838577D+06 0.35838577D+06 0.10788839D+01  1  2 15  4  6  5       -3 -.579119180169D-05 0.100000000000D+01
0.324860273148D-02 0.000000000000D+00 0.000000000000D+00 0.335534449142D-05 0.000000000000D+00  6 -4 2 25 1 -3 21 2 0.61116639D-01 0.44293291D+00 0.35827716D+06 0.35827716D+06 0.35827716D+06 0.10788935D+01  1  2 12  4  6  5       -3 0.124471134324D-02 0.100000000000D+01
-.854912357787D-02 0.000000000000D+00 0.000000000000D+00 0.335534449142D-05 0.000000000000D+00  6 -4 2 25 1 -3 21 2 0.61116639D-01 0.44293291D+00 0.35838577D+06 0.35838577D+06 0.35838577D+06 0.10788839D+01  1  2  4  4  6  5       -3 -.327550497368D-02 0.100000000000D+01
-.339830034768D-02 0.000000000000D+00 0.000000000000D+00 0.335534449142D-05 0.000000000000D+00  6 -4 2 25 1 -3 21 2 0.61116639D-01 0.44293291D+00 0.35838577D+06 0.35838577D+06 0.35838577D+06 0.10788839D+01  1  2  5  4  6  5       -3 -.130202231720D-02 0.100000000000D+01
0.381015441012D-02 0.000000000000D+00 -.000000000000D+00 0.335534449142D-05 0.000000000000D+00  6 -4 2 25 1 -3 21 2 0.61116639D-01 0.44293291D+00 0.35838577D+06 0.35838577D+06 0.35838577D+06 0.10788839D+01  1  2  6  4  6  5       -3 0.145981978236D-02 0.100000000000D+01
  </mgrwgt>
  </event>
  <event>
  5     66 0.20411069E-05 0.83284151E+02 0.75467711E-02 0.94851752E-01
       -4 -1    0    0    0  501 0.00000000E+00 0.00000000E+00 0.10331121E+04 0.10331132E+04 0.15500000E+01 0.0000E+00 0.9000E+01
        2 -1    0    0  502    0 -.00000000E+00 -.00000000E+00 -.11554235E+04 0.11554235E+04 0.32000000E+00 0.0000E+00 0.9000E+01
       25  1    1    2    0    0 -.27288172E+02 -.48128823E+03 0.31734692E+03 0.59052271E+03 0.12500000E+03 0.0000E+00 0.9000E+01
        1  1    1    2  502    0 0.12216537E+02 0.82364166E+02 -.94800334E+03 0.95165306E+03 0.32000000E+00 0.0000E+00 0.9000E+01
       -3  1    1    2    0  501 0.15071635E+02 0.39892407E+03 0.50834504E+03 0.64636097E+03 0.50000000E+00 0.0000E+00 0.9000E+01
#aMCatNLO 1  0  0  5  4 0.97483776D+02 0.00000000D+00  -5  6  0 0.00000000D+00 0.00000000D+00 0.00000000D+00 0.00000000D+00 0.00000000D+00
  <mgrwgt>
 0.8275533594D-03    4    2    0
 0.109255811927251D+04 0.000000000000000D+00 0.000000000000000D+00 0.109255811927251D+04
 0.109255811927251D+04 -.000000000000000D+00 -.000000000000000D+00 -.109255811927251D+04
 0.609284480992264D+03 -.272868869548351D+02 -.481201735006014D+03 0.351145119296180D+03
 0.900182947454965D+03 0.122192270961039D+02 0.823828883629807D+02 -.896321978466920D+03
 0.675648810097798D+03 0.150676598587312D+02 0.398818846643033D+03 0.545176859170740D+03
 0.000000000000000D+00 0.000000000000000D+00 0.000000000000000D+00 -.000000000000000D+00
 0.109255811927251D+04 0.000000000000000D+00 0.000000000000000D+00 0.109255811927251D+04
 0.109255811927251D+04 -.000000000000000D+00 -.000000000000000D+00 -.109255811927251D+04
 0.622195342569738D+03 -.244454434706107D+02 -.405992895424792D+03 0.453953999292431D+03
 0.778615793426060D+03 0.160927877118214D+02 0.184910353918101D+03 -.756169119291470D+03
 0.571771329232623D+03 0.622446468473308D+02 0.264217860535457D+03 0.503226568302348D+03
 0.212533773316606D+03 -.538919910885415D+02 -.431353190287657D+02 -.201011448303309D+03
0.705302999209D-02 0.000000000000D+00 0.000000000000D+00 0.696591864357D-04 0.000000000000D+00  6 -4 2 25 1 -3 21 0 0.15894041D+00 0.17775755D+00 0.24025089D+06 0.24025089D+06 0.24025089D+06 0.10917611D+01  1  2  2  4  6  5       -3 0.153716619333D-02 0.100000000000D+01
0.206323315265D-02 0.000000000000D+00 -.270854922751D-04 0.696591864357D-04 0.000000000000D+00  6 -4 2 25 1 -3 21 2 0.15894041D+00 0.17775755D+00 0.24025089D+06 0.24025089D+06 0.24025089D+06 0.10917611D+01  1  2  3  4  6  5       -3 0.535980045183D-03 0.100000000000D+01
-.476173273878D-02 0.000000000000D+00 0.000000000000D+00 0.696591864357D-04 0.000000000000D+00  6 -4 2 25 1 -3 21 2 0.15894041D+00 0.17775755D+00 0.24025089D+06 0.24025089D+06 0.24025089D+06 0.10917611D+01  1  2 15  4  6  5       -3 -.123698755286D-02 0.100000000000D+01
-.331258498488D-04 0.000000000000D+00 0.000000000000D+00 0.696591864357D-04 0.000000000000D+00  6 -4 2 25 1 -3 21 2 0.15894041D+00 0.17775755D+00 0.24025089D+06 0.24025089D+06 0.24025089D+06 0.10917611D+01  1  2  4  4  6  5       -3 -.860532629377D-05 0.100000000000D+01
  </mgrwgt>
  </event>
  <event>
  5     66 0.20411069E-05 0.24943438E+02 0.75467711E-02 0.94591787E-01
       -4 -1    0    0    0  501 0.00000000E+00 0.00000000E+00 0.18671594E+03 0.18672238E+03 0.15500000E+01 0.0000E+00 0.9000E+01
        2 -1    0    0  502    0 -.00000000E+00 -.00000000E+00 -.19718794E+04 0.19718794E+04 0.32000000E+00 0.0000E+00 0.9000E+01
       25  1    1    2    0    0 0.39509271E+03 -.23859115E+03 -.53024354E+03 0.71400784E+03 0.12500000E+03 0.0000E+00 0.9000E+01
        1  1    1    2  502    0 -.11240285E+02 -.22258414E+02 -.78058541E+03 0.78098365E+03 0.32000000E+00 0.0000E+00 0.9000E+01
       -3  1    1    2    0  501 -.38385242E+03 0.26084956E+03 -.47433453E+03 0.66361033E+03 0.50000000E+00 0.0000E+00 0.9000E+01
#aMCatNLO 1  0  0  4  2 0.37321298D+02 0.00000000D+00  -5  6  0 0.00000000D+00 0.00000000D+00 0.00000000D+00 0.00000000D+00 0.00000000D+00
  <mgrwgt>
 0.1030501110D-01    6    2    0
 0.606785216152514D+03 0.000000000000000D+00 0.000000000000000D+00 0.606785216152514D+03
 0.606785216152514D+03 -.000000000000000D+00 -.000000000000000D+00 -.606785216152514D+03
 0.489994476819846D+03 0.395040020926401D+03 -.238545777269882D+03 0.107279454356976D+03
 0.241017364739888D+03 -.112443812510399D+02 -.222651972879076D+02 -.239723163224107D+03
 0.482558590745295D+03 -.383795639675361D+03 0.260810974557790D+03 0.132443708867131D+03
 0.000000000000000D+00 0.000000000000000D+00 0.000000000000000D+00 -.000000000000000D+00
 0.606785216152514D+03 0.000000000000000D+00 0.000000000000000D+00 0.606785216152514D+03
 0.606785216152514D+03 -.000000000000000D+00 -.000000000000000D+00 -.606785216152514D+03
 0.488302644341094D+03 0.394649692466131D+03 -.239318673526330D+03 0.989578961401812D+02
 0.494942479246320D+02 -.303027000735250D+02 -.264928729197709D+02 -.288019900412418D+02
 0.480269989786660D+03 -.384179796379101D+03 0.260050299105110D+03 0.124253728632719D+03
 0.195503550252643D+03 0.198328039864949D+02 0.576124734099060D+01 -.194409634731658D+03
0.149250650918D-02 0.000000000000D+00 0.000000000000D+00 0.454833101306D-05 0.000000000000D+00  6 -4 2 25 1 -3 21 0 0.28726027D-01 0.30336656D+00 0.23380960D+06 0.23380960D+06 0.23380960D+06 0.10926534D+01  1  2  2  3  6  4        1 0.855036779612D-02 0.100000000000D+01
0.723750329174D-03 0.000000000000D+00 -.573161798126D-05 0.454833101306D-05 0.000000000000D+00  6 -4 2 25 1 -3 21 2 0.28726027D-01 0.30336656D+00 0.23380960D+06 0.23380960D+06 0.23380960D+06 0.10926534D+01  1  2  3  3  6  4        1 0.495019332441D-02 0.100000000000D+01
-.107656770916D-02 0.000000000000D+00 0.000000000000D+00 0.454833101306D-05 0.000000000000D+00  6 -4 2 25 1 -3 21 2 0.28726027D-01 0.30336656D+00 0.23380960D+06 0.23380960D+06 0.23380960D+06 0.10926534D+01  1  2 15  3  6  4        1 -.736333798044D-02 0.100000000000D+01
-.168484944119D-03 0.000000000000D+00 0.000000000000D+00 0.454833101306D-05 0.000000000000D+00  6 -4 2 25 1 -3 21 2 0.28726027D-01 0.30336656D+00 0.23380960D+06 0.23380960D+06 0.23380960D+06 0.10926534D+01  1  2  4  3  6  4        1 -.115237674102D-02 0.100000000000D+01
-.602199858001D-03 0.000000000000D+00 0.000000000000D+00 0.454833101306D-05 0.000000000000D+00  6 -4 2 25 1 -3 21 2 0.28726027D-01 0.30336656D+00 0.23380960D+06 0.23380960D+06 0.23380960D+06 0.10926534D+01  1  2  5  3  6  4        1 -.411883158718D-02 0.100000000000D+01
0.138004239873D-02 0.000000000000D+00 -.000000000000D+00 0.454833101306D-05 0.000000000000D+00  6 -4 2 25 1 -3 21 2 0.28726027D-01 0.30336656D+00 0.23380960D+06 0.23380960D+06 0.23380960D+06 0.10926534D+01  1  2  6  3  6  4        1 0.943899628674D-02 0.100000000000D+01
  </mgrwgt>
  </event>
  <event>
  6     66 -.20411069E-05 0.20281113E+02 0.75467711E-02 0.95097212E-01
       -4 -1    0    0    0  501 0.00000000E+00 0.00000000E+00 0.52240696E+03 0.52240926E+03 0.15500000E+01 0.0000E+00 0.9000E+01
        2 -1    0    0  502    0 -.00000000E+00 -.00000000E+00 -.24086773E+04 0.24086773E+04 0.32000000E+00 0.0000E+00 0.9000E+01
       25  1    1    2    0    0 0.61534657E+02 0.43980380E+03 -.19841137E+04 0.20370434E+04 0.12500000E+03 0.0000E+00 0.9000E+01
        1  1    1    2  503    0 -.12389735E+02 -.48304385E+01 -.29475110E+03 0.29505111E+03 0.32000000E+00 0.0000E+00 0.9000E+01
       -3  1    1    2    0  501 -.24926375E+02 -.42423091E+03 0.37791200E+03 0.56869229E+03 0.50000000E+00 0.0000E+00 0.9000E+01
       21  1    1    2  502  503 -.24218547E+02 -.10742451E+02 0.14682443E+02 0.30299751E+02 0.75000000E+00 0.0000E+00 0.9000E+01
#aMCatNLO 2  0  0  4  4 0.42237020D+02 0.00000000D+00  -5  6  0 0.00000000D+00 0.00000000D+00 0.00000000D+00 0.00000000D+00 0.00000000D+00
  <mgrwgt>
 -.1992265192D-02    1    2    0
 0.112174559527942D+04 0.000000000000000D+00 0.000000000000000D+00 0.112174559527942D+04
 0.112174559527942D+04 -.000000000000000D+00 -.000000000000000D+00 -.112174559527942D+04
 0.965232652380311D+03 0.758872649117616D+02 0.445889608610548D+03 -.843488383546848D+03
 0.183491117746833D+03 -.668439788241675D+02 -.283970466042731D+02 -.168506618656631D+03
 0.109476742043169D+04 -.904328608759393D+01 -.417492562006275D+03 0.101199500220348D+04
 0.000000000000000D+00 0.000000000000000D+00 0.000000000000000D+00 0.000000000000000D+00
 0.112174559527942D+04 0.000000000000000D+00 0.000000000000000D+00 0.112174559527942D+04
 0.112174559527942D+04 -.000000000000000D+00 -.000000000000000D+00 -.112174559527942D+04
 0.993568470300814D+03 0.613999605332213D+02 0.439735027975995D+03 -.880009349492021D+03
 0.137140381122644D+03 -.119914882315288D+02 -.465182377358504D+01 -.136535888615545D+03
 0.106067679822395D+04 -.249849639358727D+02 -.424264998009803D+03 0.971807714175743D+03
 0.521055409114185D+02 -.244235083658196D+02 -.108182061926066D+02 0.447375239318236D+02
-.512836721031D-02 0.000000000000D+00 0.000000000000D+00 0.790219544448D-05 0.000000000000D+00  6 -4 2 25 1 -3 21 2 0.80370480D-01 0.37056591D+00 0.23014690D+06 0.23014690D+06 0.23014690D+06 0.10931728D+01  1  2  8  3  6  4        1 -.199226519235D-02 0.100000000000D+01
  </mgrwgt>
  </event>
  <event>
  5     66 -.20411069E-05 0.10095310E+03 0.75467711E-02 0.94174003E-01
       -4 -1    0    0    0  501 0.00000000E+00 0.00000000E+00 0.76107456E+03 0.76107614E+03 0.15500000E+01 0.0000E+00 0.9000E+01
        2 -1    0    0  502    0 -.00000000E+00 -.00000000E+00 -.92739077E+03 0.92739083E+03 0.32000000E+00 0.0000E+00 0.9000E+01
       25  1    1    2    0    0 -.24844744E+03 0.40990364E+03 0.43316054E+03 0.65802749E+03 0.12500000E+03 0.0000E+00 0.9000E+01
        1  1    1    2  502    0 0.30363415E+03 -.32511871E+03 -.73631564E+03 0.86026548E+03 0.32000000E+00 0.0000E+00 0.9000E+01
       -3  1    1    2    0  501 -.55186714E+02 -.84784930E+02 0.13683888E+03 0.17017399E+03 0.50000000E+00 0.0000E+00 0.9000E+01
#aMCatNLO 1  0  0  5  1 0.58710679D+01 0.00000000D+00  -5  6  0 0.00000000D+00 0.00000000D+00 0.00000000D+00 0.00000000D+00 0.00000000D+00
  <mgrwgt>
 -.4208862013D-02    8    2    0
 0.840127908352914D+03 0.000000000000000D+00 0.000000000000000D+00 0.840127908352914D+03
 0.840127908352914D+03 -.000000000000000D+00 -.000000000000000D+00 -.840127908352914D+03
 0.704401040098868D+03 -.248639174383545D+03 0.409844513240523D+03 0.500761281671093D+03
 0.791689038531051D+03 0.303711098642911D+03 -.325235938133997D+03 -.654792094360823D+03
 0.184165738075910D+03 -.550719242593662D+02 -.846085751065254D+02 0.154030812689730D+03
 0.000000000000000D+00 0.000000000000000D+00 0.000000000000000D+00 0.000000000000000D+00
 0.840127908352914D+03 0.000000000000000D+00 0.000000000000000D+00 0.840127908352914D+03
 0.840127908352914D+03 -.000000000000000D+00 -.000000000000000D+00 -.840127908352914D+03
 0.704581537131681D+03 -.248763807802479D+03 0.409653035348139D+03 0.501109869214835D+03
 0.791399848524189D+03 0.303571064419877D+03 -.325451076722968D+03 -.654400432266783D+03
 0.198327171511111D+02 -.871678347607986D+01 -.125579103961570D+02 0.126353963890810D+02
 0.164441713898848D+03 -.460904731413183D+02 -.716440482290147D+02 0.140655166662866D+03
0.131474475963D-03 0.000000000000D+00 0.000000000000D+00 0.951427973024D-06 0.000000000000D+00  6 -4 2 25 1 -3 21 0 0.11708852D+00 0.14267563D+00 0.27109931D+06 0.27109931D+06 0.27109931D+06 0.10878217D+01  1  2  2  4  6  5       -3 0.102520283452D-03 0.100000000000D+01
0.112907394474D-04 0.000000000000D+00 -.504896605723D-06 0.951427973024D-06 0.000000000000D+00  6 -4 2 25 1 -3 21 2 0.11708852D+00 0.14267563D+00 0.27109931D+06 0.27109931D+06 0.27109931D+06 0.10878217D+01  1  2  3  4  6  5       -3 0.104185239818D-04 0.100000000000D+01
-.963543643718D-04 0.000000000000D+00 0.000000000000D+00 0.951427973024D-06 0.000000000000D+00  6 -4 2 25 1 -3 21 2 0.11708852D+00 0.14267563D+00 0.27109931D+06 0.27109931D+06 0.27109931D+06 0.10878217D+01  1  2 15  4  6  5       -3 -.889109398578D-04 0.100000000000D+01
0.301634793298D-03 0.000000000000D+00 0.000000000000D+00 0.951427973024D-06 0.000000000000D+00  6 -4 2 25 1 -3 21 2 0.11708852D+00 0.14267563D+00 0.27083318D+06 0.27083318D+06 0.27083318D+06 0.10878536D+01  1  2 12  4  6  5       -3 0.278357144454D-03 0.100000000000D+01
-.598899191194D-02 0.000000000000D+00 0.000000000000D+00 0.951427973024D-06 0.000000000000D+00  6 -4 2 25 1 -3 21 2 0.11708852D+00 0.14267563D+00 0.27109931D+06 0.27109931D+06 0.27109931D+06 0.10878217D+01  1  2  4  4  6  5       -3 -.552633918727D-02 0.100000000000D+01
-.405057156462D-03 0.000000000000D+00 0.000000000000D+00 0.951427973024D-06 0.000000000000D+00  6 -4 2 25 1 -3 21 2 0.11708852D+00 0.14267563D+00 0.27109931D+06 0.27109931D+06 0.27109931D+06 0.10878217D+01  1  2  5  4  6  5       -3 -.373766281496D-03 0.100000000000D+01
0.139061823473D-02 0.000000000000D+00 -.000000000000D+00 0.951427973024D-06 0.000000000000D+00  6 -4 2 25 1 -3 21 2 0.11708852D+00 0.14267563D+00 0.27109931D+06 0.27109931D+06 0.27109931D+06 0.10878217D+01  1  2  6  4  6  5       -3 0.128319225641D-02 0.100000000000D+01
0.114502534795D-03 0.000000000000D+00 0.000000000000D+00 0.951427973024D-06 0.101231560869D-07  6 -4 2 25 1 -3 21 2 0.11708852D+00 0.14267563D+00 0.27083318D+06 0.27083318D+06 0.27083318D+06 0.10878536D+01  1  2 11  4  6  5       -3 0.105666187478D-03 0.100000000000D+01
  </mgrwgt>
  </event>
  <event>
  5     66 0.20411069E-05 0.56256847E+02 0.75467711E-02 0.94340798E-01
       -4 -1    0    0    0  501 0.00000000E+00 0.00000000E+00 0.46432590E+03 0.46432848E+03 0.15500000E+01 0.0000E+00 0.9000E+01
        2 -1    0    0  502    0 0.00000000E+00 0.00000000E+00 -.13693056E+04 0.13693057E+04 0.32000000E+00 0.0000E+00 0.9000E+01
       25  1    1    2    0    0 -.27450223E+03 -.41377864E+03 -.20101001E+03 0.55008569E+03 0.12500000E+03 0.0000E+00 0.9000E+01
        1  1    1    2  502    0 0.11313140E+02 0.55090781E+02 -.82147954E+03 0.82340253E+03 0.32000000E+00 0.0000E+00 0.9000E+01
       -3  1    1    2    0  501 0.26318909E+03 0.35868786E+03 0.11750981E+03 0.46014594E+03 0.50000000E+00 0.0000E+00 0.9000E+01
#aMCatNLO 1  0  0  1  5 0.94376070D+01 0.00000000D+00  -5  6  0 0.00000000D+00 0.00000000D+00 0.00000000D+00 0.00000000D+00 0.00000000D+00
  <mgrwgt>
 0.2101915932D-02   11    4    0
 0.797374738164462D+03 0.000000000000000D+00 0.000000000000000D+00 0.797374738164462D+03
 0.797374738164462D+03 0.000000000000000D+00 0.000000000000000D+00 -.797374738164462D+03
 0.518388859380656D+03 -.274459552995503D+03 -.413731359001773D+03 0.812423896622481D+02
 0.480708887152926D+03 0.113169166622664D+02 0.551068079730946D+02 -.477405698855889D+03
 0.595651729795342D+03 0.263142636333237D+03 0.358624551028678D+03 0.396163309193641D+03
 0.000000000000000D+00 -.000000000000000D+00 -.000000000000000D+00 0.000000000000000D+00
 0.870568126967605D+03 0.000000000000000D+00 0.000000000000000D+00 0.870568126967605D+03
 0.797692981766688D+03 0.000000000000000D+00 0.000000000000000D+00 -.797692981766688D+03
 0.515500238191893D+03 -.272369972904857D+03 -.411496983655619D+03 0.812423896622481D+02
 0.481001238825453D+03 0.132606167524746D+02 0.571851947175508D+02 -.477405698855889D+03
 0.598275924589690D+03 0.265555668313293D+03 0.361204791522859D+03 0.396163309193641D+03
 0.734837071272573D+02 -.644631216091106D+01 -.689300258479112D+01 0.728751452009166D+02
 0.797374738164462D+03 0.000000000000000D+00 0.000000000000000D+00 0.797374738164462D+03
 0.797374738164462D+03 0.000000000000000D+00 0.000000000000000D+00 -.797374738164462D+03
 0.518388859380656D+03 -.274459552995503D+03 -.413731359001773D+03 0.812423896622481D+02
 0.480708887152926D+03 0.113169166622664D+02 0.551068079730946D+02 -.477405698855889D+03
 0.000000000000000D+00 -.000000000000000D+00 -.000000000000000D+00 0.000000000000000D+00
 0.595651729795342D+03 0.263142636333237D+03 0.358624551028678D+03 0.396163309193641D+03
 0.870568126967605D+03 0.000000000000000D+00 0.000000000000000D+00 0.870568126967605D+03
 0.797692981766688D+03 0.000000000000000D+00 0.000000000000000D+00 -.797692981766688D+03
 0.515500238191893D+03 -.272369972904857D+03 -.411496983655619D+03 0.812423896622481D+02
 0.481001238825453D+03 0.132606167524746D+02 0.571851947175508D+02 -.477405698855889D+03
 0.734837071272573D+02 -.644631216091106D+01 -.689300258479112D+01 0.728751452009166D+02
 0.598275924589690D+03 0.265555668313293D+03 0.361204791522859D+03 0.396163309193641D+03
0.176293862790D-04 0.000000000000D+00 0.000000000000D+00 0.209193688776D-04 0.000000000000D+00  6 -4 2 25 1 -3 21 0 0.71434955D-01 0.21066261D+00 0.25656736D+06 0.25656736D+06 0.25656736D+06 0.10896129D+01  1  2  2  1  6  1       -4 0.287055250038D-04 0.100000000000D+01
0.610711138079D-05 0.000000000000D+00 -.677014852353D-07 0.209193688776D-04 0.000000000000D+00  6 -4 2 25 1 -3 21 2 0.71434955D-01 0.21066261D+00 0.25656736D+06 0.25656736D+06 0.25656736D+06 0.10896129D+01  1  2  3  1  6  1       -4 0.118061591998D-04 0.100000000000D+01
-.101654051201D-04 0.000000000000D+00 0.000000000000D+00 0.209193688776D-04 0.000000000000D+00  6 -4 2 25 1 -3 21 2 0.71434955D-01 0.21066261D+00 0.25656736D+06 0.25656736D+06 0.25656736D+06 0.10896129D+01  1  2 15  1  6  1       -4 -.196515805420D-04 0.100000000000D+01
0.473542027484D-02 0.000000000000D+00 0.000000000000D+00 0.209193688776D-04 0.000000000000D+00  6 -4 2 25 1 -3 21 2 0.78109597D-01 0.21066261D+00 0.26292073D+06 0.26292073D+06 0.26292073D+06 0.10888165D+01  1  2 12  1  6  1       -4 0.728927103006D-02 0.100000000000D+01
-.362129496353D-02 0.000000000000D+00 0.000000000000D+00 0.209193688776D-04 0.000000000000D+00  6 -4 2 25 1 -3 21 2 0.71434955D-01 0.21066261D+00 0.25656736D+06 0.25656736D+06 0.25656736D+06 0.10896129D+01  1  2  4  1  6  1       -4 -.700062307416D-02 0.100000000000D+01
-.495242396714D-02 0.000000000000D+00 -.448976053973D-04 0.209193688776D-04 0.000000000000D+00  6 -4 2 25 1 -3 21 2 0.78006137D-01 0.21066261D+00 0.25656736D+06 0.25656736D+06 0.25656736D+06 0.10896129D+01  1  2  5  1  6  1       -4 -.766610423625D-02 0.100000000000D+01
0.493741814727D-02 0.000000000000D+00 0.447243203321D-04 0.209193688776D-04 0.000000000000D+00  6 -4 2 25 1 -3 21 2 0.71434955D-01 0.21066261D+00 0.25656736D+06 0.25656736D+06 0.25656736D+06 0.10896129D+01  1  2  6  1  6  1       -4 0.954492902583D-02 0.100000000000D+01
0.546969828213D-07 0.000000000000D+00 0.000000000000D+00 0.209193688776D-04 0.104765717422D-05  6 -4 2 25 1 -3 21 2 0.77992181D-01 0.21074669D+00 0.26292073D+06 0.26292073D+06 0.26292073D+06 0.10888165D+01  1  2 11  1  6  1       -4 0.844612351653D-07 0.100000000000D+01
0.720833470453D-04 0.000000000000D+00 0.000000000000D+00 0.209193688776D-04 0.000000000000D+00  6 21 2 25 1 4 -3 2 0.78109597D-01 0.21066261D+00 0.26292073D+06 0.26292073D+06 0.26292073D+06 0.10888165D+01  3  4 12  5  5  1       -4 0.237752156844D-02 0.100000000000D+01
-.742153486602D-04 0.000000000000D+00 -.652380837458D-06 0.209193688776D-04 0.000000000000D+00  6 21 2 25 1 4 -3 2 0.78006137D-01 0.21066261D+00 0.25656736D+06 0.25656736D+06 0.25656736D+06 0.10896129D+01  3  4  5  5  5  1       -4 -.246405759444D-02 0.100000000000D+01
0.104739891258D-08 0.000000000000D+00 0.000000000000D+00 0.209193688776D-04 0.199554814508D-07  6 21 2 25 1 4 -3 2 0.77992181D-01 0.21074669D+00 0.26292073D+06 0.26292073D+06 0.26292073D+06 0.10888165D+01  3  4 11  5  5  1       -4 0.346473451414D-07 0.100000000000D+01
  </mgrwgt>
  </event>
  <event>
  5     66 0.20411069E-05 0.38804722E+02 0.75467711E-02 0.87333593E-01
       -4 -1    0    0    0  501 0.00000000E+00 0.00000000E+00 0.79471366E+03 0.79471517E+03 0.15500000E+01 0.0000E+00 0.9000E+01
        2 -1    0    0  502    0 -.00000000E+00 -.00000000E+00 -.28242214E+04 0.28242214E+04 0.32000000E+00 0.0000E+00 0.9000E+01
       25  1    1    2    0    0 -.74336131E+03 0.13397625E+01 -.17258563E+04 0.18832931E+04 0.12500000E+03 0.0000E+00 0.9000E+01
        1  1    1    2  502    0 0.17322411E+02 -.34722006E+02 -.83463560E+03 0.83553717E+03 0.32000000E+00 0.0000E+00 0.9000E+01
       -3  1    1    2    0  501 0.72603890E+03 0.33382243E+02 0.53098421E+03 0.90010629E+03 0.50000000E+00 0.0000E+00 0.9000E+01
#aMCatNLO 1  0  0  5  1 0.60709853D+01 0.00000000D+00  -5  6  0 0.00000000D+00 0.00000000D+00 0.00000000D+00 0.00000000D+00 0.00000000D+00
  <mgrwgt>
 0.5588454473D-03    4    2    0
 0.149814887854059D+04 0.000000000000000D+00 0.000000000000000D+00 0.149814887854059D+04
 0.149814887854059D+04 -.000000000000000D+00 -.000000000000000D+00 -.149814887854059D+04
 0.110563880312985D+04 -.743360681959841D+03 0.134109255650266D+01 -.808841925825656D+03
 0.443855513084360D+03 0.173234453991585D+02 -.347232590080377D+02 -.442155979286431D+03
 0.144680344086697D+04 0.726037236560682D+03 0.333821664515351D+02 0.125099790511209D+04
 0.000000000000000D+00 -.000000000000000D+00 0.000000000000000D+00 0.000000000000000D+00
 0.149814887854059D+04 0.000000000000000D+00 0.000000000000000D+00 0.149814887854059D+04
 0.149814887854059D+04 -.000000000000000D+00 -.000000000000000D+00 -.149814887854059D+04
 0.871438587935585D+03 -.621144296045692D+03 0.696042932360546D+01 -.598257075559245D+03
 0.363865705077062D+03 0.672540998874307D+02 -.324275180525774D+02 -.356123003262228D+03
 0.134536668537569D+04 0.849706949619205D+03 -.261170329592466D+03 0.100985131421816D+04
 0.415626778692839D+03 -.295816753460943D+03 0.286637418321438D+03 -.554712353966916D+02
0.138310265313D-01 0.000000000000D+00 0.000000000000D+00 0.573290567066D-04 0.000000000000D+00  6 -4 2 25 1 -3 21 0 0.12226376D+00 0.43449571D+00 0.57714964D+06 0.57714964D+06 0.57714964D+06 0.10641337D+01  1  2  2  4  6  5       -3 0.749118459359D-03 0.100000000000D+01
0.567225874015D-02 0.000000000000D+00 -.531147836733D-04 0.573290567066D-04 0.000000000000D+00  6 -4 2 25 1 -3 21 2 0.12226376D+00 0.43449571D+00 0.57714964D+06 0.57714964D+06 0.57714964D+06 0.10641337D+01  1  2  3  4  6  5       -3 0.347892082827D-03 0.100000000000D+01
-.874009874652D-02 0.000000000000D+00 0.000000000000D+00 0.573290567066D-04 0.000000000000D+00  6 -4 2 25 1 -3 21 2 0.12226376D+00 0.43449571D+00 0.57714964D+06 0.57714964D+06 0.57714964D+06 0.10641337D+01  1  2 15  4  6  5       -3 -.536049446320D-03 0.100000000000D+01
-.344949100884D-04 0.000000000000D+00 0.000000000000D+00 0.573290567066D-04 0.000000000000D+00  6 -4 2 25 1 -3 21 2 0.12226376D+00 0.43449571D+00 0.57714964D+06 0.57714964D+06 0.57714964D+06 0.10641337D+01  1  2  4  4  6  5       -3 -.211564857446D-05 0.100000000000D+01
  </mgrwgt>
  </event>
  <event>
  5     66 0.20411069E-05 0.93415232E+02 0.75467711E-02 0.94548551E-01
       -4 -1    0    0    0  501 0.00000000E+00 0.00000000E+00 0.66896846E+03 0.66897025E+03 0.15500000E+01 0.0000E+00 0.9000E+01
        2 -1    0    0  502    0 0.00000000E+00 0.00000000E+00 -.22308317E+04 0.22308318E+04 0.32000000E+00 0.0000E+00 0.9000E+01
       25  1    1    2    0    0 0.38399958E+03 -.26050073E+03 -.38309988E+03 0.61457858E+03 0.12500000E+03 0.0000E+00 0.9000E+01
        1  1    1    2  502    0 -.83101370E+02 -.42633537E+02 -.16480349E+04 0.16506794E+04 0.32000000E+00 0.0000E+00 0.9000E+01
       -3  1    1    2    0  501 -.30089821E+03 0.30313426E+03 0.46927149E+03 0.63454401E+03 0.50000000E+00 0.0000E+00 0.9000E+01
#aMCatNLO 1  0  0  2  4 0.10559184D+02 0.00000000D+00  -5  6  0 0.00000000D+00 0.00000000D+00 0.00000000D+00 0.00000000D+00 0.00000000D+00
  <mgrwgt>
 0.1148242377D-01    7    2    0
 0.122162134485757D+04 0.000000000000000D+00 0.000000000000000D+00 0.122162134485757D+04
 0.122162134485757D+04 0.000000000000000D+00 0.000000000000000D+00 -.122162134485757D+04
 0.484493737723936D+03 0.383998774777033D+03 -.260478992028165D+03 -.616832033493597D+02
 0.905698170141719D+03 -.831158821010987D+02 -.426398376116476D+02 -.900867787074811D+03
 0.105305078184948D+04 -.300882892675934D+03 0.303118829639813D+03 0.962550990424171D+03
 0.000000000000000D+00 -.000000000000000D+00 -.000000000000000D+00 -.000000000000000D+00
 0.122266683663180D+04 0.000000000000000D+00 0.000000000000000D+00 0.122266683663180D+04
 0.124858812206128D+04 0.000000000000000D+00 0.000000000000000D+00 -.124858812206128D+04
 0.485867940817047D+03 0.386043748766278D+03 -.260015504108577D+03 -.616832033493597D+02
 0.905315570560029D+03 -.792992886846436D+02 -.417748168574426D+02 -.900867787074811D+03
 0.105208199552545D+04 -.296446462560402D+03 0.304124334734480D+03 0.962550990424171D+03
 0.279894517905505D+02 -.102979975212327D+02 -.233401376845961D+01 -.259212854294859D+02
0.553586765190D-02 0.000000000000D+00 0.000000000000D+00 0.157951224905D-03 0.000000000000D+00  6 -4 2 25 1 -3 21 0 0.10291836D+00 0.34320502D+00 0.25053177D+06 0.25053177D+06 0.25053177D+06 0.10903897D+01  1  2  2  2  6  2        2 0.115888420593D-02 0.100000000000D+01
0.143208658052D-02 0.000000000000D+00 -.212591894107D-04 0.157951224905D-03 0.000000000000D+00  6 -4 2 25 1 -3 21 2 0.10291836D+00 0.34320502D+00 0.25053177D+06 0.25053177D+06 0.25053177D+06 0.10903897D+01  1  2  3  2  6  2        2 0.356440541932D-03 0.100000000000D+01
-.363632648816D-02 0.000000000000D+00 0.000000000000D+00 0.157951224905D-03 0.000000000000D+00  6 -4 2 25 1 -3 21 2 0.10291836D+00 0.34320502D+00 0.25053177D+06 0.25053177D+06 0.25053177D+06 0.10903897D+01  1  2 15  2  6  2        2 -.905066915444D-03 0.100000000000D+01
-.114510867943D-02 0.000000000000D+00 0.000000000000D+00 0.157951224905D-03 0.000000000000D+00  6 -4 2 25 1 -3 21 2 0.10291836D+00 0.34320502D+00 0.25053177D+06 0.25053177D+06 0.25053177D+06 0.10903897D+01  1  2  4  2  6  2        2 -.285012906215D-03 0.100000000000D+01
-.714931320466D+00 0.000000000000D+00 -.414929828577D-01 0.157951224905D-03 0.000000000000D+00  6 -4 2 25 1 -3 21 2 0.10291836D+00 0.35087997D+00 0.25053177D+06 0.25053177D+06 0.25053177D+06 0.10903897D+01  1  2  5  2  6  2        2 -.166867581737D+00 0.100000000000D+01
0.715684095608D+00 0.000000000000D+00 0.414828372866D-01 0.157951224905D-03 0.000000000000D+00  6 -4 2 25 1 -3 21 2 0.10291836D+00 0.34320502D+00 0.25053177D+06 0.25053177D+06 0.25053177D+06 0.10903897D+01  1  2  6  2  6  2        2 0.178130868874D+00 0.100000000000D+01
-.305738756770D-02 0.000000000000D+00 -.166493955036D-03 0.157951224905D-03 0.000000000000D+00  6 -4 21 25 1 -3 -2 2 0.10291836D+00 0.35087997D+00 0.25053177D+06 0.25053177D+06 0.25053177D+06 0.10903897D+01  1  2  5  6  6  2        2 -.106108288726D-03 0.100000000000D+01
  </mgrwgt>
  </event>
  <event>
  5     66 0.20411069E-05 0.26876765E+02 0.75467711E-02 0.94269588E-01
       -4 -1    0    0    0  501 0.00000000E+00 0.00000000E+00 0.23603489E+03 0.23603998E+03 0.15500000E+01 0.0000E+00 0.9000E+01
        2 -1    0    0  502    0 -.00000000E+00 -.00000000E+00 -.26829374E+04 0.26829374E+04 0.32000000E+00 0.0000E+00 0.9000E+01
       25  1    1    2    0    0 -.25138781E+03 -.44156585E+03 -.96394706E+03 0.10968114E+04 0.12500000E+03 0.0000E+00 0.9000E+01
        1  1    1    2  502    0 0.13866266E+02 0.23015756E+02 -.13107634E+04 0.13110388E+04 0.32000000E+00 0.0000E+00 0.9000E+01
       -3  1    1    2    0  501 0.23752154E+03 0.41855010E+03 -.17219205E+03 0.51112720E+03 0.50000000E+00 0.0000E+00 0.9000E+01
#aMCatNLO 1  0  0  4  2 0.61256588D+01 0.00000000D+00  -5  6  0 0.00000000D+00 0.00000000D+00 0.00000000D+00 0.00000000D+00 0.00000000D+00
  <mgrwgt>
 0.7125630217D-02    8    2    0
 0.795785317833674D+03 0.000000000000000D+00 0.000000000000000D+00 0.795785317833674D+03
 0.795785317833674D+03 -.000000000000000D+00 -.000000000000000D+00 -.795785317833674D+03
 0.529539969835374D+03 -.251372481452416D+03 -.441538508195250D+03 -.815058341618402D+02
 0.389395380781894D+03 0.138697336647643D+02 0.230215332661094D+02 -.388466732254413D+03
 0.672635285050081D+03 0.237502747787652D+03 0.418516974929140D+03 0.469972566416253D+03
 0.000000000000000D+00 0.000000000000000D+00 0.000000000000000D+00 0.000000000000000D+00
 0.795785317833674D+03 0.000000000000000D+00 0.000000000000000D+00 0.795785317833674D+03
 0.795785317833674D+03 -.000000000000000D+00 -.000000000000000D+00 -.795785317833674D+03
 0.529549586365654D+03 -.251368564603423D+03 -.441532006854160D+03 -.816155381810817D+02
 0.320337490625087D+03 0.607086996507088D+01 0.159511861291765D+02 -.319882497331313D+03
 0.672544831857304D+03 0.237507722690251D+03 0.418525232469512D+03 0.469833228185067D+03
 0.691387268193036D+02 0.778997194810209D+01 0.705558825547187D+01 -.683351926726728D+02
0.334973749862D-04 0.000000000000D+00 0.000000000000D+00 0.413690695096D-04 0.000000000000D+00  6 -4 2 25 1 -3 21 0 0.36313452D-01 0.41275999D+00 0.26590395D+06 0.26590395D+06 0.26590395D+06 0.10884498D+01  1  2  2  3  6  4        1 0.469299540678D-04 0.100000000000D+01
0.186791548951D-04 0.000000000000D+00 -.128638740009D-06 0.413690695096D-04 0.000000000000D+00  6 -4 2 25 1 -3 21 2 0.36313452D-01 0.41275999D+00 0.26590395D+06 0.26590395D+06 0.26590395D+06 0.10884498D+01  1  2  3  3  6  4        1 0.310036901003D-04 0.100000000000D+01
-.194906043026D-04 0.000000000000D+00 0.000000000000D+00 0.413690695096D-04 0.000000000000D+00  6 -4 2 25 1 -3 21 2 0.36313452D-01 0.41275999D+00 0.26590395D+06 0.26590395D+06 0.26590395D+06 0.10884498D+01  1  2 15  3  6  4        1 -.323505350781D-04 0.100000000000D+01
0.386824195369D-02 0.000000000000D+00 0.000000000000D+00 0.413690695096D-04 0.000000000000D+00  6 -4 2 25 1 -3 21 2 0.36313452D-01 0.41275999D+00 0.26626665D+06 0.26626665D+06 0.26626665D+06 0.10884055D+01  1  2 12  3  6  4        1 0.641959569170D-02 0.100000000000D+01
-.152103229726D-02 0.000000000000D+00 0.000000000000D+00 0.413690695096D-04 0.000000000000D+00  6 -4 2 25 1 -3 21 2 0.36313452D-01 0.41275999D+00 0.26590395D+06 0.26590395D+06 0.26590395D+06 0.10884498D+01  1  2  4  3  6  4        1 -.252461175259D-02 0.100000000000D+01
-.843296282291D-02 0.000000000000D+00 0.000000000000D+00 0.413690695096D-04 0.000000000000D+00  6 -4 2 25 1 -3 21 2 0.36313452D-01 0.41275999D+00 0.26590395D+06 0.26590395D+06 0.26590395D+06 0.10884498D+01  1  2  5  3  6  4        1 -.139970446981D-01 0.100000000000D+01
0.100999723001D-01 0.000000000000D+00 -.000000000000D+00 0.413690695096D-04 0.000000000000D+00  6 -4 2 25 1 -3 21 2 0.36313452D-01 0.41275999D+00 0.26590395D+06 0.26590395D+06 0.26590395D+06 0.10884498D+01  1  2  6  3  6  4        1 0.167639495990D-01 0.100000000000D+01
0.251968727272D-03 0.000000000000D+00 0.000000000000D+00 0.413690695096D-04 0.835002941891D-06  6 -4 2 25 1 -3 21 2 0.36313452D-01 0.41275999D+00 0.26626665D+06 0.26626665D+06 0.26626665D+06 0.10884055D+01  1  2 11  3  6  4        1 0.418158268124D-03 0.100000000000D+01
  </mgrwgt>
  </event>
  <event>
  5     66 0.20411069E-05 0.15194928E+03 0.75467711E-02 0.87769347E-01
       -4 -1    0    0    0  501 0.00000000E+00 0.00000000E+00 0.60852472E+03 0.60852669E+03 0.15500000E+01 0.0000E+00 0.9000E+01
        2 -1    0    0  502    0 0.00000000E+00 0.00000000E+00 -.22392176E+04 0.22392176E+04 0.32000000E+00 0.0000E+00 0.9000E+01
       25  1    1    2    0    0 -.45688599E+03 0.70537617E+03 -.89731660E+03 0.12357599E+04 0.12500000E+03 0.0000E+00 0.9000E+01
        1  1    1    2  502    0 0.38845675E+03 -.56965295E+03 -.10526576E+04 0.12583685E+04 0.32000000E+00 0.0000E+00 0.9000E+01
       -3  1    1    2    0  501 0.68429241E+02 -.13572322E+03 0.31928138E+03 0.35361590E+03 0.50000000E+00 0.0000E+00 0.9000E+01
#aMCatNLO 1  0  0  1  2 0.15652234D+04 0.00000000D+00  -5  6  0 0.00000000D+00 0.00000000D+00 0.00000000D+00 0.00000000D+00 0.00000000D+00
  <mgrwgt>
 0.7097025539D-04    7    4    0
 0.116731404550840D+04 0.000000000000000D+00 0.000000000000000D+00 0.116731404550840D+04
 0.116731404550840D+04 0.000000000000000D+00 0.000000000000000D+00 -.116731404550840D+04
 0.880672482939597D+03 -.456957982356902D+03 0.705477431972223D+03 -.231192598378888D+03
 0.799817727107411D+03 0.388550619540108D+03 -.569797605071749D+03 -.405052468088719D+03
 0.654137880969800D+03 0.684073628167940D+02 -.135679826900474D+03 0.636245066467606D+03
 0.000000000000000D+00 0.000000000000000D+00 0.000000000000000D+00 0.000000000000000D+00
 0.198622653513659D+04 0.000000000000000D+00 0.000000000000000D+00 0.198622653513659D+04
 0.118388479459149D+04 0.000000000000000D+00 0.000000000000000D+00 -.118388479459149D+04
 0.869625537422298D+03 -.510492416744328D+03 0.653124069559815D+03 -.231192598378888D+03
 0.813087844618626D+03 0.339218456389498D+03 -.618041406385143D+03 -.405052468088719D+03
 0.660475918331138D+03 0.281987209942261D+02 -.175001389209575D+03 0.636245066467606D+03
 0.826922029356015D+03 0.143075239360603D+03 0.139918726034903D+03 0.802341740545103D+03
 0.116731404550840D+04 0.000000000000000D+00 0.000000000000000D+00 0.116731404550840D+04
 0.116731404550840D+04 0.000000000000000D+00 0.000000000000000D+00 -.116731404550840D+04
 0.880672482939597D+03 -.456957982356902D+03 0.705477431972223D+03 -.231192598378888D+03
 0.799817727107411D+03 0.388550619540108D+03 -.569797605071749D+03 -.405052468088719D+03
 0.000000000000000D+00 0.000000000000000D+00 0.000000000000000D+00 0.000000000000000D+00
 0.654137880969800D+03 0.684073628167940D+02 -.135679826900474D+03 0.636245066467606D+03
 0.198622653513659D+04 0.000000000000000D+00 0.000000000000000D+00 0.198622653513659D+04
 0.118388479459149D+04 0.000000000000000D+00 0.000000000000000D+00 -.118388479459149D+04
 0.869625537422298D+03 -.510492416744328D+03 0.653124069559815D+03 -.231192598378888D+03
 0.813087844618626D+03 0.339218456389498D+03 -.618041406385143D+03 -.405052468088719D+03
 0.826922029356015D+03 0.143075239360603D+03 0.139918726034903D+03 0.802341740545103D+03
 0.660475918331138D+03 0.281987209942261D+02 -.175001389209575D+03 0.636245066467606D+03
0.634673585502D-04 0.000000000000D+00 0.000000000000D+00 0.531065769896D-06 0.000000000000D+00  6 -4 2 25 1 -3 21 0 0.93619341D-01 0.34449516D+00 0.71520950D+06 0.71520950D+06 0.71520950D+06 0.10576935D+01  1  2  2  1  6  1       -4 0.161577038500D-04 0.100000000000D+01
0.120988690352D-04 0.000000000000D+00 -.243731368172D-06 0.531065769896D-06 0.000000000000D+00  6 -4 2 25 1 -3 21 2 0.93619341D-01 0.34449516D+00 0.71520950D+06 0.71520950D+06 0.71520950D+06 0.10576935D+01  1  2  3  1  6  1       -4 0.344582866960D-05 0.100000000000D+01
-.396422119639D-04 0.000000000000D+00 0.000000000000D+00 0.531065769896D-06 0.000000000000D+00  6 -4 2 25 1 -3 21 2 0.93619341D-01 0.34449516D+00 0.71520950D+06 0.71520950D+06 0.71520950D+06 0.10576935D+01  1  2 15  1  6  1       -4 -.112903338415D-04 0.100000000000D+01
-.996429892141D-04 0.000000000000D+00 0.000000000000D+00 0.531065769896D-06 0.000000000000D+00  6 -4 2 25 1 -3 21 2 0.93619341D-01 0.34449516D+00 0.71520950D+06 0.71520950D+06 0.71520950D+06 0.10576935D+01  1  2  4  1  6  1       -4 -.283789061573D-04 0.100000000000D+01
-.732135480926D-03 0.000000000000D+00 -.365891978864D-04 0.531065769896D-06 0.000000000000D+00  6 -4 2 25 1 -3 21 2 0.16007655D+00 0.34449516D+00 0.71520950D+06 0.71520950D+06 0.71520950D+06 0.10576935D+01  1  2  5  1  6  1       -4 -.409622128894D-04 0.100000000000D+01
0.659309879018D-03 0.000000000000D+00 0.318900782440D-04 0.531065769896D-06 0.000000000000D+00  6 -4 2 25 1 -3 21 2 0.93619341D-01 0.34449516D+00 0.71520950D+06 0.71520950D+06 0.71520950D+06 0.10576935D+01  1  2  6  1  6  1       -4 0.187775309962D-03 0.100000000000D+01
-.419079743984D-04 0.000000000000D+00 -.218338829237D-05 0.531065769896D-06 0.000000000000D+00  6 21 2 25 1 4 -3 2 0.16007655D+00 0.34449516D+00 0.71520950D+06 0.71520950D+06 0.71520950D+06 0.10576935D+01  3  4  5  5  5  1       -4 -.557771342030D-04 0.100000000000D+01
  </mgrwgt>
  </event>
  <event>
  5     66 -.20411069E-05 0.37137255E+02 0.75467711E-02 0.92248284E-01
       -4 -1    0    0    0  501 0.00000000E+00 0.00000000E+00 0.71685919E+03 0.71686086E+03 0.15500000E+01 0.0000E+00 0.9000E+01
        2 -1    0    0  502    0 0.00000000E+00 0.00000000E+00 -.10033842E+04 0.10033843E+04 0.32000000E+00 0.0000E+00 0.9000E+01
       25  1    1    2    0    0 -.29391072E+02 -.61188587E+03 -.16715202E+03 0.64717305E+03 0.12500000E+03 0.0000E+00 0.9000E+01
        1  1    1    2  502    0 0.16260157E+02 0.57712244E+03 -.45518728E+03 0.73520763E+03 0.32000000E+00 0.0000E+00 0.9000E+01
       -3  1    1    2    0  501 0.13130914E+02 0.34763438E+02 0.33581427E+03 0.33786446E+03 0.50000000E+00 0.0000E+00 0.9000E+01
#aMCatNLO 1  0  0  2  2 0.25182555D+02 0.00000000D+00  -5  6  0 0.00000000D+00 0.00000000D+00 0.00000000D+00 0.00000000D+00 0.00000000D+00
  <mgrwgt>
 -.1234156080D-03    1    2    0
 0.848107707556384D+03 0.000000000000000D+00 0.000000000000000D+00 0.848107707556384D+03
 0.848107707556384D+03 0.000000000000000D+00 0.000000000000000D+00 -.848107707556384D+03
 0.628239912612492D+03 -.293918643312634D+02 -.612041183595124D+03 -.600174615754742D+02
 0.668851097097648D+03 0.162692342017747D+02 0.577299677017137D+03 -.337375436306683D+03
 0.399124405402629D+03 0.131226301294887D+02 0.347415065779872D+02 0.397392897882157D+03
 0.000000000000000D+00 0.000000000000000D+00 0.000000000000000D+00 -.000000000000000D+00
 0.872851309581309D+03 0.000000000000000D+00 0.000000000000000D+00 0.872851309581309D+03
 0.169551988228864D+04 0.000000000000000D+00 0.000000000000000D+00 -.169551988228864D+04
 0.709194133505591D+03 -.773904354174215D+02 -.691187343497177D+03 -.600174615754742D+02
 0.605460826833739D+03 -.294639753305323D+02 0.501888933893538D+03 -.337375436306683D+03
 0.397888335781468D+03 -.154810029433611D+02 -.124238082581513D+02 0.397392897882157D+03
 0.855827895749151D+03 0.122335413691315D+03 0.201722217861790D+03 -.822668572707330D+03
-.129443205814D-03 0.000000000000D+00 0.000000000000D+00 0.101237282062D-04 0.000000000000D+00  6 -4 2 25 1 -3 21 2 0.11028616D+00 0.15436694D+00 0.38442025D+06 0.38442025D+06 0.38442025D+06 0.10766736D+01  1  2 14  2  6  2        2 -.123415607998D-03 0.100000000000D+01
  </mgrwgt>
  </event>
  <event>
  5     66 0.20411069E-05 0.29949764E+02 0.75467711E-02 0.93967808E-01
       -4 -1    0    0    0  501 0.00000000E+00 0.00000000E+00 0.42185562E+03 0.42185847E+03 0.15500000E+01 0.0000E+00 0.9000E+01
        2 -1    0    0  502    0 0.00000000E+00 0.00000000E+00 -.77805177E+03 0.77805184E+03 0.32000000E+00 0.0000E+00 0.9000E+01
       25  1    1    2    0    0 0.26547779E+03 -.41699480E+03 0.47583802E+02 0.51210579E+03 0.12500000E+03 0.0000E+00 0.9000E+01
        1  1    1    2  502    0 -.29340426E+03 0.42900792E+03 -.40249835E+03 0.65737271E+03 0.32000000E+00 0.0000E+00 0.9000E+01
       -3  1    1    2    0  501 0.27926473E+02 -.12013112E+02 -.12815978E+01 0.30431813E+02 0.50000000E+00 0.0000E+00 0.9000E+01
#aMCatNLO 1  0  0  2  2 0.25182555D+02 0.00000000D+00  -5  6  0 0.00000000D+00 0.00000000D+00 0.00000000D+00 0.00000000D+00 0.00000000D+00
  <mgrwgt>
 0.3334888019D-03    1    2    0
 0.572911219392692D+03 0.000000000000000D+00 0.000000000000000D+00 0.572911219392692D+03
 0.572911219392692D+03 0.000000000000000D+00 0.000000000000000D+00 -.572911219392692D+03
 0.551497210692569D+03 0.265889368113506D+03 -.417306795176522D+03 0.209002526361248D+03
 0.563326015301443D+03 -.293401602841942D+03 0.429141714935145D+03 -.217000201538394D+03
 0.309992127913713D+02 0.275122347284361D+02 -.118349197586224D+02 0.799767517714509D+01
 0.000000000000000D+00 -.000000000000000D+00 0.000000000000000D+00 0.000000000000000D+00
 0.119713080264494D+04 0.000000000000000D+00 0.000000000000000D+00 0.119713080264494D+04
 0.610575914340441D+03 0.000000000000000D+00 0.000000000000000D+00 -.610575914340441D+03
 0.657855643315677D+03 0.276510320862493D+03 -.544985351980602D+03 0.209002526361248D+03
 0.479259798457188D+03 -.284245255603836D+03 0.319069744125374D+03 -.217000201538394D+03
 0.347190043394752D+02 0.280893947165909D+02 -.187731818970822D+02 0.799767517714509D+01
 0.635872270873038D+03 -.203544599752484D+02 0.244688789752310D+03 0.586554888304496D+03
0.596692477443D-04 0.000000000000D+00 0.000000000000D+00 0.286415123468D-07 0.000000000000D+00  6 -4 2 25 1 -3 21 2 0.64901089D-01 0.11970050D+00 0.28098615D+06 0.28098615D+06 0.28098615D+06 0.10866620D+01  1  2 14  2  6  2        2 0.333488801898D-03 0.100000000000D+01
  </mgrwgt>
  </event>
  <event>
  5     66 0.20411069E-05 0.62348831E+02 0.75467711E-02 0.91094474E-01
       -4 -1    0    0    0  501 0.00000000E+00 0.00000000E+00 0.63100525E+03 0.63100716E+03 0.15500000E+01 0.0000E+00 0.9000E+01
        2 -1    0    0  502    0 -.00000000E+00 -.00000000E+00 -.28499463E+04 0.28499463E+04 0.32000000E+00 0.0000E+00 0.9000E+01
       25  1    1    2    0    0 -.55899214E+03 -.73809024E+02 -.15658368E+04 0.16689487E+04 0.12500000E+03 0.0000E+00 0.9000E+01
        1  1    1    2  502    0 0.54949815E+02 -.29451161E+02 -.11173015E+04 0.11190396E+04 0.32000000E+00 0.0000E+00 0.9000E+01
       -3  1    1    2    0  501 0.50404232E+03 0.10326019E+03 0.46419727E+03 0.69296514E+03 0.50000000E+00 0.0000E+00 0.9000E+01
#aMCatNLO 1  0  0  4  2 0.22896593D+02 0.00000000D+00  -5  6  0 0.00000000D+00 0.00000000D+00 0.00000000D+00 0.00000000D+00 0.00000000D+00
  <mgrwgt>
 0.3826684897D-02    6    2    0
 0.134101991217005D+04 0.000000000000000D+00 0.000000000000000D+00 0.134101991217005D+04
 0.134101991217005D+04 -.000000000000000D+00 -.000000000000000D+00 -.134101991217005D+04
 0.870587242979068D+03 -.558993662662223D+03 -.738069313579134D+02 -.651441301749356D+03
 0.528030463527221D+03 0.549537193417338D+02 -.294527662715456D+02 -.524336527148582D+03
 0.128342211783380D+04 0.504039943320489D+03 0.103259697629459D+03 0.117577782889794D+04
 0.000000000000000D+00 0.000000000000000D+00 0.000000000000000D+00 0.000000000000000D+00
 0.134101991217005D+04 0.000000000000000D+00 0.000000000000000D+00 0.134101991217005D+04
 0.134101991217005D+04 -.000000000000000D+00 -.000000000000000D+00 -.134101991217005D+04
 0.889214298814443D+03 -.556180468752634D+03 -.753146790351979D+02 -.678283166911864D+03
 0.282632482091328D+03 -.742263514191227D+02 -.115601474877354D+03 -.246997707872543D+03
 0.124958654990421D+04 0.508089175229760D+03 0.101089488179914D+03 0.113714240581177D+04
 0.260606493530106D+03 0.122317644941997D+03 0.898266657326379D+02 -.211861531027362D+03
0.313278086676D-01 0.000000000000D+00 0.000000000000D+00 0.100097316807D-03 0.000000000000D+00  6 -4 2 25 1 -3 21 0 0.97077879D-01 0.43845342D+00 0.33315517D+06 0.33315517D+06 0.33315517D+06 0.10811997D+01  1  2  2  3  6  4        1 0.330134056130D-02 0.100000000000D+01
0.791662384460D-02 0.000000000000D+00 -.120307034085D-03 0.100097316807D-03 0.000000000000D+00  6 -4 2 25 1 -3 21 2 0.97077879D-01 0.43845342D+00 0.33315517D+06 0.33315517D+06 0.33315517D+06 0.10811997D+01  1  2  3  3  6  4        1 0.975241434287D-03 0.100000000000D+01
-.201131092881D-01 0.000000000000D+00 0.000000000000D+00 0.100097316807D-03 0.000000000000D+00  6 -4 2 25 1 -3 21 2 0.97077879D-01 0.43845342D+00 0.33315517D+06 0.33315517D+06 0.33315517D+06 0.10811997D+01  1  2 15  3  6  4        1 -.247771498749D-02 0.100000000000D+01
-.124721884205D-02 0.000000000000D+00 0.000000000000D+00 0.100097316807D-03 0.000000000000D+00  6 -4 2 25 1 -3 21 2 0.97077879D-01 0.43845342D+00 0.33315517D+06 0.33315517D+06 0.33315517D+06 0.10811997D+01  1  2  4  3  6  4        1 -.153643714324D-03 0.100000000000D+01
-.227206038923D-01 0.000000000000D+00 0.000000000000D+00 0.100097316807D-03 0.000000000000D+00  6 -4 2 25 1 -3 21 2 0.97077879D-01 0.43845342D+00 0.33315517D+06 0.33315517D+06 0.33315517D+06 0.10811997D+01  1  2  5  3  6  4        1 -.279892979163D-02 0.100000000000D+01
0.404288454987D-01 0.000000000000D+00 -.000000000000D+00 0.100097316807D-03 0.000000000000D+00  6 -4 2 25 1 -3 21 2 0.97077879D-01 0.43845342D+00 0.33315517D+06 0.33315517D+06 0.33315517D+06 0.10811997D+01  1  2  6  3  6  4        1 0.498039139470D-02 0.100000000000D+01
  </mgrwgt>
  </event>
  <event>
  5     66 0.20411069E-05 0.49982199E+02 0.75467711E-02 0.88771051E-01
       -4 -1    0    0    0  501 0.00000000E+00 0.00000000E+00 0.16234377E+04 0.16234385E+04 0.15500000E+01 0.0000E+00 0.9000E+01
        2 -1    0    0  502    0 0.00000000E+00 0.00000000E+00 -.15646591E+04 0.15646591E+04 0.32000000E+00 0.0000E+00 0.9000E+01
       25  1    1    2    0    0 -.79340653E+03 -.25149600E+03 0.39322386E+03 0.92897479E+03 0.12500000E+03 0.0000E+00 0.9000E+01
        1  1    1    2  502    0 0.63973744E+01 -.49563682E+02 -.11116631E+04 0.11127859E+04 0.32000000E+00 0.0000E+00 0.9000E+01
       -3  1    1    2    0  501 0.78700916E+03 0.30105968E+03 0.77721791E+03 0.11463369E+04 0.50000000E+00 0.0000E+00 0.9000E+01
#aMCatNLO 1  0  0  4  1 0.81474412D+00 0.00000000D+00  -5  6  0 0.00000000D+00 0.00000000D+00 0.00000000D+00 0.00000000D+00 0.00000000D+00
  <mgrwgt>
 0.3048401129D-02    4    2    0
 0.159377785961510D+04 0.000000000000000D+00 0.000000000000000D+00 0.159377785961510D+04
 0.159377785961510D+04 -.000000000000000D+00 -.000000000000000D+00 -.159377785961510D+04
 0.921881907984878D+03 -.793313648665383D+03 -.251452758147175D+03 0.376385729712530D+03
 0.113360935012916D+04 0.639852778806355D+01 -.495709493163045D+02 -.113250692648049D+04
 0.113206446111617D+04 0.786915120877319D+03 0.301023707463482D+03 0.756121196767960D+03
 0.000000000000000D+00 0.000000000000000D+00 0.000000000000000D+00 0.000000000000000D+00
 0.159377785961510D+04 0.000000000000000D+00 0.000000000000000D+00 0.159377785961510D+04
 0.159377785961510D+04 -.000000000000000D+00 -.000000000000000D+00 -.159377785961510D+04
 0.921759708495377D+03 -.793311927212219D+03 -.251466094663071D+03 0.376081041244066D+03
 0.841927140927588D+00 -.812559807396719D+00 -.648680544109108D-01 0.210665624783211D+00
 0.113181171755860D+04 0.786917234713749D+03 0.301007331059101D+03 0.755747058454144D+03
 0.113314236603530D+04 0.720725230586677D+01 -.494763683416172D+02 -.113203876532299D+04
0.129289933627D+00 0.000000000000D+00 0.000000000000D+00 0.377558935066D-04 0.000000000000D+00  6 -4 2 25 1 -3 21 0 0.24975971D+00 0.24071684D+00 0.75173650D+06 0.75173650D+06 0.75173650D+06 0.10562149D+01  1  2  2  3  6  4        1 0.271313456393D-02 0.100000000000D+01
0.825718921738D-01 0.000000000000D+00 -.496507387949D-03 0.377558935066D-04 0.000000000000D+00  6 -4 2 25 1 -3 21 2 0.24975971D+00 0.24071684D+00 0.75173650D+06 0.75173650D+06 0.75173650D+06 0.10562149D+01  1  2  3  3  6  4        1 0.193305137791D-02 0.100000000000D+01
-.838330244979D-01 0.000000000000D+00 0.000000000000D+00 0.377558935066D-04 0.000000000000D+00  6 -4 2 25 1 -3 21 2 0.24975971D+00 0.24071684D+00 0.75173650D+06 0.75173650D+06 0.75173650D+06 0.10562149D+01  1  2 15  3  6  4        1 -.196257514820D-02 0.100000000000D+01
0.155841300236D-01 0.000000000000D+00 0.000000000000D+00 0.377558935066D-04 0.389182851282D-07  6 -4 2 25 1 -3 21 2 0.24975971D+00 0.24071684D+00 0.75245629D+06 0.75245629D+06 0.75245629D+06 0.10561865D+01  1  2 11  3  6  4        1 0.364790335210D-03 0.100000000000D+01
  </mgrwgt>
  </event>
  <event>
  6     66 0.20411069E-05 0.48946336E+02 0.75467711E-02 0.92604650E-01
       21 -1    0    0  503  501 0.00000000E+00 0.00000000E+00 0.38972790E+03 0.38972862E+03 0.75000000E+00 0.0000E+00 0.9000E+01
        2 -1    0    0  502    0 0.00000000E+00 0.00000000E+00 -.23795796E+04 0.23795796E+04 0.32000000E+00 0.0000E+00 0.9000E+01
       25  1    1    2    0    0 -.56061354E+03 0.33350801E+02 -.13080149E+04 0.14289604E+04 0.12500000E+03 0.0000E+00 0.9000E+01
        1  1    1    2  502    0 0.57712531E+01 -.33591181E+02 -.66142467E+03 0.66230233E+03 0.32000000E+00 0.0000E+00 0.9000E+01
        4  1    1    2  503    0 0.33546225E+02 -.56826923E+02 0.11841531E+03 0.13557004E+03 0.15500000E+01 0.0000E+00 0.9000E+01
       -3  1    1    2    0  501 0.52129606E+03 0.57067303E+02 -.13882734E+03 0.54247539E+03 0.50000000E+00 0.0000E+00 0.9000E+01
#aMCatNLO 2  0  0  1  2 0.65989760D+02 0.00000000D+00  -5  6  0 0.00000000D+00 0.00000000D+00 0.00000000D+00 0.00000000D+00 0.00000000D+00
  <mgrwgt>
 0.1952107482D-02    1    2    0
 0.788579797722010D+03 0.000000000000000D+00 0.000000000000000D+00 0.788579797722010D+03
 0.788579797722010D+03 0.000000000000000D+00 0.000000000000000D+00 -.788579797722010D+03
 0.624619345384359D+03 -.547193711370397D+03 0.106327026873651D+02 -.273843594956387D+03
 0.223203726940942D+03 0.105019215001927D+02 -.416057596083656D+02 -.219040119915374D+03
 0.000000000000000D+00 0.000000000000000D+00 -.000000000000000D+00 0.000000000000000D+00
 0.729336523118719D+03 0.536691789870204D+03 0.309730569210005D+02 0.492883714871761D+03
 0.117075928215578D+04 0.000000000000000D+00 0.000000000000000D+00 0.117075928215578D+04
 0.792123477762390D+03 0.000000000000000D+00 0.000000000000000D+00 -.792123477762390D+03
 0.637187787424310D+03 -.560607178319279D+03 0.333549630631858D+02 -.273843594956387D+03
 0.221676537620493D+03 0.577268311681009D+01 -.335944836022394D+02 -.219040119915374D+03
 0.384343233040149D+03 0.335462249160554D+02 -.568269232759386D+02 0.378635804393386D+03
 0.719675201833214D+03 0.521288270286413D+03 0.570664438149922D+02 0.492883714871761D+03
0.120674749100D-03 0.000000000000D+00 0.000000000000D+00 0.690616284161D-05 0.746523571749D-09  6 21 2 25 1 4 -3 2 0.59958077D-01 0.36608850D+00 0.35989247D+06 0.35989247D+06 0.35989247D+06 0.10787513D+01  1  2  1  5  5  1       -4 0.195210748171D-02 0.100000000000D+01
  </mgrwgt>
  </event>
  <event>
  6     66 0.20411069E-05 0.29553387E+03 0.75467711E-02 0.89263830E-01
       21 -1    0    0  503  501 0.00000000E+00 0.00000000E+00 0.22062787E+03 0.22062914E+03 0.75000000E+00 0.0000E+00 0.9000E+01
        2 -1    0    0  502    0 0.00000000E+00 0.00000000E+00 -.33981215E+04 0.33981215E+04 0.32000000E+00 0.0000E+00 0.9000E+01
       25  1    1    2    0    0 -.48385322E+03 0.86346837E+02 -.97003458E+03 0.10946058E+04 0.12500000E+03 0.0000E+00 0.9000E+01
        1  1    1    2  502    0 0.78139953E+03 -.21801180E+03 -.19171863E+04 0.20817583E+04 0.32000000E+00 0.0000E+00 0.9000E+01
        4  1    1    2  503    0 -.19911890E+03 0.50302279E+02 -.19328326E+03 0.28202744E+03 0.15500000E+01 0.0000E+00 0.9000E+01
       -3  1    1    2    0  501 -.98427400E+02 0.81362681E+02 -.96989567E+02 0.16035918E+03 0.50000000E+00 0.0000E+00 0.9000E+01
#aMCatNLO 2  0  0  1  4 0.20537443D+03 0.00000000D+00  -5  6  0 0.00000000D+00 0.00000000D+00 0.00000000D+00 0.00000000D+00 0.00000000D+00
  <mgrwgt>
 0.2832679054D-01    1    2    0
 0.739261734589644D+03 0.000000000000000D+00 0.000000000000000D+00 0.739261734589644D+03
 0.739261734589644D+03 0.000000000000000D+00 0.000000000000000D+00 -.739261734589644D+03
 0.580852452421462D+03 -.557102236936856D+03 0.104906573076663D+03 0.199067829969726D+02
 0.715880108824461D+03 0.678518698916926D+03 -.191962470393127D+03 -.123479210360171D+03
 0.000000000000000D+00 -.000000000000000D+00 0.000000000000000D+00 0.000000000000000D+00
 0.181790907933366D+03 -.121416461980070D+03 0.870558973164644D+02 0.103572427363198D+03
 0.934250840335911D+03 0.000000000000000D+00 0.000000000000000D+00 0.934250840335911D+03
 0.802480638577956D+03 0.000000000000000D+00 0.000000000000000D+00 -.802480638577956D+03
 0.507832942433382D+03 -.484143589329867D+03 0.864754434625871D+02 0.199067829969726D+02
 0.820663305625034D+03 0.781490714558422D+03 -.217975707057470D+03 -.123479210360171D+03
 0.244012381101591D+03 -.199118901038374D+03 0.503022793599451D+02 0.131770201757955D+03
 0.164222849753860D+03 -.982282241901814D+02 0.811979842349382D+02 0.103572427363198D+03
0.248414094388D-02 0.000000000000D+00 0.000000000000D+00 0.566566988611D-08 0.250878669344D-09  6 21 2 25 1 4 -3 2 0.33942748D-01 0.52278648D+00 0.68193026D+06 0.68193026D+06 0.68193026D+06 0.10591140D+01  1  2  1  5  5  1       -4 0.283267905416D-01 0.100000000000D+01
  </mgrwgt>
  </event>
  <event>
  5     66 0.20411069E-05 0.11851500E+03 0.75467711E-02 0.94708042E-01
       -4 -1    0    0    0  501 0.00000000E+00 0.00000000E+00 0.29531614E+03 0.29532021E+03 0.15500000E+01 0.0000E+00 0.9000E+01
        2 -1    0    0  502    0 0.00000000E+00 0.00000000E+00 -.14242616E+04 0.14242617E+04 0.32000000E+00 0.0000E+00 0.9000E+01
       25  1    1    2    0    0 -.24981086E+03 -.41167117E+03 -.29686147E+03 0.57933613E+03 0.12500000E+03 0.0000E+00 0.9000E+01
        1  1    1    2  502    0 0.18587327E+03 0.31174390E+03 -.92233944E+03 0.99118277E+03 0.32000000E+00 0.0000E+00 0.9000E+01
       -3  1    1    2    0  501 0.63937587E+02 0.99927276E+02 0.90255429E+02 0.14906297E+03 0.50000000E+00 0.0000E+00 0.9000E+01
#aMCatNLO 1  0  0  2  4 0.11513901D+02 0.00000000D+00  -5  6  0 0.00000000D+00 0.00000000D+00 0.00000000D+00 0.00000000D+00 0.00000000D+00
  <mgrwgt>
 0.2863157126D-02    9    2    0
 0.648545272556236D+03 0.000000000000000D+00 0.000000000000000D+00 0.648545272556236D+03
 0.648545272556236D+03 0.000000000000000D+00 0.000000000000000D+00 -.648545272556236D+03
 0.509774295159496D+03 -.249834997849644D+03 -.411716915764777D+03 0.110979669885836D+03
 0.511416838167767D+03 0.185960297332157D+03 0.311887924119465D+03 -.360127578735790D+03
 0.275899411785208D+03 0.638747005174873D+02 0.998289916453123D+02 0.249147908849955D+03
 0.000000000000000D+00 0.000000000000000D+00 -.000000000000000D+00 -.000000000000000D+00
 0.649122393050209D+03 0.000000000000000D+00 0.000000000000000D+00 0.649122393050209D+03
 0.708658399867843D+03 0.000000000000000D+00 0.000000000000000D+00 -.708658399867843D+03
 0.506459439749719D+03 -.250422070889298D+03 -.407244967304872D+03 0.110979669885836D+03
 0.513967112723427D+03 0.185367938259453D+03 0.316400138212031D+03 -.360127578735790D+03
 0.276715094434121D+03 0.635554579389564D+02 0.102260778256125D+03 0.249147908849955D+03
 0.606391460107843D+02 0.149867469088777D+01 -.114159491632847D+02 -.595360068176344D+02
0.169501576068D-04 0.000000000000D+00 0.000000000000D+00 0.138893506792D-05 0.000000000000D+00  6 -4 2 25 1 -3 21 0 0.45433568D-01 0.21911749D+00 0.23969895D+06 0.23969895D+06 0.23969895D+06 0.10918365D+01  1  2  2  2  6  2        2 0.741534569403D-04 0.100000000000D+01
0.180752250236D-05 0.000000000000D+00 -.650930682893D-07 0.138893506792D-05 0.000000000000D+00  6 -4 2 25 1 -3 21 2 0.45433568D-01 0.21911749D+00 0.23969895D+06 0.23969895D+06 0.23969895D+06 0.10918365D+01  1  2  3  2  6  2        2 0.942663304311D-05 0.100000000000D+01
-.949337986710D-05 0.000000000000D+00 0.000000000000D+00 0.138893506792D-05 0.000000000000D+00  6 -4 2 25 1 -3 21 2 0.45433568D-01 0.21911749D+00 0.23969895D+06 0.23969895D+06 0.23969895D+06 0.10918365D+01  1  2 15  2  6  2        2 -.495100936387D-04 0.100000000000D+01
0.184325950893D-02 0.000000000000D+00 0.000000000000D+00 0.138893506792D-05 0.000000000000D+00  6 -4 2 25 1 -3 21 2 0.45433568D-01 0.24028762D+00 0.24639707D+06 0.24639707D+06 0.24639707D+06 0.10909337D+01  1  2 12  2  6  2        2 0.805951056200D-02 0.100000000000D+01
-.131425893858D-02 0.000000000000D+00 0.000000000000D+00 0.138893506792D-05 0.000000000000D+00  6 -4 2 25 1 -3 21 2 0.45433568D-01 0.21911749D+00 0.23969895D+06 0.23969895D+06 0.23969895D+06 0.10918365D+01  1  2  4  2  6  2        2 -.685415352860D-02 0.100000000000D+01
-.205200671896D-02 0.000000000000D+00 -.389568059234D-04 0.138893506792D-05 0.000000000000D+00  6 -4 2 25 1 -3 21 2 0.45433568D-01 0.23950564D+00 0.23969895D+06 0.23969895D+06 0.23969895D+06 0.10918365D+01  1  2  5  2  6  2        2 -.905087269153D-02 0.100000000000D+01
0.204751746235D-02 0.000000000000D+00 0.388031321450D-04 0.138893506792D-05 0.000000000000D+00  6 -4 2 25 1 -3 21 2 0.45433568D-01 0.21911749D+00 0.23969895D+06 0.23969895D+06 0.23969895D+06 0.10918365D+01  1  2  6  2  6  2        2 0.106782602937D-01 0.100000000000D+01
0.286917978569D-04 0.000000000000D+00 0.000000000000D+00 0.138893506792D-05 0.000000000000D+00  6 -4 21 25 1 -3 -2 2 0.45433568D-01 0.24028762D+00 0.24639707D+06 0.24639707D+06 0.24639707D+06 0.10909337D+01  1  2 12  6  6  2        2 0.411309665593D-04 0.100000000000D+01
-.307433712589D-04 0.000000000000D+00 -.571525072863D-06 0.138893506792D-05 0.000000000000D+00  6 -4 21 25 1 -3 -2 2 0.45433568D-01 0.23950564D+00 0.23969895D+06 0.23969895D+06 0.23969895D+06 0.10918365D+01  1  2  5  6  6  2        2 -.447884722790D-04 0.100000000000D+01
  </mgrwgt>
  </event>
  <event>
  5     66 -.20411069E-05 0.32357015E+02 0.75467711E-02 0.92635986E-01
       -4 -1    0    0    0  501 0.00000000E+00 0.00000000E+00 0.16480035E+04 0.16480042E+04 0.15500000E+01 0.0000E+00 0.9000E+01
        2 -1    0    0  502    0 0.00000000E+00 0.00000000E+00 -.91243061E+03 0.91243066E+03 0.32000000E+00 0.0000E+00 0.9000E+01
       25  1    1    2    0    0 0.17818730E+03 0.56242518E+03 -.80055054E+02 0.60836388E+03 0.12500000E+03 0.0000E+00 0.9000E+01
        1  1    1    2  502    0 -.17856832E+02 -.26977536E+02 -.51125069E+03 0.51227339E+03 0.32000000E+00 0.0000E+00 0.9000E+01
       -3  1    1    2    0  501 -.16033047E+03 -.53544764E+03 0.13268787E+04 0.14397976E+04 0.50000000E+00 0.0000E+00 0.9000E+01
#aMCatNLO 1  0  0  5  1 0.65426362D+01 0.00000000D+00  -5  6  0 0.00000000D+00 0.00000000D+00 0.00000000D+00 0.00000000D+00 0.00000000D+00
  <mgrwgt>
 -.1344060259D-02    6    2    0
 0.122625032283670D+04 0.000000000000000D+00 0.000000000000000D+00 0.122625032283670D+04
 0.122625032283670D+04 -.000000000000000D+00 -.000000000000000D+00 -.122625032283670D+04
 0.659088425402098D+03 0.178185140058601D+03 0.562413208706916D+03 -.265921024052827D+03
 0.688250424071114D+03 -.178595151386200D+02 -.269817374146562D+02 -.687489396135801D+03
 0.110516179620019D+04 -.160325624919981D+03 -.535431471292260D+03 0.953410420188628D+03
 0.000000000000000D+00 -.000000000000000D+00 0.000000000000000D+00 0.000000000000000D+00
 0.122625032283670D+04 0.000000000000000D+00 0.000000000000000D+00 0.122625032283670D+04
 0.122625032283670D+04 -.000000000000000D+00 -.000000000000000D+00 -.122625032283670D+04
 0.657912706421397D+03 0.177972019544844D+03 0.561701460785767D+03 -.264653657599875D+03
 0.686963919841726D+03 -.180820558642269D+02 -.277249455461923D+02 -.686166010389974D+03
 0.895510836526671D+03 -.956522029927484D+02 -.413235142909346D+03 0.788686903063583D+03
 0.212113182883608D+03 -.642377606878687D+02 -.120741372330229D+03 0.162132764926266D+03
0.150542008093D-02 0.000000000000D+00 0.000000000000D+00 0.214832636605D-03 0.000000000000D+00  6 -4 2 25 1 -3 21 0 0.25353906D+00 0.14037400D+00 0.35661110D+06 0.35661110D+06 0.35661110D+06 0.10790409D+01  1  2  2  4  6  5       -3 0.744625706593D-04 0.100000000000D+01
0.889951625180D-03 0.000000000000D+00 -.578120949700D-05 0.214832636605D-03 0.000000000000D+00  6 -4 2 25 1 -3 21 2 0.25353906D+00 0.14037400D+00 0.35661110D+06 0.35661110D+06 0.35661110D+06 0.10790409D+01  1  2  3  4  6  5       -3 0.512533834621D-04 0.100000000000D+01
-.102835490477D-02 0.000000000000D+00 0.000000000000D+00 0.214832636605D-03 0.000000000000D+00  6 -4 2 25 1 -3 21 2 0.25353906D+00 0.14037400D+00 0.35661110D+06 0.35661110D+06 0.35661110D+06 0.10790409D+01  1  2 15  4  6  5       -3 -.592241946395D-04 0.100000000000D+01
-.375326412990D-01 0.000000000000D+00 0.000000000000D+00 0.214832636605D-03 0.000000000000D+00  6 -4 2 25 1 -3 21 2 0.25353906D+00 0.14037400D+00 0.35661110D+06 0.35661110D+06 0.35661110D+06 0.10790409D+01  1  2  4  4  6  5       -3 -.216154991172D-02 0.100000000000D+01
-.621144253763D-01 0.000000000000D+00 0.000000000000D+00 0.214832636605D-03 0.000000000000D+00  6 -4 2 25 1 -3 21 2 0.25353906D+00 0.14037400D+00 0.35661110D+06 0.35661110D+06 0.35661110D+06 0.10790409D+01  1  2  5  4  6  5       -3 -.357724439426D-02 0.100000000000D+01
0.751545751354D-01 0.000000000000D+00 -.000000000000D+00 0.214832636605D-03 0.000000000000D+00  6 -4 2 25 1 -3 21 2 0.25353906D+00 0.14037400D+00 0.35661110D+06 0.35661110D+06 0.35661110D+06 0.10790409D+01  1  2  6  4  6  5       -3 0.432824228796D-02 0.100000000000D+01
  </mgrwgt>
  </event>
  <event>
  5     66 0.20411069E-05 0.11425478E+02 0.75467711E-02 0.92049582E-01
       -4 -1    0    0    0  501 0.00000000E+00 0.00000000E+00 0.64249942E+03 0.64250129E+03 0.15500000E+01 0.0000E+00 0.9000E+01
        2 -1    0    0  502    0 0.00000000E+00 0.00000000E+00 -.21754436E+04 0.21754436E+04 0.32000000E+00 0.0000E+00 0.9000E+01
       25  1    1    2    0    0 -.46681680E+03 -.26355693E+03 -.11204556E+04 0.12483693E+04 0.12500000E+03 0.0000E+00 0.9000E+01
        1  1    1    2  502    0 0.94071624E+01 0.64828656E+01 -.87201968E+03 0.87209458E+03 0.32000000E+00 0.0000E+00 0.9000E+01
       -3  1    1    2    0  501 0.45740964E+03 0.25707407E+03 0.45953112E+03 0.69748101E+03 0.50000000E+00 0.0000E+00 0.9000E+01
#aMCatNLO 1  0  0  2  4 0.85983154D+02 0.00000000D+00  -5  6  0 0.00000000D+00 0.00000000D+00 0.00000000D+00 0.00000000D+00 0.00000000D+00
  <mgrwgt>
 0.1676463616D-01    7    2    0
 0.118225374427722D+04 0.000000000000000D+00 0.000000000000000D+00 0.118225374427722D+04
 0.118225374427722D+04 0.000000000000000D+00 0.000000000000000D+00 -.118225374427722D+04
 0.761335392940803D+03 -.466815553708875D+03 -.263556291356411D+03 -.525954276193528D+03
 0.474020706938256D+03 0.940787049008003D+01 0.648332656060376D+01 -.473882990890995D+03
 0.112915138867538D+04 0.457407683218795D+03 0.257072964795808D+03 0.999837267084522D+03
 0.000000000000000D+00 0.000000000000000D+00 0.000000000000000D+00 -.000000000000000D+00
 0.126669257685563D+04 0.000000000000000D+00 0.000000000000000D+00 0.126669257685563D+04
 0.127778426270709D+04 0.000000000000000D+00 0.000000000000000D+00 -.127778426270709D+04
 0.790115590855111D+03 -.480015808987047D+03 -.318770402309523D+03 -.525954276193528D+03
 0.474669395635224D+03 0.133610305131398D+01 -.272793131429404D+02 -.473882990890995D+03
 0.110606289025425D+04 0.438389744920095D+03 0.177524612646879D+03 0.999837267084522D+03
 0.173628962818136D+03 0.402899610156376D+02 0.168525102805584D+03 -.110916858514546D+02
0.211478009486D-01 0.000000000000D+00 0.000000000000D+00 0.314899999716D-03 0.000000000000D+00  6 -4 2 25 1 -3 21 0 0.98846210D-01 0.33468378D+00 0.29516482D+06 0.29516482D+06 0.29516482D+06 0.10850743D+01  1  2  2  2  6  2        2 0.527541435567D-02 0.100000000000D+01
0.185411633253D-01 0.000000000000D+00 -.812131239863D-04 0.314899999716D-03 0.000000000000D+00  6 -4 2 25 1 -3 21 2 0.98846210D-01 0.33468378D+00 0.29516482D+06 0.29516482D+06 0.29516482D+06 0.10850743D+01  1  2  3  2  6  2        2 0.544561990047D-02 0.100000000000D+01
-.125868242451D-01 0.000000000000D+00 0.000000000000D+00 0.314899999716D-03 0.000000000000D+00  6 -4 2 25 1 -3 21 2 0.98846210D-01 0.33468378D+00 0.29516482D+06 0.29516482D+06 0.29516482D+06 0.10850743D+01  1  2 15  2  6  2        2 -.369680474684D-02 0.100000000000D+01
-.670360416579D-03 0.000000000000D+00 0.000000000000D+00 0.314899999716D-03 0.000000000000D+00  6 -4 2 25 1 -3 21 2 0.98846210D-01 0.33468378D+00 0.29516482D+06 0.29516482D+06 0.29516482D+06 0.10850743D+01  1  2  4  2  6  2        2 -.196887755151D-03 0.100000000000D+01
-.110447360884D+00 0.000000000000D+00 -.341279696600D-01 0.314899999716D-03 0.000000000000D+00  6 -4 2 25 1 -3 21 2 0.98846210D-01 0.37332257D+00 0.29516482D+06 0.29516482D+06 0.29516482D+06 0.10850743D+01  1  2  5  2  6  2        2 -.234084614865D-01 0.100000000000D+01
0.113699463412D+00 0.000000000000D+00 0.339252846116D-01 0.314899999716D-03 0.000000000000D+00  6 -4 2 25 1 -3 21 2 0.98846210D-01 0.33468378D+00 0.29516482D+06 0.29516482D+06 0.29516482D+06 0.10850743D+01  1  2  6  2  6  2        2 0.333940244075D-01 0.100000000000D+01
-.180284482469D-02 0.000000000000D+00 -.598087476397D-03 0.314899999716D-03 0.000000000000D+00  6 -4 21 25 1 -3 -2 2 0.98846210D-01 0.37332257D+00 0.29516482D+06 0.29516482D+06 0.29516482D+06 0.10850743D+01  1  2  5  6  6  2        2 -.482685179713D-04 0.100000000000D+01
  </mgrwgt>
  </event>
  <event>
  5     66 0.20411069E-05 0.86713109E+02 0.75467711E-02 0.94630428E-01
       -4 -1    0    0    0  501 0.00000000E+00 0.00000000E+00 0.36451988E+03 0.36452318E+03 0.15500000E+01 0.0000E+00 0.9000E+01
        2 -1    0    0  502    0 0.00000000E+00 0.00000000E+00 -.41286721E+04 0.41286721E+04 0.32000000E+00 0.0000E+00 0.9000E+01
       25  1    1    2    0    0 0.34656252E+03 -.29611549E+03 -.81483059E+03 0.94199992E+03 0.12500000E+03 0.0000E+00 0.9000E+01
        1  1    1    2  502    0 -.81844406E+02 0.28600734E+02 -.31317576E+04 0.31329574E+04 0.32000000E+00 0.0000E+00 0.9000E+01
       -3  1    1    2    0  501 -.26471811E+03 0.26751476E+03 0.18243598E+03 0.41823792E+03 0.50000000E+00 0.0000E+00 0.9000E+01
#aMCatNLO 1  0  0  2  4 0.13417669D+03 0.00000000D+00  -5  6  0 0.00000000D+00 0.00000000D+00 0.00000000D+00 0.00000000D+00 0.00000000D+00
  <mgrwgt>
 0.1415031825D-01    7    2    0
 0.122678053853483D+04 0.000000000000000D+00 0.000000000000000D+00 0.122678053853483D+04
 0.122678053853483D+04 0.000000000000000D+00 0.000000000000000D+00 -.122678053853483D+04
 0.474981300993675D+03 0.346562008138349D+03 -.296105872847036D+03 -.468862759691399D+02
 0.932835575622317D+03 -.818587390176833D+02 0.286061200045145D+02 -.928796558935993D+03
 0.104574420045367D+04 -.264703269120665D+03 0.267499752842522D+03 0.975682834905133D+03
 0.000000000000000D+00 -.000000000000000D+00 0.000000000000000D+00 -.000000000000000D+00
 0.123865639102260D+04 0.000000000000000D+00 0.000000000000000D+00 0.123865639102260D+04
 0.167677965061499D+04 0.000000000000000D+00 0.000000000000000D+00 -.167677965061499D+04
 0.496766251542280D+03 0.372839426555262D+03 -.299906898558631D+03 -.468862759691399D+02
 0.929574996997028D+03 -.314965418059842D+02 0.213212336638202D+02 -.928796558935993D+03
 0.103088591689475D+04 -.208548274597323D+03 0.259376939001710D+03 0.975682834905133D+03
 0.458208876203537D+03 -.132794610151955D+03 0.192087258931006D+02 -.438123259592392D+03
0.311633397529D-01 0.000000000000D+00 0.000000000000D+00 0.333471817975D-03 0.000000000000D+00  6 -4 2 25 1 -3 21 0 0.56080236D-01 0.63518058D+00 0.21888558D+06 0.21888558D+06 0.21888558D+06 0.10948283D+01  1  2  2  2  6  2        2 0.164055413938D-02 0.100000000000D+01
0.846180948129D-02 0.000000000000D+00 -.119675430147D-03 0.333471817975D-03 0.000000000000D+00  6 -4 2 25 1 -3 21 2 0.56080236D-01 0.63518058D+00 0.21888558D+06 0.21888558D+06 0.21888558D+06 0.10948283D+01  1  2  3  2  6  2        2 0.533951572048D-03 0.100000000000D+01
-.207886268502D-01 0.000000000000D+00 0.000000000000D+00 0.333471817975D-03 0.000000000000D+00  6 -4 2 25 1 -3 21 2 0.56080236D-01 0.63518058D+00 0.21888558D+06 0.21888558D+06 0.21888558D+06 0.10948283D+01  1  2 15  2  6  2        2 -.131179034601D-02 0.100000000000D+01
-.622169042708D-02 0.000000000000D+00 0.000000000000D+00 0.333471817975D-03 0.000000000000D+00  6 -4 2 25 1 -3 21 2 0.56080236D-01 0.63518058D+00 0.21888558D+06 0.21888558D+06 0.21888558D+06 0.10948283D+01  1  2  4  2  6  2        2 -.392597043420D-03 0.100000000000D+01
-.184215902897D+00 0.000000000000D+00 -.110777919043D-01 0.333471817975D-03 0.000000000000D+00  6 -4 2 25 1 -3 21 2 0.56080236D-01 0.86864360D+00 0.21888558D+06 0.21888558D+06 0.21888558D+06 0.10948283D+01  1  2  5  2  6  2        2 -.121490001638D-03 0.100000000000D+01
0.218722827088D+00 0.000000000000D+00 0.130077400749D-01 0.333471817975D-03 0.000000000000D+00  6 -4 2 25 1 -3 21 2 0.56080236D-01 0.63518058D+00 0.21888558D+06 0.21888558D+06 0.21888558D+06 0.10948283D+01  1  2  6  2  6  2        2 0.138017048983D-01 0.100000000000D+01
-.707750898554D-02 0.000000000000D+00 -.441550922797D-03 0.333471817975D-03 0.000000000000D+00  6 -4 21 25 1 -3 -2 2 0.56080236D-01 0.86864360D+00 0.21888558D+06 0.21888558D+06 0.21888558D+06 0.10948283D+01  1  2  5  6  6  2        2 -.149724195757D-07 0.100000000000D+01
  </mgrwgt>
  </event>
  <event>
  5     66 0.20411069E-05 0.70986309E+02 0.75467711E-02 0.91161435E-01
       -4 -1    0    0    0  501 0.00000000E+00 0.00000000E+00 0.21804798E+04 0.21804803E+04 0.15500000E+01 0.0000E+00 0.9000E+01
        2 -1    0    0  502    0 0.00000000E+00 0.00000000E+00 -.10377339E+04 0.10377340E+04 0.32000000E+00 0.0000E+00 0.9000E+01
       25  1    1    2    0    0 0.30098439E+03 0.57991571E+03 0.34179183E+03 0.74789069E+03 0.12500000E+03 0.0000E+00 0.9000E+01
        1  1    1    2  502    0 -.23202619E+03 -.59680356E+03 -.71092498E+03 0.95677849E+03 0.32000000E+00 0.0000E+00 0.9000E+01
       -3  1    1    2    0  501 -.68958207E+02 0.16887855E+02 0.15118790E+04 0.15135451E+04 0.50000000E+00 0.0000E+00 0.9000E+01
#aMCatNLO 1  0  0  4  2 0.28552813D+02 0.00000000D+00  -5  6  0 0.00000000D+00 0.00000000D+00 0.00000000D+00 0.00000000D+00 0.00000000D+00
  <mgrwgt>
 0.2338026977D-02    7    2    0
 0.150424692481951D+04 0.000000000000000D+00 0.000000000000000D+00 0.150424692481951D+04
 0.150424692481951D+04 -.000000000000000D+00 -.000000000000000D+00 -.150424692481951D+04
 0.670310647631749D+03 0.301015176021126D+03 0.580010983511642D+03 0.816608054045722D+02
 0.129354451334294D+04 -.232066395100683D+03 -.596896530012430D+03 -.112388483783870D+04
 0.104463868866432D+04 -.689487809204434D+02 0.168855465007880D+02 0.104222403243413D+04
 0.000000000000000D+00 0.000000000000000D+00 -.000000000000000D+00 0.000000000000000D+00
 0.150424692481951D+04 0.000000000000000D+00 0.000000000000000D+00 0.150424692481951D+04
 0.150424692481951D+04 -.000000000000000D+00 -.000000000000000D+00 -.150424692481951D+04
 0.668976532866169D+03 0.300605739173617D+03 0.578957873545284D+03 0.796779251828668D+02
 0.125185525353349D+04 -.221142088240790D+03 -.552765703781429D+03 -.110122106288017D+04
 0.104157422128034D+04 -.695865623085713D+02 0.152451129631579D+02 0.103913529211194D+04
 0.460878419590063D+02 -.987708862425591D+01 -.414372827270135D+02 -.175921544146383D+02
0.479047260694D-01 0.000000000000D+00 0.000000000000D+00 0.113843761625D-03 0.000000000000D+00  6 -4 2 25 1 -3 21 0 0.33545848D+00 0.15965142D+00 0.47384372D+06 0.47384372D+06 0.47384372D+06 0.10701635D+01  1  2  2  3  6  4        1 0.438129365917D-03 0.100000000000D+01
0.200616607931D-01 0.000000000000D+00 -.183966761710D-03 0.113843761625D-03 0.000000000000D+00  6 -4 2 25 1 -3 21 2 0.33545848D+00 0.15965142D+00 0.47384372D+06 0.47384372D+06 0.47384372D+06 0.10701635D+01  1  2  3  3  6  4        1 0.210131495325D-03 0.100000000000D+01
-.275148499648D-01 0.000000000000D+00 0.000000000000D+00 0.113843761625D-03 0.000000000000D+00  6 -4 2 25 1 -3 21 2 0.33545848D+00 0.15965142D+00 0.47384372D+06 0.47384372D+06 0.47384372D+06 0.10701635D+01  1  2 15  3  6  4        1 -.288198301546D-03 0.100000000000D+01
0.170938220581D+00 0.000000000000D+00 0.000000000000D+00 0.113843761625D-03 0.000000000000D+00  6 -4 2 25 1 -3 21 2 0.33545848D+00 0.15965142D+00 0.47156370D+06 0.47156370D+06 0.47156370D+06 0.10703123D+01  1  2 12  3  6  4        1 0.179153671802D-02 0.100000000000D+01
-.469275273757D-01 0.000000000000D+00 0.000000000000D+00 0.113843761625D-03 0.000000000000D+00  6 -4 2 25 1 -3 21 2 0.33545848D+00 0.15965142D+00 0.47384372D+06 0.47384372D+06 0.47384372D+06 0.10701635D+01  1  2  4  3  6  4        1 -.491532161822D-03 0.100000000000D+01
-.178488837784D+01 0.000000000000D+00 0.000000000000D+00 0.113843761625D-03 0.000000000000D+00  6 -4 2 25 1 -3 21 2 0.33545848D+00 0.15965142D+00 0.47384372D+06 0.47384372D+06 0.47384372D+06 0.10701635D+01  1  2  5  3  6  4        1 -.186954244563D-01 0.100000000000D+01
0.184961451873D+01 0.000000000000D+00 -.000000000000D+00 0.113843761625D-03 0.000000000000D+00  6 -4 2 25 1 -3 21 2 0.33545848D+00 0.15965142D+00 0.47384372D+06 0.47384372D+06 0.47384372D+06 0.10701635D+01  1  2  6  3  6  4        1 0.193733843177D-01 0.100000000000D+01
  </mgrwgt>
  </event>
  <event>
  6     66 0.20411069E-05 0.49635759E+02 0.75467711E-02 0.93881330E-01
       -4 -1    0    0    0  501 0.00000000E+00 0.00000000E+00 0.47539549E+03 0.47539801E+03 0.15500000E+01 0.0000E+00 0.9000E+01
        2 -1    0    0  502    0 -.00000000E+00 -.00000000E+00 -.13049687E+04 0.13049688E+04 0.32000000E+00 0.0000E+00 0.9000E+01
       25  1    1    2    0    0 -.26741151E+03 0.44722526E+03 -.93404522E+02 0.54393819E+03 0.12500000E+03 0.0000E+00 0.9000E+01
        1  1    1    2  503    0 0.18204914E+03 -.34918508E+03 -.60607872E+03 0.72277495E+03 0.32000000E+00 0.0000E+00 0.9000E+01
       -3  1    1    2    0  501 0.91771682E+01 0.48969750E+01 0.17888578E+03 0.17918865E+03 0.50000000E+00 0.0000E+00 0.9000E+01
       21  1    1    2  502  503 0.76185198E+02 -.10293715E+03 -.30897577E+03 0.33446499E+03 0.75000000E+00 0.0000E+00 0.9000E+01
#aMCatNLO 2  0  0  4  2 0.44294941D+02 0.00000000D+00  -5  6  0 0.00000000D+00 0.00000000D+00 0.00000000D+00 0.00000000D+00 0.00000000D+00
  <mgrwgt>
 0.1102219918D-01    1    2    0
 0.787641114255089D+03 0.000000000000000D+00 0.000000000000000D+00 0.787641114255089D+03
 0.787641114255089D+03 -.000000000000000D+00 -.000000000000000D+00 -.787641114255089D+03
 0.567895311938680D+03 -.268347274207633D+03 0.448877155762909D+03 0.182699547841437D+03
 0.710103226364997D+03 0.259632467147267D+03 -.454564104947696D+03 -.479801051051476D+03
 0.297283690206501D+03 0.871480706036538D+01 0.568694918478669D+01 0.297101503210040D+03
 0.000000000000000D+00 0.000000000000000D+00 0.000000000000000D+00 -.000000000000000D+00
 0.787641114255089D+03 0.000000000000000D+00 0.000000000000000D+00 0.787641114255089D+03
 0.787641114255089D+03 -.000000000000000D+00 -.000000000000000D+00 -.787641114255089D+03
 0.565771028381778D+03 -.267480147965670D+03 0.447358992536309D+03 0.181097097705446D+03
 0.497578156332800D+03 0.182037629400282D+03 -.349178226388364D+03 -.304172466469518D+03
 0.296444476154521D+03 0.916894180471909D+01 0.489185080644827D+01 0.296262261762104D+03
 0.215488567641080D+03 0.762735767606687D+02 -.103072616954394D+03 -.173186892998031D+03
0.561692665951D-02 0.000000000000D+00 0.000000000000D+00 0.354237787923D-04 0.954354524092D-07  6 -4 2 25 1 -3 21 2 0.73137965D-01 0.20076462D+00 0.28537078D+06 0.28537078D+06 0.28537078D+06 0.10861619D+01  1  2  1  3  6  4        1 0.110221991849D-01 0.100000000000D+01
  </mgrwgt>
  </event>
  <event>
  6     66 -.20411069E-05 0.35857341E+02 0.75467711E-02 0.94596261E-01
       -4 -1    0    0    0  503 0.00000000E+00 0.00000000E+00 0.79300809E+03 0.79300960E+03 0.15500000E+01 0.0000E+00 0.9000E+01
        2 -1    0    0  502    0 0.00000000E+00 0.00000000E+00 -.84705053E+03 0.84705059E+03 0.32000000E+00 0.0000E+00 0.9000E+01
       25  1    1    2    0    0 -.39561807E+03 0.25231109E+03 -.15492276E+03 0.50970640E+03 0.12500000E+03 0.0000E+00 0.9000E+01
        1  1    1    2  502    0 0.29566168E+02 0.26949418E+02 -.41637564E+03 0.41829321E+03 0.32000000E+00 0.0000E+00 0.9000E+01
       -3  1    1    2    0  501 0.37272927E+03 -.28421276E+03 0.46894449E+03 0.66303332E+03 0.50000000E+00 0.0000E+00 0.9000E+01
       21  1    1    2  501  503 -.66773669E+01 0.49522456E+01 0.48311468E+02 0.49027262E+02 0.75000000E+00 0.0000E+00 0.9000E+01
#aMCatNLO 2  0  0  1  5 0.83133607D+01 0.00000000D+00  -5  6  0 0.00000000D+00 0.00000000D+00 0.00000000D+00 0.00000000D+00 0.00000000D+00
  <mgrwgt>
 -.4470647663D-02    5    2    0
 0.793857724485471D+03 0.000000000000000D+00 0.000000000000000D+00 0.793857724485471D+03
 0.793857724485471D+03 0.000000000000000D+00 0.000000000000000D+00 -.793857724485471D+03
 0.503183845902594D+03 -.397714979515044D+03 0.253855429556452D+03 -.122266915931427D+03
 0.392375172741435D+03 0.279228413769887D+02 0.281785703886470D+02 -.390364649122021D+03
 0.692156430326912D+03 0.369792138138055D+03 -.282033999945099D+03 0.512631565053448D+03
 0.000000000000000D+00 -.000000000000000D+00 0.000000000000000D+00 0.000000000000000D+00
 0.845773614534267D+03 0.000000000000000D+00 0.000000000000000D+00 0.845773614534267D+03
 0.794201483863592D+03 0.000000000000000D+00 0.000000000000000D+00 -.794201483863592D+03
 0.500726294854453D+03 -.395603949338934D+03 0.252289791499229D+03 -.122266915931427D+03
 0.392410093158696D+03 0.295730940348932D+02 0.269546663466831D+02 -.390364649122021D+03
 0.694600825402990D+03 0.372708222252493D+03 -.284196703405853D+03 0.512631565053448D+03
 0.522378849817193D+02 -.667736694845270D+01 0.495224555994040D+01 0.515721306706742D+02
-.170830574382D-01 0.000000000000D+00 0.000000000000D+00 0.376560390389D-04 0.000000000000D+00  6 -4 2 25 1 -3 21 2 0.12222508D+00 0.13025874D+00 0.25129980D+06 0.25129980D+06 0.25129980D+06 0.10902897D+01  1  2 13  1  6  1       -4 -.157812936016D-01 0.100000000000D+01
-.451747070469D-02 0.000000000000D+00 0.000000000000D+00 0.376560390389D-04 0.000000000000D+00  6 -4 2 25 1 -3 21 2 0.11451220D+00 0.13025874D+00 0.24643411D+06 0.24643411D+06 0.24643411D+06 0.10909288D+01  1  2  8  1  6  1       -4 -.506684702852D-02 0.100000000000D+01
-.653512592185D-02 0.000000000000D+00 0.000000000000D+00 0.376560390389D-04 0.000000000000D+00  6 -4 2 25 1 -3 21 2 0.12202376D+00 0.13025874D+00 0.24643411D+06 0.24643411D+06 0.24643411D+06 0.10909288D+01  1  2  9  1  6  1       -4 -.607729147294D-02 0.100000000000D+01
0.652195816220D-02 0.000000000000D+00 0.000000000000D+00 0.376560390389D-04 0.000000000000D+00  6 -4 2 25 1 -3 21 2 0.11451220D+00 0.13025874D+00 0.24643411D+06 0.24643411D+06 0.24643411D+06 0.10909288D+01  1  2 10  1  6  1       -4 0.731510318373D-02 0.100000000000D+01
0.163077649160D-01 0.000000000000D+00 0.000000000000D+00 0.376560390389D-04 0.234042802799D-05  6 -4 2 25 1 -3 21 2 0.12200095D+00 0.13031515D+00 0.25129980D+06 0.25129980D+06 0.25129980D+06 0.10902897D+01  1  2  1  1  6  1       -4 0.151396812560D-01 0.100000000000D+01
  </mgrwgt>
  </event>
  <event>
  5     66 0.20411069E-05 0.24362909E+02 0.75467711E-02 0.92442474E-01
       -4 -1    0    0    0  501 0.00000000E+00 0.00000000E+00 0.20252823E+03 0.20253416E+03 0.15500000E+01 0.0000E+00 0.9000E+01
        2 -1    0    0  502    0 0.00000000E+00 0.00000000E+00 -.21410474E+04 0.21410474E+04 0.32000000E+00 0.0000E+00 0.9000E+01
       25  1    1    2    0    0 -.94347272E+02 0.55695667E+03 -.63595590E+03 0.85974825E+03 0.12500000E+03 0.0000E+00 0.9000E+01
        1  1    1    2  502    0 -.19208698E+02 -.14974901E+02 -.54456948E+03 0.54511397E+03 0.32000000E+00 0.0000E+00 0.9000E+01
       -3  1    1    2    0  501 0.11355597E+03 -.54198177E+03 -.75799377E+03 0.93871935E+03 0.50000000E+00 0.0000E+00 0.9000E+01
#aMCatNLO 1  0  0  1  5 0.20968707D+01 0.00000000D+00  -5  6  0 0.00000000D+00 0.00000000D+00 0.00000000D+00 0.00000000D+00 0.00000000D+00
  <mgrwgt>
 0.3471084155D-03    4    2    0
 0.658505515163231D+03 0.000000000000000D+00 0.000000000000000D+00 0.658505515163231D+03
 0.658505515163231D+03 0.000000000000000D+00 0.000000000000000D+00 -.658505515163231D+03
 0.593802119635502D+03 -.943322655427380D+02 0.556913410038902D+03 0.133883660989796D+03
 0.168532417634190D+03 -.192136712189151D+02 -.149795254849317D+02 -.166762179309827D+03
 0.554676493056771D+03 0.113545936761653D+03 -.541933884553970D+03 0.328785183200304D+02
 0.000000000000000D+00 -.000000000000000D+00 0.000000000000000D+00 -.000000000000000D+00
 0.685079522722623D+03 0.000000000000000D+00 0.000000000000000D+00 0.685079522722623D+03
 0.691933363798835D+03 0.000000000000000D+00 0.000000000000000D+00 -.691933363798835D+03
 0.570169365302507D+03 -.838202579104849D+02 0.533401757414852D+03 0.133883660989796D+03
 0.168955760564594D+03 -.161657629574770D+02 -.217966210179515D+02 -.166762179309827D+03
 0.579176105750913D+03 0.123785936045786D+03 -.564837150462982D+03 0.328785183200304D+02
 0.587116549034438D+02 -.237999151778241D+02 0.532320140660814D+02 -.685384107621142D+01
0.136782191633D-03 0.000000000000D+00 0.000000000000D+00 0.115190611828D-05 0.000000000000D+00  6 -4 2 25 1 -3 21 0 0.31158647D-01 0.32939236D+00 0.33441707D+06 0.33441707D+06 0.33441707D+06 0.10810794D+01  1  2  2  1  6  1       -4 0.531854480797D-03 0.100000000000D+01
0.604819768039D-04 0.000000000000D+00 -.525279631448D-06 0.115190611828D-05 0.000000000000D+00  6 -4 2 25 1 -3 21 2 0.31158647D-01 0.32939236D+00 0.33441707D+06 0.33441707D+06 0.33441707D+06 0.10810794D+01  1  2  3  1  6  1       -4 0.274855489137D-03 0.100000000000D+01
-.906569047743D-04 0.000000000000D+00 0.000000000000D+00 0.115190611828D-05 0.000000000000D+00  6 -4 2 25 1 -3 21 2 0.31158647D-01 0.32939236D+00 0.33441707D+06 0.33441707D+06 0.33441707D+06 0.10810794D+01  1  2 15  1  6  1       -4 -.411983027377D-03 0.100000000000D+01
-.104784614607D-04 0.000000000000D+00 0.000000000000D+00 0.115190611828D-05 0.000000000000D+00  6 -4 2 25 1 -3 21 2 0.31158647D-01 0.32939236D+00 0.33441707D+06 0.33441707D+06 0.33441707D+06 0.10810794D+01  1  2  4  1  6  1       -4 -.476185270783D-04 0.100000000000D+01
  </mgrwgt>
  </event>
  <event>
  5     66 0.20411069E-05 0.48327086E+02 0.75467711E-02 0.93477765E-01
       -2 -1    0    0    0  501 0.00000000E+00 0.00000000E+00 0.47464770E+03 0.47464780E+03 0.32000000E+00 0.0000E+00 0.9000E+01
        4 -1    0    0  502    0 -.00000000E+00 -.00000000E+00 -.87250943E+03 0.87251081E+03 0.15500000E+01 0.0000E+00 0.9000E+01
       25  1    1    2    0    0 0.12361260E+03 -.44991542E+03 -.20449586E+03 0.52454505E+03 0.12500000E+03 0.0000E+00 0.9000E+01
        3  1    1    2  502    0 -.27890277E+02 0.39462008E+02 -.36452739E+03 0.36771672E+03 0.50000000E+00 0.0000E+00 0.9000E+01
       -1  1    1    2    0  501 -.95722320E+02 0.41045341E+03 0.17116152E+03 0.45489684E+03 0.32000000E+00 0.0000E+00 0.9000E+01
#aMCatNLO 1  0  0  4  2 0.70071751D+01 0.00000000D+00  -5  6  0 0.00000000D+00 0.00000000D+00 0.00000000D+00 0.00000000D+00 0.00000000D+00
  <mgrwgt>
 0.3415800313D-03    6    2    0
 0.643533675351134D+03 0.000000000000000D+00 0.000000000000000D+00 0.643533675351134D+03
 0.643533675351134D+03 -.000000000000000D+00 -.000000000000000D+00 -.643533675351134D+03
 0.485810465422189D+03 0.123612163934510D+03 -.449908019361379D+03 -.518615016700535D+02
 0.272225767177588D+03 -.278923752155320D+02 0.394654620102278D+02 -.267901774963477D+03
 0.529031118102490D+03 -.957197887189779D+02 0.410442557351151D+03 0.319763276633531D+03
 0.000000000000000D+00 0.000000000000000D+00 0.000000000000000D+00 0.000000000000000D+00
 0.643533675351134D+03 0.000000000000000D+00 0.000000000000000D+00 0.643533675351134D+03
 0.643533675351134D+03 -.000000000000000D+00 -.000000000000000D+00 -.643533675351134D+03
 0.485104052620076D+03 0.120253172089103D+03 -.445155316730526D+03 -.841240777511111D+02
 0.138197294298622D+03 0.467170854537621D+02 -.690048333858789D+02 -.110246718987700D+03
 0.513649618284095D+03 -.993270641544592D+02 0.415546561243230D+03 0.285115976628423D+03
 0.150116385499474D+03 -.676431933884054D+02 0.986135888731744D+02 -.907451798896115D+02
0.225210423755D-02 0.000000000000D+00 0.000000000000D+00 0.866080131508D-05 0.000000000000D+00  6 -2 4 25 3 -1 21 0 0.73022837D-01 0.13423233D+00 0.22696539D+06 0.22696539D+06 0.22696539D+06 0.10936314D+01  1  2  2  3  6  4        3 0.543182789040D-03 0.100000000000D+01
0.660155209463D-03 0.000000000000D+00 -.864867326487D-05 0.866080131508D-05 0.000000000000D+00  6 -2 4 25 3 -1 21 2 0.73022837D-01 0.13423233D+00 0.22696539D+06 0.22696539D+06 0.22696539D+06 0.10936314D+01  1  2  3  3  6  4        3 0.190434447100D-03 0.100000000000D+01
-.141392461383D-02 0.000000000000D+00 0.000000000000D+00 0.866080131508D-05 0.000000000000D+00  6 -2 4 25 3 -1 21 2 0.73022837D-01 0.13423233D+00 0.22696539D+06 0.22696539D+06 0.22696539D+06 0.10936314D+01  1  2 15  3  6  4        3 -.407873706389D-03 0.100000000000D+01
-.579779742004D-03 0.000000000000D+00 0.000000000000D+00 0.866080131508D-05 0.000000000000D+00  6 -2 4 25 3 -1 21 2 0.73022837D-01 0.13423233D+00 0.22696539D+06 0.22696539D+06 0.22696539D+06 0.10936314D+01  1  2  4  3  6  4        3 -.167248600065D-03 0.100000000000D+01
-.775412445244D-03 0.000000000000D+00 0.000000000000D+00 0.866080131508D-05 0.000000000000D+00  6 -2 4 25 3 -1 21 2 0.73022837D-01 0.13423233D+00 0.22696539D+06 0.22696539D+06 0.22696539D+06 0.10936314D+01  1  2  5  3  6  4        3 -.223682610041D-03 0.100000000000D+01
0.141009060072D-02 0.000000000000D+00 -.000000000000D+00 0.866080131508D-05 0.000000000000D+00  6 -2 4 25 3 -1 21 2 0.73022837D-01 0.13423233D+00 0.22696539D+06 0.22696539D+06 0.22696539D+06 0.10936314D+01  1  2  6  3  6  4        3 0.406767711684D-03 0.100000000000D+01
  </mgrwgt>
  </event>
  <event>
  5     66 0.20411069E-05 0.78227784E+02 0.75467711E-02 0.91873673E-01
       -4 -1    0    0    0  501 0.00000000E+00 0.00000000E+00 0.13974753E+04 0.13974762E+04 0.15500000E+01 0.0000E+00 0.9000E+01
        2 -1    0    0  502    0 -.00000000E+00 -.00000000E+00 -.15232758E+04 0.15232758E+04 0.32000000E+00 0.0000E+00 0.9000E+01
       25  1    1    2    0    0 -.47528525E+03 -.87206390E+02 -.42412283E+03 0.65498565E+03 0.12500000E+03 0.0000E+00 0.9000E+01
        1  1    1    2  502    0 -.49602057E+02 0.60484125E+02 -.92814417E+03 0.93143459E+03 0.32000000E+00 0.0000E+00 0.9000E+01
       -3  1    1    2    0  501 0.52488731E+03 0.26722265E+02 0.12264665E+04 0.13343317E+04 0.50000000E+00 0.0000E+00 0.9000E+01
#aMCatNLO 1  0  0  4  2 0.96267724D+02 0.00000000D+00  -5  6  0 0.00000000D+00 0.00000000D+00 0.00000000D+00 0.00000000D+00 0.00000000D+00
  <mgrwgt>
 0.9424527648D-02    6    2    0
 0.145902075667537D+04 0.000000000000000D+00 0.000000000000000D+00 0.145902075667537D+04
 0.145902075667537D+04 -.000000000000000D+00 -.000000000000000D+00 -.145902075667537D+04
 0.637265400698332D+03 -.475278233080586D+03 -.872109756358815D+02 -.396215897984470D+03
 0.892340721118887D+03 -.496052244385470D+02 0.604889066557516D+02 -.888905156047015D+03
 0.138843539153351D+04 0.524883457519133D+03 0.267220689801300D+02 0.128512105403149D+04
 0.000000000000000D+00 0.000000000000000D+00 0.000000000000000D+00 -.000000000000000D+00
 0.145902075667537D+04 0.000000000000000D+00 0.000000000000000D+00 0.145902075667537D+04
 0.145902075667537D+04 -.000000000000000D+00 -.000000000000000D+00 -.145902075667537D+04
 0.642313885937377D+03 -.475706708329899D+03 -.866884903603216D+02 -.403893997673839D+03
 0.588713310319625D+03 -.651603059802739D+02 0.151958821407726D+03 -.565018595152782D+03
 0.137278317706269D+04 0.523958845948015D+03 0.278495458467548D+02 0.126855239614897D+04
 0.314231140031034D+03 0.169081683621578D+02 -.931198768941590D+02 -.299639803322351D+03
0.952370788115D-01 0.000000000000D+00 0.000000000000D+00 0.197475930315D-03 0.000000000000D+00  6 -4 2 25 1 -3 21 0 0.21499627D+00 0.23435019D+00 0.30410283D+06 0.30410283D+06 0.30410283D+06 0.10841157D+01  1  2  2  3  6  4        1 0.422190701758D-02 0.100000000000D+01
0.266659119282D-01 0.000000000000D+00 -.365735459135D-03 0.197475930315D-03 0.000000000000D+00  6 -4 2 25 1 -3 21 2 0.21499627D+00 0.23435019D+00 0.30410283D+06 0.30410283D+06 0.30410283D+06 0.10841157D+01  1  2  3  3  6  4        1 0.138934561712D-02 0.100000000000D+01
-.648836824732D-01 0.000000000000D+00 0.000000000000D+00 0.197475930315D-03 0.000000000000D+00  6 -4 2 25 1 -3 21 2 0.21499627D+00 0.23435019D+00 0.30410283D+06 0.30410283D+06 0.30410283D+06 0.10841157D+01  1  2 15  3  6  4        1 -.338056542410D-02 0.100000000000D+01
-.995013183536D-02 0.000000000000D+00 0.000000000000D+00 0.197475930315D-03 0.000000000000D+00  6 -4 2 25 1 -3 21 2 0.21499627D+00 0.23435019D+00 0.30410283D+06 0.30410283D+06 0.30410283D+06 0.10841157D+01  1  2  4  3  6  4        1 -.518421124783D-03 0.100000000000D+01
-.362153114836D+00 0.000000000000D+00 0.000000000000D+00 0.197475930315D-03 0.000000000000D+00  6 -4 2 25 1 -3 21 2 0.21499627D+00 0.23435019D+00 0.30410283D+06 0.30410283D+06 0.30410283D+06 0.10841157D+01  1  2  5  3  6  4        1 -.188688781459D-01 0.100000000000D+01
0.510175669517D+00 0.000000000000D+00 -.000000000000D+00 0.197475930315D-03 0.000000000000D+00  6 -4 2 25 1 -3 21 2 0.21499627D+00 0.23435019D+00 0.30410283D+06 0.30410283D+06 0.30410283D+06 0.10841157D+01  1  2  6  3  6  4        1 0.265811397079D-01 0.100000000000D+01
  </mgrwgt>
  </event>
  <event>
  5     66 0.20411069E-05 0.22709255E+03 0.75467711E-02 0.93384441E-01
       -4 -1    0    0    0  501 0.00000000E+00 0.00000000E+00 0.24924513E+03 0.24924995E+03 0.15500000E+01 0.0000E+00 0.9000E+01
        2 -1    0    0  502    0 0.00000000E+00 0.00000000E+00 -.25693233E+04 0.25693233E+04 0.32000000E+00 0.0000E+00 0.9000E+01
       25  1    1    2    0    0 -.54250591E+03 0.99019379E+02 -.10723544E+04 0.12123062E+04 0.12500000E+03 0.0000E+00 0.9000E+01
        1  1    1    2  502    0 0.22138147E+03 -.50244931E+02 -.12609191E+04 0.12811913E+04 0.32000000E+00 0.0000E+00 0.9000E+01
       -3  1    1    2    0  501 0.32112444E+03 -.48774448E+02 0.13195242E+02 0.32507571E+03 0.50000000E+00 0.0000E+00 0.9000E+01
#aMCatNLO 1  0  0  1  2 0.11743697D+03 0.00000000D+00  -5  6  0 0.00000000D+00 0.00000000D+00 0.00000000D+00 0.00000000D+00 0.00000000D+00
  <mgrwgt>
 0.2968578308D-03    7    4    0
 0.800248809772487D+03 0.000000000000000D+00 0.000000000000000D+00 0.800248809772487D+03
 0.800248809772487D+03 0.000000000000000D+00 0.000000000000000D+00 -.800248809772487D+03
 0.580436515072329D+03 -.542525681183615D+03 0.990269552933060D+02 -.130924006243704D+03
 0.428564890870198D+03 0.221460620748107D+03 -.502615266942847D+02 -.363451287078210D+03
 0.591496213602447D+03 0.321065060435508D+03 -.487654285990213D+02 0.494375293321914D+03
 0.000000000000000D+00 -.000000000000000D+00 0.000000000000000D+00 0.000000000000000D+00
 0.123791342750918D+04 0.000000000000000D+00 0.000000000000000D+00 0.123791342750918D+04
 0.964294800370864D+03 0.000000000000000D+00 0.000000000000000D+00 -.964294800370864D+03
 0.447493600173896D+03 -.397289541950329D+03 0.982112348084005D+02 -.130924006243704D+03
 0.509961189875004D+03 0.354064873231293D+03 -.510063000386268D+02 -.363451287078210D+03
 0.708247495301534D+03 0.504705714089040D+03 -.497968484910496D+02 0.494375293321914D+03
 0.536505942529614D+03 -.461481045370004D+03 0.259191372127583D+01 0.273618627138320D+03
 0.800248809772487D+03 0.000000000000000D+00 0.000000000000000D+00 0.800248809772487D+03
 0.800248809772487D+03 0.000000000000000D+00 0.000000000000000D+00 -.800248809772487D+03
 0.580436515072329D+03 -.542525681183615D+03 0.990269552933060D+02 -.130924006243704D+03
 0.428564890870198D+03 0.221460620748107D+03 -.502615266942847D+02 -.363451287078210D+03
 0.000000000000000D+00 -.000000000000000D+00 0.000000000000000D+00 0.000000000000000D+00
 0.591496213602447D+03 0.321065060435508D+03 -.487654285990213D+02 0.494375293321914D+03
 0.123791342750918D+04 0.000000000000000D+00 0.000000000000000D+00 0.123791342750918D+04
 0.964294800370864D+03 0.000000000000000D+00 0.000000000000000D+00 -.964294800370864D+03
 0.447493600173896D+03 -.397289541950329D+03 0.982112348084005D+02 -.130924006243704D+03
 0.509961189875004D+03 0.354064873231293D+03 -.510063000386268D+02 -.363451287078210D+03
 0.536505942529614D+03 -.461481045370004D+03 0.259191372127583D+01 0.273618627138320D+03
 0.708247495301534D+03 0.504705714089040D+03 -.497968484910496D+02 0.494375293321914D+03
0.184437138992D-03 0.000000000000D+00 0.000000000000D+00 0.861778589626D-06 0.000000000000D+00  6 -4 2 25 1 -3 21 0 0.38345778D-01 0.39528088D+00 0.31209986D+06 0.31209986D+06 0.31209986D+06 0.10832837D+01  1  2  2  1  6  1       -4 0.267030472266D-03 0.100000000000D+01
0.130573738564D-04 0.000000000000D+00 -.708287177142D-06 0.861778589626D-06 0.000000000000D+00  6 -4 2 25 1 -3 21 2 0.38345778D-01 0.39528088D+00 0.31209986D+06 0.31209986D+06 0.31209986D+06 0.10832837D+01  1  2  3  1  6  1       -4 0.221846547488D-04 0.100000000000D+01
-.108665520072D-03 0.000000000000D+00 0.000000000000D+00 0.861778589626D-06 0.000000000000D+00  6 -4 2 25 1 -3 21 2 0.38345778D-01 0.39528088D+00 0.31209986D+06 0.31209986D+06 0.31209986D+06 0.10832837D+01  1  2 15  1  6  1       -4 -.184624188019D-03 0.100000000000D+01
-.110592566824D-04 0.000000000000D+00 0.000000000000D+00 0.861778589626D-06 0.000000000000D+00  6 -4 2 25 1 -3 21 2 0.38345778D-01 0.39528088D+00 0.31209986D+06 0.31209986D+06 0.31209986D+06 0.10832837D+01  1  2  4  1  6  1       -4 -.187898266509D-04 0.100000000000D+01
-.943781377579D-04 0.000000000000D+00 -.103722608518D-03 0.861778589626D-06 0.000000000000D+00  6 -4 2 25 1 -3 21 2 0.73967258D-01 0.39528088D+00 0.31209986D+06 0.31209986D+06 0.31209986D+06 0.10832837D+01  1  2  5  1  6  1       -4 -.353516105574D-04 0.100000000000D+01
0.148307548818D-03 0.000000000000D+00 0.847625071023D-04 0.861778589626D-06 0.000000000000D+00  6 -4 2 25 1 -3 21 2 0.38345778D-01 0.39528088D+00 0.31209986D+06 0.31209986D+06 0.31209986D+06 0.10832837D+01  1  2  6  1  6  1       -4 0.251976530914D-03 0.100000000000D+01
-.705298954415D-06 0.000000000000D+00 -.739193635600D-05 0.861778589626D-06 0.000000000000D+00  6 21 2 25 1 4 -3 2 0.73967258D-01 0.39528088D+00 0.31209986D+06 0.31209986D+06 0.31209986D+06 0.10832837D+01  3  4  5  5  5  1       -4 -.556820186324D-05 0.100000000000D+01
  </mgrwgt>
  </event>
  <event>
  5     66 0.20411069E-05 0.11536839E+03 0.75467711E-02 0.94772112E-01
       -4 -1    0    0    0  501 0.00000000E+00 0.00000000E+00 0.14453233E+04 0.14453241E+04 0.15500000E+01 0.0000E+00 0.9000E+01
        2 -1    0    0  502    0 0.00000000E+00 0.00000000E+00 -.14144541E+04 0.14144541E+04 0.32000000E+00 0.0000E+00 0.9000E+01
       25  1    1    2    0    0 -.13393966E+03 0.44358313E+03 -.24329260E+03 0.53807259E+03 0.12500000E+03 0.0000E+00 0.9000E+01
        1  1    1    2  502    0 0.12758405E+03 -.32838558E+03 -.99076037E+03 0.10515327E+04 0.32000000E+00 0.0000E+00 0.9000E+01
       -3  1    1    2    0  501 0.63556144E+01 -.11519754E+03 0.12649222E+04 0.12701729E+04 0.50000000E+00 0.0000E+00 0.9000E+01
#aMCatNLO 1  0  0  2  1 0.73478252D+02 0.00000000D+00  -5  6  0 0.00000000D+00 0.00000000D+00 0.00000000D+00 0.00000000D+00 0.00000000D+00
  <mgrwgt>
 0.2452697772D-01    7    2    0
 0.142980579296339D+04 0.000000000000000D+00 0.000000000000000D+00 0.142980579296339D+04
 0.142980579296339D+04 0.000000000000000D+00 0.000000000000000D+00 -.142980579296339D+04
 0.540740965248309D+03 -.133957646551853D+03 0.443628646921574D+03 -.249047714421342D+03
 0.106232585674623D+04 0.127602271624111D+03 -.328435445574257D+03 -.100218962491058D+04
 0.125654476393225D+04 0.635537492774164D+01 -.115193201347317D+03 0.125123733933192D+04
 0.000000000000000D+00 -.000000000000000D+00 -.000000000000000D+00 -.000000000000000D+00
 0.145125906178486D+04 0.000000000000000D+00 0.000000000000000D+00 0.145125906178486D+04
 0.149460934161534D+04 0.000000000000000D+00 0.000000000000000D+00 -.149460934161534D+04
 0.549496469694823D+03 -.127573985375405D+03 0.456093723267504D+03 -.249047714421342D+03
 0.105665955924114D+04 0.140009555120300D+03 -.304208323903672D+03 -.100218962491058D+04
 0.125439941989265D+04 0.210576924126898D+02 -.864846742425057D+02 0.125123733933192D+04
 0.853129545715823D+02 -.334932621575842D+02 -.654007251213264D+02 -.433502798304799D+02
0.206707282979D+00 0.000000000000D+00 0.000000000000D+00 0.356548795087D-03 0.000000000000D+00  6 -4 2 25 1 -3 21 0 0.22235749D+00 0.21760838D+00 0.22453182D+06 0.22453182D+06 0.22453182D+06 0.10939869D+01  1  2  2  2  6  2        2 0.934217959441D-02 0.100000000000D+01
0.468904035041D-01 0.000000000000D+00 -.793810393915D-03 0.356548795087D-03 0.000000000000D+00  6 -4 2 25 1 -3 21 2 0.22235749D+00 0.21760838D+00 0.22453182D+06 0.22453182D+06 0.22453182D+06 0.10939869D+01  1  2  3  2  6  2        2 0.253630033666D-02 0.100000000000D+01
-.115559375076D+00 0.000000000000D+00 0.000000000000D+00 0.356548795087D-03 0.000000000000D+00  6 -4 2 25 1 -3 21 2 0.22235749D+00 0.21760838D+00 0.22453182D+06 0.22453182D+06 0.22453182D+06 0.10939869D+01  1  2 15  2  6  2        2 -.625060268216D-02 0.100000000000D+01
-.403916803090D-01 0.000000000000D+00 0.000000000000D+00 0.356548795087D-03 0.000000000000D+00  6 -4 2 25 1 -3 21 2 0.22235749D+00 0.21760838D+00 0.22453182D+06 0.22453182D+06 0.22453182D+06 0.10939869D+01  1  2  4  2  6  2        2 -.218478461925D-02 0.100000000000D+01
-.399946827589D+01 0.000000000000D+00 -.799434895897D+00 0.356548795087D-03 0.000000000000D+00  6 -4 2 25 1 -3 21 2 0.22235749D+00 0.22919497D+00 0.22453182D+06 0.22453182D+06 0.22453182D+06 0.10939869D+01  1  2  5  2  6  2        2 -.196631260909D+00 0.100000000000D+01
0.403658156416D+01 0.000000000000D+00 0.798360413333D+00 0.356548795087D-03 0.000000000000D+00  6 -4 2 25 1 -3 21 2 0.22235749D+00 0.21760838D+00 0.22453182D+06 0.22453182D+06 0.22453182D+06 0.10939869D+01  1  2  6  2  6  2        2 0.218338560026D+00 0.100000000000D+01
-.352916271558D-01 0.000000000000D+00 -.720527836637D-02 0.356548795087D-03 0.000000000000D+00  6 -4 21 25 1 -3 -2 2 0.22235749D+00 0.22919497D+00 0.22453182D+06 0.22453182D+06 0.22453182D+06 0.10939869D+01  1  2  5  6  6  2        2 -.623414029376D-03 0.100000000000D+01
  </mgrwgt>
  </event>
  <event>
  6     66 0.20411069E-05 0.63256713E+02 0.75467711E-02 0.91588452E-01
       -4 -1    0    0    0  501 0.00000000E+00 0.00000000E+00 0.47524248E+03 0.47524501E+03 0.15500000E+01 0.0000E+00 0.9000E+01
        2 -1    0    0  502    0 -.00000000E+00 -.00000000E+00 -.16224776E+04 0.16224776E+04 0.32000000E+00 0.0000E+00 0.9000E+01
       25  1    1    2    0    0 -.45673042E+03 0.39207405E+03 0.16681096E+01 0.61477843E+03 0.12500000E+03 0.0000E+00 0.9000E+01
        1  1    1    2  503    0 0.41906292E+03 -.44718332E+03 -.11532255E+04 0.13059540E+04 0.32000000E+00 0.0000E+00 0.9000E+01
       -3  1    1    2    0  501 0.19586112E+02 0.66795347E+02 0.75459582E+02 0.10266271E+03 0.50000000E+00 0.0000E+00 0.9000E+01
       21  1    1    2  502  503 0.18081386E+02 -.11686081E+02 -.71137230E+02 0.74327444E+02 0.75000000E+00 0.0000E+00 0.9000E+01
#aMCatNLO 2  0  0  4  2 0.14325587D+02 0.00000000D+00  -5  6  0 0.00000000D+00 0.00000000D+00 0.00000000D+00 0.00000000D+00 0.00000000D+00
  <mgrwgt>
 0.1482763679D-02    5    2    0
 0.878107597621458D+03 0.000000000000000D+00 0.000000000000000D+00 0.878107597621458D+03
 0.878107597621458D+03 -.000000000000000D+00 -.000000000000000D+00 -.878107597621458D+03
 0.736817506579734D+03 -.457387585272559D+03 0.392915683369812D+03 0.404584849695275D+03
 0.847669509178457D+03 0.437978179509611D+03 -.459700622349147D+03 -.561599544939363D+03
 0.171728179484725D+03 0.194094057629474D+02 0.667849389793354D+02 0.157014695244087D+03
 0.000000000000000D+00 0.000000000000000D+00 0.000000000000000D+00 -.000000000000000D+00
 0.878107597621458D+03 0.000000000000000D+00 0.000000000000000D+00 0.878107597621458D+03
 0.878107597621458D+03 -.000000000000000D+00 -.000000000000000D+00 -.878107597621458D+03
 0.735743081774256D+03 -.456817440623700D+03 0.392317261205943D+03 0.403853779084162D+03
 0.806689975768721D+03 0.419222643241751D+03 -.447314274835126D+03 -.524319589494675D+03
 0.171533217959397D+03 0.195423093938473D+02 0.666454437151978D+02 0.156844278949107D+03
 0.422489197405431D+02 0.180524879881024D+02 -.116484300860153D+02 -.363784685385941D+02
-.154793327063D-02 0.000000000000D+00 0.000000000000D+00 0.664125663734D-06 0.000000000000D+00  6 -4 2 25 1 -3 21 2 0.73114425D-01 0.24961213D+00 0.43493226D+06 0.43493226D+06 0.43493226D+06 0.10728161D+01  1  2 13  3  6  4        1 -.194987280279D-02 0.100000000000D+01
-.365032200000D-02 0.000000000000D+00 0.000000000000D+00 0.664125663734D-06 0.000000000000D+00  6 -4 2 25 1 -3 21 2 0.73114425D-01 0.24961213D+00 0.43579143D+06 0.43579143D+06 0.43579143D+06 0.10727548D+01  1  2  8  3  6  4        1 -.459732370050D-02 0.100000000000D+01
-.416989888405D-03 0.000000000000D+00 0.000000000000D+00 0.664125663734D-06 0.000000000000D+00  6 -4 2 25 1 -3 21 2 0.73114425D-01 0.24961213D+00 0.43579143D+06 0.43579143D+06 0.43579143D+06 0.10727548D+01  1  2  9  3  6  4        1 -.525169422541D-03 0.100000000000D+01
0.438290448366D-03 0.000000000000D+00 0.000000000000D+00 0.664125663734D-06 0.000000000000D+00  6 -4 2 25 1 -3 21 2 0.73114425D-01 0.24961213D+00 0.43579143D+06 0.43579143D+06 0.43579143D+06 0.10727548D+01  1  2 10  3  6  4        1 0.551995978978D-03 0.100000000000D+01
0.635339740686D-02 0.000000000000D+00 0.000000000000D+00 0.664125663734D-06 0.423704844050D-07  6 -4 2 25 1 -3 21 2 0.73114425D-01 0.24961213D+00 0.43493226D+06 0.43493226D+06 0.43493226D+06 0.10728161D+01  1  2  1  3  6  4        1 0.800313362595D-02 0.100000000000D+01
  </mgrwgt>
  </event>
  <event>
  5     66 0.20411069E-05 0.32103410E+02 0.75467711E-02 0.93624625E-01
       -4 -1    0    0    0  501 0.00000000E+00 0.00000000E+00 0.25657552E+03 0.25658020E+03 0.15500000E+01 0.0000E+00 0.9000E+01
        2 -1    0    0  502    0 -.00000000E+00 -.00000000E+00 -.32794470E+04 0.32794471E+04 0.32000000E+00 0.0000E+00 0.9000E+01
       25  1    1    2    0    0 -.45573899E+03 0.28289054E+03 -.21057704E+04 0.21766073E+04 0.12500000E+03 0.0000E+00 0.9000E+01
        1  1    1    2  502    0 0.12596090E+02 -.29527958E+02 -.84299929E+03 0.84361038E+03 0.32000000E+00 0.0000E+00 0.9000E+01
       -3  1    1    2    0  501 0.44314290E+03 -.25336258E+03 -.74101793E+02 0.51580961E+03 0.50000000E+00 0.0000E+00 0.9000E+01
#aMCatNLO 1  0  0  5  1 0.65207606D+01 0.00000000D+00  -5  6  0 0.00000000D+00 0.00000000D+00 0.00000000D+00 0.00000000D+00 0.00000000D+00
  <mgrwgt>
 0.1439920470D-02    3    2    0
 0.917297189530784D+03 0.000000000000000D+00 0.000000000000000D+00 0.917297189530784D+03
 0.917297189530784D+03 -.000000000000000D+00 -.000000000000000D+00 -.917297189530784D+03
 0.725533345813880D+03 -.455738879007979D+03 0.282890959596912D+03 -.472280017602665D+03
 0.236980730529823D+03 0.125967399497338D+02 -.295288173934561D+02 -.234796162081988D+03
 0.872080302717866D+03 0.443142139058245D+03 -.253362142203456D+03 0.707076179684653D+03
 0.000000000000000D+00 0.000000000000000D+00 0.000000000000000D+00 0.000000000000000D+00
 0.917297189530784D+03 0.000000000000000D+00 0.000000000000000D+00 0.917297189530784D+03
 0.917297189530784D+03 -.000000000000000D+00 -.000000000000000D+00 -.917297189530784D+03
 0.580164197876207D+03 -.377978751585856D+03 0.238432374584997D+03 -.348206207004843D+03
 0.201897398469344D+03 0.387338950655423D+02 -.444724777398147D+02 -.193091800979281D+03
 0.540063629732375D+03 -.185859732114967D+02 -.457610482586450D+03 0.286209594504596D+03
 0.512469152983643D+03 0.357830829731811D+03 0.263650585741268D+03 0.255088413479528D+03
0.432304756352D-02 0.000000000000D+00 0.000000000000D+00 0.300234347375D-04 0.000000000000D+00  6 -4 2 25 1 -3 21 0 0.39473518D-01 0.50453068D+00 0.29884468D+06 0.29884468D+06 0.29884468D+06 0.10846759D+01  1  2  2  4  6  5       -3 0.212203664176D-02 0.100000000000D+01
0.149339219132D-02 0.000000000000D+00 -.166016409285D-04 0.300234347375D-04 0.000000000000D+00  6 -4 2 25 1 -3 21 2 0.39473518D-01 0.50453068D+00 0.29884468D+06 0.29884468D+06 0.29884468D+06 0.10846759D+01  1  2  3  4  6  5       -3 0.862455498389D-03 0.100000000000D+01
-.267451627942D-02 0.000000000000D+00 0.000000000000D+00 0.300234347375D-04 0.000000000000D+00  6 -4 2 25 1 -3 21 2 0.39473518D-01 0.50453068D+00 0.29884468D+06 0.29884468D+06 0.29884468D+06 0.10846759D+01  1  2 15  4  6  5       -3 -.154457166987D-02 0.100000000000D+01
  </mgrwgt>
  </event>
  <event>
  6     66 -.20411069E-05 0.10725154E+03 0.75467711E-02 0.92050587E-01
       -4 -1    0    0    0  501 0.00000000E+00 0.00000000E+00 0.46752524E+03 0.46752781E+03 0.15500000E+01 0.0000E+00 0.9000E+01
        2 -1    0    0  502    0 -.00000000E+00 -.00000000E+00 -.13164532E+04 0.13164532E+04 0.32000000E+00 0.0000E+00 0.9000E+01
       25  1    1    2    0    0 0.48234194E+02 0.61589742E+03 -.57202280E+03 0.85117052E+03 0.12500000E+03 0.0000E+00 0.9000E+01
        1  1    1    2  503    0 0.31288810E+02 -.32269269E+03 -.37954005E+03 0.49915961E+03 0.32000000E+00 0.0000E+00 0.9000E+01
       -3  1    1    2    0  501 -.15157886E+02 -.15682763E+03 0.19965212E+03 0.25433420E+03 0.50000000E+00 0.0000E+00 0.9000E+01
       21  1    1    2  502  503 -.64365118E+02 -.13637710E+03 -.97017232E+02 0.17931672E+03 0.75000000E+00 0.0000E+00 0.9000E+01
#aMCatNLO 2  0  0  4  2 0.66151641D+02 0.00000000D+00  -5  6  0 0.00000000D+00 0.00000000D+00 0.00000000D+00 0.00000000D+00 0.00000000D+00
  <mgrwgt>
 -.1630508363D-03    2    2    0
 0.784523688962278D+03 0.000000000000000D+00 0.000000000000000D+00 0.784523688962278D+03
 0.784523688962278D+03 -.000000000000000D+00 -.000000000000000D+00 -.784523688962278D+03
 0.665334260613746D+03 0.488469258272429D+02 0.624412043028466D+03 -.186462480688973D+03
 0.506926510113140D+03 -.340604661600534D+02 -.472712278887720D+03 -.179881829791742D+03
 0.396786607197669D+03 -.147864596671894D+02 -.151699764140745D+03 0.366344310480715D+03
 0.000000000000000D+00 -.000000000000000D+00 0.000000000000000D+00 0.000000000000000D+00
 0.784523688962278D+03 0.000000000000000D+00 0.000000000000000D+00 0.784523688962278D+03
 0.784523688962278D+03 -.000000000000000D+00 -.000000000000000D+00 -.784523688962278D+03
 0.658302987974841D+03 0.482396517158440D+02 0.615983916186046D+03 -.189669646962925D+03
 0.362099033251514D+03 0.313603067662201D+02 -.322602379224889D+03 -.161430932474699D+03
 0.396993750314300D+03 -.151506397035007D+02 -.156754080604917D+03 0.364420984740032D+03
 0.151651606383900D+03 -.644493187785633D+02 -.136627456356240D+03 -.133204053024083D+02
-.172784611665D-03 0.000000000000D+00 0.000000000000D+00 0.204118584504D-06 0.000000000000D+00  6 -4 2 25 1 -3 21 2 0.71927160D-01 0.20253146D+00 0.39883044D+06 0.39883044D+06 0.39883044D+06 0.10755193D+01  1  2 13  3  6  4        1 -.338317047450D-03 0.100000000000D+01
0.895116118419D-04 0.000000000000D+00 0.000000000000D+00 0.204118584504D-06 0.897466264118D-10  6 -4 2 25 1 -3 21 2 0.71927160D-01 0.20253146D+00 0.39883044D+06 0.39883044D+06 0.39883044D+06 0.10755193D+01  1  2  1  3  6  4        1 0.175266211145D-03 0.100000000000D+01
  </mgrwgt>
  </event>
  <event>
  5     66 0.20411069E-05 0.51456350E+02 0.75467711E-02 0.83194084E-01
       -4 -1    0    0    0  501 0.00000000E+00 0.00000000E+00 0.27692255E+03 0.27692688E+03 0.15500000E+01 0.0000E+00 0.9000E+01
        2 -1    0    0  502    0 0.00000000E+00 0.00000000E+00 -.18860003E+04 0.18860003E+04 0.32000000E+00 0.0000E+00 0.9000E+01
       25  1    1    2    0    0 0.46745558E+03 -.23041321E+03 -.44079582E+03 0.69392429E+03 0.12500000E+03 0.0000E+00 0.9000E+01
        1  1    1    2  502    0 -.48432885E+03 0.27909798E+03 -.12517599E+04 0.13709023E+04 0.32000000E+00 0.0000E+00 0.9000E+01
       -3  1    1    2    0  501 0.16873266E+02 -.48684765E+02 0.83477969E+02 0.98100636E+02 0.50000000E+00 0.0000E+00 0.9000E+01
#aMCatNLO 1  0  0  2  5 0.13279606D+04 0.00000000D+00  -5  6  0 0.00000000D+00 0.00000000D+00 0.00000000D+00 0.00000000D+00 0.00000000D+00
  <mgrwgt>
 0.6907572015D-02    3    2    0
 0.722689926005125D+03 0.000000000000000D+00 0.000000000000000D+00 0.722689926005125D+03
 0.722689926005125D+03 0.000000000000000D+00 0.000000000000000D+00 -.722689926005125D+03
 0.547947177478363D+03 0.467635292577882D+03 -.230548323745135D+03 0.113074368715513D+03
 0.658022298949143D+03 -.484485798932176D+03 0.279167418837148D+03 -.346889620495007D+03
 0.239410375582744D+03 0.168505063542941D+02 -.486190950920135D+02 0.233815251779494D+03
 0.000000000000000D+00 -.000000000000000D+00 0.000000000000000D+00 0.000000000000000D+00
 0.252248160583037D+04 0.000000000000000D+00 0.000000000000000D+00 0.252248160583037D+04
 0.136428759761066D+04 0.000000000000000D+00 0.000000000000000D+00 -.136428759761066D+04
 0.128920466396069D+04 0.110751255951306D+04 -.638007667068662D+03 0.113074368715513D+03
 0.372385207113305D+03 -.125596389827986D+03 0.506347759136490D+02 -.346889620495007D+03
 0.377981244018497D+03 0.231887093569469D+03 -.185549520885845D+03 0.233815251779494D+03
 0.184719808834854D+04 -.121380326325455D+04 0.772922412040859D+03 0.115819400821971D+04
0.459215612505D-02 0.000000000000D+00 0.000000000000D+00 0.283093930025D-05 0.000000000000D+00  6 -4 2 25 1 -3 21 0 0.42603804D-01 0.29015423D+00 0.32877065D+06 0.32877065D+06 0.32877065D+06 0.10816216D+01  1  2  2  2  6  2        2 0.128239265294D-01 0.100000000000D+01
0.127029367306D-02 0.000000000000D+00 -.176350886627D-04 0.283093930025D-05 0.000000000000D+00  6 -4 2 25 1 -3 21 2 0.42603804D-01 0.29015423D+00 0.32877065D+06 0.32877065D+06 0.32877065D+06 0.10816216D+01  1  2  3  2  6  2        2 0.415010610786D-02 0.100000000000D+01
-.308121308389D-02 0.000000000000D+00 0.000000000000D+00 0.283093930025D-05 0.000000000000D+00  6 -4 2 25 1 -3 21 2 0.42603804D-01 0.29015423D+00 0.32877065D+06 0.32877065D+06 0.32877065D+06 0.10816216D+01  1  2 15  2  6  2        2 -.100664606226D-01 0.100000000000D+01
  </mgrwgt>
  </event>
  <event>
  5     66 0.20411069E-05 0.29247079E+03 0.75467711E-02 0.90000512E-01
       -4 -1    0    0    0  501 0.00000000E+00 0.00000000E+00 0.76267635E+03 0.76267792E+03 0.15500000E+01 0.0000E+00 0.9000E+01
        2 -1    0    0  502    0 0.00000000E+00 0.00000000E+00 -.29120792E+04 0.29120793E+04 0.32000000E+00 0.0000E+00 0.9000E+01
       25  1    1    2    0    0 0.38704567E+03 0.65437610E+03 -.90430795E+03 0.11880279E+04 0.12500000E+03 0.0000E+00 0.9000E+01
        1  1    1    2  502    0 -.20271525E+03 -.42727392E+03 -.17991169E+04 0.18602361E+04 0.32000000E+00 0.0000E+00 0.9000E+01
       -3  1    1    2    0  501 -.18433042E+03 -.22710218E+03 0.55402199E+03 0.62649319E+03 0.50000000E+00 0.0000E+00 0.9000E+01
#aMCatNLO 1  0  0  2  5 0.13279606D+04 0.00000000D+00  -5  6  0 0.00000000D+00 0.00000000D+00 0.00000000D+00 0.00000000D+00 0.00000000D+00
  <mgrwgt>
 0.9699678457D-04    1    2    0
 0.149029422647527D+04 0.000000000000000D+00 0.000000000000000D+00 0.149029422647527D+04
 0.149029422647527D+04 0.000000000000000D+00 0.000000000000000D+00 -.149029422647527D+04
 0.812599138160049D+03 0.387069164144327D+03 0.654432135485914D+03 -.258047285493207D+03
 0.996159689908551D+03 -.202753762938845D+03 -.427348457989590D+03 -.876697402110192D+03
 0.117182962488193D+04 -.184315401205482D+03 -.227083677496324D+03 0.113474468760340D+04
 0.000000000000000D+00 0.000000000000000D+00 -.000000000000000D+00 0.000000000000000D+00
 0.234701022825033D+04 0.000000000000000D+00 0.000000000000000D+00 0.234701022825033D+04
 0.176881003210322D+04 0.000000000000000D+00 0.000000000000000D+00 -.176881003210322D+04
 0.940149105103591D+03 0.255992612885238D+03 0.857982937140862D+03 -.258047285493207D+03
 0.964637584077746D+03 -.349388937374268D+03 -.199636430014839D+03 -.876697402110192D+03
 0.119174897833888D+04 -.361071950887191D+03 0.474042994901751D+02 0.113474468760340D+04
 0.101928459283333D+04 0.454468275376222D+03 -.705750806616198D+03 0.578200196147110D+03
0.159031476078D-02 0.000000000000D+00 0.000000000000D+00 0.267949572053D-05 0.000000000000D+00  6 -4 2 25 1 -3 21 2 0.11733495D+00 0.44801231D+00 0.58983634D+06 0.58983634D+06 0.58983634D+06 0.10634753D+01  1  2 14  2  6  2        2 0.969967845731D-04 0.100000000000D+01
  </mgrwgt>
  </event>
  <event>
  5     66 0.20411069E-05 0.52216580E+02 0.75467711E-02 0.92045231E-01
       -4 -1    0    0    0  501 0.00000000E+00 0.00000000E+00 0.86705708E+03 0.86705847E+03 0.15500000E+01 0.0000E+00 0.9000E+01
        2 -1    0    0  502    0 0.00000000E+00 0.00000000E+00 -.24578922E+04 0.24578922E+04 0.32000000E+00 0.0000E+00 0.9000E+01
       25  1    1    2    0    0 0.32344666E+03 0.35608521E+03 -.75844844E+03 0.90679846E+03 0.12500000E+03 0.0000E+00 0.9000E+01
        1  1    1    2  502    0 0.14497413E+02 0.50159597E+02 -.15367306E+04 0.15376174E+04 0.32000000E+00 0.0000E+00 0.9000E+01
       -3  1    1    2    0  501 -.33794407E+03 -.40624480E+03 0.70434391E+03 0.88053485E+03 0.50000000E+00 0.0000E+00 0.9000E+01
#aMCatNLO 1  0  0  1  2 0.17191621D+03 0.00000000D+00  -5  6  0 0.00000000D+00 0.00000000D+00 0.00000000D+00 0.00000000D+00 0.00000000D+00
  <mgrwgt>
 0.2884534893D-02    7    4    0
 0.145984080758461D+04 0.000000000000000D+00 0.000000000000000D+00 0.145984080758461D+04
 0.145984080758461D+04 0.000000000000000D+00 0.000000000000000D+00 -.145984080758461D+04
 0.619368134206440D+03 0.323443004369028D+03 0.356078119293450D+03 -.369573918933065D+03
 0.913793383789585D+03 0.144983536521495D+02 0.501634221143078D+02 -.912300266952048D+03
 0.138652009717320D+04 -.337941358021177D+03 -.406241541407758D+03 0.128187418588511D+04
 0.000000000000000D+00 -.000000000000000D+00 0.000000000000000D+00 0.000000000000000D+00
 0.183165460626440D+04 0.000000000000000D+00 0.000000000000000D+00 0.183165460626440D+04
 0.148237766936867D+04 0.000000000000000D+00 0.000000000000000D+00 -.148237766936867D+04
 0.613718131661326D+03 0.343736296621820D+03 0.326014450537153D+03 -.369573918933065D+03
 0.913405557145528D+03 0.445691468632753D+02 0.561479219872543D+01 -.912300266952048D+03
 0.139761491766077D+04 -.292121963959970D+03 -.474121068717126D+03 0.128187418588511D+04
 0.389293669165441D+03 -.961834795251255D+02 0.142491825981247D+03 0.349276936895727D+03
 0.145984080758461D+04 0.000000000000000D+00 0.000000000000000D+00 0.145984080758461D+04
 0.145984080758461D+04 0.000000000000000D+00 0.000000000000000D+00 -.145984080758461D+04
 0.619368134206440D+03 0.323443004369028D+03 0.356078119293450D+03 -.369573918933065D+03
 0.913793383789585D+03 0.144983536521495D+02 0.501634221143078D+02 -.912300266952048D+03
 0.000000000000000D+00 -.000000000000000D+00 0.000000000000000D+00 0.000000000000000D+00
 0.138652009717320D+04 -.337941358021177D+03 -.406241541407758D+03 0.128187418588511D+04
 0.183165460626440D+04 0.000000000000000D+00 0.000000000000000D+00 0.183165460626440D+04
 0.148237766936867D+04 0.000000000000000D+00 0.000000000000000D+00 -.148237766936867D+04
 0.613718131661326D+03 0.343736296621820D+03 0.326014450537153D+03 -.369573918933065D+03
 0.913405557145528D+03 0.445691468632753D+02 0.561479219872543D+01 -.912300266952048D+03
 0.389293669165441D+03 -.961834795251255D+02 0.142491825981247D+03 0.349276936895727D+03
 0.139761491766077D+04 -.292121963959970D+03 -.474121068717126D+03 0.128187418588511D+04
0.775968503931D-01 0.000000000000D+00 0.000000000000D+00 0.457206769630D-03 0.000000000000D+00  6 -4 2 25 1 -3 21 0 0.13339351D+00 0.37813737D+00 0.29034213D+06 0.29034213D+06 0.29034213D+06 0.10856048D+01  1  2  2  1  6  1       -4 0.557375189857D-02 0.100000000000D+01
0.314533671791D-01 0.000000000000D+00 -.297992337229D-03 0.457206769630D-03 0.000000000000D+00  6 -4 2 25 1 -3 21 2 0.13339351D+00 0.37813737D+00 0.29034213D+06 0.29034213D+06 0.29034213D+06 0.10856048D+01  1  2  3  1  6  1       -4 0.266265087717D-02 0.100000000000D+01
-.491067438101D-01 0.000000000000D+00 0.000000000000D+00 0.457206769630D-03 0.000000000000D+00  6 -4 2 25 1 -3 21 2 0.13339351D+00 0.37813737D+00 0.29034213D+06 0.29034213D+06 0.29034213D+06 0.10856048D+01  1  2 15  1  6  1       -4 -.415707843731D-02 0.100000000000D+01
-.126547440589D+00 0.000000000000D+00 0.000000000000D+00 0.457206769630D-03 0.000000000000D+00  6 -4 2 25 1 -3 21 2 0.13339351D+00 0.37813737D+00 0.29034213D+06 0.29034213D+06 0.29034213D+06 0.10856048D+01  1  2  4  1  6  1       -4 -.107127371060D-01 0.100000000000D+01
-.623317980430D+00 0.000000000000D+00 -.763796913111D-01 0.457206769630D-03 0.000000000000D+00  6 -4 2 25 1 -3 21 2 0.16846264D+00 0.37813737D+00 0.29034213D+06 0.29034213D+06 0.29034213D+06 0.10856048D+01  1  2  5  1  6  1       -4 -.245920053660D-01 0.100000000000D+01
0.626048911066D+00 0.000000000000D+00 0.743452960658D-01 0.457206769630D-03 0.000000000000D+00  6 -4 2 25 1 -3 21 2 0.13339351D+00 0.37813737D+00 0.29034213D+06 0.29034213D+06 0.29034213D+06 0.10856048D+01  1  2  6  1  6  1       -4 0.529974953941D-01 0.100000000000D+01
-.189049386823D-01 0.000000000000D+00 -.245658769883D-02 0.457206769630D-03 0.000000000000D+00  6 21 2 25 1 4 -3 2 0.16846264D+00 0.37813737D+00 0.29034213D+06 0.29034213D+06 0.29034213D+06 0.10856048D+01  3  4  5  5  5  1       -4 -.188875423673D-01 0.100000000000D+01
  </mgrwgt>
  </event>
  <event>
  5     66 -.20411069E-05 0.17212473E+03 0.75467711E-02 0.92609837E-01
       -4 -1    0    0    0  501 0.00000000E+00 0.00000000E+00 0.32227163E+03 0.32227536E+03 0.15500000E+01 0.0000E+00 0.9000E+01
        2 -1    0    0  502    0 0.00000000E+00 0.00000000E+00 -.17928068E+04 0.17928069E+04 0.32000000E+00 0.0000E+00 0.9000E+01
       25  1    1    2    0    0 -.10745654E+03 -.50263539E+03 -.36478091E+03 0.64255689E+03 0.12500000E+03 0.0000E+00 0.9000E+01
        1  1    1    2  502    0 0.23168456E+03 0.38332246E+03 -.11966795E+04 0.12777542E+04 0.32000000E+00 0.0000E+00 0.9000E+01
       -3  1    1    2    0  501 -.12422801E+03 0.11931293E+03 0.90925178E+02 0.19477118E+03 0.50000000E+00 0.0000E+00 0.9000E+01
#aMCatNLO 1  0  0  2  4 0.46989083D+02 0.00000000D+00  -5  6  0 0.00000000D+00 0.00000000D+00 0.00000000D+00 0.00000000D+00 0.00000000D+00
  <mgrwgt>
 -.1384480981D-03    9    2    0
 0.760114968935237D+03 0.000000000000000D+00 0.000000000000000D+00 0.760114968935237D+03
 0.760114968935237D+03 0.000000000000000D+00 0.000000000000000D+00 -.760114968935237D+03
 0.541262810169426D+03 -.107588708865675D+03 -.502702059127983D+03 0.114261713384698D+03
 0.620280781426042D+03 0.231730325301220D+03 0.383472104621774D+03 -.428950404032027D+03
 0.358686346275005D+03 -.124141616435545D+03 0.119229954506209D+03 0.314688690647329D+03
 0.000000000000000D+00 0.000000000000000D+00 -.000000000000000D+00 -.000000000000000D+00
 0.763078774917343D+03 0.000000000000000D+00 0.000000000000000D+00 0.763078774917343D+03
 0.972718356174057D+03 0.000000000000000D+00 0.000000000000000D+00 -.972718356174057D+03
 0.543474541783266D+03 -.124284611591921D+03 -.501235646919061D+03 0.114261713384698D+03
 0.614478930627053D+03 0.212725330215898D+03 0.385141325943950D+03 -.428950404032027D+03
 0.363002489463338D+03 -.135249601772655D+03 0.120205576225019D+03 0.314688690647329D+03
 0.214841169217743D+03 0.468088831486776D+02 -.411125524990834D+01 -.209639581256714D+03
0.123312525933D-04 0.000000000000D+00 0.000000000000D+00 0.431199271676D-06 0.000000000000D+00  6 -4 2 25 1 -3 21 0 0.49580540D-01 0.27581673D+00 0.33018858D+06 0.33018858D+06 0.33018858D+06 0.10814845D+01  1  2  2  2  6  2        2 0.276896885669D-04 0.100000000000D+01
0.955452784273D-06 0.000000000000D+00 -.473552568515D-07 0.431199271676D-06 0.000000000000D+00  6 -4 2 25 1 -3 21 2 0.49580540D-01 0.27581673D+00 0.33018858D+06 0.33018858D+06 0.33018858D+06 0.10814845D+01  1  2  3  2  6  2        2 0.250934680767D-05 0.100000000000D+01
-.707305343196D-05 0.000000000000D+00 0.000000000000D+00 0.431199271676D-06 0.000000000000D+00  6 -4 2 25 1 -3 21 2 0.49580540D-01 0.27581673D+00 0.33018858D+06 0.33018858D+06 0.33018858D+06 0.10814845D+01  1  2 15  2  6  2        2 -.185762649313D-04 0.100000000000D+01
0.322303221020D-03 0.000000000000D+00 0.000000000000D+00 0.431199271676D-06 0.000000000000D+00  6 -4 2 25 1 -3 21 2 0.49580540D-01 0.35752826D+00 0.35954867D+06 0.35954867D+06 0.35954867D+06 0.10787815D+01  1  2 12  2  6  2        2 0.426630968117D-03 0.100000000000D+01
-.380180489241D-03 0.000000000000D+00 0.000000000000D+00 0.431199271676D-06 0.000000000000D+00  6 -4 2 25 1 -3 21 2 0.49580540D-01 0.27581673D+00 0.33018858D+06 0.33018858D+06 0.33018858D+06 0.10814845D+01  1  2  4  2  6  2        2 -.998484396842D-03 0.100000000000D+01
-.356066428578D-03 0.000000000000D+00 -.104688018809D-04 0.431199271676D-06 0.000000000000D+00  6 -4 2 25 1 -3 21 2 0.49580540D-01 0.35335899D+00 0.33018858D+06 0.33018858D+06 0.33018858D+06 0.10814845D+01  1  2  5  2  6  2        2 -.492510317899D-03 0.100000000000D+01
0.348231489449D-03 0.000000000000D+00 0.101555360502D-04 0.431199271676D-06 0.000000000000D+00  6 -4 2 25 1 -3 21 2 0.49580540D-01 0.27581673D+00 0.33018858D+06 0.33018858D+06 0.33018858D+06 0.10814845D+01  1  2  6  2  6  2        2 0.914575362343D-03 0.100000000000D+01
0.112105124815D-04 0.000000000000D+00 0.000000000000D+00 0.431199271676D-06 0.000000000000D+00  6 -4 21 25 1 -3 -2 2 0.49580540D-01 0.35752826D+00 0.35954867D+06 0.35954867D+06 0.35954867D+06 0.10787815D+01  1  2 12  6  6  2        2 0.206721992750D-05 0.100000000000D+01
-.117973472303D-04 0.000000000000D+00 -.351939182052D-06 0.431199271676D-06 0.000000000000D+00  6 -4 21 25 1 -3 -2 2 0.49580540D-01 0.35335899D+00 0.33018858D+06 0.33018858D+06 0.33018858D+06 0.10814845D+01  1  2  5  6  6  2        2 -.234970421437D-05 0.100000000000D+01
  </mgrwgt>
  </event>
  <event>
  5     66 0.20411069E-05 0.51467903E+02 0.75467711E-02 0.94785466E-01
       -4 -1    0    0    0  501 0.00000000E+00 0.00000000E+00 0.50722795E+03 0.50723032E+03 0.15500000E+01 0.0000E+00 0.9000E+01
        2 -1    0    0  502    0 -.00000000E+00 -.00000000E+00 -.22377091E+04 0.22377091E+04 0.32000000E+00 0.0000E+00 0.9000E+01
       25  1    1    2    0    0 -.34146434E+03 0.33088629E+03 -.50706189E+03 0.70627218E+03 0.12500000E+03 0.0000E+00 0.9000E+01
        1  1    1    2  502    0 0.41841657E+02 0.29954096E+02 -.14955383E+04 0.14964233E+04 0.32000000E+00 0.0000E+00 0.9000E+01
       -3  1    1    2    0  501 0.29962268E+03 -.36084039E+03 0.27211897E+03 0.54224397E+03 0.50000000E+00 0.0000E+00 0.9000E+01
#aMCatNLO 1  0  0  5  1 0.96798120D+02 0.00000000D+00  -5  6  0 0.00000000D+00 0.00000000D+00 0.00000000D+00 0.00000000D+00 0.00000000D+00
  <mgrwgt>
 0.4214212914D-02    4    2    0
 0.106537875957002D+04 0.000000000000000D+00 0.000000000000000D+00 0.106537875957002D+04
 0.106537875957002D+04 -.000000000000000D+00 -.000000000000000D+00 -.106537875957002D+04
 0.498000617783212D+03 -.341455852858666D+03 0.330861379990632D+03 -.794875027392103D+02
 0.713264426926467D+03 0.418496649021794D+02 0.299591492987958D+02 -.711405086880610D+03
 0.919492474430360D+03 0.299606187956487D+03 -.360820529289428D+03 0.790892589619821D+03
 0.000000000000000D+00 0.000000000000000D+00 0.000000000000000D+00 -.000000000000000D+00
 0.106537875957002D+04 0.000000000000000D+00 0.000000000000000D+00 0.106537875957002D+04
 0.106537875957002D+04 -.000000000000000D+00 -.000000000000000D+00 -.106537875957002D+04
 0.469825827410125D+03 -.325900452970479D+03 0.312127762840577D+03 -.384247644024218D+02
 0.656415776875733D+03 0.638638632069387D+02 0.344709780084982D+01 -.653292581179680D+03
 0.882437697243831D+03 0.290671163960685D+03 -.254394884015573D+03 0.793403936809894D+03
 0.122078217610350D+03 -.286345741971442D+02 -.611799766258546D+02 -.101686591227792D+03
0.129221462206D-01 0.000000000000D+00 0.000000000000D+00 0.162381065082D-03 0.000000000000D+00  6 -4 2 25 1 -3 21 0 0.78035254D-01 0.34426313D+00 0.25607543D+06 0.25607543D+06 0.25607543D+06 0.10896755D+01  1  2  2  4  6  5       -3 0.562683709699D-02 0.100000000000D+01
0.533000802706D-02 0.000000000000D+00 -.496244439663D-04 0.162381065082D-03 0.000000000000D+00  6 -4 2 25 1 -3 21 2 0.78035254D-01 0.34426313D+00 0.25607543D+06 0.25607543D+06 0.25607543D+06 0.10896755D+01  1  2  3  4  6  5       -3 0.275582678506D-02 0.100000000000D+01
-.800528359390D-02 0.000000000000D+00 0.000000000000D+00 0.162381065082D-03 0.000000000000D+00  6 -4 2 25 1 -3 21 2 0.78035254D-01 0.34426313D+00 0.25607543D+06 0.25607543D+06 0.25607543D+06 0.10896755D+01  1  2 15  4  6  5       -3 -.413905098042D-02 0.100000000000D+01
-.568621253669D-04 0.000000000000D+00 0.000000000000D+00 0.162381065082D-03 0.000000000000D+00  6 -4 2 25 1 -3 21 2 0.78035254D-01 0.34426313D+00 0.25607543D+06 0.25607543D+06 0.25607543D+06 0.10896755D+01  1  2  4  4  6  5       -3 -.293999872694D-04 0.100000000000D+01
  </mgrwgt>
  </event>
  <event>
  5     66 0.20411069E-05 0.37851882E+02 0.75467711E-02 0.94507658E-01
       -2 -1    0    0    0  501 0.00000000E+00 0.00000000E+00 0.58623001E+03 0.58623010E+03 0.32000000E+00 0.0000E+00 0.9000E+01
        4 -1    0    0  502    0 -.00000000E+00 -.00000000E+00 -.19338244E+04 0.19338250E+04 0.15500000E+01 0.0000E+00 0.9000E+01
       25  1    1    2    0    0 -.17385570E+03 0.46481905E+03 -.44304227E+03 0.67690029E+03 0.12500000E+03 0.0000E+00 0.9000E+01
        3  1    1    2  502    0 0.15102576E+03 -.43462324E+03 -.13344742E+04 0.14115693E+04 0.50000000E+00 0.0000E+00 0.9000E+01
       -1  1    1    2    0  501 0.22829940E+02 -.30195802E+02 0.42992209E+03 0.43158556E+03 0.32000000E+00 0.0000E+00 0.9000E+01
#aMCatNLO 1  0  0  4  2 0.14681824D+02 0.00000000D+00  -5  6  0 0.00000000D+00 0.00000000D+00 0.00000000D+00 0.00000000D+00 0.00000000D+00
  <mgrwgt>
 0.1074022118D-03    7    2    0
 0.106473790227322D+04 0.000000000000000D+00 0.000000000000000D+00 0.106473790227322D+04
 0.106473790227322D+04 -.000000000000000D+00 -.000000000000000D+00 -.106473790227322D+04
 0.520722951133041D+03 -.173872104392681D+03 0.464867402171536D+03 -.958862948968797D+02
 0.826002739324862D+03 0.151043978165659D+03 -.434673999116915D+03 -.685948071302614D+03
 0.782750114088538D+03 0.228281262270216D+02 -.301934030546210D+02 0.781834366199494D+03
 0.000000000000000D+00 0.000000000000000D+00 -.000000000000000D+00 0.000000000000000D+00
 0.106473790227322D+04 0.000000000000000D+00 0.000000000000000D+00 0.106473790227322D+04
 0.106473790227322D+04 -.000000000000000D+00 -.000000000000000D+00 -.106473790227322D+04
 0.520625237488199D+03 -.173824799117790D+03 0.464731267164593D+03 -.961011261166878D+02
 0.706905150003056D+03 0.136697808390663D+03 -.360560582879165D+03 -.592473346536255D+03
 0.782437592554463D+03 0.228992279349114D+02 -.303980193795340D+02 0.781511466339561D+03
 0.119507824500722D+03 0.142277627922159D+02 -.737726649058935D+02 -.929369936866186D+02
0.250332124053D-03 0.000000000000D+00 0.000000000000D+00 0.204768922923D-03 0.000000000000D+00  6 -2 4 25 3 -1 21 0 0.90189287D-01 0.29751150D+00 0.25494405D+06 0.25494405D+06 0.25494405D+06 0.10898199D+01  1  2  2  3  6  4        3 0.161751794010D-05 0.100000000000D+01
0.138341674780D-03 0.000000000000D+00 -.961341270324D-06 0.204768922923D-03 0.000000000000D+00  6 -2 4 25 3 -1 21 2 0.90189287D-01 0.29751150D+00 0.25494405D+06 0.25494405D+06 0.25494405D+06 0.10898199D+01  1  2  3  3  6  4        3 0.106168331138D-05 0.100000000000D+01
-.140301315207D-03 0.000000000000D+00 0.000000000000D+00 0.204768922923D-03 0.000000000000D+00  6 -2 4 25 3 -1 21 2 0.90189287D-01 0.29751150D+00 0.25494405D+06 0.25494405D+06 0.25494405D+06 0.10898199D+01  1  2 15  3  6  4        3 -.107672229035D-05 0.100000000000D+01
0.449456198369D-01 0.000000000000D+00 0.000000000000D+00 0.204768922923D-03 0.000000000000D+00  6 -2 4 25 3 -1 21 2 0.90189287D-01 0.29751150D+00 0.25526376D+06 0.25526376D+06 0.25526376D+06 0.10897790D+01  1  2 12  3  6  4        3 0.344878022567D-03 0.100000000000D+01
-.382386311823D-01 0.000000000000D+00 0.000000000000D+00 0.204768922923D-03 0.000000000000D+00  6 -2 4 25 3 -1 21 2 0.90189287D-01 0.29751150D+00 0.25494405D+06 0.25494405D+06 0.25494405D+06 0.10898199D+01  1  2  4  3  6  4        3 -.293456882323D-03 0.100000000000D+01
-.457080338440D-01 0.000000000000D+00 0.000000000000D+00 0.204768922923D-03 0.000000000000D+00  6 -2 4 25 3 -1 21 2 0.90189287D-01 0.29751150D+00 0.25494405D+06 0.25494405D+06 0.25494405D+06 0.10898199D+01  1  2  5  3  6  4        3 -.350779740128D-03 0.100000000000D+01
0.527937867210D-01 0.000000000000D+00 -.000000000000D+00 0.204768922923D-03 0.000000000000D+00  6 -2 4 25 3 -1 21 2 0.90189287D-01 0.29751150D+00 0.25494405D+06 0.25494405D+06 0.25494405D+06 0.10898199D+01  1  2  6  3  6  4        3 0.405158332768D-03 0.100000000000D+01
  </mgrwgt>
  </event>
  <event>
  6     66 -.20411069E-05 0.20148780E+02 0.75467711E-02 0.94870960E-01
       -4 -1    0    0    0  501 0.00000000E+00 0.00000000E+00 0.25986254E+03 0.25986717E+03 0.15500000E+01 0.0000E+00 0.9000E+01
        2 -1    0    0  502    0 -.00000000E+00 -.00000000E+00 -.29009672E+04 0.29009673E+04 0.32000000E+00 0.0000E+00 0.9000E+01
       25  1    1    2    0    0 -.35612900E+03 0.30997828E+03 -.10809010E+04 0.11861224E+04 0.12500000E+03 0.0000E+00 0.9000E+01
        1  1    1    2  502    0 0.13790581E+01 -.36669082E+02 -.15164319E+04 0.15168759E+04 0.32000000E+00 0.0000E+00 0.9000E+01
       -3  1    1    2    0  503 0.29676127E+03 -.25908374E+03 -.23004328E+02 0.39461511E+03 0.50000000E+00 0.0000E+00 0.9000E+01
       21  1    1    2  503  501 0.57988667E+02 -.14225458E+02 -.20767426E+02 0.63221022E+02 0.75000000E+00 0.0000E+00 0.9000E+01
#aMCatNLO 2  0  0  5  1 0.26094960D+02 0.00000000D+00  -5  6  0 0.00000000D+00 0.00000000D+00 0.00000000D+00 0.00000000D+00 0.00000000D+00
  <mgrwgt>
 -.2968559867D-02    5    2    0
 0.868251151582962D+03 0.000000000000000D+00 0.000000000000000D+00 0.868251151582962D+03
 0.868251151582962D+03 -.000000000000000D+00 -.000000000000000D+00 -.868251151582962D+03
 0.515966174733019D+03 -.356721026819550D+03 0.310457471204975D+03 -.164202195680940D+03
 0.455925244528579D+03 0.809375802336433D+00 -.362532647299795D+02 -.454480884422737D+03
 0.764610883904326D+03 0.355911651017214D+03 -.274204206474995D+03 0.618683080103677D+03
 0.000000000000000D+00 0.000000000000000D+00 0.000000000000000D+00 0.000000000000000D+00
 0.868251151582962D+03 0.000000000000000D+00 0.000000000000000D+00 0.868251151582962D+03
 0.868251151582962D+03 -.000000000000000D+00 -.000000000000000D+00 -.868251151582962D+03
 0.514860900196222D+03 -.356073556929339D+03 0.309958642445213D+03 -.163076695392300D+03
 0.454970563935413D+03 0.138151600261247D+01 -.366940574074903D+02 -.453486330127180D+03
 0.683156297949165D+03 0.296678137952308D+03 -.259041129416975D+03 0.558195577874940D+03
 0.835145410851236D+02 0.580139029744186D+02 -.142234556207480D+02 0.583674476445403D+02
-.809480551365D-02 0.000000000000D+00 0.000000000000D+00 0.876598555499D-04 0.000000000000D+00  6 -4 2 25 1 -3 21 2 0.39979210D-01 0.44630301D+00 0.23944249D+06 0.23944249D+06 0.23944249D+06 0.10918716D+01  1  2 13  4  6  5       -3 -.818316667403D-02 0.100000000000D+01
-.862399320564D-05 0.000000000000D+00 0.000000000000D+00 0.876598555499D-04 0.000000000000D+00  6 -4 2 25 1 -3 21 2 0.39979210D-01 0.44630301D+00 0.23750642D+06 0.23750642D+06 0.23750642D+06 0.10921380D+01  1  2  8  4  6  5       -3 -.872599347879D-05 0.100000000000D+01
-.369988239220D-05 0.000000000000D+00 0.000000000000D+00 0.876598555499D-04 0.000000000000D+00  6 -4 2 25 1 -3 21 2 0.39979210D-01 0.44630301D+00 0.23750642D+06 0.23750642D+06 0.23750642D+06 0.10921380D+01  1  2  9  4  6  5       -3 -.374364274841D-05 0.100000000000D+01
0.412592477982D-05 0.000000000000D+00 0.000000000000D+00 0.876598555499D-04 0.000000000000D+00  6 -4 2 25 1 -3 21 2 0.39979210D-01 0.44630301D+00 0.23750642D+06 0.23750642D+06 0.23750642D+06 0.10921380D+01  1  2 10  4  6  5       -3 0.417472415205D-05 0.100000000000D+01
0.516650525608D-02 0.000000000000D+00 0.000000000000D+00 0.876598555499D-04 0.396114026269D-06  6 -4 2 25 1 -3 21 2 0.39979210D-01 0.44630301D+00 0.23944249D+06 0.23944249D+06 0.23944249D+06 0.10918716D+01  1  2  1  4  6  5       -3 0.522290171907D-02 0.100000000000D+01
  </mgrwgt>
  </event>
  <event>
  5     66 -.20411069E-05 0.16502270E+03 0.75467711E-02 0.94559033E-01
       -4 -1    0    0    0  501 0.00000000E+00 0.00000000E+00 0.59981409E+03 0.59981609E+03 0.15500000E+01 0.0000E+00 0.9000E+01
        2 -1    0    0  502    0 0.00000000E+00 0.00000000E+00 -.25517742E+04 0.25517743E+04 0.32000000E+00 0.0000E+00 0.9000E+01
       25  1    1    2    0    0 0.15632423E+03 0.45876243E+03 -.39442754E+03 0.63725844E+03 0.12500000E+03 0.0000E+00 0.9000E+01
        1  1    1    2  502    0 -.54895884E+02 -.32856949E+03 -.20075524E+04 0.20350032E+04 0.32000000E+00 0.0000E+00 0.9000E+01
       -3  1    1    2    0  501 -.10142835E+03 -.13019294E+03 0.45001979E+03 0.47932867E+03 0.50000000E+00 0.0000E+00 0.9000E+01
#aMCatNLO 1  0  0  1  5 0.10264994D+02 0.00000000D+00  -5  6  0 0.00000000D+00 0.00000000D+00 0.00000000D+00 0.00000000D+00 0.00000000D+00
  <mgrwgt>
 -.1637745948D-01    9    4    0
 0.123717150498783D+04 0.000000000000000D+00 0.000000000000000D+00 0.123717150498783D+04
 0.123717150498783D+04 0.000000000000000D+00 0.000000000000000D+00 -.123717150498783D+04
 0.500572071330109D+03 0.156326946087566D+03 0.458812678054547D+03 0.459324575165738D+00
 0.100833070801885D+04 -.549086868739883D+02 -.328632692310855D+03 -.951691339870283D+03
 0.965440230626707D+03 -.101418259213578D+03 -.130179985743692D+03 0.951232015295117D+03
 0.000000000000000D+00 -.000000000000000D+00 -.000000000000000D+00 0.000000000000000D+00
 0.178517909267243D+04 0.000000000000000D+00 0.000000000000000D+00 0.178517909267243D+04
 0.123723022178264D+04 0.000000000000000D+00 0.000000000000000D+00 -.123723022178264D+04
 0.501475558156576D+03 0.158386502735950D+03 0.459092844858704D+03 0.459324575165738D+00
 0.100792990265944D+04 -.507645695452299D+02 -.328068957339564D+03 -.951691339870283D+03
 0.964958841609304D+03 -.974506172310364D+02 -.129640257169021D+03 0.951232015295117D+03
 0.548045012029747D+03 -.101713159596839D+02 -.138363035011961D+01 0.547948870889783D+03
 0.123717150498783D+04 0.000000000000000D+00 0.000000000000000D+00 0.123717150498783D+04
 0.123717150498783D+04 0.000000000000000D+00 0.000000000000000D+00 -.123717150498783D+04
 0.500572071330109D+03 0.156326946087566D+03 0.458812678054547D+03 0.459324575165738D+00
 0.100833070801885D+04 -.549086868739883D+02 -.328632692310855D+03 -.951691339870283D+03
 0.000000000000000D+00 -.000000000000000D+00 -.000000000000000D+00 0.000000000000000D+00
 0.965440230626707D+03 -.101418259213578D+03 -.130179985743692D+03 0.951232015295117D+03
 0.178517909267243D+04 0.000000000000000D+00 0.000000000000000D+00 0.178517909267243D+04
 0.123723022178264D+04 0.000000000000000D+00 0.000000000000000D+00 -.123723022178264D+04
 0.501475558156576D+03 0.158386502735950D+03 0.459092844858704D+03 0.459324575165738D+00
 0.100792990265944D+04 -.507645695452299D+02 -.328068957339564D+03 -.951691339870283D+03
 0.548045012029747D+03 -.101713159596839D+02 -.138363035011961D+01 0.547948870889783D+03
 0.964958841609304D+03 -.974506172310364D+02 -.129640257169021D+03 0.951232015295117D+03
0.127797778880D-03 0.000000000000D+00 0.000000000000D+00 0.775843615580D-04 0.000000000000D+00  6 -4 2 25 1 -3 21 0 0.92279247D-01 0.39258081D+00 0.24939178D+06 0.24939178D+06 0.24939178D+06 0.10905387D+01  1  2  2  1  6  1       -4 0.237478556134D-04 0.100000000000D+01
0.193829319313D-04 0.000000000000D+00 -.490777120825D-06 0.775843615580D-04 0.000000000000D+00  6 -4 2 25 1 -3 21 2 0.92279247D-01 0.39258081D+00 0.24939178D+06 0.24939178D+06 0.24939178D+06 0.10905387D+01  1  2  3  1  6  1       -4 0.428353903360D-05 0.100000000000D+01
-.777259239432D-04 0.000000000000D+00 0.000000000000D+00 0.775843615580D-04 0.000000000000D+00  6 -4 2 25 1 -3 21 2 0.92279247D-01 0.39258081D+00 0.24939178D+06 0.24939178D+06 0.24939178D+06 0.10905387D+01  1  2 15  1  6  1       -4 -.171770726077D-04 0.100000000000D+01
0.362234283592D+00 0.000000000000D+00 0.000000000000D+00 0.775843615580D-04 0.000000000000D+00  6 -4 2 25 1 -3 21 2 0.13360236D+00 0.39258081D+00 0.25295686D+06 0.25295686D+06 0.25295686D+06 0.10900752D+01  1  2 12  1  6  1       -4 0.274001155787D-01 0.100000000000D+01
-.412176684444D+00 0.000000000000D+00 0.000000000000D+00 0.775843615580D-04 0.000000000000D+00  6 -4 2 25 1 -3 21 2 0.92279247D-01 0.39258081D+00 0.24939178D+06 0.24939178D+06 0.24939178D+06 0.10905387D+01  1  2  4  1  6  1       -4 -.910891563162D-01 0.100000000000D+01
-.366911495797D+00 0.000000000000D+00 -.928821116453D-04 0.775843615580D-04 0.000000000000D+00  6 -4 2 25 1 -3 21 2 0.13315677D+00 0.39258081D+00 0.24939178D+06 0.24939178D+06 0.24939178D+06 0.10905387D+01  1  2  5  1  6  1       -4 -.280922525694D-01 0.100000000000D+01
0.343589387782D+00 0.000000000000D+00 0.869687424782D-04 0.775843615580D-04 0.000000000000D+00  6 -4 2 25 1 -3 21 2 0.92279247D-01 0.39258081D+00 0.24939178D+06 0.24939178D+06 0.24939178D+06 0.10905387D+01  1  2  6  1  6  1       -4 0.759316784122D-01 0.100000000000D+01
0.162911605041D-01 0.000000000000D+00 0.000000000000D+00 0.775843615580D-04 0.000000000000D+00  6 21 2 25 1 4 -3 2 0.13360236D+00 0.39258081D+00 0.25295686D+06 0.25295686D+06 0.25295686D+06 0.10900752D+01  3  4 12  5  5  1       -4 0.294432014247D-01 0.100000000000D+01
-.163906182515D-01 0.000000000000D+00 -.414992767316D-05 0.775843615580D-04 0.000000000000D+00  6 21 2 25 1 4 -3 2 0.13315677D+00 0.39258081D+00 0.24939178D+06 0.24939178D+06 0.24939178D+06 0.10905387D+01  3  4  5  5  5  1       -4 -.299819003336D-01 0.100000000000D+01
  </mgrwgt>
  </event>
  <event>
  5     66 0.20411069E-05 0.92024927E+02 0.75467711E-02 0.94509056E-01
       -4 -1    0    0    0  501 0.00000000E+00 0.00000000E+00 0.14037945E+04 0.14037953E+04 0.15500000E+01 0.0000E+00 0.9000E+01
        2 -1    0    0  502    0 0.00000000E+00 0.00000000E+00 -.10788279E+04 0.10788279E+04 0.32000000E+00 0.0000E+00 0.9000E+01
       25  1    1    2    0    0 0.45423669E+03 0.48368684E+02 0.44138242E+03 0.64739010E+03 0.12500000E+03 0.0000E+00 0.9000E+01
        1  1    1    2  502    0 -.27656658E+02 -.87752001E+02 -.92000083E+03 0.92459014E+03 0.32000000E+00 0.0000E+00 0.9000E+01
       -3  1    1    2    0  501 -.42658003E+03 0.39383317E+02 0.80358502E+03 0.91064302E+03 0.50000000E+00 0.0000E+00 0.9000E+01
#aMCatNLO 1  0  0  1  5 0.13125777D+02 0.00000000D+00  -5  6  0 0.00000000D+00 0.00000000D+00 0.00000000D+00 0.00000000D+00 0.00000000D+00
  <mgrwgt>
 0.2337216809D-02    9    4    0
 0.123063143823097D+04 0.000000000000000D+00 0.000000000000000D+00 0.123063143823097D+04
 0.123063143823097D+04 0.000000000000000D+00 0.000000000000000D+00 -.123063143823097D+04
 0.594806254281611D+03 0.454159633467534D+03 0.483931577369729D+02 0.359953621658957D+03
 0.105416816827544D+04 -.276626833389861D+02 -.877688050638134D+02 -.105014377102059D+04
 0.812288453904888D+03 -.426496950128548D+03 0.393756473268405D+02 0.690190149361633D+03
 0.000000000000000D+00 0.000000000000000D+00 0.000000000000000D+00 0.000000000000000D+00
 0.131239592627637D+04 0.000000000000000D+00 0.000000000000000D+00 0.131239592627637D+04
 0.123117582586312D+04 0.000000000000000D+00 0.000000000000000D+00 -.123117582586312D+04
 0.592382564987006D+03 0.450998328291808D+03 0.482286370653245D+02 0.359953621658957D+03
 0.105435480894943D+04 -.332773627335797D+02 -.880610042580517D+02 -.105014377102059D+04
 0.814560501794545D+03 -.430829004086862D+03 0.391501985367930D+02 0.690190149361633D+03
 0.822738764085070D+02 0.131080385286334D+02 0.682168655934216D+00 0.812201004132536D+02
 0.123063143823097D+04 0.000000000000000D+00 0.000000000000000D+00 0.123063143823097D+04
 0.123063143823097D+04 0.000000000000000D+00 0.000000000000000D+00 -.123063143823097D+04
 0.594806254281611D+03 0.454159633467534D+03 0.483931577369729D+02 0.359953621658957D+03
 0.105416816827544D+04 -.276626833389861D+02 -.877688050638134D+02 -.105014377102059D+04
 0.000000000000000D+00 0.000000000000000D+00 0.000000000000000D+00 0.000000000000000D+00
 0.812288453904888D+03 -.426496950128548D+03 0.393756473268405D+02 0.690190149361633D+03
 0.131239592627637D+04 0.000000000000000D+00 0.000000000000000D+00 0.131239592627637D+04
 0.123117582586312D+04 0.000000000000000D+00 0.000000000000000D+00 -.123117582586312D+04
 0.592382564987006D+03 0.450998328291808D+03 0.482286370653245D+02 0.359953621658957D+03
 0.105435480894943D+04 -.332773627335797D+02 -.880610042580517D+02 -.105014377102059D+04
 0.822738764085070D+02 0.131080385286334D+02 0.682168655934216D+00 0.812201004132536D+02
 0.814560501794545D+03 -.430829004086862D+03 0.391501985367930D+02 0.690190149361633D+03
0.464881028552D-03 0.000000000000D+00 0.000000000000D+00 0.952371988070D-04 0.000000000000D+00  6 -4 2 25 1 -3 21 0 0.21596845D+00 0.16597359D+00 0.24694078D+06 0.24694078D+06 0.24694078D+06 0.10908616D+01  1  2  2  1  6  1       -4 0.366277115335D-04 0.100000000000D+01
0.128662267362D-03 0.000000000000D+00 -.178526555562D-05 0.952371988070D-04 0.000000000000D+00  6 -4 2 25 1 -3 21 2 0.21596845D+00 0.16597359D+00 0.24694078D+06 0.24694078D+06 0.24694078D+06 0.10908616D+01  1  2  3  1  6  1       -4 0.120630873716D-04 0.100000000000D+01
-.286076588049D-03 0.000000000000D+00 0.000000000000D+00 0.952371988070D-04 0.000000000000D+00  6 -4 2 25 1 -3 21 2 0.21596845D+00 0.16597359D+00 0.24694078D+06 0.24694078D+06 0.24694078D+06 0.10908616D+01  1  2 15  1  6  1       -4 -.268219031684D-04 0.100000000000D+01
0.683586438050D-01 0.000000000000D+00 0.000000000000D+00 0.952371988070D-04 0.000000000000D+00  6 -4 2 25 1 -3 21 2 0.23130399D+00 0.16597359D+00 0.25520067D+06 0.25520067D+06 0.25520067D+06 0.10897871D+01  1  2 12  1  6  1       -4 0.481456035882D-02 0.100000000000D+01
-.430127780655D-01 0.000000000000D+00 0.000000000000D+00 0.952371988070D-04 0.000000000000D+00  6 -4 2 25 1 -3 21 2 0.21596845D+00 0.16597359D+00 0.24694078D+06 0.24694078D+06 0.24694078D+06 0.10908616D+01  1  2  4  1  6  1       -4 -.403278218656D-02 0.100000000000D+01
-.774952763878D-01 0.000000000000D+00 -.134586957166D-02 0.952371988070D-04 0.000000000000D+00  6 -4 2 25 1 -3 21 2 0.23035588D+00 0.16597359D+00 0.24694078D+06 0.24694078D+06 0.24694078D+06 0.10908616D+01  1  2  5  1  6  1       -4 -.557389953924D-02 0.100000000000D+01
0.774237973638D-01 0.000000000000D+00 0.134307543820D-02 0.952371988070D-04 0.000000000000D+00  6 -4 2 25 1 -3 21 2 0.21596845D+00 0.16597359D+00 0.24694078D+06 0.24694078D+06 0.24694078D+06 0.10908616D+01  1  2  6  1  6  1       -4 0.725908264630D-02 0.100000000000D+01
0.107673719378D-02 0.000000000000D+00 0.000000000000D+00 0.952371988070D-04 0.000000000000D+00  6 21 2 25 1 4 -3 2 0.23130399D+00 0.16597359D+00 0.25520067D+06 0.25520067D+06 0.25520067D+06 0.10897871D+01  3  4 12  5  5  1       -4 0.219313490400D-02 0.100000000000D+01
-.112740859065D-02 0.000000000000D+00 -.148115221397D-04 0.952371988070D-04 0.000000000000D+00  6 21 2 25 1 4 -3 2 0.23035588D+00 0.16597359D+00 0.24694078D+06 0.24694078D+06 0.24694078D+06 0.10908616D+01  3  4  5  5  5  1       -4 -.234474826968D-02 0.100000000000D+01
  </mgrwgt>
  </event>
  <event>
  5     66 -.20411069E-05 0.30149002E+02 0.75467711E-02 0.94912593E-01
       -4 -1    0    0    0  501 0.00000000E+00 0.00000000E+00 0.36165157E+03 0.36165489E+03 0.15500000E+01 0.0000E+00 0.9000E+01
        2 -1    0    0  502    0 -.00000000E+00 -.00000000E+00 -.13292973E+04 0.13292973E+04 0.32000000E+00 0.0000E+00 0.9000E+01
       25  1    1    2    0    0 -.40948752E+03 0.21982918E+03 -.57761173E+03 0.75184121E+03 0.12500000E+03 0.0000E+00 0.9000E+01
        1  1    1    2  502    0 0.16229552E+02 0.25402312E+02 -.46814931E+03 0.46911891E+03 0.32000000E+00 0.0000E+00 0.9000E+01
       -3  1    1    2    0  501 0.39325797E+03 -.24523149E+03 0.78115329E+02 0.46999209E+03 0.50000000E+00 0.0000E+00 0.9000E+01
#aMCatNLO 1  0  0  5  1 0.13351373D+02 0.00000000D+00  -5  6  0 0.00000000D+00 0.00000000D+00 0.00000000D+00 0.00000000D+00 0.00000000D+00
  <mgrwgt>
 -.8373585648D-02    7    2    0
 0.693357982117483D+03 0.000000000000000D+00 0.000000000000000D+00 0.693357982117483D+03
 0.693357982117483D+03 -.000000000000000D+00 -.000000000000000D+00 -.693357982117483D+03
 0.513702807709970D+03 -.409479856736483D+03 0.219818810995994D+03 -.179642734082076D+03
 0.245416758367169D+03 0.162326949098531D+02 0.254059433665062D+02 -.243557843119598D+03
 0.627596398157827D+03 0.393247161826630D+03 -.245224754362500D+03 0.423200577201674D+03
 0.000000000000000D+00 0.000000000000000D+00 0.000000000000000D+00 0.000000000000000D+00
 0.693357982117483D+03 0.000000000000000D+00 0.000000000000000D+00 0.693357982117483D+03
 0.693357982117483D+03 -.000000000000000D+00 -.000000000000000D+00 -.693357982117483D+03
 0.513212117863595D+03 -.409139132107355D+03 0.219606338735304D+03 -.179276056649379D+03
 0.245243221686933D+03 0.163954931471446D+02 0.253044241144281D+02 -.243382644632038D+03
 0.559489911855538D+03 0.360842061771378D+03 -.213415915972916D+03 0.370507239786405D+03
 0.687707128288995D+02 0.319015771888330D+02 -.314948468768161D+02 0.521514614950127D+02
0.538588093247D-04 0.000000000000D+00 0.000000000000D+00 0.180455247699D-04 0.000000000000D+00  6 -4 2 25 1 -3 21 0 0.55638962D-01 0.20450753D+00 0.23758762D+06 0.23758762D+06 0.23758762D+06 0.10921268D+01  1  2  2  4  6  5       -3 0.168544862039D-03 0.100000000000D+01
0.217712263399D-04 0.000000000000D+00 -.206832009157D-06 0.180455247699D-04 0.000000000000D+00  6 -4 2 25 1 -3 21 2 0.55638962D-01 0.20450753D+00 0.23758762D+06 0.23758762D+06 0.23758762D+06 0.10921268D+01  1  2  3  4  6  5       -3 0.812620550332D-04 0.100000000000D+01
-.304341597730D-04 0.000000000000D+00 0.000000000000D+00 0.180455247699D-04 0.000000000000D+00  6 -4 2 25 1 -3 21 2 0.55638962D-01 0.20450753D+00 0.23758762D+06 0.23758762D+06 0.23758762D+06 0.10921268D+01  1  2 15  4  6  5       -3 -.113596833167D-03 0.100000000000D+01
0.549834139477D-02 0.000000000000D+00 0.000000000000D+00 0.180455247699D-04 0.000000000000D+00  6 -4 2 25 1 -3 21 2 0.55638962D-01 0.20450753D+00 0.23770081D+06 0.23770081D+06 0.23770081D+06 0.10921112D+01  1  2 12  4  6  5       -3 0.205219871459D-01 0.100000000000D+01
-.842573714052D-02 0.000000000000D+00 0.000000000000D+00 0.180455247699D-04 0.000000000000D+00  6 -4 2 25 1 -3 21 2 0.55638962D-01 0.20450753D+00 0.23758762D+06 0.23758762D+06 0.23758762D+06 0.10921268D+01  1  2  4  4  6  5       -3 -.314494325913D-01 0.100000000000D+01
-.560597190918D-02 0.000000000000D+00 0.000000000000D+00 0.180455247699D-04 0.000000000000D+00  6 -4 2 25 1 -3 21 2 0.55638962D-01 0.20450753D+00 0.23758762D+06 0.23758762D+06 0.23758762D+06 0.10921268D+01  1  2  5  4  6  5       -3 -.209245354711D-01 0.100000000000D+01
0.625369364238D-02 0.000000000000D+00 -.000000000000D+00 0.180455247699D-04 0.000000000000D+00  6 -4 2 25 1 -3 21 2 0.55638962D-01 0.20450753D+00 0.23758762D+06 0.23758762D+06 0.23758762D+06 0.10921268D+01  1  2  6  4  6  5       -3 0.233421851849D-01 0.100000000000D+01
  </mgrwgt>
  </event>
  <event>
  5     66 0.20411069E-05 0.13106460E+02 0.75467711E-02 0.94398293E-01
       -4 -1    0    0    0  501 0.00000000E+00 0.00000000E+00 0.14303035E+03 0.14303875E+03 0.15500000E+01 0.0000E+00 0.9000E+01
        2 -1    0    0  502    0 0.00000000E+00 0.00000000E+00 -.27852224E+04 0.27852224E+04 0.32000000E+00 0.0000E+00 0.9000E+01
       25  1    1    2    0    0 0.90487228E+02 -.48258201E+03 -.79396780E+03 0.94185095E+03 0.12500000E+03 0.0000E+00 0.9000E+01
        1  1    1    2  502    0 -.13070207E+02 -.91723769E+00 -.10492168E+04 0.10492987E+04 0.32000000E+00 0.0000E+00 0.9000E+01
       -3  1    1    2    0  501 -.77417021E+02 0.48349925E+03 -.79900740E+03 0.93711152E+03 0.50000000E+00 0.0000E+00 0.9000E+01
#aMCatNLO 1  0  0  2  4 0.11977027D+02 0.00000000D+00  -5  6  0 0.00000000D+00 0.00000000D+00 0.00000000D+00 0.00000000D+00 0.00000000D+00
  <mgrwgt>
 0.2156874191D-01    7    2    0
 0.631176402609101D+03 0.000000000000000D+00 0.000000000000000D+00 0.631176402609101D+03
 0.631176402609101D+03 0.000000000000000D+00 0.000000000000000D+00 -.631176402609101D+03
 0.522932525458475D+03 0.904800296166035D+02 -.482511328961232D+03 0.129728978439757D+03
 0.238068026320738D+03 -.130743238342578D+02 -.917250090966434D+00 -.237706974792073D+03
 0.501352253438989D+03 -.774057057823457D+02 0.483428579052199D+03 0.107977996352316D+03
 0.000000000000000D+00 -.000000000000000D+00 -.000000000000000D+00 -.000000000000000D+00
 0.635837799325426D+03 0.000000000000000D+00 0.000000000000000D+00 0.635837799325426D+03
 0.638945450548476D+03 0.000000000000000D+00 0.000000000000000D+00 -.638945450548476D+03
 0.519306847123388D+03 0.927859708381246D+02 -.478137801515252D+03 0.129728978439757D+03
 0.238013188363159D+03 -.120210002632897D+02 0.108051962845800D+01 -.237706974792073D+03
 0.505089586629048D+03 -.751789661415975D+02 0.487651890055522D+03 0.107977996352316D+03
 0.123736277583073D+02 -.558600443323746D+01 -.105946081687281D+02 -.310765122304995D+01
0.962496945444D-03 0.000000000000D+00 0.000000000000D+00 0.478229134656D-05 0.000000000000D+00  6 -4 2 25 1 -3 21 0 0.22005317D-01 0.42849640D+00 0.25466067D+06 0.25466067D+06 0.25466067D+06 0.10898561D+01  1  2  2  2  6  2        2 0.316635813946D-02 0.100000000000D+01
0.720591778477D-03 0.000000000000D+00 -.369624170177D-05 0.478229134656D-05 0.000000000000D+00  6 -4 2 25 1 -3 21 2 0.22005317D-01 0.42849640D+00 0.25466067D+06 0.25466067D+06 0.25466067D+06 0.10898561D+01  1  2  3  2  6  2        2 0.281571261814D-02 0.100000000000D+01
-.638853303983D-03 0.000000000000D+00 0.000000000000D+00 0.478229134656D-05 0.000000000000D+00  6 -4 2 25 1 -3 21 2 0.22005317D-01 0.42849640D+00 0.25466067D+06 0.25466067D+06 0.25466067D+06 0.10898561D+01  1  2 15  2  6  2        2 -.249631950141D-02 0.100000000000D+01
-.278154373220D-04 0.000000000000D+00 0.000000000000D+00 0.478229134656D-05 0.000000000000D+00  6 -4 2 25 1 -3 21 2 0.22005317D-01 0.42849640D+00 0.25466067D+06 0.25466067D+06 0.25466067D+06 0.10898561D+01  1  2  4  2  6  2        2 -.108688830744D-03 0.100000000000D+01
-.801208783174D-01 0.000000000000D+00 -.930707281921D-02 0.478229134656D-05 0.000000000000D+00  6 -4 2 25 1 -3 21 2 0.22005317D-01 0.43491180D+00 0.25466067D+06 0.25466067D+06 0.25466067D+06 0.10898561D+01  1  2  5  2  6  2        2 -.295324339995D+00 0.100000000000D+01
0.802513558032D-01 0.000000000000D+00 0.930604519460D-02 0.478229134656D-05 0.000000000000D+00  6 -4 2 25 1 -3 21 2 0.22005317D-01 0.42849640D+00 0.25466067D+06 0.25466067D+06 0.25466067D+06 0.10898561D+01  1  2  6  2  6  2        2 0.313582199946D+00 0.100000000000D+01
-.217599387217D-03 0.000000000000D+00 -.253648567140D-04 0.478229134656D-05 0.000000000000D+00  6 -4 21 25 1 -3 -2 2 0.22005317D-01 0.43491180D+00 0.25466067D+06 0.25466067D+06 0.25466067D+06 0.10898561D+01  1  2  5  6  6  2        2 -.661804663966D-04 0.100000000000D+01
  </mgrwgt>
  </event>
  <event>
  5     66 0.20411069E-05 0.78049964E+02 0.75467711E-02 0.94845032E-01
       -4 -1    0    0    0  501 0.00000000E+00 0.00000000E+00 0.21064760E+03 0.21065330E+03 0.15500000E+01 0.0000E+00 0.9000E+01
        2 -1    0    0  502    0 -.00000000E+00 -.00000000E+00 -.15155172E+04 0.15155173E+04 0.32000000E+00 0.0000E+00 0.9000E+01
       25  1    1    2    0    0 0.47713175E+03 0.61092127E+02 -.78018934E+03 0.92504451E+03 0.12500000E+03 0.0000E+00 0.9000E+01
        1  1    1    2  502    0 -.39943601E+03 -.69633884E+02 -.57834263E+03 0.70631317E+03 0.32000000E+00 0.0000E+00 0.9000E+01
       -3  1    1    2    0  501 -.77695736E+02 0.85417565E+01 0.53662319E+02 0.94812886E+02 0.50000000E+00 0.0000E+00 0.9000E+01
#aMCatNLO 1  0  0  4  1 0.15619447D+03 0.00000000D+00  -5  6  0 0.00000000D+00 0.00000000D+00 0.00000000D+00 0.00000000D+00 0.00000000D+00
  <mgrwgt>
 0.1297193976D-02    4    2    0
 0.565017713163349D+03 0.000000000000000D+00 0.000000000000000D+00 0.565017713163349D+03
 0.565017713163349D+03 -.000000000000000D+00 -.000000000000000D+00 -.565017713163349D+03
 0.512211734430110D+03 0.477261908791085D+03 0.611275390631522D+02 -.123370803973526D+03
 0.411330740083825D+03 -.399679386658199D+03 -.696568490576100D+02 -.678033111123488D+02
 0.206492951812764D+03 -.775825221328858D+02 0.852930999445767D+01 0.191174115085874D+03
 0.000000000000000D+00 0.000000000000000D+00 0.000000000000000D+00 0.000000000000000D+00
 0.565017713163349D+03 0.000000000000000D+00 0.000000000000000D+00 0.565017713163349D+03
 0.565017713163349D+03 -.000000000000000D+00 -.000000000000000D+00 -.565017713163349D+03
 0.451334457149965D+03 0.409204337981703D+03 0.492663420754004D+02 -.134916379755460D+03
 0.297306261204498D+03 -.210091788245738D+03 -.120516905581124D+03 -.172418470391822D+03
 0.214887793247524D+03 -.107345651441324D+03 0.334213778861916D+01 0.186124971238226D+03
 0.166506914724711D+03 -.917668982946410D+02 0.679084257171041D+02 0.121209878909055D+03
0.397006628920D-03 0.000000000000D+00 0.000000000000D+00 0.347052634933D-06 0.000000000000D+00  6 -4 2 25 1 -3 21 0 0.32407764D-01 0.23315694D+00 0.24053443D+06 0.24053443D+06 0.24053443D+06 0.10917224D+01  1  2  2  3  6  4        1 0.315824745411D-02 0.100000000000D+01
0.570909505627D-04 0.000000000000D+00 -.152460998930D-05 0.347052634933D-06 0.000000000000D+00  6 -4 2 25 1 -3 21 2 0.32407764D-01 0.23315694D+00 0.24053443D+06 0.24053443D+06 0.24053443D+06 0.10917224D+01  1  2  3  3  6  4        1 0.541302608444D-03 0.100000000000D+01
-.238081493318D-03 0.000000000000D+00 0.000000000000D+00 0.347052634933D-06 0.000000000000D+00  6 -4 2 25 1 -3 21 2 0.32407764D-01 0.23315694D+00 0.24053443D+06 0.24053443D+06 0.24053443D+06 0.10917224D+01  1  2 15  3  6  4        1 -.225734782983D-02 0.100000000000D+01
-.152939577002D-04 0.000000000000D+00 0.000000000000D+00 0.347052634933D-06 0.000000000000D+00  6 -4 2 25 1 -3 21 2 0.32407764D-01 0.23315694D+00 0.24053443D+06 0.24053443D+06 0.24053443D+06 0.10917224D+01  1  2  4  3  6  4        1 -.145008256387D-03 0.100000000000D+01
  </mgrwgt>
  </event>
  <event>
  5     66 -.20411069E-05 0.11847718E+02 0.75467711E-02 0.92289091E-01
       -4 -1    0    0    0  501 0.00000000E+00 0.00000000E+00 0.56099479E+03 0.56099693E+03 0.15500000E+01 0.0000E+00 0.9000E+01
        2 -1    0    0  502    0 0.00000000E+00 0.00000000E+00 -.18089403E+04 0.18089403E+04 0.32000000E+00 0.0000E+00 0.9000E+01
       25  1    1    2    0    0 -.16871407E+03 -.57581775E+03 -.97343165E+03 0.11503150E+04 0.12500000E+03 0.0000E+00 0.9000E+01
        1  1    1    2  502    0 0.62130996E+01 -.10087526E+02 -.55139627E+03 0.55152362E+03 0.32000000E+00 0.0000E+00 0.9000E+01
       -3  1    1    2    0  501 0.16250097E+03 0.58590528E+03 0.27688243E+03 0.66809856E+03 0.50000000E+00 0.0000E+00 0.9000E+01
#aMCatNLO 1  0  0  1  1 0.26380169D+01 0.00000000D+00  -5  6  0 0.00000000D+00 0.00000000D+00 0.00000000D+00 0.00000000D+00 0.00000000D+00
  <mgrwgt>
 -.9718125434D-02   10    4    0
 0.100737710651980D+04 0.000000000000000D+00 0.000000000000000D+00 0.100737710651980D+04
 0.100737710651980D+04 0.000000000000000D+00 0.000000000000000D+00 -.100737710651980D+04
 0.750143706185773D+03 -.168713791950557D+03 -.575815199873821D+03 -.432507909673411D+03
 0.307234357572421D+03 0.621348959697261D+01 -.100876640917804D+02 -.307005833907335D+03
 0.957376149281414D+03 0.162500302353584D+03 0.585902863965601D+03 0.739513743580746D+03
 0.000000000000000D+00 0.000000000000000D+00 0.000000000000000D+00 0.000000000000000D+00
 0.101637154358460D+04 0.000000000000000D+00 0.000000000000000D+00 0.101637154358460D+04
 0.100757141742429D+04 0.000000000000000D+00 0.000000000000000D+00 -.100757141742429D+04
 0.750917234893604D+03 -.169154858680587D+03 -.576693363508670D+03 -.432507909673411D+03
 0.307242772579084D+03 0.603293369077487D+01 -.104471508090602D+02 -.307005833907335D+03
 0.956595932608873D+03 0.161937907193983D+03 0.584783135489272D+03 0.739513743580746D+03
 0.918702092732515D+01 0.118401779582973D+01 0.235737882845867D+01 0.880012616031177D+01
 0.100737710651980D+04 0.000000000000000D+00 0.000000000000000D+00 0.100737710651980D+04
 0.100737710651980D+04 0.000000000000000D+00 0.000000000000000D+00 -.100737710651980D+04
 0.750143706185773D+03 -.168713791950557D+03 -.575815199873821D+03 -.432507909673411D+03
 0.307234357572421D+03 0.621348959697261D+01 -.100876640917804D+02 -.307005833907335D+03
 0.000000000000000D+00 0.000000000000000D+00 0.000000000000000D+00 0.000000000000000D+00
 0.957376149281414D+03 0.162500302353584D+03 0.585902863965601D+03 0.739513743580746D+03
 0.101637154358460D+04 0.000000000000000D+00 0.000000000000000D+00 0.101637154358460D+04
 0.100757141742429D+04 0.000000000000000D+00 0.000000000000000D+00 -.100757141742429D+04
 0.750917234893604D+03 -.169154858680587D+03 -.576693363508670D+03 -.432507909673411D+03
 0.307242772579084D+03 0.603293369077487D+01 -.104471508090602D+02 -.307005833907335D+03
 0.918702092732515D+01 0.118401779582973D+01 0.235737882845867D+01 0.880012616031177D+01
 0.956595932608873D+03 0.161937907193983D+03 0.584783135489272D+03 0.739513743580746D+03
0.644138420541D-03 0.000000000000D+00 0.000000000000D+00 0.557922069693D-04 0.000000000000D+00  6 -4 2 25 1 -3 21 0 0.86307057D-01 0.27829867D+00 0.37993222D+06 0.37993222D+06 0.37993222D+06 0.10770428D+01  1  2  2  1  6  1       -4 0.364899659593D-03 0.100000000000D+01
0.526357953730D-03 0.000000000000D+00 -.247366114042D-05 0.557922069693D-04 0.000000000000D+00  6 -4 2 25 1 -3 21 2 0.86307057D-01 0.27829867D+00 0.37993222D+06 0.37993222D+06 0.37993222D+06 0.10770428D+01  1  2  3  1  6  1       -4 0.345892682247D-03 0.100000000000D+01
-.412461213025D-03 0.000000000000D+00 0.000000000000D+00 0.557922069693D-04 0.000000000000D+00  6 -4 2 25 1 -3 21 2 0.86307057D-01 0.27829867D+00 0.37993222D+06 0.37993222D+06 0.37993222D+06 0.10770428D+01  1  2 15  1  6  1       -4 -.271046184987D-03 0.100000000000D+01
-.696210014480D+00 0.000000000000D+00 0.000000000000D+00 0.557922069693D-04 0.000000000000D+00  6 -4 2 25 1 -3 21 2 0.86307057D-01 0.27829867D+00 0.37993222D+06 0.37993222D+06 0.37993222D+06 0.10770428D+01  1  2  4  1  6  1       -4 -.457509851630D+00 0.100000000000D+01
-.472430202696D+00 0.000000000000D+00 -.151487788595D-01 0.557922069693D-04 0.000000000000D+00  6 -4 2 25 1 -3 21 2 0.87085767D-01 0.27829867D+00 0.37993222D+06 0.37993222D+06 0.37993222D+06 0.10770428D+01  1  2  5  1  6  1       -4 -.303134358572D+00 0.100000000000D+01
0.472547819204D+00 0.000000000000D+00 0.151481677943D-01 0.557922069693D-04 0.000000000000D+00  6 -4 2 25 1 -3 21 2 0.86307057D-01 0.27829867D+00 0.37993222D+06 0.37993222D+06 0.37993222D+06 0.10770428D+01  1  2  6  1  6  1       -4 0.310531704738D+00 0.100000000000D+01
0.690195131555D+00 0.000000000000D+00 0.000000000000D+00 0.557922069693D-04 0.135659190388D-03  6 -4 2 25 1 -3 21 2 0.87077656D-01 0.27835235D+00 0.38151891D+06 0.38151891D+06 0.38151891D+06 0.10769118D+01  1  2 11  1  6  1       -4 0.442591686400D+00 0.100000000000D+01
0.422145658592D-05 0.000000000000D+00 0.000000000000D+00 0.557922069693D-04 0.000000000000D+00  6 21 2 25 1 4 -3 2 0.87154832D-01 0.27829867D+00 0.38151891D+06 0.38151891D+06 0.38151891D+06 0.10769118D+01  3  4 12  5  5  1       -4 0.578569914289D-04 0.100000000000D+01
-.787282219793D-03 0.000000000000D+00 -.251723723343D-04 0.557922069693D-04 0.000000000000D+00  6 21 2 25 1 4 -3 2 0.87085767D-01 0.27829867D+00 0.37993222D+06 0.37993222D+06 0.37993222D+06 0.10770428D+01  3  4  5  5  5  1       -4 -.108181596152D-01 0.100000000000D+01
0.591653814603D-03 0.000000000000D+00 0.000000000000D+00 0.557922069693D-04 0.810952503856D-07  6 21 2 25 1 4 -3 2 0.87077656D-01 0.27835235D+00 0.38151891D+06 0.38151891D+06 0.38151891D+06 0.10769118D+01  3  4 11  5  5  1       -4 0.812325009667D-02 0.100000000000D+01
  </mgrwgt>
  </event>
  <event>
  6     66 0.20411069E-05 0.25654510E+03 0.75467711E-02 0.91096243E-01
       -4 -1    0    0    0  501 0.00000000E+00 0.00000000E+00 0.54120723E+03 0.54120945E+03 0.15500000E+01 0.0000E+00 0.9000E+01
        2 -1    0    0  502    0 -.00000000E+00 -.00000000E+00 -.21861299E+04 0.21861300E+04 0.32000000E+00 0.0000E+00 0.9000E+01
       25  1    1    2    0    0 0.57532371E+03 -.29773853E+03 0.60539260E+02 0.66252216E+03 0.12500000E+03 0.0000E+00 0.9000E+01
        1  1    1    2  503    0 -.23537750E+03 -.34518143E+02 -.14131921E+04 0.14330757E+04 0.32000000E+00 0.0000E+00 0.9000E+01
       -3  1    1    2    0  501 -.32000138E+03 0.33637426E+03 -.14982855E+03 0.48784974E+03 0.50000000E+00 0.0000E+00 0.9000E+01
       21  1    1    2  502  503 -.19944836E+02 -.41175778E+01 -.14244133E+03 0.14389178E+03 0.75000000E+00 0.0000E+00 0.9000E+01
#aMCatNLO 2  0  0  4  2 0.34450822D+01 0.00000000D+00  -5  6  0 0.00000000D+00 0.00000000D+00 0.00000000D+00 0.00000000D+00 0.00000000D+00
  <mgrwgt>
 0.7936495784D-05    5    2    0
 0.108772808293795D+04 0.000000000000000D+00 0.000000000000000D+00 0.108772808293795D+04
 0.108772808293795D+04 -.000000000000000D+00 -.000000000000000D+00 -.108772808293795D+04
 0.876456543872616D+03 0.575239980771782D+03 -.297572341358293D+03 0.577148801850402D+03
 0.800916965223794D+03 -.255400546900222D+03 -.386397875773910D+02 -.758119721839720D+03
 0.498082656779500D+03 -.319839433871560D+03 0.336212128935684D+03 0.180970919989318D+03
 0.000000000000000D+00 0.000000000000000D+00 0.000000000000000D+00 -.000000000000000D+00
 0.108772808293795D+04 0.000000000000000D+00 0.000000000000000D+00 0.108772808293795D+04
 0.108772808293795D+04 -.000000000000000D+00 -.000000000000000D+00 -.108772808293795D+04
 0.876426175032760D+03 0.575228116118392D+03 -.297574136372799D+03 0.577113583336437D+03
 0.730452253549311D+03 -.236149259481957D+03 -.346232250026558D+02 -.690358786611574D+03
 0.498079026353909D+03 -.319846176543482D+03 0.336211108830543D+03 0.180950905339296D+03
 0.704987109399298D+02 -.192326800929533D+02 -.401374745508829D+01 -.677057020641590D+02
-.540262301112D-04 0.000000000000D+00 0.000000000000D+00 0.130927853489D-06 0.000000000000D+00  6 -4 2 25 1 -3 21 2 0.83262823D-01 0.33632785D+00 0.47745383D+06 0.47745383D+06 0.47745383D+06 0.10699295D+01  1  2 13  3  6  4        1 -.235860510596D-04 0.100000000000D+01
-.243012154647D-04 0.000000000000D+00 0.000000000000D+00 0.130927853489D-06 0.000000000000D+00  6 -4 2 25 1 -3 21 2 0.83262823D-01 0.33632785D+00 0.47744803D+06 0.47744803D+06 0.47744803D+06 0.10699299D+01  1  2  8  3  6  4        1 -.106091143951D-04 0.100000000000D+01
-.160665349272D-04 0.000000000000D+00 0.000000000000D+00 0.130927853489D-06 0.000000000000D+00  6 -4 2 25 1 -3 21 2 0.83262823D-01 0.33632785D+00 0.47744803D+06 0.47744803D+06 0.47744803D+06 0.10699299D+01  1  2  9  3  6  4        1 -.701412269778D-05 0.100000000000D+01
0.175427296030D-04 0.000000000000D+00 0.000000000000D+00 0.130927853489D-06 0.000000000000D+00  6 -4 2 25 1 -3 21 2 0.83262823D-01 0.33632785D+00 0.47744803D+06 0.47744803D+06 0.47744803D+06 0.10699299D+01  1  2 10  3  6  4        1 0.765858092285D-05 0.100000000000D+01
0.950306251370D-04 0.000000000000D+00 0.000000000000D+00 0.130927853489D-06 0.759957900104D-07  6 -4 2 25 1 -3 21 2 0.83262823D-01 0.33632785D+00 0.47745383D+06 0.47745383D+06 0.47745383D+06 0.10699295D+01  1  2  1  3  6  4        1 0.414872030140D-04 0.100000000000D+01
  </mgrwgt>
  </event>
  <event>
  6     66 0.20411069E-05 0.15681741E+03 0.75467711E-02 0.93407557E-01
       21 -1    0    0  503  501 0.00000000E+00 0.00000000E+00 0.14126840E+04 0.14126842E+04 0.75000000E+00 0.0000E+00 0.9000E+01
        2 -1    0    0  502    0 0.00000000E+00 0.00000000E+00 -.92091353E+03 0.92091358E+03 0.32000000E+00 0.0000E+00 0.9000E+01
       25  1    1    2    0    0 -.48214268E+03 -.14907277E+03 -.84965947E+02 0.52680971E+03 0.12500000E+03 0.0000E+00 0.9000E+01
        1  1    1    2  502    0 0.10686753E+03 0.44960527E+01 -.55923106E+03 0.56936839E+03 0.32000000E+00 0.0000E+00 0.9000E+01
        4  1    1    2  503    0 0.10041301E+03 0.18479653E+03 0.55316099E+03 0.59179558E+03 0.15500000E+01 0.0000E+00 0.9000E+01
       -3  1    1    2    0  501 0.27486214E+03 -.40219810E+02 0.58280648E+03 0.64562410E+03 0.50000000E+00 0.0000E+00 0.9000E+01
#aMCatNLO 2  0  0  1  4 0.21031531D+03 0.00000000D+00  -5  6  0 0.00000000D+00 0.00000000D+00 0.00000000D+00 0.00000000D+00 0.00000000D+00
  <mgrwgt>
 0.1979847583D-02    1    2    0
 0.863984021585773D+03 0.000000000000000D+00 0.000000000000000D+00 0.863984021585773D+03
 0.863984021585773D+03 0.000000000000000D+00 0.000000000000000D+00 -.863984021585773D+03
 0.484028455655194D+03 -.452958070151496D+03 -.953730919482911D+02 -.662684381950190D+02
 0.560854068751266D+03 0.139061458425704D+03 0.636880626574298D+02 -.539595244503053D+03
 0.000000000000000D+00 0.000000000000000D+00 0.000000000000000D+00 0.000000000000000D+00
 0.683085518765085D+03 0.313896611725792D+03 0.316850292908613D+02 0.605863682698072D+03
 0.146338237615863D+04 0.000000000000000D+00 0.000000000000000D+00 0.146338237615863D+04
 0.889007069490232D+03 0.000000000000000D+00 0.000000000000000D+00 -.889007069490232D+03
 0.524121675963780D+03 -.482142414321047D+03 -.149082921982857D+03 -.662684381950190D+02
 0.550101016786029D+03 0.106901074216690D+03 0.450123427858230D+01 -.539595244503053D+03
 0.611669454649912D+03 0.100413006189336D+03 0.184796528726381D+03 0.574375306668402D+03
 0.666497298249145D+03 0.274828333915021D+03 -.402148410221058D+02 0.605863682698072D+03
0.637733932309D-03 0.000000000000D+00 0.000000000000D+00 0.145637090234D-04 0.352920390371D-09  6 21 2 25 1 4 -3 2 0.21733578D+00 0.14167887D+00 0.31079595D+06 0.31079595D+06 0.31079595D+06 0.10834177D+01  1  2  1  5  5  1       -4 0.197984758260D-02 0.100000000000D+01
  </mgrwgt>
  </event>
  <event>
  6     66 -.20411069E-05 0.22667499E+03 0.75467711E-02 0.91444231E-01
       -4 -1    0    0    0  501 0.00000000E+00 0.00000000E+00 0.25390091E+03 0.25390564E+03 0.15500000E+01 0.0000E+00 0.9000E+01
        2 -1    0    0  502    0 -.00000000E+00 -.00000000E+00 -.19867132E+04 0.19867132E+04 0.32000000E+00 0.0000E+00 0.9000E+01
       25  1    1    2    0    0 -.49095478E+03 -.37603956E+02 -.92809078E+03 0.10580303E+04 0.12500000E+03 0.0000E+00 0.9000E+01
        1  1    1    2  502    0 0.54933221E+03 -.19968773E+03 -.69493933E+03 0.90806488E+03 0.32000000E+00 0.0000E+00 0.9000E+01
       -3  1    1    2    0  503 -.46227716E+02 0.17742183E+03 -.52351981E+02 0.19067377E+03 0.50000000E+00 0.0000E+00 0.9000E+01
       21  1    1    2  503  501 -.12149709E+02 0.59869855E+02 -.57430210E+02 0.83849904E+02 0.75000000E+00 0.0000E+00 0.9000E+01
#aMCatNLO 2  0  0  5  1 0.24065728D+02 0.00000000D+00  -5  6  0 0.00000000D+00 0.00000000D+00 0.00000000D+00 0.00000000D+00 0.00000000D+00
  <mgrwgt>
 -.4525110542D-04    3    2    0
 0.710234905453792D+03 0.000000000000000D+00 0.000000000000000D+00 0.710234905453792D+03
 0.710234905453792D+03 -.000000000000000D+00 -.000000000000000D+00 -.710234905453792D+03
 0.537339664356571D+03 -.491004868650798D+03 -.391992740282820D+02 -.174603982679952D+03
 0.586000674144030D+03 0.550198318529030D+03 -.201409377971712D+03 0.106236928670893D+02
 0.297129472406982D+03 -.591934498782317D+02 0.240608651999994D+03 0.163980289812863D+03
 0.000000000000000D+00 0.000000000000000D+00 0.000000000000000D+00 0.000000000000000D+00
 0.710234905453792D+03 0.000000000000000D+00 0.000000000000000D+00 0.710234905453792D+03
 0.710234905453792D+03 -.000000000000000D+00 -.000000000000000D+00 -.710234905453792D+03
 0.537214894639030D+03 -.491463225175059D+03 -.373361532663605D+02 -.173334223342718D+03
 0.584863340688827D+03 0.549698880733407D+03 -.199379270670822D+03 0.120072573431963D+02
 0.236145882431713D+03 -.460763397329696D+02 0.176804691274579D+03 0.149605981997930D+03
 0.622456931480146D+02 -.121593158253780D+02 0.599107326626035D+02 0.117209840015914D+02
-.358792878664D-04 0.000000000000D+00 0.000000000000D+00 0.241030698425D-08 0.000000000000D+00  6 -4 2 25 1 -3 21 2 0.39062044D-01 0.30564855D+00 0.44693594D+06 0.44693594D+06 0.44693594D+06 0.10719711D+01  1  2 13  4  6  5       -3 -.120955399673D-03 0.100000000000D+01
-.477805006814D-06 0.000000000000D+00 0.000000000000D+00 0.241030698425D-08 0.000000000000D+00  6 -4 2 25 1 -3 21 2 0.39062044D-01 0.30564855D+00 0.45015227D+06 0.45015227D+06 0.45015227D+06 0.10717489D+01  1  2  8  4  6  5       -3 -.160972272490D-05 0.100000000000D+01
0.229338407275D-04 0.000000000000D+00 0.000000000000D+00 0.241030698425D-08 0.102904027433D-10  6 -4 2 25 1 -3 21 2 0.39062044D-01 0.30564855D+00 0.44693594D+06 0.44693594D+06 0.44693594D+06 0.10719711D+01  1  2  1  4  6  5       -3 0.773140169772D-04 0.100000000000D+01
  </mgrwgt>
  </event>
  <event>
  6     66 0.20411069E-05 0.70545550E+02 0.75467711E-02 0.94937052E-01
       -4 -1    0    0    0  501 0.00000000E+00 0.00000000E+00 0.28513481E+03 0.28513902E+03 0.15500000E+01 0.0000E+00 0.9000E+01
        2 -1    0    0  502    0 -.00000000E+00 -.00000000E+00 -.19165374E+04 0.19165375E+04 0.32000000E+00 0.0000E+00 0.9000E+01
       25  1    1    2    0    0 -.45413720E+03 0.79471904E+02 -.11803222E+04 0.12733192E+04 0.12500000E+03 0.0000E+00 0.9000E+01
        1  1    1    2  502    0 0.23510279E+01 0.13949150E+02 -.41920495E+03 0.41944368E+03 0.32000000E+00 0.0000E+00 0.9000E+01
       -3  1    1    2    0  503 0.38265293E+03 -.12853131E+03 -.88060040E+02 0.41315661E+03 0.50000000E+00 0.0000E+00 0.9000E+01
       21  1    1    2  503  501 0.69133241E+02 0.35110259E+02 0.56184538E+02 0.95756985E+02 0.75000000E+00 0.0000E+00 0.9000E+01
#aMCatNLO 2  0  0  5  5 0.94709531D+02 0.00000000D+00  -5  6  0 0.00000000D+00 0.00000000D+00 0.00000000D+00 0.00000000D+00 0.00000000D+00
  <mgrwgt>
 0.7049486864D-02    1    2    0
 0.739240291897818D+03 0.000000000000000D+00 0.000000000000000D+00 0.739240291897818D+03
 0.739240291897818D+03 -.000000000000000D+00 -.000000000000000D+00 -.739240291897818D+03
 0.606276626217391D+03 -.462695946429351D+03 0.812356093740310D+02 -.362297646176481D+03
 0.164813074115346D+03 0.185959129315165D-01 0.144375390817880D+02 -.164179494818337D+03
 0.707390883462899D+03 0.462677350516420D+03 -.956731484558191D+02 0.526477140994818D+03
 0.000000000000000D+00 0.000000000000000D+00 0.000000000000000D+00 0.000000000000000D+00
 0.739240291897818D+03 0.000000000000000D+00 0.000000000000000D+00 0.739240291897818D+03
 0.739240291897818D+03 -.000000000000000D+00 -.000000000000000D+00 -.739240291897818D+03
 0.593677089535992D+03 -.454122532925396D+03 0.794627854784555D+02 -.352542022251751D+03
 0.162140135411616D+03 0.235460689812204D+01 0.139544950651940D+02 -.161521365166123D+03
 0.517889806848466D+03 0.382545874363107D+03 -.128536981390632D+03 0.324571641491199D+03
 0.204773551999562D+03 0.692220516641664D+02 0.351197008469823D+02 0.189491745926674D+03
0.231850195290D-02 0.000000000000D+00 0.000000000000D+00 0.270822147318D-04 0.331725136069D-07  6 -4 2 25 1 -3 21 2 0.43867220D-01 0.29485224D+00 0.23668423D+06 0.23668423D+06 0.23668423D+06 0.10922519D+01  1  2  1  4  6  5       -3 0.704948686432D-02 0.100000000000D+01
  </mgrwgt>
  </event>
  <event>
  5     66 0.20411069E-05 0.13645147E+02 0.75467711E-02 0.92655652E-01
       -4 -1    0    0    0  501 0.00000000E+00 0.00000000E+00 0.49191062E+03 0.49191307E+03 0.15500000E+01 0.0000E+00 0.9000E+01
        2 -1    0    0  502    0 -.00000000E+00 -.00000000E+00 -.14289296E+04 0.14289296E+04 0.32000000E+00 0.0000E+00 0.9000E+01
       25  1    1    2    0    0 0.46655767E+03 0.29195973E+03 -.13772694E+03 0.58095633E+03 0.12500000E+03 0.0000E+00 0.9000E+01
        1  1    1    2  502    0 -.47806680E+03 -.28460801E+03 -.99698484E+03 0.11417217E+04 0.32000000E+00 0.0000E+00 0.9000E+01
       -3  1    1    2    0  501 0.11509137E+02 -.73517180E+01 0.19769284E+03 0.19816463E+03 0.50000000E+00 0.0000E+00 0.9000E+01
#aMCatNLO 1  0  0  5  5 0.24914313D+02 0.00000000D+00  -5  6  0 0.00000000D+00 0.00000000D+00 0.00000000D+00 0.00000000D+00 0.00000000D+00
  <mgrwgt>
 0.2594927278D-02    6    2    0
 0.838396093184002D+03 0.000000000000000D+00 0.000000000000000D+00 0.838396093184002D+03
 0.838396093184002D+03 -.000000000000000D+00 -.000000000000000D+00 -.838396093184002D+03
 0.588764921900719D+03 0.466704310481324D+03 0.292038908071383D+03 0.167091280476828D+03
 0.750834715234371D+03 -.478203633219868D+03 -.284693459203372D+03 -.504007627981180D+03
 0.337192549232914D+03 0.114993227385445D+02 -.734544886801175D+01 0.336916347504352D+03
 0.000000000000000D+00 0.000000000000000D+00 -.000000000000000D+00 0.000000000000000D+00
 0.838396093184002D+03 0.000000000000000D+00 0.000000000000000D+00 0.838396093184002D+03
 0.838396093184002D+03 -.000000000000000D+00 -.000000000000000D+00 -.838396093184002D+03
 0.589849719518208D+03 0.466826583370435D+03 0.291960803536418D+03 0.170673729298810D+03
 0.747723189763631D+03 -.478048168491953D+03 -.284792765765649D+03 -.499452698140015D+03
 0.242453393221206D+03 0.158293419917600D+02 0.309351597033482D+02 0.239950194229371D+03
 0.967658838649593D+02 -.460775687024242D+01 -.381031974741172D+02 0.888287746118338D+02
0.538707338673D-03 0.000000000000D+00 0.000000000000D+00 0.351865322560D-04 0.000000000000D+00  6 -4 2 25 1 -3 21 0 0.75678748D-01 0.21983551D+00 0.32190603D+06 0.32190603D+06 0.32190603D+06 0.10822946D+01  1  2  2  4  6  5       -3 0.698037538650D-03 0.100000000000D+01
0.442515380027D-03 0.000000000000D+00 -.206877802540D-05 0.351865322560D-04 0.000000000000D+00  6 -4 2 25 1 -3 21 2 0.75678748D-01 0.21983551D+00 0.32190603D+06 0.32190603D+06 0.32190603D+06 0.10822946D+01  1  2  3  4  6  5       -3 0.671653434977D-03 0.100000000000D+01
-.326232173463D-03 0.000000000000D+00 0.000000000000D+00 0.351865322560D-04 0.000000000000D+00  6 -4 2 25 1 -3 21 2 0.75678748D-01 0.21983551D+00 0.32190603D+06 0.32190603D+06 0.32190603D+06 0.10822946D+01  1  2 15  4  6  5       -3 -.495157840373D-03 0.100000000000D+01
-.834196267746D-04 0.000000000000D+00 0.000000000000D+00 0.351865322560D-04 0.000000000000D+00  6 -4 2 25 1 -3 21 2 0.75678748D-01 0.21983551D+00 0.32190603D+06 0.32190603D+06 0.32190603D+06 0.10822946D+01  1  2  4  4  6  5       -3 -.126614986499D-03 0.100000000000D+01
-.297721237484D-02 0.000000000000D+00 0.000000000000D+00 0.351865322560D-04 0.000000000000D+00  6 -4 2 25 1 -3 21 2 0.75678748D-01 0.21983551D+00 0.32190603D+06 0.32190603D+06 0.32190603D+06 0.10822946D+01  1  2  5  4  6  5       -3 -.451883710368D-02 0.100000000000D+01
0.419410475590D-02 0.000000000000D+00 -.000000000000D+00 0.351865322560D-04 0.000000000000D+00  6 -4 2 25 1 -3 21 2 0.75678748D-01 0.21983551D+00 0.32190603D+06 0.32190603D+06 0.32190603D+06 0.10822946D+01  1  2  6  4  6  5       -3 0.636584623517D-02 0.100000000000D+01
  </mgrwgt>
  </event>
  <event>
  6     66 0.20411069E-05 0.13956631E+03 0.75467711E-02 0.94158532E-01
       -2 -1    0    0    0  501 0.00000000E+00 0.00000000E+00 0.13323684E+04 0.13323685E+04 0.32000000E+00 0.0000E+00 0.9000E+01
        4 -1    0    0  503    0 0.00000000E+00 0.00000000E+00 -.17820703E+04 0.17820709E+04 0.15500000E+01 0.0000E+00 0.9000E+01
       25  1    1    2    0    0 0.46987598E+03 0.18523250E+03 0.38639512E+03 0.64809004E+03 0.12500000E+03 0.0000E+00 0.9000E+01
        3  1    1    2  502    0 -.31010484E+03 -.16146797E+03 -.11507557E+04 0.12026953E+04 0.50000000E+00 0.0000E+00 0.9000E+01
       -1  1    1    2    0  501 -.14510509E+03 -.39904922E+02 0.78172466E+03 0.79607879E+03 0.32000000E+00 0.0000E+00 0.9000E+01
       21  1    1    2  503  502 -.14666038E+02 0.16140393E+02 -.46706587E+03 0.46757533E+03 0.75000000E+00 0.0000E+00 0.9000E+01
#aMCatNLO 2  0  0  2  4 0.21808368D+02 0.00000000D+00  -5  6  0 0.00000000D+00 0.00000000D+00 0.00000000D+00 0.00000000D+00 0.00000000D+00
  <mgrwgt>
 0.5544657164D-04    2    2    0
 0.132335863756362D+04 0.000000000000000D+00 0.000000000000000D+00 0.132335863756362D+04
 0.132335863756362D+04 0.000000000000000D+00 0.000000000000000D+00 -.132335863756362D+04
 0.644205829597694D+03 0.466317498658000D+03 0.189176950643737D+03 0.382277677452053D+03
 0.121107040496140D+04 -.316849450236465D+03 -.154102320890832D+03 -.115868478299936D+04
 0.791441040568148D+03 -.149468048421536D+03 -.350746297529054D+02 0.776407105547307D+03
 0.000000000000000D+00 -.000000000000000D+00 0.000000000000000D+00 -.000000000000000D+00
 0.132365632918870D+04 0.000000000000000D+00 0.000000000000000D+00 0.132365632918870D+04
 0.179379961509329D+04 0.000000000000000D+00 0.000000000000000D+00 -.179379961509329D+04
 0.645658013194339D+03 0.469891146431103D+03 0.185244049377001D+03 0.382277677452053D+03
 0.121029554188038D+04 -.310140905708953D+03 -.161485265418491D+03 -.115868478299936D+04
 0.790853566607922D+03 -.145084203079312D+03 -.398991765449476D+02 0.776407105547307D+03
 0.470648822599350D+03 -.146660376428382D+02 0.161403925864385D+02 -.470143285904594D+03
-.255755317809D+00 0.000000000000D+00 0.000000000000D+00 0.725562893453D-04 0.000000000000D+00  6 -2 4 25 3 -1 21 2 0.20493367D+00 0.27547190D+00 0.27158052D+06 0.27158052D+06 0.27158052D+06 0.10877642D+01  1  2 13  2  6  2        4 -.317393778575D-03 0.100000000000D+01
0.293691132387D+00 0.000000000000D+00 0.000000000000D+00 0.725562893453D-04 0.114140805924D-05  6 -2 4 25 3 -1 21 2 0.20497977D+00 0.27416465D+00 0.27158052D+06 0.27158052D+06 0.27158052D+06 0.10877642D+01  1  2  1  2  6  2        4 0.372840350212D-03 0.100000000000D+01
  </mgrwgt>
  </event>
  <event>
  5     66 0.20411069E-05 0.81733068E+02 0.75467711E-02 0.92675550E-01
       -4 -1    0    0    0  501 0.00000000E+00 0.00000000E+00 0.13019053E+04 0.13019062E+04 0.15500000E+01 0.0000E+00 0.9000E+01
        2 -1    0    0  502    0 0.00000000E+00 0.00000000E+00 -.94078026E+03 0.94078031E+03 0.32000000E+00 0.0000E+00 0.9000E+01
       25  1    1    2    0    0 0.27612800E+03 -.50256174E+03 0.16336070E+03 0.60920168E+03 0.12500000E+03 0.0000E+00 0.9000E+01
        1  1    1    2  502    0 -.73459526E+02 0.35793543E+02 -.64437770E+03 0.64953845E+03 0.32000000E+00 0.0000E+00 0.9000E+01
       -3  1    1    2    0  501 -.20266847E+03 0.46676819E+03 0.84214200E+03 0.98394636E+03 0.50000000E+00 0.0000E+00 0.9000E+01
#aMCatNLO 1  0  0  5  1 0.33576954D+02 0.00000000D+00  -5  6  0 0.00000000D+00 0.00000000D+00 0.00000000D+00 0.00000000D+00 0.00000000D+00
  <mgrwgt>
 0.5036006023D-03    7    2    0
 0.110671037665648D+04 0.000000000000000D+00 0.000000000000000D+00 0.110671037665648D+04
 0.110671037665648D+04 -.000000000000000D+00 -.000000000000000D+00 -.110671037665648D+04
 0.590584343211860D+03 0.276120469948923D+03 -.502517638401511D+03 0.663202504333199D+02
 0.763374288890727D+03 -.734746978636111D+02 0.358017196974807D+02 -.758986172851638D+03
 0.859462121210365D+03 -.202645772085312D+03 0.466715918704030D+03 0.692665922418319D+03
 0.000000000000000D+00 0.000000000000000D+00 0.000000000000000D+00 0.000000000000000D+00
 0.110671037665648D+04 0.000000000000000D+00 0.000000000000000D+00 0.110671037665648D+04
 0.110671037665648D+04 -.000000000000000D+00 -.000000000000000D+00 -.110671037665648D+04
 0.589122845459898D+03 0.275402273321054D+03 -.500863551096671D+03 0.687751268642512D+02
 0.760415526515849D+03 -.744023693379515D+02 0.379382510445054D+02 -.755815287957950D+03
 0.805853587595620D+03 -.169508210817882D+03 0.461760156450297D+03 0.638313817037552D+03
 0.580287937415846D+02 -.314916931652212D+02 0.116514360186958D+01 0.487263440561464D+02
0.100481994595D-02 0.000000000000D+00 0.000000000000D+00 0.393599750756D-04 0.000000000000D+00  6 -4 2 25 1 -3 21 0 0.20029319D+00 0.14473550D+00 0.34656372D+06 0.34656372D+06 0.34656372D+06 0.10799461D+01  1  2  2  4  6  5       -3 0.127526591751D-03 0.100000000000D+01
0.319059559852D-03 0.000000000000D+00 -.385877316763D-05 0.393599750756D-04 0.000000000000D+00  6 -4 2 25 1 -3 21 2 0.20029319D+00 0.14473550D+00 0.34656372D+06 0.34656372D+06 0.34656372D+06 0.10799461D+01  1  2  3  4  6  5       -3 0.472267891522D-04 0.100000000000D+01
-.696173754826D-03 0.000000000000D+00 0.000000000000D+00 0.393599750756D-04 0.000000000000D+00  6 -4 2 25 1 -3 21 2 0.20029319D+00 0.14473550D+00 0.34656372D+06 0.34656372D+06 0.34656372D+06 0.10799461D+01  1  2 15  4  6  5       -3 -.103046751358D-03 0.100000000000D+01
0.828295267469D-02 0.000000000000D+00 0.000000000000D+00 0.393599750756D-04 0.000000000000D+00  6 -4 2 25 1 -3 21 2 0.20029319D+00 0.14473550D+00 0.35522444D+06 0.35522444D+06 0.35522444D+06 0.10791642D+01  1  2 12  4  6  5       -3 0.122297097481D-02 0.100000000000D+01
-.675794989098D-02 0.000000000000D+00 0.000000000000D+00 0.393599750756D-04 0.000000000000D+00  6 -4 2 25 1 -3 21 2 0.20029319D+00 0.14473550D+00 0.34656372D+06 0.34656372D+06 0.34656372D+06 0.10799461D+01  1  2  4  4  6  5       -3 -.100030312444D-02 0.100000000000D+01
-.202533942498D-01 0.000000000000D+00 0.000000000000D+00 0.393599750756D-04 0.000000000000D+00  6 -4 2 25 1 -3 21 2 0.20029319D+00 0.14473550D+00 0.34656372D+06 0.34656372D+06 0.34656372D+06 0.10799461D+01  1  2  5  4  6  5       -3 -.299788158768D-02 0.100000000000D+01
0.216669054308D-01 0.000000000000D+00 -.000000000000D+00 0.393599750756D-04 0.000000000000D+00  6 -4 2 25 1 -3 21 2 0.20029319D+00 0.14473550D+00 0.34656372D+06 0.34656372D+06 0.34656372D+06 0.10799461D+01  1  2  6  4  6  5       -3 0.320710771004D-02 0.100000000000D+01
  </mgrwgt>
  </event>
  <event>
  5     66 0.20411069E-05 0.32778320E+02 0.75467711E-02 0.94244916E-01
       -4 -1    0    0    0  501 0.00000000E+00 0.00000000E+00 0.51712884E+03 0.51713116E+03 0.15500000E+01 0.0000E+00 0.9000E+01
        2 -1    0    0  502    0 -.00000000E+00 -.00000000E+00 -.24356592E+04 0.24356593E+04 0.32000000E+00 0.0000E+00 0.9000E+01
       25  1    1    2    0    0 0.47497275E+03 0.12815950E+03 -.79861162E+03 0.94627136E+03 0.12500000E+03 0.0000E+00 0.9000E+01
        1  1    1    2  502    0 -.46708605E+03 -.15997848E+03 -.15235536E+04 0.16015549E+04 0.32000000E+00 0.0000E+00 0.9000E+01
       -3  1    1    2    0  501 -.78866979E+01 0.31818983E+02 0.40363481E+03 0.40496414E+03 0.50000000E+00 0.0000E+00 0.9000E+01
#aMCatNLO 1  0  0  4  2 0.28886725D+01 0.00000000D+00  -5  6  0 0.00000000D+00 0.00000000D+00 0.00000000D+00 0.00000000D+00 0.00000000D+00
  <mgrwgt>
 0.4774538017D-02    8    2    0
 0.112229812575289D+04 0.000000000000000D+00 0.000000000000000D+00 0.112229812575289D+04
 0.112229812575289D+04 -.000000000000000D+00 -.000000000000000D+00 -.112229812575289D+04
 0.562287840601374D+03 0.475064892111234D+03 0.128191179633283D+03 -.241708471998242D+03
 0.804667599117248D+03 -.467179036038061D+03 -.160006766118175D+03 -.635320020267005D+03
 0.877640811787167D+03 -.788585607317339D+01 0.318155864848915D+02 0.877028492265247D+03
 0.000000000000000D+00 -.000000000000000D+00 0.000000000000000D+00 0.000000000000000D+00
 0.112229812575289D+04 0.000000000000000D+00 0.000000000000000D+00 0.112229812575289D+04
 0.112229812575289D+04 -.000000000000000D+00 -.000000000000000D+00 -.112229812575289D+04
 0.562286677043212D+03 0.475061453441555D+03 0.128190001904035D+03 -.241713148269054D+03
 0.543310687909864D+03 -.313173232602677D+03 -.109199742918680D+03 -.430330624200478D+03
 0.877633499601818D+03 -.789122326623868D+01 0.318137482448609D+02 0.877021193382069D+03
 0.261365386950895D+03 -.153996997572639D+03 -.508040072302157D+02 -.204977420912537D+03
0.963285088577D-04 0.000000000000D+00 0.000000000000D+00 0.173941973989D-03 0.000000000000D+00  6 -4 2 25 1 -3 21 0 0.79558463D-01 0.37471699D+00 0.26743590D+06 0.26743590D+06 0.26743590D+06 0.10882632D+01  1  2  2  3  6  4        1 0.307761574549D-04 0.100000000000D+01
0.614321201745D-04 0.000000000000D+00 -.369926837892D-06 0.173941973989D-03 0.000000000000D+00  6 -4 2 25 1 -3 21 2 0.79558463D-01 0.37471699D+00 0.26743590D+06 0.26743590D+06 0.26743590D+06 0.10882632D+01  1  2  3  3  6  4        1 0.232446475241D-04 0.100000000000D+01
-.632180300465D-04 0.000000000000D+00 0.000000000000D+00 0.173941973989D-03 0.000000000000D+00  6 -4 2 25 1 -3 21 2 0.79558463D-01 0.37471699D+00 0.26743590D+06 0.26743590D+06 0.26743590D+06 0.10882632D+01  1  2 15  3  6  4        1 -.239203989936D-04 0.100000000000D+01
0.639019507150D-02 0.000000000000D+00 0.000000000000D+00 0.173941973989D-03 0.000000000000D+00  6 -4 2 25 1 -3 21 2 0.79558463D-01 0.37471699D+00 0.26743701D+06 0.26743701D+06 0.26743701D+06 0.10882631D+01  1  2 12  3  6  4        1 0.241791691005D-02 0.100000000000D+01
-.673278050747D+00 0.000000000000D+00 0.000000000000D+00 0.173941973989D-03 0.000000000000D+00  6 -4 2 25 1 -3 21 2 0.79558463D-01 0.37471699D+00 0.26743590D+06 0.26743590D+06 0.26743590D+06 0.10882632D+01  1  2  4  3  6  4        1 -.254754531194D+00 0.100000000000D+01
-.508426474247D+00 0.000000000000D+00 0.000000000000D+00 0.173941973989D-03 0.000000000000D+00  6 -4 2 25 1 -3 21 2 0.79558463D-01 0.37471699D+00 0.26743590D+06 0.26743590D+06 0.26743590D+06 0.10882632D+01  1  2  5  3  6  4        1 -.192378093939D+00 0.100000000000D+01
0.698445891248D+00 0.000000000000D+00 -.000000000000D+00 0.173941973989D-03 0.000000000000D+00  6 -4 2 25 1 -3 21 2 0.79558463D-01 0.37471699D+00 0.26743590D+06 0.26743590D+06 0.26743590D+06 0.10882632D+01  1  2  6  3  6  4        1 0.264277523071D+00 0.100000000000D+01
0.489407509494D+00 0.000000000000D+00 0.000000000000D+00 0.173941973989D-03 0.630841890474D-04  6 -4 2 25 1 -3 21 2 0.79558463D-01 0.37471699D+00 0.26743701D+06 0.26743701D+06 0.26743701D+06 0.10882631D+01  1  2 11  3  6  4        1 0.185181622763D+00 0.100000000000D+01
  </mgrwgt>
  </event>
  <event>
  6     66 0.20411069E-05 0.30921315E+02 0.75467711E-02 0.95346044E-01
       -4 -1    0    0    0  501 0.00000000E+00 0.00000000E+00 0.20146078E+03 0.20146674E+03 0.15500000E+01 0.0000E+00 0.9000E+01
        2 -1    0    0  502    0 -.00000000E+00 -.00000000E+00 -.25723343E+04 0.25723343E+04 0.32000000E+00 0.0000E+00 0.9000E+01
       25  1    1    2    0    0 -.95319541E+02 0.45081301E+03 -.90071242E+03 0.10194244E+04 0.12500000E+03 0.0000E+00 0.9000E+01
        1  1    1    2  503    0 0.79580927E+02 -.38784356E+03 -.13148256E+04 0.13731432E+04 0.32000000E+00 0.0000E+00 0.9000E+01
       -3  1    1    2    0  501 0.67221731E+01 -.41884813E+02 0.10844979E+03 0.11645228E+03 0.50000000E+00 0.0000E+00 0.9000E+01
       21  1    1    2  502  503 0.90164413E+01 -.21084637E+02 -.26378527E+03 0.26478121E+03 0.75000000E+00 0.0000E+00 0.9000E+01
#aMCatNLO 2  0  0  4  4 0.41725486D+02 0.00000000D+00  -5  6  0 0.00000000D+00 0.00000000D+00 0.00000000D+00 0.00000000D+00 0.00000000D+00
  <mgrwgt>
 0.1712516716D-01    1    2    0
 0.719883862579969D+03 0.000000000000000D+00 0.000000000000000D+00 0.719883862579969D+03
 0.719883862579969D+03 -.000000000000000D+00 -.000000000000000D+00 -.719883862579969D+03
 0.484084272893175D+03 -.961308289730540D+02 0.454555497736403D+03 -.533923820509880D+02
 0.550673867576325D+03 0.900712263469289D+02 -.415733210462340D+03 -.349706706161755D+03
 0.405009584690438D+03 0.605960262612509D+01 -.388222872740622D+02 0.403099088212743D+03
 0.000000000000000D+00 0.000000000000000D+00 0.000000000000000D+00 -.000000000000000D+00
 0.719883862579969D+03 0.000000000000000D+00 0.000000000000000D+00 0.719883862579969D+03
 0.719883862579969D+03 -.000000000000000D+00 -.000000000000000D+00 -.719883862579969D+03
 0.480858098541363D+03 -.953415624142375D+02 0.450912554993028D+03 -.564567547675783D+02
 0.480308267844789D+03 0.795910133640004D+02 -.387916974763949D+03 -.271811926599512D+03
 0.402772581002883D+03 0.672032130639437D+01 -.418719037753718D+02 0.400533810012949D+03
 0.758287777709028D+02 0.903022774384267D+01 -.211236764537068D+02 -.722651286458580D+02
0.629676314884D-02 0.000000000000D+00 0.000000000000D+00 0.254747440056D-04 0.448969161507D-06  6 -4 2 25 1 -3 21 2 0.30994427D-01 0.39574420D+00 0.22038842D+06 0.22038842D+06 0.22038842D+06 0.10946021D+01  1  2  1  3  6  4        1 0.171251671611D-01 0.100000000000D+01
  </mgrwgt>
  </event>
  <event>
  5     66 0.20411069E-05 0.11916399E+02 0.75467711E-02 0.80301064E-01
       -4 -1    0    0    0  501 0.00000000E+00 0.00000000E+00 0.11031450E+04 0.11031461E+04 0.15500000E+01 0.0000E+00 0.9000E+01
        2 -1    0    0  502    0 0.00000000E+00 0.00000000E+00 -.27575399E+04 0.27575399E+04 0.32000000E+00 0.0000E+00 0.9000E+01
       25  1    1    2    0    0 0.56218738E+03 0.36180709E+03 -.12465751E+04 0.14200470E+04 0.12500000E+03 0.0000E+00 0.9000E+01
        1  1    1    2  502    0 -.11915501E+02 -.11874761E-01 -.13175262E+04 0.13175802E+04 0.32000000E+00 0.0000E+00 0.9000E+01
       -3  1    1    2    0  501 -.55027188E+03 -.36179521E+03 0.90970653E+03 0.11230588E+04 0.50000000E+00 0.0000E+00 0.9000E+01
#aMCatNLO 1  0  0  1  5 0.63878819D+01 0.00000000D+00  -5  6  0 0.00000000D+00 0.00000000D+00 0.00000000D+00 0.00000000D+00 0.00000000D+00
  <mgrwgt>
 0.1203207706D-01    3    2    0
 0.174412400830988D+04 0.000000000000000D+00 0.000000000000000D+00 0.174412400830988D+04
 0.174412400830988D+04 0.000000000000000D+00 0.000000000000000D+00 -.174412400830988D+04
 0.980395660345366D+03 0.562185548923096D+03 0.361805384347251D+03 -.706112542916072D+03
 0.833440994907155D+03 -.119163932542897D+02 -.119615074879107D-01 -.833355801216119D+03
 0.167441136136724D+04 -.550269155668806D+03 -.361793422839763D+03 0.153946834413219D+04
 0.000000000000000D+00 0.000000000000000D+00 -.000000000000000D+00 -.000000000000000D+00
 0.282585971182045D+04 0.000000000000000D+00 0.000000000000000D+00 0.282585971182045D+04
 0.317264053396072D+04 0.000000000000000D+00 0.000000000000000D+00 -.317264053396072D+04
 0.115349196872010D+04 0.295550877523580D+03 0.853799436304231D+03 -.706112542916072D+03
 0.959733871071240D+03 -.235978140761309D+03 0.413426570195559D+03 -.833355801216119D+03
 0.189024340398038D+04 -.995681809580404D+03 0.460081599041871D+03 0.153946834413219D+04
 0.199503100200944D+04 0.936109072818133D+03 -.172730760554166D+04 -.346780822140272D+03
0.387010997453D+00 0.000000000000D+00 0.000000000000D+00 0.785434275432D-03 0.000000000000D+00  6 -4 2 25 1 -3 21 0 0.16971471D+00 0.42423699D+00 0.45603089D+06 0.45603089D+06 0.45603089D+06 0.10713472D+01  1  2  2  1  6  1       -4 0.812290546558D-02 0.100000000000D+01
0.404178487983D+00 0.000000000000D+00 -.148622413255D-02 0.785434275432D-03 0.000000000000D+00  6 -4 2 25 1 -3 21 2 0.16971471D+00 0.42423699D+00 0.45603089D+06 0.45603089D+06 0.45603089D+06 0.10713472D+01  1  2  3  1  6  1       -4 0.973692339778D-02 0.100000000000D+01
-.241909257739D+00 0.000000000000D+00 0.000000000000D+00 0.785434275432D-03 0.000000000000D+00  6 -4 2 25 1 -3 21 2 0.16971471D+00 0.42423699D+00 0.45603089D+06 0.45603089D+06 0.45603089D+06 0.10713472D+01  1  2 15  1  6  1       -4 -.582775180236D-02 0.100000000000D+01
  </mgrwgt>
  </event>
  <event>
  5     66 -.20411069E-05 0.47610232E+02 0.75467711E-02 0.93587135E-01
       -4 -1    0    0    0  501 0.00000000E+00 0.00000000E+00 0.37716257E+03 0.37716575E+03 0.15500000E+01 0.0000E+00 0.9000E+01
        2 -1    0    0  502    0 0.00000000E+00 0.00000000E+00 -.22928521E+04 0.22928521E+04 0.32000000E+00 0.0000E+00 0.9000E+01
       25  1    1    2    0    0 -.64400522E+02 -.48066074E+03 -.13000855E+04 0.13932083E+04 0.12500000E+03 0.0000E+00 0.9000E+01
        1  1    1    2  502    0 -.31300650E+02 -.35882072E+02 -.73625998E+03 0.73779816E+03 0.32000000E+00 0.0000E+00 0.9000E+01
       -3  1    1    2    0  501 0.95701172E+02 0.51654281E+03 0.12065593E+03 0.53901140E+03 0.50000000E+00 0.0000E+00 0.9000E+01
#aMCatNLO 1  0  0  1  5 0.24409737D+02 0.00000000D+00  -5  6  0 0.00000000D+00 0.00000000D+00 0.00000000D+00 0.00000000D+00 0.00000000D+00
  <mgrwgt>
 -.4580917569D-02    9    4    0
 0.929936699180140D+03 0.000000000000000D+00 0.000000000000000D+00 0.929936699180140D+03
 0.929936699180140D+03 0.000000000000000D+00 0.000000000000000D+00 -.929936699180140D+03
 0.661011771625029D+03 -.644048786498467D+02 -.480668203143037D+03 -.431418187284915D+03
 0.300778819721417D+03 -.312969354878490D+02 -.358780712912924D+02 -.296986808162408D+03
 0.898082807013833D+03 0.957018141376957D+02 0.516546274434329D+03 0.728404995447323D+03
 0.000000000000000D+00 -.000000000000000D+00 0.000000000000000D+00 0.000000000000000D+00
 0.128267936544834D+04 0.000000000000000D+00 0.000000000000000D+00 0.128267936544834D+04
 0.930439169958224D+03 0.000000000000000D+00 0.000000000000000D+00 -.930439169958224D+03
 0.663585347172156D+03 -.569484054858139D+02 -.485134764548998D+03 -.431418187284915D+03
 0.300694325401038D+03 -.279110996726809D+02 -.379062477825453D+02 -.296986808162408D+03
 0.895753900562317D+03 0.105799748883956D+03 0.510497430077842D+03 0.728404995447323D+03
 0.353084962271056D+03 -.209402437254613D+02 0.125435822537010D+02 0.352240195490117D+03
 0.929936699180140D+03 0.000000000000000D+00 0.000000000000000D+00 0.929936699180140D+03
 0.929936699180140D+03 0.000000000000000D+00 0.000000000000000D+00 -.929936699180140D+03
 0.661011771625029D+03 -.644048786498467D+02 -.480668203143037D+03 -.431418187284915D+03
 0.300778819721417D+03 -.312969354878490D+02 -.358780712912924D+02 -.296986808162408D+03
 0.000000000000000D+00 -.000000000000000D+00 0.000000000000000D+00 0.000000000000000D+00
 0.898082807013833D+03 0.957018141376957D+02 0.516546274434329D+03 0.728404995447323D+03
 0.128267936544834D+04 0.000000000000000D+00 0.000000000000000D+00 0.128267936544834D+04
 0.930439169958224D+03 0.000000000000000D+00 0.000000000000000D+00 -.930439169958224D+03
 0.663585347172156D+03 -.569484054858139D+02 -.485134764548998D+03 -.431418187284915D+03
 0.300694325401038D+03 -.279110996726809D+02 -.379062477825453D+02 -.296986808162408D+03
 0.353084962271056D+03 -.209402437254613D+02 0.125435822537010D+02 0.352240195490117D+03
 0.895753900562317D+03 0.105799748883956D+03 0.510497430077842D+03 0.728404995447323D+03
0.222146192195D-03 0.000000000000D+00 0.000000000000D+00 0.222826684877D-04 0.000000000000D+00  6 -4 2 25 1 -3 21 0 0.58025257D-01 0.35274672D+00 0.28824089D+06 0.28824089D+06 0.28824089D+06 0.10858390D+01  1  2  2  1  6  1       -4 0.185062141266D-03 0.100000000000D+01
0.599403555300D-04 0.000000000000D+00 -.853099870465D-06 0.222826684877D-04 0.000000000000D+00  6 -4 2 25 1 -3 21 2 0.58025257D-01 0.35274672D+00 0.28824089D+06 0.28824089D+06 0.28824089D+06 0.10858390D+01  1  2  3  1  6  1       -4 0.588747252262D-04 0.100000000000D+01
-.147628688700D-03 0.000000000000D+00 0.000000000000D+00 0.222826684877D-04 0.000000000000D+00  6 -4 2 25 1 -3 21 2 0.58025257D-01 0.35274672D+00 0.28824089D+06 0.28824089D+06 0.28824089D+06 0.10858390D+01  1  2 15  1  6  1       -4 -.145004119610D-03 0.100000000000D+01
0.553549738048D-01 0.000000000000D+00 0.000000000000D+00 0.222826684877D-04 0.000000000000D+00  6 -4 2 25 1 -3 21 2 0.80227188D-01 0.35274672D+00 0.30087143D+06 0.30087143D+06 0.30087143D+06 0.10844587D+01  1  2 12  1  6  1       -4 0.243822002521D-01 0.100000000000D+01
-.571229297736D-01 0.000000000000D+00 0.000000000000D+00 0.222826684877D-04 0.000000000000D+00  6 -4 2 25 1 -3 21 2 0.58025257D-01 0.35274672D+00 0.28824089D+06 0.28824089D+06 0.28824089D+06 0.10858390D+01  1  2  4  1  6  1       -4 -.561073881662D-01 0.100000000000D+01
-.559398463154D-01 0.000000000000D+00 -.184168316863D-03 0.222826684877D-04 0.000000000000D+00  6 -4 2 25 1 -3 21 2 0.80052221D-01 0.35274672D+00 0.28824089D+06 0.28824089D+06 0.28824089D+06 0.10858390D+01  1  2  5  1  6  1       -4 -.248973597143D-01 0.100000000000D+01
0.532283364248D-01 0.000000000000D+00 0.175027297412D-03 0.222826684877D-04 0.000000000000D+00  6 -4 2 25 1 -3 21 2 0.58025257D-01 0.35274672D+00 0.28824089D+06 0.28824089D+06 0.28824089D+06 0.10858390D+01  1  2  6  1  6  1       -4 0.522820335907D-01 0.100000000000D+01
0.226180159492D-02 0.000000000000D+00 0.000000000000D+00 0.222826684877D-04 0.000000000000D+00  6 21 2 25 1 4 -3 2 0.80227188D-01 0.35274672D+00 0.30087143D+06 0.30087143D+06 0.30087143D+06 0.10844587D+01  3  4 12  5  5  1       -4 0.212925882097D-01 0.100000000000D+01
-.226999560618D-02 0.000000000000D+00 -.748854424092D-05 0.222826684877D-04 0.000000000000D+00  6 21 2 25 1 4 -3 2 0.80052221D-01 0.35274672D+00 0.28824089D+06 0.28824089D+06 0.28824089D+06 0.10858390D+01  3  4  5  5  5  1       -4 -.216319244885D-01 0.100000000000D+01
  </mgrwgt>
  </event>
  <event>
  5     66 0.20411069E-05 0.26909825E+02 0.75467711E-02 0.89421022E-01
       -4 -1    0    0    0  501 0.00000000E+00 0.00000000E+00 0.11947509E+04 0.11947519E+04 0.15500000E+01 0.0000E+00 0.9000E+01
        2 -1    0    0  502    0 0.00000000E+00 0.00000000E+00 -.18165408E+04 0.18165408E+04 0.32000000E+00 0.0000E+00 0.9000E+01
       25  1    1    2    0    0 0.29425794E+03 -.37335899E+03 0.18239210E+02 0.49187635E+03 0.12500000E+03 0.0000E+00 0.9000E+01
        1  1    1    2  502    0 -.31264164E+03 0.35370393E+03 -.15442505E+04 0.16147944E+04 0.32000000E+00 0.0000E+00 0.9000E+01
       -3  1    1    2    0  501 0.18383701E+02 0.19655065E+02 0.90422141E+03 0.90462196E+03 0.50000000E+00 0.0000E+00 0.9000E+01
#aMCatNLO 1  0  0  2  4 0.18540778D+03 0.00000000D+00  -5  6  0 0.00000000D+00 0.00000000D+00 0.00000000D+00 0.00000000D+00 0.00000000D+00
  <mgrwgt>
 0.3813561211D-01    7    2    0
 0.147319901293946D+04 0.000000000000000D+00 0.000000000000000D+00 0.147319901293946D+04
 0.147319901293946D+04 0.000000000000000D+00 0.000000000000000D+00 -.147319901293946D+04
 0.506652435415567D+03 0.294308194093443D+03 -.373413084676785D+03 0.122544054911490D+03
 0.132448837641626D+04 -.312690075491904D+03 0.353759965043482D+03 -.123747657072087D+04
 0.111525721404710D+04 0.183818813984617D+02 0.196531196333032D+02 0.111493251580938D+04
 0.000000000000000D+00 -.000000000000000D+00 -.000000000000000D+00 -.000000000000000D+00
 0.157957025120949D+04 0.000000000000000D+00 0.000000000000000D+00 0.157957025120949D+04
 0.205806550906242D+04 0.000000000000000D+00 0.000000000000000D+00 -.205806550906242D+04
 0.525271042179141D+03 0.363429870420178D+03 -.336431793450298D+03 0.122544054911490D+03
 0.132323409616899D+04 -.135336793270196D+03 0.448647035617572D+03 -.123747657072087D+04
 0.113209805677544D+04 0.168917233092426D+03 0.100192133973194D+03 0.111493251580938D+04
 0.657032565148327D+03 -.397010310242407D+03 -.212407376140469D+03 -.478495257852928D+03
0.322864901723D+00 0.000000000000D+00 0.000000000000D+00 0.163571072004D-02 0.000000000000D+00  6 -4 2 25 1 -3 21 0 0.18380791D+00 0.27946790D+00 0.24535398D+06 0.24535398D+06 0.24535398D+06 0.10910725D+01  1  2  2  2  6  2        2 0.182262386310D-01 0.100000000000D+01
0.228471387410D+00 0.000000000000D+00 -.123988623490D-02 0.163571072004D-02 0.000000000000D+00  6 -4 2 25 1 -3 21 2 0.18380791D+00 0.27946790D+00 0.24535398D+06 0.24535398D+06 0.24535398D+06 0.10910725D+01  1  2  3  2  6  2        2 0.153537786452D-01 0.100000000000D+01
-.209108677549D+00 0.000000000000D+00 0.000000000000D+00 0.163571072004D-02 0.000000000000D+00  6 -4 2 25 1 -3 21 2 0.18380791D+00 0.27946790D+00 0.24535398D+06 0.24535398D+06 0.24535398D+06 0.10910725D+01  1  2 15  2  6  2        2 -.140525620485D-01 0.100000000000D+01
-.464439385359D-01 0.000000000000D+00 0.000000000000D+00 0.163571072004D-02 0.000000000000D+00  6 -4 2 25 1 -3 21 2 0.18380791D+00 0.27946790D+00 0.24535398D+06 0.24535398D+06 0.24535398D+06 0.10910725D+01  1  2  4  2  6  2        2 -.312113459709D-02 0.100000000000D+01
-.425219736169D+00 0.000000000000D+00 -.206205564379D+00 0.163571072004D-02 0.000000000000D+00  6 -4 2 25 1 -3 21 2 0.18380791D+00 0.39900027D+00 0.24535398D+06 0.24535398D+06 0.24535398D+06 0.10910725D+01  1  2  5  2  6  2        2 -.105138452387D-01 0.100000000000D+01
0.480289106252D+00 0.000000000000D+00 0.193789977260D+00 0.163571072004D-02 0.000000000000D+00  6 -4 2 25 1 -3 21 2 0.18380791D+00 0.27946790D+00 0.24535398D+06 0.24535398D+06 0.24535398D+06 0.10910725D+01  1  2  6  2  6  2        2 0.322764819993D-01 0.100000000000D+01
-.126194988197D-01 0.000000000000D+00 -.901916138301D-02 0.163571072004D-02 0.000000000000D+00  6 -4 21 25 1 -3 -2 2 0.18380791D+00 0.39900027D+00 0.24535398D+06 0.24535398D+06 0.24535398D+06 0.10910725D+01  1  2  5  6  6  2        2 -.333452824515D-04 0.100000000000D+01
  </mgrwgt>
  </event>
  <event>
  6     66 -.20411069E-05 0.61838460E+02 0.75467711E-02 0.91896807E-01
       -4 -1    0    0    0  501 0.00000000E+00 0.00000000E+00 0.25846209E+03 0.25846674E+03 0.15500000E+01 0.0000E+00 0.9000E+01
        2 -1    0    0  502    0 -.00000000E+00 -.00000000E+00 -.26313380E+04 0.26313380E+04 0.32000000E+00 0.0000E+00 0.9000E+01
       25  1    1    2    0    0 0.60790066E+03 -.72229036E+02 -.70375056E+03 0.94108985E+03 0.12500000E+03 0.0000E+00 0.9000E+01
        1  1    1    2  502    0 -.57805405E+03 0.41703333E+01 -.17458967E+04 0.18391082E+04 0.32000000E+00 0.0000E+00 0.9000E+01
       -3  1    1    2    0  503 -.43454449E+01 0.38689336E+02 0.43869788E+02 0.58656252E+02 0.50000000E+00 0.0000E+00 0.9000E+01
       21  1    1    2  503  501 -.25501169E+02 0.29369366E+02 0.32901543E+02 0.50950400E+02 0.75000000E+00 0.0000E+00 0.9000E+01
#aMCatNLO 2  0  0  5  1 0.12106679D+02 0.00000000D+00  -5  6  0 0.00000000D+00 0.00000000D+00 0.00000000D+00 0.00000000D+00 0.00000000D+00
  <mgrwgt>
 -.6225810582D-03    2    2    0
 0.824686525306032D+03 0.000000000000000D+00 0.000000000000000D+00 0.824686525306032D+03
 0.824686525306032D+03 -.000000000000000D+00 -.000000000000000D+00 -.824686525306032D+03
 0.636849835674322D+03 0.608329183788923D+03 -.722061412872367D+02 0.121138724235978D+03
 0.711000256431488D+03 -.578479963883541D+03 0.414149698522766D+01 -.413358372400584D+03
 0.301522958506255D+03 -.298492199053814D+02 0.680646443020090D+02 0.292219648164605D+03
 0.000000000000000D+00 -.000000000000000D+00 0.000000000000000D+00 0.000000000000000D+00
 0.824686525306032D+03 0.000000000000000D+00 0.000000000000000D+00 0.824686525306032D+03
 0.824686525306032D+03 -.000000000000000D+00 -.000000000000000D+00 -.824686525306032D+03
 0.636874288052125D+03 0.608291646922959D+03 -.721205466406054D+02 0.121506204853557D+03
 0.710796519803134D+03 -.578521864475689D+03 0.423704215892450D+01 -.412948171519821D+03
 0.164850135475664D+03 -.427770251644713D+01 0.384524897855460D+02 0.160245669073513D+03
 0.136852107281141D+03 -.254920799308231D+02 0.294310146961349D+02 0.131196297592750D+03
-.141701856556D-02 0.000000000000D+00 0.000000000000D+00 0.193822159709D-05 0.000000000000D+00  6 -4 2 25 1 -3 21 2 0.39763758D-01 0.40482159D+00 0.41045765D+06 0.41045765D+06 0.41045765D+06 0.10746206D+01  1  2 13  4  6  5       -3 -.199143035526D-02 0.100000000000D+01
0.974015918919D-03 0.000000000000D+00 0.000000000000D+00 0.193822159709D-05 0.193388956276D-07  6 -4 2 25 1 -3 21 2 0.39763758D-01 0.40482159D+00 0.41045765D+06 0.41045765D+06 0.41045765D+06 0.10746206D+01  1  2  1  4  6  5       -3 0.136884929709D-02 0.100000000000D+01
  </mgrwgt>
  </event>
  <event>
  5     66 -.20411069E-05 0.43403544E+02 0.75467711E-02 0.93762803E-01
       -4 -1    0    0    0  501 0.00000000E+00 0.00000000E+00 0.83130763E+03 0.83130908E+03 0.15500000E+01 0.0000E+00 0.9000E+01
        2 -1    0    0  502    0 0.00000000E+00 0.00000000E+00 -.29309633E+04 0.29309633E+04 0.32000000E+00 0.0000E+00 0.9000E+01
       25  1    1    2    0    0 -.51744961E+03 0.42833315E+02 -.63662701E+03 0.83096796E+03 0.12500000E+03 0.0000E+00 0.9000E+01
        1  1    1    2  502    0 0.21522468E+02 -.37685424E+02 -.21131566E+04 0.21136023E+04 0.32000000E+00 0.0000E+00 0.9000E+01
       -3  1    1    2    0  501 0.49592714E+03 -.51478909E+01 0.65012798E+03 0.81770219E+03 0.50000000E+00 0.0000E+00 0.9000E+01
#aMCatNLO 1  0  0  1  5 0.13830774D+02 0.00000000D+00  -5  6  0 0.00000000D+00 0.00000000D+00 0.00000000D+00 0.00000000D+00 0.00000000D+00
  <mgrwgt>
 -.1983741011D-01    9    4    0
 0.156094039827345D+04 0.000000000000000D+00 0.000000000000000D+00 0.156094039827345D+04
 0.156094039827345D+04 0.000000000000000D+00 0.000000000000000D+00 -.156094039827345D+04
 0.573207483898434D+03 -.517441315927306D+03 0.428377076961783D+02 -.208233606720740D+03
 0.112601689928670D+04 0.215252567768491D+02 -.376899318662809D+02 -.112518006996029D+04
 0.142265641336176D+04 0.495916059150457D+03 -.514777582989741D+01 0.133341367668103D+04
 0.000000000000000D+00 0.000000000000000D+00 -.000000000000000D+00 0.000000000000000D+00
 0.185111971177015D+04 0.000000000000000D+00 0.000000000000000D+00 0.185111971177015D+04
 0.156112052893893D+04 0.000000000000000D+00 0.000000000000000D+00 -.156112052893893D+04
 0.575356090809250D+03 -.519727217957526D+03 0.439546946014205D+02 -.208233606720740D+03
 0.112586896099810D+04 0.170434931433838D+02 -.354999555572392D+02 -.112518006996029D+04
 0.142068638161688D+04 0.490257162063018D+03 -.238260310542366D+01 0.133341367668103D+04
 0.290328807284847D+03 0.124265627511240D+02 -.607213593875764D+01 0.289999182831220D+03
 0.156094039827345D+04 0.000000000000000D+00 0.000000000000000D+00 0.156094039827345D+04
 0.156094039827345D+04 0.000000000000000D+00 0.000000000000000D+00 -.156094039827345D+04
 0.573207483898434D+03 -.517441315927306D+03 0.428377076961783D+02 -.208233606720740D+03
 0.112601689928670D+04 0.215252567768491D+02 -.376899318662809D+02 -.112518006996029D+04
 0.000000000000000D+00 0.000000000000000D+00 -.000000000000000D+00 0.000000000000000D+00
 0.142265641336176D+04 0.495916059150457D+03 -.514777582989741D+01 0.133341367668103D+04
 0.185111971177015D+04 0.000000000000000D+00 0.000000000000000D+00 0.185111971177015D+04
 0.156112052893893D+04 0.000000000000000D+00 0.000000000000000D+00 -.156112052893893D+04
 0.575356090809250D+03 -.519727217957526D+03 0.439546946014205D+02 -.208233606720740D+03
 0.112586896099810D+04 0.170434931433838D+02 -.354999555572392D+02 -.112518006996029D+04
 0.290328807284847D+03 0.124265627511240D+02 -.607213593875764D+01 0.289999182831220D+03
 0.142068638161688D+04 0.490257162063018D+03 -.238260310542366D+01 0.133341367668103D+04
0.128145671708D-02 0.000000000000D+00 0.000000000000D+00 0.113345979775D-02 0.000000000000D+00  6 -4 2 25 1 -3 21 0 0.12789359D+00 0.45091754D+00 0.28804300D+06 0.28804300D+06 0.28804300D+06 0.10858611D+01  1  2  2  1  6  1       -4 0.546471072929D-04 0.100000000000D+01
0.672312808414D-03 0.000000000000D+00 -.492113120888D-05 0.113345979775D-02 0.000000000000D+00  6 -4 2 25 1 -3 21 2 0.12789359D+00 0.45091754D+00 0.28804300D+06 0.28804300D+06 0.28804300D+06 0.10858611D+01  1  2  3  1  6  1       -4 0.338051764695D-04 0.100000000000D+01
-.778964103553D-03 0.000000000000D+00 0.000000000000D+00 0.113345979775D-02 0.000000000000D+00  6 -4 2 25 1 -3 21 2 0.12789359D+00 0.45091754D+00 0.28804300D+06 0.28804300D+06 0.28804300D+06 0.10858611D+01  1  2 15  1  6  1       -4 -.391678079823D-04 0.100000000000D+01
0.122095013104D+01 0.000000000000D+00 0.000000000000D+00 0.113345979775D-02 0.000000000000D+00  6 -4 2 25 1 -3 21 2 0.15194715D+00 0.45091754D+00 0.29150547D+06 0.29150547D+06 0.29150547D+06 0.10854760D+01  1  2 12  1  6  1       -4 0.355440593090D-01 0.100000000000D+01
-.159501845205D+01 0.000000000000D+00 0.000000000000D+00 0.113345979775D-02 0.000000000000D+00  6 -4 2 25 1 -3 21 2 0.12789359D+00 0.45091754D+00 0.28804300D+06 0.28804300D+06 0.28804300D+06 0.10858611D+01  1  2  4  1  6  1       -4 -.802005845624D-01 0.100000000000D+01
-.123752573817D+01 0.000000000000D+00 -.166429863425D-02 0.113345979775D-02 0.000000000000D+00  6 -4 2 25 1 -3 21 2 0.15167586D+00 0.45091754D+00 0.28804300D+06 0.28804300D+06 0.28804300D+06 0.10858611D+01  1  2  5  1  6  1       -4 -.362980288103D-01 0.100000000000D+01
0.122004710880D+01 0.000000000000D+00 0.164038438708D-02 0.113345979775D-02 0.000000000000D+00  6 -4 2 25 1 -3 21 2 0.12789359D+00 0.45091754D+00 0.28804300D+06 0.28804300D+06 0.28804300D+06 0.10858611D+01  1  2  6  1  6  1       -4 0.613463068055D-01 0.100000000000D+01
0.311186844877D-01 0.000000000000D+00 0.000000000000D+00 0.113345979775D-02 0.000000000000D+00  6 21 2 25 1 4 -3 2 0.15194715D+00 0.45091754D+00 0.29150547D+06 0.29150547D+06 0.29150547D+06 0.10854760D+01  3  4 12  5  5  1       -4 0.222323093913D-01 0.100000000000D+01
-.312680538825D-01 0.000000000000D+00 -.420706750435D-04 0.113345979775D-02 0.000000000000D+00  6 21 2 25 1 4 -3 2 0.15167586D+00 0.45091754D+00 0.28804300D+06 0.28804300D+06 0.28804300D+06 0.10858611D+01  3  4  5  5  5  1       -4 -.225107567172D-01 0.100000000000D+01
  </mgrwgt>
  </event>
  <event>
  5     66 -.20411069E-05 0.37138111E+02 0.75467711E-02 0.91925137E-01
       -4 -1    0    0    0  501 0.00000000E+00 0.00000000E+00 0.10192406E+04 0.10192418E+04 0.15500000E+01 0.0000E+00 0.9000E+01
        2 -1    0    0  502    0 0.00000000E+00 0.00000000E+00 -.44840047E+04 0.44840047E+04 0.32000000E+00 0.0000E+00 0.9000E+01
       25  1    1    2    0    0 -.53355813E+03 0.19323166E+03 0.23583111E+03 0.62710770E+03 0.12500000E+03 0.0000E+00 0.9000E+01
        1  1    1    2  502    0 -.36243869E+02 0.80814635E+01 -.41329285E+04 0.41330954E+04 0.32000000E+00 0.0000E+00 0.9000E+01
       -3  1    1    2    0  501 0.56980200E+03 -.20131312E+03 0.43233330E+03 0.74304349E+03 0.50000000E+00 0.0000E+00 0.9000E+01
#aMCatNLO 1  0  0  1  5 0.61730320D+01 0.00000000D+00  -5  6  0 0.00000000D+00 0.00000000D+00 0.00000000D+00 0.00000000D+00 0.00000000D+00
  <mgrwgt>
 -.7009966447D-02    7    4    0
 0.213782203095477D+04 0.000000000000000D+00 0.000000000000000D+00 0.213782203095477D+04
 0.213782203095477D+04 0.000000000000000D+00 0.000000000000000D+00 -.213782203095477D+04
 0.998396170430393D+03 -.533471910738887D+03 0.193201733167694D+03 0.811942561936295D+03
 0.197071288033633D+04 -.362479590704261D+02 0.808237078759245D+01 -.197036291516796D+04
 0.130653501114283D+04 0.569719869809313D+03 -.201284103955286D+03 0.115842035323166D+04
 0.000000000000000D+00 0.000000000000000D+00 0.000000000000000D+00 0.000000000000000D+00
 0.278799833708195D+04 0.000000000000000D+00 0.000000000000000D+00 0.278799833708195D+04
 0.213861324006673D+04 0.000000000000000D+00 0.000000000000000D+00 -.213861324006673D+04
 0.100165228511495D+04 -.541547766810635D+03 0.187503580378464D+03 0.811942561936295D+03
 0.197105581467803D+04 -.521641517810555D+02 -.314775727341470D+01 -.197036291516796D+04
 0.130314479750362D+04 0.559182425844123D+03 -.208719100962186D+03 0.115842035323166D+04
 0.650758679852074D+03 0.345294927475675D+02 0.243632778571368D+02 0.649385097015220D+03
 0.213782203095477D+04 0.000000000000000D+00 0.000000000000000D+00 0.213782203095477D+04
 0.213782203095477D+04 0.000000000000000D+00 0.000000000000000D+00 -.213782203095477D+04
 0.998396170430393D+03 -.533471910738887D+03 0.193201733167694D+03 0.811942561936295D+03
 0.197071288033633D+04 -.362479590704261D+02 0.808237078759245D+01 -.197036291516796D+04
 0.000000000000000D+00 0.000000000000000D+00 0.000000000000000D+00 0.000000000000000D+00
 0.130653501114283D+04 0.569719869809313D+03 -.201284103955286D+03 0.115842035323166D+04
 0.278799833708195D+04 0.000000000000000D+00 0.000000000000000D+00 0.278799833708195D+04
 0.213861324006673D+04 0.000000000000000D+00 0.000000000000000D+00 -.213861324006673D+04
 0.100165228511495D+04 -.541547766810635D+03 0.187503580378464D+03 0.811942561936295D+03
 0.197105581467803D+04 -.521641517810555D+02 -.314775727341470D+01 -.197036291516796D+04
 0.650758679852074D+03 0.345294927475675D+02 0.243632778571368D+02 0.649385097015220D+03
 0.130314479750362D+04 0.559182425844123D+03 -.208719100962186D+03 0.115842035323166D+04
0.153349513928D-01 0.000000000000D+00 0.000000000000D+00 0.859152183119D-03 0.000000000000D+00  6 -4 2 25 1 -3 21 0 0.15680634D+00 0.68984697D+00 0.37353818D+06 0.37353818D+06 0.37353818D+06 0.10775770D+01  1  2  2  1  6  1       -4 0.212086877099D-04 0.100000000000D+01
0.108771328489D-01 0.000000000000D+00 -.588902511336D-04 0.859152183119D-03 0.000000000000D+00  6 -4 2 25 1 -3 21 2 0.15680634D+00 0.68984697D+00 0.37353818D+06 0.37353818D+06 0.37353818D+06 0.10775770D+01  1  2  3  1  6  1       -4 0.174679721102D-04 0.100000000000D+01
-.965658355074D-02 0.000000000000D+00 0.000000000000D+00 0.859152183119D-03 0.000000000000D+00  6 -4 2 25 1 -3 21 2 0.15680634D+00 0.68984697D+00 0.37353818D+06 0.37353818D+06 0.37353818D+06 0.10775770D+01  1  2 15  1  6  1       -4 -.155078488502D-04 0.100000000000D+01
-.542141299530D+01 0.000000000000D+00 0.000000000000D+00 0.859152183119D-03 0.000000000000D+00  6 -4 2 25 1 -3 21 2 0.15680634D+00 0.68984697D+00 0.37353818D+06 0.37353818D+06 0.37353818D+06 0.10775770D+01  1  2  4  1  6  1       -4 -.870643875695D-02 0.100000000000D+01
-.479389594838D+01 0.000000000000D+00 -.132082691842D-01 0.859152183119D-03 0.000000000000D+00  6 -4 2 25 1 -3 21 2 0.20452209D+00 0.68984697D+00 0.37353818D+06 0.37353818D+06 0.37353818D+06 0.10775770D+01  1  2  5  1  6  1       -4 -.296304172753D-02 0.100000000000D+01
0.463338711344D+01 0.000000000000D+00 0.127554896613D-01 0.859152183119D-03 0.000000000000D+00  6 -4 2 25 1 -3 21 2 0.15680634D+00 0.68984697D+00 0.37353818D+06 0.37353818D+06 0.37353818D+06 0.10775770D+01  1  2  6  1  6  1       -4 0.744092013934D-02 0.100000000000D+01
-.169402579001D+00 0.000000000000D+00 -.467415674942D-03 0.859152183119D-03 0.000000000000D+00  6 21 2 25 1 4 -3 2 0.20452209D+00 0.68984697D+00 0.37353818D+06 0.37353818D+06 0.37353818D+06 0.10775770D+01  3  4  5  5  5  1       -4 -.280457491327D-02 0.100000000000D+01
  </mgrwgt>
  </event>
  <event>
  6     66 0.20411069E-05 0.89958219E+02 0.75467711E-02 0.94587366E-01
       -4 -1    0    0    0  501 0.00000000E+00 0.00000000E+00 0.64868765E+03 0.64868950E+03 0.15500000E+01 0.0000E+00 0.9000E+01
        2 -1    0    0  502    0 0.00000000E+00 0.00000000E+00 -.60854991E+03 0.60854999E+03 0.32000000E+00 0.0000E+00 0.9000E+01
       25  1    1    2    0    0 -.12926633E+03 0.44151312E+03 -.19971591E+03 0.51687045E+03 0.12500000E+03 0.0000E+00 0.9000E+01
        1  1    1    2  502    0 0.13714105E+03 -.36655310E+03 -.67776332E+02 0.39719338E+03 0.32000000E+00 0.0000E+00 0.9000E+01
       -3  1    1    2    0  503 0.61171578E+01 0.28980477E+02 0.15612369E+03 0.15890924E+03 0.50000000E+00 0.0000E+00 0.9000E+01
       21  1    1    2  503  501 -.13991872E+02 -.10394049E+03 0.15150630E+03 0.18426643E+03 0.75000000E+00 0.0000E+00 0.9000E+01
#aMCatNLO 2  0  0  5  5 0.65663937D+02 0.00000000D+00  -5  6  0 0.00000000D+00 0.00000000D+00 0.00000000D+00 0.00000000D+00 0.00000000D+00
  <mgrwgt>
 0.1051825758D-03    1    2    0
 0.628299312910271D+03 0.000000000000000D+00 0.000000000000000D+00 0.628299312910271D+03
 0.628299312910271D+03 -.000000000000000D+00 -.000000000000000D+00 -.628299312910271D+03
 0.530675773611521D+03 -.129109234603867D+03 0.444676687499358D+03 -.227123811681622D+03
 0.399920557729797D+03 0.137491970903014D+03 -.364880773381775D+03 -.888506142265459D+02
 0.326002294479223D+03 -.838273629914655D+01 -.797959141175829D+02 0.315974425908168D+03
 0.000000000000000D+00 -.000000000000000D+00 0.000000000000000D+00 0.000000000000000D+00
 0.628299312910271D+03 0.000000000000000D+00 0.000000000000000D+00 0.628299312910271D+03
 0.628299312910271D+03 -.000000000000000D+00 -.000000000000000D+00 -.628299312910271D+03
 0.523672906774302D+03 -.129405986099826D+03 0.441851887095204D+03 -.215938217834142D+03
 0.400008936412348D+03 0.137266826907992D+03 -.367023936455228D+03 -.803641556246155D+02
 0.153214279004014D+03 0.611454715125791D+01 0.290253877985976D+02 0.150315516388016D+03
 0.179702503629878D+03 -.139753879594247D+02 -.103853338438573D+03 0.145986857070742D+03
0.422054658144D-04 0.000000000000D+00 0.000000000000D+00 0.108409818420D-05 0.625665884444D-10  6 -4 2 25 1 -3 21 2 0.99798249D-01 0.93623212D-01 0.25169460D+06 0.25169460D+06 0.25169460D+06 0.10902385D+01  1  2  1  4  6  5       -3 0.105182575799D-03 0.100000000000D+01
  </mgrwgt>
  </event>
  <event>
  6     66 -.20411069E-05 0.96787781E+02 0.75467711E-02 0.92298857E-01
       -4 -1    0    0    0  503 0.00000000E+00 0.00000000E+00 0.81341597E+03 0.81341744E+03 0.15500000E+01 0.0000E+00 0.9000E+01
        2 -1    0    0  502    0 0.00000000E+00 0.00000000E+00 -.21432794E+04 0.21432794E+04 0.32000000E+00 0.0000E+00 0.9000E+01
       25  1    1    2    0    0 0.47271814E+03 0.14145221E+03 0.37069335E+01 0.50902840E+03 0.12500000E+03 0.0000E+00 0.9000E+01
        1  1    1    2  502    0 0.53838380E+01 -.14261345E+03 -.16152927E+04 0.16215850E+04 0.32000000E+00 0.0000E+00 0.9000E+01
       -3  1    1    2    0  501 -.48240408E+03 -.90656548E+02 -.39050540E+02 0.49239973E+03 0.50000000E+00 0.0000E+00 0.9000E+01
       21  1    1    2  501  503 0.43020972E+01 0.91817780E+02 0.32077285E+03 0.33368368E+03 0.75000000E+00 0.0000E+00 0.9000E+01
#aMCatNLO 2  0  0  1  5 0.91918512D+02 0.00000000D+00  -5  6  0 0.00000000D+00 0.00000000D+00 0.00000000D+00 0.00000000D+00 0.00000000D+00
  <mgrwgt>
 -.1027725639D-02    2    2    0
 0.101822750995702D+04 0.000000000000000D+00 0.000000000000000D+00 0.101822750995702D+04
 0.101822750995702D+04 0.000000000000000D+00 0.000000000000000D+00 -.101822750995702D+04
 0.666074293458244D+03 0.473960063635766D+03 0.171289598264449D+03 0.417195033540290D+03
 0.773108346972371D+03 0.702163372865260D+01 -.107679248455831D+03 -.765540588257814D+03
 0.597272379483424D+03 -.480981697364419D+03 -.636103498086182D+02 0.348345554717524D+03
 0.000000000000000D+00 0.000000000000000D+00 0.000000000000000D+00 0.000000000000000D+00
 0.170527779327805D+04 0.000000000000000D+00 0.000000000000000D+00 0.170527779327805D+04
 0.102234322814280D+04 0.000000000000000D+00 0.000000000000000D+00 -.102234322814280D+04
 0.658028240990354D+03 0.472562164005935D+03 0.141454837599157D+03 0.417195033540290D+03
 0.778735583297850D+03 0.538329983891046D+01 -.142645492417276D+03 -.765540588257814D+03
 0.601764581424964D+03 -.482247561057147D+03 -.906271251918314D+02 0.348345554717524D+03
 0.689092615707677D+03 0.430209721230155D+01 0.918177800099512D+02 0.682934565135247D+03
-.116138603917D-01 0.000000000000D+00 0.000000000000D+00 0.600761677562D-05 0.000000000000D+00  6 -4 2 25 1 -3 21 2 0.12654292D+00 0.32840790D+00 0.38082822D+06 0.38082822D+06 0.38082822D+06 0.10769687D+01  1  2 13  1  6  1       -4 -.170375314548D-02 0.100000000000D+01
0.450431389397D-02 0.000000000000D+00 0.000000000000D+00 0.600761677562D-05 0.188439711411D-08  6 -4 2 25 1 -3 21 2 0.12514101D+00 0.32973534D+00 0.38082822D+06 0.38082822D+06 0.38082822D+06 0.10769687D+01  1  2  1  1  6  1       -4 0.676027506160D-03 0.100000000000D+01
  </mgrwgt>
  </event>
  <event>
  6     66 0.20411069E-05 0.25991368E+02 0.75467711E-02 0.91688511E-01
       -4 -1    0    0    0  503 0.00000000E+00 0.00000000E+00 0.16430513E+04 0.16430521E+04 0.15500000E+01 0.0000E+00 0.9000E+01
        2 -1    0    0  502    0 0.00000000E+00 0.00000000E+00 -.16754769E+04 0.16754769E+04 0.32000000E+00 0.0000E+00 0.9000E+01
       25  1    1    2    0    0 -.37527096E+03 -.47171590E+03 0.28192289E+03 0.67708914E+03 0.12500000E+03 0.0000E+00 0.9000E+01
        1  1    1    2  502    0 0.34689373E+03 0.52566351E+03 -.14092011E+04 0.15435366E+04 0.32000000E+00 0.0000E+00 0.9000E+01
       -3  1    1    2    0  501 0.16929394E+02 -.33655719E+02 0.25904051E+03 0.26176621E+03 0.50000000E+00 0.0000E+00 0.9000E+01
       21  1    1    2  501  503 0.11447835E+02 -.20291896E+02 0.83581208E+03 0.83613708E+03 0.75000000E+00 0.0000E+00 0.9000E+01
#aMCatNLO 2  0  0  1  5 0.23298368D+02 0.00000000D+00  -5  6  0 0.00000000D+00 0.00000000D+00 0.00000000D+00 0.00000000D+00 0.00000000D+00
  <mgrwgt>
 0.5154480484D-02    2    2    0
 0.116274354138219D+04 0.000000000000000D+00 0.000000000000000D+00 0.116274354138219D+04
 0.116274354138219D+04 0.000000000000000D+00 0.000000000000000D+00 -.116274354138219D+04
 0.830596952374144D+03 -.371250385457519D+03 -.479088302094573D+03 0.553998057205076D+03
 0.111870258247291D+04 0.352485046839966D+03 0.515995114937091D+03 -.927900210769916D+03
 0.376187547917324D+03 0.187653386175530D+02 -.369068128425186D+02 0.373902153564839D+03
 0.000000000000000D+00 0.000000000000000D+00 -.000000000000000D+00 0.000000000000000D+00
 0.236723775238318D+04 0.000000000000000D+00 0.000000000000000D+00 0.236723775238318D+04
 0.116291456453874D+04 0.000000000000000D+00 0.000000000000000D+00 -.116291456453874D+04
 0.828285754566345D+03 -.375333430819107D+03 -.471850886976065D+03 0.553998057205076D+03
 0.112152602919233D+04 0.346971121712237D+03 0.525768840562867D+03 -.927900210769916D+03
 0.375792005812392D+03 0.169144744087583D+02 -.336260575677772D+02 0.373902153564839D+03
 0.120454852735085D+04 0.114478346981116D+02 -.202918960190247D+02 0.120432318784444D+04
-.149995023375D+00 0.000000000000D+00 0.000000000000D+00 0.370649123995D-04 0.000000000000D+00  6 -4 2 25 1 -3 21 2 0.26466598D+00 0.25772780D+00 0.42681600D+06 0.42681600D+06 0.42681600D+06 0.10734020D+01  1  2 13  1  6  1       -4 -.250034969089D-02 0.100000000000D+01
0.370729028476D+00 0.000000000000D+00 0.000000000000D+00 0.370649123995D-04 0.143566501482D-05  6 -4 2 25 1 -3 21 2 0.25277716D+00 0.25776571D+00 0.42681600D+06 0.42681600D+06 0.42681600D+06 0.10734020D+01  1  2  1  1  6  1       -4 0.765483017477D-02 0.100000000000D+01
  </mgrwgt>
  </event>
  <event>
  5     66 0.20411069E-05 0.25912921E+02 0.75467711E-02 0.88274518E-01
       -4 -1    0    0    0  501 0.00000000E+00 0.00000000E+00 0.49484979E+03 0.49485222E+03 0.15500000E+01 0.0000E+00 0.9000E+01
        2 -1    0    0  502    0 0.00000000E+00 0.00000000E+00 -.22878075E+04 0.22878076E+04 0.32000000E+00 0.0000E+00 0.9000E+01
       25  1    1    2    0    0 -.54872691E+03 -.32548068E+03 -.12403290E+04 0.14003857E+04 0.12500000E+03 0.0000E+00 0.9000E+01
        1  1    1    2  502    0 0.53234983E+03 0.30539096E+03 -.86953578E+03 0.10643085E+04 0.32000000E+00 0.0000E+00 0.9000E+01
       -3  1    1    2    0  501 0.16377086E+02 0.20089720E+02 0.31690706E+03 0.31796563E+03 0.50000000E+00 0.0000E+00 0.9000E+01
#aMCatNLO 1  0  0  1  5 0.20943325D+02 0.00000000D+00  -5  6  0 0.00000000D+00 0.00000000D+00 0.00000000D+00 0.00000000D+00 0.00000000D+00
  <mgrwgt>
 0.2220264652D-02    7    4    0
 0.106401338892637D+04 0.000000000000000D+00 0.000000000000000D+00 0.106401338892637D+04
 0.106401338892637D+04 0.000000000000000D+00 0.000000000000000D+00 -.106401338892637D+04
 0.786208836648441D+03 -.548845236904779D+03 -.325548664484947D+03 -.441912104159978D+03
 0.659195972869986D+03 0.532472128596942D+03 0.305463824735599D+03 -.240217848407123D+03
 0.682621968334314D+03 0.163731083078367D+02 0.200848397493480D+02 0.682129952567101D+03
 0.000000000000000D+00 0.000000000000000D+00 0.000000000000000D+00 0.000000000000000D+00
 0.176021400921862D+04 0.000000000000000D+00 0.000000000000000D+00 0.176021400921862D+04
 0.114370062333681D+04 0.000000000000000D+00 0.000000000000000D+00 -.114370062333681D+04
 0.912085112865163D+03 -.707630425487044D+03 -.346766674050697D+03 -.441912104159978D+03
 0.562867877187944D+03 0.418212969311477D+03 0.290195700823414D+03 -.240217848407123D+03
 0.691283108007576D+03 -.112082732156977D+03 0.291965402834571D+01 0.682129952567101D+03
 0.737678534494742D+03 0.401500188332545D+03 0.536513191989376D+02 0.616513385881812D+03
 0.106401338892637D+04 0.000000000000000D+00 0.000000000000000D+00 0.106401338892637D+04
 0.106401338892637D+04 0.000000000000000D+00 0.000000000000000D+00 -.106401338892637D+04
 0.786208836648441D+03 -.548845236904779D+03 -.325548664484947D+03 -.441912104159978D+03
 0.659195972869986D+03 0.532472128596942D+03 0.305463824735599D+03 -.240217848407123D+03
 0.000000000000000D+00 0.000000000000000D+00 0.000000000000000D+00 0.000000000000000D+00
 0.682621968334314D+03 0.163731083078367D+02 0.200848397493480D+02 0.682129952567101D+03
 0.176021400921862D+04 0.000000000000000D+00 0.000000000000000D+00 0.176021400921862D+04
 0.114370062333681D+04 0.000000000000000D+00 0.000000000000000D+00 -.114370062333681D+04
 0.912085112865163D+03 -.707630425487044D+03 -.346766674050697D+03 -.441912104159978D+03
 0.562867877187944D+03 0.418212969311477D+03 0.290195700823414D+03 -.240217848407123D+03
 0.737678534494742D+03 0.401500188332545D+03 0.536513191989376D+02 0.616513385881812D+03
 0.691283108007576D+03 -.112082732156977D+03 0.291965402834571D+01 0.682129952567101D+03
0.216467188453D-02 0.000000000000D+00 0.000000000000D+00 0.153264045687D-04 0.000000000000D+00  6 -4 2 25 1 -3 21 0 0.76130926D-01 0.35197058D+00 0.41605179D+06 0.41605179D+06 0.41605179D+06 0.10741980D+01  1  2  2  1  6  1       -4 0.918450263905D-03 0.100000000000D+01
0.162514184489D-02 0.000000000000D+00 -.831291000778D-05 0.153264045687D-04 0.000000000000D+00  6 -4 2 25 1 -3 21 2 0.76130926D-01 0.35197058D+00 0.41605179D+06 0.41605179D+06 0.41605179D+06 0.10741980D+01  1  2  3  1  6  1       -4 0.795652616607D-03 0.100000000000D+01
-.139227918251D-02 0.000000000000D+00 0.000000000000D+00 0.153264045687D-04 0.000000000000D+00  6 -4 2 25 1 -3 21 2 0.76130926D-01 0.35197058D+00 0.41605179D+06 0.41605179D+06 0.41605179D+06 0.10741980D+01  1  2 15  1  6  1       -4 -.681645468727D-03 0.100000000000D+01
-.157287949214D-03 0.000000000000D+00 0.000000000000D+00 0.153264045687D-04 0.000000000000D+00  6 -4 2 25 1 -3 21 2 0.76130926D-01 0.35197058D+00 0.41605179D+06 0.41605179D+06 0.41605179D+06 0.10741980D+01  1  2  4  1  6  1       -4 -.770065509950D-04 0.100000000000D+01
-.443615010303D-02 0.000000000000D+00 -.126539438276D-02 0.153264045687D-04 0.000000000000D+00  6 -4 2 25 1 -3 21 2 0.13092588D+00 0.35197058D+00 0.41605179D+06 0.41605179D+06 0.41605179D+06 0.10741980D+01  1  2  5  1  6  1       -4 -.476083145254D-03 0.100000000000D+01
0.459568301082D-02 0.000000000000D+00 0.109975603345D-02 0.153264045687D-04 0.000000000000D+00  6 -4 2 25 1 -3 21 2 0.76130926D-01 0.35197058D+00 0.41605179D+06 0.41605179D+06 0.41605179D+06 0.10741980D+01  1  2  6  1  6  1       -4 0.224999880727D-02 0.100000000000D+01
-.204795857467D-03 0.000000000000D+00 -.761780810660D-04 0.153264045687D-04 0.000000000000D+00  6 21 2 25 1 4 -3 2 0.13092588D+00 0.35197058D+00 0.41605179D+06 0.41605179D+06 0.41605179D+06 0.10741980D+01  3  4  5  5  5  1       -4 -.509101870687D-03 0.100000000000D+01
  </mgrwgt>
  </event>
  <event>
  5     66 -.20411069E-05 0.94791036E+02 0.75467711E-02 0.94419613E-01
       -4 -1    0    0    0  501 0.00000000E+00 0.00000000E+00 0.27315522E+03 0.27315962E+03 0.15500000E+01 0.0000E+00 0.9000E+01
        2 -1    0    0  502    0 0.00000000E+00 0.00000000E+00 -.31468995E+04 0.31468995E+04 0.32000000E+00 0.0000E+00 0.9000E+01
       25  1    1    2    0    0 0.36446287E+03 0.29843899E+03 -.56164305E+03 0.74361746E+03 0.12500000E+03 0.0000E+00 0.9000E+01
        1  1    1    2  502    0 -.27007744E+03 -.28936288E+03 -.24649727E+04 0.24965503E+04 0.32000000E+00 0.0000E+00 0.9000E+01
       -3  1    1    2    0  501 -.94385425E+02 -.90761053E+01 0.15287147E+03 0.17989141E+03 0.50000000E+00 0.0000E+00 0.9000E+01
#aMCatNLO 1  0  0  1  1 0.53045458D+02 0.00000000D+00  -5  6  0 0.00000000D+00 0.00000000D+00 0.00000000D+00 0.00000000D+00 0.00000000D+00
  <mgrwgt>
 -.4253107167D-02    7    4    0
 0.927145930136698D+03 0.000000000000000D+00 0.000000000000000D+00 0.927145930136698D+03
 0.927145930136698D+03 0.000000000000000D+00 0.000000000000000D+00 -.927145930136698D+03
 0.501225669836549D+03 0.364510030696223D+03 0.298510740414024D+03 0.116730233797448D+03
 0.784535753074284D+03 -.270154233099364D+03 -.289437484007184D+03 -.677302724815071D+03
 0.568530437362563D+03 -.943557975968592D+02 -.907325640683960D+01 0.560572491017624D+03
 0.000000000000000D+00 -.000000000000000D+00 0.000000000000000D+00 0.000000000000000D+00
 0.153108230904598D+04 0.000000000000000D+00 0.000000000000000D+00 0.153108230904598D+04
 0.928690734012098D+03 0.000000000000000D+00 0.000000000000000D+00 -.928690734012098D+03
 0.506712665497691D+03 0.377282372972254D+03 0.291830068597794D+03 0.116730233797448D+03
 0.781846247155668D+03 -.250305432492612D+03 -.299819551754330D+03 -.677302724815071D+03
 0.566491524319841D+03 -.799730834195956D+02 -.165962456259161D+02 0.560572491017624D+03
 0.604722606084881D+03 -.470038570600456D+02 0.245857287824522D+02 0.602391575033885D+03
 0.927145930136698D+03 0.000000000000000D+00 0.000000000000000D+00 0.927145930136698D+03
 0.927145930136698D+03 0.000000000000000D+00 0.000000000000000D+00 -.927145930136698D+03
 0.501225669836549D+03 0.364510030696223D+03 0.298510740414024D+03 0.116730233797448D+03
 0.784535753074284D+03 -.270154233099364D+03 -.289437484007184D+03 -.677302724815071D+03
 0.000000000000000D+00 -.000000000000000D+00 0.000000000000000D+00 0.000000000000000D+00
 0.568530437362563D+03 -.943557975968592D+02 -.907325640683960D+01 0.560572491017624D+03
 0.153108230904598D+04 0.000000000000000D+00 0.000000000000000D+00 0.153108230904598D+04
 0.928690734012098D+03 0.000000000000000D+00 0.000000000000000D+00 -.928690734012098D+03
 0.506712665497691D+03 0.377282372972254D+03 0.291830068597794D+03 0.116730233797448D+03
 0.781846247155668D+03 -.250305432492612D+03 -.299819551754330D+03 -.677302724815071D+03
 0.604722606084881D+03 -.470038570600456D+02 0.245857287824522D+02 0.602391575033885D+03
 0.566491524319841D+03 -.799730834195956D+02 -.165962456259161D+02 0.560572491017624D+03
0.164206307025D-03 0.000000000000D+00 0.000000000000D+00 0.375471947868D-04 0.000000000000D+00  6 -4 2 25 1 -3 21 0 0.42024220D-01 0.48413872D+00 0.23919952D+06 0.23919952D+06 0.23919952D+06 0.10919049D+01  1  2  2  1  6  1       -4 0.873855031660D-04 0.100000000000D+01
0.341535007992D-04 0.000000000000D+00 -.630595455491D-06 0.375471947868D-04 0.000000000000D+00  6 -4 2 25 1 -3 21 2 0.42024220D-01 0.48413872D+00 0.23919952D+06 0.23919952D+06 0.23919952D+06 0.10919049D+01  1  2  3  1  6  1       -4 0.216697767404D-04 0.100000000000D+01
-.898581294576D-04 0.000000000000D+00 0.000000000000D+00 0.375471947868D-04 0.000000000000D+00  6 -4 2 25 1 -3 21 2 0.42024220D-01 0.48413872D+00 0.23919952D+06 0.23919952D+06 0.23919952D+06 0.10919049D+01  1  2 15  1  6  1       -4 -.570133531876D-04 0.100000000000D+01
-.100279408272D-01 0.000000000000D+00 0.000000000000D+00 0.375471947868D-04 0.000000000000D+00  6 -4 2 25 1 -3 21 2 0.42024220D-01 0.48413872D+00 0.23919952D+06 0.23919952D+06 0.23919952D+06 0.10919049D+01  1  2  4  1  6  1       -4 -.636254655621D-02 0.100000000000D+01
-.162322046572D-01 0.000000000000D+00 -.103507305115D-03 0.375471947868D-04 0.000000000000D+00  6 -4 2 25 1 -3 21 2 0.69440332D-01 0.48413872D+00 0.23919952D+06 0.23919952D+06 0.23919952D+06 0.10919049D+01  1  2  5  1  6  1       -4 -.324099805007D-02 0.100000000000D+01
0.144367406062D-01 0.000000000000D+00 0.916978598270D-04 0.375471947868D-04 0.000000000000D+00  6 -4 2 25 1 -3 21 2 0.42024220D-01 0.48413872D+00 0.23919952D+06 0.23919952D+06 0.23919952D+06 0.10919049D+01  1  2  6  1  6  1       -4 0.915985004391D-02 0.100000000000D+01
-.913746021675D-03 0.000000000000D+00 -.585656996488D-05 0.375471947868D-04 0.000000000000D+00  6 21 2 25 1 4 -3 2 0.69440332D-01 0.48413872D+00 0.23919952D+06 0.23919952D+06 0.23919952D+06 0.10919049D+01  3  4  5  5  5  1       -4 -.386145453175D-02 0.100000000000D+01
  </mgrwgt>
  </event>
  <event>
  5     66 0.20411069E-05 0.24070133E+02 0.75467711E-02 0.83735232E-01
       -4 -1    0    0    0  501 0.00000000E+00 0.00000000E+00 0.69082592E+03 0.69082765E+03 0.15500000E+01 0.0000E+00 0.9000E+01
        2 -1    0    0  502    0 0.00000000E+00 0.00000000E+00 -.28410572E+04 0.28410572E+04 0.32000000E+00 0.0000E+00 0.9000E+01
       25  1    1    2    0    0 -.41932222E+03 -.37557359E+03 0.34090693E+02 0.57764507E+03 0.12500000E+03 0.0000E+00 0.9000E+01
        1  1    1    2  502    0 0.23436038E+02 0.54701548E+01 -.23784534E+04 0.23785752E+04 0.32000000E+00 0.0000E+00 0.9000E+01
       -3  1    1    2    0  501 0.39588619E+03 0.37010344E+03 0.19413148E+03 0.57566458E+03 0.50000000E+00 0.0000E+00 0.9000E+01
#aMCatNLO 1  0  0  2  4 0.15641784D+02 0.00000000D+00  -5  6  0 0.00000000D+00 0.00000000D+00 0.00000000D+00 0.00000000D+00 0.00000000D+00
  <mgrwgt>
 0.3365792505D-02    6    2    0
 0.140095647018075D+04 0.000000000000000D+00 0.000000000000000D+00 0.140095647018075D+04
 0.140095647018075D+04 0.000000000000000D+00 0.000000000000000D+00 -.140095647018075D+04
 0.754374839579338D+03 -.419245602741129D+03 -.375499145746880D+03 0.486507877342126D+03
 0.117309666433521D+04 0.234400938593784D+02 0.547113192447483D+01 -.117284969735671D+04
 0.874441436446962D+03 0.395805508881751D+03 0.370028013822406D+03 0.686341820014583D+03
 0.000000000000000D+00 0.000000000000000D+00 -.000000000000000D+00 -.000000000000000D+00
 0.187240565437133D+04 0.000000000000000D+00 0.000000000000000D+00 0.187240565437133D+04
 0.247539068782473D+04 0.000000000000000D+00 0.000000000000000D+00 -.247539068782473D+04
 0.773561809174331D+03 -.577098688458249D+03 -.114193089444554D+03 0.486507877342126D+03
 0.126755732941316D+04 -.228706985926455D+03 0.422869111366309D+03 -.117284969735671D+04
 0.993804318140036D+03 0.202794655008967D+03 0.689533361595104D+03 0.686341820014583D+03
 0.131287288546853D+04 0.603011019375737D+03 -.998209383516859D+03 -.602985033453403D+03
0.273787248857D-01 0.000000000000D+00 0.000000000000D+00 0.247399575943D-03 0.000000000000D+00  6 -4 2 25 1 -3 21 0 0.10628105D+00 0.43708586D+00 0.32629052D+06 0.32629052D+06 0.32629052D+06 0.10818630D+01  1  2  2  2  6  2        2 0.226827337940D-02 0.100000000000D+01
0.232454601440D-01 0.000000000000D+00 -.105141512545D-03 0.247399575943D-03 0.000000000000D+00  6 -4 2 25 1 -3 21 2 0.10628105D+00 0.43708586D+00 0.32629052D+06 0.32629052D+06 0.32629052D+06 0.10818630D+01  1  2  3  2  6  2        2 0.225405664460D-02 0.100000000000D+01
-.172328286791D-01 0.000000000000D+00 0.000000000000D+00 0.247399575943D-03 0.000000000000D+00  6 -4 2 25 1 -3 21 2 0.10628105D+00 0.43708586D+00 0.32629052D+06 0.32629052D+06 0.32629052D+06 0.10818630D+01  1  2 15  2  6  2        2 -.167102615947D-02 0.100000000000D+01
0.137534576549D-02 0.000000000000D+00 -.100970250169D-01 0.247399575943D-03 0.000000000000D+00  6 -4 2 25 1 -3 21 2 0.10628105D+00 0.79740417D+00 0.32629052D+06 0.32629052D+06 0.32629052D+06 0.10818630D+01  1  2  5  2  6  2        2 0.108952566640D-05 0.100000000000D+01
0.529451411274D-02 0.000000000000D+00 0.851171408455D-02 0.247399575943D-03 0.000000000000D+00  6 -4 2 25 1 -3 21 2 0.10628105D+00 0.43708586D+00 0.32629052D+06 0.32629052D+06 0.32629052D+06 0.10818630D+01  1  2  6  2  6  2        2 0.513396363927D-03 0.100000000000D+01
0.637918364502D-03 0.000000000000D+00 -.663918096122D-03 0.247399575943D-03 0.000000000000D+00  6 -4 21 25 1 -3 -2 2 0.10628105D+00 0.79740417D+00 0.32629052D+06 0.32629052D+06 0.32629052D+06 0.10818630D+01  1  2  5  6  6  2        2 0.275113700040D-08 0.100000000000D+01
  </mgrwgt>
  </event>
  <event>
  5     66 -.20411069E-05 0.16122182E+03 0.75467711E-02 0.93964831E-01
       -4 -1    0    0    0  501 0.00000000E+00 0.00000000E+00 0.81960215E+03 0.81960361E+03 0.15500000E+01 0.0000E+00 0.9000E+01
        2 -1    0    0  502    0 0.00000000E+00 0.00000000E+00 -.98484007E+03 0.98484012E+03 0.32000000E+00 0.0000E+00 0.9000E+01
       25  1    1    2    0    0 -.26547350E+03 -.38247612E+03 0.50256195E+01 0.48209378E+03 0.12500000E+03 0.0000E+00 0.9000E+01
        1  1    1    2  502    0 -.58192537E+02 0.15030956E+03 -.66667726E+03 0.68588484E+03 0.32000000E+00 0.0000E+00 0.9000E+01
       -3  1    1    2    0  501 0.32366603E+03 0.23216656E+03 0.49641372E+03 0.63646511E+03 0.50000000E+00 0.0000E+00 0.9000E+01
#aMCatNLO 1  0  0  2  4 0.25377778D+02 0.00000000D+00  -5  6  0 0.00000000D+00 0.00000000D+00 0.00000000D+00 0.00000000D+00 0.00000000D+00
  <mgrwgt>
 -.5625587587D-02    9    2    0
 0.898431080355269D+03 0.000000000000000D+00 0.000000000000000D+00 0.898431080355269D+03
 0.898431080355269D+03 0.000000000000000D+00 0.000000000000000D+00 -.898431080355269D+03
 0.484582440037049D+03 -.265416797201814D+03 -.382482291052728D+03 0.495616987849243D+02
 0.627579433087476D+03 -.582020215988784D+02 0.150349596181395D+03 -.606517492282204D+03
 0.684700287586012D+03 0.323618818800693D+03 0.232132694871333D+03 0.556955793497280D+03
 0.000000000000000D+00 -.000000000000000D+00 0.000000000000000D+00 -.000000000000000D+00
 0.898772252691450D+03 0.000000000000000D+00 0.000000000000000D+00 0.898772252691450D+03
 0.153852854406699D+04 0.000000000000000D+00 0.000000000000000D+00 -.153852854406699D+04
 0.487155471232586D+03 -.261713638289520D+03 -.388259014961221D+03 0.495616987849243D+02
 0.625410733760628D+03 -.534270492019298D+02 0.142900902279476D+03 -.606517492282204D+03
 0.684475156862598D+03 0.328836557236955D+03 0.223993310338591D+03 0.556955793497280D+03
 0.640259434902633D+03 -.136958697455055D+02 0.213648023431536D+02 -.639756291375544D+03
0.415662209015D-04 0.000000000000D+00 0.000000000000D+00 0.568246853657D-05 0.000000000000D+00  6 -4 2 25 1 -3 21 0 0.12609275D+00 0.15151397D+00 0.27119500D+06 0.27119500D+06 0.27119500D+06 0.10878103D+01  1  2  2  2  6  2        2 0.238805898492D-04 0.100000000000D+01
0.516297825966D-05 0.000000000000D+00 -.159625232899D-06 0.568246853657D-05 0.000000000000D+00  6 -4 2 25 1 -3 21 2 0.12609275D+00 0.15151397D+00 0.27119500D+06 0.27119500D+06 0.27119500D+06 0.10878103D+01  1  2  3  2  6  2        2 0.351003241420D-05 0.100000000000D+01
-.272479029946D-04 0.000000000000D+00 0.000000000000D+00 0.568246853657D-05 0.000000000000D+00  6 -4 2 25 1 -3 21 2 0.12609275D+00 0.15151397D+00 0.27119500D+06 0.27119500D+06 0.27119500D+06 0.10878103D+01  1  2 15  2  6  2        2 -.185243899780D-04 0.100000000000D+01
0.174705598631D-01 0.000000000000D+00 0.000000000000D+00 0.568246853657D-05 0.000000000000D+00  6 -4 2 25 1 -3 21 2 0.12609275D+00 0.26249891D+00 0.28113584D+06 0.28113584D+06 0.28113584D+06 0.10866448D+01  1  2 12  2  6  2        2 0.460244884191D-02 0.100000000000D+01
-.235846069624D-01 0.000000000000D+00 0.000000000000D+00 0.568246853657D-05 0.000000000000D+00  6 -4 2 25 1 -3 21 2 0.12609275D+00 0.15151397D+00 0.27119500D+06 0.27119500D+06 0.27119500D+06 0.10878103D+01  1  2  4  2  6  2        2 -.160339111944D-01 0.100000000000D+01
-.180432923343D-01 0.000000000000D+00 -.242881055563D-04 0.568246853657D-05 0.000000000000D+00  6 -4 2 25 1 -3 21 2 0.12609275D+00 0.25948878D+00 0.27119500D+06 0.27119500D+06 0.27119500D+06 0.10878103D+01  1  2  5  2  6  2        2 -.489008112970D-02 0.100000000000D+01
0.157276149795D-01 0.000000000000D+00 0.211519726651D-04 0.568246853657D-05 0.000000000000D+00  6 -4 2 25 1 -3 21 2 0.12609275D+00 0.15151397D+00 0.27119500D+06 0.27119500D+06 0.27119500D+06 0.10878103D+01  1  2  6  2  6  2        2 0.106923631284D-01 0.100000000000D+01
0.106363933208D-02 0.000000000000D+00 0.000000000000D+00 0.568246853657D-05 0.000000000000D+00  6 -4 21 25 1 -3 -2 2 0.12609275D+00 0.26249891D+00 0.28113584D+06 0.28113584D+06 0.28113584D+06 0.10866448D+01  1  2 12  6  6  2        2 0.771397793018D-04 0.100000000000D+01
-.107818769059D-02 0.000000000000D+00 -.145294639415D-05 0.568246853657D-05 0.000000000000D+00  6 -4 21 25 1 -3 -2 2 0.12609275D+00 0.25948878D+00 0.27119500D+06 0.27119500D+06 0.27119500D+06 0.10878103D+01  1  2  5  6  6  2        2 -.824132443737D-04 0.100000000000D+01
  </mgrwgt>
  </event>
  <event>
  5     66 0.20411069E-05 0.40909189E+02 0.75467711E-02 0.94017579E-01
       -4 -1    0    0    0  501 0.00000000E+00 0.00000000E+00 0.88352748E+03 0.88352884E+03 0.15500000E+01 0.0000E+00 0.9000E+01
        2 -1    0    0  502    0 0.00000000E+00 0.00000000E+00 -.85404353E+03 0.85404359E+03 0.32000000E+00 0.0000E+00 0.9000E+01
       25  1    1    2    0    0 -.44345440E+03 -.19164264E+03 0.29422298E+03 0.57928479E+03 0.12500000E+03 0.0000E+00 0.9000E+01
        1  1    1    2  502    0 0.32719683E+02 -.24537102E+02 -.59006283E+03 0.59147857E+03 0.32000000E+00 0.0000E+00 0.9000E+01
       -3  1    1    2    0  501 0.41073472E+03 0.21617974E+03 0.32532381E+03 0.56680907E+03 0.50000000E+00 0.0000E+00 0.9000E+01
#aMCatNLO 1  0  0  4  2 0.35098402D+02 0.00000000D+00  -5  6  0 0.00000000D+00 0.00000000D+00 0.00000000D+00 0.00000000D+00 0.00000000D+00
  <mgrwgt>
 0.7138311444D-03    4    2    0
 0.868661129962715D+03 0.000000000000000D+00 0.000000000000000D+00 0.868661129962715D+03
 0.868661129962715D+03 -.000000000000000D+00 -.000000000000000D+00 -.868661129962715D+03
 0.574386905459736D+03 -.443346424331108D+03 -.191574587224592D+03 0.284672518389393D+03
 0.601726075352038D+03 0.327288752609828D+02 -.245434809821429D+02 -.600333830484337D+03
 0.561209279113656D+03 0.410617549070125D+03 0.216118068206736D+03 0.315661312094944D+03
 0.000000000000000D+00 0.000000000000000D+00 0.000000000000000D+00 0.000000000000000D+00
 0.868661129962715D+03 0.000000000000000D+00 0.000000000000000D+00 0.868661129962715D+03
 0.868661129962715D+03 -.000000000000000D+00 -.000000000000000D+00 -.868661129962715D+03
 0.559603452277229D+03 -.441750302926555D+03 -.192771523417036D+03 0.255395445191109D+03
 0.576311022265374D+03 0.430882796541712D+02 0.206381378076787D+02 -.574327312435022D+03
 0.546351313498444D+03 0.412176469881617D+03 0.214949028849763D+03 0.287066595816977D+03
 0.550564718843834D+02 -.135144466092335D+02 -.428156432404060D+02 0.318652714269368D+02
0.240863819780D-02 0.000000000000D+00 0.000000000000D+00 0.269789154169D-04 0.000000000000D+00  6 -4 2 25 1 -3 21 0 0.13592741D+00 0.13139142D+00 0.25190812D+06 0.25190812D+06 0.25190812D+06 0.10902108D+01  1  2  2  3  6  4        1 0.133768032028D-02 0.100000000000D+01
0.116873454678D-02 0.000000000000D+00 -.924980488857D-05 0.269789154169D-04 0.000000000000D+00  6 -4 2 25 1 -3 21 2 0.13592741D+00 0.13139142D+00 0.25190812D+06 0.25190812D+06 0.25190812D+06 0.10902108D+01  1  2  3  3  6  4        1 0.771467419692D-03 0.100000000000D+01
-.135184934731D-02 0.000000000000D+00 0.000000000000D+00 0.269789154169D-04 0.000000000000D+00  6 -4 2 25 1 -3 21 2 0.13592741D+00 0.13139142D+00 0.25190812D+06 0.25190812D+06 0.25190812D+06 0.10902108D+01  1  2 15  3  6  4        1 -.892339266132D-03 0.100000000000D+01
-.761985491795D-03 0.000000000000D+00 0.000000000000D+00 0.269789154169D-04 0.000000000000D+00  6 -4 2 25 1 -3 21 2 0.13592741D+00 0.13139142D+00 0.25190812D+06 0.25190812D+06 0.25190812D+06 0.10902108D+01  1  2  4  3  6  4        1 -.502977329468D-03 0.100000000000D+01
  </mgrwgt>
  </event>
  <event>
  5     66 0.20411069E-05 0.20185280E+02 0.75467711E-02 0.94871327E-01
       -4 -1    0    0    0  501 0.00000000E+00 0.00000000E+00 0.18756336E+03 0.18756976E+03 0.15500000E+01 0.0000E+00 0.9000E+01
        2 -1    0    0  502    0 0.00000000E+00 0.00000000E+00 -.38712418E+04 0.38712418E+04 0.32000000E+00 0.0000E+00 0.9000E+01
       25  1    1    2    0    0 0.21318079E+03 -.40876195E+03 -.27868766E+04 0.28275145E+04 0.12500000E+03 0.0000E+00 0.9000E+01
        1  1    1    2  502    0 0.52157232E+01 -.19516522E+02 -.71813821E+03 0.71842236E+03 0.32000000E+00 0.0000E+00 0.9000E+01
       -3  1    1    2    0  501 -.21839652E+03 0.42827847E+03 -.17866365E+03 0.51287468E+03 0.50000000E+00 0.0000E+00 0.9000E+01
#aMCatNLO 1  0  0  2  4 0.76925312D+02 0.00000000D+00  -5  6  0 0.00000000D+00 0.00000000D+00 0.00000000D+00 0.00000000D+00 0.00000000D+00
  <mgrwgt>
 0.2990269484D-01    6    2    0
 0.852124483468009D+03 0.000000000000000D+00 0.000000000000000D+00 0.852124483468009D+03
 0.852124483468009D+03 0.000000000000000D+00 0.000000000000000D+00 -.852124483468009D+03
 0.710361587390059D+03 0.213189059231754D+03 -.408785798568223D+03 -.525769132559285D+03
 0.158593181990559D+03 0.521164350282879D+01 -.195008795987746D+02 -.157303375172830D+03
 0.835294197555401D+03 -.218400702734583D+03 0.428286678166998D+03 0.683072507732115D+03
 0.000000000000000D+00 -.000000000000000D+00 -.000000000000000D+00 -.000000000000000D+00
 0.122952873142700D+04 0.000000000000000D+00 0.000000000000000D+00 0.122952873142700D+04
 0.137766520267681D+04 0.000000000000000D+00 0.000000000000000D+00 -.137766520267681D+04
 0.654632133022673D+03 0.335562910487119D+03 -.154539904034802D+03 -.525769132559285D+03
 0.166139185681376D+03 0.343244151332154D+02 0.409842860602606D+02 -.157303375172830D+03
 0.103562689751518D+04 -.506696601848317D+02 0.776767407641592D+03 0.683072507732115D+03
 0.750795717884573D+03 -.319217665435503D+03 -.663211789667051D+03 -.148136471249811D+03
0.752764030117D-01 0.000000000000D+00 0.000000000000D+00 0.329545661308D-04 0.000000000000D+00  6 -4 2 25 1 -3 21 0 0.28856395D-01 0.59557615D+00 0.23942707D+06 0.23942707D+06 0.23942707D+06 0.10918737D+01  1  2  2  2  6  2        2 0.265374104290D-01 0.100000000000D+01
0.284892250826D-01 0.000000000000D+00 -.289081208297D-03 0.329545661308D-04 0.000000000000D+00  6 -4 2 25 1 -3 21 2 0.28856395D-01 0.59557615D+00 0.23942707D+06 0.23942707D+06 0.23942707D+06 0.10918737D+01  1  2  3  2  6  2        2 0.119736114351D-01 0.100000000000D+01
-.493300567520D-01 0.000000000000D+00 0.000000000000D+00 0.329545661308D-04 0.000000000000D+00  6 -4 2 25 1 -3 21 2 0.28856395D-01 0.59557615D+00 0.23942707D+06 0.23942707D+06 0.23942707D+06 0.10918737D+01  1  2 15  2  6  2        2 -.207327131541D-01 0.100000000000D+01
-.149013986580D-01 0.000000000000D+00 -.220906986986D-01 0.329545661308D-04 0.000000000000D+00  6 -4 2 25 1 -3 21 2 0.28856395D-01 0.96921571D+00 0.23942707D+06 0.23942707D+06 0.23942707D+06 0.10918737D+01  1  2  5  2  6  2        2 -.123325374638D-06 0.100000000000D+01
0.288482619113D-01 0.000000000000D+00 0.236928470959D-01 0.329545661308D-04 0.000000000000D+00  6 -4 2 25 1 -3 21 2 0.28856395D-01 0.59557615D+00 0.23942707D+06 0.23942707D+06 0.23942707D+06 0.10918737D+01  1  2  6  2  6  2        2 0.121245094488D-01 0.100000000000D+01
0.143847942135D-03 0.000000000000D+00 -.121987291303D-02 0.329545661308D-04 0.000000000000D+00  6 -4 21 25 1 -3 -2 2 0.28856395D-01 0.96921571D+00 0.23942707D+06 0.23942707D+06 0.23942707D+06 0.10918737D+01  1  2  5  6  6  2        2 0.601129366315D-11 0.100000000000D+01
  </mgrwgt>
  </event>
  <event>
  6     66 0.20411069E-05 0.25507480E+03 0.75467711E-02 0.91099315E-01
       -4 -1    0    0    0  501 0.00000000E+00 0.00000000E+00 0.14015048E+04 0.14015056E+04 0.15500000E+01 0.0000E+00 0.9000E+01
        2 -1    0    0  502    0 -.00000000E+00 -.00000000E+00 -.29541473E+04 0.29541473E+04 0.32000000E+00 0.0000E+00 0.9000E+01
       25  1    1    2    0    0 0.32709868E+03 -.56258867E+03 -.99973133E+03 0.11994112E+04 0.12500000E+03 0.0000E+00 0.9000E+01
        1  1    1    2  503    0 -.25233957E+03 0.19456814E+03 -.98988887E+03 0.10399097E+04 0.32000000E+00 0.0000E+00 0.9000E+01
       -3  1    1    2    0  501 -.46580618E+02 0.19472561E+02 0.12397118E+04 0.12407395E+04 0.50000000E+00 0.0000E+00 0.9000E+01
       21  1    1    2  502  503 -.28178487E+02 0.34854797E+03 -.80273413E+03 0.87559257E+03 0.75000000E+00 0.0000E+00 0.9000E+01
#aMCatNLO 2  0  0  4  2 0.87620896D+02 0.00000000D+00  -5  6  0 0.00000000D+00 0.00000000D+00 0.00000000D+00 0.00000000D+00 0.00000000D+00
  <mgrwgt>
 0.3172561078D-02    1    2    0
 0.203476126976454D+04 0.000000000000000D+00 0.000000000000000D+00 0.203476126976454D+04
 0.203476126976454D+04 -.000000000000000D+00 -.000000000000000D+00 -.203476126976454D+04
 0.900503679112358D+03 0.328531904923273D+03 -.565362830503363D+03 -.606393876476011D+03
 0.135618328774803D+04 -.284791282480595D+03 0.551387875978839D+03 -.120586004395770D+04
 0.181283557266868D+04 -.437406224426779D+02 0.139749545245242D+02 0.181225392043371D+04
 0.000000000000000D+00 0.000000000000000D+00 0.000000000000000D+00 0.000000000000000D+00
 0.203476126976454D+04 0.000000000000000D+00 0.000000000000000D+00 0.203476126976454D+04
 0.203476126976454D+04 -.000000000000000D+00 -.000000000000000D+00 -.203476126976454D+04
 0.902327548014360D+03 0.327115232774431D+03 -.562619994275006D+03 -.612392333748986D+03
 0.735027654440573D+03 -.252285334565420D+03 0.194438128143269D+03 -.662428544885987D+03
 0.180093782379860D+04 -.465803403519125D+02 0.194729670083108D+02 0.180023001881344D+04
 0.631229513275536D+03 -.282495578570988D+02 0.348708899123426D+03 -.525409140178468D+03
0.429443058412D+00 0.000000000000D+00 0.000000000000D+00 0.647579166099D-03 0.339708044882D-07  6 -4 2 25 1 -3 21 2 0.21561618D+00 0.45448427D+00 0.47717442D+06 0.47717442D+06 0.47717442D+06 0.10699475D+01  1  2  1  3  6  4        1 0.317256107772D-02 0.100000000000D+01
  </mgrwgt>
  </event>
  <event>
  6     66 0.20411069E-05 0.20143054E+02 0.75467711E-02 0.88615474E-01
       21 -1    0    0  503  501 0.00000000E+00 0.00000000E+00 0.15929339E+04 0.15929340E+04 0.75000000E+00 0.0000E+00 0.9000E+01
        2 -1    0    0  502    0 0.00000000E+00 0.00000000E+00 -.29025562E+04 0.29025562E+04 0.32000000E+00 0.0000E+00 0.9000E+01
       25  1    1    2    0    0 -.44652090E+03 0.73502639E+03 -.76194593E+03 0.11557817E+04 0.12500000E+03 0.0000E+00 0.9000E+01
        1  1    1    2  502    0 0.42493876E+03 -.75305806E+03 -.18435171E+04 0.20362281E+04 0.32000000E+00 0.0000E+00 0.9000E+01
        4  1    1    2  503    0 0.36548600E+01 0.38124354E+01 0.12653185E+04 0.12653305E+04 0.15500000E+01 0.0000E+00 0.9000E+01
       -3  1    1    2    0  501 0.17927277E+02 0.14219240E+02 0.30522155E+02 0.38150046E+02 0.50000000E+00 0.0000E+00 0.9000E+01
#aMCatNLO 2  0  0  1  5 0.52813507D+01 0.00000000D+00  -5  6  0 0.00000000D+00 0.00000000D+00 0.00000000D+00 0.00000000D+00 0.00000000D+00
  <mgrwgt>
 0.4930130470D-03    2    2    0
 0.975138964438382D+03 0.000000000000000D+00 0.000000000000000D+00 0.975138964438382D+03
 0.975138964438382D+03 0.000000000000000D+00 0.000000000000000D+00 -.975138964438382D+03
 0.909179306260861D+03 -.444877436622493D+03 0.737036178489877D+03 0.264279679344098D+03
 0.937997499692963D+03 0.426833793318841D+03 -.751395995507895D+03 -.364768803827848D+03
 0.000000000000000D+00 0.000000000000000D+00 0.000000000000000D+00 0.000000000000000D+00
 0.103101122922939D+03 0.180436433036515D+02 0.143598170180181D+02 0.100489124483750D+03
 0.474143014317360D+04 0.000000000000000D+00 0.000000000000000D+00 0.474143014317360D+04
 0.975144391374331D+03 0.000000000000000D+00 0.000000000000000D+00 -.975144391374331D+03
 0.908575578669337D+03 -.446580688065627D+03 0.735259493163422D+03 0.264279679344098D+03
 0.938669885140959D+03 0.425075340373397D+03 -.753230262291010D+03 -.364768803827848D+03
 0.376628945473808D+04 0.365485997515985D+01 0.381243539483844D+01 0.376628575179927D+04
 0.103039615999556D+03 0.178504877170708D+02 0.141583337327498D+02 0.100489124483750D+03
-.720867603402D-02 0.000000000000D+00 0.000000000000D+00 0.749754157372D-06 0.000000000000D+00  6 21 2 25 1 4 -3 2 0.24523966D+00 0.44654457D+00 0.77638248D+06 0.77638248D+06 0.77638248D+06 0.10552606D+01  1  2 13  5  5  1       -4 -.867742095343D-03 0.100000000000D+01
0.112733101237D-01 0.000000000000D+00 0.000000000000D+00 0.749754157372D-06 0.121817710142D-06  6 21 2 25 1 4 -3 2 0.24506672D+00 0.44654705D+00 0.77638248D+06 0.77638248D+06 0.77638248D+06 0.10552606D+01  1  2  1  5  5  1       -4 0.136075514236D-02 0.100000000000D+01
  </mgrwgt>
  </event>
  <event>
  5     66 0.20411069E-05 0.38454182E+02 0.75467711E-02 0.94271761E-01
       -4 -1    0    0    0  501 0.00000000E+00 0.00000000E+00 0.82169221E+03 0.82169368E+03 0.15500000E+01 0.0000E+00 0.9000E+01
        2 -1    0    0  502    0 0.00000000E+00 0.00000000E+00 -.62247832E+03 0.62247841E+03 0.32000000E+00 0.0000E+00 0.9000E+01
       25  1    1    2    0    0 0.39813092E+03 0.25928228E+03 0.11818695E+03 0.50530059E+03 0.12500000E+03 0.0000E+00 0.9000E+01
        1  1    1    2  502    0 -.21868851E+02 0.31617196E+02 -.31661470E+03 0.31894022E+03 0.32000000E+00 0.0000E+00 0.9000E+01
       -3  1    1    2    0  501 -.37626207E+03 -.29089947E+03 0.39764164E+03 0.61993127E+03 0.50000000E+00 0.0000E+00 0.9000E+01
#aMCatNLO 1  0  0  4  1 0.27905186D+02 0.00000000D+00  -5  6  0 0.00000000D+00 0.00000000D+00 0.00000000D+00 0.00000000D+00 0.00000000D+00
  <mgrwgt>
 0.1580172384D-02    6    2    0
 0.715182988584006D+03 0.000000000000000D+00 0.000000000000000D+00 0.715182988584006D+03
 0.715182988584006D+03 -.000000000000000D+00 -.000000000000000D+00 -.715182988584006D+03
 0.493674036667441D+03 0.398087976652997D+03 0.259235388494712D+03 0.491124289344887D+02
 0.366234125224886D+03 -.218756659253717D+02 0.316256124972228D+02 -.364209706561665D+03
 0.570457815275685D+03 -.376212310727625D+03 -.290861000991934D+03 0.315097277627176D+03
 0.000000000000000D+00 0.000000000000000D+00 0.000000000000000D+00 0.000000000000000D+00
 0.715182988584006D+03 0.000000000000000D+00 0.000000000000000D+00 0.715182988584006D+03
 0.715182988584006D+03 -.000000000000000D+00 -.000000000000000D+00 -.715182988584006D+03
 0.493525464523584D+03 0.397999470154717D+03 0.259363342186619D+03 0.476388771862980D+02
 0.196875862610115D+03 -.244487027492473D+02 -.792461732020227D+01 -.195191102903499D+03
 0.569511777548348D+03 -.376314513693372D+03 -.290713246340633D+03 0.313395692299830D+03
 0.170452872485964D+03 0.276374628790231D+01 0.392745214742167D+02 -.165843466582630D+03
0.271315416273D-03 0.000000000000D+00 0.000000000000D+00 0.137202874773D-04 0.000000000000D+00  6 -4 2 25 1 -3 21 0 0.12641431D+00 0.95766015D-01 0.25261511D+06 0.25261511D+06 0.25261511D+06 0.10901193D+01  1  2  2  3  6  4        1 0.278836599923D-03 0.100000000000D+01
0.114659774900D-03 0.000000000000D+00 -.104192263748D-05 0.137202874773D-04 0.000000000000D+00  6 -4 2 25 1 -3 21 2 0.12641431D+00 0.95766015D-01 0.25261511D+06 0.25261511D+06 0.25261511D+06 0.10901193D+01  1  2  3  3  6  4        1 0.140034303812D-03 0.100000000000D+01
-.169178120125D-03 0.000000000000D+00 0.000000000000D+00 0.137202874773D-04 0.000000000000D+00  6 -4 2 25 1 -3 21 2 0.12641431D+00 0.95766015D-01 0.25261511D+06 0.25261511D+06 0.25261511D+06 0.10901193D+01  1  2 15  3  6  4        1 -.206617711334D-03 0.100000000000D+01
-.287790945986D-03 0.000000000000D+00 0.000000000000D+00 0.137202874773D-04 0.000000000000D+00  6 -4 2 25 1 -3 21 2 0.12641431D+00 0.95766015D-01 0.25261511D+06 0.25261511D+06 0.25261511D+06 0.10901193D+01  1  2  4  3  6  4        1 -.351479887342D-03 0.100000000000D+01
-.253444860411D-02 0.000000000000D+00 0.000000000000D+00 0.137202874773D-04 0.000000000000D+00  6 -4 2 25 1 -3 21 2 0.12641431D+00 0.95766015D-01 0.25261511D+06 0.25261511D+06 0.25261511D+06 0.10901193D+01  1  2  5  3  6  4        1 -.309532916957D-02 0.100000000000D+01
0.394228872641D-02 0.000000000000D+00 -.000000000000D+00 0.137202874773D-04 0.000000000000D+00  6 -4 2 25 1 -3 21 2 0.12641431D+00 0.95766015D-01 0.25261511D+06 0.25261511D+06 0.25261511D+06 0.10901193D+01  1  2  6  3  6  4        1 0.481472824896D-02 0.100000000000D+01
  </mgrwgt>
  </event>
  <event>
  5     66 0.20411069E-05 0.75846251E+02 0.75467711E-02 0.89262506E-01
       -4 -1    0    0    0  501 0.00000000E+00 0.00000000E+00 0.83953981E+03 0.83954125E+03 0.15500000E+01 0.0000E+00 0.9000E+01
        2 -1    0    0  502    0 -.00000000E+00 -.00000000E+00 -.19053289E+04 0.19053289E+04 0.32000000E+00 0.0000E+00 0.9000E+01
       25  1    1    2    0    0 0.46812270E+03 -.20689602E+03 -.34331468E+03 0.62883606E+03 0.12500000E+03 0.0000E+00 0.9000E+01
        1  1    1    2  502    0 -.44258813E+03 0.13546969E+03 -.13792758E+04 0.14548670E+04 0.32000000E+00 0.0000E+00 0.9000E+01
       -3  1    1    2    0  501 -.25534567E+02 0.71426336E+02 0.65680133E+03 0.66116713E+03 0.50000000E+00 0.0000E+00 0.9000E+01
#aMCatNLO 1  0  0  5  1 0.29535051D+02 0.00000000D+00  -5  6  0 0.00000000D+00 0.00000000D+00 0.00000000D+00 0.00000000D+00 0.00000000D+00
  <mgrwgt>
 0.9428622535D-02    3    2    0
 0.126475352913992D+04 0.000000000000000D+00 0.000000000000000D+00 0.126475352913992D+04
 0.126475352913992D+04 -.000000000000000D+00 -.000000000000000D+00 -.126475352913992D+04
 0.537779852496286D+03 0.468200036195264D+03 -.206917273999501D+03 -.107499477107082D+03
 0.997623286866475D+03 -.442667869820735D+03 0.135497653229918D+03 -.883706832323835D+03
 0.994103918917084D+03 -.255321663745288D+02 0.714196207695833D+02 0.991206309430916D+03
 0.000000000000000D+00 0.000000000000000D+00 0.000000000000000D+00 -.000000000000000D+00
 0.126475352913992D+04 0.000000000000000D+00 0.000000000000000D+00 0.126475352913992D+04
 0.126475352913992D+04 -.000000000000000D+00 -.000000000000000D+00 -.126475352913992D+04
 0.522168504061192D+03 0.465727480017663D+03 -.200000938662132D+03 -.115102356259835D+02
 0.856695924443062D+03 -.446993465867752D+03 0.147597387531687D+03 -.715779127680256D+03
 0.310508624982685D+03 -.126489847753368D+03 -.281259787403819D+03 -.361781231343808D+02
 0.840134004792906D+03 0.107755833603457D+03 0.333663338534264D+03 0.763467486440620D+03
0.909734642217D-01 0.000000000000D+00 0.000000000000D+00 0.181673883275D-03 0.000000000000D+00  6 -4 2 25 1 -3 21 0 0.12916008D+00 0.29312764D+00 0.28393625D+06 0.28393625D+06 0.28393625D+06 0.10863246D+01  1  2  2  4  6  5       -3 0.146910261124D-01 0.100000000000D+01
0.316311018664D-01 0.000000000000D+00 -.349362056475D-03 0.181673883275D-03 0.000000000000D+00  6 -4 2 25 1 -3 21 2 0.12916008D+00 0.29312764D+00 0.28393625D+06 0.28393625D+06 0.28393625D+06 0.10863246D+01  1  2  3  4  6  5       -3 0.602796773266D-02 0.100000000000D+01
-.592449894975D-01 0.000000000000D+00 0.000000000000D+00 0.181673883275D-03 0.000000000000D+00  6 -4 2 25 1 -3 21 2 0.12916008D+00 0.29312764D+00 0.28393625D+06 0.28393625D+06 0.28393625D+06 0.10863246D+01  1  2 15  4  6  5       -3 -.112903713099D-01 0.100000000000D+01
  </mgrwgt>
  </event>
</LesHouchesEvents>
