<event>
 5    0  0.1615618E+000  0.2664986E+03  0.7546771E-02  0.1103300E+00
         21   -1    0    0  503  501  0.00000000000E+00  0.00000000000E+00  0.12698304773E+03  0.12698304773E+03  0.00000000000E+00 0. -1.
         21   -1    0    0  501  502 -0.00000000000E+00 -0.00000000000E+00 -0.81270774270E+03  0.81270774270E+03  0.00000000000E+00 0. -1.
         25    1    1    2    0    0 -0.52563910977E+02  0.23364348443E+03 -0.60813413227E+03  0.66543547049E+03  0.12500000000E+03 0.  0.
         21    1    1    2  503  504 -0.14719056565E+02 -0.18731771473E+02  0.17748557494E+02  0.29707594682E+02  0.00000000000E+00 0. -1.
         21    1    1    2  504  502  0.67282967542E+02 -0.21491171296E+03 -0.95339120186E+02  0.24454772525E+03  0.00000000000E+00 0. -1.
<mgrwt>
<rscale>  4 0.26649865E+03</rscale>
<asrwt>0</asrwt>
<pdfrwt beam="1">  1       21 0.19535853E-01 0.26649865E+03</pdfrwt>
<pdfrwt beam="2">  1       21 0.12503196E+00 0.26649865E+03</pdfrwt>
<totfact> 0.10978612E+04</totfact>
</mgrwt>
</event>
<event>
 5    0  0.1615618E+000  0.2710088E+03  0.7546771E-02  0.1100704E+00
         21   -1    0    0  503  501  0.00000000000E+00  0.00000000000E+00  0.12186403228E+03  0.12186403228E+03  0.00000000000E+00 0.  1.
         21   -1    0    0  501  502 -0.00000000000E+00 -0.00000000000E+00 -0.90215916312E+03  0.90215916312E+03  0.00000000000E+00 0.  1.
         25    1    1    2    0    0  0.32546297205E+02  0.25008258858E+03 -0.57608857507E+03  0.64117361838E+03  0.12500000000E+03 0.  0.
         21    1    1    2  503  504 -0.89847447344E+02 -0.27859979479E+02 -0.52180635718E+02  0.10757119036E+03  0.00000000000E+00 0. -1.
         21    1    1    2  504  502  0.57301150139E+02 -0.22222260910E+03 -0.15202592004E+03  0.27527838667E+03  0.00000000000E+00 0.  1.
<mgrwt>
<rscale>  4 0.27100879E+03</rscale>
<asrwt>0</asrwt>
<pdfrwt beam="1">  1       21 0.18748312E-01 0.27100879E+03</pdfrwt>
<pdfrwt beam="2">  1       21 0.13879372E+00 0.27100879E+03</pdfrwt>
<totfact> 0.90525123E+03</totfact>
</mgrwt>
</event>
<event>
 5    0  0.1615618E+000  0.2786018E+03  0.7546771E-02  0.1096455E+00
         21   -1    0    0  503  501  0.00000000000E+00  0.00000000000E+00  0.86787914145E+03  0.86787914145E+03  0.00000000000E+00 0. -1.
         21   -1    0    0  504  502 -0.00000000000E+00 -0.00000000000E+00 -0.99068498927E+03  0.99068498927E+03  0.00000000000E+00 0.  1.
         25    1    1    2    0    0  0.12105250638E+03 -0.21733995664E+03 -0.89224262189E+03  0.93467227538E+03  0.12500000000E+03 0.  0.
         21    1    1    2  503  502 -0.14374634991E+03  0.20712494291E+03  0.12942846662E+03  0.28339986425E+03  0.00000000000E+00 0. -1.
         21    1    1    2  504  501  0.22693843534E+02  0.10215013732E+02  0.64000830745E+03  0.64049199109E+03  0.00000000000E+00 0. -1.
<mgrwt>
<rscale>  4 0.27860183E+03</rscale>
<asrwt>0</asrwt>
<pdfrwt beam="1">  1       21 0.13351987E+00 0.27860183E+03</pdfrwt>
<pdfrwt beam="2">  1       21 0.15241308E+00 0.27860183E+03</pdfrwt>
<totfact> 0.10486269E+02</totfact>
</mgrwt>
</event>
<event>
 5    0  0.1615618E+000  0.2367603E+03  0.7546771E-02  0.1121970E+00
         21   -1    0    0  502  501  0.00000000000E+00  0.00000000000E+00  0.14824820544E+03  0.14824820544E+03  0.00000000000E+00 0.  1.
         21   -1    0    0  503  502 -0.00000000000E+00 -0.00000000000E+00 -0.75358231516E+03  0.75358231516E+03  0.00000000000E+00 0.  1.
         25    1    1    2    0    0 -0.14446150751E+03  0.14473333232E+03 -0.62785301127E+03  0.67204260906E+03  0.12500000000E+03 0.  0.
         21    1    1    2  503  504  0.32973273758E+02  0.20675830628E+01 -0.22576438122E+02  0.40015087659E+02  0.00000000000E+00 0. -1.
         21    1    1    2  504  501  0.11148823375E+03 -0.14680091538E+03  0.45095339671E+02  0.18977282388E+03  0.00000000000E+00 0.  1.
<mgrwt>
<rscale>  4 0.23676026E+03</rscale>
<asrwt>0</asrwt>
<pdfrwt beam="1">  1       21 0.22807417E-01 0.23676026E+03</pdfrwt>
<pdfrwt beam="2">  1       21 0.11593574E+00 0.23676026E+03</pdfrwt>
<totfact> 0.10063750E+04</totfact>
</mgrwt>
</event>
<event>
 5    0  0.1615618E+000  0.2944959E+03  0.7546771E-02  0.1088025E+00
         21   -1    0    0  502  501  0.00000000000E+00  0.00000000000E+00  0.43497620111E+03  0.43497620111E+03  0.00000000000E+00 0. -1.
         21   -1    0    0  504  502 -0.00000000000E+00 -0.00000000000E+00 -0.73166449152E+03  0.73166449152E+03  0.00000000000E+00 0. -1.
         25    1    1    2    0    0 -0.22132795871E+02  0.27890972756E+03 -0.62912597447E+03  0.69978924579E+03  0.12500000000E+03 0.  0.
         21    1    1    2  503  501 -0.73928560732E+02 -0.11362115987E+03  0.11976761547E+03  0.18088527242E+03  0.00000000000E+00 0. -1.
         21    1    1    2  504  503  0.96061356603E+02 -0.16528856768E+03  0.21267006859E+03  0.28596617442E+03  0.00000000000E+00 0. -1.
<mgrwt>
<rscale>  4 0.29449592E+03</rscale>
<asrwt>0</asrwt>
<pdfrwt beam="1">  1       21 0.66919417E-01 0.29449592E+03</pdfrwt>
<pdfrwt beam="2">  1       21 0.11256377E+00 0.29449592E+03</pdfrwt>
<totfact> 0.11637785E+03</totfact>
</mgrwt>
</event>
<event>
 5    0  0.1615618E+000  0.2871185E+03  0.7546771E-02  0.1091863E+00
         21   -1    0    0  503  501  0.00000000000E+00  0.00000000000E+00  0.81824120137E+03  0.81824120137E+03  0.00000000000E+00 0.  1.
         21   -1    0    0  501  502 -0.00000000000E+00 -0.00000000000E+00 -0.22304394916E+03  0.22304394916E+03  0.00000000000E+00 0.  1.
         25    1    1    2    0    0 -0.17031927041E+03 -0.16168141913E+03  0.86884919700E+02  0.27986340318E+03  0.12500000000E+03 0.  0.
         21    1    1    2  503  504 -0.12163925914E+03  0.85438230449E+02  0.42223317997E+03  0.44763451482E+03  0.00000000000E+00 0.  1.
         21    1    1    2  504  502  0.29195852956E+03  0.76243188680E+02  0.86079152533E+02  0.31378723254E+03  0.00000000000E+00 0.  1.
<mgrwt>
<rscale>  4 0.28711846E+03</rscale>
<asrwt>0</asrwt>
<pdfrwt beam="1">  1       21 0.12588326E+00 0.28711846E+03</pdfrwt>
<pdfrwt beam="2">  1       21 0.34314454E-01 0.28711846E+03</pdfrwt>
<totfact> 0.35866738E+03</totfact>
</mgrwt>
</event>
<event>
 5    0  0.1615618E+000  0.2590480E+03  0.7546771E-02  0.1107717E+00
         21   -1    0    0  503  501  0.00000000000E+00  0.00000000000E+00  0.96921265907E+02  0.96921265907E+02  0.00000000000E+00 0. -1.
         21   -1    0    0  504  502 -0.00000000000E+00 -0.00000000000E+00 -0.11232767353E+04  0.11232767353E+04  0.00000000000E+00 0. -1.
         25    1    1    2    0    0 -0.91533210657E+02 -0.20761149823E+03 -0.92687145736E+03  0.96239106465E+03  0.12500000000E+03 0.  0.
         21    1    1    2  503  502  0.86715372533E+02  0.17578569834E+03 -0.10895076934E+03  0.22425529584E+03  0.00000000000E+00 0. -1.
         21    1    1    2  504  501  0.48178381241E+01  0.31825799893E+02  0.94667572817E+01  0.33551640742E+02  0.00000000000E+00 0. -1.
<mgrwt>
<rscale>  4 0.25904799E+03</rscale>
<asrwt>0</asrwt>
<pdfrwt beam="1">  1       21 0.14910964E-01 0.25904799E+03</pdfrwt>
<pdfrwt beam="2">  1       21 0.17281180E+00 0.25904799E+03</pdfrwt>
<totfact> 0.77064129E+03</totfact>
</mgrwt>
</event>
<event>
 5    0  0.1615618E+000  0.2570605E+03  0.7546771E-02  0.1108922E+00
         21   -1    0    0  503  501  0.00000000000E+00  0.00000000000E+00  0.12309122303E+03  0.12309122303E+03  0.00000000000E+00 0. -1.
         21   -1    0    0  501  502 -0.00000000000E+00 -0.00000000000E+00 -0.92618501645E+03  0.92618501645E+03  0.00000000000E+00 0.  1.
         25    1    1    2    0    0  0.15544673763E+03  0.15190432455E+03 -0.66596575653E+03  0.71159960717E+03  0.12500000000E+03 0.  0.
         21    1    1    2  503  504  0.46125560061E+02  0.42920691881E+01 -0.50083178551E+02  0.68222532368E+02  0.00000000000E+00 0. -1.
         21    1    1    2  504  502 -0.20157229769E+03 -0.15619639374E+03 -0.87044858344E+02  0.26945409994E+03  0.00000000000E+00 0. -1.
<mgrwt>
<rscale>  4 0.25706050E+03</rscale>
<asrwt>0</asrwt>
<pdfrwt beam="1">  1       21 0.18937112E-01 0.25706050E+03</pdfrwt>
<pdfrwt beam="2">  1       21 0.14249000E+00 0.25706050E+03</pdfrwt>
<totfact> 0.83603026E+03</totfact>
</mgrwt>
</event>
<event>
 5    0  0.1615618E+000  0.2942303E+03  0.7546771E-02  0.1088161E+00
         21   -1    0    0  503  501  0.00000000000E+00  0.00000000000E+00  0.18764924834E+03  0.18764924834E+03  0.00000000000E+00 0.  1.
         21   -1    0    0  504  502 -0.00000000000E+00 -0.00000000000E+00 -0.10449681077E+04  0.10449681077E+04  0.00000000000E+00 0. -1.
         25    1    1    2    0    0 -0.26202907659E+03 -0.56343527144E+02 -0.86907366625E+03  0.91801299958E+03  0.12500000000E+03 0.  0.
         21    1    1    2  503  502  0.26001527350E+03  0.17247159099E+02 -0.23864187171E+02  0.26167710328E+03  0.00000000000E+00 0.  1.
         21    1    1    2  504  501  0.20138030866E+01  0.39096368045E+02  0.35618994033E+02  0.52927253217E+02  0.00000000000E+00 0. -1.
<mgrwt>
<rscale>  4 0.29423027E+03</rscale>
<asrwt>0</asrwt>
<pdfrwt beam="1">  1       21 0.28869114E-01 0.29423027E+03</pdfrwt>
<pdfrwt beam="2">  1       21 0.16076433E+00 0.29423027E+03</pdfrwt>
<totfact> 0.26400490E+03</totfact>
</mgrwt>
</event>
<event>
 5    0  0.1615618E+000  0.2552429E+03  0.7546771E-02  0.1110036E+00
         21   -1    0    0  502  501  0.00000000000E+00  0.00000000000E+00  0.33768362513E+03  0.33768362513E+03  0.00000000000E+00 0. -1.
         21   -1    0    0  503  502 -0.00000000000E+00 -0.00000000000E+00 -0.20963360668E+03  0.20963360668E+03  0.00000000000E+00 0. -1.
         25    1    1    2    0    0  0.19961825167E+03 -0.90915156044E+02  0.22315374365E+02  0.25344819576E+03  0.12500000000E+03 0.  0.
         21    1    1    2  503  504 -0.13952024147E+02 -0.42914153712E+02  0.13388935784E+02  0.47069599192E+02  0.00000000000E+00 0. -1.
         21    1    1    2  504  501 -0.18566622752E+03  0.13382930976E+03  0.92345708299E+02  0.24679943686E+03  0.00000000000E+00 0. -1.
<mgrwt>
<rscale>  4 0.25524289E+03</rscale>
<asrwt>0</asrwt>
<pdfrwt beam="1">  1       21 0.51951327E-01 0.25524289E+03</pdfrwt>
<pdfrwt beam="2">  1       21 0.32251324E-01 0.25524289E+03</pdfrwt>
<totfact> 0.31549357E+04</totfact>
</mgrwt>
</event>
<event>
 5    0  0.1615618E+000  0.2519303E+03  0.7546771E-02  0.1112091E+00
         21   -1    0    0  503  501  0.00000000000E+00  0.00000000000E+00  0.22704205045E+03  0.22704205045E+03  0.00000000000E+00 0.  1.
         21   -1    0    0  504  502 -0.00000000000E+00 -0.00000000000E+00 -0.86387870196E+03  0.86387870196E+03  0.00000000000E+00 0.  1.
         25    1    1    2    0    0 -0.22700232749E+03  0.24100723383E+02 -0.71831923466E+03  0.76401467553E+03  0.12500000000E+03 0.  0.
         21    1    1    2  503  502  0.18774625473E+03 -0.99700641718E+01 -0.45336972212E+02  0.19339984331E+03  0.00000000000E+00 0.  1.
         21    1    1    2  504  501  0.39256072765E+02 -0.14130659211E+02  0.12681955536E+03  0.13350623356E+03  0.00000000000E+00 0.  1.
<mgrwt>
<rscale>  4 0.25193033E+03</rscale>
<asrwt>0</asrwt>
<pdfrwt beam="1">  1       21 0.34929546E-01 0.25193033E+03</pdfrwt>
<pdfrwt beam="2">  1       21 0.13290442E+00 0.25193033E+03</pdfrwt>
<totfact> 0.30822715E+03</totfact>
</mgrwt>
</event>
<event>
 5    0  0.1615618E+000  0.2056911E+03  0.7546771E-02  0.1145024E+00
         21   -1    0    0  503  501  0.00000000000E+00  0.00000000000E+00  0.69270531388E+03  0.69270531388E+03  0.00000000000E+00 0. -1.
         21   -1    0    0  501  502 -0.00000000000E+00 -0.00000000000E+00 -0.14480203600E+03  0.14480203600E+03  0.00000000000E+00 0. -1.
         25    1    1    2    0    0 -0.70860017680E+02 -0.20269500210E+03  0.99291685909E+02  0.26756353427E+03  0.12500000000E+03 0.  0.
         21    1    1    2  503  504  0.15107559396E+03  0.64606888798E+02  0.33757472945E+03  0.37543918700E+03  0.00000000000E+00 0. -1.
         21    1    1    2  504  502 -0.80215576280E+02  0.13808811330E+03  0.11103686252E+03  0.19450462861E+03  0.00000000000E+00 0. -1.
<mgrwt>
<rscale>  4 0.20569107E+03</rscale>
<asrwt>0</asrwt>
<pdfrwt beam="1">  1       21 0.10657005E+00 0.20569107E+03</pdfrwt>
<pdfrwt beam="2">  1       21 0.22277237E-01 0.20569107E+03</pdfrwt>
<totfact> 0.13174794E+04</totfact>
</mgrwt>
</event>
<event>
 5    0  0.1615618E+000  0.6654832E+03  0.7546771E-02  0.9778152E-01
         21   -1    0    0  503  501  0.00000000000E+00  0.00000000000E+00  0.45374517640E+03  0.45374517640E+03  0.00000000000E+00 0.  1.
         21   -1    0    0  504  502 -0.00000000000E+00 -0.00000000000E+00 -0.22897131884E+04  0.22897131884E+04  0.00000000000E+00 0.  1.
         25    1    1    2    0    0  0.25250533267E+03 -0.62366890338E+03 -0.18033037635E+04  0.19287952995E+04  0.12500000000E+03 0.  0.
         21    1    1    2  503  502 -0.33077915012E+02  0.58873647725E+03  0.27282982385E+01  0.58967129124E+03  0.00000000000E+00 0.  1.
         21    1    1    2  504  501 -0.21942741765E+03  0.34932426134E+02 -0.35392546754E+02  0.22499177403E+03  0.00000000000E+00 0.  1.
<mgrwt>
<rscale>  4 0.66548320E+03</rscale>
<asrwt>0</asrwt>
<pdfrwt beam="1">  1       21 0.69806952E-01 0.66548320E+03</pdfrwt>
<pdfrwt beam="2">  1       21 0.35226356E+00 0.66548320E+03</pdfrwt>
<totfact> 0.20531256E+01</totfact>
</mgrwt>
</event>
<event>
 5    0  0.1615618E+000  0.2269588E+03  0.7546771E-02  0.1128799E+00
         21   -1    0    0  503  501  0.00000000000E+00  0.00000000000E+00  0.32879222863E+03  0.32879222863E+03  0.00000000000E+00 0.  1.
         21   -1    0    0  501  502 -0.00000000000E+00 -0.00000000000E+00 -0.23351404168E+03  0.23351404168E+03  0.00000000000E+00 0.  1.
         25    1    1    2    0    0  0.12943576356E+03  0.15283973910E+03  0.53006901723E+02  0.24196763083E+03  0.12500000000E+03 0.  0.
         21    1    1    2  503  504 -0.34176134773E+02  0.64229442411E+01  0.11566172615E+03  0.12077622819E+03  0.00000000000E+00 0.  1.
         21    1    1    2  504  502 -0.95259628788E+02 -0.15926268334E+03 -0.73390440917E+02  0.19956241129E+03  0.00000000000E+00 0.  1.
<mgrwt>
<rscale>  4 0.22695884E+03</rscale>
<asrwt>0</asrwt>
<pdfrwt beam="1">  1       21 0.50583420E-01 0.22695884E+03</pdfrwt>
<pdfrwt beam="2">  1       21 0.35925237E-01 0.22695884E+03</pdfrwt>
<totfact> 0.27281116E+04</totfact>
</mgrwt>
</event>
<event>
 5    0  0.1615618E+000  0.2553646E+03  0.7546771E-02  0.1109961E+00
         21   -1    0    0  503  501  0.00000000000E+00  0.00000000000E+00  0.10114522296E+04  0.10114522296E+04  0.00000000000E+00 0. -1.
         21   -1    0    0  504  502 -0.00000000000E+00 -0.00000000000E+00 -0.30819296450E+03  0.30819296450E+03  0.00000000000E+00 0. -1.
         25    1    1    2    0    0  0.58182098132E+02  0.20092951477E+03 -0.18220142335E+03  0.30426992148E+03  0.12500000000E+03 0.  0.
         21    1    1    2  503  502 -0.59922581197E+02 -0.31703003188E+03  0.38838234206E+03  0.50491543893E+03  0.00000000000E+00 0. -1.
         21    1    1    2  504  501  0.17404830657E+01  0.11610051710E+03  0.49707834643E+03  0.51045983372E+03  0.00000000000E+00 0. -1.
<mgrwt>
<rscale>  4 0.25536460E+03</rscale>
<asrwt>0</asrwt>
<pdfrwt beam="1">  1       21 0.15560803E+00 0.25536460E+03</pdfrwt>
<pdfrwt beam="2">  1       21 0.47414303E-01 0.25536460E+03</pdfrwt>
<totfact> 0.10894059E+03</totfact>
</mgrwt>
</event>
<event>
 5    0  0.1615618E+000  0.2625349E+03  0.7546771E-02  0.1105630E+00
         21   -1    0    0  503  501  0.00000000000E+00  0.00000000000E+00  0.92641259016E+03  0.92641259016E+03  0.00000000000E+00 0.  1.
         21   -1    0    0  504  502 -0.00000000000E+00 -0.00000000000E+00 -0.17949794986E+03  0.17949794986E+03  0.00000000000E+00 0.  1.
         25    1    1    2    0    0  0.47266023851E+02  0.25003510818E+03  0.36668675734E+01  0.28353144138E+03  0.12500000000E+03 0.  0.
         21    1    1    2  503  502  0.33320018169E+02 -0.74788082869E+02  0.52400848963E+03  0.53036626793E+03  0.00000000000E+00 0.  1.
         21    1    1    2  504  501 -0.80586042019E+02 -0.17524702531E+03  0.21923928309E+03  0.29201283071E+03  0.00000000000E+00 0.  1.
<mgrwt>
<rscale>  4 0.26253490E+03</rscale>
<asrwt>0</asrwt>
<pdfrwt beam="1">  1       21 0.14252501E+00 0.26253490E+03</pdfrwt>
<pdfrwt beam="2">  1       21 0.27615070E-01 0.26253490E+03</pdfrwt>
<totfact> 0.40568579E+03</totfact>
</mgrwt>
</event>
<event>
 5    0  0.2854632E+000  0.1120217E+04  0.7546771E-02  0.9185708E-01
         21   -1    0    0  503  501  0.00000000000E+00  0.00000000000E+00  0.10169314685E+04  0.10169314685E+04  0.00000000000E+00 0.  1.
         21   -1    0    0  504  502 -0.00000000000E+00 -0.00000000000E+00 -0.21751021760E+04  0.21751021760E+04  0.00000000000E+00 0. -1.
         25    1    1    2    0    0  0.45399806118E+02  0.11011831670E+04  0.22723691063E+03  0.11322222057E+04  0.12500000000E+03 0.  0.
         21    1    1    2  503  502 -0.65134808318E+02 -0.11143078224E+04 -0.15407972782E+04  0.19026246921E+04  0.00000000000E+00 0. -1.
         21    1    1    2  504  501  0.19735002199E+02  0.13124655388E+02  0.15538966003E+03  0.15718674669E+03  0.00000000000E+00 0.  1.
<mgrwt>
<rscale>  4 0.11202166E+04</rscale>
<asrwt>0</asrwt>
<pdfrwt beam="1">  1       21 0.15645099E+00 0.11202166E+04</pdfrwt>
<pdfrwt beam="2">  1       21 0.33463110E+00 0.11202166E+04</pdfrwt>
<totfact> 0.29296469E+00</totfact>
</mgrwt>
</event>
<event>
 5    0  0.1615618E+000  0.3411101E+03  0.7546771E-02  0.1066324E+00
         21   -1    0    0  503  501  0.00000000000E+00  0.00000000000E+00  0.13597825540E+04  0.13597825540E+04  0.00000000000E+00 0.  1.
         21   -1    0    0  501  502 -0.00000000000E+00 -0.00000000000E+00 -0.26213856730E+03  0.26213856730E+03  0.00000000000E+00 0. -1.
         25    1    1    2    0    0  0.12479821144E+02  0.31485445561E+03 -0.10763465827E+03  0.35566739211E+03  0.12500000000E+03 0.  0.
         21    1    1    2  503  504  0.36341242326E+02  0.18770515528E+02  0.24751511330E+03  0.25087197822E+03  0.00000000000E+00 0.  1.
         21    1    1    2  504  502 -0.48821063470E+02 -0.33362497114E+03  0.95776353168E+03  0.10153817510E+04  0.00000000000E+00 0.  1.
<mgrwt>
<rscale>  4 0.34111014E+03</rscale>
<asrwt>0</asrwt>
<pdfrwt beam="1">  1       21 0.20919731E+00 0.34111014E+03</pdfrwt>
<pdfrwt beam="2">  1       21 0.40329011E-01 0.34111014E+03</pdfrwt>
<totfact> 0.60923803E+02</totfact>
</mgrwt>
</event>
<event>
 5    0  0.1615618E+000  0.3510599E+03  0.7546771E-02  0.1062181E+00
         21   -1    0    0  503  501  0.00000000000E+00  0.00000000000E+00  0.22662791638E+03  0.22662791638E+03  0.00000000000E+00 0.  1.
         21   -1    0    0  501  502 -0.00000000000E+00 -0.00000000000E+00 -0.10765357480E+04  0.10765357480E+04  0.00000000000E+00 0.  1.
         25    1    1    2    0    0 -0.74928149505E+02 -0.32689773345E+03 -0.73714232614E+03  0.81943893287E+03  0.12500000000E+03 0.  0.
         21    1    1    2  503  504  0.86909901659E+02  0.76894052163E+01  0.73386128451E+02  0.11400869181E+03  0.00000000000E+00 0.  1.
         21    1    1    2  504  502 -0.11981752155E+02  0.31920832824E+03 -0.18615163395E+03  0.36971603972E+03  0.00000000000E+00 0.  1.
<mgrwt>
<rscale>  4 0.35105989E+03</rscale>
<asrwt>0</asrwt>
<pdfrwt beam="1">  1       21 0.34865833E-01 0.35105989E+03</pdfrwt>
<pdfrwt beam="2">  1       21 0.16562089E+00 0.35105989E+03</pdfrwt>
<totfact> 0.16171465E+03</totfact>
</mgrwt>
</event>
<event>
 5    0  0.1615618E+000  0.2743167E+03  0.7546771E-02  0.1098834E+00
         21   -1    0    0  502  501  0.00000000000E+00  0.00000000000E+00  0.11375278394E+03  0.11375278394E+03  0.00000000000E+00 0.  1.
         21   -1    0    0  503  502 -0.00000000000E+00 -0.00000000000E+00 -0.73678390322E+03  0.73678390322E+03  0.00000000000E+00 0.  1.
         25    1    1    2    0    0  0.16347043964E+03  0.16050199938E+03 -0.20444903232E+03  0.33152357874E+03  0.12500000000E+03 0.  0.
         21    1    1    2  503  504  0.17611329036E+02  0.35295178044E+02 -0.66592209192E+02  0.77397873540E+02  0.00000000000E+00 0.  1.
         21    1    1    2  504  501 -0.18108176868E+03 -0.19579717742E+03 -0.35198987776E+03  0.44161523488E+03  0.00000000000E+00 0.  1.
<mgrwt>
<rscale>  4 0.27431669E+03</rscale>
<asrwt>0</asrwt>
<pdfrwt beam="1">  1       21 0.17500428E-01 0.27431669E+03</pdfrwt>
<pdfrwt beam="2">  1       21 0.11335137E+00 0.27431669E+03</pdfrwt>
<totfact> 0.17153962E+04</totfact>
</mgrwt>
</event>
<event>
 5    0  0.1615618E+000  0.2293795E+03  0.7546771E-02  0.1127077E+00
         21   -1    0    0  503  501  0.00000000000E+00  0.00000000000E+00  0.42094173061E+02  0.42094173061E+02  0.00000000000E+00 0.  1.
         21   -1    0    0  504  502 -0.00000000000E+00 -0.00000000000E+00 -0.18178941609E+04  0.18178941609E+04  0.00000000000E+00 0. -1.
         25    1    1    2    0    0 -0.17244981781E+03  0.10433355013E+03 -0.11811690538E+04  0.12047446879E+04  0.12500000000E+03 0.  0.
         21    1    1    2  503  502  0.18958631984E+03 -0.34053356548E+02 -0.34259471088E+03  0.39303147417E+03  0.00000000000E+00 0.  1.
         21    1    1    2  504  501 -0.17136502033E+02 -0.70280193580E+02 -0.25203622320E+03  0.26221217195E+03  0.00000000000E+00 0. -1.
<mgrwt>
<rscale>  4 0.22937954E+03</rscale>
<asrwt>0</asrwt>
<pdfrwt beam="1">  1       21 0.64760292E-02 0.22937954E+03</pdfrwt>
<pdfrwt beam="2">  1       21 0.27967591E+00 0.22937954E+03</pdfrwt>
<totfact> 0.74542351E+03</totfact>
</mgrwt>
</event>
<event>
 5    0  0.1615618E+000  0.2897501E+03  0.7546771E-02  0.1090480E+00
         21   -1    0    0  503  501  0.00000000000E+00  0.00000000000E+00  0.90721510550E+03  0.90721510550E+03  0.00000000000E+00 0. -1.
         21   -1    0    0  501  502 -0.00000000000E+00 -0.00000000000E+00 -0.14448752085E+03  0.14448752085E+03  0.00000000000E+00 0. -1.
         25    1    1    2    0    0  0.28045045627E+03 -0.48083384576E+02  0.42798416263E+03  0.52892335338E+03  0.12500000000E+03 0.  0.
         21    1    1    2  503  504 -0.26433682810E+02  0.51262218629E+02  0.24757339688E+03  0.25420295335E+03  0.00000000000E+00 0. -1.
         21    1    1    2  504  502 -0.25401677346E+03 -0.31788340534E+01  0.87170025142E+02  0.26857631963E+03  0.00000000000E+00 0. -1.
<mgrwt>
<rscale>  4 0.28975010E+03</rscale>
<asrwt>0</asrwt>
<pdfrwt beam="1">  1       21 0.13957155E+00 0.28975010E+03</pdfrwt>
<pdfrwt beam="2">  1       21 0.22228850E-01 0.28975010E+03</pdfrwt>
<totfact> 0.64025274E+03</totfact>
</mgrwt>
</event>
<event>
 5    0  0.1615618E+000  0.2575539E+03  0.7546771E-02  0.1108622E+00
         21   -1    0    0  503  501  0.00000000000E+00  0.00000000000E+00  0.91187585166E+02  0.91187585166E+02  0.00000000000E+00 0. -1.
         21   -1    0    0  504  502 -0.00000000000E+00 -0.00000000000E+00 -0.94840448862E+03  0.94840448862E+03  0.00000000000E+00 0. -1.
         25    1    1    2    0    0 -0.22964788867E+03 -0.62787511965E+01 -0.58007879255E+03  0.63631280126E+03  0.12500000000E+03 0.  0.
         21    1    1    2  503  502  0.21799737751E+03  0.30267601699E+02 -0.29726222883E+03  0.36987000014E+03  0.00000000000E+00 0. -1.
         21    1    1    2  504  501  0.11650511165E+02 -0.23988850502E+02  0.20124117926E+02  0.33409272382E+02  0.00000000000E+00 0. -1.
<mgrwt>
<rscale>  4 0.25755395E+03</rscale>
<asrwt>0</asrwt>
<pdfrwt beam="1">  1       21 0.14028858E-01 0.25755395E+03</pdfrwt>
<pdfrwt beam="2">  1       21 0.14590839E+00 0.25755395E+03</pdfrwt>
<totfact> 0.13661762E+04</totfact>
</mgrwt>
</event>
<event>
 5    0  0.1615618E+000  0.3232622E+03  0.7546771E-02  0.1074158E+00
         21   -1    0    0  503  501  0.00000000000E+00  0.00000000000E+00  0.86297975273E+03  0.86297975273E+03  0.00000000000E+00 0. -1.
         21   -1    0    0  501  502 -0.00000000000E+00 -0.00000000000E+00 -0.19730223013E+03  0.19730223013E+03  0.00000000000E+00 0. -1.
         25    1    1    2    0    0  0.31030305377E+03 -0.44471461505E+02  0.33756939577E+02  0.33916106356E+03  0.12500000000E+03 0.  0.
         21    1    1    2  503  504 -0.46685916367E+02  0.26060399062E+02  0.25654207763E+03  0.26205449201E+03  0.00000000000E+00 0. -1.
         21    1    1    2  504  502 -0.26361713740E+03  0.18411062443E+02  0.37537850539E+03  0.45906642729E+03  0.00000000000E+00 0. -1.
<mgrwt>
<rscale>  4 0.32326217E+03</rscale>
<asrwt>0</asrwt>
<pdfrwt beam="1">  1       21 0.13276611E+00 0.32326217E+03</pdfrwt>
<pdfrwt beam="2">  1       21 0.30354190E-01 0.32326217E+03</pdfrwt>
<totfact> 0.39158520E+03</totfact>
</mgrwt>
</event>
<event>
 5    0  0.1615618E+000  0.2677896E+03  0.7546771E-02  0.1102551E+00
         21   -1    0    0  502  501  0.00000000000E+00  0.00000000000E+00  0.20761521414E+03  0.20761521414E+03  0.00000000000E+00 0.  1.
         21   -1    0    0  503  502 -0.00000000000E+00 -0.00000000000E+00 -0.36138137922E+03  0.36138137922E+03  0.00000000000E+00 0.  1.
         25    1    1    2    0    0  0.19743567038E+02 -0.22132411729E+03 -0.26803722415E+02  0.25635446723E+03  0.12500000000E+03 0.  0.
         21    1    1    2  503  504  0.31241384845E+02 -0.20817583471E+02 -0.94905121369E+01  0.38722935442E+02  0.00000000000E+00 0.  1.
         21    1    1    2  504  501 -0.50984951883E+02  0.24214170076E+03 -0.11747193053E+03  0.27391919069E+03  0.00000000000E+00 0.  1.
<mgrwt>
<rscale>  4 0.26778962E+03</rscale>
<asrwt>0</asrwt>
<pdfrwt beam="1">  1       21 0.31940802E-01 0.26778962E+03</pdfrwt>
<pdfrwt beam="2">  1       21 0.55597135E-01 0.26778962E+03</pdfrwt>
<totfact> 0.27696456E+04</totfact>
</mgrwt>
</event>
<event>
 5    0  0.1615618E+000  0.2956772E+03  0.7546771E-02  0.1087422E+00
         21   -1    0    0  502  501  0.00000000000E+00  0.00000000000E+00  0.20446362805E+04  0.20446362805E+04  0.00000000000E+00 0. -1.
         21   -1    0    0  503  502 -0.00000000000E+00 -0.00000000000E+00 -0.71751610827E+02  0.71751610827E+02  0.00000000000E+00 0.  1.
         25    1    1    2    0    0  0.23969363845E+03  0.12240201010E+03  0.40011954971E+03  0.49815253331E+03  0.12500000000E+03 0.  0.
         21    1    1    2  503  504 -0.52579981806E+02  0.82771734892E+02  0.30342500576E+03  0.31887701188E+03  0.00000000000E+00 0. -1.
         21    1    1    2  504  501 -0.18711365664E+03 -0.20517374499E+03  0.12693401142E+04  0.12993583461E+04  0.00000000000E+00 0. -1.
<mgrwt>
<rscale>  4 0.29567721E+03</rscale>
<asrwt>0</asrwt>
<pdfrwt beam="1">  1       21 0.31455938E+00 0.29567721E+03</pdfrwt>
<pdfrwt beam="2">  1       21 0.11038711E-01 0.29567721E+03</pdfrwt>
<totfact> 0.17196342E+03</totfact>
</mgrwt>
</event>
<event>
 5    0  0.1615618E+000  0.3528556E+03  0.7546771E-02  0.1061449E+00
         21   -1    0    0  503  501  0.00000000000E+00  0.00000000000E+00  0.38985643744E+03  0.38985643744E+03  0.00000000000E+00 0. -1.
         21   -1    0    0  501  502 -0.00000000000E+00 -0.00000000000E+00 -0.67360433234E+03  0.67360433234E+03  0.00000000000E+00 0. -1.
         25    1    1    2    0    0 -0.32420617232E+03 -0.70882472219E+02 -0.36234949782E+03  0.50700702717E+03  0.12500000000E+03 0.  0.
         21    1    1    2  503  504 -0.50905549604E+01  0.54297103009E+02  0.19831695129E+03  0.20567863845E+03  0.00000000000E+00 0. -1.
         21    1    1    2  504  502  0.32929672728E+03  0.16585369210E+02 -0.11971534837E+03  0.35077510417E+03  0.00000000000E+00 0. -1.
<mgrwt>
<rscale>  4 0.35285557E+03</rscale>
<asrwt>0</asrwt>
<pdfrwt beam="1">  1       21 0.59977914E-01 0.35285557E+03</pdfrwt>
<pdfrwt beam="2">  1       21 0.10363143E+00 0.35285557E+03</pdfrwt>
<totfact> 0.17531137E+03</totfact>
</mgrwt>
</event>
<event>
 5    0  0.1615618E+000  0.2909080E+03  0.7546771E-02  0.1089876E+00
         21   -1    0    0  503  501  0.00000000000E+00  0.00000000000E+00  0.43055946538E+03  0.43055946538E+03  0.00000000000E+00 0.  1.
         21   -1    0    0  504  502 -0.00000000000E+00 -0.00000000000E+00 -0.37264916887E+03  0.37264916887E+03  0.00000000000E+00 0. -1.
         25    1    1    2    0    0  0.26849059600E+03 -0.21387694418E+01 -0.23931084374E+03  0.38077086864E+03  0.12500000000E+03 0.  0.
         21    1    1    2  503  502 -0.23864615270E+03 -0.46295098802E+02  0.23463671687E+03  0.33786034286E+03  0.00000000000E+00 0.  1.
         21    1    1    2  504  501 -0.29844443294E+02  0.48433868244E+02  0.62584423382E+02  0.84577422747E+02  0.00000000000E+00 0. -1.
<mgrwt>
<rscale>  4 0.29090804E+03</rscale>
<asrwt>0</asrwt>
<pdfrwt beam="1">  1       21 0.66239917E-01 0.29090804E+03</pdfrwt>
<pdfrwt beam="2">  1       21 0.57330642E-01 0.29090804E+03</pdfrwt>
<totfact> 0.56139368E+03</totfact>
</mgrwt>
</event>
<event>
 5    0  0.1615618E+000  0.3095956E+03  0.7546771E-02  0.1080540E+00
         21   -1    0    0  503  501  0.00000000000E+00  0.00000000000E+00  0.19248620834E+04  0.19248620834E+04  0.00000000000E+00 0.  1.
         21   -1    0    0  501  502 -0.00000000000E+00 -0.00000000000E+00 -0.96147166467E+02  0.96147166467E+02  0.00000000000E+00 0.  1.
         25    1    1    2    0    0  0.12595643994E+03 -0.21237070917E+03  0.41736674866E+03  0.50078572839E+03  0.12500000000E+03 0.  0.
         21    1    1    2  503  504  0.11705798425E+03 -0.14918122840E+02  0.91553150906E+03  0.92310512194E+03  0.00000000000E+00 0.  1.
         21    1    1    2  504  502 -0.24301442418E+03  0.22728883201E+03  0.49581665922E+03  0.59711839955E+03  0.00000000000E+00 0.  1.
<mgrwt>
<rscale>  4 0.30959559E+03</rscale>
<asrwt>0</asrwt>
<pdfrwt beam="1">  1       21 0.29613260E+00 0.30959559E+03</pdfrwt>
<pdfrwt beam="2">  1       21 0.14791873E-01 0.30959559E+03</pdfrwt>
<totfact> 0.12835690E+03</totfact>
</mgrwt>
</event>
<event>
 5    0  0.1615618E+000  0.2874551E+03  0.7546771E-02  0.1091685E+00
         21   -1    0    0  503  501  0.00000000000E+00  0.00000000000E+00  0.25289628242E+04  0.25289628242E+04  0.00000000000E+00 0. -1.
         21   -1    0    0  501  502 -0.00000000000E+00 -0.00000000000E+00 -0.55241769509E+02  0.55241769509E+02  0.00000000000E+00 0. -1.
         25    1    1    2    0    0  0.25894450971E+03 -0.40781009318E+02  0.54557518933E+03  0.61805552910E+03  0.12500000000E+03 0.  0.
         21    1    1    2  503  504 -0.45065204123E+01  0.27159744362E+02  0.10848549860E+04  0.10852042670E+04  0.00000000000E+00 0.  1.
         21    1    1    2  504  502 -0.25443798930E+03  0.13621264956E+02  0.84329087936E+03  0.88094479762E+03  0.00000000000E+00 0. -1.
<mgrwt>
<rscale>  4 0.28745507E+03</rscale>
<asrwt>0</asrwt>
<pdfrwt beam="1">  1       21 0.38907111E+00 0.28745507E+03</pdfrwt>
<pdfrwt beam="2">  1       21 0.84987357E-02 0.28745507E+03</pdfrwt>
<totfact> 0.97767895E+02</totfact>
</mgrwt>
</event>
<event>
 5    0  0.1615618E+000  0.3361264E+03  0.7546771E-02  0.1068458E+00
         21   -1    0    0  502  501  0.00000000000E+00  0.00000000000E+00  0.16851936088E+03  0.16851936088E+03  0.00000000000E+00 0.  1.
         21   -1    0    0  503  502 -0.00000000000E+00 -0.00000000000E+00 -0.72341568204E+03  0.72341568204E+03  0.00000000000E+00 0.  1.
         25    1    1    2    0    0  0.84798281868E+02 -0.30403528435E+03 -0.36713722655E+03  0.50004294401E+03  0.12500000000E+03 0.  0.
         21    1    1    2  503  504  0.30741127066E+02  0.18357949543E+02 -0.20928682416E+02  0.41473376428E+02  0.00000000000E+00 0.  1.
         21    1    1    2  504  501 -0.11553940893E+03  0.28567733480E+03 -0.16683041219E+03  0.35041872249E+03  0.00000000000E+00 0.  1.
<mgrwt>
<rscale>  4 0.33612641E+03</rscale>
<asrwt>0</asrwt>
<pdfrwt beam="1">  1       21 0.25926055E-01 0.33612641E+03</pdfrwt>
<pdfrwt beam="2">  1       21 0.11129472E+00 0.33612641E+03</pdfrwt>
<totfact> 0.82732226E+03</totfact>
</mgrwt>
</event>
<event>
 5    0  0.1615618E+000  0.2591144E+03  0.7546771E-02  0.1107676E+00
         21   -1    0    0  502  501  0.00000000000E+00  0.00000000000E+00  0.57081246186E+03  0.57081246186E+03  0.00000000000E+00 0.  1.
         21   -1    0    0  503  502 -0.00000000000E+00 -0.00000000000E+00 -0.14445596896E+03  0.14445596896E+03  0.00000000000E+00 0.  1.
         25    1    1    2    0    0 -0.20989895451E+03  0.58548173012E+02  0.15135288357E+03  0.29328851842E+03  0.12500000000E+03 0.  0.
         21    1    1    2  503  504  0.12296343416E+01  0.46920472596E+02 -0.15173468151E+02  0.49328256456E+02  0.00000000000E+00 0. -1.
         21    1    1    2  504  501  0.20866932017E+03 -0.10546864561E+03  0.29017707748E+03  0.37265165595E+03  0.00000000000E+00 0.  1.
<mgrwt>
<rscale>  4 0.25911439E+03</rscale>
<asrwt>0</asrwt>
<pdfrwt beam="1">  1       21 0.87817301E-01 0.25911439E+03</pdfrwt>
<pdfrwt beam="2">  1       21 0.22223996E-01 0.25911439E+03</pdfrwt>
<totfact> 0.20308221E+04</totfact>
</mgrwt>
</event>
<event>
 5    0  0.1929636E+000  0.2363959E+03  0.7546771E-02  0.1122217E+00
         21   -1    0    0  503  501  0.00000000000E+00  0.00000000000E+00  0.13930104279E+04  0.13930104279E+04  0.00000000000E+00 0.  1.
         21   -1    0    0  504  502 -0.00000000000E+00 -0.00000000000E+00 -0.55661388063E+03  0.55661388063E+03  0.00000000000E+00 0. -1.
         25    1    1    2    0    0 -0.13427717489E+03 -0.17024277755E+03 -0.20909258309E+03  0.32612523869E+03  0.12500000000E+03 0.  0.
         21    1    1    2  503  502  0.12526014232E+03  0.14538072750E+03 -0.25700037356E+03  0.32074109683E+03  0.00000000000E+00 0. -1.
         21    1    1    2  504  501  0.90170325736E+01  0.24862050048E+02  0.13024895039E+04  0.13027579730E+04  0.00000000000E+00 0.  1.
<mgrwt>
<rscale>  4 0.23639595E+03</rscale>
<asrwt>0</asrwt>
<pdfrwt beam="1">  1       21 0.21430929E+00 0.23639595E+03</pdfrwt>
<pdfrwt beam="2">  1       21 0.85632906E-01 0.23639595E+03</pdfrwt>
<totfact> 0.12133653E+02</totfact>
</mgrwt>
</event>
<event>
 5    0  0.1615618E+000  0.2538686E+03  0.7546771E-02  0.1110884E+00
         21   -1    0    0  503  501  0.00000000000E+00  0.00000000000E+00  0.10745383774E+04  0.10745383774E+04  0.00000000000E+00 0. -1.
         21   -1    0    0  504  502 -0.00000000000E+00 -0.00000000000E+00 -0.54787883189E+03  0.54787883189E+03  0.00000000000E+00 0. -1.
         25    1    1    2    0    0  0.22013845648E+03  0.14498380189E+02 -0.47171075280E+03  0.53554381460E+03  0.12500000000E+03 0.  0.
         21    1    1    2  503  502 -0.22127553625E+03 -0.47125118489E+02  0.24760293319E+03  0.33539655970E+03  0.00000000000E+00 0. -1.
         21    1    1    2  504  501  0.11370797669E+01  0.32626738300E+02  0.75076736511E+03  0.75147683498E+03  0.00000000000E+00 0. -1.
<mgrwt>
<rscale>  4 0.25386865E+03</rscale>
<asrwt>0</asrwt>
<pdfrwt beam="1">  1       21 0.16531360E+00 0.25386865E+03</pdfrwt>
<pdfrwt beam="2">  1       21 0.84289051E-01 0.25386865E+03</pdfrwt>
<totfact> 0.26311002E+02</totfact>
</mgrwt>
</event>
<event>
 5    0  0.1615618E+000  0.2691947E+03  0.7546771E-02  0.1101741E+00
         21   -1    0    0  503  501  0.00000000000E+00  0.00000000000E+00  0.64954622307E+03  0.64954622307E+03  0.00000000000E+00 0.  1.
         21   -1    0    0  504  502 -0.00000000000E+00 -0.00000000000E+00 -0.28036410801E+03  0.28036410801E+03  0.00000000000E+00 0.  1.
         25    1    1    2    0    0  0.23271191526E+03 -0.25572941911E+02  0.42765384816E+01  0.26542814403E+03  0.12500000000E+03 0.  0.
         21    1    1    2  503  502 -0.18767151070E+03  0.20574060867E+03  0.28128902575E+02  0.27989467509E+03  0.00000000000E+00 0.  1.
         21    1    1    2  504  501 -0.45040404564E+02 -0.18016766676E+03  0.33677667401E+03  0.38458751195E+03  0.00000000000E+00 0.  1.
<mgrwt>
<rscale>  4 0.26919474E+03</rscale>
<asrwt>0</asrwt>
<pdfrwt beam="1">  1       21 0.99930188E-01 0.26919474E+03</pdfrwt>
<pdfrwt beam="2">  1       21 0.43132940E-01 0.26919474E+03</pdfrwt>
<totfact> 0.40259275E+03</totfact>
</mgrwt>
</event>
<event>
 5    0  0.1615618E+000  0.2343520E+03  0.7546771E-02  0.1123614E+00
         21   -1    0    0  502  501  0.00000000000E+00  0.00000000000E+00  0.45326821554E+03  0.45326821554E+03  0.00000000000E+00 0.  1.
         21   -1    0    0  503  502 -0.00000000000E+00 -0.00000000000E+00 -0.14980569612E+03  0.14980569612E+03  0.00000000000E+00 0.  1.
         25    1    1    2    0    0  0.22044600055E+03  0.10600057030E+02  0.17090938282E+03  0.30584933792E+03  0.12500000000E+03 0.  0.
         21    1    1    2  503  504 -0.40923256696E+02 -0.59445002496E+02  0.64302353175E+01  0.72455290950E+02  0.00000000000E+00 0.  1.
         21    1    1    2  504  501 -0.17952274385E+03  0.48844945466E+02  0.12612290129E+03  0.22476928279E+03  0.00000000000E+00 0.  1.
<mgrwt>
<rscale>  4 0.23435204E+03</rscale>
<asrwt>0</asrwt>
<pdfrwt beam="1">  1       21 0.69733571E-01 0.23435204E+03</pdfrwt>
<pdfrwt beam="2">  1       21 0.23047030E-01 0.23435204E+03</pdfrwt>
<totfact> 0.32334186E+04</totfact>
</mgrwt>
</event>
<event>
 5    0  0.1615618E+000  0.2927310E+03  0.7546771E-02  0.1088932E+00
         21   -1    0    0  503  501  0.00000000000E+00  0.00000000000E+00  0.15864414674E+03  0.15864414674E+03  0.00000000000E+00 0.  1.
         21   -1    0    0  501  502 -0.00000000000E+00 -0.00000000000E+00 -0.85005723764E+03  0.85005723764E+03  0.00000000000E+00 0.  1.
         25    1    1    2    0    0 -0.74284426261E+02 -0.26723705316E+03 -0.15766220547E+03  0.34266045818E+03  0.12500000000E+03 0.  0.
         21    1    1    2  503  504  0.23171207865E+02  0.11330260035E+02  0.33124801377E+02  0.41982521752E+02  0.00000000000E+00 0.  1.
         21    1    1    2  504  502  0.51113218396E+02  0.25590679312E+03 -0.56687568681E+03  0.62405840444E+03  0.00000000000E+00 0.  1.
<mgrwt>
<rscale>  4 0.29273103E+03</rscale>
<asrwt>0</asrwt>
<pdfrwt beam="1">  1       21 0.24406791E-01 0.29273103E+03</pdfrwt>
<pdfrwt beam="2">  1       21 0.13077804E+00 0.29273103E+03</pdfrwt>
<totfact> 0.63256226E+03</totfact>
</mgrwt>
</event>
<event>
 5    0  0.1615618E+000  0.2990145E+03  0.7546771E-02  0.1085734E+00
         21   -1    0    0  502  501  0.00000000000E+00  0.00000000000E+00  0.14931592305E+03  0.14931592305E+03  0.00000000000E+00 0.  1.
         21   -1    0    0  503  502 -0.00000000000E+00 -0.00000000000E+00 -0.80475684969E+03  0.80475684969E+03  0.00000000000E+00 0.  1.
         25    1    1    2    0    0 -0.27777919068E+03 -0.21604477987E+02 -0.31677478968E+03  0.43999920412E+03  0.12500000000E+03 0.  0.
         21    1    1    2  503  504  0.32501467197E+02 -0.10388726380E+03 -0.71105548958E+02  0.13001887571E+03  0.00000000000E+00 0.  1.
         21    1    1    2  504  501  0.24527772348E+03  0.12549174179E+03 -0.26756058800E+03  0.38405469291E+03  0.00000000000E+00 0.  1.
<mgrwt>
<rscale>  4 0.29901449E+03</rscale>
<asrwt>0</asrwt>
<pdfrwt beam="1">  1       21 0.22971681E-01 0.29901449E+03</pdfrwt>
<pdfrwt beam="2">  1       21 0.12380874E+00 0.29901449E+03</pdfrwt>
<totfact> 0.81432386E+03</totfact>
</mgrwt>
</event>
<event>
 5    0  0.1615618E+000  0.2910071E+03  0.7546771E-02  0.1089825E+00
         21   -1    0    0  503  501  0.00000000000E+00  0.00000000000E+00  0.10371516230E+04  0.10371516230E+04  0.00000000000E+00 0. -1.
         21   -1    0    0  504  502 -0.00000000000E+00 -0.00000000000E+00 -0.37620875941E+03  0.37620875941E+03  0.00000000000E+00 0. -1.
         25    1    1    2    0    0  0.26064947868E+03  0.27467989930E+02 -0.26515512436E+03  0.39322370374E+03  0.12500000000E+03 0.  0.
         21    1    1    2  503  502 -0.25432916374E+03 -0.12319733163E+03  0.42796887146E+03  0.51285305984E+03  0.00000000000E+00 0. -1.
         21    1    1    2  504  501 -0.63203149376E+01  0.95729341697E+02  0.49812911650E+03  0.50728361885E+03  0.00000000000E+00 0. -1.
<mgrwt>
<rscale>  4 0.29100706E+03</rscale>
<asrwt>0</asrwt>
<pdfrwt beam="1">  1       21 0.15956179E+00 0.29100706E+03</pdfrwt>
<pdfrwt beam="2">  1       21 0.57878271E-01 0.29100706E+03</pdfrwt>
<totfact> 0.64893767E+02</totfact>
</mgrwt>
</event>
<event>
 5    0  0.1615618E+000  0.2266294E+03  0.7546771E-02  0.1129035E+00
         21   -1    0    0  503  501  0.00000000000E+00  0.00000000000E+00  0.15312028263E+04  0.15312028263E+04  0.00000000000E+00 0.  1.
         21   -1    0    0  504  502 -0.00000000000E+00 -0.00000000000E+00 -0.61631003706E+03  0.61631003706E+03  0.00000000000E+00 0.  1.
         25    1    1    2    0    0 -0.90726988942E+02 -0.18272236204E+03  0.41405612517E+03  0.47821158801E+03  0.12500000000E+03 0.  0.
         21    1    1    2  503  502  0.68379374858E+02  0.17572010994E+03 -0.56888712683E+03  0.59932116516E+03  0.00000000000E+00 0.  1.
         21    1    1    2  504  501  0.22347614085E+02  0.70022521021E+01  0.10697237909E+04  0.10699801102E+04  0.00000000000E+00 0.  1.
<mgrwt>
<rscale>  4 0.22662936E+03</rscale>
<asrwt>0</asrwt>
<pdfrwt beam="1">  1       21 0.23556966E+00 0.22662936E+03</pdfrwt>
<pdfrwt beam="2">  1       21 0.94816930E-01 0.22662936E+03</pdfrwt>
<totfact> 0.71727372E+01</totfact>
</mgrwt>
</event>
<event>
 5    0  0.1615618E+000  0.2563988E+03  0.7546771E-02  0.1109326E+00
         21   -1    0    0  503  501  0.00000000000E+00  0.00000000000E+00  0.18336463175E+03  0.18336463175E+03  0.00000000000E+00 0.  1.
         21   -1    0    0  504  502 -0.00000000000E+00 -0.00000000000E+00 -0.62097747473E+03  0.62097747473E+03  0.00000000000E+00 0. -1.
         25    1    1    2    0    0 -0.21664235051E+03  0.56404410268E+02 -0.50448510123E+03  0.56590244998E+03  0.12500000000E+03 0.  0.
         21    1    1    2  503  502  0.18374800632E+03 -0.62505049695E+02  0.47636370369E+02  0.19984852975E+03  0.00000000000E+00 0.  1.
         21    1    1    2  504  501  0.32894344197E+02  0.61006394266E+01  0.19235887872E+02  0.38591126750E+02  0.00000000000E+00 0.  1.
<mgrwt>
<rscale>  4 0.25639884E+03</rscale>
<asrwt>0</asrwt>
<pdfrwt beam="1">  1       21 0.28209943E-01 0.25639884E+03</pdfrwt>
<pdfrwt beam="2">  1       21 0.95534996E-01 0.25639884E+03</pdfrwt>
<totfact> 0.10552960E+04</totfact>
</mgrwt>
</event>
<event>
 5    0  0.1615618E+000  0.2412657E+03  0.7546771E-02  0.1118953E+00
         21   -1    0    0  503  501  0.00000000000E+00  0.00000000000E+00  0.37770767969E+03  0.37770767969E+03  0.00000000000E+00 0. -1.
         21   -1    0    0  501  502 -0.00000000000E+00 -0.00000000000E+00 -0.25908544508E+03  0.25908544508E+03  0.00000000000E+00 0. -1.
         25    1    1    2    0    0 -0.97564229089E+02 -0.19452570158E+03 -0.95238157672E+02  0.26842938373E+03  0.12500000000E+03 0.  0.
         21    1    1    2  503  504 -0.25795547269E+01  0.19443743942E+03  0.17276441105E+03  0.26011557754E+03  0.00000000000E+00 0. -1.
         21    1    1    2  504  502  0.10014378382E+03  0.88262159837E-01  0.41095981229E+02  0.10824816350E+03  0.00000000000E+00 0. -1.
<mgrwt>
<rscale>  4 0.24126570E+03</rscale>
<asrwt>0</asrwt>
<pdfrwt beam="1">  1       21 0.58108874E-01 0.24126570E+03</pdfrwt>
<pdfrwt beam="2">  1       21 0.39859299E-01 0.24126570E+03</pdfrwt>
<totfact> 0.16368375E+04</totfact>
</mgrwt>
</event>
<event>
 5    0  0.1615618E+000  0.2310312E+03  0.7546771E-02  0.1125916E+00
         21   -1    0    0  502  501  0.00000000000E+00  0.00000000000E+00  0.84192687105E+03  0.84192687105E+03  0.00000000000E+00 0.  1.
         21   -1    0    0  504  502 -0.00000000000E+00 -0.00000000000E+00 -0.29615260504E+03  0.29615260504E+03  0.00000000000E+00 0. -1.
         25    1    1    2    0    0  0.19822459322E+03 -0.75140031948E+02 -0.20328468477E+03  0.31920005767E+03  0.12500000000E+03 0.  0.
         21    1    1    2  503  501 -0.19056940238E+03  0.34264088737E+02  0.75263219879E+03  0.77713959593E+03  0.00000000000E+00 0.  1.
         21    1    1    2  504  503 -0.76551908355E+01  0.40875943211E+02 -0.35732480182E+01  0.41739822491E+02  0.00000000000E+00 0. -1.
<mgrwt>
<rscale>  4 0.23103122E+03</rscale>
<asrwt>0</asrwt>
<pdfrwt beam="1">  1       21 0.12952721E+00 0.23103122E+03</pdfrwt>
<pdfrwt beam="2">  1       21 0.45561940E-01 0.23103122E+03</pdfrwt>
<totfact> 0.19483386E+03</totfact>
</mgrwt>
</event>
<event>
 5    0  0.1615618E+000  0.2560848E+03  0.7546771E-02  0.1109519E+00
         21   -1    0    0  502  501  0.00000000000E+00  0.00000000000E+00  0.11968045851E+03  0.11968045851E+03  0.00000000000E+00 0. -1.
         21   -1    0    0  503  502 -0.00000000000E+00 -0.00000000000E+00 -0.60215431552E+03  0.60215431552E+03  0.00000000000E+00 0. -1.
         25    1    1    2    0    0 -0.14265262065E+03 -0.17206000968E+03 -0.39312219581E+03  0.46917425116E+03  0.12500000000E+03 0.  0.
         21    1    1    2  503  504  0.11395288113E+03  0.13801014006E+03 -0.10247457293E+03  0.20623553519E+03  0.00000000000E+00 0. -1.
         21    1    1    2  504  501  0.28699739519E+02  0.34049869619E+02  0.13122911727E+02  0.46424987686E+02  0.00000000000E+00 0. -1.
<mgrwt>
<rscale>  4 0.25608478E+03</rscale>
<asrwt>0</asrwt>
<pdfrwt beam="1">  1       21 0.18412378E-01 0.25608478E+03</pdfrwt>
<pdfrwt beam="2">  1       21 0.92639126E-01 0.25608478E+03</pdfrwt>
<totfact> 0.25581277E+04</totfact>
</mgrwt>
</event>
<event>
 5    0  0.1615618E+000  0.2647418E+03  0.7546771E-02  0.1104327E+00
         21   -1    0    0  502  501  0.00000000000E+00  0.00000000000E+00  0.67801453509E+03  0.67801453509E+03  0.00000000000E+00 0.  1.
         21   -1    0    0  504  502 -0.00000000000E+00 -0.00000000000E+00 -0.14538303262E+03  0.14538303262E+03  0.00000000000E+00 0. -1.
         25    1    1    2    0    0  0.24421089175E+02  0.22415840843E+03  0.41989596331E+02  0.26121161511E+03  0.12500000000E+03 0.  0.
         21    1    1    2  503  501 -0.45865502345E+02 -0.23098586702E+03  0.48474526886E+03  0.53892122871E+03  0.00000000000E+00 0.  1.
         21    1    1    2  504  503  0.21444413169E+02  0.68274585869E+01  0.58966372717E+01  0.23264723898E+02  0.00000000000E+00 0.  1.
<mgrwt>
<rscale>  4 0.26474175E+03</rscale>
<asrwt>0</asrwt>
<pdfrwt beam="1">  1       21 0.10430993E+00 0.26474175E+03</pdfrwt>
<pdfrwt beam="2">  1       21 0.22366621E-01 0.26474175E+03</pdfrwt>
<totfact> 0.13308531E+04</totfact>
</mgrwt>
</event>
<event>
 5    0  0.1615618E+000  0.2531180E+03  0.7546771E-02  0.1111350E+00
         21   -1    0    0  502  501  0.00000000000E+00  0.00000000000E+00  0.76490570294E+03  0.76490570294E+03  0.00000000000E+00 0.  1.
         21   -1    0    0  504  502 -0.00000000000E+00 -0.00000000000E+00 -0.23019112434E+03  0.23019112434E+03  0.00000000000E+00 0. -1.
         25    1    1    2    0    0 -0.10787605699E+03  0.19526339672E+03 -0.12934929840E+03  0.28656810493E+03  0.12500000000E+03 0.  0.
         21    1    1    2  503  501  0.12476394303E+03 -0.15586381277E+03  0.59108187131E+03  0.62388889091E+03  0.00000000000E+00 0.  1.
         21    1    1    2  504  503 -0.16887886041E+02 -0.39399583946E+02  0.72982005688E+02  0.84639831428E+02  0.00000000000E+00 0.  1.
<mgrwt>
<rscale>  4 0.25311797E+03</rscale>
<asrwt>0</asrwt>
<pdfrwt beam="1">  1       21 0.11767780E+00 0.25311797E+03</pdfrwt>
<pdfrwt beam="2">  1       21 0.35414019E-01 0.25311797E+03</pdfrwt>
<totfact> 0.40735374E+03</totfact>
</mgrwt>
</event>
<event>
 5    0  0.1615618E+000  0.2811863E+03  0.7546771E-02  0.1095043E+00
         21   -1    0    0  503  501  0.00000000000E+00  0.00000000000E+00  0.57172531353E+03  0.57172531353E+03  0.00000000000E+00 0.  1.
         21   -1    0    0  501  502 -0.00000000000E+00 -0.00000000000E+00 -0.14817685120E+03  0.14817685120E+03  0.00000000000E+00 0.  1.
         25    1    1    2    0    0 -0.11970096700E+03 -0.22161321776E+03  0.30823103742E+03  0.41721950124E+03  0.12500000000E+03 0.  0.
         21    1    1    2  503  504  0.73628986251E+02  0.43902360988E+02  0.76809930780E+02  0.11510173927E+03  0.00000000000E+00 0.  1.
         21    1    1    2  504  502  0.46071980754E+02  0.17771085677E+03  0.38507494129E+02  0.18758092421E+03  0.00000000000E+00 0.  1.
<mgrwt>
<rscale>  4 0.28118631E+03</rscale>
<asrwt>0</asrwt>
<pdfrwt beam="1">  1       21 0.87957739E-01 0.28118631E+03</pdfrwt>
<pdfrwt beam="2">  1       21 0.22796439E-01 0.28118631E+03</pdfrwt>
<totfact> 0.19083067E+04</totfact>
</mgrwt>
</event>
<event>
 5    0  0.1615618E+000  0.2552905E+03  0.7546771E-02  0.1110006E+00
         21   -1    0    0  503  501  0.00000000000E+00  0.00000000000E+00  0.76731127246E+02  0.76731127246E+02  0.00000000000E+00 0.  1.
         21   -1    0    0  501  502 -0.00000000000E+00 -0.00000000000E+00 -0.10045267831E+04  0.10045267831E+04  0.00000000000E+00 0.  1.
         25    1    1    2    0    0  0.13569513436E+03 -0.17645137991E+03 -0.72529897002E+03  0.76891602590E+03  0.12500000000E+03 0.  0.
         21    1    1    2  503  504 -0.15886036946E+02  0.49293925387E+02 -0.10667570541E+02  0.52877729822E+02  0.00000000000E+00 0.  1.
         21    1    1    2  504  502 -0.11980909741E+03  0.12715745452E+03 -0.19182911527E+03  0.25946415461E+03  0.00000000000E+00 0.  1.
<mgrwt>
<rscale>  4 0.25529054E+03</rscale>
<asrwt>0</asrwt>
<pdfrwt beam="1">  1       21 0.11804790E-01 0.25529054E+03</pdfrwt>
<pdfrwt beam="2">  1       21 0.15454257E+00 0.25529054E+03</pdfrwt>
<totfact> 0.16044197E+04</totfact>
</mgrwt>
</event>
<event>
 5    0  0.1615618E+000  0.2592161E+03  0.7546771E-02  0.1107615E+00
         21   -1    0    0  502  501  0.00000000000E+00  0.00000000000E+00  0.96509745123E+03  0.96509745123E+03  0.00000000000E+00 0. -1.
         21   -1    0    0  503  502 -0.00000000000E+00 -0.00000000000E+00 -0.61776778280E+03  0.61776778280E+03  0.00000000000E+00 0.  1.
         25    1    1    2    0    0 -0.18187206005E+02 -0.24811110434E+03 -0.55419167778E+03  0.62019618693E+03  0.12500000000E+03 0.  0.
         21    1    1    2  503  504  0.34474959004E+02  0.22073020555E+02  0.91168458981E+01  0.41938740013E+02  0.00000000000E+00 0. -1.
         21    1    1    2  504  501 -0.16287753000E+02  0.22603808379E+03  0.89240450031E+03  0.92073030709E+03  0.00000000000E+00 0. -1.
<mgrwt>
<rscale>  4 0.25921613E+03</rscale>
<asrwt>0</asrwt>
<pdfrwt beam="1">  1       21 0.14847653E+00 0.25921613E+03</pdfrwt>
<pdfrwt beam="2">  1       21 0.95041198E-01 0.25921613E+03</pdfrwt>
<totfact> 0.26462775E+02</totfact>
</mgrwt>
</event>
<event>
 5    0  0.1615618E+000  0.2645531E+03  0.7546771E-02  0.1104438E+00
         21   -1    0    0  502  501  0.00000000000E+00  0.00000000000E+00  0.15745674874E+03  0.15745674874E+03  0.00000000000E+00 0. -1.
         21   -1    0    0  503  502 -0.00000000000E+00 -0.00000000000E+00 -0.12316846182E+04  0.12316846182E+04  0.00000000000E+00 0.  1.
         25    1    1    2    0    0 -0.80643677146E+02  0.21876909043E+03 -0.11118130383E+04  0.11428545620E+04  0.12500000000E+03 0.  0.
         21    1    1    2  503  504  0.50476763710E+02 -0.48203451645E+02  0.17155025370E+02  0.71873300471E+02  0.00000000000E+00 0. -1.
         21    1    1    2  504  501  0.30166913436E+02 -0.17056563879E+03  0.20430143480E+02  0.17441350454E+03  0.00000000000E+00 0. -1.
<mgrwt>
<rscale>  4 0.26455305E+03</rscale>
<asrwt>0</asrwt>
<pdfrwt beam="1">  1       21 0.24224116E-01 0.26455305E+03</pdfrwt>
<pdfrwt beam="2">  1       21 0.18948994E+00 0.26455305E+03</pdfrwt>
<totfact> 0.23762003E+03</totfact>
</mgrwt>
</event>
<event>
 5    0  0.1615618E+000  0.3173783E+03  0.7546771E-02  0.1076862E+00
         21   -1    0    0  503  501  0.00000000000E+00  0.00000000000E+00  0.28751376205E+03  0.28751376205E+03  0.00000000000E+00 0.  1.
         21   -1    0    0  501  502 -0.00000000000E+00 -0.00000000000E+00 -0.39167738779E+03  0.39167738779E+03  0.00000000000E+00 0.  1.
         25    1    1    2    0    0  0.27905863177E+03  0.49741530890E+02 -0.65893365492E+02  0.31672523656E+03  0.12500000000E+03 0.  0.
         21    1    1    2  503  504  0.17698733845E+02 -0.10664823373E+02  0.46912513316E+02  0.51261755168E+02  0.00000000000E+00 0.  1.
         21    1    1    2  504  502 -0.29675736561E+03 -0.39076707517E+02 -0.85182773561E+02  0.31120415811E+03  0.00000000000E+00 0.  1.
<mgrwt>
<rscale>  4 0.31737825E+03</rscale>
<asrwt>0</asrwt>
<pdfrwt beam="1">  1       21 0.44232887E-01 0.31737825E+03</pdfrwt>
<pdfrwt beam="2">  1       21 0.60258059E-01 0.31737825E+03</pdfrwt>
<totfact> 0.11799123E+04</totfact>
</mgrwt>
</event>
<event>
 5    0  0.1615618E+000  0.3781261E+03  0.7546771E-02  0.1051629E+00
         21   -1    0    0  503  501  0.00000000000E+00  0.00000000000E+00  0.13805659139E+04  0.13805659139E+04  0.00000000000E+00 0. -1.
         21   -1    0    0  504  502 -0.00000000000E+00 -0.00000000000E+00 -0.16001828026E+03  0.16001828026E+03  0.00000000000E+00 0. -1.
         25    1    1    2    0    0 -0.35731158288E+02 -0.36165780552E+03  0.22899646698E+03  0.44736726060E+03  0.12500000000E+03 0.  0.
         21    1    1    2  503  502 -0.36049650495E+02  0.34728873998E+03  0.59429227653E+03  0.68926943655E+03  0.00000000000E+00 0. -1.
         21    1    1    2  504  501  0.71780808784E+02  0.14369065546E+02  0.39725889015E+03  0.40394749703E+03  0.00000000000E+00 0. -1.
<mgrwt>
<rscale>  4 0.37812611E+03</rscale>
<asrwt>0</asrwt>
<pdfrwt beam="1">  1       21 0.21239475E+00 0.37812611E+03</pdfrwt>
<pdfrwt beam="2">  1       21 0.24618198E-01 0.37812611E+03</pdfrwt>
<totfact> 0.15174902E+03</totfact>
</mgrwt>
</event>
<event>
 5    0  0.1615618E+000  0.2725647E+03  0.7546771E-02  0.1099821E+00
         21   -1    0    0  503  501  0.00000000000E+00  0.00000000000E+00  0.35027212134E+02  0.35027212134E+02  0.00000000000E+00 0. -1.
         21   -1    0    0  504  502 -0.00000000000E+00 -0.00000000000E+00 -0.22958439744E+04  0.22958439744E+04  0.00000000000E+00 0. -1.
         25    1    1    2    0    0  0.47783637532E+02 -0.25340483625E+03 -0.12040571614E+04  0.12376897571E+04  0.12500000000E+03 0.  0.
         21    1    1    2  503  502 -0.45498147783E+02  0.22580316839E+03 -0.10270561181E+04  0.10525689631E+04  0.00000000000E+00 0. -1.
         21    1    1    2  504  501 -0.22854897495E+01  0.27601667861E+02 -0.29703482840E+02  0.40612466373E+02  0.00000000000E+00 0. -1.
<mgrwt>
<rscale>  4 0.27256468E+03</rscale>
<asrwt>0</asrwt>
<pdfrwt beam="1">  1       21 0.53888019E-02 0.27256468E+03</pdfrwt>
<pdfrwt beam="2">  1       21 0.35320676E+00 0.27256468E+03</pdfrwt>
<totfact> 0.36315633E+03</totfact>
</mgrwt>
</event>
<event>
 5    0  0.1615618E+000  0.2767589E+03  0.7546771E-02  0.1097472E+00
         21   -1    0    0  503  501  0.00000000000E+00  0.00000000000E+00  0.39594098782E+03  0.39594098782E+03  0.00000000000E+00 0. -1.
         21   -1    0    0  501  502 -0.00000000000E+00 -0.00000000000E+00 -0.65404074799E+03  0.65404074799E+03  0.00000000000E+00 0. -1.
         25    1    1    2    0    0  0.14514973977E+03  0.17469330239E+03  0.13927987999E+02  0.25962508682E+03  0.12500000000E+03 0.  0.
         21    1    1    2  503  504  0.42662037851E+02 -0.71016795851E+01  0.22718970722E+03  0.23126964002E+03  0.00000000000E+00 0. -1.
         21    1    1    2  504  502 -0.18781177762E+03 -0.16759162280E+03 -0.49921745539E+03  0.55908700898E+03  0.00000000000E+00 0. -1.
<mgrwt>
<rscale>  4 0.27675894E+03</rscale>
<asrwt>0</asrwt>
<pdfrwt beam="1">  1       21 0.60913999E-01 0.27675894E+03</pdfrwt>
<pdfrwt beam="2">  1       21 0.10062165E+00 0.27675894E+03</pdfrwt>
<totfact> 0.19007977E+03</totfact>
</mgrwt>
</event>
<event>
 5    0  0.1615618E+000  0.2898107E+03  0.7546771E-02  0.1090448E+00
         21   -1    0    0  503  501  0.00000000000E+00  0.00000000000E+00  0.11939188322E+03  0.11939188322E+03  0.00000000000E+00 0. -1.
         21   -1    0    0  504  502 -0.00000000000E+00 -0.00000000000E+00 -0.10856300826E+04  0.10856300826E+04  0.00000000000E+00 0.  1.
         25    1    1    2    0    0  0.10106597010E+03  0.27558449885E+03 -0.32309195662E+03  0.45406448744E+03  0.12500000000E+03 0.  0.
         21    1    1    2  503  502 -0.95913645095E+02 -0.23116196546E+03 -0.65787725259E+03  0.70387339846E+03  0.00000000000E+00 0.  1.
         21    1    1    2  504  501 -0.51523250073E+01 -0.44422533394E+02  0.14731009869E+02  0.47084079877E+02  0.00000000000E+00 0. -1.
<mgrwt>
<rscale>  4 0.28981066E+03</rscale>
<asrwt>0</asrwt>
<pdfrwt beam="1">  1       21 0.18367982E-01 0.28981066E+03</pdfrwt>
<pdfrwt beam="2">  1       21 0.16702001E+00 0.28981066E+03</pdfrwt>
<totfact> 0.56565041E+03</totfact>
</mgrwt>
</event>
<event>
 5    0  0.1615618E+000  0.2613069E+03  0.7546771E-02  0.1106361E+00
         21   -1    0    0  503  501  0.00000000000E+00  0.00000000000E+00  0.48992925543E+03  0.48992925543E+03  0.00000000000E+00 0.  1.
         21   -1    0    0  501  502 -0.00000000000E+00 -0.00000000000E+00 -0.59345886532E+03  0.59345886532E+03  0.00000000000E+00 0.  1.
         25    1    1    2    0    0  0.21988202912E+03  0.40019038932E+02 -0.40430575590E+03  0.47857891143E+03  0.12500000000E+03 0.  0.
         21    1    1    2  503  504  0.23940986580E+02 -0.92312850939E+01  0.35269387312E+03  0.35362601092E+03  0.00000000000E+00 0.  1.
         21    1    1    2  504  502 -0.24382301570E+03 -0.30787753838E+02 -0.51917727107E+02  0.25118319841E+03  0.00000000000E+00 0.  1.
<mgrwt>
<rscale>  4 0.26130690E+03</rscale>
<asrwt>0</asrwt>
<pdfrwt beam="1">  1       21 0.75373732E-01 0.26130690E+03</pdfrwt>
<pdfrwt beam="2">  1       21 0.91301364E-01 0.26130690E+03</pdfrwt>
<totfact> 0.15098517E+03</totfact>
</mgrwt>
</event>
<event>
 5    0  0.1615618E+000  0.2635271E+03  0.7546771E-02  0.1105042E+00
         21   -1    0    0  503  501  0.00000000000E+00  0.00000000000E+00  0.16586477874E+03  0.16586477874E+03  0.00000000000E+00 0. -1.
         21   -1    0    0  501  502 -0.00000000000E+00 -0.00000000000E+00 -0.95723651237E+03  0.95723651237E+03  0.00000000000E+00 0. -1.
         25    1    1    2    0    0  0.44502146120E+02 -0.22360886877E+03 -0.62815657950E+03  0.67984340518E+03  0.12500000000E+03 0.  0.
         21    1    1    2  503  504  0.38136225313E+02 -0.31367849413E+01  0.87354200740E+02  0.95367538963E+02  0.00000000000E+00 0. -1.
         21    1    1    2  504  502 -0.82638371433E+02  0.22674565372E+03 -0.25056935487E+03  0.34789034696E+03  0.00000000000E+00 0. -1.
<mgrwt>
<rscale>  4 0.26352710E+03</rscale>
<asrwt>0</asrwt>
<pdfrwt beam="1">  1       21 0.25517659E-01 0.26352710E+03</pdfrwt>
<pdfrwt beam="2">  1       21 0.14726715E+00 0.26352710E+03</pdfrwt>
<totfact> 0.43332507E+03</totfact>
</mgrwt>
</event>
<event>
 5    0  0.2323967E+000  0.3068225E+03  0.7546771E-02  0.1081879E+00
         21   -1    0    0  503  501  0.00000000000E+00  0.00000000000E+00  0.10549212769E+04  0.10549212769E+04  0.00000000000E+00 0.  1.
         21   -1    0    0  504  502 -0.00000000000E+00 -0.00000000000E+00 -0.18344939592E+03  0.18344939592E+03  0.00000000000E+00 0.  1.
         25    1    1    2    0    0  0.52860525805E+02 -0.25639866047E+03 -0.58754696830E+01  0.29016207441E+03  0.12500000000E+03 0.  0.
         21    1    1    2  503  502  0.41058965102E+02 -0.10958862825E+02  0.23488870184E+02  0.48555764974E+02  0.00000000000E+00 0. -1.
         21    1    1    2  504  501 -0.93919490907E+02  0.26735752330E+03  0.85385848050E+03  0.89965283347E+03  0.00000000000E+00 0.  1.
<mgrwt>
<rscale>  4 0.30682255E+03</rscale>
<asrwt>0</asrwt>
<pdfrwt beam="1">  1       21 0.16229558E+00 0.30682255E+03</pdfrwt>
<pdfrwt beam="2">  1       21 0.28222985E-01 0.30682255E+03</pdfrwt>
<totfact> 0.26683463E+03</totfact>
</mgrwt>
</event>
<event>
 5    0  0.1615618E+000  0.2493602E+03  0.7546771E-02  0.1113710E+00
         21   -1    0    0  503  501  0.00000000000E+00  0.00000000000E+00  0.45832191395E+03  0.45832191395E+03  0.00000000000E+00 0. -1.
         21   -1    0    0  504  502 -0.00000000000E+00 -0.00000000000E+00 -0.27246956385E+03  0.27246956385E+03  0.00000000000E+00 0. -1.
         25    1    1    2    0    0 -0.37179259615E+02  0.23983287776E+03  0.10496863421E+03  0.29248165886E+03  0.12500000000E+03 0.  0.
         21    1    1    2  503  502  0.90489621181E+01 -0.20761063661E+03 -0.11520833205E+03  0.23760686000E+03  0.00000000000E+00 0. -1.
         21    1    1    2  504  501  0.28130297497E+02 -0.32222241156E+02  0.19609204793E+03  0.20070295893E+03  0.00000000000E+00 0. -1.
<mgrwt>
<rscale>  4 0.24936024E+03</rscale>
<asrwt>0</asrwt>
<pdfrwt beam="1">  1       21 0.70511064E-01 0.24936024E+03</pdfrwt>
<pdfrwt beam="2">  1       21 0.41918394E-01 0.24936024E+03</pdfrwt>
<totfact> 0.96380201E+03</totfact>
</mgrwt>
</event>
<event>
 5    0  0.1615618E+000  0.2854067E+03  0.7546771E-02  0.1092772E+00
         21   -1    0    0  503  501  0.00000000000E+00  0.00000000000E+00  0.10198581580E+04  0.10198581580E+04  0.00000000000E+00 0.  1.
         21   -1    0    0  501  502 -0.00000000000E+00 -0.00000000000E+00 -0.63958445207E+03  0.63958445207E+03  0.00000000000E+00 0.  1.
         25    1    1    2    0    0 -0.29257057321E+03  0.38250210935E+02 -0.52216093089E+03  0.61264806920E+03  0.12500000000E+03 0.  0.
         21    1    1    2  503  504  0.13016952622E+03  0.59590468974E+01  0.86449522742E+03  0.87426060990E+03  0.00000000000E+00 0.  1.
         21    1    1    2  504  502  0.16240104699E+03 -0.44209257833E+02  0.37939409394E+02  0.17253393094E+03  0.00000000000E+00 0.  1.
<mgrwt>
<rscale>  4 0.28540667E+03</rscale>
<asrwt>0</asrwt>
<pdfrwt beam="1">  1       21 0.15690126E+00 0.28540667E+03</pdfrwt>
<pdfrwt beam="2">  1       21 0.98397608E-01 0.28540667E+03</pdfrwt>
<totfact> 0.20530914E+02</totfact>
</mgrwt>
</event>
<event>
 5    0  0.1615618E+000  0.2465917E+03  0.7546771E-02  0.1115478E+00
         21   -1    0    0  503  501  0.00000000000E+00  0.00000000000E+00  0.96739380382E+03  0.96739380382E+03  0.00000000000E+00 0.  1.
         21   -1    0    0  504  502 -0.00000000000E+00 -0.00000000000E+00 -0.10344367154E+04  0.10344367154E+04  0.00000000000E+00 0. -1.
         25    1    1    2    0    0  0.20279026324E+03  0.72991677594E+02 -0.95454801477E+03  0.98652855426E+03  0.12500000000E+03 0.  0.
         21    1    1    2  503  502 -0.17123048544E+03 -0.76183041078E+02  0.74499435816E+02  0.20167771525E+03  0.00000000000E+00 0. -1.
         21    1    1    2  504  501 -0.31559777803E+02  0.31913634834E+01  0.81300566742E+03  0.81362424966E+03  0.00000000000E+00 0.  1.
<mgrwt>
<rscale>  4 0.24659172E+03</rscale>
<asrwt>0</asrwt>
<pdfrwt beam="1">  1       21 0.14882982E+00 0.24659172E+03</pdfrwt>
<pdfrwt beam="2">  1       21 0.15914411E+00 0.24659172E+03</pdfrwt>
<totfact> 0.72641365E+01</totfact>
</mgrwt>
</event>
<event>
 5    0  0.1615618E+000  0.2449830E+03  0.7546771E-02  0.1116517E+00
         21   -1    0    0  502  501  0.00000000000E+00  0.00000000000E+00  0.47745138685E+03  0.47745138685E+03  0.00000000000E+00 0.  1.
         21   -1    0    0  503  502 -0.00000000000E+00 -0.00000000000E+00 -0.17816273808E+03  0.17816273808E+03  0.00000000000E+00 0.  1.
         25    1    1    2    0    0  0.20516377561E+03 -0.95071021548E+02  0.28362511413E+02  0.25992326948E+03  0.12500000000E+03 0.  0.
         21    1    1    2  503  504 -0.13031112296E+03  0.14760846408E+03  0.18818522749E+03  0.27236542967E+03  0.00000000000E+00 0.  1.
         21    1    1    2  504  501 -0.74852652650E+02 -0.52537442534E+02  0.82740909871E+02  0.12332542578E+03  0.00000000000E+00 0.  1.
<mgrwt>
<rscale>  4 0.24498298E+03</rscale>
<asrwt>0</asrwt>
<pdfrwt beam="1">  1       21 0.73454059E-01 0.24498298E+03</pdfrwt>
<pdfrwt beam="2">  1       21 0.27409652E-01 0.24498298E+03</pdfrwt>
<totfact> 0.20540417E+04</totfact>
</mgrwt>
</event>
<event>
 5    0  0.1615618E+000  0.2073103E+03  0.7546771E-02  0.1143714E+00
         21   -1    0    0  502  501  0.00000000000E+00  0.00000000000E+00  0.14492475707E+03  0.14492475707E+03  0.00000000000E+00 0.  1.
         21   -1    0    0  503  502 -0.00000000000E+00 -0.00000000000E+00 -0.10472293280E+04  0.10472293280E+04  0.00000000000E+00 0. -1.
         25    1    1    2    0    0 -0.19133703185E+03  0.19502426875E+03 -0.23348174111E+03  0.38050367750E+03  0.12500000000E+03 0.  0.
         21    1    1    2  503  504  0.50841457704E+02 -0.13174865016E+03 -0.17440278223E+02  0.14229098336E+03  0.00000000000E+00 0.  1.
         21    1    1    2  504  501  0.14049557415E+03 -0.63275618590E+02 -0.65138255164E+03  0.66935942426E+03  0.00000000000E+00 0. -1.
<mgrwt>
<rscale>  4 0.20731031E+03</rscale>
<asrwt>0</asrwt>
<pdfrwt beam="1">  1       21 0.22296117E-01 0.20731031E+03</pdfrwt>
<pdfrwt beam="2">  1       21 0.16111220E+00 0.20731031E+03</pdfrwt>
<totfact> 0.45916908E+03</totfact>
</mgrwt>
</event>
<event>
 5    0  0.1615618E+000  0.2637386E+03  0.7546771E-02  0.1104918E+00
         21   -1    0    0  502  501  0.00000000000E+00  0.00000000000E+00  0.45399450182E+03  0.45399450182E+03  0.00000000000E+00 0. -1.
         21   -1    0    0  504  502 -0.00000000000E+00 -0.00000000000E+00 -0.37556309755E+03  0.37556309755E+03  0.00000000000E+00 0.  1.
         25    1    1    2    0    0 -0.21912073376E+03  0.12393286133E+03 -0.23367201457E+03  0.36551451472E+03  0.12500000000E+03 0.  0.
         21    1    1    2  503  501  0.14163213006E+03  0.38951854726E+02  0.71594177548E+02  0.16340940460E+03  0.00000000000E+00 0.  1.
         21    1    1    2  504  503  0.77488603692E+02 -0.16288471605E+03  0.24050924130E+03  0.30063368005E+03  0.00000000000E+00 0. -1.
<mgrwt>
<rscale>  4 0.26373860E+03</rscale>
<asrwt>0</asrwt>
<pdfrwt beam="1">  1       21 0.69845308E-01 0.26373860E+03</pdfrwt>
<pdfrwt beam="2">  1       21 0.57778938E-01 0.26373860E+03</pdfrwt>
<totfact> 0.49829633E+03</totfact>
</mgrwt>
</event>
<event>
 5    0  0.1615618E+000  0.3014241E+03  0.7546771E-02  0.1084531E+00
         21   -1    0    0  503  501  0.00000000000E+00  0.00000000000E+00  0.66174985221E+03  0.66174985221E+03  0.00000000000E+00 0.  1.
         21   -1    0    0  504  502 -0.00000000000E+00 -0.00000000000E+00 -0.25861377152E+03  0.25861377152E+03  0.00000000000E+00 0.  1.
         25    1    1    2    0    0  0.25131794846E+03  0.10105114053E+03 -0.73915923534E+02  0.30734444516E+03  0.12500000000E+03 0.  0.
         21    1    1    2  503  502 -0.25071819509E+03 -0.13406558031E+03  0.23538296597E+03  0.36910477352E+03  0.00000000000E+00 0.  1.
         21    1    1    2  504  501 -0.59975337036E+00  0.33014439783E+02  0.24166903826E+03  0.24391440505E+03  0.00000000000E+00 0.  1.
<mgrwt>
<rscale>  4 0.30142406E+03</rscale>
<asrwt>0</asrwt>
<pdfrwt beam="1">  1       21 0.10180767E+00 0.30142406E+03</pdfrwt>
<pdfrwt beam="2">  1       21 0.39786734E-01 0.30142406E+03</pdfrwt>
<totfact> 0.44612561E+03</totfact>
</mgrwt>
</event>
<event>
 5    0  0.1663350E+000  0.3696124E+03  0.7546771E-02  0.1054841E+00
         21   -1    0    0  503  501  0.00000000000E+00  0.00000000000E+00  0.65653789728E+03  0.65653789728E+03  0.00000000000E+00 0. -1.
         21   -1    0    0  504  502 -0.00000000000E+00 -0.00000000000E+00 -0.29536923319E+03  0.29536923319E+03  0.00000000000E+00 0. -1.
         25    1    1    2    0    0 -0.12421128220E+03  0.32330489745E+03 -0.75844302970E+02  0.37594129546E+03  0.12500000000E+03 0.  0.
         21    1    1    2  503  502  0.14620109670E+03 -0.32132761464E+03  0.40855603101E+03  0.53994835594E+03  0.00000000000E+00 0. -1.
         21    1    1    2  504  501 -0.21989814497E+02 -0.19772828060E+01  0.28456936053E+02  0.36017479069E+02  0.00000000000E+00 0.  1.
<mgrwt>
<rscale>  4 0.36961240E+03</rscale>
<asrwt>0</asrwt>
<pdfrwt beam="1">  1       21 0.10100583E+00 0.36961240E+03</pdfrwt>
<pdfrwt beam="2">  1       21 0.45441421E-01 0.36961240E+03</pdfrwt>
<totfact> 0.33458882E+03</totfact>
</mgrwt>
</event>
<event>
 5    0  0.1615618E+000  0.3677684E+03  0.7546771E-02  0.1055550E+00
         21   -1    0    0  503  501  0.00000000000E+00  0.00000000000E+00  0.37095505332E+03  0.37095505332E+03  0.00000000000E+00 0. -1.
         21   -1    0    0  501  502 -0.00000000000E+00 -0.00000000000E+00 -0.67331982664E+03  0.67331982664E+03  0.00000000000E+00 0. -1.
         25    1    1    2    0    0 -0.27141928452E+03 -0.19796524582E+03 -0.39241207544E+03  0.53147991825E+03  0.12500000000E+03 0.  0.
         21    1    1    2  503  504  0.23188281096E+02 -0.88940590673E+02  0.96616292564E+02  0.13335228921E+03  0.00000000000E+00 0. -1.
         21    1    1    2  504  502  0.24823100342E+03  0.28690583649E+03 -0.65689904537E+01  0.37944267249E+03  0.00000000000E+00 0. -1.
<mgrwt>
<rscale>  4 0.36776840E+03</rscale>
<asrwt>0</asrwt>
<pdfrwt beam="1">  1       21 0.57070009E-01 0.36776840E+03</pdfrwt>
<pdfrwt beam="2">  1       21 0.10358766E+00 0.36776840E+03</pdfrwt>
<totfact> 0.19408190E+03</totfact>
</mgrwt>
</event>
<event>
 5    0  0.1615618E+000  0.2458600E+03  0.7546771E-02  0.1115949E+00
         21   -1    0    0  503  501  0.00000000000E+00  0.00000000000E+00  0.70440932325E+02  0.70440932325E+02  0.00000000000E+00 0.  1.
         21   -1    0    0  501  502 -0.00000000000E+00 -0.00000000000E+00 -0.12255350451E+04  0.12255350451E+04  0.00000000000E+00 0.  1.
         25    1    1    2    0    0  0.11253140553E+03  0.17273019778E+03 -0.94152939884E+03  0.97190619266E+03  0.12500000000E+03 0.  0.
         21    1    1    2  503  504  0.22500240035E+02 -0.77516698646E+01 -0.49950729157E+02  0.55330141249E+02  0.00000000000E+00 0. -1.
         21    1    1    2  504  502 -0.13503164556E+03 -0.16497852792E+03 -0.16361398476E+03  0.26873964349E+03  0.00000000000E+00 0.  1.
<mgrwt>
<rscale>  4 0.24586003E+03</rscale>
<asrwt>0</asrwt>
<pdfrwt beam="1">  1       21 0.10837066E-01 0.24586003E+03</pdfrwt>
<pdfrwt beam="2">  1       21 0.18854387E+00 0.24586003E+03</pdfrwt>
<totfact> 0.10790634E+04</totfact>
</mgrwt>
</event>
<event>
 5    0  0.1615618E+000  0.2418719E+03  0.7546771E-02  0.1118552E+00
         21   -1    0    0  502  501  0.00000000000E+00  0.00000000000E+00  0.20035957203E+04  0.20035957203E+04  0.00000000000E+00 0. -1.
         21   -1    0    0  504  502 -0.00000000000E+00 -0.00000000000E+00 -0.81353010702E+03  0.81353010702E+03  0.00000000000E+00 0.  1.
         25    1    1    2    0    0  0.62474025774E+02 -0.19741838023E+03 -0.78963316419E+03  0.82584656852E+03  0.12500000000E+03 0.  0.
         21    1    1    2  503  501 -0.32887305801E+02  0.36524388266E+02  0.57167654934E+03  0.57378539793E+03  0.00000000000E+00 0. -1.
         21    1    1    2  504  503 -0.29586719973E+02  0.16089399196E+03  0.14080222282E+04  0.14174938609E+04  0.00000000000E+00 0. -1.
<mgrwt>
<rscale>  4 0.24187191E+03</rscale>
<asrwt>0</asrwt>
<pdfrwt beam="1">  1       21 0.30824549E+00 0.24187191E+03</pdfrwt>
<pdfrwt beam="2">  1       21 0.12515848E+00 0.24187191E+03</pdfrwt>
<totfact> 0.13353246E+01</totfact>
</mgrwt>
</event>
<event>
 5    0  0.1615618E+000  0.2979431E+03  0.7546771E-02  0.1086273E+00
         21   -1    0    0  503  501  0.00000000000E+00  0.00000000000E+00  0.78666536052E+03  0.78666536052E+03  0.00000000000E+00 0. -1.
         21   -1    0    0  504  502 -0.00000000000E+00 -0.00000000000E+00 -0.37401008464E+03  0.37401008464E+03  0.00000000000E+00 0. -1.
         25    1    1    2    0    0 -0.28621655664E+03  0.13534059182E+02 -0.76219979623E+02  0.32177254908E+03  0.12500000000E+03 0.  0.
         21    1    1    2  503  502  0.25809432632E+03  0.11776466652E+00 -0.79196380110E+02  0.26997177958E+03  0.00000000000E+00 0. -1.
         21    1    1    2  504  501  0.28122230315E+02 -0.13651823849E+02  0.56807163561E+03  0.56893111649E+03  0.00000000000E+00 0. -1.
<mgrwt>
<rscale>  4 0.29794310E+03</rscale>
<asrwt>0</asrwt>
<pdfrwt beam="1">  1       21 0.12102544E+00 0.29794310E+03</pdfrwt>
<pdfrwt beam="2">  1       21 0.57540013E-01 0.29794310E+03</pdfrwt>
<totfact> 0.13485314E+03</totfact>
</mgrwt>
</event>
