<event>
 5    0  0.5719562E-003  0.7897244E+03  0.7546771E-02  0.9575011E-01
          2   -1    0    0  502    0  0.00000000000E+00  0.00000000000E+00  0.21077874898E+04  0.21077874898E+04  0.00000000000E+00 0. -1.
         -2   -1    0    0    0  501 -0.00000000000E+00 -0.00000000000E+00 -0.73971472541E+02  0.73971472541E+02  0.00000000000E+00 0.  1.
         25    1    1    2    0    0  0.31374994247E+03  0.19408189050E+03  0.75529618411E+03  0.84982594238E+03  0.12500000000E+03 0.  0.
          2    1    1    2  502    0 -0.34321773545E+02 -0.33679975800E+02  0.11552877196E+03  0.12513681337E+03  0.00000000000E+00 0.  1.
         -2    1    1    2    0  501 -0.27942816892E+03 -0.16040191470E+03  0.11629910612E+04  0.12067962065E+04  0.00000000000E+00 0. -1.
<mgrwt>
<rscale>  4 0.78972437E+03</rscale>
<asrwt>0</asrwt>
<pdfrwt beam="1">  1        2 0.32427495E+00 0.78972437E+03</pdfrwt>
<pdfrwt beam="2">  1       -2 0.11380228E-01 0.78972437E+03</pdfrwt>
<totfact> 0.33062898E+02</totfact>
</mgrwt>
</event>
<event>
 5    0  0.5719562E-003  0.6843189E+03  0.7546771E-02  0.9744431E-01
          2   -1    0    0  502    0  0.00000000000E+00  0.00000000000E+00  0.70914233270E+03  0.70914233270E+03  0.00000000000E+00 0.  1.
         -2   -1    0    0    0  501 -0.00000000000E+00 -0.00000000000E+00 -0.16509108928E+03  0.16509108928E+03  0.00000000000E+00 0. -1.
         25    1    1    2    0    0  0.29514874068E+03 -0.13172559374E+03  0.21866145876E+03  0.40975876405E+03  0.12500000000E+03 0.  0.
          2    1    1    2  502    0 -0.10047215692E+03  0.59732433584E+02  0.73462257346E+02  0.13805550041E+03  0.00000000000E+00 0. -1.
         -2    1    1    2    0  501 -0.19467658375E+03  0.71993160157E+02  0.25192752733E+03  0.32641915752E+03  0.00000000000E+00 0.  1.
<mgrwt>
<rscale>  4 0.68431887E+03</rscale>
<asrwt>0</asrwt>
<pdfrwt beam="1">  1        2 0.10909882E+00 0.68431887E+03</pdfrwt>
<pdfrwt beam="2">  1       -2 0.25398629E-01 0.68431887E+03</pdfrwt>
<totfact> 0.56464837E+02</totfact>
</mgrwt>
</event>
<event>
 5    0  0.5719562E-003  0.6663060E+03  0.7546771E-02  0.9776654E-01
          4   -1    0    0  502    0  0.00000000000E+00  0.00000000000E+00  0.23076048097E+03  0.23076048097E+03  0.00000000000E+00 0.  1.
         -4   -1    0    0    0  501 -0.00000000000E+00 -0.00000000000E+00 -0.48097888333E+03  0.48097888333E+03  0.00000000000E+00 0. -1.
         25    1    1    2    0    0  0.29278378503E+03 -0.14473783594E+02 -0.85017185234E+02  0.32982534313E+03  0.12500000000E+03 0.  0.
          3    1    1    2  502    0 -0.10734376018E+03  0.56789299164E+02  0.11901296114E+02  0.12202191688E+03  0.00000000000E+00 0.  1.
         -3    1    1    2    0  501 -0.18544002484E+03 -0.42315515570E+02 -0.17710251324E+03  0.25989210428E+03  0.00000000000E+00 0. -1.
<mgrwt>
<rscale>  4 0.66630599E+03</rscale>
<asrwt>0</asrwt>
<pdfrwt beam="1">  1        4 0.35501612E-01 0.66630599E+03</pdfrwt>
<pdfrwt beam="2">  1       -4 0.73996751E-01 0.66630599E+03</pdfrwt>
<totfact> 0.25357941E+01</totfact>
</mgrwt>
</event>
<event>
 5    0  0.5719562E-003  0.7086089E+03  0.7546771E-02  0.9702622E-01
          1   -1    0    0  502    0  0.00000000000E+00  0.00000000000E+00  0.19570285831E+04  0.19570285831E+04  0.00000000000E+00 0.  1.
         -1   -1    0    0    0  501 -0.00000000000E+00 -0.00000000000E+00 -0.64143996773E+02  0.64143996773E+02  0.00000000000E+00 0. -1.
         25    1    1    2    0    0 -0.17516417239E+03  0.14382408933E+03  0.11749478837E+04  0.12031190237E+04  0.12500000000E+03 0.  0.
          1    1    1    2  502    0  0.21200566539E+03  0.30186669414E+02  0.38151647438E+03  0.43750709410E+03  0.00000000000E+00 0.  1.
         -1    1    1    2    0  501 -0.36841493003E+02 -0.17401075874E+03  0.33642022831E+03  0.38054646205E+03  0.00000000000E+00 0. -1.
<mgrwt>
<rscale>  4 0.70860888E+03</rscale>
<asrwt>0</asrwt>
<pdfrwt beam="1">  1        1 0.30108127E+00 0.70860888E+03</pdfrwt>
<pdfrwt beam="2">  1       -1 0.98683087E-02 0.70860888E+03</pdfrwt>
<totfact> 0.21189152E+02</totfact>
</mgrwt>
</event>
<event>
 5    0  0.5719562E-003  0.7357669E+03  0.7546771E-02  0.9657948E-01
          1   -1    0    0  502    0  0.00000000000E+00  0.00000000000E+00  0.10176124864E+03  0.10176124864E+03  0.00000000000E+00 0. -1.
         -1   -1    0    0    0  501 -0.00000000000E+00 -0.00000000000E+00 -0.13299585842E+04  0.13299585842E+04  0.00000000000E+00 0.  1.
         25    1    1    2    0    0 -0.20021170226E+03  0.62355172336E+02 -0.95314451486E+02  0.26207391686E+03  0.12500000000E+03 0.  0.
          3    1    1    2  502    0  0.15653932492E+03 -0.12459812812E+03 -0.62885521275E+03  0.65991524636E+03  0.00000000000E+00 0. -1.
         -3    1    1    2    0  501  0.43672377334E+02  0.62242955781E+02 -0.50402767130E+03  0.50973066959E+03  0.00000000000E+00 0.  1.
<mgrwt>
<rscale>  4 0.73576694E+03</rscale>
<asrwt>0</asrwt>
<pdfrwt beam="1">  1        1 0.15655579E-01 0.73576694E+03</pdfrwt>
<pdfrwt beam="2">  1       -1 0.20460899E+00 0.73576694E+03</pdfrwt>
<totfact> 0.52182984E+01</totfact>
</mgrwt>
</event>
<event>
 5    0  0.5719562E-003  0.4968416E+03  0.7546771E-02  0.1014607E+00
         -2   -1    0    0    0  501 -0.00000000000E+00  0.00000000000E+00  0.21987244284E+03  0.21987244284E+03  0.00000000000E+00 0.  1.
          2   -1    0    0  502    0  0.00000000000E+00 -0.00000000000E+00 -0.28067585803E+03  0.28067585803E+03  0.00000000000E+00 0. -1.
         25    1    1    2    0    0 -0.92092281156E+02 -0.20584581164E+03 -0.56581215429E+01  0.25789629846E+03  0.12500000000E+03 0.  0.
          4    1    1    2  502    0  0.55165741522E+02  0.84607536512E+02  0.74924397537E+01  0.10128095046E+03  0.00000000000E+00 0.  1.
         -4    1    1    2    0  501  0.36926539635E+02  0.12123827513E+03 -0.62637733395E+02  0.14137105195E+03  0.00000000000E+00 0. -1.
<mgrwt>
<rscale>  4 0.49684157E+03</rscale>
<asrwt>0</asrwt>
<pdfrwt beam="1">  1        2 0.43180901E-01 0.49684157E+03</pdfrwt>
<pdfrwt beam="2">  1       -2 0.33826530E-01 0.49684157E+03</pdfrwt>
<totfact> 0.96857111E+02</totfact>
</mgrwt>
</event>
<event>
 5    0  0.5719562E-003  0.5100918E+03  0.7546771E-02  0.1011178E+00
          2   -1    0    0  502    0  0.00000000000E+00  0.00000000000E+00  0.27921981906E+04  0.27921981906E+04  0.00000000000E+00 0.  1.
         -2   -1    0    0    0  501 -0.00000000000E+00 -0.00000000000E+00 -0.23296491444E+02  0.23296491444E+02  0.00000000000E+00 0. -1.
         25    1    1    2    0    0 -0.17876058931E+03  0.10134245658E+03  0.18356863953E+04  0.18513765645E+04  0.12500000000E+03 0.  0.
          4    1    1    2  502    0  0.99855941781E+02 -0.10399247796E+03  0.40205967079E+03  0.42712717480E+03  0.00000000000E+00 0. -1.
         -4    1    1    2    0  501  0.78904647527E+02  0.26500213746E+01  0.53115563303E+03  0.53699094267E+03  0.00000000000E+00 0.  1.
<mgrwt>
<rscale>  4 0.51009184E+03</rscale>
<asrwt>0</asrwt>
<pdfrwt beam="1">  1        2 0.42956869E+00 0.51009184E+03</pdfrwt>
<pdfrwt beam="2">  1       -2 0.35840778E-02 0.51009184E+03</pdfrwt>
<totfact> 0.86420842E+02</totfact>
</mgrwt>
</event>
<event>
 5    0  0.5719562E-003  0.5247090E+03  0.7546771E-02  0.1007523E+00
         -2   -1    0    0    0  501 -0.00000000000E+00  0.00000000000E+00  0.50763938170E+02  0.50763938170E+02  0.00000000000E+00 0.  1.
          2   -1    0    0  502    0  0.00000000000E+00 -0.00000000000E+00 -0.13558813121E+04  0.13558813121E+04  0.00000000000E+00 0. -1.
         25    1    1    2    0    0  0.38192390368E+02 -0.23706438904E+03 -0.64505098237E+03  0.69955268071E+03  0.12500000000E+03 0.  0.
          2    1    1    2  502    0 -0.20468227852E+02  0.20299031455E+03 -0.61458234490E+03  0.64756117458E+03  0.00000000000E+00 0. -1.
         -2    1    1    2    0  501 -0.17724162516E+02  0.34074074489E+02 -0.45484046680E+02  0.59531395008E+02  0.00000000000E+00 0.  1.
<mgrwt>
<rscale>  4 0.52470897E+03</rscale>
<asrwt>0</asrwt>
<pdfrwt beam="1">  1        2 0.20859710E+00 0.52470897E+03</pdfrwt>
<pdfrwt beam="2">  1       -2 0.78098376E-02 0.52470897E+03</pdfrwt>
<totfact> 0.15931844E+03</totfact>
</mgrwt>
</event>
<event>
 5    0  0.5719562E-003  0.6511959E+03  0.7546771E-02  0.9804538E-01
          1   -1    0    0  502    0  0.00000000000E+00  0.00000000000E+00  0.13153294236E+04  0.13153294236E+04  0.00000000000E+00 0. -1.
         -1   -1    0    0    0  501 -0.00000000000E+00 -0.00000000000E+00 -0.80598840248E+02  0.80598840248E+02  0.00000000000E+00 0.  1.
         25    1    1    2    0    0  0.65791972262E+02  0.18942677090E+03  0.10716099613E+04  0.10973531767E+04  0.12500000000E+03 0.  0.
          2    1    1    2  502    0  0.20748912039E+02 -0.44910625372E+02 -0.16668589717E+02  0.52204631071E+02  0.00000000000E+00 0. -1.
         -2    1    1    2    0  501 -0.86540884302E+02 -0.14451614553E+03  0.17978921169E+03  0.24637045605E+03  0.00000000000E+00 0.  1.
<mgrwt>
<rscale>  4 0.65119590E+03</rscale>
<asrwt>0</asrwt>
<pdfrwt beam="1">  1        1 0.20235836E+00 0.65119590E+03</pdfrwt>
<pdfrwt beam="2">  1       -1 0.12399823E-01 0.65119590E+03</pdfrwt>
<totfact> 0.40268343E+02</totfact>
</mgrwt>
</event>
<event>
 5    0  0.5719562E-003  0.4585959E+03  0.7546771E-02  0.1025189E+00
          1   -1    0    0  502    0  0.00000000000E+00  0.00000000000E+00  0.25472359199E+03  0.25472359199E+03  0.00000000000E+00 0.  1.
         -1   -1    0    0    0  501 -0.00000000000E+00 -0.00000000000E+00 -0.20641022582E+03  0.20641022582E+03  0.00000000000E+00 0. -1.
         25    1    1    2    0    0  0.18639919766E+03 -0.76910109319E+02 -0.28049238278E+02  0.23889660017E+03  0.12500000000E+03 0.  0.
          3    1    1    2  502    0 -0.15648654204E+03  0.63068521132E+02  0.40463263242E+02  0.17350202266E+03  0.00000000000E+00 0.  1.
         -3    1    1    2    0  501 -0.29912655625E+02  0.13841588188E+02  0.35899341207E+02  0.48735194974E+02  0.00000000000E+00 0. -1.
<mgrwt>
<rscale>  4 0.45859592E+03</rscale>
<asrwt>0</asrwt>
<pdfrwt beam="1">  1        1 0.39188245E-01 0.45859592E+03</pdfrwt>
<pdfrwt beam="2">  1       -1 0.31755419E-01 0.45859592E+03</pdfrwt>
<totfact> 0.10030776E+03</totfact>
</mgrwt>
</event>
<event>
 5    0  0.5719562E-003  0.7621394E+03  0.7546771E-02  0.9616496E-01
         -1   -1    0    0    0  501 -0.00000000000E+00  0.00000000000E+00  0.89185353284E+02  0.89185353284E+02  0.00000000000E+00 0. -1.
          1   -1    0    0  502    0  0.00000000000E+00 -0.00000000000E+00 -0.16282281264E+04  0.16282281264E+04  0.00000000000E+00 0.  1.
         25    1    1    2    0    0  0.13906415162E+03  0.29821627281E+03 -0.42005503173E+03  0.54803559494E+03  0.12500000000E+03 0.  0.
          2    1    1    2  502    0 -0.92842171076E+02 -0.14377019405E+03 -0.45563768867E+03  0.48671885187E+03  0.00000000000E+00 0. -1.
         -2    1    1    2    0  501 -0.46221980548E+02 -0.15444607877E+03 -0.66335005272E+03  0.68265903288E+03  0.00000000000E+00 0.  1.
<mgrwt>
<rscale>  4 0.76213936E+03</rscale>
<asrwt>0</asrwt>
<pdfrwt beam="1">  1        1 0.25049661E+00 0.76213936E+03</pdfrwt>
<pdfrwt beam="2">  1       -1 0.13720825E-01 0.76213936E+03</pdfrwt>
<totfact> 0.20699252E+02</totfact>
</mgrwt>
</event>
<event>
 5    0  0.5719562E-003  0.6280184E+03  0.7546771E-02  0.9848923E-01
         -2   -1    0    0    0  501 -0.00000000000E+00  0.00000000000E+00  0.92415849977E+02  0.92415849977E+02  0.00000000000E+00 0.  1.
          2   -1    0    0  502    0  0.00000000000E+00 -0.00000000000E+00 -0.10669357240E+04  0.10669357240E+04  0.00000000000E+00 0. -1.
         25    1    1    2    0    0  0.22127635259E+03 -0.90679390374E+02 -0.16981972308E+03  0.31882552344E+03  0.12500000000E+03 0.  0.
          2    1    1    2  502    0 -0.19294596090E+03  0.71356141799E+02 -0.63839405266E+03  0.67072111140E+03  0.00000000000E+00 0. -1.
         -2    1    1    2    0  501 -0.28330391686E+02  0.19323248574E+02 -0.16630609831E+03  0.16980493916E+03  0.00000000000E+00 0.  1.
<mgrwt>
<rscale>  4 0.62801838E+03</rscale>
<asrwt>0</asrwt>
<pdfrwt beam="1">  1        2 0.16414397E+00 0.62801838E+03</pdfrwt>
<pdfrwt beam="2">  1       -2 0.14217822E-01 0.62801838E+03</pdfrwt>
<totfact> 0.88383835E+02</totfact>
</mgrwt>
</event>
<event>
 5    0  0.5719562E-003  0.6703089E+03  0.7546771E-02  0.9769400E-01
          2   -1    0    0  502    0  0.00000000000E+00  0.00000000000E+00  0.31194672866E+03  0.31194672866E+03  0.00000000000E+00 0. -1.
         -2   -1    0    0    0  501 -0.00000000000E+00 -0.00000000000E+00 -0.36008875474E+03  0.36008875474E+03  0.00000000000E+00 0.  1.
         25    1    1    2    0    0 -0.19888938214E+03 -0.27496530672E+02 -0.21716854793E+03  0.32109223556E+03  0.12500000000E+03 0.  0.
          4    1    1    2  502    0  0.13417777529E+03  0.83805990023E+02 -0.35323399848E+01  0.15823904945E+03  0.00000000000E+00 0.  1.
         -4    1    1    2    0  501  0.64711606846E+02 -0.56309459351E+02  0.17255886184E+03  0.19270419838E+03  0.00000000000E+00 0. -1.
<mgrwt>
<rscale>  4 0.67030891E+03</rscale>
<asrwt>0</asrwt>
<pdfrwt beam="1">  1        2 0.47991804E-01 0.67030891E+03</pdfrwt>
<pdfrwt beam="2">  1       -2 0.55398270E-01 0.67030891E+03</pdfrwt>
<totfact> 0.32503376E+02</totfact>
</mgrwt>
</event>
<event>
 5    0  0.5719562E-003  0.1264477E+04  0.7546771E-02  0.9058219E-01
          2   -1    0    0  502    0  0.00000000000E+00  0.00000000000E+00  0.13239540025E+04  0.13239540025E+04  0.00000000000E+00 0.  1.
         -2   -1    0    0    0  501 -0.00000000000E+00 -0.00000000000E+00 -0.30191796799E+03  0.30191796799E+03  0.00000000000E+00 0. -1.
         25    1    1    2    0    0  0.16863105189E+03 -0.56753690376E+03  0.49461219077E+03  0.78153745147E+03  0.12500000000E+03 0.  0.
          3    1    1    2  502    0 -0.19369994978E+03  0.52166529252E+03  0.34538589788E+03  0.65493951356E+03  0.00000000000E+00 0. -1.
         -3    1    1    2    0  501  0.25068897898E+02  0.45871611240E+02  0.18203794589E+03  0.18939500548E+03  0.00000000000E+00 0.  1.
<mgrwt>
<rscale>  4 0.12644770E+04</rscale>
<asrwt>0</asrwt>
<pdfrwt beam="1">  1        2 0.20368523E+00 0.12644770E+04</pdfrwt>
<pdfrwt beam="2">  1       -2 0.46448919E-01 0.12644770E+04</pdfrwt>
<totfact> 0.69093067E+01</totfact>
</mgrwt>
</event>
<event>
 5    0  0.5719562E-003  0.4522202E+03  0.7546771E-02  0.1027062E+00
          2   -1    0    0  502    0  0.00000000000E+00  0.00000000000E+00  0.10697943258E+04  0.10697943258E+04  0.00000000000E+00 0.  1.
         -2   -1    0    0    0  501 -0.00000000000E+00 -0.00000000000E+00 -0.47790285684E+02  0.47790285684E+02  0.00000000000E+00 0. -1.
         25    1    1    2    0    0  0.16137202680E+03 -0.12253680096E+03  0.47333958264E+03  0.52984106968E+03  0.12500000000E+03 0.  0.
          2    1    1    2  502    0 -0.29069977646E+02  0.39904647831E+02  0.19599010064E+03  0.20211275087E+03  0.00000000000E+00 0.  1.
         -2    1    1    2    0  501 -0.13230204916E+03  0.82632153130E+02  0.35267435684E+03  0.38563079093E+03  0.00000000000E+00 0. -1.
<mgrwt>
<rscale>  4 0.45222020E+03</rscale>
<asrwt>0</asrwt>
<pdfrwt beam="1">  1        2 0.16458372E+00 0.45222020E+03</pdfrwt>
<pdfrwt beam="2">  1       -2 0.73523524E-02 0.45222020E+03</pdfrwt>
<totfact> 0.25747005E+03</totfact>
</mgrwt>
</event>
<event>
 5    0  0.5719562E-003  0.5421821E+03  0.7546771E-02  0.1003320E+00
         -1   -1    0    0    0  501 -0.00000000000E+00  0.00000000000E+00  0.84322431929E+02  0.84322431929E+02  0.00000000000E+00 0.  1.
          1   -1    0    0  502    0  0.00000000000E+00 -0.00000000000E+00 -0.87153979181E+03  0.87153979181E+03  0.00000000000E+00 0. -1.
         25    1    1    2    0    0 -0.97650591730E+02 -0.22545558471E+03 -0.51246386399E+03  0.58190211431E+03  0.12500000000E+03 0.  0.
          4    1    1    2  502    0  0.10465126026E+03  0.18467733176E+03 -0.23246531841E+03  0.31479791518E+03  0.00000000000E+00 0.  1.
         -4    1    1    2    0  501 -0.70006685345E+01  0.40778252951E+02 -0.42288177487E+02  0.59162194253E+02  0.00000000000E+00 0. -1.
<mgrwt>
<rscale>  4 0.54218209E+03</rscale>
<asrwt>0</asrwt>
<pdfrwt beam="1">  1        1 0.13408305E+00 0.54218209E+03</pdfrwt>
<pdfrwt beam="2">  1       -1 0.12972681E-01 0.54218209E+03</pdfrwt>
<totfact> 0.80919473E+02</totfact>
</mgrwt>
</event>
<event>
 5    0  0.5719562E-003  0.8232401E+03  0.7546771E-02  0.9526974E-01
         -1   -1    0    0    0  501 -0.00000000000E+00  0.00000000000E+00  0.22470355702E+03  0.22470355702E+03  0.00000000000E+00 0. -1.
          1   -1    0    0  502    0  0.00000000000E+00 -0.00000000000E+00 -0.75402043858E+03  0.75402043858E+03  0.00000000000E+00 0.  1.
         25    1    1    2    0    0  0.29343628240E+03  0.16288844848E+03 -0.18953151220E+03  0.40519710339E+03  0.12500000000E+03 0.  0.
          2    1    1    2  502    0 -0.10848941069E+03 -0.15556538455E+03 -0.33898367920E+03  0.38843336091E+03  0.00000000000E+00 0.  1.
         -2    1    1    2    0  501 -0.18494687172E+03 -0.73230639302E+01 -0.80169014877E+00  0.18509353130E+03  0.00000000000E+00 0. -1.
<mgrwt>
<rscale>  4 0.82324012E+03</rscale>
<asrwt>0</asrwt>
<pdfrwt beam="1">  1        1 0.11600314E+00 0.82324012E+03</pdfrwt>
<pdfrwt beam="2">  1       -1 0.34569779E-01 0.82324012E+03</pdfrwt>
<totfact> 0.19449768E+02</totfact>
</mgrwt>
</event>
<event>
 5    0  0.5719562E-003  0.5078176E+03  0.7546771E-02  0.1011758E+00
          1   -1    0    0  502    0  0.00000000000E+00  0.00000000000E+00  0.17766272021E+04  0.17766272021E+04  0.00000000000E+00 0.  1.
         -1   -1    0    0    0  501 -0.00000000000E+00 -0.00000000000E+00 -0.36287680798E+02  0.36287680798E+02  0.00000000000E+00 0. -1.
         25    1    1    2    0    0 -0.19178379423E+03  0.12628890465E+03  0.74818181455E+03  0.79254712087E+03  0.12500000000E+03 0.  0.
          1    1    1    2  502    0  0.42432419455E+02 -0.24249975051E+02  0.11851532798E+03  0.12819693630E+03  0.00000000000E+00 0. -1.
         -1    1    1    2    0  501  0.14935137478E+03 -0.10203892960E+03  0.87364237872E+03  0.89217082568E+03  0.00000000000E+00 0.  1.
<mgrwt>
<rscale>  4 0.50781761E+03</rscale>
<asrwt>0</asrwt>
<pdfrwt beam="1">  1        1 0.27332719E+00 0.50781761E+03</pdfrwt>
<pdfrwt beam="2">  1       -1 0.55827215E-02 0.50781761E+03</pdfrwt>
<totfact> 0.68807781E+02</totfact>
</mgrwt>
</event>
<event>
 5    0  0.5719562E-003  0.5490686E+03  0.7546771E-02  0.1001710E+00
         -1   -1    0    0    0  501 -0.00000000000E+00  0.00000000000E+00  0.36488763609E+02  0.36488763609E+02  0.00000000000E+00 0.  1.
          1   -1    0    0  502    0  0.00000000000E+00 -0.00000000000E+00 -0.20655418477E+04  0.20655418477E+04  0.00000000000E+00 0. -1.
         25    1    1    2    0    0 -0.19362871047E+03  0.91880142998E+02 -0.16134655537E+04  0.16324307432E+04  0.12500000000E+03 0.  0.
          4    1    1    2  502    0  0.85729846730E+02 -0.45206762214E+02 -0.23402644093E+03  0.25330146668E+03  0.00000000000E+00 0. -1.
         -4    1    1    2    0  501  0.10789886374E+03 -0.46673380784E+02 -0.18156108940E+03  0.21629840142E+03  0.00000000000E+00 0.  1.
<mgrwt>
<rscale>  4 0.54906855E+03</rscale>
<asrwt>0</asrwt>
<pdfrwt beam="1">  1        1 0.31777567E+00 0.54906855E+03</pdfrwt>
<pdfrwt beam="2">  1       -1 0.56136559E-02 0.54906855E+03</pdfrwt>
<totfact> 0.43765973E+02</totfact>
</mgrwt>
</event>
<event>
 5    0  0.5719562E-003  0.7149090E+03  0.7546771E-02  0.9692070E-01
          1   -1    0    0  502    0  0.00000000000E+00  0.00000000000E+00  0.98762975669E+03  0.98762975669E+03  0.00000000000E+00 0.  1.
         -1   -1    0    0    0  501 -0.00000000000E+00 -0.00000000000E+00 -0.12937410872E+03  0.12937410872E+03  0.00000000000E+00 0. -1.
         25    1    1    2    0    0 -0.47866775343E+02 -0.28451926792E+03  0.38453403584E+03  0.49672312883E+03  0.12500000000E+03 0.  0.
          3    1    1    2  502    0  0.14843067216E+03  0.25523393442E+03  0.36196815379E+03  0.46711558535E+03  0.00000000000E+00 0. -1.
         -3    1    1    2    0  501 -0.10056389682E+03  0.29285333496E+02  0.11175345834E+03  0.15316515124E+03  0.00000000000E+00 0.  1.
<mgrwt>
<rscale>  4 0.71490900E+03</rscale>
<asrwt>0</asrwt>
<pdfrwt beam="1">  1        1 0.15194303E+00 0.71490900E+03</pdfrwt>
<pdfrwt beam="2">  1       -1 0.19903710E-01 0.71490900E+03</pdfrwt>
<totfact> 0.32288439E+02</totfact>
</mgrwt>
</event>
<event>
 5    0  0.5719562E-003  0.5509482E+03  0.7546771E-02  0.1001275E+00
         -3   -1    0    0    0  501 -0.00000000000E+00  0.00000000000E+00  0.12468713720E+03  0.12468713720E+03  0.00000000000E+00 0.  1.
          3   -1    0    0  502    0  0.00000000000E+00 -0.00000000000E+00 -0.60861123500E+03  0.60861123500E+03  0.00000000000E+00 0. -1.
         25    1    1    2    0    0 -0.20799322797E+03  0.45350407545E+02 -0.24041808728E+03  0.34459207629E+03  0.12500000000E+03 0.  0.
          1    1    1    2  502    0  0.14773383070E+03  0.29921699846E+02 -0.25015231078E+03  0.29205611009E+03  0.00000000000E+00 0. -1.
         -1    1    1    2    0  501  0.60259397272E+02 -0.75272107391E+02  0.66463002582E+01  0.96650185814E+02  0.00000000000E+00 0.  1.
<mgrwt>
<rscale>  4 0.55094825E+03</rscale>
<asrwt>0</asrwt>
<pdfrwt beam="1">  1        3 0.93632497E-01 0.55094825E+03</pdfrwt>
<pdfrwt beam="2">  1       -3 0.19182637E-01 0.55094825E+03</pdfrwt>
<totfact> 0.66146897E+01</totfact>
</mgrwt>
</event>
<event>
 5    0  0.5719562E-003  0.7465109E+03  0.7546771E-02  0.9640840E-01
          1   -1    0    0  502    0  0.00000000000E+00  0.00000000000E+00  0.40134990597E+03  0.40134990597E+03  0.00000000000E+00 0. -1.
         -1   -1    0    0    0  501 -0.00000000000E+00 -0.00000000000E+00 -0.34712763030E+03  0.34712763030E+03  0.00000000000E+00 0.  1.
         25    1    1    2    0    0  0.50604735893E+02 -0.23894888231E+03 -0.15278910035E+03  0.31404922677E+03  0.12500000000E+03 0.  0.
          3    1    1    2  502    0  0.25755913787E+01  0.26037121485E+02 -0.73647713037E+02  0.78157219767E+02  0.00000000000E+00 0.  1.
         -3    1    1    2    0  501 -0.53180327271E+02  0.21291176083E+03  0.28065908906E+03  0.35627108973E+03  0.00000000000E+00 0. -1.
<mgrwt>
<rscale>  4 0.74651093E+03</rscale>
<asrwt>0</asrwt>
<pdfrwt beam="1">  1        1 0.61746139E-01 0.74651093E+03</pdfrwt>
<pdfrwt beam="2">  1       -1 0.53404251E-01 0.74651093E+03</pdfrwt>
<totfact> 0.21405473E+02</totfact>
</mgrwt>
</event>
<event>
 5    0  0.5719562E-003  0.7426870E+03  0.7546771E-02  0.9646894E-01
          2   -1    0    0  502    0  0.00000000000E+00  0.00000000000E+00  0.58830297783E+03  0.58830297783E+03  0.00000000000E+00 0. -1.
         -2   -1    0    0    0  501 -0.00000000000E+00 -0.00000000000E+00 -0.23439624939E+03  0.23439624939E+03  0.00000000000E+00 0.  1.
         25    1    1    2    0    0  0.28740015188E+03  0.91823483553E+02 -0.13699442717E+02  0.32686858852E+03  0.12500000000E+03 0.  0.
          2    1    1    2  502    0 -0.14351526283E+03  0.25286423396E+02  0.18519497920E+03  0.23565486244E+03  0.00000000000E+00 0.  1.
         -2    1    1    2    0  501 -0.14388488905E+03 -0.11710990695E+03  0.18241119196E+03  0.26017577626E+03  0.00000000000E+00 0. -1.
<mgrwt>
<rscale>  4 0.74268704E+03</rscale>
<asrwt>0</asrwt>
<pdfrwt beam="1">  1        2 0.90508150E-01 0.74268704E+03</pdfrwt>
<pdfrwt beam="2">  1       -2 0.36060962E-01 0.74268704E+03</pdfrwt>
<totfact> 0.36986282E+02</totfact>
</mgrwt>
</event>
<event>
 5    0  0.5719562E-003  0.4860513E+03  0.7546771E-02  0.1017485E+00
          2   -1    0    0  502    0  0.00000000000E+00  0.00000000000E+00  0.46985754620E+03  0.46985754620E+03  0.00000000000E+00 0. -1.
         -2   -1    0    0    0  501 -0.00000000000E+00 -0.00000000000E+00 -0.12570081394E+03  0.12570081394E+03  0.00000000000E+00 0.  1.
         25    1    1    2    0    0 -0.15159478163E+03 -0.16091911286E+03  0.14078077681E+03  0.29037934813E+03  0.12500000000E+03 0.  0.
          3    1    1    2  502    0  0.12897737553E+03  0.14010491557E+03  0.14552999922E+03  0.23967380215E+03  0.00000000000E+00 0. -1.
         -3    1    1    2    0  501  0.22617406098E+02  0.20814197288E+02  0.57845956225E+02  0.65505209861E+02  0.00000000000E+00 0.  1.
<mgrwt>
<rscale>  4 0.48605134E+03</rscale>
<asrwt>0</asrwt>
<pdfrwt beam="1">  1        2 0.72285775E-01 0.48605134E+03</pdfrwt>
<pdfrwt beam="2">  1       -2 0.19338587E-01 0.48605134E+03</pdfrwt>
<totfact> 0.14953715E+03</totfact>
</mgrwt>
</event>
<event>
 5    0  0.5719562E-003  0.6502269E+03  0.7546771E-02  0.9806354E-01
         -1   -1    0    0    0  501 -0.00000000000E+00  0.00000000000E+00  0.36600487124E+02  0.36600487124E+02  0.00000000000E+00 0.  1.
          1   -1    0    0  502    0  0.00000000000E+00 -0.00000000000E+00 -0.28879055516E+04  0.28879055516E+04  0.00000000000E+00 0. -1.
         25    1    1    2    0    0 -0.26831317139E+03 -0.36739729193E+02 -0.17068959824E+04  0.17327609934E+04  0.12500000000E+03 0.  0.
          1    1    1    2  502    0  0.35230984844E+02 -0.61813767617E+02 -0.15607367212E+03  0.17152596098E+03  0.00000000000E+00 0. -1.
         -1    1    1    2    0  501  0.23308218655E+03  0.98553496810E+02 -0.98833540997E+03  0.10202190843E+04  0.00000000000E+00 0.  1.
<mgrwt>
<rscale>  4 0.65022688E+03</rscale>
<asrwt>0</asrwt>
<pdfrwt beam="1">  1        1 0.44429336E+00 0.65022688E+03</pdfrwt>
<pdfrwt beam="2">  1       -1 0.56308417E-02 0.65022688E+03</pdfrwt>
<totfact> 0.11891171E+02</totfact>
</mgrwt>
</event>
<event>
 5    0  0.5719562E-003  0.8022216E+03  0.7546771E-02  0.9556807E-01
          1   -1    0    0  502    0  0.00000000000E+00  0.00000000000E+00  0.17504307618E+03  0.17504307618E+03  0.00000000000E+00 0. -1.
         -1   -1    0    0    0  501 -0.00000000000E+00 -0.00000000000E+00 -0.91914452961E+03  0.91914452961E+03  0.00000000000E+00 0.  1.
         25    1    1    2    0    0  0.13693520141E+03 -0.15709541611E+03 -0.35851916386E+03  0.43311800932E+03  0.12500000000E+03 0.  0.
          3    1    1    2  502    0  0.65132826704E+02 -0.98161451365E+02 -0.30315468812E+03  0.32523948189E+03  0.00000000000E+00 0.  1.
         -3    1    1    2    0  501 -0.20206802811E+03  0.25525686747E+03 -0.82427601446E+02  0.33583011458E+03  0.00000000000E+00 0. -1.
<mgrwt>
<rscale>  4 0.80222163E+03</rscale>
<asrwt>0</asrwt>
<pdfrwt beam="1">  1        1 0.26929704E-01 0.80222163E+03</pdfrwt>
<pdfrwt beam="2">  1       -1 0.14140685E+00 0.80222163E+03</pdfrwt>
<totfact> 0.73322481E+01</totfact>
</mgrwt>
</event>
<event>
 5    0  0.5719562E-003  0.5625634E+03  0.7546771E-02  0.9986271E-01
         -2   -1    0    0    0  501 -0.00000000000E+00  0.00000000000E+00  0.57740247452E+02  0.57740247452E+02  0.00000000000E+00 0.  1.
          2   -1    0    0  502    0  0.00000000000E+00 -0.00000000000E+00 -0.13702643896E+04  0.13702643896E+04  0.00000000000E+00 0. -1.
         25    1    1    2    0    0 -0.22914452296E+03  0.82606905542E+02 -0.78259953066E+03  0.82910683186E+03  0.12500000000E+03 0.  0.
          2    1    1    2  502    0  0.21531291648E+02  0.11056716507E+02 -0.17840645216E+03  0.18004085557E+03  0.00000000000E+00 0. -1.
         -2    1    1    2    0  501  0.20761323131E+03 -0.93663622050E+02 -0.35151815929E+03  0.41885694959E+03  0.00000000000E+00 0.  1.
<mgrwt>
<rscale>  4 0.56256344E+03</rscale>
<asrwt>0</asrwt>
<pdfrwt beam="1">  1        2 0.21080990E+00 0.56256344E+03</pdfrwt>
<pdfrwt beam="2">  1       -2 0.88831153E-02 0.56256344E+03</pdfrwt>
<totfact> 0.12717345E+03</totfact>
</mgrwt>
</event>
<event>
 5    0  0.5719562E-003  0.6809583E+03  0.7546771E-02  0.9750362E-01
         -2   -1    0    0    0  501 -0.00000000000E+00  0.00000000000E+00  0.14001847411E+03  0.14001847411E+03  0.00000000000E+00 0. -1.
          2   -1    0    0  502    0  0.00000000000E+00 -0.00000000000E+00 -0.82793386403E+03  0.82793386403E+03  0.00000000000E+00 0.  1.
         25    1    1    2    0    0  0.12083974887E+03  0.23455132679E+03 -0.24261383039E+03  0.37960906273E+03  0.12500000000E+03 0.  0.
          1    1    1    2  502    0  0.55293298665E+02  0.27164688393E+02 -0.35227965784E+02  0.70966743944E+02  0.00000000000E+00 0. -1.
         -1    1    1    2    0  501 -0.17613304753E+03 -0.26171601518E+03 -0.41007359374E+03  0.51737653147E+03  0.00000000000E+00 0.  1.
<mgrwt>
<rscale>  4 0.68095826E+03</rscale>
<asrwt>0</asrwt>
<pdfrwt beam="1">  1        2 0.12737444E+00 0.68095826E+03</pdfrwt>
<pdfrwt beam="2">  1       -2 0.21541304E-01 0.68095826E+03</pdfrwt>
<totfact> 0.61949024E+02</totfact>
</mgrwt>
</event>
<event>
 5    0  0.5719562E-003  0.6413272E+03  0.7546771E-02  0.9823191E-01
         -2   -1    0    0    0  501 -0.00000000000E+00  0.00000000000E+00  0.92509420008E+02  0.92509420008E+02  0.00000000000E+00 0.  1.
          2   -1    0    0  502    0  0.00000000000E+00 -0.00000000000E+00 -0.11115099732E+04  0.11115099732E+04  0.00000000000E+00 0. -1.
         25    1    1    2    0    0 -0.15103727156E+03  0.16969444280E+03 -0.30640358420E+03  0.40139334539E+03  0.12500000000E+03 0.  0.
          4    1    1    2  502    0  0.23009882035E+03 -0.13657720887E+03 -0.42227974300E+03  0.49991897590E+03  0.00000000000E+00 0.  1.
         -4    1    1    2    0  501 -0.79061548796E+02 -0.33117233935E+02 -0.29031722597E+03  0.30270707190E+03  0.00000000000E+00 0. -1.
<mgrwt>
<rscale>  4 0.64132720E+03</rscale>
<asrwt>0</asrwt>
<pdfrwt beam="1">  1        2 0.17100153E+00 0.64132720E+03</pdfrwt>
<pdfrwt beam="2">  1       -2 0.14232219E-01 0.64132720E+03</pdfrwt>
<totfact> 0.82834312E+02</totfact>
</mgrwt>
</event>
<event>
 5    0  0.5719562E-003  0.7249845E+03  0.7546771E-02  0.9675434E-01
          1   -1    0    0  502    0  0.00000000000E+00  0.00000000000E+00  0.64356435470E+03  0.64356435470E+03  0.00000000000E+00 0.  1.
         -1   -1    0    0    0  501 -0.00000000000E+00 -0.00000000000E+00 -0.20417638336E+03  0.20417638336E+03  0.00000000000E+00 0. -1.
         25    1    1    2    0    0 -0.14687277106E+03 -0.18801530745E+03  0.12594786395E+03  0.29733689839E+03  0.12500000000E+03 0.  0.
          1    1    1    2  502    0 -0.10872563233E+02  0.16200985466E+03 -0.35831483104E+02  0.16628078909E+03  0.00000000000E+00 0. -1.
         -1    1    1    2    0  501  0.15774533429E+03  0.26005452787E+02  0.34927159049E+03  0.38412305058E+03  0.00000000000E+00 0.  1.
<mgrwt>
<rscale>  4 0.72498453E+03</rscale>
<asrwt>0</asrwt>
<pdfrwt beam="1">  1        1 0.99009900E-01 0.72498453E+03</pdfrwt>
<pdfrwt beam="2">  1       -1 0.31411752E-01 0.72498453E+03</pdfrwt>
<totfact> 0.29412031E+02</totfact>
</mgrwt>
</event>
<event>
 5    0  0.5719562E-003  0.6822347E+03  0.7546771E-02  0.9748105E-01
          2   -1    0    0  502    0  0.00000000000E+00  0.00000000000E+00  0.67891947773E+03  0.67891947773E+03  0.00000000000E+00 0.  1.
         -2   -1    0    0    0  501 -0.00000000000E+00 -0.00000000000E+00 -0.17139153586E+03  0.17139153586E+03  0.00000000000E+00 0. -1.
         25    1    1    2    0    0  0.75623828515E+02 -0.24223157939E+03  0.12252589585E+03  0.30827373655E+03  0.12500000000E+03 0.  0.
          4    1    1    2  502    0 -0.16297406495E+03  0.10101614948E+03  0.29858278427E+03  0.35484713239E+03  0.00000000000E+00 0.  1.
         -4    1    1    2    0  501  0.87350236439E+02  0.14121542992E+03  0.86419261742E+02  0.18719014465E+03  0.00000000000E+00 0. -1.
<mgrwt>
<rscale>  4 0.68223472E+03</rscale>
<asrwt>0</asrwt>
<pdfrwt beam="1">  1        2 0.10444915E+00 0.68223472E+03</pdfrwt>
<pdfrwt beam="2">  1       -2 0.26367929E-01 0.68223472E+03</pdfrwt>
<totfact> 0.55731267E+02</totfact>
</mgrwt>
</event>
<event>
 5    0  0.5719562E-003  0.7387646E+03  0.7546771E-02  0.9653144E-01
          2   -1    0    0  502    0  0.00000000000E+00  0.00000000000E+00  0.62747506224E+03  0.62747506224E+03  0.00000000000E+00 0. -1.
         -2   -1    0    0    0  501 -0.00000000000E+00 -0.00000000000E+00 -0.21744815187E+03  0.21744815187E+03  0.00000000000E+00 0.  1.
         25    1    1    2    0    0  0.20448664347E+03 -0.27349625979E+03  0.24916607053E+03  0.44082164441E+03  0.12500000000E+03 0.  0.
          4    1    1    2  502    0  0.75215511627E+01  0.82222170605E+02  0.56685103579E+02  0.10015118591E+03  0.00000000000E+00 0.  1.
         -4    1    1    2    0  501 -0.21200819463E+03  0.19127408919E+03  0.10417573626E+03  0.30395038379E+03  0.00000000000E+00 0. -1.
<mgrwt>
<rscale>  4 0.73876462E+03</rscale>
<asrwt>0</asrwt>
<pdfrwt beam="1">  1        2 0.96534624E-01 0.73876462E+03</pdfrwt>
<pdfrwt beam="2">  1       -2 0.33453562E-01 0.73876462E+03</pdfrwt>
<totfact> 0.39461286E+02</totfact>
</mgrwt>
</event>
<event>
 5    0  0.5719562E-003  0.7031697E+03  0.7546771E-02  0.9711827E-01
          2   -1    0    0  502    0  0.00000000000E+00  0.00000000000E+00  0.96835671990E+02  0.96835671990E+02  0.00000000000E+00 0. -1.
         -2   -1    0    0    0  501 -0.00000000000E+00 -0.00000000000E+00 -0.12765121803E+04  0.12765121803E+04  0.00000000000E+00 0.  1.
         25    1    1    2    0    0  0.25329712964E+03 -0.62517131516E+02 -0.10009000757E+04  0.10418703323E+04  0.12500000000E+03 0.  0.
          4    1    1    2  502    0 -0.14939905896E+03  0.18136816869E+02 -0.15496344849E+03  0.21601549323E+03  0.00000000000E+00 0.  1.
         -4    1    1    2    0  501 -0.10389807067E+03  0.44380314647E+02 -0.23812984046E+02  0.11546202678E+03  0.00000000000E+00 0. -1.
<mgrwt>
<rscale>  4 0.70316972E+03</rscale>
<asrwt>0</asrwt>
<pdfrwt beam="1">  1        2 0.14897797E-01 0.70316972E+03</pdfrwt>
<pdfrwt beam="2">  1       -2 0.19638647E+00 0.70316972E+03</pdfrwt>
<totfact> 0.57921723E+01</totfact>
</mgrwt>
</event>
<event>
 5    0  0.5719562E-003  0.5358973E+03  0.7546771E-02  0.1004812E+00
         -2   -1    0    0    0  501 -0.00000000000E+00  0.00000000000E+00  0.79941254024E+02  0.79941254024E+02  0.00000000000E+00 0.  1.
          2   -1    0    0  502    0  0.00000000000E+00 -0.00000000000E+00 -0.89811549529E+03  0.89811549529E+03  0.00000000000E+00 0. -1.
         25    1    1    2    0    0  0.62002439432E+02 -0.20171533597E+03 -0.21458502219E+03  0.32589125642E+03  0.12500000000E+03 0.  0.
          4    1    1    2  502    0 -0.42701805992E+02  0.10862603542E+03 -0.15736035193E+03  0.19592177053E+03  0.00000000000E+00 0.  1.
         -4    1    1    2    0  501 -0.19300633440E+02  0.93089300554E+02 -0.44622886714E+03  0.45624372237E+03  0.00000000000E+00 0. -1.
<mgrwt>
<rscale>  4 0.53589730E+03</rscale>
<asrwt>0</asrwt>
<pdfrwt beam="1">  1        2 0.13817161E+00 0.53589730E+03</pdfrwt>
<pdfrwt beam="2">  1       -2 0.12298655E-01 0.53589730E+03</pdfrwt>
<totfact> 0.14448155E+03</totfact>
</mgrwt>
</event>
<event>
 5    0  0.5719562E-003  0.8091286E+03  0.7546771E-02  0.9546897E-01
         -1   -1    0    0    0  501 -0.00000000000E+00  0.00000000000E+00  0.58522044655E+03  0.58522044655E+03  0.00000000000E+00 0.  1.
          1   -1    0    0  502    0  0.00000000000E+00 -0.00000000000E+00 -0.27967625838E+03  0.27967625838E+03  0.00000000000E+00 0. -1.
         25    1    1    2    0    0  0.34583502025E+03  0.14994127760E+03  0.95324562270E+02  0.40840668473E+03  0.12500000000E+03 0.  0.
          4    1    1    2  502    0 -0.25877551880E+02 -0.38607235676E+02 -0.15970509436E+02  0.49144923537E+02  0.00000000000E+00 0. -1.
         -4    1    1    2    0  501 -0.31995746837E+03 -0.11133404192E+03  0.22619013533E+03  0.40734509666E+03  0.00000000000E+00 0.  1.
<mgrwt>
<rscale>  4 0.80912858E+03</rscale>
<asrwt>0</asrwt>
<pdfrwt beam="1">  1        1 0.43027117E-01 0.80912858E+03</pdfrwt>
<pdfrwt beam="2">  1       -1 0.90033914E-01 0.80912858E+03</pdfrwt>
<totfact> 0.11739304E+02</totfact>
</mgrwt>
</event>
<event>
 5    0  0.5719562E-003  0.5496865E+03  0.7546771E-02  0.1001567E+00
         -2   -1    0    0    0  501 -0.00000000000E+00  0.00000000000E+00  0.70683470923E+02  0.70683470923E+02  0.00000000000E+00 0.  1.
          2   -1    0    0  502    0  0.00000000000E+00 -0.00000000000E+00 -0.10686914291E+04  0.10686914291E+04  0.00000000000E+00 0. -1.
         25    1    1    2    0    0 -0.18971989897E+03 -0.78745102504E+02 -0.24769327454E+03  0.34521209348E+03  0.12500000000E+03 0.  0.
          2    1    1    2  502    0  0.95493973216E+02 -0.41598855942E+02 -0.36711837056E+03  0.38160904305E+03  0.00000000000E+00 0.  1.
         -2    1    1    2    0  501  0.94225925751E+02  0.12034395845E+03 -0.38319631311E+03  0.41255376353E+03  0.00000000000E+00 0. -1.
<mgrwt>
<rscale>  4 0.54968653E+03</rscale>
<asrwt>0</asrwt>
<pdfrwt beam="1">  1        2 0.16441407E+00 0.54968653E+03</pdfrwt>
<pdfrwt beam="2">  1       -2 0.10874380E-01 0.54968653E+03</pdfrwt>
<totfact> 0.13760649E+03</totfact>
</mgrwt>
</event>
<event>
 5    0  0.5719562E-003  0.6717890E+03  0.7546771E-02  0.9766731E-01
         -2   -1    0    0    0  501 -0.00000000000E+00  0.00000000000E+00  0.16346052103E+03  0.16346052103E+03  0.00000000000E+00 0.  1.
          2   -1    0    0  502    0  0.00000000000E+00 -0.00000000000E+00 -0.69022854179E+03  0.69022854179E+03  0.00000000000E+00 0. -1.
         25    1    1    2    0    0 -0.55619322359E+02 -0.22147792075E+03 -0.43395671848E+03  0.50605277582E+03  0.12500000000E+03 0.  0.
          2    1    1    2  502    0  0.12440037706E+03  0.15120811571E+03  0.21351478603E+02  0.19696505707E+03  0.00000000000E+00 0.  1.
         -2    1    1    2    0  501 -0.68781054701E+02  0.70269805047E+02 -0.11416278089E+03  0.15067122993E+03  0.00000000000E+00 0. -1.
<mgrwt>
<rscale>  4 0.67178901E+03</rscale>
<asrwt>0</asrwt>
<pdfrwt beam="1">  1        2 0.10618901E+00 0.67178901E+03</pdfrwt>
<pdfrwt beam="2">  1       -2 0.25147773E-01 0.67178901E+03</pdfrwt>
<totfact> 0.59494611E+02</totfact>
</mgrwt>
</event>
<event>
 5    0  0.5719562E-003  0.5563096E+03  0.7546771E-02  0.1000044E+00
         -1   -1    0    0    0  501 -0.00000000000E+00  0.00000000000E+00  0.93931500423E+02  0.93931500423E+02  0.00000000000E+00 0. -1.
          1   -1    0    0  502    0  0.00000000000E+00 -0.00000000000E+00 -0.82368621501E+03  0.82368621501E+03  0.00000000000E+00 0.  1.
         25    1    1    2    0    0  0.18853233709E+03  0.14136248425E+03 -0.45136135787E+03  0.52428987160E+03  0.12500000000E+03 0.  0.
          3    1    1    2  502    0 -0.64151465065E+02  0.27432908310E+01 -0.11077051761E+02  0.65158554238E+02  0.00000000000E+00 0. -1.
         -3    1    1    2    0  501 -0.12438087202E+03 -0.14410577509E+03 -0.26731630496E+03  0.32816928960E+03  0.00000000000E+00 0.  1.
<mgrwt>
<rscale>  4 0.55630956E+03</rscale>
<asrwt>0</asrwt>
<pdfrwt beam="1">  1        1 0.12672096E+00 0.55630956E+03</pdfrwt>
<pdfrwt beam="2">  1       -1 0.14451000E-01 0.55630956E+03</pdfrwt>
<totfact> 0.74535227E+02</totfact>
</mgrwt>
</event>
<event>
 5    0  0.5719562E-003  0.5494709E+03  0.7546771E-02  0.1001616E+00
         -3   -1    0    0    0  501 -0.00000000000E+00  0.00000000000E+00  0.13430324456E+03  0.13430324456E+03  0.00000000000E+00 0.  1.
          3   -1    0    0  502    0  0.00000000000E+00 -0.00000000000E+00 -0.56200846021E+03  0.56200846021E+03  0.00000000000E+00 0. -1.
         25    1    1    2    0    0  0.51215610568E+02  0.21670030831E+03 -0.92702754715E+02  0.27166314273E+03  0.12500000000E+03 0.  0.
          2    1    1    2  502    0 -0.22758298543E+02 -0.79976448098E+02 -0.24445283522E+03  0.25820798022E+03  0.00000000000E+00 0.  1.
         -2    1    1    2    0  501 -0.28457312025E+02 -0.13672386021E+03 -0.90549625715E+02  0.16644058182E+03  0.00000000000E+00 0. -1.
<mgrwt>
<rscale>  4 0.54947087E+03</rscale>
<asrwt>0</asrwt>
<pdfrwt beam="1">  1        3 0.86462839E-01 0.54947087E+03</pdfrwt>
<pdfrwt beam="2">  1       -3 0.20662038E-01 0.54947087E+03</pdfrwt>
<totfact> 0.69340798E+01</totfact>
</mgrwt>
</event>
<event>
 5    0  0.5719562E-003  0.5707681E+03  0.7546771E-02  0.9967980E-01
          2   -1    0    0  502    0  0.00000000000E+00  0.00000000000E+00  0.71460978160E+03  0.71460978160E+03  0.00000000000E+00 0.  1.
         -2   -1    0    0    0  501 -0.00000000000E+00 -0.00000000000E+00 -0.11396998635E+03  0.11396998635E+03  0.00000000000E+00 0. -1.
         25    1    1    2    0    0  0.22232946883E+03 -0.96138011008E+02  0.14386384988E+03  0.30821213015E+03  0.12500000000E+03 0.  0.
          1    1    1    2  502    0 -0.46080621361E+02  0.84679068456E+01  0.50333455130E+02  0.68764713456E+02  0.00000000000E+00 0. -1.
         -1    1    1    2    0  501 -0.17624884747E+03  0.87670104162E+02  0.40644249024E+03  0.45160292434E+03  0.00000000000E+00 0.  1.
<mgrwt>
<rscale>  4 0.57076814E+03</rscale>
<asrwt>0</asrwt>
<pdfrwt beam="1">  1        2 0.10993996E+00 0.57076814E+03</pdfrwt>
<pdfrwt beam="2">  1       -2 0.17533845E-01 0.57076814E+03</pdfrwt>
<totfact> 0.10752234E+03</totfact>
</mgrwt>
</event>
<event>
 5    0  0.5719562E-003  0.7009042E+03  0.7546771E-02  0.9715687E-01
         -2   -1    0    0    0  501 -0.00000000000E+00  0.00000000000E+00  0.73202942726E+02  0.73202942726E+02  0.00000000000E+00 0.  1.
          2   -1    0    0  502    0  0.00000000000E+00 -0.00000000000E+00 -0.16777557618E+04  0.16777557618E+04  0.00000000000E+00 0. -1.
         25    1    1    2    0    0 -0.22524488629E+03 -0.14929068498E+03 -0.84986249045E+03  0.90050775683E+03  0.12500000000E+03 0.  0.
          3    1    1    2  502    0  0.10314803676E+03 -0.19630956470E+02 -0.51360943735E+02  0.11688814517E+03  0.00000000000E+00 0.  1.
         -3    1    1    2    0  501  0.12209684953E+03  0.16892164145E+03 -0.70332938485E+03  0.73356280249E+03  0.00000000000E+00 0. -1.
<mgrwt>
<rscale>  4 0.70090416E+03</rscale>
<asrwt>0</asrwt>
<pdfrwt beam="1">  1        2 0.25811624E+00 0.70090416E+03</pdfrwt>
<pdfrwt beam="2">  1       -2 0.11261992E-01 0.70090416E+03</pdfrwt>
<totfact> 0.58097051E+02</totfact>
</mgrwt>
</event>
<event>
 5    0  0.5719562E-003  0.4993915E+03  0.7546771E-02  0.1013938E+00
         -2   -1    0    0    0  501 -0.00000000000E+00  0.00000000000E+00  0.62069228632E+02  0.62069228632E+02  0.00000000000E+00 0. -1.
          2   -1    0    0  502    0  0.00000000000E+00 -0.00000000000E+00 -0.10044908710E+04  0.10044908710E+04  0.00000000000E+00 0.  1.
         25    1    1    2    0    0 -0.17260395057E+03  0.13499581923E+03 -0.39059154801E+03  0.46497607717E+03  0.12500000000E+03 0.  0.
          2    1    1    2  502    0  0.14761545264E+03 -0.93176179093E+02 -0.50374541319E+03  0.53313372011E+03  0.00000000000E+00 0. -1.
         -2    1    1    2    0  501  0.24988497930E+02 -0.41819640142E+02 -0.48084681199E+02  0.68450302383E+02  0.00000000000E+00 0.  1.
<mgrwt>
<rscale>  4 0.49939152E+03</rscale>
<asrwt>0</asrwt>
<pdfrwt beam="1">  1        2 0.15453705E+00 0.49939152E+03</pdfrwt>
<pdfrwt beam="2">  1       -2 0.95491125E-02 0.49939152E+03</pdfrwt>
<totfact> 0.18629414E+03</totfact>
</mgrwt>
</event>
<event>
 5    0  0.5719562E-003  0.5109474E+03  0.7546771E-02  0.1010960E+00
         -4   -1    0    0    0  501 -0.00000000000E+00  0.00000000000E+00  0.12967693713E+04  0.12967693713E+04  0.00000000000E+00 0. -1.
          4   -1    0    0  502    0  0.00000000000E+00 -0.00000000000E+00 -0.50330305709E+02  0.50330305709E+02  0.00000000000E+00 0.  1.
         25    1    1    2    0    0  0.69046537002E+02  0.18975945592E+03  0.98607329760E+03  0.10142690095E+04  0.12500000000E+03 0.  0.
          2    1    1    2  502    0 -0.30916110472E+02 -0.41420010044E+02  0.89620856628E+02  0.10345685604E+03  0.00000000000E+00 0. -1.
         -2    1    1    2    0  501 -0.38130426530E+02 -0.14833944588E+03  0.17074491135E+03  0.22937381146E+03  0.00000000000E+00 0.  1.
<mgrwt>
<rscale>  4 0.51094735E+03</rscale>
<asrwt>0</asrwt>
<pdfrwt beam="1">  1        4 0.77431249E-02 0.51094735E+03</pdfrwt>
<pdfrwt beam="2">  1       -4 0.19950296E+00 0.51094735E+03</pdfrwt>
<totfact> 0.32414156E+01</totfact>
</mgrwt>
</event>
<event>
 5    0  0.5719562E-003  0.5047619E+03  0.7546771E-02  0.1012543E+00
         -1   -1    0    0    0  501 -0.00000000000E+00  0.00000000000E+00  0.95964006696E+03  0.95964006696E+03  0.00000000000E+00 0.  1.
          1   -1    0    0  502    0  0.00000000000E+00 -0.00000000000E+00 -0.66375040674E+02  0.66375040674E+02  0.00000000000E+00 0. -1.
         25    1    1    2    0    0 -0.73943118176E+02  0.19058883551E+03  0.23914465638E+03  0.33853634313E+03  0.12500000000E+03 0.  0.
          3    1    1    2  502    0  0.21884954968E+02 -0.12779457696E+03  0.41993761984E+03  0.43949745131E+03  0.00000000000E+00 0.  1.
         -3    1    1    2    0  501  0.52058163208E+02 -0.62794258542E+02  0.23418275007E+03  0.24798131319E+03  0.00000000000E+00 0. -1.
<mgrwt>
<rscale>  4 0.50476192E+03</rscale>
<asrwt>0</asrwt>
<pdfrwt beam="1">  1        1 0.10211545E-01 0.50476192E+03</pdfrwt>
<pdfrwt beam="2">  1       -1 0.14763692E+00 0.50476192E+03</pdfrwt>
<totfact> 0.24336322E+02</totfact>
</mgrwt>
</event>
<event>
 5    0  0.5719562E-003  0.9246673E+03  0.7546771E-02  0.9395261E-01
         -2   -1    0    0    0  501 -0.00000000000E+00  0.00000000000E+00  0.82791155626E+03  0.82791155626E+03  0.00000000000E+00 0.  1.
          2   -1    0    0  502    0  0.00000000000E+00 -0.00000000000E+00 -0.25818266425E+03  0.25818266425E+03  0.00000000000E+00 0. -1.
         25    1    1    2    0    0  0.27610043127E+03  0.18770109183E+03  0.26753556228E+03  0.44571675435E+03  0.12500000000E+03 0.  0.
          4    1    1    2  502    0 -0.27756081283E+03  0.84539682855E+02  0.18406831499E+03  0.34361040057E+03  0.00000000000E+00 0.  1.
         -4    1    1    2    0  501  0.14603815596E+01 -0.27224077468E+03  0.11812501474E+03  0.29676706560E+03  0.00000000000E+00 0. -1.
<mgrwt>
<rscale>  4 0.92466732E+03</rscale>
<asrwt>0</asrwt>
<pdfrwt beam="1">  1        2 0.39720410E-01 0.92466732E+03</pdfrwt>
<pdfrwt beam="2">  1       -2 0.12737101E+00 0.92466732E+03</pdfrwt>
<totfact> 0.59461183E+01</totfact>
</mgrwt>
</event>
<event>
 5    0  0.5719562E-003  0.5038327E+03  0.7546771E-02  0.1012783E+00
          1   -1    0    0  502    0  0.00000000000E+00  0.00000000000E+00  0.47756402876E+03  0.47756402876E+03  0.00000000000E+00 0.  1.
         -1   -1    0    0    0  501 -0.00000000000E+00 -0.00000000000E+00 -0.13288654835E+03  0.13288654835E+03  0.00000000000E+00 0. -1.
         25    1    1    2    0    0 -0.18572227220E+03 -0.14126194331E+03  0.15963190084E+03  0.30911978711E+03  0.12500000000E+03 0.  0.
          3    1    1    2  502    0  0.12753656274E+03  0.10052507256E+03  0.10077418970E+03  0.19111855576E+03  0.00000000000E+00 0.  1.
         -3    1    1    2    0  501  0.58185709460E+02  0.40736870749E+02  0.84271389874E+02  0.11021223423E+03  0.00000000000E+00 0. -1.
<mgrwt>
<rscale>  4 0.50383265E+03</rscale>
<asrwt>0</asrwt>
<pdfrwt beam="1">  1        1 0.73471388E-01 0.50383265E+03</pdfrwt>
<pdfrwt beam="2">  1       -1 0.20444085E-01 0.50383265E+03</pdfrwt>
<totfact> 0.93476960E+02</totfact>
</mgrwt>
</event>
<event>
 5    0  0.5719562E-003  0.5094532E+03  0.7546771E-02  0.1011341E+00
         -2   -1    0    0    0  501 -0.00000000000E+00  0.00000000000E+00  0.22683013503E+03  0.22683013503E+03  0.00000000000E+00 0. -1.
          2   -1    0    0  502    0  0.00000000000E+00 -0.00000000000E+00 -0.28605392019E+03  0.28605392019E+03  0.00000000000E+00 0.  1.
         25    1    1    2    0    0  0.16542188458E+03  0.12261268920E+03 -0.27754470063E+02  0.24247387913E+03  0.12500000000E+03 0.  0.
          4    1    1    2  502    0 -0.67850776425E+02 -0.71863869446E+02 -0.10018286744E+03  0.14072935202E+03  0.00000000000E+00 0.  1.
         -4    1    1    2    0  501 -0.97571108158E+02 -0.50748819752E+02  0.68713552346E+02  0.12968082406E+03  0.00000000000E+00 0. -1.
<mgrwt>
<rscale>  4 0.50945323E+03</rscale>
<asrwt>0</asrwt>
<pdfrwt beam="1">  1        2 0.44008295E-01 0.50945323E+03</pdfrwt>
<pdfrwt beam="2">  1       -2 0.34896944E-01 0.50945323E+03</pdfrwt>
<totfact> 0.89448659E+02</totfact>
</mgrwt>
</event>
<event>
 5    0  0.5719562E-003  0.7978530E+03  0.7546771E-02  0.9563130E-01
         -1   -1    0    0    0  501 -0.00000000000E+00  0.00000000000E+00  0.45542189043E+03  0.45542189043E+03  0.00000000000E+00 0. -1.
          1   -1    0    0  502    0  0.00000000000E+00 -0.00000000000E+00 -0.34943939956E+03  0.34943939956E+03  0.00000000000E+00 0.  1.
         25    1    1    2    0    0  0.21309822685E+03 -0.23635771504E+03  0.41176630987E+02  0.34437819136E+03  0.12500000000E+03 0.  0.
          2    1    1    2  502    0 -0.11533214548E+03  0.16811804835E+03 -0.12294372985E+03  0.23807633791E+03  0.00000000000E+00 0.  1.
         -2    1    1    2    0  501 -0.97766081363E+02  0.68239666687E+02  0.18774958973E+03  0.22240676073E+03  0.00000000000E+00 0. -1.
<mgrwt>
<rscale>  4 0.79785300E+03</rscale>
<asrwt>0</asrwt>
<pdfrwt beam="1">  1        1 0.53759908E-01 0.79785300E+03</pdfrwt>
<pdfrwt beam="2">  1       -1 0.70064906E-01 0.79785300E+03</pdfrwt>
<totfact> 0.14964032E+02</totfact>
</mgrwt>
</event>
<event>
 5    0  0.5719562E-003  0.1057870E+04  0.7546771E-02  0.9247256E-01
         -2   -1    0    0    0  501 -0.00000000000E+00  0.00000000000E+00  0.52044238461E+03  0.52044238461E+03  0.00000000000E+00 0.  1.
          2   -1    0    0  502    0  0.00000000000E+00 -0.00000000000E+00 -0.53756652066E+03  0.53756652066E+03  0.00000000000E+00 0. -1.
         25    1    1    2    0    0 -0.22245476458E+02 -0.43300324395E+03 -0.25753331666E+03  0.51955276891E+03  0.12500000000E+03 0.  0.
          1    1    1    2  502    0  0.11455832415E+02 -0.20343536022E+02 -0.34013332410E+01  0.23593741162E+02  0.00000000000E+00 0. -1.
         -1    1    1    2    0  501  0.10789644043E+02  0.45334677997E+03  0.24381051385E+03  0.51486239520E+03  0.00000000000E+00 0.  1.
<mgrwt>
<rscale>  4 0.10578703E+04</rscale>
<asrwt>0</asrwt>
<pdfrwt beam="1">  1        2 0.82702541E-01 0.10578703E+04</pdfrwt>
<pdfrwt beam="2">  1       -2 0.80068059E-01 0.10578703E+04</pdfrwt>
<totfact> 0.77720822E+01</totfact>
</mgrwt>
</event>
<event>
 5    0  0.5719562E-003  0.5860240E+03  0.7546771E-02  0.9934834E-01
          2   -1    0    0  502    0  0.00000000000E+00  0.00000000000E+00  0.71636835036E+03  0.71636835036E+03  0.00000000000E+00 0.  1.
         -2   -1    0    0    0  501 -0.00000000000E+00 -0.00000000000E+00 -0.11984901022E+03  0.11984901022E+03  0.00000000000E+00 0. -1.
         25    1    1    2    0    0  0.17956651925E+03  0.12089945558E+03  0.23564378319E+03  0.34353137521E+03  0.12500000000E+03 0.  0.
          1    1    1    2  502    0 -0.16403881165E+03 -0.17892135046E+01  0.33021079582E+03  0.36871547660E+03  0.00000000000E+00 0.  1.
         -1    1    1    2    0  501 -0.15527707597E+02 -0.11911024208E+03  0.30664761129E+02  0.12397050877E+03  0.00000000000E+00 0. -1.
<mgrwt>
<rscale>  4 0.58602402E+03</rscale>
<asrwt>0</asrwt>
<pdfrwt beam="1">  1        2 0.11021051E+00 0.58602402E+03</pdfrwt>
<pdfrwt beam="2">  1       -2 0.18438310E-01 0.58602402E+03</pdfrwt>
<totfact> 0.98293258E+02</totfact>
</mgrwt>
</event>
<event>
 5    0  0.5719562E-003  0.5589168E+03  0.7546771E-02  0.9994508E-01
         -2   -1    0    0    0  501 -0.00000000000E+00  0.00000000000E+00  0.58092849623E+02  0.58092849623E+02  0.00000000000E+00 0.  1.
          2   -1    0    0  502    0  0.00000000000E+00 -0.00000000000E+00 -0.13443480759E+04  0.13443480759E+04  0.00000000000E+00 0. -1.
         25    1    1    2    0    0 -0.24996584287E+03 -0.54518047698E+02 -0.71112982949E+03  0.76601943482E+03  0.12500000000E+03 0.  0.
          2    1    1    2  502    0  0.43589467625E+02  0.13752038515E+01 -0.35478637626E+02  0.56219806130E+02  0.00000000000E+00 0.  1.
         -2    1    1    2    0  501  0.20637637525E+03  0.53142843846E+02 -0.53964675919E+03  0.58020168461E+03  0.00000000000E+00 0. -1.
<mgrwt>
<rscale>  4 0.55891685E+03</rscale>
<asrwt>0</asrwt>
<pdfrwt beam="1">  1        2 0.20682276E+00 0.55891685E+03</pdfrwt>
<pdfrwt beam="2">  1       -2 0.89373623E-02 0.55891685E+03</pdfrwt>
<totfact> 0.13026343E+03</totfact>
</mgrwt>
</event>
<event>
 5    0  0.5719562E-003  0.7777972E+03  0.7546771E-02  0.9592723E-01
          2   -1    0    0  502    0  0.00000000000E+00  0.00000000000E+00  0.93362570665E+03  0.93362570665E+03  0.00000000000E+00 0. -1.
         -2   -1    0    0    0  501 -0.00000000000E+00 -0.00000000000E+00 -0.16199437424E+03  0.16199437424E+03  0.00000000000E+00 0.  1.
         25    1    1    2    0    0 -0.13944025335E+03 -0.29193303407E+03  0.39284816825E+03  0.52404500182E+03  0.12500000000E+03 0.  0.
          1    1    1    2  502    0 -0.53585140379E+01  0.49987580739E+02  0.26133586833E+03  0.26612761596E+03  0.00000000000E+00 0. -1.
         -1    1    1    2    0  501  0.14479876739E+03  0.24194545333E+03  0.11744729583E+03  0.30544746311E+03  0.00000000000E+00 0.  1.
<mgrwt>
<rscale>  4 0.77779718E+03</rscale>
<asrwt>0</asrwt>
<pdfrwt beam="1">  1        2 0.14363472E+00 0.77779718E+03</pdfrwt>
<pdfrwt beam="2">  1       -2 0.24922212E-01 0.77779718E+03</pdfrwt>
<totfact> 0.40328857E+02</totfact>
</mgrwt>
</event>
<event>
 5    0  0.5719562E-003  0.6859180E+03  0.7546771E-02  0.9741622E-01
          2   -1    0    0  502    0  0.00000000000E+00  0.00000000000E+00  0.11986385334E+04  0.11986385334E+04  0.00000000000E+00 0.  1.
         -2   -1    0    0    0  501 -0.00000000000E+00 -0.00000000000E+00 -0.98128743016E+02  0.98128743016E+02  0.00000000000E+00 0. -1.
         25    1    1    2    0    0 -0.20084028806E+03  0.31578191652E+01  0.70333981911E+03  0.74206380741E+03  0.12500000000E+03 0.  0.
          1    1    1    2  502    0  0.20174183991E+03  0.57844603899E+02  0.43495545396E+03  0.48294100582E+03  0.00000000000E+00 0.  1.
         -1    1    1    2    0  501 -0.90155185208E+00 -0.61002423065E+02 -0.37785482708E+02  0.71762463161E+02  0.00000000000E+00 0. -1.
<mgrwt>
<rscale>  4 0.68591805E+03</rscale>
<asrwt>0</asrwt>
<pdfrwt beam="1">  1        2 0.18440592E+00 0.68591805E+03</pdfrwt>
<pdfrwt beam="2">  1       -2 0.15096731E-01 0.68591805E+03</pdfrwt>
<totfact> 0.66412541E+02</totfact>
</mgrwt>
</event>
<event>
 5    0  0.5719562E-003  0.6282098E+03  0.7546771E-02  0.9848549E-01
          2   -1    0    0  502    0  0.00000000000E+00  0.00000000000E+00  0.31590885629E+04  0.31590885629E+04  0.00000000000E+00 0.  1.
         -2   -1    0    0    0  501 -0.00000000000E+00 -0.00000000000E+00 -0.31231123298E+02  0.31231123298E+02  0.00000000000E+00 0. -1.
         25    1    1    2    0    0 -0.22499251418E+03  0.13463567751E+03  0.21206246020E+04  0.21404256819E+04  0.12500000000E+03 0.  0.
          2    1    1    2  502    0  0.50421258648E+02 -0.14018112990E+01  0.41864387379E+03  0.42167162752E+03  0.00000000000E+00 0.  1.
         -2    1    1    2    0  501  0.17457125553E+03 -0.13323386621E+03  0.58858896381E+03  0.62822237678E+03  0.00000000000E+00 0. -1.
<mgrwt>
<rscale>  4 0.62820979E+03</rscale>
<asrwt>0</asrwt>
<pdfrwt beam="1">  1        2 0.48601337E+00 0.62820979E+03</pdfrwt>
<pdfrwt beam="2">  1       -2 0.48047907E-02 0.62820979E+03</pdfrwt>
<totfact> 0.32609631E+02</totfact>
</mgrwt>
</event>
<event>
 5    0  0.5719562E-003  0.1051616E+04  0.7546771E-02  0.9253678E-01
          2   -1    0    0  502    0  0.00000000000E+00  0.00000000000E+00  0.12001400649E+04  0.12001400649E+04  0.00000000000E+00 0. -1.
         -2   -1    0    0    0  501 -0.00000000000E+00 -0.00000000000E+00 -0.23036799322E+03  0.23036799322E+03  0.00000000000E+00 0.  1.
         25    1    1    2    0    0 -0.18621677749E+03 -0.24730155269E+03  0.10394173441E+04  0.10917179862E+04  0.12500000000E+03 0.  0.
          2    1    1    2  502    0  0.18085645450E+03  0.21732991983E+03 -0.95926847352E+02  0.29856877136E+03  0.00000000000E+00 0.  1.
         -2    1    1    2    0  501  0.53603229912E+01  0.29971632859E+02  0.26281574984E+02  0.40221300606E+02  0.00000000000E+00 0. -1.
<mgrwt>
<rscale>  4 0.10516156E+04</rscale>
<asrwt>0</asrwt>
<pdfrwt beam="1">  1        2 0.18463693E+00 0.10516156E+04</pdfrwt>
<pdfrwt beam="2">  1       -2 0.35441230E-01 0.10516156E+04</pdfrwt>
<totfact> 0.14085280E+02</totfact>
</mgrwt>
</event>
<event>
 5    0  0.5719562E-003  0.4995496E+03  0.7546771E-02  0.1013897E+00
         -2   -1    0    0    0  501 -0.00000000000E+00  0.00000000000E+00  0.27564206479E+02  0.27564206479E+02  0.00000000000E+00 0.  1.
          2   -1    0    0  502    0  0.00000000000E+00 -0.00000000000E+00 -0.22633500655E+04  0.22633500655E+04  0.00000000000E+00 0. -1.
         25    1    1    2    0    0  0.21687889832E+03  0.77309379281E+02 -0.11845439241E+04  0.12131704352E+04  0.12500000000E+03 0.  0.
          1    1    1    2  502    0 -0.49745584138E+02 -0.10616045332E+02 -0.14123159004E+03  0.15011224329E+03  0.00000000000E+00 0.  1.
         -1    1    1    2    0  501 -0.16713331418E+03 -0.66693333950E+02 -0.91001034488E+03  0.92763159352E+03  0.00000000000E+00 0. -1.
<mgrwt>
<rscale>  4 0.49954959E+03</rscale>
<asrwt>0</asrwt>
<pdfrwt beam="1">  1        2 0.34820767E+00 0.49954959E+03</pdfrwt>
<pdfrwt beam="2">  1       -2 0.42406476E-02 0.49954959E+03</pdfrwt>
<totfact> 0.13274292E+03</totfact>
</mgrwt>
</event>
<event>
 5    0  0.5719562E-003  0.6686722E+03  0.7546771E-02  0.9772360E-01
          2   -1    0    0  502    0  0.00000000000E+00  0.00000000000E+00  0.16463245506E+04  0.16463245506E+04  0.00000000000E+00 0.  1.
         -2   -1    0    0    0  501 -0.00000000000E+00 -0.00000000000E+00 -0.67897071913E+02  0.67897071913E+02  0.00000000000E+00 0. -1.
         25    1    1    2    0    0 -0.20909339008E+03  0.10563892511E+03  0.13615566115E+04  0.13872061976E+04  0.12500000000E+03 0.  0.
          2    1    1    2  502    0  0.18753923818E+03 -0.67153730309E+02  0.19047508889E+03  0.27561086488E+03  0.00000000000E+00 0. -1.
         -2    1    1    2    0  501  0.21554151904E+02 -0.38485194798E+02  0.26395778300E+02  0.51404560060E+02  0.00000000000E+00 0.  1.
<mgrwt>
<rscale>  4 0.66867217E+03</rscale>
<asrwt>0</asrwt>
<pdfrwt beam="1">  1        2 0.25328067E+00 0.66867217E+03</pdfrwt>
<pdfrwt beam="2">  1       -2 0.10445705E-01 0.66867217E+03</pdfrwt>
<totfact> 0.68492790E+02</totfact>
</mgrwt>
</event>
<event>
 5    0  0.5719562E-003  0.5020941E+03  0.7546771E-02  0.1013234E+00
          2   -1    0    0  502    0  0.00000000000E+00  0.00000000000E+00  0.25113777827E+03  0.25113777827E+03  0.00000000000E+00 0.  1.
         -2   -1    0    0    0  501 -0.00000000000E+00 -0.00000000000E+00 -0.25095637233E+03  0.25095637233E+03  0.00000000000E+00 0. -1.
         25    1    1    2    0    0 -0.79539274568E+01 -0.20083284884E+03 -0.17116514198E+02  0.23730797120E+03  0.12500000000E+03 0.  0.
          2    1    1    2  502    0 -0.80777996864E+01  0.77400248870E+02  0.91311063748E+02  0.11997399608E+03  0.00000000000E+00 0. -1.
         -2    1    1    2    0  501  0.16031727143E+02  0.12343259997E+03 -0.74013143612E+02  0.14481218332E+03  0.00000000000E+00 0.  1.
<mgrwt>
<rscale>  4 0.50209412E+03</rscale>
<asrwt>0</asrwt>
<pdfrwt beam="1">  1        2 0.38636581E-01 0.50209412E+03</pdfrwt>
<pdfrwt beam="2">  1       -2 0.38608673E-01 0.50209412E+03</pdfrwt>
<totfact> 0.85138140E+02</totfact>
</mgrwt>
</event>
<event>
 5    0  0.5719562E-003  0.5351580E+03  0.7546771E-02  0.1004989E+00
          2   -1    0    0  502    0  0.00000000000E+00  0.00000000000E+00  0.18512865899E+04  0.18512865899E+04  0.00000000000E+00 0.  1.
         -2   -1    0    0    0  501 -0.00000000000E+00 -0.00000000000E+00 -0.38675003207E+02  0.38675003207E+02  0.00000000000E+00 0. -1.
         25    1    1    2    0    0  0.17647441034E+02 -0.23074017158E+03  0.60610581955E+03  0.66071304168E+03  0.12500000000E+03 0.  0.
          1    1    1    2  502    0 -0.26570064126E+02  0.20320855297E+03  0.10057546483E+04  0.10264219878E+04  0.00000000000E+00 0.  1.
         -1    1    1    2    0  501  0.89226230924E+01  0.27531618610E+02  0.20075111883E+03  0.20282656369E+03  0.00000000000E+00 0. -1.
<mgrwt>
<rscale>  4 0.53515798E+03</rscale>
<asrwt>0</asrwt>
<pdfrwt beam="1">  1        2 0.28481325E+00 0.53515798E+03</pdfrwt>
<pdfrwt beam="2">  1       -2 0.59500019E-02 0.53515798E+03</pdfrwt>
<totfact> 0.13103240E+03</totfact>
</mgrwt>
</event>
<event>
 5    0  0.5719562E-003  0.4777362E+03  0.7546771E-02  0.1019759E+00
          2   -1    0    0  502    0  0.00000000000E+00  0.00000000000E+00  0.15433327525E+03  0.15433327525E+03  0.00000000000E+00 0.  1.
         -2   -1    0    0    0  501 -0.00000000000E+00 -0.00000000000E+00 -0.36970625534E+03  0.36970625534E+03  0.00000000000E+00 0. -1.
         25    1    1    2    0    0  0.19385156709E+03  0.93981564003E+02 -0.15870097981E+03  0.29533365103E+03  0.12500000000E+03 0.  0.
          4    1    1    2  502    0 -0.15895534594E+03 -0.53187813732E+02 -0.47748579571E+02  0.17428617956E+03  0.00000000000E+00 0. -1.
         -4    1    1    2    0  501 -0.34896221147E+02 -0.40793750272E+02 -0.89234206974E+01  0.54419700004E+02  0.00000000000E+00 0.  1.
<mgrwt>
<rscale>  4 0.47773623E+03</rscale>
<asrwt>0</asrwt>
<pdfrwt beam="1">  1        2 0.23743581E-01 0.47773623E+03</pdfrwt>
<pdfrwt beam="2">  1       -2 0.56877886E-01 0.47773623E+03</pdfrwt>
<totfact> 0.67799365E+02</totfact>
</mgrwt>
</event>
<event>
 5    0  0.5719562E-003  0.8504347E+03  0.7546771E-02  0.9489754E-01
         -1   -1    0    0    0  501 -0.00000000000E+00  0.00000000000E+00  0.29611919948E+03  0.29611919948E+03  0.00000000000E+00 0. -1.
          1   -1    0    0  502    0  0.00000000000E+00 -0.00000000000E+00 -0.61059807961E+03  0.61059807961E+03  0.00000000000E+00 0.  1.
         25    1    1    2    0    0  0.25199522104E+03 -0.58547954095E+01 -0.35645281224E+03  0.45411394761E+03  0.12500000000E+03 0.  0.
          2    1    1    2  502    0 -0.25889660076E+03 -0.13213641341E+03  0.93208031599E+02  0.30524616097E+03  0.00000000000E+00 0.  1.
         -2    1    1    2    0  501  0.69013797130E+01  0.13799120882E+03 -0.51234099492E+02  0.14735717052E+03  0.00000000000E+00 0. -1.
<mgrwt>
<rscale>  4 0.85043475E+03</rscale>
<asrwt>0</asrwt>
<pdfrwt beam="1">  1        1 0.93938165E-01 0.85043475E+03</pdfrwt>
<pdfrwt beam="2">  1       -1 0.45556800E-01 0.85043475E+03</pdfrwt>
<totfact> 0.16129135E+02</totfact>
</mgrwt>
</event>
<event>
 5    0  0.5719562E-003  0.5408972E+03  0.7546771E-02  0.1003623E+00
          3   -1    0    0  502    0  0.00000000000E+00  0.00000000000E+00  0.10818792803E+03  0.10818792803E+03  0.00000000000E+00 0. -1.
         -3   -1    0    0    0  501 -0.00000000000E+00 -0.00000000000E+00 -0.67606838788E+03  0.67606838788E+03  0.00000000000E+00 0.  1.
         25    1    1    2    0    0  0.14663017504E+03 -0.14503265536E+03 -0.51221248679E+03  0.56614619223E+03  0.12500000000E+03 0.  0.
          3    1    1    2  502    0 -0.11663383520E+03  0.11083008374E+03 -0.23984440441E+02  0.16267148601E+03  0.00000000000E+00 0. -1.
         -3    1    1    2    0  501 -0.29996339832E+02  0.34202571614E+02 -0.31683532616E+02  0.55438637675E+02  0.00000000000E+00 0.  1.
<mgrwt>
<rscale>  4 0.54089717E+03</rscale>
<asrwt>0</asrwt>
<pdfrwt beam="1">  1        3 0.16644297E-01 0.54089717E+03</pdfrwt>
<pdfrwt beam="2">  1       -3 0.10401052E+00 0.54089717E+03</pdfrwt>
<totfact> 0.66543221E+01</totfact>
</mgrwt>
</event>
<event>
 5    0  0.5719562E-003  0.5570925E+03  0.7546771E-02  0.9998655E-01
          1   -1    0    0  502    0  0.00000000000E+00  0.00000000000E+00  0.19968723982E+04  0.19968723982E+04  0.00000000000E+00 0. -1.
         -1   -1    0    0    0  501 -0.00000000000E+00 -0.00000000000E+00 -0.38854762859E+02  0.38854762859E+02  0.00000000000E+00 0.  1.
         25    1    1    2    0    0  0.88843812789E+02  0.20166104845E+03  0.15318941737E+04  0.15527025346E+04  0.12500000000E+03 0.  0.
          4    1    1    2  502    0 -0.67727537566E+02 -0.18742266594E+03  0.35005753666E+03  0.40280833411E+03  0.00000000000E+00 0.  1.
         -4    1    1    2    0  501 -0.21116275223E+02 -0.14238382502E+02  0.76065924957E+02  0.80216292330E+02  0.00000000000E+00 0. -1.
<mgrwt>
<rscale>  4 0.55709246E+03</rscale>
<asrwt>0</asrwt>
<pdfrwt beam="1">  1        1 0.30721106E+00 0.55709246E+03</pdfrwt>
<pdfrwt beam="2">  1       -1 0.59776574E-02 0.55709246E+03</pdfrwt>
<totfact> 0.44106263E+02</totfact>
</mgrwt>
</event>
<event>
 5    0  0.5719562E-003  0.4687043E+03  0.7546771E-02  0.1022287E+00
         -2   -1    0    0    0  501 -0.00000000000E+00  0.00000000000E+00  0.43181899817E+02  0.43181899817E+02  0.00000000000E+00 0.  1.
          2   -1    0    0  502    0  0.00000000000E+00 -0.00000000000E+00 -0.12718506075E+04  0.12718506075E+04  0.00000000000E+00 0. -1.
         25    1    1    2    0    0  0.21073158720E+03  0.40949570524E+02 -0.66441687843E+03  0.70933733689E+03  0.12500000000E+03 0.  0.
          3    1    1    2  502    0 -0.26439466366E+02 -0.20073603380E+02 -0.62641004404E+02  0.70893514280E+02  0.00000000000E+00 0.  1.
         -3    1    1    2    0  501 -0.18429212084E+03 -0.20875967144E+02 -0.50161082488E+03  0.53480165618E+03  0.00000000000E+00 0. -1.
<mgrwt>
<rscale>  4 0.46870428E+03</rscale>
<asrwt>0</asrwt>
<pdfrwt beam="1">  1        2 0.19566931E+00 0.46870428E+03</pdfrwt>
<pdfrwt beam="2">  1       -2 0.66433697E-02 0.46870428E+03</pdfrwt>
<totfact> 0.22972220E+03</totfact>
</mgrwt>
</event>
<event>
 5    0  0.5719562E-003  0.5721877E+03  0.7546771E-02  0.9964849E-01
         -2   -1    0    0    0  501 -0.00000000000E+00  0.00000000000E+00  0.27143377373E+02  0.27143377373E+02  0.00000000000E+00 0. -1.
          2   -1    0    0  502    0  0.00000000000E+00 -0.00000000000E+00 -0.30154568624E+04  0.30154568624E+04  0.00000000000E+00 0.  1.
         25    1    1    2    0    0  0.23471313815E+03  0.61404776745E+02 -0.20775320956E+04  0.20953819251E+04  0.12500000000E+03 0.  0.
          1    1    1    2  502    0 -0.20078561501E+03 -0.85856000164E+02 -0.76451573603E+03  0.79509145801E+03  0.00000000000E+00 0. -1.
         -1    1    1    2    0  501 -0.33927523137E+02  0.24451223419E+02 -0.14626565345E+03  0.15212685671E+03  0.00000000000E+00 0.  1.
<mgrwt>
<rscale>  4 0.57218767E+03</rscale>
<asrwt>0</asrwt>
<pdfrwt beam="1">  1        2 0.46391642E+00 0.57218767E+03</pdfrwt>
<pdfrwt beam="2">  1       -2 0.41759044E-02 0.57218767E+03</pdfrwt>
<totfact> 0.50012324E+02</totfact>
</mgrwt>
</event>
<event>
 5    0  0.5719562E-003  0.4895042E+03  0.7546771E-02  0.1016555E+00
         -2   -1    0    0    0  501 -0.00000000000E+00  0.00000000000E+00  0.49093928719E+02  0.49093928719E+02  0.00000000000E+00 0. -1.
          2   -1    0    0  502    0  0.00000000000E+00 -0.00000000000E+00 -0.12201834812E+04  0.12201834812E+04  0.00000000000E+00 0.  1.
         25    1    1    2    0    0 -0.22232668547E+03 -0.38821053842E+02 -0.61222382948E+03  0.66436379091E+03  0.12500000000E+03 0.  0.
          1    1    1    2  502    0  0.22504614612E+02  0.16015143894E+02 -0.41705167274E+02  0.50022629780E+02  0.00000000000E+00 0. -1.
         -1    1    1    2    0  501  0.19982207085E+03  0.22805909948E+02 -0.51716055578E+03  0.55489098928E+03  0.00000000000E+00 0.  1.
<mgrwt>
<rscale>  4 0.48950424E+03</rscale>
<asrwt>0</asrwt>
<pdfrwt beam="1">  1        2 0.18772053E+00 0.48950424E+03</pdfrwt>
<pdfrwt beam="2">  1       -2 0.75529123E-02 0.48950424E+03</pdfrwt>
<totfact> 0.20093050E+03</totfact>
</mgrwt>
</event>
<event>
 5    0  0.5719562E-003  0.5758646E+03  0.7546771E-02  0.9956784E-01
          2   -1    0    0  502    0  0.00000000000E+00  0.00000000000E+00  0.12458355631E+04  0.12458355631E+04  0.00000000000E+00 0.  1.
         -2   -1    0    0    0  501 -0.00000000000E+00 -0.00000000000E+00 -0.66545708276E+02  0.66545708276E+02  0.00000000000E+00 0. -1.
         25    1    1    2    0    0  0.14548186459E+03 -0.16280620815E+03  0.96779729109E+03  0.99996371483E+03  0.12500000000E+03 0.  0.
          4    1    1    2  502    0 -0.60889770766E+02  0.49714485197E+02  0.12229490466E+03  0.14537928989E+03  0.00000000000E+00 0.  1.
         -4    1    1    2    0  501 -0.84592093828E+02  0.11309172295E+03  0.89197659033E+02  0.16703826662E+03  0.00000000000E+00 0. -1.
<mgrwt>
<rscale>  4 0.57586460E+03</rscale>
<asrwt>0</asrwt>
<pdfrwt beam="1">  1        2 0.19166699E+00 0.57586460E+03</pdfrwt>
<pdfrwt beam="2">  1       -2 0.10237802E-01 0.57586460E+03</pdfrwt>
<totfact> 0.11903224E+03</totfact>
</mgrwt>
</event>
<event>
 5    0  0.5719562E-003  0.6290912E+03  0.7546771E-02  0.9846824E-01
         -1   -1    0    0    0  501 -0.00000000000E+00  0.00000000000E+00  0.51998786543E+02  0.51998786543E+02  0.00000000000E+00 0.  1.
          1   -1    0    0  502    0  0.00000000000E+00 -0.00000000000E+00 -0.19027161797E+04  0.19027161797E+04  0.00000000000E+00 0. -1.
         25    1    1    2    0    0  0.10820813513E+03 -0.20156022341E+03 -0.56313187998E+03  0.62054656427E+03  0.12500000000E+03 0.  0.
          1    1    1    2  502    0  0.19696385313E+02  0.21882930167E+03 -0.76997889591E+03  0.80071325143E+03  0.00000000000E+00 0. -1.
         -1    1    1    2    0  501 -0.12790452045E+03 -0.17269078258E+02 -0.51760661728E+03  0.53345515056E+03  0.00000000000E+00 0.  1.
<mgrwt>
<rscale>  4 0.62909119E+03</rscale>
<asrwt>0</asrwt>
<pdfrwt beam="1">  1        1 0.29272559E+00 0.62909119E+03</pdfrwt>
<pdfrwt beam="2">  1       -1 0.79998126E-02 0.62909119E+03</pdfrwt>
<totfact> 0.32242835E+02</totfact>
</mgrwt>
</event>
<event>
 5    0  0.5719562E-003  0.6727938E+03  0.7546771E-02  0.9764924E-01
          2   -1    0    0  502    0  0.00000000000E+00  0.00000000000E+00  0.29618243154E+03  0.29618243154E+03  0.00000000000E+00 0.  1.
         -2   -1    0    0    0  501 -0.00000000000E+00 -0.00000000000E+00 -0.38207147529E+03  0.38207147529E+03  0.00000000000E+00 0. -1.
         25    1    1    2    0    0  0.20396681808E+03  0.56080493432E+02  0.95997429207E+02  0.26379535826E+03  0.12500000000E+03 0.  0.
          4    1    1    2  502    0 -0.14322946564E+03 -0.97016989233E+02 -0.25683498753E+03  0.30966302144E+03  0.00000000000E+00 0. -1.
         -4    1    1    2    0  501 -0.60737352446E+02  0.40936495802E+02  0.74948514579E+02  0.10479552714E+03  0.00000000000E+00 0.  1.
<mgrwt>
<rscale>  4 0.67279375E+03</rscale>
<asrwt>0</asrwt>
<pdfrwt beam="1">  1        2 0.45566528E-01 0.67279375E+03</pdfrwt>
<pdfrwt beam="2">  1       -2 0.58780227E-01 0.67279375E+03</pdfrwt>
<totfact> 0.30420992E+02</totfact>
</mgrwt>
</event>
<event>
 5    0  0.5719562E-003  0.6885033E+03  0.7546771E-02  0.9737098E-01
         -2   -1    0    0    0  501 -0.00000000000E+00  0.00000000000E+00  0.83095172436E+03  0.83095172436E+03  0.00000000000E+00 0. -1.
          2   -1    0    0  502    0  0.00000000000E+00 -0.00000000000E+00 -0.14261861633E+03  0.14261861633E+03  0.00000000000E+00 0.  1.
         25    1    1    2    0    0  0.94449802913E+01  0.32063975940E+03  0.24528321396E+03  0.42271493705E+03  0.12500000000E+03 0.  0.
          1    1    1    2  502    0 -0.55716089165E+01 -0.27957845435E+03  0.34236650321E+03  0.44205200767E+03  0.00000000000E+00 0.  1.
         -1    1    1    2    0  501 -0.38733713748E+01 -0.41061305043E+02  0.10068339087E+03  0.10880339597E+03  0.00000000000E+00 0. -1.
<mgrwt>
<rscale>  4 0.68850326E+03</rscale>
<asrwt>0</asrwt>
<pdfrwt beam="1">  1        2 0.21941326E-01 0.68850326E+03</pdfrwt>
<pdfrwt beam="2">  1       -2 0.12783872E+00 0.68850326E+03</pdfrwt>
<totfact> 0.11687474E+02</totfact>
</mgrwt>
</event>
<event>
 5    0  0.5719562E-003  0.5487406E+03  0.7546771E-02  0.1001786E+00
         -1   -1    0    0    0  501 -0.00000000000E+00  0.00000000000E+00  0.20867987806E+03  0.20867987806E+03  0.00000000000E+00 0. -1.
          1   -1    0    0  502    0  0.00000000000E+00 -0.00000000000E+00 -0.36073939613E+03  0.36073939613E+03  0.00000000000E+00 0.  1.
         25    1    1    2    0    0 -0.72088303194E+02 -0.23080034459E+03  0.78675768665E+01  0.27230942196E+03  0.12500000000E+03 0.  0.
          3    1    1    2  502    0  0.13578370480E+02  0.93526460802E+02 -0.29731337274E+02  0.99073323510E+02  0.00000000000E+00 0. -1.
         -3    1    1    2    0  501  0.58509932715E+02  0.13727388379E+03 -0.13019575766E+03  0.19803652872E+03  0.00000000000E+00 0.  1.
<mgrwt>
<rscale>  4 0.54874057E+03</rscale>
<asrwt>0</asrwt>
<pdfrwt beam="1">  1        1 0.55498368E-01 0.54874057E+03</pdfrwt>
<pdfrwt beam="2">  1       -1 0.32104597E-01 0.54874057E+03</pdfrwt>
<totfact> 0.62839770E+02</totfact>
</mgrwt>
</event>
<event>
 5    0  0.5719562E-003  0.5846601E+03  0.7546771E-02  0.9937753E-01
         -1   -1    0    0    0  501 -0.00000000000E+00  0.00000000000E+00  0.52875787727E+02  0.52875787727E+02  0.00000000000E+00 0. -1.
          1   -1    0    0  502    0  0.00000000000E+00 -0.00000000000E+00 -0.16161810669E+04  0.16161810669E+04  0.00000000000E+00 0.  1.
         25    1    1    2    0    0  0.13692894372E+03 -0.16501920362E+03 -0.31490959776E+03  0.40096624291E+03  0.12500000000E+03 0.  0.
          3    1    1    2  502    0 -0.66198444571E+02  0.63973784640E+02 -0.69796892287E+03  0.70401384680E+03  0.00000000000E+00 0. -1.
         -3    1    1    2    0  501 -0.70730499151E+02  0.10104541898E+03 -0.55042675855E+03  0.56407676494E+03  0.00000000000E+00 0.  1.
<mgrwt>
<rscale>  4 0.58466006E+03</rscale>
<asrwt>0</asrwt>
<pdfrwt beam="1">  1        1 0.24864324E+00 0.58466006E+03</pdfrwt>
<pdfrwt beam="2">  1       -1 0.81347367E-02 0.58466006E+03</pdfrwt>
<totfact> 0.48964823E+02</totfact>
</mgrwt>
</event>
<event>
 5    0  0.5719562E-003  0.6172893E+03  0.7546771E-02  0.9870172E-01
         -2   -1    0    0    0  501 -0.00000000000E+00  0.00000000000E+00  0.10548630940E+03  0.10548630940E+03  0.00000000000E+00 0.  1.
          2   -1    0    0  502    0  0.00000000000E+00 -0.00000000000E+00 -0.90306995476E+03  0.90306995476E+03  0.00000000000E+00 0. -1.
         25    1    1    2    0    0 -0.22183413607E+03 -0.10249001630E+03 -0.62077106319E+03  0.67874612357E+03  0.12500000000E+03 0.  0.
          3    1    1    2  502    0  0.16775215498E+03  0.73339189929E+01 -0.92935232013E+02  0.19191542204E+03  0.00000000000E+00 0.  1.
         -3    1    1    2    0  501  0.54081981093E+02  0.95156097312E+02 -0.83877350149E+02  0.13789471854E+03  0.00000000000E+00 0. -1.
<mgrwt>
<rscale>  4 0.61728929E+03</rscale>
<asrwt>0</asrwt>
<pdfrwt beam="1">  1        2 0.13893383E+00 0.61728929E+03</pdfrwt>
<pdfrwt beam="2">  1       -2 0.16228664E-01 0.61728929E+03</pdfrwt>
<totfact> 0.90017223E+02</totfact>
</mgrwt>
</event>
<event>
 5    0  0.5719562E-003  0.8187220E+03  0.7546771E-02  0.9533306E-01
          1   -1    0    0  502    0  0.00000000000E+00  0.00000000000E+00  0.74183067957E+03  0.74183067957E+03  0.00000000000E+00 0. -1.
         -1   -1    0    0    0  501 -0.00000000000E+00 -0.00000000000E+00 -0.22589580792E+03  0.22589580792E+03  0.00000000000E+00 0.  1.
         25    1    1    2    0    0 -0.19592975790E+03  0.59855881287E+02 -0.59613557168E+02  0.24728520529E+03  0.12500000000E+03 0.  0.
          2    1    1    2  502    0  0.80496003576E+01 -0.65832241617E+02  0.52030717694E+03  0.52451714793E+03  0.00000000000E+00 0. -1.
         -2    1    1    2    0  501  0.18788015754E+03  0.59763603294E+01  0.55241251884E+02  0.19592413427E+03  0.00000000000E+00 0.  1.
<mgrwt>
<rscale>  4 0.81872203E+03</rscale>
<asrwt>0</asrwt>
<pdfrwt beam="1">  1        1 0.11412780E+00 0.81872203E+03</pdfrwt>
<pdfrwt beam="2">  1       -1 0.34753202E-01 0.81872203E+03</pdfrwt>
<totfact> 0.19766175E+02</totfact>
</mgrwt>
</event>
<event>
 5    0  0.5719562E-003  0.8039682E+03  0.7546771E-02  0.9554291E-01
         -3   -1    0    0    0  501 -0.00000000000E+00  0.00000000000E+00  0.41011624838E+03  0.41011624838E+03  0.00000000000E+00 0. -1.
          3   -1    0    0  502    0  0.00000000000E+00 -0.00000000000E+00 -0.39401324763E+03  0.39401324763E+03  0.00000000000E+00 0.  1.
         25    1    1    2    0    0 -0.25253545676E+03 -0.18343125242E+03 -0.29805077675E+02  0.33754188472E+03  0.12500000000E+03 0.  0.
          2    1    1    2  502    0  0.32730357690E+03  0.10505941145E+03 -0.11608726116E+02  0.34394748714E+03  0.00000000000E+00 0.  1.
         -2    1    1    2    0  501 -0.74768120140E+02  0.78371840966E+02  0.57516804545E+02  0.12264012415E+03  0.00000000000E+00 0. -1.
<mgrwt>
<rscale>  4 0.80396825E+03</rscale>
<asrwt>0</asrwt>
<pdfrwt beam="1">  1        3 0.60617422E-01 0.80396825E+03</pdfrwt>
<pdfrwt beam="2">  1       -3 0.63094808E-01 0.80396825E+03</pdfrwt>
<totfact> 0.17083389E+01</totfact>
</mgrwt>
</event>
<event>
 5    0  0.5719562E-003  0.5637815E+03  0.7546771E-02  0.9983534E-01
         -2   -1    0    0    0  501 -0.00000000000E+00  0.00000000000E+00  0.27529114768E+03  0.27529114768E+03  0.00000000000E+00 0. -1.
          2   -1    0    0  502    0  0.00000000000E+00 -0.00000000000E+00 -0.28864856941E+03  0.28864856941E+03  0.00000000000E+00 0.  1.
         25    1    1    2    0    0  0.19400459358E+03 -0.50624921922E+02  0.15231274084E+03  0.28111356437E+03  0.12500000000E+03 0.  0.
          3    1    1    2  502    0 -0.11643044366E+03 -0.22491177980E+02 -0.11348937700E+03  0.16413939195E+03  0.00000000000E+00 0.  1.
         -3    1    1    2    0  501 -0.77574149920E+02  0.73116099902E+02 -0.52180785568E+02  0.11868676077E+03  0.00000000000E+00 0. -1.
<mgrwt>
<rscale>  4 0.56378150E+03</rscale>
<asrwt>0</asrwt>
<pdfrwt beam="1">  1        2 0.44407472E-01 0.56378150E+03</pdfrwt>
<pdfrwt beam="2">  1       -2 0.42352484E-01 0.56378150E+03</pdfrwt>
<totfact> 0.60987952E+02</totfact>
</mgrwt>
</event>
<event>
 5    0  0.5719562E-003  0.5290161E+03  0.7546771E-02  0.1006471E+00
         -2   -1    0    0    0  501 -0.00000000000E+00  0.00000000000E+00  0.28926007772E+02  0.28926007772E+02  0.00000000000E+00 0. -1.
          2   -1    0    0  502    0  0.00000000000E+00 -0.00000000000E+00 -0.24187408242E+04  0.24187408242E+04  0.00000000000E+00 0.  1.
         25    1    1    2    0    0 -0.10270986855E+03 -0.21307840546E+03 -0.91713588795E+03  0.95536116780E+03  0.12500000000E+03 0.  0.
          2    1    1    2  502    0  0.94702908385E+02  0.15029921759E+03 -0.10523714345E+04  0.10672601050E+04  0.00000000000E+00 0.  1.
         -2    1    1    2    0  501  0.80069601652E+01  0.62779187873E+02 -0.42030749396E+03  0.42504555912E+03  0.00000000000E+00 0. -1.
<mgrwt>
<rscale>  4 0.52901613E+03</rscale>
<asrwt>0</asrwt>
<pdfrwt beam="1">  1        2 0.37211392E+00 0.52901613E+03</pdfrwt>
<pdfrwt beam="2">  1       -2 0.44501557E-02 0.52901613E+03</pdfrwt>
<totfact> 0.10098416E+03</totfact>
</mgrwt>
</event>
<event>
 5    0  0.5719562E-003  0.6777917E+03  0.7546771E-02  0.9755984E-01
          2   -1    0    0  502    0  0.00000000000E+00  0.00000000000E+00  0.51787438155E+03  0.51787438155E+03  0.00000000000E+00 0. -1.
         -2   -1    0    0    0  501 -0.00000000000E+00 -0.00000000000E+00 -0.22177266441E+03  0.22177266441E+03  0.00000000000E+00 0.  1.
         25    1    1    2    0    0  0.20016540641E+03  0.22956056932E+03  0.62617975384E+02  0.33512722323E+03  0.12500000000E+03 0.  0.
          4    1    1    2  502    0 -0.11613352409E+03 -0.11515476435E+03  0.20058094299E+03  0.25880558313E+03  0.00000000000E+00 0. -1.
         -4    1    1    2    0  501 -0.84031882313E+02 -0.11440580496E+03  0.32902798766E+02  0.14571423960E+03  0.00000000000E+00 0.  1.
<mgrwt>
<rscale>  4 0.67779165E+03</rscale>
<asrwt>0</asrwt>
<pdfrwt beam="1">  1        2 0.79672981E-01 0.67779165E+03</pdfrwt>
<pdfrwt beam="2">  1       -2 0.34118872E-01 0.67779165E+03</pdfrwt>
<totfact> 0.47871306E+02</totfact>
</mgrwt>
</event>
<event>
 5    0  0.5719562E-003  0.8448685E+03  0.7546771E-02  0.9497250E-01
         -2   -1    0    0    0  501 -0.00000000000E+00  0.00000000000E+00  0.74500439859E+03  0.74500439859E+03  0.00000000000E+00 0.  1.
          2   -1    0    0  502    0  0.00000000000E+00 -0.00000000000E+00 -0.23952973985E+03  0.23952973985E+03  0.00000000000E+00 0. -1.
         25    1    1    2    0    0 -0.54437579694E+01 -0.32223928358E+03  0.12025311220E+03  0.36599672318E+03  0.12500000000E+03 0.  0.
          3    1    1    2  502    0 -0.43331697820E+02  0.12687170986E+03 -0.46712318681E+02  0.14197220684E+03  0.00000000000E+00 0. -1.
         -3    1    1    2    0  501  0.48775455789E+02  0.19536757371E+03  0.43193386523E+03  0.47656520842E+03  0.00000000000E+00 0.  1.
<mgrwt>
<rscale>  4 0.84486853E+03</rscale>
<asrwt>0</asrwt>
<pdfrwt beam="1">  1        2 0.36850730E-01 0.84486853E+03</pdfrwt>
<pdfrwt beam="2">  1       -2 0.11461606E+00 0.84486853E+03</pdfrwt>
<totfact> 0.84379122E+01</totfact>
</mgrwt>
</event>
<event>
 5    0  0.5719562E-003  0.5089499E+03  0.7546771E-02  0.1011469E+00
         -2   -1    0    0    0  501 -0.00000000000E+00  0.00000000000E+00  0.24690294287E+03  0.24690294287E+03  0.00000000000E+00 0.  1.
          2   -1    0    0  502    0  0.00000000000E+00 -0.00000000000E+00 -0.26227918628E+03  0.26227918628E+03  0.00000000000E+00 0. -1.
         25    1    1    2    0    0  0.73055877952E+02  0.22552050248E+03  0.12313765521E+02  0.26827837625E+03  0.12500000000E+03 0.  0.
          2    1    1    2  502    0 -0.14042418554E+02 -0.20343388292E+02  0.40924107151E+01  0.25055753661E+02  0.00000000000E+00 0. -1.
         -2    1    1    2    0  501 -0.59013459397E+02 -0.20517711419E+03 -0.31782419644E+02  0.21584799924E+03  0.00000000000E+00 0.  1.
<mgrwt>
<rscale>  4 0.50894991E+03</rscale>
<asrwt>0</asrwt>
<pdfrwt beam="1">  1        2 0.40350644E-01 0.50894991E+03</pdfrwt>
<pdfrwt beam="2">  1       -2 0.37985068E-01 0.50894991E+03</pdfrwt>
<totfact> 0.83737746E+02</totfact>
</mgrwt>
</event>
<event>
 5    0  0.5719562E-003  0.4630142E+03  0.7546771E-02  0.1023911E+00
         -4   -1    0    0    0  501 -0.00000000000E+00  0.00000000000E+00  0.27236287880E+03  0.27236287880E+03  0.00000000000E+00 0. -1.
          4   -1    0    0  502    0  0.00000000000E+00 -0.00000000000E+00 -0.19677991762E+03  0.19677991762E+03  0.00000000000E+00 0.  1.
         25    1    1    2    0    0 -0.19668548531E+03  0.59254486569E+02  0.86954301047E+02  0.25569967693E+03  0.12500000000E+03 0.  0.
          3    1    1    2  502    0  0.51098138988E+02 -0.31988806801E+02 -0.23779885083E+02  0.64805759799E+02  0.00000000000E+00 0. -1.
         -3    1    1    2    0  501  0.14558734632E+03 -0.27265679768E+02  0.12408545223E+02  0.14863735970E+03  0.00000000000E+00 0.  1.
<mgrwt>
<rscale>  4 0.46301423E+03</rscale>
<asrwt>0</asrwt>
<pdfrwt beam="1">  1        4 0.30273834E-01 0.46301423E+03</pdfrwt>
<pdfrwt beam="2">  1       -4 0.41901981E-01 0.46301423E+03</pdfrwt>
<totfact> 0.11335271E+02</totfact>
</mgrwt>
</event>
<event>
 5    0  0.5719562E-003  0.6865834E+03  0.7546771E-02  0.9740456E-01
          2   -1    0    0  502    0  0.00000000000E+00  0.00000000000E+00  0.41866470838E+03  0.41866470838E+03  0.00000000000E+00 0. -1.
         -2   -1    0    0    0  501 -0.00000000000E+00 -0.00000000000E+00 -0.28148820072E+03  0.28148820072E+03  0.00000000000E+00 0.  1.
         25    1    1    2    0    0  0.72414187627E+02  0.24565434349E+03  0.12401336145E+03  0.31079605027E+03  0.12500000000E+03 0.  0.
          1    1    1    2  502    0 -0.54504852894E+01 -0.14549678610E+03  0.14863149703E+03  0.20806331840E+03  0.00000000000E+00 0. -1.
         -1    1    1    2    0  501 -0.66963702338E+02 -0.10015755739E+03 -0.13546835081E+03  0.18129354044E+03  0.00000000000E+00 0.  1.
<mgrwt>
<rscale>  4 0.68658335E+03</rscale>
<asrwt>0</asrwt>
<pdfrwt beam="1">  1        2 0.64409955E-01 0.68658335E+03</pdfrwt>
<pdfrwt beam="2">  1       -2 0.43305877E-01 0.68658335E+03</pdfrwt>
<totfact> 0.38507403E+02</totfact>
</mgrwt>
</event>
<event>
 5    0  0.5719562E-003  0.5319680E+03  0.7546771E-02  0.1005756E+00
          1   -1    0    0  502    0  0.00000000000E+00  0.00000000000E+00  0.86858667497E+03  0.86858667497E+03  0.00000000000E+00 0.  1.
         -1   -1    0    0    0  501 -0.00000000000E+00 -0.00000000000E+00 -0.81451267614E+02  0.81451267614E+02  0.00000000000E+00 0. -1.
         25    1    1    2    0    0  0.10353058421E+02 -0.24054045485E+03  0.51703777941E+03  0.58388351712E+03  0.12500000000E+03 0.  0.
          1    1    1    2  502    0 -0.21827662520E+02  0.17893672076E+03  0.16830303185E+03  0.24661854638E+03  0.00000000000E+00 0. -1.
         -1    1    1    2    0  501  0.11474604098E+02  0.61603734087E+02  0.10179459610E+03  0.11953587908E+03  0.00000000000E+00 0.  1.
<mgrwt>
<rscale>  4 0.53196799E+03</rscale>
<asrwt>0</asrwt>
<pdfrwt beam="1">  1        1 0.13362871E+00 0.53196799E+03</pdfrwt>
<pdfrwt beam="2">  1       -1 0.12530965E-01 0.53196799E+03</pdfrwt>
<totfact> 0.86028564E+02</totfact>
</mgrwt>
</event>
<event>
 5    0  0.5719562E-003  0.6983577E+03  0.7546771E-02  0.9720045E-01
          1   -1    0    0  502    0  0.00000000000E+00  0.00000000000E+00  0.76697083981E+03  0.76697083981E+03  0.00000000000E+00 0.  1.
         -1   -1    0    0    0  501 -0.00000000000E+00 -0.00000000000E+00 -0.15897067945E+03  0.15897067945E+03  0.00000000000E+00 0. -1.
         25    1    1    2    0    0  0.32209189857E+03  0.15869615860E+02  0.35797000869E+03  0.49775753430E+03  0.12500000000E+03 0.  0.
          3    1    1    2  502    0 -0.80554874332E+01 -0.25329415234E+02 -0.12493253175E+00  0.26579799886E+02  0.00000000000E+00 0. -1.
         -3    1    1    2    0  501 -0.31403641113E+03  0.94597993740E+01  0.25015508420E+03  0.40160418508E+03  0.00000000000E+00 0.  1.
<mgrwt>
<rscale>  4 0.69835772E+03</rscale>
<asrwt>0</asrwt>
<pdfrwt beam="1">  1        1 0.11799551E+00 0.69835772E+03</pdfrwt>
<pdfrwt beam="2">  1       -1 0.24457028E-01 0.69835772E+03</pdfrwt>
<totfact> 0.34774370E+02</totfact>
</mgrwt>
</event>
<event>
 5    0  0.5719562E-003  0.6712743E+03  0.7546771E-02  0.9767659E-01
          1   -1    0    0  502    0  0.00000000000E+00  0.00000000000E+00  0.30042097750E+04  0.30042097750E+04  0.00000000000E+00 0.  1.
         -1   -1    0    0    0  501 -0.00000000000E+00 -0.00000000000E+00 -0.37498145056E+02  0.37498145056E+02  0.00000000000E+00 0. -1.
         25    1    1    2    0    0  0.30002654511E+03 -0.97128092371E+02  0.17851277931E+04  0.18170734800E+04  0.12500000000E+03 0.  0.
          1    1    1    2  502    0 -0.20945177100E+03  0.57073422220E+02  0.91062304289E+03  0.93614194765E+03  0.00000000000E+00 0.  1.
         -1    1    1    2    0  501 -0.90574774104E+02  0.40054670151E+02  0.27096079395E+03  0.28849249239E+03  0.00000000000E+00 0. -1.
<mgrwt>
<rscale>  4 0.67127429E+03</rscale>
<asrwt>0</asrwt>
<pdfrwt beam="1">  1        1 0.46218593E+00 0.67127429E+03</pdfrwt>
<pdfrwt beam="2">  1       -1 0.57689477E-02 0.67127429E+03</pdfrwt>
<totfact> 0.94463255E+01</totfact>
</mgrwt>
</event>
<event>
 5    0  0.5719562E-003  0.6838080E+03  0.7546771E-02  0.9745331E-01
          1   -1    0    0  502    0  0.00000000000E+00  0.00000000000E+00  0.14309843472E+04  0.14309843472E+04  0.00000000000E+00 0. -1.
         -1   -1    0    0    0  501 -0.00000000000E+00 -0.00000000000E+00 -0.81690854956E+02  0.81690854956E+02  0.00000000000E+00 0.  1.
         25    1    1    2    0    0 -0.20057313902E+03 -0.12944150673E+03  0.61700458431E+03  0.67327880170E+03  0.12500000000E+03 0.  0.
          2    1    1    2  502    0  0.26039554974E+03  0.92580730154E+02  0.32736686947E+03  0.42842280652E+03  0.00000000000E+00 0.  1.
         -2    1    1    2    0  501 -0.59822410720E+02  0.36860776575E+02  0.40492203849E+03  0.41097359396E+03  0.00000000000E+00 0. -1.
<mgrwt>
<rscale>  4 0.68380797E+03</rscale>
<asrwt>0</asrwt>
<pdfrwt beam="1">  1        1 0.22015142E+00 0.68380797E+03</pdfrwt>
<pdfrwt beam="2">  1       -1 0.12567825E-01 0.68380797E+03</pdfrwt>
<totfact> 0.32680616E+02</totfact>
</mgrwt>
</event>
<event>
 5    0  0.5719562E-003  0.7689347E+03  0.7546771E-02  0.9606104E-01
          2   -1    0    0  502    0  0.00000000000E+00  0.00000000000E+00  0.13229305921E+04  0.13229305921E+04  0.00000000000E+00 0. -1.
         -2   -1    0    0    0  501 -0.00000000000E+00 -0.00000000000E+00 -0.11173309557E+03  0.11173309557E+03  0.00000000000E+00 0.  1.
         25    1    1    2    0    0 -0.20209049792E+03 -0.29970267309E+03  0.47235373927E+03  0.60778722971E+03  0.12500000000E+03 0.  0.
          4    1    1    2  502    0  0.11319613378E+03  0.19269707725E+03  0.53788493228E+03  0.58246521669E+03  0.00000000000E+00 0.  1.
         -4    1    1    2    0  501  0.88894364133E+02  0.10700559584E+03  0.20095882497E+03  0.24441124124E+03  0.00000000000E+00 0. -1.
<mgrwt>
<rscale>  4 0.76893467E+03</rscale>
<asrwt>0</asrwt>
<pdfrwt beam="1">  1        2 0.20352777E+00 0.76893467E+03</pdfrwt>
<pdfrwt beam="2">  1       -2 0.17189708E-01 0.76893467E+03</pdfrwt>
<totfact> 0.44893590E+02</totfact>
</mgrwt>
</event>
<event>
 5    0  0.5719562E-003  0.8003859E+03  0.7546771E-02  0.9559459E-01
         -2   -1    0    0    0  501 -0.00000000000E+00  0.00000000000E+00  0.23085160206E+03  0.23085160206E+03  0.00000000000E+00 0.  1.
          2   -1    0    0  502    0  0.00000000000E+00 -0.00000000000E+00 -0.69375472083E+03  0.69375472083E+03  0.00000000000E+00 0. -1.
         25    1    1    2    0    0 -0.23073585964E+03 -0.23964315945E+03 -0.78375939305E+02  0.36391711784E+03  0.12500000000E+03 0.  0.
          2    1    1    2  502    0  0.20256538991E+03  0.22515611262E+03 -0.41696346491E+03  0.51535089338E+03  0.00000000000E+00 0. -1.
         -2    1    1    2    0  501  0.28170469732E+02  0.14487046833E+02  0.32436285444E+02  0.45338311661E+02  0.00000000000E+00 0.  1.
<mgrwt>
<rscale>  4 0.80038588E+03</rscale>
<asrwt>0</asrwt>
<pdfrwt beam="1">  1        2 0.10673149E+00 0.80038588E+03</pdfrwt>
<pdfrwt beam="2">  1       -2 0.35515632E-01 0.80038588E+03</pdfrwt>
<totfact> 0.31029503E+02</totfact>
</mgrwt>
</event>
<event>
 5    0  0.5719562E-003  0.5056467E+03  0.7546771E-02  0.1012315E+00
          1   -1    0    0  502    0  0.00000000000E+00  0.00000000000E+00  0.13208440424E+04  0.13208440424E+04  0.00000000000E+00 0. -1.
         -1   -1    0    0    0  501 -0.00000000000E+00 -0.00000000000E+00 -0.48393021458E+02  0.48393021458E+02  0.00000000000E+00 0.  1.
         25    1    1    2    0    0 -0.57604831445E+01  0.23517747221E+03  0.69444344723E+03  0.74378648012E+03  0.12500000000E+03 0.  0.
          1    1    1    2  502    0 -0.10213531691E+02 -0.17458683933E+03  0.39409164744E+03  0.43115322947E+03  0.00000000000E+00 0.  1.
         -1    1    1    2    0  501  0.15974014835E+02 -0.60590632880E+02  0.18391592626E+03  0.19429735427E+03  0.00000000000E+00 0. -1.
<mgrwt>
<rscale>  4 0.50564665E+03</rscale>
<asrwt>0</asrwt>
<pdfrwt beam="1">  1        1 0.20320675E+00 0.50564665E+03</pdfrwt>
<pdfrwt beam="2">  1       -1 0.74450812E-02 0.50564665E+03</pdfrwt>
<totfact> 0.89768661E+02</totfact>
</mgrwt>
</event>
<event>
 5    0  0.5719562E-003  0.5602110E+03  0.7546771E-02  0.9991577E-01
         -2   -1    0    0    0  501 -0.00000000000E+00  0.00000000000E+00  0.19759528522E+02  0.19759528522E+02  0.00000000000E+00 0.  1.
          2   -1    0    0  502    0  0.00000000000E+00 -0.00000000000E+00 -0.39706969437E+04  0.39706969437E+04  0.00000000000E+00 0. -1.
         25    1    1    2    0    0 -0.18183933438E+03  0.12056092913E+03 -0.23171164599E+04  0.23307196679E+04  0.12500000000E+03 0.  0.
          3    1    1    2  502    0  0.14839402275E+03  0.53329651072E+00 -0.58968133548E+03  0.60806672973E+03  0.00000000000E+00 0. -1.
         -3    1    1    2    0  501  0.33445311636E+02 -0.12109422564E+03 -0.10441396197E+04  0.10516700746E+04  0.00000000000E+00 0.  1.
<mgrwt>
<rscale>  4 0.56021103E+03</rscale>
<asrwt>0</asrwt>
<pdfrwt beam="1">  1        2 0.61087581E+00 0.56021103E+03</pdfrwt>
<pdfrwt beam="2">  1       -2 0.30399306E-02 0.56021103E+03</pdfrwt>
<totfact> 0.18188108E+02</totfact>
</mgrwt>
</event>
<event>
 5    0  0.5719562E-003  0.5903624E+03  0.7546771E-02  0.9925605E-01
          1   -1    0    0  502    0  0.00000000000E+00  0.00000000000E+00  0.75606690434E+03  0.75606690434E+03  0.00000000000E+00 0.  1.
         -1   -1    0    0    0  501 -0.00000000000E+00 -0.00000000000E+00 -0.11524367628E+03  0.11524367628E+03  0.00000000000E+00 0. -1.
         25    1    1    2    0    0 -0.15041095488E+02 -0.24950392317E+03  0.45714651000E+03  0.53580441752E+03  0.12500000000E+03 0.  0.
          4    1    1    2  502    0 -0.15194285155E+02  0.54039555439E+02 -0.11864506050E+02  0.57375137100E+02  0.00000000000E+00 0. -1.
         -4    1    1    2    0  501  0.30235380643E+02  0.19546436773E+03  0.19554122411E+03  0.27813102599E+03  0.00000000000E+00 0.  1.
<mgrwt>
<rscale>  4 0.59036236E+03</rscale>
<asrwt>0</asrwt>
<pdfrwt beam="1">  1        1 0.11631798E+00 0.59036236E+03</pdfrwt>
<pdfrwt beam="2">  1       -1 0.17729797E-01 0.59036236E+03</pdfrwt>
<totfact> 0.61090394E+02</totfact>
</mgrwt>
</event>
<event>
 5    0  0.5719562E-003  0.6092335E+03  0.7546771E-02  0.9886433E-01
          2   -1    0    0  502    0  0.00000000000E+00  0.00000000000E+00  0.28602771038E+03  0.28602771038E+03  0.00000000000E+00 0.  1.
         -2   -1    0    0    0  501 -0.00000000000E+00 -0.00000000000E+00 -0.32441384571E+03  0.32441384571E+03  0.00000000000E+00 0. -1.
         25    1    1    2    0    0  0.25863658208E+03  0.70752235158E+02 -0.51218642073E+02  0.30024508267E+03  0.12500000000E+03 0.  0.
          3    1    1    2  502    0 -0.17996967228E+03 -0.12026628167E+03  0.17229129141E+02  0.21714028723E+03  0.00000000000E+00 0.  1.
         -3    1    1    2    0  501 -0.78666909806E+02  0.49514046511E+02 -0.43966223961E+01  0.93056186194E+02  0.00000000000E+00 0. -1.
<mgrwt>
<rscale>  4 0.60923345E+03</rscale>
<asrwt>0</asrwt>
<pdfrwt beam="1">  1        2 0.44004263E-01 0.60923345E+03</pdfrwt>
<pdfrwt beam="2">  1       -2 0.49909822E-01 0.60923345E+03</pdfrwt>
<totfact> 0.44376000E+02</totfact>
</mgrwt>
</event>
<event>
 5    0  0.5719562E-003  0.6729999E+03  0.7546771E-02  0.9764554E-01
         -1   -1    0    0    0  501 -0.00000000000E+00  0.00000000000E+00  0.29835504366E+03  0.29835504366E+03  0.00000000000E+00 0.  1.
          1   -1    0    0  502    0  0.00000000000E+00 -0.00000000000E+00 -0.37952174862E+03  0.37952174862E+03  0.00000000000E+00 0. -1.
         25    1    1    2    0    0 -0.23646144939E+03 -0.11377480522E+03 -0.13981035055E+03  0.32253783882E+03  0.12500000000E+03 0.  0.
          4    1    1    2  502    0  0.25346169099E+03  0.16084131416E+03  0.45671163127E+02  0.30364224390E+03  0.00000000000E+00 0.  1.
         -4    1    1    2    0  501 -0.17000241608E+02 -0.47066508934E+02  0.12972482460E+02  0.51696709558E+02  0.00000000000E+00 0. -1.
<mgrwt>
<rscale>  4 0.67299993E+03</rscale>
<asrwt>0</asrwt>
<pdfrwt beam="1">  1        1 0.58387961E-01 0.67299993E+03</pdfrwt>
<pdfrwt beam="2">  1       -1 0.45900776E-01 0.67299993E+03</pdfrwt>
<totfact> 0.30770717E+02</totfact>
</mgrwt>
</event>
<event>
 5    0  0.5719562E-003  0.4958966E+03  0.7546771E-02  0.1014856E+00
         -1   -1    0    0    0  501 -0.00000000000E+00  0.00000000000E+00  0.50605316419E+02  0.50605316419E+02  0.00000000000E+00 0.  1.
          1   -1    0    0  502    0  0.00000000000E+00 -0.00000000000E+00 -0.12148597493E+04  0.12148597493E+04  0.00000000000E+00 0. -1.
         25    1    1    2    0    0 -0.21580672151E+03  0.30822360157E+02 -0.43415338671E+03  0.50163405200E+03  0.12500000000E+03 0.  0.
          2    1    1    2  502    0  0.20213718321E+02 -0.16511157654E+02 -0.56040780977E+02  0.61820561854E+02  0.00000000000E+00 0.  1.
         -2    1    1    2    0  501  0.19559300319E+03 -0.14311202503E+02 -0.67406026516E+03  0.70201045183E+03  0.00000000000E+00 0. -1.
<mgrwt>
<rscale>  4 0.49589661E+03</rscale>
<asrwt>0</asrwt>
<pdfrwt beam="1">  1        1 0.18690150E+00 0.49589661E+03</pdfrwt>
<pdfrwt beam="2">  1       -1 0.77854334E-02 0.49589661E+03</pdfrwt>
<totfact> 0.99493182E+02</totfact>
</mgrwt>
</event>
<event>
 5    0  0.5719562E-003  0.5134863E+03  0.7546771E-02  0.1010318E+00
         -1   -1    0    0    0  501 -0.00000000000E+00  0.00000000000E+00  0.17336672948E+03  0.17336672948E+03  0.00000000000E+00 0. -1.
          1   -1    0    0  502    0  0.00000000000E+00 -0.00000000000E+00 -0.38021738699E+03  0.38021738699E+03  0.00000000000E+00 0.  1.
         25    1    1    2    0    0  0.69586559011E+02  0.19524725814E+03 -0.23958432908E+03  0.34057221223E+03  0.12500000000E+03 0.  0.
          4    1    1    2  502    0 -0.57742035556E+02 -0.14716525411E+03  0.96653951048E+01  0.15838299957E+03  0.00000000000E+00 0. -1.
         -4    1    1    2    0  501 -0.11844523454E+02 -0.48082004021E+02  0.23068276469E+02  0.54628904673E+02  0.00000000000E+00 0.  1.
<mgrwt>
<rscale>  4 0.51348630E+03</rscale>
<asrwt>0</asrwt>
<pdfrwt beam="1">  1        1 0.58494982E-01 0.51348630E+03</pdfrwt>
<pdfrwt beam="2">  1       -1 0.26671805E-01 0.51348630E+03</pdfrwt>
<totfact> 0.80857303E+02</totfact>
</mgrwt>
</event>
<event>
 5    0  0.5719562E-003  0.7443381E+03  0.7546771E-02  0.9644275E-01
         -2   -1    0    0    0  501 -0.00000000000E+00  0.00000000000E+00  0.98664781660E+02  0.98664781660E+02  0.00000000000E+00 0.  1.
          2   -1    0    0  502    0  0.00000000000E+00 -0.00000000000E+00 -0.14038421905E+04  0.14038421905E+04  0.00000000000E+00 0. -1.
         25    1    1    2    0    0  0.61364779498E+02  0.24905088398E+03 -0.16430374213E+03  0.32926083680E+03  0.12500000000E+03 0.  0.
          1    1    1    2  502    0 -0.56148445181E+02 -0.19962649086E+03 -0.71447647269E+03  0.74396237390E+03  0.00000000000E+00 0.  1.
         -1    1    1    2    0  501 -0.52163343177E+01 -0.49424393124E+02 -0.42639719399E+03  0.42928376143E+03  0.00000000000E+00 0. -1.
<mgrwt>
<rscale>  4 0.74433805E+03</rscale>
<asrwt>0</asrwt>
<pdfrwt beam="1">  1        2 0.21597570E+00 0.74433805E+03</pdfrwt>
<pdfrwt beam="2">  1       -2 0.15179199E-01 0.74433805E+03</pdfrwt>
<totfact> 0.49980869E+02</totfact>
</mgrwt>
</event>
<event>
 5    0  0.5719562E-003  0.1046225E+04  0.7546771E-02  0.9259250E-01
         -2   -1    0    0    0  501 -0.00000000000E+00  0.00000000000E+00  0.24917461724E+03  0.24917461724E+03  0.00000000000E+00 0. -1.
          2   -1    0    0  502    0  0.00000000000E+00 -0.00000000000E+00 -0.10982134080E+04  0.10982134080E+04  0.00000000000E+00 0.  1.
         25    1    1    2    0    0 -0.31874577264E+03  0.25622989628E+03 -0.24636420449E+03  0.49353110193E+03  0.12500000000E+03 0.  0.
          3    1    1    2  502    0  0.10814315656E+03 -0.33556481500E+03 -0.23814849706E+03  0.42545668878E+03  0.00000000000E+00 0. -1.
         -3    1    1    2    0  501  0.21060261608E+03  0.79334918720E+02 -0.36452608923E+03  0.42840023454E+03  0.00000000000E+00 0.  1.
<mgrwt>
<rscale>  4 0.10462254E+04</rscale>
<asrwt>0</asrwt>
<pdfrwt beam="1">  1        2 0.16895591E+00 0.10462254E+04</pdfrwt>
<pdfrwt beam="2">  1       -2 0.38334556E-01 0.10462254E+04</pdfrwt>
<totfact> 0.13965713E+02</totfact>
</mgrwt>
</event>
<event>
 5    0  0.5719562E-003  0.5165132E+03  0.7546771E-02  0.1009556E+00
          2   -1    0    0  502    0  0.00000000000E+00  0.00000000000E+00  0.10324741696E+04  0.10324741696E+04  0.00000000000E+00 0. -1.
         -2   -1    0    0    0  501 -0.00000000000E+00 -0.00000000000E+00 -0.64598681512E+02  0.64598681512E+02  0.00000000000E+00 0.  1.
         25    1    1    2    0    0 -0.13097251428E+03 -0.19483516237E+03  0.39384167896E+03  0.47523763327E+03  0.12500000000E+03 0.  0.
          2    1    1    2  502    0  0.11796378936E+03  0.15353419986E+03  0.43332304830E+03  0.47461254757E+03  0.00000000000E+00 0. -1.
         -2    1    1    2    0  501  0.13008724919E+02  0.41300962507E+02  0.14071076086E+03  0.14722267030E+03  0.00000000000E+00 0.  1.
<mgrwt>
<rscale>  4 0.51651319E+03</rscale>
<asrwt>0</asrwt>
<pdfrwt beam="1">  1        2 0.15884217E+00 0.51651319E+03</pdfrwt>
<pdfrwt beam="2">  1       -2 0.99382594E-02 0.51651319E+03</pdfrwt>
<totfact> 0.16775364E+03</totfact>
</mgrwt>
</event>
<event>
 5    0  0.5719562E-003  0.7571520E+03  0.7546771E-02  0.9624196E-01
          2   -1    0    0  502    0  0.00000000000E+00  0.00000000000E+00  0.20167524493E+04  0.20167524493E+04  0.00000000000E+00 0.  1.
         -2   -1    0    0    0  501 -0.00000000000E+00 -0.00000000000E+00 -0.71064637409E+02  0.71064637409E+02  0.00000000000E+00 0. -1.
         25    1    1    2    0    0 -0.28502092776E+03  0.49285210929E+02  0.64879205260E+03  0.72126422953E+03  0.12500000000E+03 0.  0.
          1    1    1    2  502    0  0.27660665542E+03 -0.75770704253E+02  0.56031858603E+03  0.62945163380E+03  0.00000000000E+00 0. -1.
         -1    1    1    2    0  501  0.84142723415E+01  0.26485493324E+02  0.73657717322E+03  0.73710122334E+03  0.00000000000E+00 0.  1.
<mgrwt>
<rscale>  4 0.75715198E+03</rscale>
<asrwt>0</asrwt>
<pdfrwt beam="1">  1        2 0.31026956E+00 0.75715198E+03</pdfrwt>
<pdfrwt beam="2">  1       -2 0.10933023E-01 0.75715198E+03</pdfrwt>
<totfact> 0.39707470E+02</totfact>
</mgrwt>
</event>
<event>
 5    0  0.5719562E-003  0.5426530E+03  0.7546771E-02  0.1003209E+00
          1   -1    0    0  502    0  0.00000000000E+00  0.00000000000E+00  0.16287697675E+04  0.16287697675E+04  0.00000000000E+00 0.  1.
         -1   -1    0    0    0  501 -0.00000000000E+00 -0.00000000000E+00 -0.45198571910E+02  0.45198571910E+02  0.00000000000E+00 0. -1.
         25    1    1    2    0    0 -0.11744631004E+03  0.19400357678E+03  0.47145801413E+03  0.53789281705E+03  0.12500000000E+03 0.  0.
          3    1    1    2  502    0  0.38842261793E+02 -0.10018606014E+03  0.44175046264E+03  0.45463110232E+03  0.00000000000E+00 0. -1.
         -3    1    1    2    0  501  0.78604048243E+02 -0.93817516646E+02  0.67036271885E+03  0.68144442007E+03  0.00000000000E+00 0.  1.
<mgrwt>
<rscale>  4 0.54265299E+03</rscale>
<asrwt>0</asrwt>
<pdfrwt beam="1">  1        1 0.25057992E+00 0.54265299E+03</pdfrwt>
<pdfrwt beam="2">  1       -1 0.69536277E-02 0.54265299E+03</pdfrwt>
<totfact> 0.61443026E+02</totfact>
</mgrwt>
</event>
<event>
 5    0  0.5719562E-003  0.4816040E+03  0.7546771E-02  0.1018695E+00
         -2   -1    0    0    0  501 -0.00000000000E+00  0.00000000000E+00  0.60796377685E+02  0.60796377685E+02  0.00000000000E+00 0.  1.
          2   -1    0    0  502    0  0.00000000000E+00 -0.00000000000E+00 -0.95376753691E+03  0.95376753691E+03  0.00000000000E+00 0. -1.
         25    1    1    2    0    0 -0.16683655971E+03 -0.11221100841E+03 -0.47136316584E+03  0.52747889264E+03  0.12500000000E+03 0.  0.
          3    1    1    2  502    0  0.85750179589E+02  0.81034786815E+02 -0.36450842036E+03  0.38312676556E+03  0.00000000000E+00 0. -1.
         -3    1    1    2    0  501  0.81086380121E+02  0.31176221594E+02 -0.57099573016E+02  0.10395825639E+03  0.00000000000E+00 0.  1.
<mgrwt>
<rscale>  4 0.48160403E+03</rscale>
<asrwt>0</asrwt>
<pdfrwt beam="1">  1        2 0.14673346E+00 0.48160403E+03</pdfrwt>
<pdfrwt beam="2">  1       -2 0.93532894E-02 0.48160403E+03</pdfrwt>
<totfact> 0.20744953E+03</totfact>
</mgrwt>
</event>
<event>
 5    0  0.5719562E-003  0.1076772E+04  0.7546771E-02  0.9228132E-01
          2   -1    0    0  502    0  0.00000000000E+00  0.00000000000E+00  0.15705529722E+04  0.15705529722E+04  0.00000000000E+00 0.  1.
         -2   -1    0    0    0  501 -0.00000000000E+00 -0.00000000000E+00 -0.18455872876E+03  0.18455872876E+03  0.00000000000E+00 0. -1.
         25    1    1    2    0    0  0.70830769754E+02 -0.30229781193E+03  0.13576953761E+04  0.13983428404E+04  0.12500000000E+03 0.  0.
          3    1    1    2  502    0 -0.12540268500E+03  0.25176449103E+03  0.21873839091E+02  0.28211638943E+03  0.00000000000E+00 0. -1.
         -3    1    1    2    0  501  0.54571915249E+02  0.50533320904E+02  0.64250282394E+01  0.74652471114E+02  0.00000000000E+00 0.  1.
<mgrwt>
<rscale>  4 0.10767716E+04</rscale>
<asrwt>0</asrwt>
<pdfrwt beam="1">  1        2 0.24162353E+00 0.10767716E+04</pdfrwt>
<pdfrwt beam="2">  1       -2 0.28393652E-01 0.10767716E+04</pdfrwt>
<totfact> 0.13075346E+02</totfact>
</mgrwt>
</event>
<event>
 5    0  0.5719562E-003  0.6078337E+03  0.7546771E-02  0.9889286E-01
         -2   -1    0    0    0  501 -0.00000000000E+00  0.00000000000E+00  0.14403408433E+03  0.14403408433E+03  0.00000000000E+00 0.  1.
          2   -1    0    0  502    0  0.00000000000E+00 -0.00000000000E+00 -0.64127496567E+03  0.64127496567E+03  0.00000000000E+00 0. -1.
         25    1    1    2    0    0  0.19518705549E+03 -0.75674118253E+02 -0.32287118806E+03  0.40459283592E+03  0.12500000000E+03 0.  0.
          2    1    1    2  502    0 -0.15603696000E+03  0.14009201685E+03 -0.21049797933E+03  0.29712405721E+03  0.00000000000E+00 0. -1.
         -2    1    1    2    0  501 -0.39150095486E+02 -0.64417898602E+02  0.36128286040E+02  0.83592156863E+02  0.00000000000E+00 0.  1.
<mgrwt>
<rscale>  4 0.60783370E+03</rscale>
<asrwt>0</asrwt>
<pdfrwt beam="1">  1        2 0.98657686E-01 0.60783370E+03</pdfrwt>
<pdfrwt beam="2">  1       -2 0.22159090E-01 0.60783370E+03</pdfrwt>
<totfact> 0.81786707E+02</totfact>
</mgrwt>
</event>
<event>
 5    0  0.5719562E-003  0.8139764E+03  0.7546771E-02  0.9540004E-01
          1   -1    0    0  502    0  0.00000000000E+00  0.00000000000E+00  0.10123497511E+04  0.10123497511E+04  0.00000000000E+00 0. -1.
         -1   -1    0    0    0  501 -0.00000000000E+00 -0.00000000000E+00 -0.16361872729E+03  0.16361872729E+03  0.00000000000E+00 0.  1.
         25    1    1    2    0    0 -0.30261144656E+03  0.44518671722E+02  0.44297242105E+03  0.55263474876E+03  0.12500000000E+03 0.  0.
          3    1    1    2  502    0  0.18897782336E+03 -0.18363508293E+03  0.12898453640E+03  0.29337939947E+03  0.00000000000E+00 0.  1.
         -3    1    1    2    0  501  0.11363362320E+03  0.13911641120E+03  0.27677406636E+03  0.32995433017E+03  0.00000000000E+00 0. -1.
<mgrwt>
<rscale>  4 0.81397636E+03</rscale>
<asrwt>0</asrwt>
<pdfrwt beam="1">  1        1 0.15574611E+00 0.81397636E+03</pdfrwt>
<pdfrwt beam="2">  1       -1 0.25172113E-01 0.81397636E+03</pdfrwt>
<totfact> 0.20678310E+02</totfact>
</mgrwt>
</event>
<event>
 5    0  0.5719562E-003  0.7275694E+03  0.7546771E-02  0.9671213E-01
         -2   -1    0    0    0  501 -0.00000000000E+00  0.00000000000E+00  0.85606931094E+03  0.85606931094E+03  0.00000000000E+00 0. -1.
          2   -1    0    0  502    0  0.00000000000E+00 -0.00000000000E+00 -0.15458947368E+03  0.15458947368E+03  0.00000000000E+00 0.  1.
         25    1    1    2    0    0 -0.17252664855E+03 -0.14749640660E+03  0.16880374688E+03  0.30925772324E+03  0.12500000000E+03 0.  0.
          4    1    1    2  502    0  0.11860469996E+03  0.31118312108E+02 -0.28388425000E+02  0.12586233303E+03  0.00000000000E+00 0.  1.
         -4    1    1    2    0  501  0.53921948584E+02  0.11637809449E+03  0.56106451538E+03  0.57553872836E+03  0.00000000000E+00 0. -1.
<mgrwt>
<rscale>  4 0.72756939E+03</rscale>
<asrwt>0</asrwt>
<pdfrwt beam="1">  1        2 0.23782996E-01 0.72756939E+03</pdfrwt>
<pdfrwt beam="2">  1       -2 0.13170297E+00 0.72756939E+03</pdfrwt>
<totfact> 0.98579531E+01</totfact>
</mgrwt>
</event>
<event>
 5    0  0.5719562E-003  0.4900109E+03  0.7546771E-02  0.1016420E+00
         -1   -1    0    0    0  501 -0.00000000000E+00  0.00000000000E+00  0.52230253225E+02  0.52230253225E+02  0.00000000000E+00 0.  1.
          1   -1    0    0  502    0  0.00000000000E+00 -0.00000000000E+00 -0.11492891514E+04  0.11492891514E+04  0.00000000000E+00 0. -1.
         25    1    1    2    0    0 -0.37739622988E+02  0.21137072986E+03 -0.46379344745E+03  0.52614753300E+03  0.12500000000E+03 0.  0.
          1    1    1    2  502    0 -0.10178449549E+02 -0.11448908292E+03 -0.22012530569E+03  0.24832740716E+03  0.00000000000E+00 0.  1.
         -1    1    1    2    0  501  0.47918072537E+02 -0.96881646943E+02 -0.41314014505E+03  0.42704446448E+03  0.00000000000E+00 0. -1.
<mgrwt>
<rscale>  4 0.49001087E+03</rscale>
<asrwt>0</asrwt>
<pdfrwt beam="1">  1        1 0.17681371E+00 0.49001087E+03</pdfrwt>
<pdfrwt beam="2">  1       -1 0.80354239E-02 0.49001087E+03</pdfrwt>
<totfact> 0.10560706E+03</totfact>
</mgrwt>
</event>
