<event>
 5    0  0.1911311E+001  0.2996853E+03  0.7546771E-02  0.1085398E+00
         21   -1    0    0  502  501  0.00000000000E+00  0.00000000000E+00  0.73249028153E+03  0.73249028153E+03  0.00000000000E+00 0.  1.
         21   -1    0    0  504  502 -0.00000000000E+00 -0.00000000000E+00 -0.57260269597E+03  0.57260269597E+03  0.00000000000E+00 0.  1.
         25    1    1    2    0    0  0.23436288092E+03 -0.91609959181E+02 -0.47341361766E+03  0.55051230501E+03  0.12500000000E+03 0.  0.
         21    1    1    2  503  501 -0.26204787448E+03  0.78375624384E+02  0.65966716331E+03  0.71412365411E+03  0.00000000000E+00 0.  1.
         21    1    1    2  504  503  0.27684993560E+02  0.13234334797E+02 -0.26365960081E+02  0.40457018389E+02  0.00000000000E+00 0.  1.
<mgrwt>
<rscale>  4 0.29968530E+03</rscale>
<asrwt>0</asrwt>
<pdfrwt beam="1">  1       21 0.11269081E+00 0.29968530E+03</pdfrwt>
<pdfrwt beam="2">  1       21 0.88092723E-01 0.29968530E+03</pdfrwt>
<totfact> 0.61973947E+02</totfact>
</mgrwt>
</event>
<event>
 5    0  0.1911311E+001  0.2617180E+03  0.7546771E-02  0.1106115E+00
         21   -1    0    0  502  501  0.00000000000E+00  0.00000000000E+00  0.29819391233E+03  0.29819391233E+03  0.00000000000E+00 0.  1.
         21   -1    0    0  504  502 -0.00000000000E+00 -0.00000000000E+00 -0.33958148488E+03  0.33958148488E+03  0.00000000000E+00 0.  1.
         25    1    1    2    0    0  0.17904520110E+03  0.11952753758E+03  0.14241202291E+03  0.28679295763E+03  0.12500000000E+03 0.  0.
         21    1    1    2  503  501  0.30986329001E+02 -0.16472061997E+02  0.20277157598E+02  0.40529551338E+02  0.00000000000E+00 0.  1.
         21    1    1    2  504  503 -0.21003153010E+03 -0.10305547558E+03 -0.20407675306E+03  0.31045288824E+03  0.00000000000E+00 0.  1.
<mgrwt>
<rscale>  4 0.26171802E+03</rscale>
<asrwt>0</asrwt>
<pdfrwt beam="1">  1       21 0.45875987E-01 0.26171802E+03</pdfrwt>
<pdfrwt beam="2">  1       21 0.52243305E-01 0.26171802E+03</pdfrwt>
<totfact> 0.15230273E+04</totfact>
</mgrwt>
</event>
<event>
 5    0  0.1911311E+001  0.2978083E+03  0.7546771E-02  0.1086341E+00
         21   -1    0    0  504  501  0.00000000000E+00  0.00000000000E+00  0.30917976792E+03  0.30917976792E+03  0.00000000000E+00 0. -1.
         21   -1    0    0  503  502 -0.00000000000E+00 -0.00000000000E+00 -0.31500525952E+03  0.31500525952E+03  0.00000000000E+00 0. -1.
         25    1    1    2    0    0 -0.23526614939E+03  0.63154523708E+02 -0.76016986880E+02  0.28415178551E+03  0.12500000000E+03 0.  0.
         21    1    1    2  503  501  0.27453868146E+03 -0.83696826810E+02  0.71155495630E+02  0.29570213222E+03  0.00000000000E+00 0. -1.
         21    1    1    2  504  502 -0.39272532074E+02  0.20542303102E+02 -0.96400035198E+00  0.44331109719E+02  0.00000000000E+00 0. -1.
<mgrwt>
<rscale>  4 0.29780828E+03</rscale>
<asrwt>0</asrwt>
<pdfrwt beam="1">  1       21 0.47566118E-01 0.29780828E+03</pdfrwt>
<pdfrwt beam="2">  1       21 0.48462347E-01 0.29780828E+03</pdfrwt>
<totfact> 0.16280410E+04</totfact>
</mgrwt>
</event>
<event>
 5    0  0.1911311E+001  0.2003137E+03  0.7546771E-02  0.1149475E+00
         21   -1    0    0  503  501  0.00000000000E+00  0.00000000000E+00  0.20544182442E+04  0.20544182442E+04  0.00000000000E+00 0. -1.
         21   -1    0    0  504  502 -0.00000000000E+00 -0.00000000000E+00 -0.72435088443E+02  0.72435088443E+02  0.00000000000E+00 0. -1.
         25    1    1    2    0    0  0.22089669032E+03  0.42105370397E+02  0.15076872543E+04  0.15294816334E+04  0.12500000000E+03 0.  0.
         21    1    1    2  503  502 -0.14893799219E+03 -0.30753105560E+02  0.40333726201E+02  0.15733749867E+03  0.00000000000E+00 0. -1.
         21    1    1    2  504  501 -0.71958698135E+02 -0.11352264837E+02  0.43396217527E+03  0.44003420063E+03  0.00000000000E+00 0. -1.
<mgrwt>
<rscale>  4 0.20031369E+03</rscale>
<asrwt>0</asrwt>
<pdfrwt beam="1">  1       21 0.31606430E+00 0.20031369E+03</pdfrwt>
<pdfrwt beam="2">  1       21 0.11143861E-01 0.20031369E+03</pdfrwt>
<totfact> 0.18287984E+03</totfact>
</mgrwt>
</event>
<event>
 5    0  0.1911311E+001  0.2415273E+03  0.7546771E-02  0.1118780E+00
         21   -1    0    0  502  501  0.00000000000E+00  0.00000000000E+00  0.15623466124E+03  0.15623466124E+03  0.00000000000E+00 0. -1.
         21   -1    0    0  504  502 -0.00000000000E+00 -0.00000000000E+00 -0.37792307710E+03  0.37792307710E+03  0.00000000000E+00 0. -1.
         25    1    1    2    0    0  0.16859613904E+03  0.11952314727E+03 -0.20598979942E+03  0.31743855830E+03  0.12500000000E+03 0.  0.
         21    1    1    2  503  501 -0.55964554216E+02 -0.44703200364E+02  0.24419928404E+02  0.75675229466E+02  0.00000000000E+00 0. -1.
         21    1    1    2  504  503 -0.11263158483E+03 -0.74819946901E+02 -0.40118544849E+02  0.14104395058E+03  0.00000000000E+00 0. -1.
<mgrwt>
<rscale>  4 0.24152731E+03</rscale>
<asrwt>0</asrwt>
<pdfrwt beam="1">  1       21 0.24036102E-01 0.24152731E+03</pdfrwt>
<pdfrwt beam="2">  1       21 0.58142012E-01 0.24152731E+03</pdfrwt>
<totfact> 0.44225268E+04</totfact>
</mgrwt>
</event>
<event>
 5    0  0.2132145E+001  0.2837462E+03  0.7546771E-02  0.1093660E+00
         21   -1    0    0  504  501  0.00000000000E+00  0.00000000000E+00  0.10399316762E+04  0.10399316762E+04  0.00000000000E+00 0. -1.
         21   -1    0    0  503  502 -0.00000000000E+00 -0.00000000000E+00 -0.10251823711E+03  0.10251823711E+03  0.00000000000E+00 0. -1.
         25    1    1    2    0    0  0.24117084471E+03 -0.82035140231E+01  0.20905932184E+03  0.34287238738E+03  0.12500000000E+03 0.  0.
         21    1    1    2  503  501  0.17296599130E+02 -0.11872674857E+02 -0.51548078788E+01  0.21603351453E+02  0.00000000000E+00 0.  1.
         21    1    1    2  504  502 -0.25846744384E+03  0.20076188880E+02  0.73350892510E+03  0.77797417443E+03  0.00000000000E+00 0. -1.
<mgrwt>
<rscale>  4 0.28374616E+03</rscale>
<asrwt>0</asrwt>
<pdfrwt beam="1">  1       21 0.15998948E+00 0.28374616E+03</pdfrwt>
<pdfrwt beam="2">  1       21 0.15772037E-01 0.28374616E+03</pdfrwt>
<totfact> 0.84809611E+03</totfact>
</mgrwt>
</event>
