<event>
 5    0  0.2306346E+000  0.2533249E+03  0.7546771E-02  0.1111221E+00
         21   -1    0    0  503  502  0.00000000000E+00  0.00000000000E+00  0.50681732843E+02  0.50681732843E+02  0.00000000000E+00 0.  1.
          1   -1    0    0  502    0 -0.00000000000E+00 -0.00000000000E+00 -0.14553988048E+04  0.14553988048E+04  0.00000000000E+00 0. -1.
         25    1    1    2    0    0  0.20527555973E+03  0.17197716293E+02 -0.61036405107E+03  0.65620354442E+03  0.12500000000E+03 0.  0.
         21    1    1    2  503  501  0.21508961903E+02  0.29928914854E+02 -0.20652750675E+02  0.42248212944E+02  0.00000000000E+00 0. -1.
          1    1    1    2  501    0 -0.22678452163E+03 -0.47126631148E+02 -0.77370027021E+03  0.80762878028E+03  0.00000000000E+00 0. -1.
<mgrwt>
<rscale>  4 0.25332492E+03</rscale>
<asrwt>0</asrwt>
<pdfrwt beam="1">  1       21 0.77971886E-02 0.25332492E+03</pdfrwt>
<pdfrwt beam="2">  1        1 0.22390754E+00 0.25332492E+03</pdfrwt>
<totfact> 0.10714417E+04</totfact>
</mgrwt>
</event>
<event>
 5    0  0.2306346E+000  0.2061012E+03  0.7546771E-02  0.1144691E+00
         -3   -1    0    0    0  501 -0.00000000000E+00  0.00000000000E+00  0.30893747935E+02  0.30893747935E+02  0.00000000000E+00 0.  1.
         21   -1    0    0  501  502  0.00000000000E+00 -0.00000000000E+00 -0.20890644118E+04  0.20890644118E+04  0.00000000000E+00 0.  1.
         25    1    1    2    0    0  0.30266644460E+02  0.20354051188E+03 -0.14746725177E+04  0.14941983952E+04  0.12500000000E+03 0.  0.
         21    1    1    2  503  502 -0.20511906167E+02 -0.48941804505E+02 -0.28033342635E+03  0.28531187927E+03  0.00000000000E+00 0.  1.
         -3    1    1    2    0  503 -0.97547382929E+01 -0.15459870738E+03 -0.30316471978E+03  0.34044788524E+03  0.00000000000E+00 0.  1.
<mgrwt>
<rscale>  4 0.20610116E+03</rscale>
<asrwt>0</asrwt>
<pdfrwt beam="1">  1       21 0.32139457E+00 0.20610116E+03</pdfrwt>
<pdfrwt beam="2">  1       -3 0.47528837E-02 0.20610116E+03</pdfrwt>
<totfact> 0.30943058E+02</totfact>
</mgrwt>
</event>
<event>
 5    0  0.2306346E+000  0.2085604E+03  0.7546771E-02  0.1142711E+00
          2   -1    0    0  502    0 -0.00000000000E+00  0.00000000000E+00  0.22969875264E+04  0.22969875264E+04  0.00000000000E+00 0.  1.
         21   -1    0    0  503  502  0.00000000000E+00 -0.00000000000E+00 -0.11073678581E+03  0.11073678581E+03  0.00000000000E+00 0. -1.
         25    1    1    2    0    0  0.14213085589E+03  0.16195930950E+03  0.46608423853E+03  0.52848038331E+03  0.12500000000E+03 0.  0.
         21    1    1    2  503  501 -0.11151333556E+02 -0.66984270643E+02 -0.60677382210E+02  0.91065852357E+02  0.00000000000E+00 0. -1.
          2    1    1    2  501    0 -0.13097952234E+03 -0.94975038860E+02  0.17808438843E+04  0.17881780765E+04  0.00000000000E+00 0.  1.
<mgrwt>
<rscale>  4 0.20856036E+03</rscale>
<asrwt>0</asrwt>
<pdfrwt beam="1">  1       21 0.17036430E-01 0.20856036E+03</pdfrwt>
<pdfrwt beam="2">  1        2 0.35338266E+00 0.20856036E+03</pdfrwt>
<totfact> 0.20719239E+03</totfact>
</mgrwt>
</event>
<event>
 5    0  0.2306346E+000  0.3419956E+03  0.7546771E-02  0.1065949E+00
          2   -1    0    0  502    0 -0.00000000000E+00  0.00000000000E+00  0.53446144287E+03  0.53446144287E+03  0.00000000000E+00 0. -1.
         21   -1    0    0  503  502  0.00000000000E+00 -0.00000000000E+00 -0.86510382934E+03  0.86510382934E+03  0.00000000000E+00 0. -1.
         25    1    1    2    0    0 -0.63064835839E+02  0.27100951749E+03 -0.69167694462E+03  0.75595325768E+03  0.12500000000E+03 0.  0.
         21    1    1    2  503  501 -0.49277076552E+01  0.42920548336E+02 -0.84181291502E+02  0.94620006400E+02  0.00000000000E+00 0. -1.
          2    1    1    2  501    0  0.67992543495E+02 -0.31393006583E+03  0.44521584966E+03  0.54899200813E+03  0.00000000000E+00 0. -1.
<mgrwt>
<rscale>  4 0.34199561E+03</rscale>
<asrwt>0</asrwt>
<pdfrwt beam="1">  1       21 0.13309290E+00 0.34199561E+03</pdfrwt>
<pdfrwt beam="2">  1        2 0.82224838E-01 0.34199561E+03</pdfrwt>
<totfact> 0.27114808E+02</totfact>
</mgrwt>
</event>
<event>
 5    0  0.2306346E+000  0.4757465E+03  0.7546771E-02  0.1020311E+00
         21   -1    0    0  503  502  0.00000000000E+00  0.00000000000E+00  0.57047501944E+03  0.57047501944E+03  0.00000000000E+00 0. -1.
          2   -1    0    0  502    0 -0.00000000000E+00 -0.00000000000E+00 -0.80883846175E+03  0.80883846175E+03  0.00000000000E+00 0. -1.
         25    1    1    2    0    0 -0.41106792849E+03  0.38476983907E+03  0.18402636393E+03  0.60540513172E+03  0.12500000000E+03 0.  0.
         21    1    1    2  503  501  0.31882366536E+03 -0.15257511375E+03 -0.10250547178E+03  0.36801503594E+03  0.00000000000E+00 0. -1.
          2    1    1    2  501    0  0.92244263132E+02 -0.23219472531E+03 -0.31988433446E+03  0.40589331354E+03  0.00000000000E+00 0. -1.
<mgrwt>
<rscale>  4 0.47574655E+03</rscale>
<asrwt>0</asrwt>
<pdfrwt beam="1">  1       21 0.87765388E-01 0.47574655E+03</pdfrwt>
<pdfrwt beam="2">  1        2 0.12443669E+00 0.47574655E+03</pdfrwt>
<totfact> 0.43761782E+02</totfact>
</mgrwt>
</event>
<event>
 5    0  0.2306346E+000  0.3473501E+03  0.7546771E-02  0.1063708E+00
          2   -1    0    0  502    0 -0.00000000000E+00  0.00000000000E+00  0.98326007456E+03  0.98326007456E+03  0.00000000000E+00 0. -1.
         21   -1    0    0  503  502  0.00000000000E+00 -0.00000000000E+00 -0.32624698638E+03  0.32624698638E+03  0.00000000000E+00 0.  1.
         25    1    1    2    0    0 -0.22106246295E+03 -0.23482920365E+03 -0.18234599284E+03  0.39100949927E+03  0.12500000000E+03 0.  0.
         21    1    1    2  503  501 -0.23479233614E+02  0.23421009762E+01  0.15531033251E+02  0.28248413087E+02  0.00000000000E+00 0. -1.
          2    1    1    2  501    0  0.24454169656E+03  0.23248710267E+03  0.82382804776E+03  0.89024914858E+03  0.00000000000E+00 0. -1.
<mgrwt>
<rscale>  4 0.34735013E+03</rscale>
<asrwt>0</asrwt>
<pdfrwt beam="1">  1       21 0.50191844E-01 0.34735013E+03</pdfrwt>
<pdfrwt beam="2">  1        2 0.15127078E+00 0.34735013E+03</pdfrwt>
<totfact> 0.12100935E+03</totfact>
</mgrwt>
</event>
<event>
 5    0  0.2306346E+000  0.2268748E+03  0.7546771E-02  0.1128859E+00
          1   -1    0    0  502    0 -0.00000000000E+00  0.00000000000E+00  0.23342656233E+03  0.23342656233E+03  0.00000000000E+00 0. -1.
         21   -1    0    0  503  502  0.00000000000E+00 -0.00000000000E+00 -0.79655610224E+03  0.79655610224E+03  0.00000000000E+00 0. -1.
         25    1    1    2    0    0  0.18379649788E+03 -0.10853164984E+03  0.10416975450E+02  0.24757581673E+03  0.12500000000E+03 0.  0.
         21    1    1    2  503  501 -0.21369518691E+02  0.43075193217E+02 -0.60292508833E+03  0.60483947518E+03  0.00000000000E+00 0. -1.
          1    1    1    2  501    0 -0.16242697919E+03  0.65456456620E+02  0.29378572977E+02  0.17756737266E+03  0.00000000000E+00 0. -1.
<mgrwt>
<rscale>  4 0.22687477E+03</rscale>
<asrwt>0</asrwt>
<pdfrwt beam="1">  1       21 0.12254709E+00 0.22687477E+03</pdfrwt>
<pdfrwt beam="2">  1        1 0.35911779E-01 0.22687477E+03</pdfrwt>
<totfact> 0.64464820E+02</totfact>
</mgrwt>
</event>
<event>
 5    0  0.2306346E+000  0.3486639E+03  0.7546771E-02  0.1063165E+00
         21   -1    0    0  503  502  0.00000000000E+00  0.00000000000E+00  0.85002873761E+03  0.85002873761E+03  0.00000000000E+00 0. -1.
          1   -1    0    0  502    0 -0.00000000000E+00 -0.00000000000E+00 -0.39090123568E+03  0.39090123568E+03  0.00000000000E+00 0. -1.
         25    1    1    2    0    0  0.23899221989E+02 -0.35923384985E+03  0.53774397672E+03  0.65910068744E+03  0.12500000000E+03 0.  0.
         21    1    1    2  503  501 -0.37704823138E+02  0.27769105446E+03  0.16455381047E+03  0.32497989469E+03  0.00000000000E+00 0. -1.
          1    1    1    2  501    0  0.13805601149E+02  0.81542795389E+02 -0.24317028527E+03  0.25684939116E+03  0.00000000000E+00 0. -1.
<mgrwt>
<rscale>  4 0.34866393E+03</rscale>
<asrwt>0</asrwt>
<pdfrwt beam="1">  1       21 0.13077365E+00 0.34866393E+03</pdfrwt>
<pdfrwt beam="2">  1        1 0.60138652E-01 0.34866393E+03</pdfrwt>
<totfact> 0.26905922E+02</totfact>
</mgrwt>
</event>
<event>
 5    0  0.2306346E+000  0.2140891E+03  0.7546771E-02  0.1138368E+00
          1   -1    0    0  502    0 -0.00000000000E+00  0.00000000000E+00  0.37290072356E+04  0.37290072356E+04  0.00000000000E+00 0.  1.
         21   -1    0    0  503  502  0.00000000000E+00 -0.00000000000E+00 -0.78305741372E+02  0.78305741372E+02  0.00000000000E+00 0. -1.
         25    1    1    2    0    0 -0.22114422302E+02  0.27169025584E+03  0.27909173628E+04  0.28069822530E+04  0.12500000000E+03 0.  0.
         21    1    1    2  503  501 -0.21891569891E+01 -0.17002706932E+03  0.41016932648E+02  0.17491822510E+03  0.00000000000E+00 0. -1.
          1    1    1    2  501    0  0.24303579291E+02 -0.10166318652E+03  0.81876719876E+03  0.82541249883E+03  0.00000000000E+00 0.  1.
<mgrwt>
<rscale>  4 0.21408909E+03</rscale>
<asrwt>0</asrwt>
<pdfrwt beam="1">  1       21 0.12047040E-01 0.21408909E+03</pdfrwt>
<pdfrwt beam="2">  1        1 0.57369328E+00 0.21408909E+03</pdfrwt>
<totfact> 0.14003409E+02</totfact>
</mgrwt>
</event>
<event>
 5    0  0.2306346E+000  0.2633709E+03  0.7546771E-02  0.1105135E+00
         21   -1    0    0  503  502  0.00000000000E+00  0.00000000000E+00  0.12622929219E+04  0.12622929219E+04  0.00000000000E+00 0. -1.
          1   -1    0    0  502    0 -0.00000000000E+00 -0.00000000000E+00 -0.70040557197E+03  0.70040557197E+03  0.00000000000E+00 0.  1.
         25    1    1    2    0    0 -0.22993482680E+03  0.10161860473E+03 -0.26297742584E+03  0.38467972640E+03  0.12500000000E+03 0.  0.
         21    1    1    2  503  501  0.26323673871E+02 -0.14778308829E+02  0.11687009820E+04  0.11690908090E+04  0.00000000000E+00 0. -1.
          1    1    1    2  501    0  0.20361115293E+03 -0.86840295899E+02 -0.34383620621E+03  0.40892795855E+03  0.00000000000E+00 0.  1.
<mgrwt>
<rscale>  4 0.26337094E+03</rscale>
<asrwt>0</asrwt>
<pdfrwt beam="1">  1       21 0.19419891E+00 0.26337094E+03</pdfrwt>
<pdfrwt beam="2">  1        1 0.10775470E+00 0.26337094E+03</pdfrwt>
<totfact> 0.43021509E+01</totfact>
</mgrwt>
</event>
<event>
 5    0  0.2306346E+000  0.2140869E+03  0.7546771E-02  0.1138370E+00
          2   -1    0    0  502    0 -0.00000000000E+00  0.00000000000E+00  0.52311489098E+03  0.52311489098E+03  0.00000000000E+00 0.  1.
         21   -1    0    0  503  502  0.00000000000E+00 -0.00000000000E+00 -0.28002795203E+03  0.28002795203E+03  0.00000000000E+00 0. -1.
         25    1    1    2    0    0 -0.16422496314E+03  0.17631319320E+03 -0.10967164642E+03  0.29276108116E+03  0.12500000000E+03 0.  0.
         21    1    1    2  503  501  0.83330065932E+02 -0.28539907735E+02 -0.29301945075E+02  0.92827960265E+02  0.00000000000E+00 0.  1.
          2    1    1    2  501    0  0.80894897212E+02 -0.14777328546E+03  0.38206053044E+03  0.41755380158E+03  0.00000000000E+00 0.  1.
<mgrwt>
<rscale>  4 0.21408694E+03</rscale>
<asrwt>0</asrwt>
<pdfrwt beam="1">  1       21 0.43081223E-01 0.21408694E+03</pdfrwt>
<pdfrwt beam="2">  1        2 0.80479214E-01 0.21408694E+03</pdfrwt>
<totfact> 0.38101861E+03</totfact>
</mgrwt>
</event>
<event>
 5    0  0.2306346E+000  0.2494176E+03  0.7546771E-02  0.1113673E+00
         21   -1    0    0  503  502  0.00000000000E+00  0.00000000000E+00  0.44054640603E+03  0.44054640603E+03  0.00000000000E+00 0. -1.
          2   -1    0    0  502    0 -0.00000000000E+00 -0.00000000000E+00 -0.46550147162E+03  0.46550147162E+03  0.00000000000E+00 0. -1.
         25    1    1    2    0    0 -0.19181365179E+03 -0.81617664326E+02  0.24717146868E+03  0.34665927807E+03  0.12500000000E+03 0.  0.
         21    1    1    2  503  501  0.92972151219E+01 -0.35382287634E+02  0.11226459261E+03  0.11807490522E+03  0.00000000000E+00 0. -1.
          2    1    1    2  501    0  0.18251643667E+03  0.11699995196E+03 -0.38439112688E+03  0.44131369437E+03  0.00000000000E+00 0. -1.
<mgrwt>
<rscale>  4 0.24941756E+03</rscale>
<asrwt>0</asrwt>
<pdfrwt beam="1">  1       21 0.67776371E-01 0.24941756E+03</pdfrwt>
<pdfrwt beam="2">  1        2 0.71615611E-01 0.24941756E+03</pdfrwt>
<totfact> 0.16381220E+03</totfact>
</mgrwt>
</event>
<event>
 5    0  0.2306346E+000  0.3984534E+03  0.7546771E-02  0.1044317E+00
         21   -1    0    0  503  502  0.00000000000E+00  0.00000000000E+00  0.23440362713E+03  0.23440362713E+03  0.00000000000E+00 0. -1.
          2   -1    0    0  502    0 -0.00000000000E+00 -0.00000000000E+00 -0.12244642072E+04  0.12244642072E+04  0.00000000000E+00 0.  1.
         25    1    1    2    0    0  0.24211502279E+03 -0.31714160730E+03 -0.22813430188E+03  0.47630740393E+03  0.12500000000E+03 0.  0.
         21    1    1    2  503  501 -0.55633019234E+02 -0.52223890019E+01  0.58907499426E+02  0.81193593741E+02  0.00000000000E+00 0. -1.
          2    1    1    2  501    0 -0.18648200356E+03  0.32236399630E+03 -0.82083377759E+03  0.90136683664E+03  0.00000000000E+00 0.  1.
<mgrwt>
<rscale>  4 0.39845340E+03</rscale>
<asrwt>0</asrwt>
<pdfrwt beam="1">  1       21 0.36062097E-01 0.39845340E+03</pdfrwt>
<pdfrwt beam="2">  1        2 0.18837911E+00 0.39845340E+03</pdfrwt>
<totfact> 0.16962574E+03</totfact>
</mgrwt>
</event>
<event>
 5    0  0.2306346E+000  0.2491810E+03  0.7546771E-02  0.1113824E+00
         21   -1    0    0  501  502  0.00000000000E+00  0.00000000000E+00  0.21440154916E+04  0.21440154916E+04  0.00000000000E+00 0. -1.
         -1   -1    0    0    0  501 -0.00000000000E+00 -0.00000000000E+00 -0.14254547171E+03  0.14254547171E+03  0.00000000000E+00 0.  1.
         25    1    1    2    0    0 -0.81912784923E+01  0.23788719705E+03  0.18554602977E+04  0.18748374148E+04  0.12500000000E+03 0.  0.
         21    1    1    2  503  502  0.13010959203E+02 -0.23414699956E+02  0.19071613280E+03  0.19258810073E+03  0.00000000000E+00 0.  1.
         -1    1    1    2    0  503 -0.48196807104E+01 -0.21447249710E+03 -0.44706410589E+02  0.21913544780E+03  0.00000000000E+00 0.  1.
<mgrwt>
<rscale>  4 0.24918100E+03</rscale>
<asrwt>0</asrwt>
<pdfrwt beam="1">  1       21 0.32984851E+00 0.24918100E+03</pdfrwt>
<pdfrwt beam="2">  1       -1 0.21930074E-01 0.24918100E+03</pdfrwt>
<totfact> 0.33876744E+01</totfact>
</mgrwt>
</event>
<event>
 5    0  0.2306346E+000  0.2712720E+03  0.7546771E-02  0.1100554E+00
         21   -1    0    0  503  502  0.00000000000E+00  0.00000000000E+00  0.95117883144E+03  0.95117883144E+03  0.00000000000E+00 0.  1.
          2   -1    0    0  502    0 -0.00000000000E+00 -0.00000000000E+00 -0.23744296876E+04  0.23744296876E+04  0.00000000000E+00 0. -1.
         25    1    1    2    0    0  0.14365869047E+03 -0.16258966161E+03  0.59713732197E+03  0.64751154330E+03  0.12500000000E+03 0.  0.
         21    1    1    2  503  501  0.39607250396E+02  0.60612897660E+01  0.32142570761E+03  0.32391350547E+03  0.00000000000E+00 0.  1.
          2    1    1    2  501    0 -0.18326594086E+03  0.15652837184E+03 -0.23418138857E+04  0.23541834702E+04  0.00000000000E+00 0. -1.
<mgrwt>
<rscale>  4 0.27127202E+03</rscale>
<asrwt>0</asrwt>
<pdfrwt beam="1">  1       21 0.14633521E+00 0.27127202E+03</pdfrwt>
<pdfrwt beam="2">  1        2 0.36529687E+00 0.27127202E+03</pdfrwt>
<totfact> 0.17916272E+01</totfact>
</mgrwt>
</event>
<event>
 5    0  0.2306346E+000  0.3062589E+03  0.7546771E-02  0.1082153E+00
         21   -1    0    0  503  502  0.00000000000E+00  0.00000000000E+00  0.46841248199E+03  0.46841248199E+03  0.00000000000E+00 0.  1.
          1   -1    0    0  502    0 -0.00000000000E+00 -0.00000000000E+00 -0.13189512731E+04  0.13189512731E+04  0.00000000000E+00 0. -1.
         25    1    1    2    0    0  0.19110987976E+03  0.17493042847E+03  0.26054594768E+03  0.38811445708E+03  0.12500000000E+03 0.  0.
         21    1    1    2  503  501  0.86204707234E+01  0.22142827788E+02  0.12728789442E+03  0.12948677694E+03  0.00000000000E+00 0.  1.
          1    1    1    2  501    0 -0.19973035048E+03 -0.19707325626E+03 -0.12383726332E+04  0.12697625211E+04  0.00000000000E+00 0. -1.
<mgrwt>
<rscale>  4 0.30625886E+03</rscale>
<asrwt>0</asrwt>
<pdfrwt beam="1">  1       21 0.72063459E-01 0.30625886E+03</pdfrwt>
<pdfrwt beam="2">  1        1 0.20291558E+00 0.30625886E+03</pdfrwt>
<totfact> 0.17291130E+02</totfact>
</mgrwt>
</event>
<event>
 5    0  0.2306346E+000  0.3017699E+03  0.7546771E-02  0.1084359E+00
         -1   -1    0    0    0  501 -0.00000000000E+00  0.00000000000E+00  0.17594571391E+04  0.17594571391E+04  0.00000000000E+00 0. -1.
         21   -1    0    0  501  502  0.00000000000E+00 -0.00000000000E+00 -0.65235147835E+02  0.65235147835E+02  0.00000000000E+00 0. -1.
         25    1    1    2    0    0  0.25184785287E+03 -0.64749102616E+02  0.12163170917E+04  0.12500688200E+04  0.12500000000E+03 0.  0.
         21    1    1    2  503  502 -0.26867492706E+03  0.77326283943E+02  0.36495543364E+03  0.45973692386E+03  0.00000000000E+00 0. -1.
         -1    1    1    2    0  503  0.16827074194E+02 -0.12577181327E+02  0.11294946591E+03  0.11488654302E+03  0.00000000000E+00 0. -1.
<mgrwt>
<rscale>  4 0.30176992E+03</rscale>
<asrwt>0</asrwt>
<pdfrwt beam="1">  1       21 0.10036178E-01 0.30176992E+03</pdfrwt>
<pdfrwt beam="2">  1       -1 0.27068568E+00 0.30176992E+03</pdfrwt>
<totfact> 0.43618635E+02</totfact>
</mgrwt>
</event>
<event>
 5    0  0.2306346E+000  0.2258787E+03  0.7546771E-02  0.1129575E+00
         21   -1    0    0  503  502  0.00000000000E+00  0.00000000000E+00  0.67187129369E+02  0.67187129369E+02  0.00000000000E+00 0.  1.
          1   -1    0    0  502    0 -0.00000000000E+00 -0.00000000000E+00 -0.90107384313E+03  0.90107384313E+03  0.00000000000E+00 0. -1.
         25    1    1    2    0    0 -0.19339025919E+03 -0.82516334797E+02 -0.36532828978E+03  0.43965724965E+03  0.12500000000E+03 0.  0.
         21    1    1    2  503  501  0.18113483815E+02  0.47122412000E+02 -0.40579796383E+02  0.64771443423E+02  0.00000000000E+00 0.  1.
          1    1    1    2  501    0  0.17527677537E+03  0.35393922798E+02 -0.42797862761E+03  0.46383227943E+03  0.00000000000E+00 0. -1.
<mgrwt>
<rscale>  4 0.22587874E+03</rscale>
<asrwt>0</asrwt>
<pdfrwt beam="1">  1       21 0.10336481E-01 0.22587874E+03</pdfrwt>
<pdfrwt beam="2">  1        1 0.13862675E+00 0.22587874E+03</pdfrwt>
<totfact> 0.16232327E+04</totfact>
</mgrwt>
</event>
<event>
 5    0  0.2306346E+000  0.3324756E+03  0.7546771E-02  0.1070047E+00
          1   -1    0    0  502    0 -0.00000000000E+00  0.00000000000E+00  0.49714627990E+03  0.49714627990E+03  0.00000000000E+00 0.  1.
         21   -1    0    0  503  502  0.00000000000E+00 -0.00000000000E+00 -0.27189481321E+03  0.27189481321E+03  0.00000000000E+00 0.  1.
         25    1    1    2    0    0  0.27914846953E+03 -0.69454298769E+02  0.28610829977E+02  0.31494657841E+03  0.12500000000E+03 0.  0.
         21    1    1    2  503  501  0.25302074146E+02 -0.28433148401E+02 -0.40791446748E+02  0.55790510052E+02  0.00000000000E+00 0.  1.
          1    1    1    2  501    0 -0.30445054368E+03  0.97887447170E+02  0.23743208345E+03  0.39830400464E+03  0.00000000000E+00 0.  1.
<mgrwt>
<rscale>  4 0.33247562E+03</rscale>
<asrwt>0</asrwt>
<pdfrwt beam="1">  1       21 0.41829971E-01 0.33247562E+03</pdfrwt>
<pdfrwt beam="2">  1        1 0.76484043E-01 0.33247562E+03</pdfrwt>
<totfact> 0.26493118E+03</totfact>
</mgrwt>
</event>
<event>
 5    0  0.2306346E+000  0.4295766E+03  0.7546771E-02  0.1033994E+00
         21   -1    0    0  503  502  0.00000000000E+00  0.00000000000E+00  0.94033526982E+02  0.94033526982E+02  0.00000000000E+00 0.  1.
          2   -1    0    0  502    0 -0.00000000000E+00 -0.00000000000E+00 -0.21270477786E+04  0.21270477786E+04  0.00000000000E+00 0.  1.
         25    1    1    2    0    0  0.95065195553E+02 -0.41819751357E+03 -0.96835459899E+03  0.10664249534E+04  0.12500000000E+03 0.  0.
         21    1    1    2  503  501  0.77492037161E+01  0.34047148225E+02 -0.29403702317E+02  0.45649054431E+02  0.00000000000E+00 0.  1.
          2    1    1    2  501    0 -0.10281439927E+03  0.38415036535E+03 -0.10352559503E+04  0.11090072978E+04  0.00000000000E+00 0.  1.
<mgrwt>
<rscale>  4 0.42957655E+03</rscale>
<asrwt>0</asrwt>
<pdfrwt beam="1">  1       21 0.14466696E-01 0.42957655E+03</pdfrwt>
<pdfrwt beam="2">  1        2 0.32723814E+00 0.42957655E+03</pdfrwt>
<totfact> 0.31685793E+03</totfact>
</mgrwt>
</event>
<event>
 5    0  0.2306346E+000  0.3161985E+03  0.7546771E-02  0.1077412E+00
         21   -1    0    0  503  502  0.00000000000E+00  0.00000000000E+00  0.62049174813E+02  0.62049174813E+02  0.00000000000E+00 0.  1.
          2   -1    0    0  502    0 -0.00000000000E+00 -0.00000000000E+00 -0.19684084067E+04  0.19684084067E+04  0.00000000000E+00 0.  1.
         25    1    1    2    0    0  0.19268718006E+03  0.16737479428E+03 -0.56231251438E+03  0.63005002575E+03  0.12500000000E+03 0.  0.
         21    1    1    2  503  501  0.74600924773E+02 -0.37176362413E+01 -0.17941311763E+03  0.19434038586E+03  0.00000000000E+00 0. -1.
          2    1    1    2  501    0 -0.26728810483E+03 -0.16365715804E+03 -0.11646335998E+04  0.12060671699E+04  0.00000000000E+00 0.  1.
<mgrwt>
<rscale>  4 0.31619849E+03</rscale>
<asrwt>0</asrwt>
<pdfrwt beam="1">  1       21 0.95460274E-02 0.31619849E+03</pdfrwt>
<pdfrwt beam="2">  1        2 0.30283205E+00 0.31619849E+03</pdfrwt>
<totfact> 0.84364521E+03</totfact>
</mgrwt>
</event>
<event>
 5    0  0.2306346E+000  0.2613174E+03  0.7546771E-02  0.1106354E+00
          2   -1    0    0  502    0 -0.00000000000E+00  0.00000000000E+00  0.29778062896E+04  0.29778062896E+04  0.00000000000E+00 0.  1.
         21   -1    0    0  503  502  0.00000000000E+00 -0.00000000000E+00 -0.84732301046E+03  0.84732301046E+03  0.00000000000E+00 0. -1.
         25    1    1    2    0    0 -0.27691410112E+03  0.34073499239E+02 -0.78830943434E+03  0.84551711220E+03  0.12500000000E+03 0.  0.
         21    1    1    2  503  501  0.48542772996E+02 -0.14480349217E+02 -0.11670979558E+01  0.50669946134E+02  0.00000000000E+00 0. -1.
          2    1    1    2  501    0  0.22837132812E+03 -0.19593150022E+02  0.29199598114E+04  0.29289422417E+04  0.00000000000E+00 0.  1.
<mgrwt>
<rscale>  4 0.26131736E+03</rscale>
<asrwt>0</asrwt>
<pdfrwt beam="1">  1       21 0.13035739E+00 0.26131736E+03</pdfrwt>
<pdfrwt beam="2">  1        2 0.45812404E+00 0.26131736E+03</pdfrwt>
<totfact> 0.11187155E+01</totfact>
</mgrwt>
</event>
<event>
 5    0  0.2306346E+000  0.2468851E+03  0.7546771E-02  0.1115289E+00
          2   -1    0    0  502    0 -0.00000000000E+00  0.00000000000E+00  0.90174773007E+03  0.90174773007E+03  0.00000000000E+00 0. -1.
         21   -1    0    0  503  502  0.00000000000E+00 -0.00000000000E+00 -0.79547231833E+02  0.79547231833E+02  0.00000000000E+00 0. -1.
         25    1    1    2    0    0 -0.59587181729E+02 -0.22115192240E+03  0.54183861990E+03  0.60139246339E+03  0.12500000000E+03 0.  0.
         21    1    1    2  503  501 -0.21432916853E+02  0.41863401718E+02  0.14610893730E+02  0.49248274526E+02  0.00000000000E+00 0. -1.
          2    1    1    2  501    0  0.81020098582E+02  0.17928852068E+03  0.26575098461E+03  0.33065422399E+03  0.00000000000E+00 0. -1.
<mgrwt>
<rscale>  4 0.24688512E+03</rscale>
<asrwt>0</asrwt>
<pdfrwt beam="1">  1       21 0.12238036E-01 0.24688512E+03</pdfrwt>
<pdfrwt beam="2">  1        2 0.13873041E+00 0.24688512E+03</pdfrwt>
<totfact> 0.21547674E+04</totfact>
</mgrwt>
</event>
<event>
 5    0  0.2306346E+000  0.2407262E+03  0.7546771E-02  0.1119310E+00
          1   -1    0    0  502    0 -0.00000000000E+00  0.00000000000E+00  0.34120590870E+04  0.34120590870E+04  0.00000000000E+00 0. -1.
         21   -1    0    0  503  502  0.00000000000E+00 -0.00000000000E+00 -0.13108992324E+03  0.13108992324E+03  0.00000000000E+00 0.  1.
         25    1    1    2    0    0  0.99467090225E+02 -0.20904427068E+03  0.18133293081E+02  0.26371770031E+03  0.12500000000E+03 0.  0.
         21    1    1    2  503  501  0.10004561091E+02  0.35624386370E+02  0.63241822929E+02  0.73271524580E+02  0.00000000000E+00 0. -1.
          1    1    1    2  501    0 -0.10947165132E+03  0.17341988431E+03  0.31995940477E+04  0.32061597853E+04  0.00000000000E+00 0. -1.
<mgrwt>
<rscale>  4 0.24072625E+03</rscale>
<asrwt>0</asrwt>
<pdfrwt beam="1">  1       21 0.20167683E-01 0.24072625E+03</pdfrwt>
<pdfrwt beam="2">  1        1 0.52493210E+00 0.24072625E+03</pdfrwt>
<totfact> 0.92883728E+01</totfact>
</mgrwt>
</event>
<event>
 5    0  0.2306346E+000  0.2798821E+03  0.7546771E-02  0.1095753E+00
         21   -1    0    0  503  502  0.00000000000E+00  0.00000000000E+00  0.24199626086E+03  0.24199626086E+03  0.00000000000E+00 0. -1.
          4   -1    0    0  502    0 -0.00000000000E+00 -0.00000000000E+00 -0.10242437846E+04  0.10242437846E+04  0.00000000000E+00 0.  1.
         25    1    1    2    0    0 -0.22386215607E+03 -0.16777353615E+03 -0.35999426109E+03  0.47273998390E+03  0.12500000000E+03 0.  0.
         21    1    1    2  503  501  0.39622882742E+02  0.16661502864E+02  0.15931376766E+03  0.16501046961E+03  0.00000000000E+00 0. -1.
          4    1    1    2  501    0  0.18423927333E+03  0.15111203329E+03 -0.58156703031E+03  0.62848959194E+03  0.00000000000E+00 0.  1.
<mgrwt>
<rscale>  4 0.27988205E+03</rscale>
<asrwt>0</asrwt>
<pdfrwt beam="1">  1       21 0.37230194E-01 0.27988205E+03</pdfrwt>
<pdfrwt beam="2">  1        4 0.15757597E+00 0.27988205E+03</pdfrwt>
<totfact> 0.80014278E+01</totfact>
</mgrwt>
</event>
<event>
 5    0  0.2306346E+000  0.2250006E+03  0.7546771E-02  0.1130209E+00
         21   -1    0    0  503  502  0.00000000000E+00  0.00000000000E+00  0.34012883297E+02  0.34012883297E+02  0.00000000000E+00 0. -1.
          3   -1    0    0  502    0 -0.00000000000E+00 -0.00000000000E+00 -0.18960339589E+04  0.18960339589E+04  0.00000000000E+00 0.  1.
         25    1    1    2    0    0 -0.19835976028E+03  0.37082861401E+02 -0.67563103224E+03  0.71611732616E+03  0.12500000000E+03 0.  0.
         21    1    1    2  503  501  0.25430365323E+02  0.20805814180E+02 -0.34308133958E+02  0.47504036037E+02  0.00000000000E+00 0.  1.
          3    1    1    2  501    0  0.17292939496E+03 -0.57888675580E+02 -0.11520819094E+04  0.11664254800E+04  0.00000000000E+00 0.  1.
<mgrwt>
<rscale>  4 0.22500059E+03</rscale>
<asrwt>0</asrwt>
<pdfrwt beam="1">  1       21 0.52327513E-02 0.22500059E+03</pdfrwt>
<pdfrwt beam="2">  1        3 0.29169753E+00 0.22500059E+03</pdfrwt>
<totfact> 0.61210446E+02</totfact>
</mgrwt>
</event>
<event>
 5    0  0.2306346E+000  0.2432390E+03  0.7546771E-02  0.1117654E+00
          2   -1    0    0  502    0 -0.00000000000E+00  0.00000000000E+00  0.28418658775E+04  0.28418658775E+04  0.00000000000E+00 0.  1.
         21   -1    0    0  503  502  0.00000000000E+00 -0.00000000000E+00 -0.30116378605E+02  0.30116378605E+02  0.00000000000E+00 0.  1.
         25    1    1    2    0    0 -0.49529240339E+02  0.20502544541E+03  0.19708908550E+04  0.19860826623E+04  0.12500000000E+03 0.  0.
         21    1    1    2  503  501 -0.21733869672E+02 -0.11932665775E+02  0.52872428865E+01  0.25351618110E+02  0.00000000000E+00 0.  1.
          2    1    1    2  501    0  0.71263110012E+02 -0.19309277964E+03  0.83557140101E+03  0.86054797576E+03  0.00000000000E+00 0.  1.
<mgrwt>
<rscale>  4 0.24323899E+03</rscale>
<asrwt>0</asrwt>
<pdfrwt beam="1">  1       21 0.46332913E-02 0.24323899E+03</pdfrwt>
<pdfrwt beam="2">  1        2 0.43720992E+00 0.24323899E+03</pdfrwt>
<totfact> 0.10130571E+04</totfact>
</mgrwt>
</event>
<event>
 5    0  0.2306346E+000  0.2759801E+03  0.7546771E-02  0.1097905E+00
         21   -1    0    0  503  502  0.00000000000E+00  0.00000000000E+00  0.51364202511E+02  0.51364202511E+02  0.00000000000E+00 0.  1.
          2   -1    0    0  502    0 -0.00000000000E+00 -0.00000000000E+00 -0.16772628875E+04  0.16772628875E+04  0.00000000000E+00 0.  1.
         25    1    1    2    0    0 -0.22489253483E+03 -0.89416756183E+02 -0.92964715444E+03  0.96873156254E+03  0.12500000000E+03 0.  0.
         21    1    1    2  503  501  0.24528089265E+03  0.47696610666E+02 -0.50974179359E+03  0.56769215170E+03  0.00000000000E+00 0.  1.
          2    1    1    2  501    0 -0.20388357818E+02  0.41720145517E+02 -0.18650973699E+03  0.19220337580E+03  0.00000000000E+00 0.  1.
<mgrwt>
<rscale>  4 0.27598012E+03</rscale>
<asrwt>0</asrwt>
<pdfrwt beam="1">  1       21 0.79021840E-02 0.27598012E+03</pdfrwt>
<pdfrwt beam="2">  1        2 0.25804048E+00 0.27598012E+03</pdfrwt>
<totfact> 0.16960299E+04</totfact>
</mgrwt>
</event>
<event>
 5    0  0.2306346E+000  0.5366634E+03  0.7546771E-02  0.1004629E+00
         21   -1    0    0  503  502  0.00000000000E+00  0.00000000000E+00  0.14173387516E+04  0.14173387516E+04  0.00000000000E+00 0. -1.
          2   -1    0    0  502    0 -0.00000000000E+00 -0.00000000000E+00 -0.38158098385E+03  0.38158098385E+03  0.00000000000E+00 0. -1.
         25    1    1    2    0    0  0.46560233397E+03 -0.36142521641E+03  0.97056412031E+03  0.11423805986E+04  0.12500000000E+03 0.  0.
         21    1    1    2  503  501 -0.62771222200E+02  0.52951931687E+02  0.12085949446E+03  0.14612032989E+03  0.00000000000E+00 0. -1.
          2    1    1    2  501    0 -0.40283111177E+03  0.30847328472E+03 -0.55665846997E+02  0.51041880698E+03  0.00000000000E+00 0. -1.
<mgrwt>
<rscale>  4 0.53666341E+03</rscale>
<asrwt>0</asrwt>
<pdfrwt beam="1">  1       21 0.21805211E+00 0.53666341E+03</pdfrwt>
<pdfrwt beam="2">  1        2 0.58704768E-01 0.53666341E+03</pdfrwt>
<totfact> 0.89422671E+01</totfact>
</mgrwt>
</event>
<event>
 5    0  0.2306346E+000  0.4168578E+03  0.7546771E-02  0.1038094E+00
         21   -1    0    0  503  502  0.00000000000E+00  0.00000000000E+00  0.90431681922E+03  0.90431681922E+03  0.00000000000E+00 0.  1.
          3   -1    0    0  502    0 -0.00000000000E+00 -0.00000000000E+00 -0.31353448370E+03  0.31353448370E+03  0.00000000000E+00 0.  1.
         25    1    1    2    0    0 -0.15197556496E+03 -0.28705792016E+03  0.19954491230E+03  0.40117576434E+03  0.12500000000E+03 0.  0.
         21    1    1    2  503  501 -0.59029705715E+01 -0.15328799456E+03  0.30443154887E+03  0.34089679125E+03  0.00000000000E+00 0.  1.
          3    1    1    2  501    0  0.15787853553E+03  0.44034591472E+03  0.86805874364E+02  0.47577874733E+03  0.00000000000E+00 0.  1.
<mgrwt>
<rscale>  4 0.41685782E+03</rscale>
<asrwt>0</asrwt>
<pdfrwt beam="1">  1       21 0.13912566E+00 0.41685782E+03</pdfrwt>
<pdfrwt beam="2">  1        3 0.48236075E-01 0.41685782E+03</pdfrwt>
<totfact> 0.71433163E+01</totfact>
</mgrwt>
</event>
<event>
 5    0  0.2306346E+000  0.4731138E+03  0.7546771E-02  0.1021045E+00
          4   -1    0    0  502    0 -0.00000000000E+00  0.00000000000E+00  0.76013754219E+03  0.76013754219E+03  0.00000000000E+00 0. -1.
         21   -1    0    0  503  502  0.00000000000E+00 -0.00000000000E+00 -0.31016204823E+03  0.31016204823E+03  0.00000000000E+00 0. -1.
         25    1    1    2    0    0  0.34880818853E+03  0.28320995677E+03  0.21462581220E+03  0.51338511009E+03  0.12500000000E+03 0.  0.
         21    1    1    2  503  501  0.23097094748E+02 -0.75079222984E+01 -0.17006543114E+02  0.29649067299E+02  0.00000000000E+00 0. -1.
          4    1    1    2  501    0 -0.37190528328E+03 -0.27570203448E+03  0.25235622488E+03  0.52726541303E+03  0.00000000000E+00 0. -1.
<mgrwt>
<rscale>  4 0.47311382E+03</rscale>
<asrwt>0</asrwt>
<pdfrwt beam="1">  1       21 0.47717238E-01 0.47311382E+03</pdfrwt>
<pdfrwt beam="2">  1        4 0.11694424E+00 0.47311382E+03</pdfrwt>
<totfact> 0.99196369E+01</totfact>
</mgrwt>
</event>
<event>
 5    0  0.2306346E+000  0.3047426E+03  0.7546771E-02  0.1082894E+00
          1   -1    0    0  502    0 -0.00000000000E+00  0.00000000000E+00  0.31189032423E+04  0.31189032423E+04  0.00000000000E+00 0. -1.
         21   -1    0    0  503  502  0.00000000000E+00 -0.00000000000E+00 -0.15094661564E+03  0.15094661564E+03  0.00000000000E+00 0.  1.
         25    1    1    2    0    0  0.23306663161E+03 -0.12661673991E+03  0.10559628502E+03  0.31165273784E+03  0.12500000000E+03 0.  0.
         21    1    1    2  503  501 -0.25047022132E+01 -0.30188234677E+02 -0.35662637094E+02  0.46791310418E+02  0.00000000000E+00 0.  1.
          1    1    1    2  501    0 -0.23056192940E+03  0.15680497459E+03  0.28980229787E+04  0.29114058097E+04  0.00000000000E+00 0. -1.
<mgrwt>
<rscale>  4 0.30474264E+03</rscale>
<asrwt>0</asrwt>
<pdfrwt beam="1">  1       21 0.23222559E-01 0.30474264E+03</pdfrwt>
<pdfrwt beam="2">  1        1 0.47983122E+00 0.30474264E+03</pdfrwt>
<totfact> 0.11108321E+02</totfact>
</mgrwt>
</event>
<event>
 5    0  0.2306346E+000  0.2250712E+03  0.7546771E-02  0.1130158E+00
         21   -1    0    0  503  502  0.00000000000E+00  0.00000000000E+00  0.29812915119E+03  0.29812915119E+03  0.00000000000E+00 0.  1.
          2   -1    0    0  502    0 -0.00000000000E+00 -0.00000000000E+00 -0.18402146944E+04  0.18402146944E+04  0.00000000000E+00 0.  1.
         25    1    1    2    0    0 -0.17675029883E+03  0.96913964049E+02 -0.24490413483E+03  0.34093404028E+03  0.12500000000E+03 0.  0.
         21    1    1    2  503  501  0.72379355969E+01 -0.21406357131E+02  0.24402644262E+03  0.24507044810E+03  0.00000000000E+00 0.  1.
          2    1    1    2  501    0  0.16951236323E+03 -0.75507606918E+02 -0.15412078510E+04  0.15523393572E+04  0.00000000000E+00 0.  1.
<mgrwt>
<rscale>  4 0.22507120E+03</rscale>
<asrwt>0</asrwt>
<pdfrwt beam="1">  1       21 0.45866024E-01 0.22507120E+03</pdfrwt>
<pdfrwt beam="2">  1        2 0.28310995E+00 0.22507120E+03</pdfrwt>
<totfact> 0.51893581E+02</totfact>
</mgrwt>
</event>
<event>
 5    0  0.2306346E+000  0.2301854E+03  0.7546771E-02  0.1126509E+00
          1   -1    0    0  502    0 -0.00000000000E+00  0.00000000000E+00  0.90145090901E+03  0.90145090901E+03  0.00000000000E+00 0.  1.
         21   -1    0    0  503  502  0.00000000000E+00 -0.00000000000E+00 -0.17815151508E+03  0.17815151508E+03  0.00000000000E+00 0.  1.
         25    1    1    2    0    0 -0.23756434699E+03 -0.14036447260E+03  0.91669420035E+02  0.31649215898E+03  0.12500000000E+03 0.  0.
         21    1    1    2  503  501  0.13501599116E+03  0.72622174106E+02  0.39438180426E+02  0.15829929916E+03  0.00000000000E+00 0.  1.
          1    1    1    2  501    0  0.10254835583E+03  0.67742298490E+02  0.59219179346E+03  0.60481096595E+03  0.00000000000E+00 0.  1.
<mgrwt>
<rscale>  4 0.23018543E+03</rscale>
<asrwt>0</asrwt>
<pdfrwt beam="1">  1       21 0.27407926E-01 0.23018543E+03</pdfrwt>
<pdfrwt beam="2">  1        1 0.13868475E+00 0.23018543E+03</pdfrwt>
<totfact> 0.26686511E+03</totfact>
</mgrwt>
</event>
<event>
 5    0  0.2306346E+000  0.2826312E+03  0.7546771E-02  0.1094260E+00
         21   -1    0    0  503  502  0.00000000000E+00  0.00000000000E+00  0.16940338686E+04  0.16940338686E+04  0.00000000000E+00 0. -1.
          2   -1    0    0  502    0 -0.00000000000E+00 -0.00000000000E+00 -0.62412467068E+03  0.62412467068E+03  0.00000000000E+00 0. -1.
         25    1    1    2    0    0  0.94997642142E+02 -0.19982102250E+03 -0.22310806088E+03  0.33816445685E+03  0.12500000000E+03 0.  0.
         21    1    1    2  503  501 -0.24635826071E+03  0.74121143114E+02  0.15971671104E+04  0.16177543432E+04  0.00000000000E+00 0. -1.
          2    1    1    2  501    0  0.15136061857E+03  0.12569987939E+03 -0.30414985152E+03  0.36223973927E+03  0.00000000000E+00 0. -1.
<mgrwt>
<rscale>  4 0.28263122E+03</rscale>
<asrwt>0</asrwt>
<pdfrwt beam="1">  1       21 0.26062059E+00 0.28263122E+03</pdfrwt>
<pdfrwt beam="2">  1        2 0.96019181E-01 0.28263122E+03</pdfrwt>
<totfact> 0.31815330E+01</totfact>
</mgrwt>
</event>
<event>
 5    0  0.2306346E+000  0.2438452E+03  0.7546771E-02  0.1117257E+00
         21   -1    0    0  501  502  0.00000000000E+00  0.00000000000E+00  0.18541916770E+03  0.18541916770E+03  0.00000000000E+00 0. -1.
         -1   -1    0    0    0  501 -0.00000000000E+00 -0.00000000000E+00 -0.75620673170E+03  0.75620673170E+03  0.00000000000E+00 0. -1.
         25    1    1    2    0    0  0.19245519417E+03  0.72853336599E+02  0.55040334159E+02  0.24698390393E+03  0.12500000000E+03 0.  0.
         21    1    1    2  503  502  0.10954931297E+02 -0.21056112422E+02  0.94787920392E+01  0.25558127642E+02  0.00000000000E+00 0. -1.
         -1    1    1    2    0  503 -0.20341012547E+03 -0.51797224177E+02 -0.63530669020E+03  0.66908386783E+03  0.00000000000E+00 0. -1.
<mgrwt>
<rscale>  4 0.24384515E+03</rscale>
<asrwt>0</asrwt>
<pdfrwt beam="1">  1       21 0.28526026E-01 0.24384515E+03</pdfrwt>
<pdfrwt beam="2">  1       -1 0.11633950E+00 0.24384515E+03</pdfrwt>
<totfact> 0.77189486E+02</totfact>
</mgrwt>
</event>
<event>
 5    0  0.2306346E+000  0.1759792E+03  0.7546771E-02  0.1171752E+00
          4   -1    0    0  502    0 -0.00000000000E+00  0.00000000000E+00  0.61910013574E+03  0.61910013574E+03  0.00000000000E+00 0.  1.
         21   -1    0    0  503  502  0.00000000000E+00 -0.00000000000E+00 -0.10697330244E+03  0.10697330244E+03  0.00000000000E+00 0.  1.
         25    1    1    2    0    0  0.11290278824E+03  0.16612015074E+03  0.16266364706E+03  0.28710173484E+03  0.12500000000E+03 0.  0.
         21    1    1    2  503  501 -0.45353732925E+02 -0.76328723825E+02  0.20187755327E+02  0.91052625641E+02  0.00000000000E+00 0.  1.
          4    1    1    2  501    0 -0.67549055319E+02 -0.89791426910E+02  0.32927543091E+03  0.34791907770E+03  0.00000000000E+00 0.  1.
<mgrwt>
<rscale>  4 0.17597917E+03</rscale>
<asrwt>0</asrwt>
<pdfrwt beam="1">  1       21 0.16457432E-01 0.17597917E+03</pdfrwt>
<pdfrwt beam="2">  1        4 0.95246173E-01 0.17597917E+03</pdfrwt>
<totfact> 0.13299064E+03</totfact>
</mgrwt>
</event>
<event>
 5    0  0.2306346E+000  0.3950615E+03  0.7546771E-02  0.1045503E+00
         21   -1    0    0  503  502  0.00000000000E+00  0.00000000000E+00  0.81922848599E+03  0.81922848599E+03  0.00000000000E+00 0.  1.
          1   -1    0    0  502    0 -0.00000000000E+00 -0.00000000000E+00 -0.13318844474E+04  0.13318844474E+04  0.00000000000E+00 0. -1.
         25    1    1    2    0    0 -0.25018670849E+03  0.13320598883E+03  0.96685441500E+02  0.32451548370E+03  0.12500000000E+03 0.  0.
         21    1    1    2  503  501 -0.14362939520E+03 -0.14526582889E+03  0.55817970305E+03  0.59438720133E+03  0.00000000000E+00 0.  1.
          1    1    1    2  501    0  0.39381610369E+03  0.12059840056E+02 -0.11675211059E+04  0.12322102483E+04  0.00000000000E+00 0. -1.
<mgrwt>
<rscale>  4 0.39506146E+03</rscale>
<asrwt>0</asrwt>
<pdfrwt beam="1">  1       21 0.12603515E+00 0.39506146E+03</pdfrwt>
<pdfrwt beam="2">  1        1 0.20490530E+00 0.39506146E+03</pdfrwt>
<totfact> 0.42590375E+01</totfact>
</mgrwt>
</event>
<event>
 5    0  0.2306346E+000  0.3086504E+03  0.7546771E-02  0.1080995E+00
         21   -1    0    0  503  502  0.00000000000E+00  0.00000000000E+00  0.44663187903E+03  0.44663187903E+03  0.00000000000E+00 0. -1.
          2   -1    0    0  502    0 -0.00000000000E+00 -0.00000000000E+00 -0.42166950361E+03  0.42166950361E+03  0.00000000000E+00 0. -1.
         25    1    1    2    0    0  0.23038936555E+03 -0.14121497810E+03 -0.20323856683E+03  0.36048834217E+03  0.12500000000E+03 0.  0.
         21    1    1    2  503  501  0.37177094810E+02 -0.12569011712E+02  0.19328891230E+03  0.19723265463E+03  0.00000000000E+00 0. -1.
          2    1    1    2  501    0 -0.26756646036E+03  0.15378398981E+03  0.34912029943E+02  0.31058038584E+03  0.00000000000E+00 0. -1.
<mgrwt>
<rscale>  4 0.30865040E+03</rscale>
<asrwt>0</asrwt>
<pdfrwt beam="1">  1       21 0.68712597E-01 0.30865040E+03</pdfrwt>
<pdfrwt beam="2">  1        2 0.64872231E-01 0.30865040E+03</pdfrwt>
<totfact> 0.17383982E+03</totfact>
</mgrwt>
</event>
<event>
 5    0  0.2306346E+000  0.2693865E+03  0.7546771E-02  0.1101631E+00
         21   -1    0    0  501  502  0.00000000000E+00  0.00000000000E+00  0.22632133566E+03  0.22632133566E+03  0.00000000000E+00 0.  1.
         -2   -1    0    0    0  501 -0.00000000000E+00 -0.00000000000E+00 -0.76752690841E+03  0.76752690841E+03  0.00000000000E+00 0.  1.
         25    1    1    2    0    0 -0.83228970827E+02  0.20136546287E+03  0.33925373224E+02  0.25347789286E+03  0.12500000000E+03 0.  0.
         21    1    1    2  503  502  0.27713238436E+02  0.34465628788E+02  0.51884145192E+02  0.68175271724E+02  0.00000000000E+00 0.  1.
         -2    1    1    2    0  503  0.55515732391E+02 -0.23583109166E+03 -0.62701509116E+03  0.67219507948E+03  0.00000000000E+00 0.  1.
<mgrwt>
<rscale>  4 0.26938647E+03</rscale>
<asrwt>0</asrwt>
<pdfrwt beam="1">  1       21 0.34818667E-01 0.26938647E+03</pdfrwt>
<pdfrwt beam="2">  1       -2 0.11808106E+00 0.26938647E+03</pdfrwt>
<totfact> 0.36778397E+02</totfact>
</mgrwt>
</event>
<event>
 5    0  0.2306346E+000  0.2399908E+03  0.7546771E-02  0.1119799E+00
         21   -1    0    0  503  502  0.00000000000E+00  0.00000000000E+00  0.28546834445E+03  0.28546834445E+03  0.00000000000E+00 0.  1.
          1   -1    0    0  502    0 -0.00000000000E+00 -0.00000000000E+00 -0.31705356325E+03  0.31705356325E+03  0.00000000000E+00 0.  1.
         25    1    1    2    0    0  0.41029172770E+02 -0.21426529198E+03 -0.94273885703E+01  0.25160859290E+03  0.12500000000E+03 0.  0.
         21    1    1    2  503  501 -0.22513469449E+02  0.15854698732E+02  0.10895174837E+03  0.11237753891E+03  0.00000000000E+00 0.  1.
          1    1    1    2  501    0 -0.18515703321E+02  0.19841059325E+03 -0.13110957860E+03  0.23853577590E+03  0.00000000000E+00 0.  1.
<mgrwt>
<rscale>  4 0.23999081E+03</rscale>
<asrwt>0</asrwt>
<pdfrwt beam="1">  1       21 0.43918207E-01 0.23999081E+03</pdfrwt>
<pdfrwt beam="2">  1        1 0.48777471E-01 0.23999081E+03</pdfrwt>
<totfact> 0.43903668E+03</totfact>
</mgrwt>
</event>
<event>
 5    0  0.2306346E+000  0.5480889E+03  0.7546771E-02  0.1001937E+00
          2   -1    0    0  502    0 -0.00000000000E+00  0.00000000000E+00  0.19663301216E+04  0.19663301216E+04  0.00000000000E+00 0. -1.
         21   -1    0    0  503  502  0.00000000000E+00 -0.00000000000E+00 -0.10707833187E+04  0.10707833187E+04  0.00000000000E+00 0.  1.
         25    1    1    2    0    0  0.61404153925E+03  0.23571399628E+03 -0.70055685403E+03  0.96902683435E+03  0.12500000000E+03 0.  0.
         21    1    1    2  503  501 -0.34390035617E+03  0.22523214661E+03  0.28661128447E+02  0.41209032399E+03  0.00000000000E+00 0. -1.
          2    1    1    2  501    0 -0.27014118307E+03 -0.46094614289E+03  0.15674425285E+04  0.16559962819E+04  0.00000000000E+00 0. -1.
<mgrwt>
<rscale>  4 0.54808893E+03</rscale>
<asrwt>0</asrwt>
<pdfrwt beam="1">  1       21 0.16473590E+00 0.54808893E+03</pdfrwt>
<pdfrwt beam="2">  1        2 0.30251233E+00 0.54808893E+03</pdfrwt>
<totfact> 0.18168662E+01</totfact>
</mgrwt>
</event>
<event>
 5    0  0.2306346E+000  0.2879292E+03  0.7546771E-02  0.1091435E+00
          2   -1    0    0  502    0 -0.00000000000E+00  0.00000000000E+00  0.10240769479E+04  0.10240769479E+04  0.00000000000E+00 0.  1.
         21   -1    0    0  503  502  0.00000000000E+00 -0.00000000000E+00 -0.19676865048E+03  0.19676865048E+03  0.00000000000E+00 0.  1.
         25    1    1    2    0    0 -0.22743269028E+03  0.80037143424E+02 -0.26412519303E+02  0.27286295848E+03  0.12500000000E+03 0.  0.
         21    1    1    2  503  501 -0.32789724398E+02 -0.46209887436E+02  0.19377273318E+01  0.56694572140E+02  0.00000000000E+00 0.  1.
          2    1    1    2  501    0  0.26022241468E+03 -0.33827255988E+02  0.85178308942E+03  0.89128806778E+03  0.00000000000E+00 0.  1.
<mgrwt>
<rscale>  4 0.28792922E+03</rscale>
<asrwt>0</asrwt>
<pdfrwt beam="1">  1       21 0.30272101E-01 0.28792922E+03</pdfrwt>
<pdfrwt beam="2">  1        2 0.15755030E+00 0.28792922E+03</pdfrwt>
<totfact> 0.32618088E+03</totfact>
</mgrwt>
</event>
<event>
 5    0  0.2306346E+000  0.2384772E+03  0.7546771E-02  0.1120811E+00
          1   -1    0    0  502    0 -0.00000000000E+00  0.00000000000E+00  0.24068040892E+03  0.24068040892E+03  0.00000000000E+00 0. -1.
         21   -1    0    0  503  502  0.00000000000E+00 -0.00000000000E+00 -0.55307844184E+03  0.55307844184E+03  0.00000000000E+00 0. -1.
         25    1    1    2    0    0  0.25381557967E+03 -0.34400269158E+02 -0.41980848446E+02  0.28808526279E+03  0.12500000000E+03 0.  0.
         21    1    1    2  503  501 -0.18915494785E+03 -0.46067199396E+02 -0.33243644810E+03  0.38524767771E+03  0.00000000000E+00 0. -1.
          1    1    1    2  501    0 -0.64660631820E+02  0.80467468554E+02  0.62019263623E+02  0.12042591027E+03  0.00000000000E+00 0. -1.
<mgrwt>
<rscale>  4 0.23847718E+03</rscale>
<asrwt>0</asrwt>
<pdfrwt beam="1">  1       21 0.85088990E-01 0.23847718E+03</pdfrwt>
<pdfrwt beam="2">  1        1 0.37027756E-01 0.23847718E+03</pdfrwt>
<totfact> 0.14791613E+03</totfact>
</mgrwt>
</event>
<event>
 5    0  0.2306346E+000  0.2148344E+03  0.7546771E-02  0.1137794E+00
          2   -1    0    0  502    0 -0.00000000000E+00  0.00000000000E+00  0.59614728152E+03  0.59614728152E+03  0.00000000000E+00 0. -1.
         21   -1    0    0  503  502  0.00000000000E+00 -0.00000000000E+00 -0.15755016344E+03  0.15755016344E+03  0.00000000000E+00 0. -1.
         25    1    1    2    0    0 -0.19961618220E+03 -0.13350157919E+03  0.48251057181E+02  0.27499537516E+03  0.12500000000E+03 0.  0.
         21    1    1    2  503  501  0.91411216089E+02  0.93703123687E+01  0.60451686968E+02  0.10999190715E+03  0.00000000000E+00 0. -1.
          2    1    1    2  501    0  0.10820496611E+03  0.12413126682E+03  0.32989437392E+03  0.36871016265E+03  0.00000000000E+00 0. -1.
<mgrwt>
<rscale>  4 0.21483436E+03</rscale>
<asrwt>0</asrwt>
<pdfrwt beam="1">  1       21 0.24238487E-01 0.21483436E+03</pdfrwt>
<pdfrwt beam="2">  1        2 0.91714965E-01 0.21483436E+03</pdfrwt>
<totfact> 0.10208549E+04</totfact>
</mgrwt>
</event>
<event>
 5    0  0.2306346E+000  0.2017230E+03  0.7546771E-02  0.1148293E+00
          2   -1    0    0  502    0 -0.00000000000E+00  0.00000000000E+00  0.24162074452E+04  0.24162074452E+04  0.00000000000E+00 0.  1.
         21   -1    0    0  503  502  0.00000000000E+00 -0.00000000000E+00 -0.85295677993E+02  0.85295677993E+02  0.00000000000E+00 0.  1.
         25    1    1    2    0    0  0.25587602923E+03  0.10242857079E+03  0.17352551318E+04  0.17614481335E+04  0.12500000000E+03 0.  0.
         21    1    1    2  503  501 -0.14893290873E+03 -0.32846896758E+02  0.24067613922E+02  0.15439941700E+03  0.00000000000E+00 0.  1.
          2    1    1    2  501    0 -0.10694312050E+03 -0.69581674029E+02  0.57158902148E+03  0.58565557273E+03  0.00000000000E+00 0.  1.
<mgrwt>
<rscale>  4 0.20172298E+03</rscale>
<asrwt>0</asrwt>
<pdfrwt beam="1">  1       21 0.13122414E-01 0.20172298E+03</pdfrwt>
<pdfrwt beam="2">  1        2 0.37172417E+00 0.20172298E+03</pdfrwt>
<totfact> 0.28921473E+03</totfact>
</mgrwt>
</event>
<event>
 5    0  0.2306346E+000  0.2604217E+03  0.7546771E-02  0.1106890E+00
          2   -1    0    0  502    0 -0.00000000000E+00  0.00000000000E+00  0.35149015113E+03  0.35149015113E+03  0.00000000000E+00 0. -1.
         21   -1    0    0  503  502  0.00000000000E+00 -0.00000000000E+00 -0.28073769706E+03  0.28073769706E+03  0.00000000000E+00 0. -1.
         25    1    1    2    0    0 -0.10150253507E+03 -0.21364748694E+03  0.12587813546E+02  0.26782730695E+03  0.12500000000E+03 0.  0.
         21    1    1    2  503  501 -0.14556830841E+02  0.20887619079E+02 -0.90967103885E+02  0.94462733097E+02  0.00000000000E+00 0. -1.
          2    1    1    2  501    0  0.11605936591E+03  0.19275986786E+03  0.14913174442E+03  0.26993780814E+03  0.00000000000E+00 0. -1.
<mgrwt>
<rscale>  4 0.26042173E+03</rscale>
<asrwt>0</asrwt>
<pdfrwt beam="1">  1       21 0.43190415E-01 0.26042173E+03</pdfrwt>
<pdfrwt beam="2">  1        2 0.54075408E-01 0.26042173E+03</pdfrwt>
<totfact> 0.57919939E+03</totfact>
</mgrwt>
</event>
<event>
 5    0  0.2306346E+000  0.2049462E+03  0.7546771E-02  0.1145632E+00
         21   -1    0    0  501  502  0.00000000000E+00  0.00000000000E+00  0.30890104561E+03  0.30890104561E+03  0.00000000000E+00 0. -1.
         -1   -1    0    0    0  501 -0.00000000000E+00 -0.00000000000E+00 -0.73755277905E+03  0.73755277905E+03  0.00000000000E+00 0. -1.
         25    1    1    2    0    0 -0.17419598700E+03  0.11410211491E+03 -0.25352819620E+02  0.24419520875E+03  0.12500000000E+03 0.  0.
         21    1    1    2  503  502  0.34033715021E+02 -0.40896540084E+02  0.18530093110E+03  0.19278811119E+03  0.00000000000E+00 0. -1.
         -1    1    1    2    0  503  0.14016227198E+03 -0.73205574831E+02 -0.58859984493E+03  0.60947050472E+03  0.00000000000E+00 0. -1.
<mgrwt>
<rscale>  4 0.20494619E+03</rscale>
<asrwt>0</asrwt>
<pdfrwt beam="1">  1       21 0.47523238E-01 0.20494619E+03</pdfrwt>
<pdfrwt beam="2">  1       -1 0.11346966E+00 0.20494619E+03</pdfrwt>
<totfact> 0.29877784E+02</totfact>
</mgrwt>
</event>
<event>
 5    0  0.2306346E+000  0.2502100E+03  0.7546771E-02  0.1113172E+00
          1   -1    0    0  502    0 -0.00000000000E+00  0.00000000000E+00  0.49006686434E+03  0.49006686434E+03  0.00000000000E+00 0. -1.
         21   -1    0    0  503  502  0.00000000000E+00 -0.00000000000E+00 -0.38094807614E+03  0.38094807614E+03  0.00000000000E+00 0.  1.
         25    1    1    2    0    0  0.12518542215E+02 -0.25391238553E+03 -0.27240565644E+03  0.39301152030E+03  0.12500000000E+03 0.  0.
         21    1    1    2  503  501 -0.12449564493E+02  0.40290948632E+02  0.16727723174E+01  0.42203677149E+02  0.00000000000E+00 0.  1.
          1    1    1    2  501    0 -0.68977722351E-01  0.21362143690E+03  0.37985167232E+03  0.43579974303E+03  0.00000000000E+00 0. -1.
<mgrwt>
<rscale>  4 0.25021001E+03</rscale>
<asrwt>0</asrwt>
<pdfrwt beam="1">  1       21 0.58607396E-01 0.25021001E+03</pdfrwt>
<pdfrwt beam="2">  1        1 0.75394902E-01 0.25021001E+03</pdfrwt>
<totfact> 0.13617769E+03</totfact>
</mgrwt>
</event>
<event>
 5    0  0.2306346E+000  0.2577303E+03  0.7546771E-02  0.1108515E+00
         21   -1    0    0  503  502  0.00000000000E+00  0.00000000000E+00  0.50307377680E+03  0.50307377680E+03  0.00000000000E+00 0.  1.
          2   -1    0    0  502    0 -0.00000000000E+00 -0.00000000000E+00 -0.49771257917E+03  0.49771257917E+03  0.00000000000E+00 0. -1.
         25    1    1    2    0    0  0.22848223405E+03  0.23416485255E+03  0.95568250632E+02  0.36303663723E+03  0.12500000000E+03 0.  0.
         21    1    1    2  503  501 -0.12781702698E+03 -0.47181760356E+02  0.22181590845E+03  0.26031828237E+03  0.00000000000E+00 0. -1.
          2    1    1    2  501    0 -0.10066520707E+03 -0.18698309219E+03 -0.31202296146E+03  0.37743143637E+03  0.00000000000E+00 0. -1.
<mgrwt>
<rscale>  4 0.25773029E+03</rscale>
<asrwt>0</asrwt>
<pdfrwt beam="1">  1       21 0.77395966E-01 0.25773029E+03</pdfrwt>
<pdfrwt beam="2">  1        2 0.76571166E-01 0.25773029E+03</pdfrwt>
<totfact> 0.11264118E+03</totfact>
</mgrwt>
</event>
<event>
 5    0  0.2306346E+000  0.3247783E+03  0.7546771E-02  0.1073471E+00
         21   -1    0    0  503  502  0.00000000000E+00  0.00000000000E+00  0.77883627812E+02  0.77883627812E+02  0.00000000000E+00 0. -1.
          1   -1    0    0  502    0 -0.00000000000E+00 -0.00000000000E+00 -0.20991471152E+04  0.20991471152E+04  0.00000000000E+00 0. -1.
         25    1    1    2    0    0  0.90541387697E+02  0.28575900715E+03 -0.17104566853E+04  0.17410178130E+04  0.12500000000E+03 0.  0.
         21    1    1    2  503  501  0.28838254764E+01 -0.27514650879E+02 -0.11941578485E+02  0.30132602926E+02  0.00000000000E+00 0. -1.
          1    1    1    2  501    0 -0.93425213173E+02 -0.25824435627E+03 -0.29886522362E+03  0.40588032706E+03  0.00000000000E+00 0. -1.
<mgrwt>
<rscale>  4 0.32477831E+03</rscale>
<asrwt>0</asrwt>
<pdfrwt beam="1">  1       21 0.11982097E-01 0.32477831E+03</pdfrwt>
<pdfrwt beam="2">  1        1 0.32294569E+00 0.32477831E+03</pdfrwt>
<totfact> 0.18473244E+03</totfact>
</mgrwt>
</event>
<event>
 5    0  0.2306346E+000  0.2668133E+03  0.7546771E-02  0.1103117E+00
         21   -1    0    0  503  502  0.00000000000E+00  0.00000000000E+00  0.11704499452E+04  0.11704499452E+04  0.00000000000E+00 0. -1.
          1   -1    0    0  502    0 -0.00000000000E+00 -0.00000000000E+00 -0.19514626420E+03  0.19514626420E+03  0.00000000000E+00 0.  1.
         25    1    1    2    0    0 -0.55745526744E+02  0.24671140082E+03  0.99657908751E+03  0.10357456042E+04  0.12500000000E+03 0.  0.
         21    1    1    2  503  501  0.22165328949E+02 -0.14695422625E+02  0.72601908458E+02  0.77319430710E+02  0.00000000000E+00 0. -1.
          1    1    1    2  501    0  0.33580197795E+02 -0.23201597820E+03 -0.93877314942E+02  0.25253117448E+03  0.00000000000E+00 0.  1.
<mgrwt>
<rscale>  4 0.26681330E+03</rscale>
<asrwt>0</asrwt>
<pdfrwt beam="1">  1       21 0.18006922E+00 0.26681330E+03</pdfrwt>
<pdfrwt beam="2">  1        1 0.30022503E-01 0.26681330E+03</pdfrwt>
<totfact> 0.28414621E+02</totfact>
</mgrwt>
</event>
<event>
 5    0  0.2306346E+000  0.2333045E+03  0.7546771E-02  0.1124335E+00
         -1   -1    0    0    0  501 -0.00000000000E+00  0.00000000000E+00  0.98455891604E+03  0.98455891604E+03  0.00000000000E+00 0.  1.
         21   -1    0    0  501  502  0.00000000000E+00 -0.00000000000E+00 -0.14329029336E+03  0.14329029336E+03  0.00000000000E+00 0.  1.
         25    1    1    2    0    0  0.10534997292E+03 -0.25312379836E+03  0.33955608413E+03  0.45397533893E+03  0.12500000000E+03 0.  0.
         21    1    1    2  503  502 -0.27207139892E+02  0.17689018736E+03  0.20160261806E+02  0.18010220155E+03  0.00000000000E+00 0.  1.
         -1    1    1    2    0  503 -0.78142833024E+02  0.76233610997E+02  0.48155227675E+03  0.49377166893E+03  0.00000000000E+00 0.  1.
<mgrwt>
<rscale>  4 0.23330446E+03</rscale>
<asrwt>0</asrwt>
<pdfrwt beam="1">  1       21 0.22044661E-01 0.23330446E+03</pdfrwt>
<pdfrwt beam="2">  1       -1 0.15147060E+00 0.23330446E+03</pdfrwt>
<totfact> 0.65960382E+02</totfact>
</mgrwt>
</event>
<event>
 5    0  0.2306346E+000  0.4153659E+03  0.7546771E-02  0.1038585E+00
         21   -1    0    0  503  502  0.00000000000E+00  0.00000000000E+00  0.23464994639E+03  0.23464994639E+03  0.00000000000E+00 0. -1.
          2   -1    0    0  502    0 -0.00000000000E+00 -0.00000000000E+00 -0.26860568416E+04  0.26860568416E+04  0.00000000000E+00 0. -1.
         25    1    1    2    0    0  0.42621719917E+03 -0.14548945282E+03 -0.68216006594E+03  0.82691936567E+03  0.12500000000E+03 0.  0.
         21    1    1    2  503  501 -0.65142837868E+02  0.21096134028E+02  0.13513354204E+03  0.15149161818E+03  0.00000000000E+00 0. -1.
          2    1    1    2  501    0 -0.36107436130E+03  0.12439331879E+03 -0.19043803713E+04  0.19422958042E+04  0.00000000000E+00 0. -1.
<mgrwt>
<rscale>  4 0.41536586E+03</rscale>
<asrwt>0</asrwt>
<pdfrwt beam="1">  1       21 0.36099993E-01 0.41536586E+03</pdfrwt>
<pdfrwt beam="2">  1        2 0.41323950E+00 0.41536586E+03</pdfrwt>
<totfact> 0.26786490E+02</totfact>
</mgrwt>
</event>
<event>
 5    0  0.2306346E+000  0.2836070E+03  0.7546771E-02  0.1093735E+00
         21   -1    0    0  503  502  0.00000000000E+00  0.00000000000E+00  0.26420869778E+03  0.26420869778E+03  0.00000000000E+00 0. -1.
          2   -1    0    0  502    0 -0.00000000000E+00 -0.00000000000E+00 -0.56160300840E+03  0.56160300840E+03  0.00000000000E+00 0. -1.
         25    1    1    2    0    0  0.93085196086E+02  0.27286039729E+03  0.63323709374E+02  0.32055037406E+03  0.12500000000E+03 0.  0.
         21    1    1    2  503  501  0.42584768706E+02 -0.64048237199E+02 -0.13670423850E+02  0.78118625835E+02  0.00000000000E+00 0. -1.
          2    1    1    2  501    0 -0.13566996479E+03 -0.20881216009E+03 -0.34704759614E+03  0.42714270629E+03  0.00000000000E+00 0. -1.
<mgrwt>
<rscale>  4 0.28360703E+03</rscale>
<asrwt>0</asrwt>
<pdfrwt beam="1">  1       21 0.40647492E-01 0.28360703E+03</pdfrwt>
<pdfrwt beam="2">  1        2 0.86400462E-01 0.28360703E+03</pdfrwt>
<totfact> 0.38761452E+03</totfact>
</mgrwt>
</event>
<event>
 5    0  0.2306346E+000  0.2675071E+03  0.7546771E-02  0.1102715E+00
          1   -1    0    0  502    0 -0.00000000000E+00  0.00000000000E+00  0.14533200752E+04  0.14533200752E+04  0.00000000000E+00 0. -1.
         21   -1    0    0  503  502  0.00000000000E+00 -0.00000000000E+00 -0.18959761919E+03  0.18959761919E+03  0.00000000000E+00 0.  1.
         25    1    1    2    0    0  0.21537028349E+03  0.92065687987E+02 -0.67124883266E+02  0.27384521151E+03  0.12500000000E+03 0.  0.
         21    1    1    2  503  501  0.30859135849E+02  0.69588301854E+01  0.38857672344E+02  0.50106190066E+02  0.00000000000E+00 0.  1.
          1    1    1    2  501    0 -0.24622941934E+03 -0.99024518172E+02  0.12919896670E+04  0.13189662929E+04  0.00000000000E+00 0. -1.
<mgrwt>
<rscale>  4 0.26750708E+03</rscale>
<asrwt>0</asrwt>
<pdfrwt beam="1">  1       21 0.29168865E-01 0.26750708E+03</pdfrwt>
<pdfrwt beam="2">  1        1 0.22358770E+00 0.26750708E+03</pdfrwt>
<totfact> 0.94309977E+02</totfact>
</mgrwt>
</event>
<event>
 5    0  0.2306346E+000  0.2873902E+03  0.7546771E-02  0.1091720E+00
          2   -1    0    0  502    0 -0.00000000000E+00  0.00000000000E+00  0.15390050363E+04  0.15390050363E+04  0.00000000000E+00 0. -1.
         21   -1    0    0  503  502  0.00000000000E+00 -0.00000000000E+00 -0.10522623708E+04  0.10522623708E+04  0.00000000000E+00 0.  1.
         25    1    1    2    0    0  0.25905764716E+03  0.13602658683E+02 -0.10115100592E+04  0.10517002885E+04  0.12500000000E+03 0.  0.
         21    1    1    2  503  501 -0.48012705870E+02  0.24101424321E+02  0.43565026200E+02  0.69166538782E+02  0.00000000000E+00 0.  1.
          2    1    1    2  501    0 -0.21104494129E+03 -0.37704083004E+02  0.14546876985E+04  0.14704005798E+04  0.00000000000E+00 0. -1.
<mgrwt>
<rscale>  4 0.28739024E+03</rscale>
<asrwt>0</asrwt>
<pdfrwt beam="1">  1       21 0.16188652E+00 0.28739024E+03</pdfrwt>
<pdfrwt beam="2">  1        2 0.23677001E+00 0.28739024E+03</pdfrwt>
<totfact> 0.37326276E+01</totfact>
</mgrwt>
</event>
<event>
 5    0  0.2306346E+000  0.2614096E+03  0.7546771E-02  0.1106299E+00
         21   -1    0    0  503  502  0.00000000000E+00  0.00000000000E+00  0.30935685682E+03  0.30935685682E+03  0.00000000000E+00 0.  1.
          1   -1    0    0  502    0 -0.00000000000E+00 -0.00000000000E+00 -0.60116319585E+03  0.60116319585E+03  0.00000000000E+00 0.  1.
         25    1    1    2    0    0 -0.28404201150E+03  0.53327190717E+02 -0.29024534086E+03  0.42824176753E+03  0.12500000000E+03 0.  0.
         21    1    1    2  503  501  0.99605730437E+02  0.96029464708E+01  0.18637775771E+03  0.21154239926E+03  0.00000000000E+00 0.  1.
          1    1    1    2  501    0  0.18443628107E+03 -0.62930137188E+02 -0.18793875588E+03  0.27073588588E+03  0.00000000000E+00 0.  1.
<mgrwt>
<rscale>  4 0.26140955E+03</rscale>
<asrwt>0</asrwt>
<pdfrwt beam="1">  1       21 0.47593363E-01 0.26140955E+03</pdfrwt>
<pdfrwt beam="2">  1        1 0.92486645E-01 0.26140955E+03</pdfrwt>
<totfact> 0.15969654E+03</totfact>
</mgrwt>
</event>
<event>
 5    0  0.2306346E+000  0.2599121E+03  0.7546771E-02  0.1107196E+00
         21   -1    0    0  503  502  0.00000000000E+00  0.00000000000E+00  0.62800101841E+03  0.62800101841E+03  0.00000000000E+00 0. -1.
          2   -1    0    0  502    0 -0.00000000000E+00 -0.00000000000E+00 -0.51790650606E+03  0.51790650606E+03  0.00000000000E+00 0. -1.
         25    1    1    2    0    0 -0.17608392049E+03 -0.10038904215E+03  0.10924705142E+03  0.26199890283E+03  0.12500000000E+03 0.  0.
         21    1    1    2  503  501 -0.28329055739E+02 -0.94005066543E+01  0.41131590871E+03  0.41239748021E+03  0.00000000000E+00 0. -1.
          2    1    1    2  501    0  0.20441297623E+03  0.10978954880E+03 -0.41046844778E+03  0.47151114144E+03  0.00000000000E+00 0. -1.
<mgrwt>
<rscale>  4 0.25991205E+03</rscale>
<asrwt>0</asrwt>
<pdfrwt beam="1">  1       21 0.96615541E-01 0.25991205E+03</pdfrwt>
<pdfrwt beam="2">  1        2 0.79677924E-01 0.25991205E+03</pdfrwt>
<totfact> 0.64387508E+02</totfact>
</mgrwt>
</event>
<event>
 5    0  0.2306346E+000  0.3901238E+03  0.7546771E-02  0.1047254E+00
         21   -1    0    0  503  502  0.00000000000E+00  0.00000000000E+00  0.62761259686E+02  0.62761259686E+02  0.00000000000E+00 0.  1.
          1   -1    0    0  502    0 -0.00000000000E+00 -0.00000000000E+00 -0.26506229480E+04  0.26506229480E+04  0.00000000000E+00 0. -1.
         25    1    1    2    0    0 -0.26348970908E+03 -0.26594457457E+03 -0.91557529000E+03  0.99702379871E+03  0.12500000000E+03 0.  0.
         21    1    1    2  503  501  0.23921988498E+02 -0.53308216812E+01 -0.10053689614E+03  0.10348114166E+03  0.00000000000E+00 0.  1.
          1    1    1    2  501    0  0.23956772059E+03  0.27127539625E+03 -0.15717495021E+04  0.16128792673E+04  0.00000000000E+00 0. -1.
<mgrwt>
<rscale>  4 0.39012384E+03</rscale>
<asrwt>0</asrwt>
<pdfrwt beam="1">  1       21 0.96555779E-02 0.39012384E+03</pdfrwt>
<pdfrwt beam="2">  1        1 0.40778817E+00 0.39012384E+03</pdfrwt>
<totfact> 0.11444913E+03</totfact>
</mgrwt>
</event>
<event>
 5    0  0.2306346E+000  0.2654731E+03  0.7546771E-02  0.1103899E+00
         21   -1    0    0  503  502  0.00000000000E+00  0.00000000000E+00  0.53136118925E+02  0.53136118925E+02  0.00000000000E+00 0. -1.
          4   -1    0    0  502    0 -0.00000000000E+00 -0.00000000000E+00 -0.29283043561E+04  0.29283043561E+04  0.00000000000E+00 0. -1.
         25    1    1    2    0    0  0.13483914143E+03  0.20774911929E+03 -0.42678460940E+03  0.50902985517E+03  0.12500000000E+03 0.  0.
         21    1    1    2  503  501  0.35635218323E+01 -0.20996085773E+02 -0.11002571518E+02  0.23970625474E+02  0.00000000000E+00 0. -1.
          4    1    1    2  501    0 -0.13840266326E+03 -0.18675303351E+03 -0.24373810563E+04  0.24484399944E+04  0.00000000000E+00 0. -1.
<mgrwt>
<rscale>  4 0.26547306E+03</rscale>
<asrwt>0</asrwt>
<pdfrwt beam="1">  1       21 0.81747896E-02 0.26547306E+03</pdfrwt>
<pdfrwt beam="2">  1        4 0.45050825E+00 0.26547306E+03</pdfrwt>
<totfact> 0.18537242E+01</totfact>
</mgrwt>
</event>
<event>
 5    0  0.2306346E+000  0.2068917E+03  0.7546771E-02  0.1144051E+00
         21   -1    0    0  503  502  0.00000000000E+00  0.00000000000E+00  0.83388551693E+02  0.83388551693E+02  0.00000000000E+00 0. -1.
          2   -1    0    0  502    0 -0.00000000000E+00 -0.00000000000E+00 -0.29838086261E+04  0.29838086261E+04  0.00000000000E+00 0. -1.
         25    1    1    2    0    0  0.14625605012E+03 -0.13740380692E+03 -0.10425910330E+04  0.10690611304E+04  0.12500000000E+03 0.  0.
         21    1    1    2  503  501 -0.51487494546E+02  0.12591449925E+02  0.56460679977E+02  0.77442333960E+02  0.00000000000E+00 0. -1.
          2    1    1    2  501    0 -0.94768555576E+02  0.12481235699E+03 -0.19142897214E+04  0.19206937135E+04  0.00000000000E+00 0. -1.
<mgrwt>
<rscale>  4 0.20689167E+03</rscale>
<asrwt>0</asrwt>
<pdfrwt beam="1">  1       21 0.12829007E-01 0.20689167E+03</pdfrwt>
<pdfrwt beam="2">  1        2 0.45904750E+00 0.20689167E+03</pdfrwt>
<totfact> 0.14462556E+03</totfact>
</mgrwt>
</event>
<event>
 5    0  0.2306346E+000  0.1897250E+03  0.7546771E-02  0.1158710E+00
         21   -1    0    0  503  502  0.00000000000E+00  0.00000000000E+00  0.91892705776E+02  0.91892705776E+02  0.00000000000E+00 0. -1.
          1   -1    0    0  502    0 -0.00000000000E+00 -0.00000000000E+00 -0.10252726238E+04  0.10252726238E+04  0.00000000000E+00 0.  1.
         25    1    1    2    0    0  0.18138011232E+03  0.11594208111E+03 -0.57165622535E+03  0.62350393046E+03  0.12500000000E+03 0.  0.
         21    1    1    2  503  501 -0.12973146176E+03 -0.35572022828E+02 -0.16577750462E+02  0.13553760655E+03  0.00000000000E+00 0. -1.
          1    1    1    2  501    0 -0.51648650560E+02 -0.80370058282E+02 -0.34514594217E+03  0.35812379252E+03  0.00000000000E+00 0.  1.
<mgrwt>
<rscale>  4 0.18972504E+03</rscale>
<asrwt>0</asrwt>
<pdfrwt beam="1">  1       21 0.14137339E-01 0.18972504E+03</pdfrwt>
<pdfrwt beam="2">  1        1 0.15773425E+00 0.18972504E+03</pdfrwt>
<totfact> 0.75290423E+03</totfact>
</mgrwt>
</event>
<event>
 5    0  0.2306346E+000  0.2249399E+03  0.7546771E-02  0.1130253E+00
         21   -1    0    0  501  502  0.00000000000E+00  0.00000000000E+00  0.68462941387E+02  0.68462941387E+02  0.00000000000E+00 0. -1.
         -4   -1    0    0    0  501 -0.00000000000E+00 -0.00000000000E+00 -0.32799116169E+04  0.32799116169E+04  0.00000000000E+00 0. -1.
         25    1    1    2    0    0  0.93198406216E+02 -0.22459136846E+03 -0.33308299877E+03  0.43092517886E+03  0.12500000000E+03 0.  0.
         21    1    1    2  503  502 -0.34413191472E+02  0.50618510444E+02 -0.39934180476E+02  0.73083788333E+02  0.00000000000E+00 0. -1.
         -4    1    1    2    0  503 -0.58785214744E+02  0.17397285801E+03 -0.28384314963E+04  0.28443655911E+04  0.00000000000E+00 0. -1.
<mgrwt>
<rscale>  4 0.22493993E+03</rscale>
<asrwt>0</asrwt>
<pdfrwt beam="1">  1       21 0.10532761E-01 0.22493993E+03</pdfrwt>
<pdfrwt beam="2">  1       -4 0.50460173E+00 0.22493993E+03</pdfrwt>
<totfact> 0.47263931E+00</totfact>
</mgrwt>
</event>
<event>
 5    0  0.2306346E+000  0.2811363E+03  0.7546771E-02  0.1095070E+00
          1   -1    0    0  502    0 -0.00000000000E+00  0.00000000000E+00  0.77897370557E+03  0.77897370557E+03  0.00000000000E+00 0. -1.
         21   -1    0    0  503  502  0.00000000000E+00 -0.00000000000E+00 -0.28765432307E+03  0.28765432307E+03  0.00000000000E+00 0. -1.
         25    1    1    2    0    0  0.26367050479E+03  0.29130561827E+02 -0.14990809793E+03  0.32934505090E+03  0.12500000000E+03 0.  0.
         21    1    1    2  503  501 -0.13027580263E+02 -0.35577951940E+02 -0.10228127121E+02  0.39244402100E+02  0.00000000000E+00 0. -1.
          1    1    1    2  501    0 -0.25064292453E+03  0.64473901136E+01  0.65145560756E+03  0.69803857563E+03  0.00000000000E+00 0. -1.
<mgrwt>
<rscale>  4 0.28113626E+03</rscale>
<asrwt>0</asrwt>
<pdfrwt beam="1">  1       21 0.44254512E-01 0.28113626E+03</pdfrwt>
<pdfrwt beam="2">  1        1 0.11984211E+00 0.28113626E+03</pdfrwt>
<totfact> 0.12644852E+03</totfact>
</mgrwt>
</event>
<event>
 5    0  0.2306346E+000  0.2765848E+03  0.7546771E-02  0.1097569E+00
         21   -1    0    0  503  502  0.00000000000E+00  0.00000000000E+00  0.52855076143E+02  0.52855076143E+02  0.00000000000E+00 0.  1.
          2   -1    0    0  502    0 -0.00000000000E+00 -0.00000000000E+00 -0.19427791665E+04  0.19427791665E+04  0.00000000000E+00 0.  1.
         25    1    1    2    0    0 -0.18616093952E+03  0.15311650450E+03 -0.91605590647E+03  0.95544962354E+03  0.12500000000E+03 0.  0.
         21    1    1    2  503  501 -0.29357760480E+02 -0.21600194647E+02 -0.24919287449E+01  0.36532947021E+02  0.00000000000E+00 0.  1.
          2    1    1    2  501    0  0.21551870000E+03 -0.13151630985E+03 -0.97137625513E+03  0.10036516721E+04  0.00000000000E+00 0.  1.
<mgrwt>
<rscale>  4 0.27658483E+03</rscale>
<asrwt>0</asrwt>
<pdfrwt beam="1">  1       21 0.81315498E-02 0.27658483E+03</pdfrwt>
<pdfrwt beam="2">  1        2 0.29888912E+00 0.27658483E+03</pdfrwt>
<totfact> 0.11689111E+04</totfact>
</mgrwt>
</event>
<event>
 5    0  0.2306346E+000  0.2379590E+03  0.7546771E-02  0.1121160E+00
          1   -1    0    0  502    0 -0.00000000000E+00  0.00000000000E+00  0.17478725239E+04  0.17478725239E+04  0.00000000000E+00 0.  1.
         21   -1    0    0  503  502  0.00000000000E+00 -0.00000000000E+00 -0.36025964162E+02  0.36025964162E+02  0.00000000000E+00 0.  1.
         25    1    1    2    0    0  0.16356447171E+03  0.13534884815E+03  0.79546303415E+03  0.83274190828E+03  0.12500000000E+03 0.  0.
         21    1    1    2  503  501 -0.25069105749E+01 -0.21700030111E+02  0.10800675954E+02  0.24368637806E+02  0.00000000000E+00 0.  1.
          1    1    1    2  501    0 -0.16105756114E+03 -0.11364881804E+03  0.90558284960E+03  0.92678794195E+03  0.00000000000E+00 0.  1.
<mgrwt>
<rscale>  4 0.23795900E+03</rscale>
<asrwt>0</asrwt>
<pdfrwt beam="1">  1       21 0.55424574E-02 0.23795900E+03</pdfrwt>
<pdfrwt beam="2">  1        1 0.26890340E+00 0.23795900E+03</pdfrwt>
<totfact> 0.12485497E+04</totfact>
</mgrwt>
</event>
<event>
 5    0  0.2306346E+000  0.2678155E+03  0.7546771E-02  0.1102536E+00
         -1   -1    0    0    0  501 -0.00000000000E+00  0.00000000000E+00  0.96177232372E+03  0.96177232372E+03  0.00000000000E+00 0. -1.
         21   -1    0    0  501  502  0.00000000000E+00 -0.00000000000E+00 -0.25140364692E+03  0.25140364692E+03  0.00000000000E+00 0.  1.
         25    1    1    2    0    0  0.21042579693E+03 -0.21153013831E+03  0.43975340674E+02  0.32647028351E+03  0.12500000000E+03 0.  0.
         21    1    1    2  503  502  0.16812163519E+01  0.11930678726E+03 -0.53357648617E+02  0.13070567945E+03  0.00000000000E+00 0.  1.
         -1    1    1    2    0  503 -0.21210701329E+03  0.92223351052E+02  0.71975098474E+03  0.75600000767E+03  0.00000000000E+00 0. -1.
<mgrwt>
<rscale>  4 0.26781551E+03</rscale>
<asrwt>0</asrwt>
<pdfrwt beam="1">  1       21 0.38677485E-01 0.26781551E+03</pdfrwt>
<pdfrwt beam="2">  1       -1 0.14796497E+00 0.26781551E+03</pdfrwt>
<totfact> 0.23025555E+02</totfact>
</mgrwt>
</event>
<event>
 5    0  0.2306346E+000  0.2939193E+03  0.7546771E-02  0.1088320E+00
         21   -1    0    0  503  502  0.00000000000E+00  0.00000000000E+00  0.23306723008E+03  0.23306723008E+03  0.00000000000E+00 0. -1.
          2   -1    0    0  502    0 -0.00000000000E+00 -0.00000000000E+00 -0.13975358195E+04  0.13975358195E+04  0.00000000000E+00 0.  1.
         25    1    1    2    0    0  0.73060047512E+02  0.25334102924E+03  0.70187013353E+02  0.30011775102E+03  0.12500000000E+03 0.  0.
         21    1    1    2  503  501  0.48656737866E+02 -0.16215054048E+02  0.14429335812E+02  0.53278624697E+02  0.00000000000E+00 0.  1.
          2    1    1    2  501    0 -0.12171678538E+03 -0.23712597519E+03 -0.12490849386E+04  0.12772066739E+04  0.00000000000E+00 0.  1.
<mgrwt>
<rscale>  4 0.29391932E+03</rscale>
<asrwt>0</asrwt>
<pdfrwt beam="1">  1       21 0.35856498E-01 0.29391932E+03</pdfrwt>
<pdfrwt beam="2">  1        2 0.21500551E+00 0.29391932E+03</pdfrwt>
<totfact> 0.14204444E+03</totfact>
</mgrwt>
</event>
<event>
 5    0  0.2306346E+000  0.2232858E+03  0.7546771E-02  0.1131457E+00
          2   -1    0    0  502    0 -0.00000000000E+00  0.00000000000E+00  0.23994133752E+04  0.23994133752E+04  0.00000000000E+00 0.  1.
         21   -1    0    0  503  502  0.00000000000E+00 -0.00000000000E+00 -0.63322150779E+03  0.63322150779E+03  0.00000000000E+00 0. -1.
         25    1    1    2    0    0  0.16343632173E+03 -0.15632990232E+03 -0.53196294461E+03  0.59140514376E+03  0.12500000000E+03 0.  0.
         21    1    1    2  503  501 -0.85036573780E+02  0.80754953315E+02 -0.21325512181E+02  0.11919462586E+03  0.00000000000E+00 0. -1.
          2    1    1    2  501    0 -0.78399747950E+02  0.75574949009E+02  0.23194803242E+04  0.23220351134E+04  0.00000000000E+00 0.  1.
<mgrwt>
<rscale>  4 0.22328578E+03</rscale>
<asrwt>0</asrwt>
<pdfrwt beam="1">  1       21 0.97418695E-01 0.22328578E+03</pdfrwt>
<pdfrwt beam="2">  1        2 0.36914051E+00 0.22328578E+03</pdfrwt>
<totfact> 0.50201520E+01</totfact>
</mgrwt>
</event>
<event>
 5    0  0.2306346E+000  0.2256418E+03  0.7546771E-02  0.1129745E+00
          1   -1    0    0  502    0 -0.00000000000E+00  0.00000000000E+00  0.19124028128E+04  0.19124028128E+04  0.00000000000E+00 0.  1.
         21   -1    0    0  503  502  0.00000000000E+00 -0.00000000000E+00 -0.16992114591E+03  0.16992114591E+03  0.00000000000E+00 0. -1.
         25    1    1    2    0    0  0.14948333575E+03  0.16064299513E+03 -0.35784168605E+02  0.25506263206E+03  0.12500000000E+03 0.  0.
         21    1    1    2  503  501 -0.25905544281E+02 -0.20564652154E+02 -0.56821020994E+01  0.33560220902E+02  0.00000000000E+00 0. -1.
          1    1    1    2  501    0 -0.12357779147E+03 -0.14007834298E+03  0.17839479376E+04  0.17937011058E+04  0.00000000000E+00 0.  1.
<mgrwt>
<rscale>  4 0.22564183E+03</rscale>
<asrwt>0</asrwt>
<pdfrwt beam="1">  1       21 0.26141716E-01 0.22564183E+03</pdfrwt>
<pdfrwt beam="2">  1        1 0.29421580E+00 0.22564183E+03</pdfrwt>
<totfact> 0.59798093E+02</totfact>
</mgrwt>
</event>
<event>
 5    0  0.3979429E+000  0.1702003E+03  0.7546771E-02  0.1177639E+00
         21   -1    0    0  503  502  0.00000000000E+00  0.00000000000E+00  0.97479213766E+03  0.97479213766E+03  0.00000000000E+00 0. -1.
          2   -1    0    0  502    0 -0.00000000000E+00 -0.00000000000E+00 -0.10102274723E+04  0.10102274723E+04  0.00000000000E+00 0.  1.
         25    1    1    2    0    0 -0.10539789814E+03 -0.18914802713E+03 -0.24845353196E+03  0.35247673774E+03  0.12500000000E+03 0.  0.
         21    1    1    2  503  501  0.65132274999E+02  0.93962286043E+02  0.91544338439E+03  0.92255499265E+03  0.00000000000E+00 0. -1.
          2    1    1    2  501    0  0.40265623137E+02  0.95185741089E+02 -0.70242518708E+03  0.70998787958E+03  0.00000000000E+00 0.  1.
<mgrwt>
<rscale>  4 0.17020031E+03</rscale>
<asrwt>0</asrwt>
<pdfrwt beam="1">  1       21 0.14996802E+00 0.17020031E+03</pdfrwt>
<pdfrwt beam="2">  1        2 0.15541961E+00 0.17020031E+03</pdfrwt>
<totfact> 0.10075193E+02</totfact>
</mgrwt>
</event>
<event>
 5    0  0.2306346E+000  0.2789147E+03  0.7546771E-02  0.1096283E+00
         21   -1    0    0  503  502  0.00000000000E+00  0.00000000000E+00  0.14168069565E+03  0.14168069565E+03  0.00000000000E+00 0.  1.
          2   -1    0    0  502    0 -0.00000000000E+00 -0.00000000000E+00 -0.79631347601E+03  0.79631347601E+03  0.00000000000E+00 0.  1.
         25    1    1    2    0    0  0.28538954090E+03 -0.45617063455E+02 -0.17219453038E+03  0.35889282917E+03  0.12500000000E+03 0.  0.
         21    1    1    2  503  501 -0.61845968693E+02 -0.34514539899E+02 -0.53300780940E+02  0.88640569475E+02  0.00000000000E+00 0. -1.
          2    1    1    2  501    0 -0.22354357221E+03  0.80131603354E+02 -0.42913746903E+03  0.49046077301E+03  0.00000000000E+00 0.  1.
<mgrwt>
<rscale>  4 0.27891469E+03</rscale>
<asrwt>0</asrwt>
<pdfrwt beam="1">  1       21 0.21797030E-01 0.27891469E+03</pdfrwt>
<pdfrwt beam="2">  1        2 0.12250977E+00 0.27891469E+03</pdfrwt>
<totfact> 0.86682443E+03</totfact>
</mgrwt>
</event>
<event>
 5    0  0.2306346E+000  0.3177121E+03  0.7546771E-02  0.1076707E+00
          2   -1    0    0  502    0 -0.00000000000E+00  0.00000000000E+00  0.17331297370E+04  0.17331297370E+04  0.00000000000E+00 0. -1.
         21   -1    0    0  503  502  0.00000000000E+00 -0.00000000000E+00 -0.46879984198E+03  0.46879984198E+03  0.00000000000E+00 0. -1.
         25    1    1    2    0    0 -0.31427155877E+03  0.44159275690E+02 -0.26261669754E+03  0.43047553253E+03  0.12500000000E+03 0.  0.
         21    1    1    2  503  501  0.29747741146E+02  0.17752386433E+02 -0.10663667825E+03  0.11212250655E+03  0.00000000000E+00 0. -1.
          2    1    1    2  501    0  0.28452381762E+03 -0.61911662123E+02  0.16335832708E+04  0.16593315400E+04  0.00000000000E+00 0. -1.
<mgrwt>
<rscale>  4 0.31771214E+03</rscale>
<asrwt>0</asrwt>
<pdfrwt beam="1">  1       21 0.72123054E-01 0.31771214E+03</pdfrwt>
<pdfrwt beam="2">  1        2 0.26663534E+00 0.31771214E+03</pdfrwt>
<totfact> 0.21114135E+02</totfact>
</mgrwt>
</event>
<event>
 5    0  0.2306346E+000  0.3098637E+03  0.7546771E-02  0.1080411E+00
         -1   -1    0    0    0  501 -0.00000000000E+00  0.00000000000E+00  0.27781255189E+03  0.27781255189E+03  0.00000000000E+00 0. -1.
         21   -1    0    0  501  502  0.00000000000E+00 -0.00000000000E+00 -0.94602445813E+03  0.94602445813E+03  0.00000000000E+00 0. -1.
         25    1    1    2    0    0 -0.70738321321E+02  0.23972070357E+03 -0.30389740195E+03  0.41285415916E+03  0.12500000000E+03 0.  0.
         21    1    1    2  503  502  0.33482328923E+02  0.51242779594E+02 -0.48858642197E+03  0.49240591035E+03  0.00000000000E+00 0. -1.
         -1    1    1    2    0  503  0.37255992398E+02 -0.29096348317E+03  0.12427191767E+03  0.31857694051E+03  0.00000000000E+00 0. -1.
<mgrwt>
<rscale>  4 0.30986372E+03</rscale>
<asrwt>0</asrwt>
<pdfrwt beam="1">  1       21 0.14554222E+00 0.30986372E+03</pdfrwt>
<pdfrwt beam="2">  1       -1 0.42740392E-01 0.30986372E+03</pdfrwt>
<totfact> 0.15290951E+02</totfact>
</mgrwt>
</event>
<event>
 5    0  0.2306346E+000  0.3191457E+03  0.7546771E-02  0.1076043E+00
         21   -1    0    0  503  502  0.00000000000E+00  0.00000000000E+00  0.18417154787E+03  0.18417154787E+03  0.00000000000E+00 0. -1.
          2   -1    0    0  502    0 -0.00000000000E+00 -0.00000000000E+00 -0.12909828578E+04  0.12909828578E+04  0.00000000000E+00 0. -1.
         25    1    1    2    0    0 -0.10194619368E+03  0.26740151832E+03 -0.88939584714E+03  0.94262748280E+03  0.12500000000E+03 0.  0.
         21    1    1    2  503  501 -0.62847829575E+01  0.25184956216E+02  0.90529136340E+02  0.94176987862E+02  0.00000000000E+00 0. -1.
          2    1    1    2  501    0  0.10823097663E+03 -0.29258647454E+03 -0.30794459908E+03  0.43834993497E+03  0.00000000000E+00 0. -1.
<mgrwt>
<rscale>  4 0.31914570E+03</rscale>
<asrwt>0</asrwt>
<pdfrwt beam="1">  1       21 0.28334084E-01 0.31914570E+03</pdfrwt>
<pdfrwt beam="2">  1        2 0.19861275E+00 0.31914570E+03</pdfrwt>
<totfact> 0.25728067E+03</totfact>
</mgrwt>
</event>
<event>
 5    0  0.2306346E+000  0.4240038E+03  0.7546771E-02  0.1035771E+00
          2   -1    0    0  502    0 -0.00000000000E+00  0.00000000000E+00  0.17285208945E+04  0.17285208945E+04  0.00000000000E+00 0.  1.
         21   -1    0    0  503  502  0.00000000000E+00 -0.00000000000E+00 -0.15744698330E+03  0.15744698330E+03  0.00000000000E+00 0.  1.
         25    1    1    2    0    0  0.42188122329E+03  0.19979737324E+02  0.30118398122E+03  0.53359136707E+03  0.12500000000E+03 0.  0.
         21    1    1    2  503  501 -0.22375393486E+02  0.97831071896E+01  0.41745726544E+01  0.24774875918E+02  0.00000000000E+00 0.  1.
          2    1    1    2  501    0 -0.39950582981E+03 -0.29762844513E+02  0.12657153574E+04  0.13276016348E+04  0.00000000000E+00 0.  1.
<mgrwt>
<rscale>  4 0.42400378E+03</rscale>
<asrwt>0</asrwt>
<pdfrwt beam="1">  1       21 0.24222614E-01 0.42400378E+03</pdfrwt>
<pdfrwt beam="2">  1        2 0.26592628E+00 0.42400378E+03</pdfrwt>
<totfact> 0.19576331E+03</totfact>
</mgrwt>
</event>
<event>
 5    0  0.2306346E+000  0.2379182E+03  0.7546771E-02  0.1121187E+00
         21   -1    0    0  501  502  0.00000000000E+00  0.00000000000E+00  0.10661560739E+03  0.10661560739E+03  0.00000000000E+00 0.  1.
         -1   -1    0    0    0  501 -0.00000000000E+00 -0.00000000000E+00 -0.17828795722E+04  0.17828795722E+04  0.00000000000E+00 0.  1.
         25    1    1    2    0    0  0.18545845398E+03  0.16157801216E+03 -0.35950600785E+03  0.45317972356E+03  0.12500000000E+03 0.  0.
         21    1    1    2  503  502 -0.93433999520E+02  0.13526594474E+02  0.99596400382E+01  0.94931951703E+02  0.00000000000E+00 0.  1.
         -1    1    1    2    0  503 -0.92024454455E+02 -0.17510460664E+03 -0.13267175970E+04  0.13413835043E+04  0.00000000000E+00 0.  1.
<mgrwt>
<rscale>  4 0.23791818E+03</rscale>
<asrwt>0</asrwt>
<pdfrwt beam="1">  1       21 0.16402401E-01 0.23791818E+03</pdfrwt>
<pdfrwt beam="2">  1       -1 0.27428916E+00 0.23791818E+03</pdfrwt>
<totfact> 0.17451799E+02</totfact>
</mgrwt>
</event>
<event>
 5    0  0.2306346E+000  0.2130452E+03  0.7546771E-02  0.1139177E+00
         21   -1    0    0  503  502  0.00000000000E+00  0.00000000000E+00  0.78479314335E+02  0.78479314335E+02  0.00000000000E+00 0.  1.
          3   -1    0    0  502    0 -0.00000000000E+00 -0.00000000000E+00 -0.83724251364E+03  0.83724251364E+03  0.00000000000E+00 0.  1.
         25    1    1    2    0    0  0.17825773223E+02 -0.20731519866E+03 -0.20935216876E+03  0.32054746973E+03  0.12500000000E+03 0.  0.
         21    1    1    2  503  501  0.11163440589E+00  0.44004936476E+02 -0.38405255220E+02  0.58407281438E+02  0.00000000000E+00 0.  1.
          3    1    1    2  501    0 -0.17937407629E+02  0.16331026219E+03 -0.51100577532E+03  0.53676707680E+03  0.00000000000E+00 0.  1.
<mgrwt>
<rscale>  4 0.21304524E+03</rscale>
<asrwt>0</asrwt>
<pdfrwt beam="1">  1       21 0.12073741E-01 0.21304524E+03</pdfrwt>
<pdfrwt beam="2">  1        3 0.12880653E+00 0.21304524E+03</pdfrwt>
<totfact> 0.14347870E+03</totfact>
</mgrwt>
</event>
<event>
 5    0  0.2306346E+000  0.2769251E+03  0.7546771E-02  0.1097380E+00
          2   -1    0    0  502    0 -0.00000000000E+00  0.00000000000E+00  0.17362906087E+04  0.17362906087E+04  0.00000000000E+00 0.  1.
         21   -1    0    0  503  502  0.00000000000E+00 -0.00000000000E+00 -0.22542047188E+03  0.22542047188E+03  0.00000000000E+00 0.  1.
         25    1    1    2    0    0  0.10815630090E+03  0.24522008599E+03  0.33209532920E+03  0.44468301482E+03  0.12500000000E+03 0.  0.
         21    1    1    2  503  501  0.34404819980E+01 -0.29231767927E+02 -0.15678365338E+03  0.15952255997E+03  0.00000000000E+00 0.  1.
          2    1    1    2  501    0 -0.11159678289E+03 -0.21598831806E+03  0.13355584610E+04  0.13575055058E+04  0.00000000000E+00 0.  1.
<mgrwt>
<rscale>  4 0.27692514E+03</rscale>
<asrwt>0</asrwt>
<pdfrwt beam="1">  1       21 0.34680074E-01 0.27692514E+03</pdfrwt>
<pdfrwt beam="2">  1        2 0.26712162E+00 0.27692514E+03</pdfrwt>
<totfact> 0.10082834E+03</totfact>
</mgrwt>
</event>
<event>
 5    0  0.2306346E+000  0.2623721E+03  0.7546771E-02  0.1105726E+00
          2   -1    0    0  502    0 -0.00000000000E+00  0.00000000000E+00  0.19652113026E+04  0.19652113026E+04  0.00000000000E+00 0.  1.
         21   -1    0    0  503  502  0.00000000000E+00 -0.00000000000E+00 -0.62809249033E+02  0.62809249033E+02  0.00000000000E+00 0. -1.
         25    1    1    2    0    0  0.20862450578E+03 -0.24609078960E+02  0.28173822718E+03  0.37300297563E+03  0.12500000000E+03 0.  0.
         21    1    1    2  503  501  0.24740695381E+02  0.13584229161E+01  0.89719509051E+01  0.26352290675E+02  0.00000000000E+00 0. -1.
          2    1    1    2  501    0 -0.23336520116E+03  0.23250656044E+02  0.16116918755E+04  0.16286652853E+04  0.00000000000E+00 0.  1.
<mgrwt>
<rscale>  4 0.26237212E+03</rscale>
<asrwt>0</asrwt>
<pdfrwt beam="1">  1       21 0.96629629E-02 0.26237212E+03</pdfrwt>
<pdfrwt beam="2">  1        2 0.30234015E+00 0.26237212E+03</pdfrwt>
<totfact> 0.84263414E+03</totfact>
</mgrwt>
</event>
<event>
 5    0  0.2306346E+000  0.2756997E+03  0.7546771E-02  0.1098061E+00
          1   -1    0    0  502    0 -0.00000000000E+00  0.00000000000E+00  0.42528361069E+03  0.42528361069E+03  0.00000000000E+00 0. -1.
         21   -1    0    0  503  502  0.00000000000E+00 -0.00000000000E+00 -0.45505385329E+03  0.45505385329E+03  0.00000000000E+00 0.  1.
         25    1    1    2    0    0  0.11791244882E+03  0.16380826681E+03 -0.30612445708E+03  0.38739343965E+03  0.12500000000E+03 0.  0.
         21    1    1    2  503  501 -0.25492190417E+02  0.70615521542E+02 -0.42710787364E+02  0.86374851735E+02  0.00000000000E+00 0.  1.
          1    1    1    2  501    0 -0.92420258399E+02 -0.23442378835E+03  0.31906500185E+03  0.40656917260E+03  0.00000000000E+00 0. -1.
<mgrwt>
<rscale>  4 0.27569974E+03</rscale>
<asrwt>0</asrwt>
<pdfrwt beam="1">  1       21 0.70008285E-01 0.27569974E+03</pdfrwt>
<pdfrwt beam="2">  1        1 0.65428248E-01 0.27569974E+03</pdfrwt>
<totfact> 0.11010814E+03</totfact>
</mgrwt>
</event>
<event>
 5    0  0.2306346E+000  0.2998323E+03  0.7546771E-02  0.1085324E+00
          1   -1    0    0  502    0 -0.00000000000E+00  0.00000000000E+00  0.35908290860E+03  0.35908290860E+03  0.00000000000E+00 0. -1.
         21   -1    0    0  503  502  0.00000000000E+00 -0.00000000000E+00 -0.26596990325E+03  0.26596990325E+03  0.00000000000E+00 0. -1.
         25    1    1    2    0    0  0.14529585220E+03 -0.23057222281E+03 -0.47089370075E+02  0.30350756724E+03  0.12500000000E+03 0.  0.
         21    1    1    2  503  501  0.84264604968E+01  0.56532536716E+02  0.28425192448E+02  0.63835135386E+02  0.00000000000E+00 0. -1.
          1    1    1    2  501    0 -0.15372231269E+03  0.17403968610E+03  0.11177718298E+03  0.25771010922E+03  0.00000000000E+00 0. -1.
<mgrwt>
<rscale>  4 0.29983234E+03</rscale>
<asrwt>0</asrwt>
<pdfrwt beam="1">  1       21 0.40918447E-01 0.29983234E+03</pdfrwt>
<pdfrwt beam="2">  1        1 0.55243524E-01 0.29983234E+03</pdfrwt>
<totfact> 0.42717198E+03</totfact>
</mgrwt>
</event>
<event>
 5    0  0.2306346E+000  0.3135652E+03  0.7546771E-02  0.1078649E+00
         21   -1    0    0  503  502  0.00000000000E+00  0.00000000000E+00  0.13841442976E+03  0.13841442976E+03  0.00000000000E+00 0.  1.
          1   -1    0    0  502    0 -0.00000000000E+00 -0.00000000000E+00 -0.10545694082E+04  0.10545694082E+04  0.00000000000E+00 0.  1.
         25    1    1    2    0    0  0.22982499348E+03 -0.14041646240E+03 -0.28454602176E+03  0.41125144260E+03  0.12500000000E+03 0.  0.
         21    1    1    2  503  501 -0.58614688528E+02 -0.11858677749E+03 -0.98961240249E+02  0.16520239883E+03  0.00000000000E+00 0.  1.
          1    1    1    2  501    0 -0.17121030496E+03  0.25900323989E+03 -0.53264771639E+03  0.61652999649E+03  0.00000000000E+00 0.  1.
<mgrwt>
<rscale>  4 0.31356523E+03</rscale>
<asrwt>0</asrwt>
<pdfrwt beam="1">  1       21 0.21294528E-01 0.31356523E+03</pdfrwt>
<pdfrwt beam="2">  1        1 0.16224145E+00 0.31356523E+03</pdfrwt>
<totfact> 0.32249379E+03</totfact>
</mgrwt>
</event>
<event>
 5    0  0.2306346E+000  0.2793819E+03  0.7546771E-02  0.1096027E+00
          1   -1    0    0  502    0 -0.00000000000E+00  0.00000000000E+00  0.10768316535E+03  0.10768316535E+03  0.00000000000E+00 0.  1.
         21   -1    0    0  503  502  0.00000000000E+00 -0.00000000000E+00 -0.83605462060E+03  0.83605462060E+03  0.00000000000E+00 0.  1.
         25    1    1    2    0    0 -0.19438546395E+03 -0.15698257511E+03 -0.16352015124E+03  0.32371758887E+03  0.12500000000E+03 0.  0.
         21    1    1    2  503  501  0.22190902590E+02 -0.99835937660E-01 -0.40016452303E+02  0.45757650507E+02  0.00000000000E+00 0.  1.
          1    1    1    2  501    0  0.17219456136E+03  0.15708241105E+03 -0.52483485170E+03  0.57426254656E+03  0.00000000000E+00 0.  1.
<mgrwt>
<rscale>  4 0.27938188E+03</rscale>
<asrwt>0</asrwt>
<pdfrwt beam="1">  1       21 0.12862379E+00 0.27938188E+03</pdfrwt>
<pdfrwt beam="2">  1        1 0.16566641E-01 0.27938188E+03</pdfrwt>
<totfact> 0.15028480E+03</totfact>
</mgrwt>
</event>
<event>
 5    0  0.2306346E+000  0.3466394E+03  0.7546771E-02  0.1064003E+00
         21   -1    0    0  503  502  0.00000000000E+00  0.00000000000E+00  0.11696366290E+04  0.11696366290E+04  0.00000000000E+00 0. -1.
          2   -1    0    0  502    0 -0.00000000000E+00 -0.00000000000E+00 -0.72034854398E+03  0.72034854398E+03  0.00000000000E+00 0.  1.
         25    1    1    2    0    0  0.72322884400E+01  0.48658971360E+03  0.52932159021E+02  0.50522140576E+03  0.12500000000E+03 0.  0.
         21    1    1    2  503  501 -0.65441618957E+02 -0.29788221686E+03  0.84296535567E+03  0.89644130397E+03  0.00000000000E+00 0. -1.
          2    1    1    2  501    0  0.58209330517E+02 -0.18870749674E+03 -0.44660942964E+03  0.48832246327E+03  0.00000000000E+00 0.  1.
<mgrwt>
<rscale>  4 0.34663943E+03</rscale>
<asrwt>0</asrwt>
<pdfrwt beam="1">  1       21 0.17994410E+00 0.34663943E+03</pdfrwt>
<pdfrwt beam="2">  1        2 0.11082285E+00 0.34663943E+03</pdfrwt>
<totfact> 0.83276032E+01</totfact>
</mgrwt>
</event>
<event>
 5    0  0.2306346E+000  0.2644275E+03  0.7546771E-02  0.1104512E+00
          1   -1    0    0  502    0 -0.00000000000E+00  0.00000000000E+00  0.65178271857E+03  0.65178271857E+03  0.00000000000E+00 0.  1.
         21   -1    0    0  503  502  0.00000000000E+00 -0.00000000000E+00 -0.45797922455E+03  0.45797922455E+03  0.00000000000E+00 0.  1.
         25    1    1    2    0    0 -0.20957155863E+03 -0.80202425477E+02  0.31916325630E+03  0.40968628414E+03  0.12500000000E+03 0.  0.
         21    1    1    2  503  501 -0.43686341746E+01 -0.37334547295E+02 -0.35972217346E+03  0.36168079223E+03  0.00000000000E+00 0.  1.
          1    1    1    2  501    0  0.21394019281E+03  0.11753697277E+03  0.23436241119E+03  0.33839486675E+03  0.00000000000E+00 0.  1.
<mgrwt>
<rscale>  4 0.26442754E+03</rscale>
<asrwt>0</asrwt>
<pdfrwt beam="1">  1       21 0.70458342E-01 0.26442754E+03</pdfrwt>
<pdfrwt beam="2">  1        1 0.10027426E+00 0.26442754E+03</pdfrwt>
<totfact> 0.61163034E+02</totfact>
</mgrwt>
</event>
<event>
 5    0  0.2306346E+000  0.5423150E+03  0.7546771E-02  0.1003289E+00
         21   -1    0    0  501  502  0.00000000000E+00  0.00000000000E+00  0.11677776848E+04  0.11677776848E+04  0.00000000000E+00 0. -1.
         -1   -1    0    0    0  501 -0.00000000000E+00 -0.00000000000E+00 -0.99111092468E+03  0.99111092468E+03  0.00000000000E+00 0. -1.
         25    1    1    2    0    0  0.45750976387E+03 -0.29481470131E+02  0.80028863060E+03  0.93073693028E+03  0.12500000000E+03 0.  0.
         21    1    1    2  503  502  0.70365907700E+02 -0.51695871581E+02  0.21604502302E+03  0.23302205063E+03  0.00000000000E+00 0.  1.
         -1    1    1    2    0  503 -0.52787567157E+03  0.81177341712E+02 -0.83966689355E+03  0.99512962853E+03  0.00000000000E+00 0. -1.
<mgrwt>
<rscale>  4 0.54231500E+03</rscale>
<asrwt>0</asrwt>
<pdfrwt beam="1">  1       21 0.17965811E+00 0.54231500E+03</pdfrwt>
<pdfrwt beam="2">  1       -1 0.15247860E+00 0.54231500E+03</pdfrwt>
<totfact> 0.50088015E+00</totfact>
</mgrwt>
</event>
<event>
 5    0  0.2306346E+000  0.4770294E+03  0.7546771E-02  0.1019955E+00
          2   -1    0    0  502    0 -0.00000000000E+00  0.00000000000E+00  0.10736299087E+04  0.10736299087E+04  0.00000000000E+00 0. -1.
         21   -1    0    0  503  502  0.00000000000E+00 -0.00000000000E+00 -0.68608886603E+03  0.68608886603E+03  0.00000000000E+00 0. -1.
         25    1    1    2    0    0 -0.45922952088E+03 -0.13005120464E+03 -0.49009361681E+03  0.69542923574E+03  0.12500000000E+03 0.  0.
         21    1    1    2  503  501  0.40374282434E+01  0.69643968435E+02 -0.43880841865E+01  0.69898772872E+02  0.00000000000E+00 0. -1.
          2    1    1    2  501    0  0.45519209264E+03  0.60407236208E+02  0.88202274363E+03  0.99439076608E+03  0.00000000000E+00 0. -1.
<mgrwt>
<rscale>  4 0.47702939E+03</rscale>
<asrwt>0</asrwt>
<pdfrwt beam="1">  1       21 0.10555213E+00 0.47702939E+03</pdfrwt>
<pdfrwt beam="2">  1        2 0.16517383E+00 0.47702939E+03</pdfrwt>
<totfact> 0.18860155E+02</totfact>
</mgrwt>
</event>
<event>
 5    0  0.2306346E+000  0.3022774E+03  0.7546771E-02  0.1084108E+00
         21   -1    0    0  503  502  0.00000000000E+00  0.00000000000E+00  0.15297116226E+04  0.15297116226E+04  0.00000000000E+00 0.  1.
          2   -1    0    0  502    0 -0.00000000000E+00 -0.00000000000E+00 -0.36856443089E+03  0.36856443089E+03  0.00000000000E+00 0. -1.
         25    1    1    2    0    0 -0.13703933503E+03 -0.27466827015E+03  0.11301539041E+04  0.11777500944E+04  0.12500000000E+03 0.  0.
         21    1    1    2  503  501  0.14272566580E+03  0.18091220758E+03  0.33260296403E+03  0.40462893397E+03  0.00000000000E+00 0.  1.
          2    1    1    2  501    0 -0.56863307618E+01  0.93756062574E+02 -0.30160967635E+03  0.31589702515E+03  0.00000000000E+00 0. -1.
<mgrwt>
<rscale>  4 0.30227739E+03</rscale>
<asrwt>0</asrwt>
<pdfrwt beam="1">  1       21 0.23534025E+00 0.30227739E+03</pdfrwt>
<pdfrwt beam="2">  1        2 0.56702221E-01 0.30227739E+03</pdfrwt>
<totfact> 0.80603567E+01</totfact>
</mgrwt>
</event>
<event>
 5    0  0.2306346E+000  0.2362547E+03  0.7546771E-02  0.1122313E+00
         21   -1    0    0  503  502  0.00000000000E+00  0.00000000000E+00  0.26604049593E+03  0.26604049593E+03  0.00000000000E+00 0. -1.
          2   -1    0    0  502    0 -0.00000000000E+00 -0.00000000000E+00 -0.11306605921E+04  0.11306605921E+04  0.00000000000E+00 0. -1.
         25    1    1    2    0    0 -0.25557784548E+03 -0.30660875999E+02  0.78353703998E+02  0.29668910891E+03  0.12500000000E+03 0.  0.
         21    1    1    2  503  501  0.15662545973E+03 -0.36234342220E+02 -0.11784427774E+02  0.16119347050E+03  0.00000000000E+00 0. -1.
          2    1    1    2  501    0  0.98952385749E+02  0.66895218219E+02 -0.93118937234E+03  0.93881850857E+03  0.00000000000E+00 0. -1.
<mgrwt>
<rscale>  4 0.23625466E+03</rscale>
<asrwt>0</asrwt>
<pdfrwt beam="1">  1       21 0.40929307E-01 0.23625466E+03</pdfrwt>
<pdfrwt beam="2">  1        2 0.17394779E+00 0.23625466E+03</pdfrwt>
<totfact> 0.15721743E+03</totfact>
</mgrwt>
</event>
<event>
 5    0  0.2306346E+000  0.3244423E+03  0.7546771E-02  0.1073623E+00
         21   -1    0    0  503  502  0.00000000000E+00  0.00000000000E+00  0.10743056998E+03  0.10743056998E+03  0.00000000000E+00 0. -1.
          2   -1    0    0  502    0 -0.00000000000E+00 -0.00000000000E+00 -0.19858514036E+04  0.19858514036E+04  0.00000000000E+00 0.  1.
         25    1    1    2    0    0  0.16972470661E+02 -0.30336540482E+03 -0.30521419099E+03  0.44844100613E+03  0.12500000000E+03 0.  0.
         21    1    1    2  503  501 -0.78640074003E+02  0.95067938468E+01 -0.53100322778E+02  0.95363958850E+02  0.00000000000E+00 0. -1.
          2    1    1    2  501    0  0.61667603342E+02  0.29385861097E+03 -0.15201063198E+04  0.15494770086E+04  0.00000000000E+00 0.  1.
<mgrwt>
<rscale>  4 0.32444226E+03</rscale>
<asrwt>0</asrwt>
<pdfrwt beam="1">  1       21 0.16527781E-01 0.32444226E+03</pdfrwt>
<pdfrwt beam="2">  1        2 0.30551558E+00 0.32444226E+03</pdfrwt>
<totfact> 0.30383254E+03</totfact>
</mgrwt>
</event>
<event>
 5    0  0.2306346E+000  0.2384001E+03  0.7546771E-02  0.1120863E+00
         -1   -1    0    0    0  501 -0.00000000000E+00  0.00000000000E+00  0.56666671268E+02  0.56666671268E+02  0.00000000000E+00 0. -1.
         21   -1    0    0  501  502  0.00000000000E+00 -0.00000000000E+00 -0.10177501066E+04  0.10177501066E+04  0.00000000000E+00 0. -1.
         25    1    1    2    0    0 -0.29139400966E+02  0.21345126075E+03 -0.46887084836E+03  0.53091940806E+03  0.12500000000E+03 0.  0.
         21    1    1    2  503  502 -0.18156045223E+02 -0.23778510770E+02 -0.33760851006E+02  0.45109362811E+02  0.00000000000E+00 0. -1.
         -1    1    1    2    0  503  0.47295446188E+02 -0.18967274998E+03 -0.45845173595E+03  0.49838800699E+03  0.00000000000E+00 0. -1.
<mgrwt>
<rscale>  4 0.23840008E+03</rscale>
<asrwt>0</asrwt>
<pdfrwt beam="1">  1       21 0.15657693E+00 0.23840008E+03</pdfrwt>
<pdfrwt beam="2">  1       -1 0.87179502E-02 0.23840008E+03</pdfrwt>
<totfact> 0.17604928E+03</totfact>
</mgrwt>
</event>
<event>
 5    0  0.2306346E+000  0.2692354E+03  0.7546771E-02  0.1101718E+00
         21   -1    0    0  503  502  0.00000000000E+00  0.00000000000E+00  0.49959391876E+03  0.49959391876E+03  0.00000000000E+00 0. -1.
          2   -1    0    0  502    0 -0.00000000000E+00 -0.00000000000E+00 -0.93590484247E+03  0.93590484247E+03  0.00000000000E+00 0.  1.
         25    1    1    2    0    0 -0.11122403563E+03  0.23030031802E+03  0.37640341449E+03  0.47192536806E+03  0.12500000000E+03 0.  0.
         21    1    1    2  503  501 -0.41037394264E-01 -0.20119238791E+02  0.57777881047E+02  0.61180625952E+02  0.00000000000E+00 0. -1.
          2    1    1    2  501    0  0.11126507302E+03 -0.21018107923E+03 -0.87049221925E+03  0.90239276721E+03  0.00000000000E+00 0.  1.
<mgrwt>
<rscale>  4 0.26923541E+03</rscale>
<asrwt>0</asrwt>
<pdfrwt beam="1">  1       21 0.76860604E-01 0.26923541E+03</pdfrwt>
<pdfrwt beam="2">  1        2 0.14398536E+00 0.26923541E+03</pdfrwt>
<totfact> 0.52651787E+02</totfact>
</mgrwt>
</event>
<event>
 5    0  0.2306346E+000  0.2133903E+03  0.7546771E-02  0.1138909E+00
          4   -1    0    0  502    0 -0.00000000000E+00  0.00000000000E+00  0.29916306045E+03  0.29916306045E+03  0.00000000000E+00 0. -1.
         21   -1    0    0  503  502  0.00000000000E+00 -0.00000000000E+00 -0.79551435743E+03  0.79551435743E+03  0.00000000000E+00 0. -1.
         25    1    1    2    0    0 -0.26991441030E+03  0.17361908616E+03  0.31643707281E+01  0.34443052886E+03  0.12500000000E+03 0.  0.
         21    1    1    2  503  501  0.13211396582E+03 -0.95544016380E+02 -0.55806160480E+03  0.58139101625E+03  0.00000000000E+00 0. -1.
          4    1    1    2  501    0  0.13780044448E+03 -0.78075069784E+02  0.58545937087E+02  0.16885587278E+03  0.00000000000E+00 0. -1.
<mgrwt>
<rscale>  4 0.21339026E+03</rscale>
<asrwt>0</asrwt>
<pdfrwt beam="1">  1       21 0.12238682E+00 0.21339026E+03</pdfrwt>
<pdfrwt beam="2">  1        4 0.46025086E-01 0.21339026E+03</pdfrwt>
<totfact> 0.96466195E+01</totfact>
</mgrwt>
</event>
<event>
 5    0  0.2306346E+000  0.2568701E+03  0.7546771E-02  0.1109038E+00
         21   -1    0    0  503  502  0.00000000000E+00  0.00000000000E+00  0.11613104124E+04  0.11613104124E+04  0.00000000000E+00 0. -1.
          1   -1    0    0  502    0 -0.00000000000E+00 -0.00000000000E+00 -0.32048564480E+03  0.32048564480E+03  0.00000000000E+00 0. -1.
         25    1    1    2    0    0  0.52605068148E+02 -0.21698136434E+03  0.10765163969E+04  0.11065083635E+04  0.12500000000E+03 0.  0.
         21    1    1    2  503  501  0.99211674994E+00 -0.24147577066E+02  0.10669763735E+02  0.26418433564E+02  0.00000000000E+00 0. -1.
          1    1    1    2  501    0 -0.53597184898E+02  0.24112894140E+03 -0.24636139312E+03  0.34886926008E+03  0.00000000000E+00 0. -1.
<mgrwt>
<rscale>  4 0.25687009E+03</rscale>
<asrwt>0</asrwt>
<pdfrwt beam="1">  1       21 0.17866314E+00 0.25687009E+03</pdfrwt>
<pdfrwt beam="2">  1        1 0.49305484E-01 0.25687009E+03</pdfrwt>
<totfact> 0.15626475E+02</totfact>
</mgrwt>
</event>
<event>
 5    0  0.2306346E+000  0.1856076E+03  0.7546771E-02  0.1162484E+00
          2   -1    0    0  502    0 -0.00000000000E+00  0.00000000000E+00  0.10752871541E+04  0.10752871541E+04  0.00000000000E+00 0.  1.
         21   -1    0    0  503  502  0.00000000000E+00 -0.00000000000E+00 -0.12452018817E+03  0.12452018817E+03  0.00000000000E+00 0.  1.
         25    1    1    2    0    0  0.21131033153E+03  0.86700176293E+02  0.60095764914E+03  0.65493822063E+03  0.12500000000E+03 0.  0.
         21    1    1    2  503  501 -0.13123643129E+03  0.12290844815E+02 -0.37604167577E+02  0.13706983324E+03  0.00000000000E+00 0.  1.
          2    1    1    2  501    0 -0.80073900240E+02 -0.98991021108E+02  0.38741348439E+03  0.40779928843E+03  0.00000000000E+00 0.  1.
<mgrwt>
<rscale>  4 0.18560760E+03</rscale>
<asrwt>0</asrwt>
<pdfrwt beam="1">  1       21 0.19156953E-01 0.18560760E+03</pdfrwt>
<pdfrwt beam="2">  1        2 0.16542879E+00 0.18560760E+03</pdfrwt>
<totfact> 0.75500661E+03</totfact>
</mgrwt>
</event>
<event>
 5    0  0.2306346E+000  0.3411068E+03  0.7546771E-02  0.1066326E+00
         21   -1    0    0  503  502  0.00000000000E+00  0.00000000000E+00  0.76062053249E+02  0.76062053249E+02  0.00000000000E+00 0.  1.
          2   -1    0    0  502    0 -0.00000000000E+00 -0.00000000000E+00 -0.22216467974E+04  0.22216467974E+04  0.00000000000E+00 0.  1.
         25    1    1    2    0    0 -0.31407864390E+03  0.75783499392E+02 -0.52780578437E+03  0.63134180865E+03  0.12500000000E+03 0.  0.
         21    1    1    2  503  501  0.21573899260E+01 -0.25777198660E+02 -0.98175100222E+01  0.27667703285E+02  0.00000000000E+00 0.  1.
          2    1    1    2  501    0  0.31192125397E+03 -0.50006300732E+02 -0.16079614498E+04  0.16386993387E+04  0.00000000000E+00 0.  1.
<mgrwt>
<rscale>  4 0.34110676E+03</rscale>
<asrwt>0</asrwt>
<pdfrwt beam="1">  1       21 0.11701854E-01 0.34110676E+03</pdfrwt>
<pdfrwt beam="2">  1        2 0.34179183E+00 0.34110676E+03</pdfrwt>
<totfact> 0.42589525E+03</totfact>
</mgrwt>
</event>
<event>
 5    0  0.2306346E+000  0.1869791E+03  0.7546771E-02  0.1161215E+00
         21   -1    0    0  503  502  0.00000000000E+00  0.00000000000E+00  0.53522672178E+03  0.53522672178E+03  0.00000000000E+00 0. -1.
          1   -1    0    0  502    0 -0.00000000000E+00 -0.00000000000E+00 -0.16462161808E+04  0.16462161808E+04  0.00000000000E+00 0. -1.
         25    1    1    2    0    0 -0.25077926505E+03  0.69443237545E+02 -0.22159095075E+03  0.36392327828E+03  0.12500000000E+03 0.  0.
         21    1    1    2  503  501  0.13301873431E+03 -0.23070365854E+02  0.45119772980E+03  0.47096243675E+03  0.00000000000E+00 0. -1.
          1    1    1    2  501    0  0.11776053074E+03 -0.46372871691E+02 -0.13405962380E+04  0.13465571875E+04  0.00000000000E+00 0. -1.
<mgrwt>
<rscale>  4 0.18697908E+03</rscale>
<asrwt>0</asrwt>
<pdfrwt beam="1">  1       21 0.82342573E-01 0.18697908E+03</pdfrwt>
<pdfrwt beam="2">  1        1 0.25326403E+00 0.18697908E+03</pdfrwt>
<totfact> 0.84557161E+01</totfact>
</mgrwt>
</event>
<event>
 5    0  0.2306346E+000  0.2779240E+03  0.7546771E-02  0.1096828E+00
          1   -1    0    0  502    0 -0.00000000000E+00  0.00000000000E+00  0.21128084248E+04  0.21128084248E+04  0.00000000000E+00 0. -1.
         21   -1    0    0  503  502  0.00000000000E+00 -0.00000000000E+00 -0.25183892698E+03  0.25183892698E+03  0.00000000000E+00 0. -1.
         25    1    1    2    0    0  0.23604309012E+03  0.18171566403E+03 -0.11288300363E+03  0.34220534107E+03  0.12500000000E+03 0.  0.
         21    1    1    2  503  501 -0.28748470187E+02 -0.48219104003E+02  0.31241235723E+02  0.64246177617E+02  0.00000000000E+00 0.  1.
          1    1    1    2  501    0 -0.20729461993E+03 -0.13349656003E+03  0.19426112657E+04  0.19581958331E+04  0.00000000000E+00 0. -1.
<mgrwt>
<rscale>  4 0.27792404E+03</rscale>
<asrwt>0</asrwt>
<pdfrwt beam="1">  1       21 0.38744452E-01 0.27792404E+03</pdfrwt>
<pdfrwt beam="2">  1        1 0.32504744E+00 0.27792404E+03</pdfrwt>
<totfact> 0.19734404E+02</totfact>
</mgrwt>
</event>
<event>
 5    0  0.2306346E+000  0.2082588E+03  0.7546771E-02  0.1142952E+00
         21   -1    0    0  503  502  0.00000000000E+00  0.00000000000E+00  0.11140571210E+03  0.11140571210E+03  0.00000000000E+00 0.  1.
          2   -1    0    0  502    0 -0.00000000000E+00 -0.00000000000E+00 -0.64252710616E+03  0.64252710616E+03  0.00000000000E+00 0.  1.
         25    1    1    2    0    0 -0.18008208160E+03  0.10848864028E+03 -0.11160828992E+03  0.26885079796E+03  0.12500000000E+03 0.  0.
         21    1    1    2  503  501  0.32014175195E+02 -0.52383113289E+02 -0.38468969245E+02  0.72448323418E+02  0.00000000000E+00 0. -1.
          2    1    1    2  501    0  0.14806790641E+03 -0.56105526994E+02 -0.38104413490E+03  0.41263369689E+03  0.00000000000E+00 0.  1.
<mgrwt>
<rscale>  4 0.20825879E+03</rscale>
<asrwt>0</asrwt>
<pdfrwt beam="1">  1       21 0.17139341E-01 0.20825879E+03</pdfrwt>
<pdfrwt beam="2">  1        2 0.98850323E-01 0.20825879E+03</pdfrwt>
<totfact> 0.17943652E+04</totfact>
</mgrwt>
</event>
<event>
 5    0  0.2306346E+000  0.2421163E+03  0.7546771E-02  0.1118391E+00
         21   -1    0    0  503  502  0.00000000000E+00  0.00000000000E+00  0.59245760638E+02  0.59245760638E+02  0.00000000000E+00 0. -1.
          2   -1    0    0  502    0 -0.00000000000E+00 -0.00000000000E+00 -0.16526265419E+04  0.16526265419E+04  0.00000000000E+00 0. -1.
         25    1    1    2    0    0  0.18040217485E+03 -0.15566217993E+03 -0.47831060129E+03  0.54880022800E+03  0.12500000000E+03 0.  0.
         21    1    1    2  503  501 -0.59797705076E+02 -0.42230012155E+01 -0.46421440988E+02  0.75819189227E+02  0.00000000000E+00 0.  1.
          2    1    1    2  501    0 -0.12060446977E+03  0.15988518115E+03 -0.10686487390E+04  0.10872528854E+04  0.00000000000E+00 0. -1.
<mgrwt>
<rscale>  4 0.24211634E+03</rscale>
<asrwt>0</asrwt>
<pdfrwt beam="1">  1       21 0.91147332E-02 0.24211634E+03</pdfrwt>
<pdfrwt beam="2">  1        2 0.25425021E+00 0.24211634E+03</pdfrwt>
<totfact> 0.13719514E+04</totfact>
</mgrwt>
</event>
<event>
 5    0  0.2306346E+000  0.7838583E+03  0.7546771E-02  0.9583680E-01
          2   -1    0    0  502    0 -0.00000000000E+00  0.00000000000E+00  0.19407979549E+04  0.19407979549E+04  0.00000000000E+00 0.  1.
         21   -1    0    0  503  502  0.00000000000E+00 -0.00000000000E+00 -0.36340305061E+03  0.36340305061E+03  0.00000000000E+00 0.  1.
         25    1    1    2    0    0  0.33944497992E+03 -0.68040145130E+03  0.37391695853E+03  0.85650914835E+03  0.12500000000E+03 0.  0.
         21    1    1    2  503  501  0.18556852554E+02 -0.13018451530E+02  0.20892819084E+02  0.30827694468E+02  0.00000000000E+00 0.  1.
          2    1    1    2  501    0 -0.35800183247E+03  0.69341990283E+03  0.11825851267E+04  0.14168641627E+04  0.00000000000E+00 0.  1.
<mgrwt>
<rscale>  4 0.78385827E+03</rscale>
<asrwt>0</asrwt>
<pdfrwt beam="1">  1       21 0.55908163E-01 0.78385827E+03</pdfrwt>
<pdfrwt beam="2">  1        2 0.29858429E+00 0.78385827E+03</pdfrwt>
<totfact> 0.24862478E+02</totfact>
</mgrwt>
</event>
<event>
 5    0  0.2306346E+000  0.3342645E+03  0.7546771E-02  0.1069265E+00
         21   -1    0    0  503  502  0.00000000000E+00  0.00000000000E+00  0.30347481368E+03  0.30347481368E+03  0.00000000000E+00 0. -1.
          2   -1    0    0  502    0 -0.00000000000E+00 -0.00000000000E+00 -0.42391519225E+04  0.42391519225E+04  0.00000000000E+00 0.  1.
         25    1    1    2    0    0 -0.14681777778E+03 -0.32932165265E+03 -0.13287393116E+03  0.40408995577E+03  0.12500000000E+03 0.  0.
         21    1    1    2  503  501  0.71845080014E+02  0.30577789926E+02  0.15246398939E+03  0.17129502275E+03  0.00000000000E+00 0. -1.
          2    1    1    2  501    0  0.74972697762E+02  0.29874386272E+03 -0.39552671671E+04  0.39672417577E+04  0.00000000000E+00 0.  1.
<mgrwt>
<rscale>  4 0.33426450E+03</rscale>
<asrwt>0</asrwt>
<pdfrwt beam="1">  1       21 0.46688435E-01 0.33426450E+03</pdfrwt>
<pdfrwt beam="2">  1        2 0.65217719E+00 0.33426450E+03</pdfrwt>
<totfact> 0.14715349E+01</totfact>
</mgrwt>
</event>
<event>
 5    0  0.2306346E+000  0.3912858E+03  0.7546771E-02  0.1046840E+00
         21   -1    0    0  503  502  0.00000000000E+00  0.00000000000E+00  0.90485224146E+03  0.90485224146E+03  0.00000000000E+00 0.  1.
          2   -1    0    0  502    0 -0.00000000000E+00 -0.00000000000E+00 -0.59649596898E+03  0.59649596898E+03  0.00000000000E+00 0.  1.
         25    1    1    2    0    0  0.39909381166E+03  0.20269593578E+03  0.11348103748E+03  0.47839780388E+03  0.12500000000E+03 0.  0.
         21    1    1    2  503  501 -0.61422019671E+02 -0.38905361314E+03  0.42047042580E+03  0.57613432233E+03  0.00000000000E+00 0.  1.
          2    1    1    2  501    0 -0.33767179199E+03  0.18635767735E+03 -0.22559519079E+03  0.44681608423E+03  0.00000000000E+00 0.  1.
<mgrwt>
<rscale>  4 0.39128577E+03</rscale>
<asrwt>0</asrwt>
<pdfrwt beam="1">  1       21 0.13920804E+00 0.39128577E+03</pdfrwt>
<pdfrwt beam="2">  1        2 0.91768611E-01 0.39128577E+03</pdfrwt>
<totfact> 0.20807586E+02</totfact>
</mgrwt>
</event>
<event>
 5    0  0.2306346E+000  0.2652349E+03  0.7546771E-02  0.1104038E+00
          2   -1    0    0  502    0 -0.00000000000E+00  0.00000000000E+00  0.94664833288E+03  0.94664833288E+03  0.00000000000E+00 0.  1.
         21   -1    0    0  503  502  0.00000000000E+00 -0.00000000000E+00 -0.12873992955E+03  0.12873992955E+03  0.00000000000E+00 0.  1.
         25    1    1    2    0    0 -0.10780919544E+03  0.23555799771E+03  0.53424126368E+03  0.60675293219E+03  0.12500000000E+03 0.  0.
         21    1    1    2  503  501  0.10343192698E+03 -0.17048755275E+02 -0.68942082979E+01  0.10505405125E+03  0.00000000000E+00 0.  1.
          2    1    1    2  501    0  0.43772684591E+01 -0.21850924243E+03  0.29056134795E+03  0.36358127899E+03  0.00000000000E+00 0.  1.
<mgrwt>
<rscale>  4 0.26523486E+03</rscale>
<asrwt>0</asrwt>
<pdfrwt beam="1">  1       21 0.19806144E-01 0.26523486E+03</pdfrwt>
<pdfrwt beam="2">  1        2 0.14563820E+00 0.26523486E+03</pdfrwt>
<totfact> 0.82883747E+03</totfact>
</mgrwt>
</event>
<event>
 5    0  0.2306346E+000  0.2478949E+03  0.7546771E-02  0.1114642E+00
          1   -1    0    0  502    0 -0.00000000000E+00  0.00000000000E+00  0.23961832262E+03  0.23961832262E+03  0.00000000000E+00 0.  1.
         21   -1    0    0  503  502  0.00000000000E+00 -0.00000000000E+00 -0.80645078432E+03  0.80645078432E+03  0.00000000000E+00 0.  1.
         25    1    1    2    0    0  0.22795738571E+03 -0.56595482396E+02 -0.50462734099E+03  0.57047468971E+03  0.12500000000E+03 0.  0.
         21    1    1    2  503  501 -0.19986176949E+02  0.15534534506E+02 -0.21360203522E+03  0.21509671890E+03  0.00000000000E+00 0.  1.
          1    1    1    2  501    0 -0.20797120876E+03  0.41060947890E+02  0.15139691450E+03  0.26049769833E+03  0.00000000000E+00 0.  1.
<mgrwt>
<rscale>  4 0.24789490E+03</rscale>
<asrwt>0</asrwt>
<pdfrwt beam="1">  1       21 0.12406935E+00 0.24789490E+03</pdfrwt>
<pdfrwt beam="2">  1        1 0.36864358E-01 0.24789490E+03</pdfrwt>
<totfact> 0.59852351E+02</totfact>
</mgrwt>
</event>
<event>
 5    0  0.2306346E+000  0.4821372E+03  0.7546771E-02  0.1018549E+00
          2   -1    0    0  502    0 -0.00000000000E+00  0.00000000000E+00  0.88979277118E+03  0.88979277118E+03  0.00000000000E+00 0. -1.
         21   -1    0    0  503  502  0.00000000000E+00 -0.00000000000E+00 -0.77165793394E+03  0.77165793394E+03  0.00000000000E+00 0.  1.
         25    1    1    2    0    0 -0.16962446565E+03  0.50846587048E+03 -0.48329515033E+03  0.73246788539E+03  0.12500000000E+03 0.  0.
         21    1    1    2  503  501  0.88323317916E+02 -0.57776176517E+02 -0.62324648556E+02  0.12257021204E+03  0.00000000000E+00 0.  1.
          2    1    1    2  501    0  0.81301147729E+02 -0.45068969396E+03  0.66375463613E+03  0.80641260769E+03  0.00000000000E+00 0. -1.
<mgrwt>
<rscale>  4 0.48213719E+03</rscale>
<asrwt>0</asrwt>
<pdfrwt beam="1">  1       21 0.11871661E+00 0.48213719E+03</pdfrwt>
<pdfrwt beam="2">  1        2 0.13689120E+00 0.48213719E+03</pdfrwt>
<totfact> 0.18376768E+02</totfact>
</mgrwt>
</event>
<event>
 5    0  0.2306346E+000  0.2373286E+03  0.7546771E-02  0.1121585E+00
          1   -1    0    0  502    0 -0.00000000000E+00  0.00000000000E+00  0.11637729047E+04  0.11637729047E+04  0.00000000000E+00 0.  1.
         21   -1    0    0  503  502  0.00000000000E+00 -0.00000000000E+00 -0.19996045083E+03  0.19996045083E+03  0.00000000000E+00 0. -1.
         25    1    1    2    0    0  0.17269124294E+03 -0.16973139044E+03 -0.98430237929E+01  0.27267727336E+03  0.12500000000E+03 0.  0.
         21    1    1    2  503  501 -0.12548053775E+03  0.10743831898E+03  0.62602289529E+02  0.17665617565E+03  0.00000000000E+00 0. -1.
          1    1    1    2  501    0 -0.47210705190E+02  0.62293071457E+02  0.91105318815E+03  0.91439990654E+03  0.00000000000E+00 0.  1.
<mgrwt>
<rscale>  4 0.23732864E+03</rscale>
<asrwt>0</asrwt>
<pdfrwt beam="1">  1       21 0.30763147E-01 0.23732864E+03</pdfrwt>
<pdfrwt beam="2">  1        1 0.17904198E+00 0.23732864E+03</pdfrwt>
<totfact> 0.13589579E+03</totfact>
</mgrwt>
</event>
<event>
 5    0  0.2306346E+000  0.2957489E+03  0.7546771E-02  0.1087385E+00
          2   -1    0    0  502    0 -0.00000000000E+00  0.00000000000E+00  0.16482547046E+04  0.16482547046E+04  0.00000000000E+00 0. -1.
         21   -1    0    0  503  502  0.00000000000E+00 -0.00000000000E+00 -0.77567272513E+03  0.77567272513E+03  0.00000000000E+00 0. -1.
         25    1    1    2    0    0 -0.15796700987E+03 -0.19566077420E+03 -0.65424012098E+03  0.71196337734E+03  0.12500000000E+03 0.  0.
         21    1    1    2  503  501 -0.22922307008E+02 -0.25062420686E+01 -0.79813753441E+02  0.83077967273E+02  0.00000000000E+00 0.  1.
          2    1    1    2  501    0  0.18088931688E+03  0.19816701627E+03  0.16066358538E+04  0.16288860851E+04  0.00000000000E+00 0. -1.
<mgrwt>
<rscale>  4 0.29574894E+03</rscale>
<asrwt>0</asrwt>
<pdfrwt beam="1">  1       21 0.11933427E+00 0.29574894E+03</pdfrwt>
<pdfrwt beam="2">  1        2 0.25357765E+00 0.29574894E+03</pdfrwt>
<totfact> 0.72105304E+01</totfact>
</mgrwt>
</event>
<event>
 5    0  0.2306346E+000  0.1896053E+03  0.7546771E-02  0.1158818E+00
          1   -1    0    0  502    0 -0.00000000000E+00  0.00000000000E+00  0.13790818600E+04  0.13790818600E+04  0.00000000000E+00 0. -1.
         21   -1    0    0  503  502  0.00000000000E+00 -0.00000000000E+00 -0.12750988810E+03  0.12750988810E+03  0.00000000000E+00 0. -1.
         25    1    1    2    0    0  0.20044020051E+03 -0.90966750372E+02  0.69721491214E+03  0.74174446905E+03  0.12500000000E+03 0.  0.
         21    1    1    2  503  501 -0.10209769125E+03  0.93031357858E+02 -0.54209344062E+02  0.14838269807E+03  0.00000000000E+00 0. -1.
          1    1    1    2  501    0 -0.98342509257E+02 -0.20646074859E+01  0.60856640386E+03  0.61646458101E+03  0.00000000000E+00 0. -1.
<mgrwt>
<rscale>  4 0.18960531E+03</rscale>
<asrwt>0</asrwt>
<pdfrwt beam="1">  1       21 0.19616907E-01 0.18960531E+03</pdfrwt>
<pdfrwt beam="2">  1        1 0.21216643E+00 0.18960531E+03</pdfrwt>
<totfact> 0.23424165E+03</totfact>
</mgrwt>
</event>
<event>
 5    0  0.2306346E+000  0.2959367E+03  0.7546771E-02  0.1087290E+00
          1   -1    0    0  502    0 -0.00000000000E+00  0.00000000000E+00  0.85329695289E+03  0.85329695289E+03  0.00000000000E+00 0. -1.
         21   -1    0    0  503  502  0.00000000000E+00 -0.00000000000E+00 -0.40036321592E+03  0.40036321592E+03  0.00000000000E+00 0. -1.
         25    1    1    2    0    0 -0.10685432139E+03  0.27496935607E+03 -0.53295232587E+02  0.32479435739E+03  0.12500000000E+03 0.  0.
         21    1    1    2  503  501  0.34660770427E+02 -0.20076371844E+02 -0.18464552475E+03  0.18894020092E+03  0.00000000000E+00 0. -1.
          1    1    1    2  501    0  0.72193550962E+02 -0.25489298422E+03  0.69087449430E+03  0.73992561050E+03  0.00000000000E+00 0. -1.
<mgrwt>
<rscale>  4 0.29593667E+03</rscale>
<asrwt>0</asrwt>
<pdfrwt beam="1">  1       21 0.61594341E-01 0.29593667E+03</pdfrwt>
<pdfrwt beam="2">  1        1 0.13127645E+00 0.29593667E+03</pdfrwt>
<totfact> 0.54077323E+02</totfact>
</mgrwt>
</event>
<event>
 5    0  0.2306346E+000  0.4112011E+03  0.7546771E-02  0.1039969E+00
         21   -1    0    0  503  502  0.00000000000E+00  0.00000000000E+00  0.80451980872E+03  0.80451980872E+03  0.00000000000E+00 0. -1.
          1   -1    0    0  502    0 -0.00000000000E+00 -0.00000000000E+00 -0.15152682979E+04  0.15152682979E+04  0.00000000000E+00 0. -1.
         25    1    1    2    0    0  0.32988464243E+03 -0.34448757552E+03  0.50772691441E+03  0.70774796829E+03  0.12500000000E+03 0.  0.
         21    1    1    2  503  501 -0.20484819898E+03 -0.24682033601E+02  0.10560354612E+03  0.23178459043E+03  0.00000000000E+00 0.  1.
          1    1    1    2  501    0 -0.12503644345E+03  0.36916960912E+03 -0.13240789497E+04  0.13802555479E+04  0.00000000000E+00 0. -1.
<mgrwt>
<rscale>  4 0.41120110E+03</rscale>
<asrwt>0</asrwt>
<pdfrwt beam="1">  1       21 0.12377228E+00 0.41120110E+03</pdfrwt>
<pdfrwt beam="2">  1        1 0.23311819E+00 0.41120110E+03</pdfrwt>
<totfact> 0.33219462E+01</totfact>
</mgrwt>
</event>
<event>
 5    0  0.2306346E+000  0.2350765E+03  0.7546771E-02  0.1123117E+00
         21   -1    0    0  501  502  0.00000000000E+00  0.00000000000E+00  0.84196144341E+03  0.84196144341E+03  0.00000000000E+00 0. -1.
         -1   -1    0    0    0  501 -0.00000000000E+00 -0.00000000000E+00 -0.18208181399E+03  0.18208181399E+03  0.00000000000E+00 0.  1.
         25    1    1    2    0    0 -0.31344343212E+02 -0.20554980267E+03  0.55058745633E+03  0.60166829424E+03  0.12500000000E+03 0.  0.
         21    1    1    2  503  502 -0.41313631548E+02  0.20697536630E+02  0.19910275595E+03  0.20439449993E+03  0.00000000000E+00 0. -1.
         -1    1    1    2    0  503  0.72657974760E+02  0.18485226604E+03 -0.89810582858E+02  0.21798046323E+03  0.00000000000E+00 0.  1.
<mgrwt>
<rscale>  4 0.23507646E+03</rscale>
<asrwt>0</asrwt>
<pdfrwt beam="1">  1       21 0.12953253E+00 0.23507646E+03</pdfrwt>
<pdfrwt beam="2">  1       -1 0.28012587E-01 0.23507646E+03</pdfrwt>
<totfact> 0.44739724E+02</totfact>
</mgrwt>
</event>
<event>
 5    0  0.2306346E+000  0.2335625E+03  0.7546771E-02  0.1124157E+00
         21   -1    0    0  503  502  0.00000000000E+00  0.00000000000E+00  0.65518582462E+03  0.65518582462E+03  0.00000000000E+00 0. -1.
          3   -1    0    0  502    0 -0.00000000000E+00 -0.00000000000E+00 -0.30999259083E+03  0.30999259083E+03  0.00000000000E+00 0. -1.
         25    1    1    2    0    0 -0.17438016035E+03  0.10832106688E+03  0.31635811790E+03  0.39730259578E+03  0.12500000000E+03 0.  0.
         21    1    1    2  503  501  0.24773854688E+02  0.19391910170E+02  0.26139589980E+03  0.26328237026E+03  0.00000000000E+00 0. -1.
          3    1    1    2  501    0  0.14960630566E+03 -0.12771297705E+03 -0.23256078392E+03  0.30459344940E+03  0.00000000000E+00 0. -1.
<mgrwt>
<rscale>  4 0.23356253E+03</rscale>
<asrwt>0</asrwt>
<pdfrwt beam="1">  1       21 0.10079782E+00 0.23356253E+03</pdfrwt>
<pdfrwt beam="2">  1        3 0.47691168E-01 0.23356253E+03</pdfrwt>
<totfact> 0.17236561E+02</totfact>
</mgrwt>
</event>
<event>
 5    0  0.2306346E+000  0.2375121E+03  0.7546771E-02  0.1121461E+00
         -2   -1    0    0    0  501 -0.00000000000E+00  0.00000000000E+00  0.10014196922E+04  0.10014196922E+04  0.00000000000E+00 0.  1.
         21   -1    0    0  501  502  0.00000000000E+00 -0.00000000000E+00 -0.99608997661E+02  0.99608997661E+02  0.00000000000E+00 0.  1.
         25    1    1    2    0    0 -0.95523266254E+02  0.20292213368E+03  0.21284916718E+03  0.33351439955E+03  0.12500000000E+03 0.  0.
         21    1    1    2  503  502  0.10038171366E+02 -0.25456808974E+02 -0.18572301506E+02  0.33071806584E+02  0.00000000000E+00 0.  1.
         -2    1    1    2    0  503  0.85485094887E+02 -0.17746532471E+03  0.70753382883E+03  0.73444248370E+03  0.00000000000E+00 0.  1.
<mgrwt>
<rscale>  4 0.23751209E+03</rscale>
<asrwt>0</asrwt>
<pdfrwt beam="1">  1       21 0.15324462E-01 0.23751209E+03</pdfrwt>
<pdfrwt beam="2">  1       -2 0.15406456E+00 0.23751209E+03</pdfrwt>
<totfact> 0.91200489E+02</totfact>
</mgrwt>
</event>
<event>
 5    0  0.2306346E+000  0.2490409E+03  0.7546771E-02  0.1113912E+00
         21   -1    0    0  503  502  0.00000000000E+00  0.00000000000E+00  0.32539578125E+02  0.32539578125E+02  0.00000000000E+00 0. -1.
          2   -1    0    0  502    0 -0.00000000000E+00 -0.00000000000E+00 -0.22200274177E+04  0.22200274177E+04  0.00000000000E+00 0.  1.
         25    1    1    2    0    0 -0.19228733163E+03 -0.11046494337E+03 -0.73187590151E+03  0.77488338273E+03  0.12500000000E+03 0.  0.
         21    1    1    2  503  501  0.23583063280E+02 -0.20441965278E+02 -0.85227617203E+02  0.90762225360E+02  0.00000000000E+00 0. -1.
          2    1    1    2  501    0  0.16870426835E+03  0.13090690865E+03 -0.13703843209E+04  0.13869213877E+04  0.00000000000E+00 0.  1.
<mgrwt>
<rscale>  4 0.24904095E+03</rscale>
<asrwt>0</asrwt>
<pdfrwt beam="1">  1       21 0.50060902E-02 0.24904095E+03</pdfrwt>
<pdfrwt beam="2">  1        2 0.34154259E+00 0.24904095E+03</pdfrwt>
<totfact> 0.19473191E+04</totfact>
</mgrwt>
</event>
<event>
 5    0  0.2306346E+000  0.2989692E+03  0.7546771E-02  0.1085757E+00
         21   -1    0    0  503  502  0.00000000000E+00  0.00000000000E+00  0.50991300692E+02  0.50991300692E+02  0.00000000000E+00 0.  1.
          2   -1    0    0  502    0 -0.00000000000E+00 -0.00000000000E+00 -0.22101063586E+04  0.22101063586E+04  0.00000000000E+00 0.  1.
         25    1    1    2    0    0  0.26798922525E+03  0.44038437994E+02 -0.55057764081E+03  0.62651284697E+03  0.12500000000E+03 0.  0.
         21    1    1    2  503  501 -0.12416740783E+03 -0.10721966829E+02 -0.45947397959E+03  0.47607651030E+03  0.00000000000E+00 0.  1.
          2    1    1    2  501    0 -0.14382181742E+03 -0.33316471165E+02 -0.11490634376E+04  0.11585083021E+04  0.00000000000E+00 0.  1.
<mgrwt>
<rscale>  4 0.29896924E+03</rscale>
<asrwt>0</asrwt>
<pdfrwt beam="1">  1       21 0.78448163E-02 0.29896924E+03</pdfrwt>
<pdfrwt beam="2">  1        2 0.34001633E+00 0.29896924E+03</pdfrwt>
<totfact> 0.89255130E+03</totfact>
</mgrwt>
</event>
<event>
 5    0  0.2306346E+000  0.2589397E+03  0.7546771E-02  0.1107782E+00
          2   -1    0    0  502    0 -0.00000000000E+00  0.00000000000E+00  0.17172346823E+04  0.17172346823E+04  0.00000000000E+00 0. -1.
         21   -1    0    0  503  502  0.00000000000E+00 -0.00000000000E+00 -0.18423360634E+03  0.18423360634E+03  0.00000000000E+00 0.  1.
         25    1    1    2    0    0 -0.21941880880E+03 -0.53636943319E+02 -0.71219507529E+02  0.26780357279E+03  0.12500000000E+03 0.  0.
         21    1    1    2  503  501 -0.24075436325E+02  0.37891578434E+02  0.97808239377E+02  0.10761900409E+03  0.00000000000E+00 0.  1.
          2    1    1    2  501    0  0.24349424513E+03  0.15745364885E+02  0.15064123441E+04  0.15260457118E+04  0.00000000000E+00 0. -1.
<mgrwt>
<rscale>  4 0.25893967E+03</rscale>
<asrwt>0</asrwt>
<pdfrwt beam="1">  1       21 0.28343633E-01 0.25893967E+03</pdfrwt>
<pdfrwt beam="2">  1        2 0.26418994E+00 0.25893967E+03</pdfrwt>
<totfact> 0.15501044E+03</totfact>
</mgrwt>
</event>
<event>
 5    0  0.2306346E+000  0.2687308E+03  0.7546771E-02  0.1102008E+00
         21   -1    0    0  501  502  0.00000000000E+00  0.00000000000E+00  0.41846104670E+03  0.41846104670E+03  0.00000000000E+00 0. -1.
         -2   -1    0    0    0  501 -0.00000000000E+00 -0.00000000000E+00 -0.29095715443E+03  0.29095715443E+03  0.00000000000E+00 0.  1.
         25    1    1    2    0    0  0.20307929337E+02 -0.25338840737E+03  0.28252302697E+03  0.40007793960E+03  0.12500000000E+03 0.  0.
         21    1    1    2  503  502  0.11744192788E+02  0.20592404954E+02  0.60259509585E+01  0.24459871034E+02  0.00000000000E+00 0. -1.
         -2    1    1    2    0  503 -0.32052122124E+02  0.23279600241E+03 -0.16104508566E+03  0.28488039049E+03  0.00000000000E+00 0.  1.
<mgrwt>
<rscale>  4 0.26873078E+03</rscale>
<asrwt>0</asrwt>
<pdfrwt beam="1">  1       21 0.64378622E-01 0.26873078E+03</pdfrwt>
<pdfrwt beam="2">  1       -2 0.44762639E-01 0.26873078E+03</pdfrwt>
<totfact> 0.83970803E+02</totfact>
</mgrwt>
</event>
<event>
 5    0  0.2306346E+000  0.4218967E+03  0.7546771E-02  0.1036451E+00
          2   -1    0    0  502    0 -0.00000000000E+00  0.00000000000E+00  0.17283811472E+04  0.17283811472E+04  0.00000000000E+00 0. -1.
         21   -1    0    0  503  502  0.00000000000E+00 -0.00000000000E+00 -0.29120404817E+03  0.29120404817E+03  0.00000000000E+00 0. -1.
         25    1    1    2    0    0 -0.32147674170E+03 -0.29151685212E+03 -0.48077015761E+02  0.45416491495E+03  0.12500000000E+03 0.  0.
         21    1    1    2  503  501  0.19386415986E+02  0.29818881373E+02  0.99459513368E+01  0.36931297826E+02  0.00000000000E+00 0.  1.
          2    1    1    2  501    0  0.30209032571E+03  0.26169797075E+03  0.14753081634E+04  0.15284889826E+04  0.00000000000E+00 0. -1.
<mgrwt>
<rscale>  4 0.42189671E+03</rscale>
<asrwt>0</asrwt>
<pdfrwt beam="1">  1       21 0.44800624E-01 0.42189671E+03</pdfrwt>
<pdfrwt beam="2">  1        2 0.26590479E+00 0.42189671E+03</pdfrwt>
<totfact> 0.56965956E+02</totfact>
</mgrwt>
</event>
<event>
 5    0  0.2306346E+000  0.2487692E+03  0.7546771E-02  0.1114085E+00
          2   -1    0    0  502    0 -0.00000000000E+00  0.00000000000E+00  0.25026302370E+04  0.25026302370E+04  0.00000000000E+00 0. -1.
         21   -1    0    0  503  502  0.00000000000E+00 -0.00000000000E+00 -0.38910163552E+02  0.38910163552E+02  0.00000000000E+00 0. -1.
         25    1    1    2    0    0  0.19377250941E+03 -0.79763863089E+02  0.50102480485E+03  0.55727992457E+03  0.12500000000E+03 0.  0.
         21    1    1    2  503  501  0.22208581585E+02  0.51853201018E+02  0.18878619759E+03  0.19703350972E+03  0.00000000000E+00 0. -1.
          2    1    1    2  501    0 -0.21598109099E+03  0.27910662070E+02  0.17739090710E+04  0.17872269662E+04  0.00000000000E+00 0. -1.
<mgrwt>
<rscale>  4 0.24876924E+03</rscale>
<asrwt>0</asrwt>
<pdfrwt beam="1">  1       21 0.59861810E-02 0.24876924E+03</pdfrwt>
<pdfrwt beam="2">  1        2 0.38501991E+00 0.24876924E+03</pdfrwt>
<totfact> 0.10100184E+04</totfact>
</mgrwt>
</event>
<event>
 5    0  0.2306346E+000  0.1990861E+03  0.7546771E-02  0.1150512E+00
          2   -1    0    0  502    0 -0.00000000000E+00  0.00000000000E+00  0.12789982183E+03  0.12789982183E+03  0.00000000000E+00 0.  1.
         21   -1    0    0  503  502  0.00000000000E+00 -0.00000000000E+00 -0.12202900387E+04  0.12202900387E+04  0.00000000000E+00 0.  1.
         25    1    1    2    0    0  0.83881709045E+02 -0.18754971485E+03 -0.25111874023E+03  0.34770196771E+03  0.12500000000E+03 0.  0.
         21    1    1    2  503  501  0.46657445817E+01  0.15053196562E+03 -0.88306031954E+03  0.89581090069E+03  0.00000000000E+00 0.  1.
          2    1    1    2  501    0 -0.88547453627E+02  0.37017749226E+02  0.41788842863E+02  0.10467699217E+03  0.00000000000E+00 0.  1.
<mgrwt>
<rscale>  4 0.19908605E+03</rscale>
<asrwt>0</asrwt>
<pdfrwt beam="1">  1       21 0.18773693E+00 0.19908605E+03</pdfrwt>
<pdfrwt beam="2">  1        2 0.19676896E-01 0.19908605E+03</pdfrwt>
<totfact> 0.55614999E+02</totfact>
</mgrwt>
</event>
<event>
 5    0  0.2306346E+000  0.2544640E+03  0.7546771E-02  0.1110516E+00
          1   -1    0    0  502    0 -0.00000000000E+00  0.00000000000E+00  0.49623109909E+03  0.49623109909E+03  0.00000000000E+00 0.  1.
         21   -1    0    0  503  502  0.00000000000E+00 -0.00000000000E+00 -0.12197380407E+03  0.12197380407E+03  0.00000000000E+00 0.  1.
         25    1    1    2    0    0  0.11776998003E+03 -0.18776890203E+03  0.22784301249E+03  0.34156165931E+03  0.12500000000E+03 0.  0.
         21    1    1    2  503  501 -0.29901616322E+02  0.34043892491E+01  0.13614663338E+02  0.33031130508E+02  0.00000000000E+00 0. -1.
          1    1    1    2  501    0 -0.87868363709E+02  0.18436451278E+03  0.13279961919E+03  0.24361211335E+03  0.00000000000E+00 0.  1.
<mgrwt>
<rscale>  4 0.25446400E+03</rscale>
<asrwt>0</asrwt>
<pdfrwt beam="1">  1       21 0.18765201E-01 0.25446400E+03</pdfrwt>
<pdfrwt beam="2">  1        1 0.76343245E-01 0.25446400E+03</pdfrwt>
<totfact> 0.12949889E+04</totfact>
</mgrwt>
</event>
<event>
 5    0  0.2306346E+000  0.2706054E+03  0.7546771E-02  0.1100934E+00
         21   -1    0    0  503  502  0.00000000000E+00  0.00000000000E+00  0.26516964019E+02  0.26516964019E+02  0.00000000000E+00 0.  1.
          2   -1    0    0  502    0 -0.00000000000E+00 -0.00000000000E+00 -0.34859485875E+04  0.34859485875E+04  0.00000000000E+00 0.  1.
         25    1    1    2    0    0  0.23769492812E+03 -0.46881878108E+02 -0.12942570899E+04  0.13226576292E+04  0.12500000000E+03 0.  0.
         21    1    1    2  503  501  0.44761824303E+01  0.78599749364E+02 -0.70037523126E+03  0.70478608199E+03  0.00000000000E+00 0.  1.
          2    1    1    2  501    0 -0.24217111055E+03 -0.31717871256E+02 -0.14647993023E+04  0.14850218403E+04  0.00000000000E+00 0.  1.
<mgrwt>
<rscale>  4 0.27060542E+03</rscale>
<asrwt>0</asrwt>
<pdfrwt beam="1">  1       21 0.40795328E-02 0.27060542E+03</pdfrwt>
<pdfrwt beam="2">  1        2 0.53629979E+00 0.27060542E+03</pdfrwt>
<totfact> 0.50002186E+03</totfact>
</mgrwt>
</event>
<event>
 5    0  0.2306346E+000  0.3379003E+03  0.7546771E-02  0.1067694E+00
         21   -1    0    0  503  502  0.00000000000E+00  0.00000000000E+00  0.11572860969E+04  0.11572860969E+04  0.00000000000E+00 0. -1.
          1   -1    0    0  502    0 -0.00000000000E+00 -0.00000000000E+00 -0.24197236090E+04  0.24197236090E+04  0.00000000000E+00 0. -1.
         25    1    1    2    0    0  0.82726749972E+02  0.42087070826E+03 -0.65097873694E+02  0.45148488501E+03  0.12500000000E+03 0.  0.
         21    1    1    2  503  501 -0.43557947122E+02 -0.30018625901E+03  0.93830402486E+03  0.98611537252E+03  0.00000000000E+00 0. -1.
          1    1    1    2  501    0 -0.39168802850E+02 -0.12068444925E+03 -0.21356436633E+04  0.21394094484E+04  0.00000000000E+00 0. -1.
<mgrwt>
<rscale>  4 0.33790026E+03</rscale>
<asrwt>0</asrwt>
<pdfrwt beam="1">  1       21 0.17804402E+00 0.33790026E+03</pdfrwt>
<pdfrwt beam="2">  1        1 0.37226517E+00 0.33790026E+03</pdfrwt>
<totfact> 0.33007219E+00</totfact>
</mgrwt>
</event>
<event>
 5    0  0.2306346E+000  0.2381220E+03  0.7546771E-02  0.1121050E+00
         21   -1    0    0  503  502  0.00000000000E+00  0.00000000000E+00  0.12490643041E+04  0.12490643041E+04  0.00000000000E+00 0.  1.
          2   -1    0    0  502    0 -0.00000000000E+00 -0.00000000000E+00 -0.77169984507E+03  0.77169984507E+03  0.00000000000E+00 0. -1.
         25    1    1    2    0    0 -0.16216466108E+03  0.25047385062E+03  0.43862020463E+03  0.54502037673E+03  0.12500000000E+03 0.  0.
         21    1    1    2  503  501  0.24421543336E+02 -0.10534655989E+03  0.73930365707E+03  0.74717080163E+03  0.00000000000E+00 0.  1.
          2    1    1    2  501    0  0.13774311774E+03 -0.14512729073E+03 -0.70055940271E+03  0.72857297076E+03  0.00000000000E+00 0. -1.
<mgrwt>
<rscale>  4 0.23812197E+03</rscale>
<asrwt>0</asrwt>
<pdfrwt beam="1">  1       21 0.19216374E+00 0.23812197E+03</pdfrwt>
<pdfrwt beam="2">  1        2 0.11872305E+00 0.23812197E+03</pdfrwt>
<totfact> 0.67873603E+01</totfact>
</mgrwt>
</event>
<event>
 5    0  0.2306346E+000  0.3985937E+03  0.7546771E-02  0.1044268E+00
          2   -1    0    0  502    0 -0.00000000000E+00  0.00000000000E+00  0.11297948095E+04  0.11297948095E+04  0.00000000000E+00 0.  1.
         21   -1    0    0  503  502  0.00000000000E+00 -0.00000000000E+00 -0.37598694710E+03  0.37598694710E+03  0.00000000000E+00 0.  1.
         25    1    1    2    0    0  0.37530398697E+03  0.16004620620E+03 -0.12483592178E+03  0.44460867977E+03  0.12500000000E+03 0.  0.
         21    1    1    2  503  501 -0.73943173243E+02  0.64584124370E+02 -0.76472834922E+01  0.98474275497E+02  0.00000000000E+00 0.  1.
          2    1    1    2  501    0 -0.30136081373E+03 -0.22463033057E+03  0.88629106769E+03  0.96269880135E+03  0.00000000000E+00 0.  1.
<mgrwt>
<rscale>  4 0.39859368E+03</rscale>
<asrwt>0</asrwt>
<pdfrwt beam="1">  1       21 0.57844146E-01 0.39859368E+03</pdfrwt>
<pdfrwt beam="2">  1        2 0.17381458E+00 0.39859368E+03</pdfrwt>
<totfact> 0.71567443E+02</totfact>
</mgrwt>
</event>
<event>
 5    0  0.2306346E+000  0.2050031E+03  0.7546771E-02  0.1145585E+00
         21   -1    0    0  503  502  0.00000000000E+00  0.00000000000E+00  0.32279931304E+03  0.32279931304E+03  0.00000000000E+00 0.  1.
          2   -1    0    0  502    0 -0.00000000000E+00 -0.00000000000E+00 -0.21222825422E+04  0.21222825422E+04  0.00000000000E+00 0.  1.
         25    1    1    2    0    0  0.33213722240E+02 -0.19779412992E+03  0.20711134385E+03  0.31423840938E+03  0.12500000000E+03 0.  0.
         21    1    1    2  503  501  0.12991492747E+02  0.42484102237E+02  0.50566789340E+02  0.67310311327E+02  0.00000000000E+00 0. -1.
          2    1    1    2  501    0 -0.46205214987E+02  0.15531002769E+03 -0.20571613624E+04  0.20635331346E+04  0.00000000000E+00 0.  1.
<mgrwt>
<rscale>  4 0.20500306E+03</rscale>
<asrwt>0</asrwt>
<pdfrwt beam="1">  1       21 0.49661433E-01 0.20500306E+03</pdfrwt>
<pdfrwt beam="2">  1        2 0.32650500E+00 0.20500306E+03</pdfrwt>
<totfact> 0.31824844E+02</totfact>
</mgrwt>
</event>
<event>
 5    0  0.2306346E+000  0.2556433E+03  0.7546771E-02  0.1109789E+00
         21   -1    0    0  501  502  0.00000000000E+00  0.00000000000E+00  0.11461494189E+03  0.11461494189E+03  0.00000000000E+00 0.  1.
         -1   -1    0    0    0  501 -0.00000000000E+00 -0.00000000000E+00 -0.11495526823E+04  0.11495526823E+04  0.00000000000E+00 0. -1.
         25    1    1    2    0    0 -0.28573444927E+02 -0.20927511724E+03 -0.10734926219E+03  0.26788314718E+03  0.12500000000E+03 0.  0.
         21    1    1    2  503  502  0.50375136151E+02 -0.66949114324E+02 -0.16793053720E+03  0.18767126465E+03  0.00000000000E+00 0.  1.
         -1    1    1    2    0  503 -0.21801691224E+02  0.27622423157E+03 -0.75965794106E+03  0.80861321240E+03  0.00000000000E+00 0. -1.
<mgrwt>
<rscale>  4 0.25564332E+03</rscale>
<asrwt>0</asrwt>
<pdfrwt beam="1">  1       21 0.17633068E-01 0.25564332E+03</pdfrwt>
<pdfrwt beam="2">  1       -1 0.17685426E+00 0.25564332E+03</pdfrwt>
<totfact> 0.65025450E+02</totfact>
</mgrwt>
</event>
<event>
 5    0  0.2306346E+000  0.2166140E+03  0.7546771E-02  0.1136433E+00
          2   -1    0    0  502    0 -0.00000000000E+00  0.00000000000E+00  0.95088998181E+03  0.95088998181E+03  0.00000000000E+00 0.  1.
         21   -1    0    0  503  502  0.00000000000E+00 -0.00000000000E+00 -0.75907193112E+02  0.75907193112E+02  0.00000000000E+00 0. -1.
         25    1    1    2    0    0  0.19484885357E+03 -0.10444593382E+03  0.27886385792E+03  0.37718043438E+03  0.12500000000E+03 0.  0.
         21    1    1    2  503  501 -0.45058605706E+02  0.32713123642E+02  0.38256481378E+02  0.67557270327E+02  0.00000000000E+00 0. -1.
          2    1    1    2  501    0 -0.14979024786E+03  0.71732810180E+02  0.55786244940E+03  0.58205947021E+03  0.00000000000E+00 0.  1.
<mgrwt>
<rscale>  4 0.21661404E+03</rscale>
<asrwt>0</asrwt>
<pdfrwt beam="1">  1       21 0.11678030E-01 0.21661404E+03</pdfrwt>
<pdfrwt beam="2">  1        2 0.14629076E+00 0.21661404E+03</pdfrwt>
<totfact> 0.21938102E+04</totfact>
</mgrwt>
</event>
<event>
 5    0  0.2306346E+000  0.1999744E+03  0.7546771E-02  0.1149761E+00
          1   -1    0    0  502    0 -0.00000000000E+00  0.00000000000E+00  0.40818110166E+03  0.40818110166E+03  0.00000000000E+00 0. -1.
         21   -1    0    0  503  502  0.00000000000E+00 -0.00000000000E+00 -0.72405648683E+03  0.72405648683E+03  0.00000000000E+00 0.  1.
         25    1    1    2    0    0  0.15559280102E+03 -0.15907438625E+03  0.21389643415E+00  0.25522309034E+03  0.12500000000E+03 0.  0.
         21    1    1    2  503  501 -0.63498707921E+02  0.45538417507E+02 -0.57467610818E+03  0.57996419087E+03  0.00000000000E+00 0.  1.
          1    1    1    2  501    0 -0.92094093104E+02  0.11353596875E+03  0.25858682657E+03  0.29705030729E+03  0.00000000000E+00 0. -1.
<mgrwt>
<rscale>  4 0.19997439E+03</rscale>
<asrwt>0</asrwt>
<pdfrwt beam="1">  1       21 0.11139331E+00 0.19997439E+03</pdfrwt>
<pdfrwt beam="2">  1        1 0.62797092E-01 0.19997439E+03</pdfrwt>
<totfact> 0.40940342E+02</totfact>
</mgrwt>
</event>
<event>
 5    0  0.2306346E+000  0.2321597E+03  0.7546771E-02  0.1125129E+00
         21   -1    0    0  503  502  0.00000000000E+00  0.00000000000E+00  0.21825865794E+03  0.21825865794E+03  0.00000000000E+00 0.  1.
          2   -1    0    0  502    0 -0.00000000000E+00 -0.00000000000E+00 -0.62054534034E+03  0.62054534034E+03  0.00000000000E+00 0. -1.
         25    1    1    2    0    0 -0.22490286449E+03  0.11421899275E+03 -0.76382003035E+02  0.29169588127E+03  0.12500000000E+03 0.  0.
         21    1    1    2  503  501  0.43064228223E+02 -0.75185078319E+02  0.68894148663E+02  0.11069655584E+03  0.00000000000E+00 0.  1.
          2    1    1    2  501    0  0.18183863627E+03 -0.39033914435E+02 -0.39479882803E+03  0.43641156117E+03  0.00000000000E+00 0. -1.
<mgrwt>
<rscale>  4 0.23215966E+03</rscale>
<asrwt>0</asrwt>
<pdfrwt beam="1">  1       21 0.33578256E-01 0.23215966E+03</pdfrwt>
<pdfrwt beam="2">  1        2 0.95468511E-01 0.23215966E+03</pdfrwt>
<totfact> 0.51443879E+03</totfact>
</mgrwt>
</event>
<event>
 5    0  0.2306346E+000  0.2360318E+03  0.7546771E-02  0.1122465E+00
         21   -1    0    0  503  502  0.00000000000E+00  0.00000000000E+00  0.25599076541E+03  0.25599076541E+03  0.00000000000E+00 0. -1.
          2   -1    0    0  502    0 -0.00000000000E+00 -0.00000000000E+00 -0.43223330362E+03  0.43223330362E+03  0.00000000000E+00 0. -1.
         25    1    1    2    0    0  0.19550706031E+03  0.88917675933E+02  0.12781326446E+03  0.27944694362E+03  0.12500000000E+03 0.  0.
         21    1    1    2  503  501 -0.20649027424E+02  0.45467648256E+01  0.19853204943E+02  0.29003536861E+02  0.00000000000E+00 0.  1.
          2    1    1    2  501    0 -0.17485803288E+03 -0.93464440759E+02 -0.32390900761E+03  0.37977358855E+03  0.00000000000E+00 0. -1.
<mgrwt>
<rscale>  4 0.23603175E+03</rscale>
<asrwt>0</asrwt>
<pdfrwt beam="1">  1       21 0.39383195E-01 0.23603175E+03</pdfrwt>
<pdfrwt beam="2">  1        2 0.66497431E-01 0.23603175E+03</pdfrwt>
<totfact> 0.56159383E+03</totfact>
</mgrwt>
</event>
<event>
 5    0  0.2306346E+000  0.2515853E+03  0.7546771E-02  0.1112307E+00
         21   -1    0    0  503  502  0.00000000000E+00  0.00000000000E+00  0.23731036629E+03  0.23731036629E+03  0.00000000000E+00 0. -1.
          3   -1    0    0  502    0 -0.00000000000E+00 -0.00000000000E+00 -0.49284056063E+03  0.49284056063E+03  0.00000000000E+00 0.  1.
         25    1    1    2    0    0 -0.26035661489E+03 -0.70346326451E+02 -0.19558525892E+03  0.35582687654E+03  0.12500000000E+03 0.  0.
         21    1    1    2  503  501  0.80434714472E+02  0.94265484588E+01  0.98106274593E+02  0.12721416675E+03  0.00000000000E+00 0. -1.
          3    1    1    2  501    0  0.17992190042E+03  0.60919777992E+02 -0.15805121001E+03  0.24710988363E+03  0.00000000000E+00 0.  1.
<mgrwt>
<rscale>  4 0.25158530E+03</rscale>
<asrwt>0</asrwt>
<pdfrwt beam="1">  1       21 0.36509287E-01 0.25158530E+03</pdfrwt>
<pdfrwt beam="2">  1        3 0.75821625E-01 0.25158530E+03</pdfrwt>
<totfact> 0.59436209E+02</totfact>
</mgrwt>
</event>
<event>
 5    0  0.2306346E+000  0.3166930E+03  0.7546771E-02  0.1077181E+00
          2   -1    0    0  502    0 -0.00000000000E+00  0.00000000000E+00  0.43642824069E+03  0.43642824069E+03  0.00000000000E+00 0.  1.
         21   -1    0    0  503  502  0.00000000000E+00 -0.00000000000E+00 -0.11024723220E+04  0.11024723220E+04  0.00000000000E+00 0. -1.
         25    1    1    2    0    0 -0.33893007317E+03  0.10460905347E+03 -0.66912935324E+03  0.76757783966E+03  0.12500000000E+03 0.  0.
         21    1    1    2  503  501  0.21136478525E+03  0.16098664354E+03 -0.26334115116E+03  0.37408599778E+03  0.00000000000E+00 0. -1.
          2    1    1    2  501    0  0.12756528792E+03 -0.26559569702E+03  0.26642642310E+03  0.39723672524E+03  0.00000000000E+00 0.  1.
<mgrwt>
<rscale>  4 0.31669299E+03</rscale>
<asrwt>0</asrwt>
<pdfrwt beam="1">  1       21 0.16961112E+00 0.31669299E+03</pdfrwt>
<pdfrwt beam="2">  1        2 0.67142807E-01 0.31669299E+03</pdfrwt>
<totfact> 0.17938290E+02</totfact>
</mgrwt>
</event>
<event>
 5    0  0.2306346E+000  0.2213397E+03  0.7546771E-02  0.1132888E+00
         21   -1    0    0  503  502  0.00000000000E+00  0.00000000000E+00  0.15500533237E+03  0.15500533237E+03  0.00000000000E+00 0.  1.
          2   -1    0    0  502    0 -0.00000000000E+00 -0.00000000000E+00 -0.16898620086E+04  0.16898620086E+04  0.00000000000E+00 0. -1.
         25    1    1    2    0    0  0.92503125386E+02  0.19313016994E+03 -0.87856976380E+01  0.24810940980E+03  0.12500000000E+03 0.  0.
         21    1    1    2  503  501  0.21960921425E+02 -0.52268381421E+02  0.31701873714E+01  0.56783059570E+02  0.00000000000E+00 0.  1.
          2    1    1    2  501    0 -0.11446404681E+03 -0.14086178852E+03 -0.15292411660E+04  0.15399748716E+04  0.00000000000E+00 0. -1.
<mgrwt>
<rscale>  4 0.22133969E+03</rscale>
<asrwt>0</asrwt>
<pdfrwt beam="1">  1       21 0.23846973E-01 0.22133969E+03</pdfrwt>
<pdfrwt beam="2">  1        2 0.25997878E+00 0.22133969E+03</pdfrwt>
<totfact> 0.22769154E+03</totfact>
</mgrwt>
</event>
<event>
 5    0  0.2306346E+000  0.2368249E+03  0.7546771E-02  0.1121926E+00
         -1   -1    0    0    0  501 -0.00000000000E+00  0.00000000000E+00  0.52245113966E+03  0.52245113966E+03  0.00000000000E+00 0. -1.
         21   -1    0    0  501  502  0.00000000000E+00 -0.00000000000E+00 -0.35516791911E+03  0.35516791911E+03  0.00000000000E+00 0. -1.
         25    1    1    2    0    0  0.18204438382E+03  0.98675094554E+02  0.31202435965E+03  0.39479251890E+03  0.12500000000E+03 0.  0.
         21    1    1    2  503  502 -0.21149504079E+02  0.91659101447E+01 -0.25761557187E+03  0.25864473376E+03  0.00000000000E+00 0. -1.
         -1    1    1    2    0  503 -0.16089487974E+03 -0.10784100470E+03  0.11287443277E+03  0.22418180612E+03  0.00000000000E+00 0. -1.
<mgrwt>
<rscale>  4 0.23682491E+03</rscale>
<asrwt>0</asrwt>
<pdfrwt beam="1">  1       21 0.54641219E-01 0.23682491E+03</pdfrwt>
<pdfrwt beam="2">  1       -1 0.80377098E-01 0.23682491E+03</pdfrwt>
<totfact> 0.46754717E+02</totfact>
</mgrwt>
</event>
<event>
 5    0  0.2306346E+000  0.1914487E+03  0.7546771E-02  0.1157161E+00
         21   -1    0    0  503  502  0.00000000000E+00  0.00000000000E+00  0.10903580769E+04  0.10903580769E+04  0.00000000000E+00 0.  1.
          1   -1    0    0  502    0 -0.00000000000E+00 -0.00000000000E+00 -0.16744246226E+03  0.16744246226E+03  0.00000000000E+00 0. -1.
         25    1    1    2    0    0 -0.14565294529E+03  0.13779820163E+03  0.15948128305E+02  0.23681737191E+03  0.12500000000E+03 0.  0.
         21    1    1    2  503  501  0.10774848994E+03 -0.92997742327E+02  0.94196371886E+03  0.95265626793E+03  0.00000000000E+00 0.  1.
          1    1    1    2  501    0  0.37904455343E+02 -0.44800459305E+02 -0.34996232486E+02  0.68326899366E+02  0.00000000000E+00 0. -1.
<mgrwt>
<rscale>  4 0.19144870E+03</rscale>
<asrwt>0</asrwt>
<pdfrwt beam="1">  1       21 0.16774739E+00 0.19144870E+03</pdfrwt>
<pdfrwt beam="2">  1        1 0.25760379E-01 0.19144870E+03</pdfrwt>
<totfact> 0.44081131E+02</totfact>
</mgrwt>
</event>
<event>
 5    0  0.2306346E+000  0.2841275E+03  0.7546771E-02  0.1093456E+00
         21   -1    0    0  503  502  0.00000000000E+00  0.00000000000E+00  0.11636824259E+04  0.11636824259E+04  0.00000000000E+00 0.  1.
          2   -1    0    0  502    0 -0.00000000000E+00 -0.00000000000E+00 -0.15540468645E+03  0.15540468645E+03  0.00000000000E+00 0.  1.
         25    1    1    2    0    0  0.10854679007E+03  0.24083535338E+03  0.10152828824E+03  0.30938174863E+03  0.12500000000E+03 0.  0.
         21    1    1    2  503  501 -0.26091280729E+02 -0.12316117634E+02  0.66954907736E+03  0.67017043256E+03  0.00000000000E+00 0.  1.
          2    1    1    2  501    0 -0.82455509340E+02 -0.22851923574E+03  0.23720037389E+03  0.33953493119E+03  0.00000000000E+00 0.  1.
<mgrwt>
<rscale>  4 0.28412746E+03</rscale>
<asrwt>0</asrwt>
<pdfrwt beam="1">  1       21 0.17902806E+00 0.28412746E+03</pdfrwt>
<pdfrwt beam="2">  1        2 0.23908414E-01 0.28412746E+03</pdfrwt>
<totfact> 0.48638550E+02</totfact>
</mgrwt>
</event>
<event>
 5    0  0.2306346E+000  0.2728905E+03  0.7546771E-02  0.1099637E+00
          1   -1    0    0  502    0 -0.00000000000E+00  0.00000000000E+00  0.10975707842E+04  0.10975707842E+04  0.00000000000E+00 0. -1.
         21   -1    0    0  503  502  0.00000000000E+00 -0.00000000000E+00 -0.12983750343E+03  0.12983750343E+03  0.00000000000E+00 0. -1.
         25    1    1    2    0    0  0.26530269876E+03  0.13350528503E+02  0.27533179225E+03  0.40248770714E+03  0.12500000000E+03 0.  0.
         21    1    1    2  503  501 -0.30804689907E+02  0.13075236369E+02 -0.41904701411E+02  0.53627369195E+02  0.00000000000E+00 0. -1.
          1    1    1    2  501    0 -0.23449800885E+03 -0.26425764872E+02  0.73430618995E+03  0.77129321130E+03  0.00000000000E+00 0. -1.
<mgrwt>
<rscale>  4 0.27289055E+03</rscale>
<asrwt>0</asrwt>
<pdfrwt beam="1">  1       21 0.19975001E-01 0.27289055E+03</pdfrwt>
<pdfrwt beam="2">  1        1 0.16885704E+00 0.27289055E+03</pdfrwt>
<totfact> 0.34268078E+03</totfact>
</mgrwt>
</event>
<event>
 5    0  0.2306346E+000  0.2047906E+03  0.7546771E-02  0.1145759E+00
          2   -1    0    0  502    0 -0.00000000000E+00  0.00000000000E+00  0.18985438737E+04  0.18985438737E+04  0.00000000000E+00 0. -1.
         21   -1    0    0  503  502  0.00000000000E+00 -0.00000000000E+00 -0.44518624521E+03  0.44518624521E+03  0.00000000000E+00 0.  1.
         25    1    1    2    0    0 -0.21261816707E+03 -0.96241846572E+02 -0.31746722010E+03  0.41337563285E+03  0.12500000000E+03 0.  0.
         21    1    1    2  503  501  0.55358841409E+02  0.59197117287E+02 -0.54644622377E+02  0.97749346657E+02  0.00000000000E+00 0.  1.
          2    1    1    2  501    0  0.15725932566E+03  0.37044729286E+02  0.18254694710E+04  0.18326051394E+04  0.00000000000E+00 0. -1.
<mgrwt>
<rscale>  4 0.20479059E+03</rscale>
<asrwt>0</asrwt>
<pdfrwt beam="1">  1       21 0.68490192E-01 0.20479059E+03</pdfrwt>
<pdfrwt beam="2">  1        2 0.29208367E+00 0.20479059E+03</pdfrwt>
<totfact> 0.20919959E+02</totfact>
</mgrwt>
</event>
<event>
 5    0  0.2306346E+000  0.4572933E+03  0.7546771E-02  0.1025569E+00
          2   -1    0    0  502    0 -0.00000000000E+00  0.00000000000E+00  0.33845482948E+04  0.33845482948E+04  0.00000000000E+00 0. -1.
         21   -1    0    0  503  502  0.00000000000E+00 -0.00000000000E+00 -0.33819766301E+03  0.33819766301E+03  0.00000000000E+00 0.  1.
         25    1    1    2    0    0  0.22336907686E+03 -0.37719688608E+03 -0.15256289064E+03  0.48069914808E+03  0.12500000000E+03 0.  0.
         21    1    1    2  503  501  0.11359899540E+02 -0.28723851665E+02  0.52714758263E+02  0.61097894487E+02  0.00000000000E+00 0.  1.
          2    1    1    2  501    0 -0.23472897640E+03  0.40592073774E+03  0.31461987642E+04  0.31809489153E+04  0.00000000000E+00 0. -1.
<mgrwt>
<rscale>  4 0.45729329E+03</rscale>
<asrwt>0</asrwt>
<pdfrwt beam="1">  1       21 0.52030412E-01 0.45729329E+03</pdfrwt>
<pdfrwt beam="2">  1        2 0.52069971E+00 0.45729329E+03</pdfrwt>
<totfact> 0.46180632E+01</totfact>
</mgrwt>
</event>
<event>
 5    0  0.2306346E+000  0.3590266E+03  0.7546771E-02  0.1058970E+00
          2   -1    0    0  502    0 -0.00000000000E+00  0.00000000000E+00  0.27165401578E+03  0.27165401578E+03  0.00000000000E+00 0. -1.
         21   -1    0    0  503  502  0.00000000000E+00 -0.00000000000E+00 -0.81842295719E+03  0.81842295719E+03  0.00000000000E+00 0. -1.
         25    1    1    2    0    0 -0.30270485249E+03 -0.20202764476E+03 -0.58646902344E+03  0.70143874459E+03  0.12500000000E+03 0.  0.
         21    1    1    2  503  501  0.34880807573E+02  0.75642950975E+01 -0.34287258413E+02  0.49492478082E+02  0.00000000000E+00 0. -1.
          2    1    1    2  501    0  0.26782404492E+03  0.19446334966E+03  0.73987340444E+02  0.33914575029E+03  0.00000000000E+00 0. -1.
<mgrwt>
<rscale>  4 0.35902655E+03</rscale>
<asrwt>0</asrwt>
<pdfrwt beam="1">  1       21 0.12591123E+00 0.35902655E+03</pdfrwt>
<pdfrwt beam="2">  1        2 0.41792925E-01 0.35902655E+03</pdfrwt>
<totfact> 0.65699391E+02</totfact>
</mgrwt>
</event>
<event>
 5    0  0.2306346E+000  0.2841404E+03  0.7546771E-02  0.1093449E+00
          1   -1    0    0  502    0 -0.00000000000E+00  0.00000000000E+00  0.96845865169E+03  0.96845865169E+03  0.00000000000E+00 0. -1.
         21   -1    0    0  503  502  0.00000000000E+00 -0.00000000000E+00 -0.19449560185E+03  0.19449560185E+03  0.00000000000E+00 0. -1.
         25    1    1    2    0    0 -0.21529389005E+03  0.15719608860E+03  0.17007433318E+03  0.34001815859E+03  0.12500000000E+03 0.  0.
         21    1    1    2  503  501 -0.12488577559E+02 -0.47024818832E+02 -0.80059455242E+02  0.93684654716E+02  0.00000000000E+00 0. -1.
          1    1    1    2  501    0  0.22778246761E+03 -0.11017126977E+03  0.68394817190E+03  0.72925144023E+03  0.00000000000E+00 0. -1.
<mgrwt>
<rscale>  4 0.28414045E+03</rscale>
<asrwt>0</asrwt>
<pdfrwt beam="1">  1       21 0.29922401E-01 0.28414045E+03</pdfrwt>
<pdfrwt beam="2">  1        1 0.14899364E+00 0.28414045E+03</pdfrwt>
<totfact> 0.19571779E+03</totfact>
</mgrwt>
</event>
<event>
 5    0  0.2306346E+000  0.2653306E+03  0.7546771E-02  0.1103982E+00
          1   -1    0    0  502    0 -0.00000000000E+00  0.00000000000E+00  0.10562140406E+04  0.10562140406E+04  0.00000000000E+00 0.  1.
         21   -1    0    0  503  502  0.00000000000E+00 -0.00000000000E+00 -0.21680808826E+03  0.21680808826E+03  0.00000000000E+00 0. -1.
         25    1    1    2    0    0 -0.12504116587E+03 -0.18399791647E+03  0.26686133644E+03  0.36922960244E+03  0.12500000000E+03 0.  0.
         21    1    1    2  503  501  0.68730295745E+01 -0.23285892615E+02 -0.14530950455E+03  0.14732387262E+03  0.00000000000E+00 0. -1.
          1    1    1    2  501    0  0.11816813630E+03  0.20728380909E+03  0.71785412048E+03  0.75646865384E+03  0.00000000000E+00 0.  1.
<mgrwt>
<rscale>  4 0.26533062E+03</rscale>
<asrwt>0</asrwt>
<pdfrwt beam="1">  1       21 0.33355091E-01 0.26533062E+03</pdfrwt>
<pdfrwt beam="2">  1        1 0.16249447E+00 0.26533062E+03</pdfrwt>
<totfact> 0.13671581E+03</totfact>
</mgrwt>
</event>
<event>
 5    0  0.2306346E+000  0.2895905E+03  0.7546771E-02  0.1090563E+00
         -1   -1    0    0    0  501 -0.00000000000E+00  0.00000000000E+00  0.43080300998E+03  0.43080300998E+03  0.00000000000E+00 0. -1.
         21   -1    0    0  501  502  0.00000000000E+00 -0.00000000000E+00 -0.28604815478E+03  0.28604815478E+03  0.00000000000E+00 0. -1.
         25    1    1    2    0    0  0.10804929467E+03  0.24639301851E+03  0.26301496324E+03  0.39646694759E+03  0.12500000000E+03 0.  0.
         21    1    1    2  503  502  0.21048738714E+02 -0.39117645027E+02 -0.49894365253E+02  0.66803347505E+02  0.00000000000E+00 0. -1.
         -1    1    1    2    0  503 -0.12909803338E+03 -0.20727537348E+03 -0.68365742783E+02  0.25358086967E+03  0.00000000000E+00 0. -1.
<mgrwt>
<rscale>  4 0.28959050E+03</rscale>
<asrwt>0</asrwt>
<pdfrwt beam="1">  1       21 0.44007408E-01 0.28959050E+03</pdfrwt>
<pdfrwt beam="2">  1       -1 0.66277386E-01 0.28959050E+03</pdfrwt>
<totfact> 0.10681289E+03</totfact>
</mgrwt>
</event>
<event>
 5    0  0.2306346E+000  0.2458952E+03  0.7546771E-02  0.1115927E+00
          2   -1    0    0  502    0 -0.00000000000E+00  0.00000000000E+00  0.66463957637E+03  0.66463957637E+03  0.00000000000E+00 0.  1.
         21   -1    0    0  503  502  0.00000000000E+00 -0.00000000000E+00 -0.24273178633E+03  0.24273178633E+03  0.00000000000E+00 0. -1.
         25    1    1    2    0    0 -0.60466837710E+02 -0.20215732069E+03 -0.91699810490E+02  0.26183520774E+03  0.12500000000E+03 0.  0.
         21    1    1    2  503  501 -0.50601786429E+02  0.20926704250E+02 -0.29582656818E+02  0.62238262548E+02  0.00000000000E+00 0. -1.
          2    1    1    2  501    0  0.11106862414E+03  0.18123061644E+03  0.54319025735E+03  0.58329789241E+03  0.00000000000E+00 0.  1.
<mgrwt>
<rscale>  4 0.24589522E+03</rscale>
<asrwt>0</asrwt>
<pdfrwt beam="1">  1       21 0.37343352E-01 0.24589522E+03</pdfrwt>
<pdfrwt beam="2">  1        2 0.10225224E+00 0.24589522E+03</pdfrwt>
<totfact> 0.38193250E+03</totfact>
</mgrwt>
</event>
<event>
 5    0  0.2306346E+000  0.3137211E+03  0.7546771E-02  0.1078576E+00
          2   -1    0    0  502    0 -0.00000000000E+00  0.00000000000E+00  0.11713236204E+04  0.11713236204E+04  0.00000000000E+00 0. -1.
         21   -1    0    0  503  502  0.00000000000E+00 -0.00000000000E+00 -0.12423845056E+03  0.12423845056E+03  0.00000000000E+00 0.  1.
         25    1    1    2    0    0  0.25721797067E+03  0.12779379524E+03  0.52614909889E+03  0.61233178326E+03  0.12500000000E+03 0.  0.
         21    1    1    2  503  501  0.26951462235E+02 -0.61556795666E+02 -0.18706523727E+02  0.69753526357E+02  0.00000000000E+00 0.  1.
          2    1    1    2  501    0 -0.28416943290E+03 -0.66236999571E+02  0.53964259468E+03  0.61347676133E+03  0.00000000000E+00 0. -1.
<mgrwt>
<rscale>  4 0.31372111E+03</rscale>
<asrwt>0</asrwt>
<pdfrwt beam="1">  1       21 0.19113609E-01 0.31372111E+03</pdfrwt>
<pdfrwt beam="2">  1        2 0.18020363E+00 0.31372111E+03</pdfrwt>
<totfact> 0.64128480E+03</totfact>
</mgrwt>
</event>
<event>
 5    0  0.3485102E+000  0.3707751E+03  0.7546771E-02  0.1054397E+00
         21   -1    0    0  503  502  0.00000000000E+00  0.00000000000E+00  0.14312001410E+03  0.14312001410E+03  0.00000000000E+00 0. -1.
          2   -1    0    0  502    0 -0.00000000000E+00 -0.00000000000E+00 -0.22748592862E+04  0.22748592862E+04  0.00000000000E+00 0. -1.
         25    1    1    2    0    0 -0.33715154206E+03  0.11740902310E+03 -0.17093927870E+03  0.41509189105E+03  0.12500000000E+03 0.  0.
         21    1    1    2  503  501  0.13814627886E+01 -0.25388518841E+02 -0.23729886620E+02  0.34779201363E+02  0.00000000000E+00 0.  1.
          2    1    1    2  501    0  0.33577007927E+03 -0.92020504262E+02 -0.19370701068E+04  0.19681082079E+04  0.00000000000E+00 0. -1.
<mgrwt>
<rscale>  4 0.37077511E+03</rscale>
<asrwt>0</asrwt>
<pdfrwt beam="1">  1       21 0.22018465E-01 0.37077511E+03</pdfrwt>
<pdfrwt beam="2">  1        2 0.34997833E+00 0.37077511E+03</pdfrwt>
<totfact> 0.12193981E+03</totfact>
</mgrwt>
</event>
<event>
 5    0  0.2306346E+000  0.2493998E+03  0.7546771E-02  0.1113685E+00
         21   -1    0    0  503  502  0.00000000000E+00  0.00000000000E+00  0.70312917990E+03  0.70312917990E+03  0.00000000000E+00 0.  1.
          2   -1    0    0  502    0 -0.00000000000E+00 -0.00000000000E+00 -0.11847404217E+04  0.11847404217E+04  0.00000000000E+00 0. -1.
         25    1    1    2    0    0  0.12617956996E+03  0.15654366211E+03  0.60426216589E+03  0.64898764792E+03  0.12500000000E+03 0.  0.
         21    1    1    2  503  501  0.71692910549E+02 -0.68877583079E+02  0.28710326520E+02  0.10348080847E+03  0.00000000000E+00 0.  1.
          2    1    1    2  501    0 -0.19787248050E+03 -0.87666079033E+02 -0.11145837342E+04  0.11354011452E+04  0.00000000000E+00 0. -1.
<mgrwt>
<rscale>  4 0.24939976E+03</rscale>
<asrwt>0</asrwt>
<pdfrwt beam="1">  1       21 0.10817372E+00 0.24939976E+03</pdfrwt>
<pdfrwt beam="2">  1        2 0.18226776E+00 0.24939976E+03</pdfrwt>
<totfact> 0.16955841E+02</totfact>
</mgrwt>
</event>
<event>
 5    0  0.2306346E+000  0.2605394E+03  0.7546771E-02  0.1106820E+00
          1   -1    0    0  502    0 -0.00000000000E+00  0.00000000000E+00  0.11318081370E+04  0.11318081370E+04  0.00000000000E+00 0.  1.
         21   -1    0    0  503  502  0.00000000000E+00 -0.00000000000E+00 -0.46910392205E+03  0.46910392205E+03  0.00000000000E+00 0. -1.
         25    1    1    2    0    0 -0.17080296413E+03  0.20770082568E+03  0.25752300977E+03  0.39275486770E+03  0.12500000000E+03 0.  0.
         21    1    1    2  503  501  0.48445088315E+02 -0.25026633071E+02 -0.38454708078E+03  0.38839376447E+03  0.00000000000E+00 0. -1.
          1    1    1    2  501    0  0.12235787581E+03 -0.18267419261E+03  0.78972828592E+03  0.81976342685E+03  0.00000000000E+00 0.  1.
<mgrwt>
<rscale>  4 0.26053936E+03</rscale>
<asrwt>0</asrwt>
<pdfrwt beam="1">  1       21 0.72169834E-01 0.26053936E+03</pdfrwt>
<pdfrwt beam="2">  1        1 0.17412433E+00 0.26053936E+03</pdfrwt>
<totfact> 0.23876571E+02</totfact>
</mgrwt>
</event>
<event>
 5    0  0.2306346E+000  0.3432697E+03  0.7546771E-02  0.1065412E+00
         21   -1    0    0  503  502  0.00000000000E+00  0.00000000000E+00  0.12518104401E+04  0.12518104401E+04  0.00000000000E+00 0. -1.
          2   -1    0    0  502    0 -0.00000000000E+00 -0.00000000000E+00 -0.12557475276E+04  0.12557475276E+04  0.00000000000E+00 0.  1.
         25    1    1    2    0    0  0.26384873434E+03  0.27349290003E+03 -0.67715594424E+03  0.78649837495E+03  0.12500000000E+03 0.  0.
         21    1    1    2  503  501 -0.63068024515E+02 -0.80175110273E+02  0.11576681708E+04  0.11621536980E+04  0.00000000000E+00 0. -1.
          2    1    1    2  501    0 -0.20078070982E+03 -0.19331778976E+03 -0.48444931407E+03  0.55890589474E+03  0.00000000000E+00 0.  1.
<mgrwt>
<rscale>  4 0.34326971E+03</rscale>
<asrwt>0</asrwt>
<pdfrwt beam="1">  1       21 0.19258622E+00 0.34326971E+03</pdfrwt>
<pdfrwt beam="2">  1        2 0.19319193E+00 0.34326971E+03</pdfrwt>
<totfact> 0.31251675E+01</totfact>
</mgrwt>
</event>
<event>
 5    0  0.2306346E+000  0.2322408E+03  0.7546771E-02  0.1125072E+00
          2   -1    0    0  502    0 -0.00000000000E+00  0.00000000000E+00  0.21846387684E+04  0.21846387684E+04  0.00000000000E+00 0. -1.
         21   -1    0    0  503  502  0.00000000000E+00 -0.00000000000E+00 -0.44810649337E+02  0.44810649337E+02  0.00000000000E+00 0. -1.
         25    1    1    2    0    0 -0.21349242621E+03  0.75573845229E+02  0.43272168571E+03  0.50414628771E+03  0.12500000000E+03 0.  0.
         21    1    1    2  503  501  0.28202537997E+02 -0.29438218272E+02  0.11966452292E+03  0.12641831311E+03  0.00000000000E+00 0. -1.
          2    1    1    2  501    0  0.18528988821E+03 -0.46135626957E+02  0.15874419105E+04  0.15988848169E+04  0.00000000000E+00 0. -1.
<mgrwt>
<rscale>  4 0.23224082E+03</rscale>
<asrwt>0</asrwt>
<pdfrwt beam="1">  1       21 0.68939478E-02 0.23224082E+03</pdfrwt>
<pdfrwt beam="2">  1        2 0.33609819E+00 0.23224082E+03</pdfrwt>
<totfact> 0.11797964E+04</totfact>
</mgrwt>
</event>
<event>
 5    0  0.2306346E+000  0.2243142E+03  0.7546771E-02  0.1130707E+00
         21   -1    0    0  501  502  0.00000000000E+00  0.00000000000E+00  0.71966843923E+02  0.71966843923E+02  0.00000000000E+00 0.  1.
         -3   -1    0    0    0  501 -0.00000000000E+00 -0.00000000000E+00 -0.12943855453E+04  0.12943855453E+04  0.00000000000E+00 0.  1.
         25    1    1    2    0    0 -0.98404240650E+02 -0.23620328745E+03 -0.52087387442E+03  0.59364128953E+03  0.12500000000E+03 0.  0.
         21    1    1    2  503  502  0.14812222542E+02  0.16077263622E+03 -0.19193562931E+03  0.25081173874E+03  0.00000000000E+00 0.  1.
         -3    1    1    2    0  503  0.83592018108E+02  0.75430651230E+02 -0.50960919765E+03  0.52189936096E+03  0.00000000000E+00 0.  1.
<mgrwt>
<rscale>  4 0.22431417E+03</rscale>
<asrwt>0</asrwt>
<pdfrwt beam="1">  1       21 0.11071822E-01 0.22431417E+03</pdfrwt>
<pdfrwt beam="2">  1       -3 0.19913624E+00 0.22431417E+03</pdfrwt>
<totfact> 0.54048709E+02</totfact>
</mgrwt>
</event>
<event>
 5    0  0.5206712E+000  0.2339096E+03  0.7546771E-02  0.1123918E+00
         21   -1    0    0  503  502  0.00000000000E+00  0.00000000000E+00  0.28754670894E+04  0.28754670894E+04  0.00000000000E+00 0.  1.
          2   -1    0    0  502    0 -0.00000000000E+00 -0.00000000000E+00 -0.10168384502E+04  0.10168384502E+04  0.00000000000E+00 0. -1.
         25    1    1    2    0    0  0.28320124758E+03 -0.12954904006E+01  0.27663919196E+04  0.27836583622E+04  0.12500000000E+03 0.  0.
         21    1    1    2  503  501 -0.88093622860E+02  0.31397338765E+02  0.66390694229E+02  0.11469090439E+03  0.00000000000E+00 0.  1.
          2    1    1    2  501    0 -0.19510762471E+03 -0.30101848364E+02 -0.97415397461E+03  0.99395627305E+03  0.00000000000E+00 0. -1.
<mgrwt>
<rscale>  4 0.23390962E+03</rscale>
<asrwt>0</asrwt>
<pdfrwt beam="1">  1       21 0.44237955E+00 0.23390962E+03</pdfrwt>
<pdfrwt beam="2">  1        2 0.15643669E+00 0.23390962E+03</pdfrwt>
<totfact> 0.14124392E+00</totfact>
</mgrwt>
</event>
<event>
 5    0  0.2306346E+000  0.2269763E+03  0.7546771E-02  0.1128786E+00
         21   -1    0    0  503  502  0.00000000000E+00  0.00000000000E+00  0.81294559146E+02  0.81294559146E+02  0.00000000000E+00 0.  1.
          1   -1    0    0  502    0 -0.00000000000E+00 -0.00000000000E+00 -0.18378290915E+04  0.18378290915E+04  0.00000000000E+00 0.  1.
         25    1    1    2    0    0  0.14155669569E+03 -0.24053163957E+03 -0.78658892198E+03  0.84394365921E+03  0.12500000000E+03 0.  0.
         21    1    1    2  503  501 -0.16878828060E+02  0.12780295770E+03 -0.47249183911E+02  0.13729885729E+03  0.00000000000E+00 0.  1.
          1    1    1    2  501    0 -0.12467786763E+03  0.11272868187E+03 -0.92269642649E+03  0.93788113418E+03  0.00000000000E+00 0.  1.
<mgrwt>
<rscale>  4 0.22697630E+03</rscale>
<asrwt>0</asrwt>
<pdfrwt beam="1">  1       21 0.12506857E-01 0.22697630E+03</pdfrwt>
<pdfrwt beam="2">  1        1 0.28274290E+00 0.22697630E+03</pdfrwt>
<totfact> 0.26297792E+03</totfact>
</mgrwt>
</event>
<event>
 5    0  0.2306346E+000  0.2858621E+03  0.7546771E-02  0.1092530E+00
         -2   -1    0    0    0  501 -0.00000000000E+00  0.00000000000E+00  0.22459533446E+04  0.22459533446E+04  0.00000000000E+00 0.  1.
         21   -1    0    0  501  502  0.00000000000E+00 -0.00000000000E+00 -0.89030127864E+02  0.89030127864E+02  0.00000000000E+00 0.  1.
         25    1    1    2    0    0 -0.59298117059E+02 -0.20108391861E+03  0.39650836953E+03  0.46561238827E+03  0.12500000000E+03 0.  0.
         21    1    1    2  503  502  0.13397677167E+03 -0.70871140242E+02  0.92032578051E+02  0.17732030140E+03  0.00000000000E+00 0.  1.
         -2    1    1    2    0  503 -0.74678654611E+02  0.27195505885E+03  0.16683822692E+04  0.16920507828E+04  0.00000000000E+00 0.  1.
<mgrwt>
<rscale>  4 0.28586212E+03</rscale>
<asrwt>0</asrwt>
<pdfrwt beam="1">  1       21 0.13696944E-01 0.28586212E+03</pdfrwt>
<pdfrwt beam="2">  1       -2 0.34553124E+00 0.28586212E+03</pdfrwt>
<totfact> 0.73142334E+01</totfact>
</mgrwt>
</event>
<event>
 5    0  0.2306346E+000  0.2730886E+03  0.7546771E-02  0.1099525E+00
         21   -1    0    0  501  502  0.00000000000E+00  0.00000000000E+00  0.21749620855E+03  0.21749620855E+03  0.00000000000E+00 0.  1.
         -1   -1    0    0    0  501 -0.00000000000E+00 -0.00000000000E+00 -0.12284762096E+04  0.12284762096E+04  0.00000000000E+00 0.  1.
         25    1    1    2    0    0 -0.95866545536E+02  0.21598284101E+03  0.91031705107E+02  0.28240175902E+03  0.12500000000E+03 0.  0.
         21    1    1    2  503  502  0.15111726183E+02  0.13532000668E+02  0.11817926696E+02  0.23476428640E+02  0.00000000000E+00 0. -1.
         -1    1    1    2    0  503  0.80754819353E+02 -0.22951484168E+03 -0.11138296329E+04  0.11400942305E+04  0.00000000000E+00 0.  1.
<mgrwt>
<rscale>  4 0.27308861E+03</rscale>
<asrwt>0</asrwt>
<pdfrwt beam="1">  1       21 0.33460955E-01 0.27308861E+03</pdfrwt>
<pdfrwt beam="2">  1       -1 0.18899634E+00 0.27308861E+03</pdfrwt>
<totfact> 0.15548689E+02</totfact>
</mgrwt>
</event>
<event>
 5    0  0.2306346E+000  0.4144726E+03  0.7546771E-02  0.1038880E+00
         -3   -1    0    0    0  501 -0.00000000000E+00  0.00000000000E+00  0.11614371009E+04  0.11614371009E+04  0.00000000000E+00 0. -1.
         21   -1    0    0  501  502  0.00000000000E+00 -0.00000000000E+00 -0.54284415864E+03  0.54284415864E+03  0.00000000000E+00 0. -1.
         25    1    1    2    0    0  0.22679335392E+03  0.28064184747E+03  0.13033583036E+03  0.40349411472E+03  0.12500000000E+03 0.  0.
         21    1    1    2  503  502  0.31105361614E+01  0.55390073109E+02 -0.35768552157E+03  0.36196224662E+03  0.00000000000E+00 0. -1.
         -3    1    1    2    0  503 -0.22990389009E+03 -0.33603192058E+03  0.84594263345E+03  0.93882489816E+03  0.00000000000E+00 0. -1.
<mgrwt>
<rscale>  4 0.41447260E+03</rscale>
<asrwt>0</asrwt>
<pdfrwt beam="1">  1       21 0.83514486E-01 0.41447260E+03</pdfrwt>
<pdfrwt beam="2">  1       -3 0.17868263E+00 0.41447260E+03</pdfrwt>
<totfact> 0.12203111E+01</totfact>
</mgrwt>
</event>
<event>
 5    0  0.2306346E+000  0.2830568E+03  0.7546771E-02  0.1094031E+00
         -2   -1    0    0    0  501 -0.00000000000E+00  0.00000000000E+00  0.16765900009E+03  0.16765900009E+03  0.00000000000E+00 0.  1.
         21   -1    0    0  501  502  0.00000000000E+00 -0.00000000000E+00 -0.10469190821E+04  0.10469190821E+04  0.00000000000E+00 0.  1.
         25    1    1    2    0    0 -0.19326302845E+03 -0.21384691594E+03 -0.42900895663E+03  0.53174691959E+03  0.12500000000E+03 0.  0.
         21    1    1    2  503  502  0.18085811749E+03  0.15433549057E+03 -0.53097577747E+03  0.58177691478E+03  0.00000000000E+00 0.  1.
         -2    1    1    2    0  503  0.12404910955E+02  0.59511425369E+02  0.80724652037E+02  0.10105424787E+03  0.00000000000E+00 0.  1.
<mgrwt>
<rscale>  4 0.28305678E+03</rscale>
<asrwt>0</asrwt>
<pdfrwt beam="1">  1       21 0.16106447E+00 0.28305678E+03</pdfrwt>
<pdfrwt beam="2">  1       -2 0.25793693E-01 0.28305678E+03</pdfrwt>
<totfact> 0.25309545E+02</totfact>
</mgrwt>
</event>
<event>
 5    0  0.2306346E+000  0.2206247E+03  0.7546771E-02  0.1133418E+00
          3   -1    0    0  502    0 -0.00000000000E+00  0.00000000000E+00  0.12053038453E+04  0.12053038453E+04  0.00000000000E+00 0.  1.
         21   -1    0    0  503  502  0.00000000000E+00 -0.00000000000E+00 -0.99730117098E+03  0.99730117098E+03  0.00000000000E+00 0.  1.
         25    1    1    2    0    0 -0.86045513429E+02  0.18660742456E+03 -0.74093071339E+03  0.77899260801E+03  0.12500000000E+03 0.  0.
         21    1    1    2  503  501  0.15189928179E+02 -0.19420934405E+02 -0.22972736653E+03  0.23104668261E+03  0.00000000000E+00 0.  1.
          3    1    1    2  501    0  0.70855585250E+02 -0.16718649016E+03  0.11786607543E+04  0.11925657257E+04  0.00000000000E+00 0.  1.
<mgrwt>
<rscale>  4 0.22062473E+03</rscale>
<asrwt>0</asrwt>
<pdfrwt beam="1">  1       21 0.15343095E+00 0.22062473E+03</pdfrwt>
<pdfrwt beam="2">  1        3 0.18543136E+00 0.22062473E+03</pdfrwt>
<totfact> 0.26968862E+00</totfact>
</mgrwt>
</event>
<event>
 5    0  0.2306346E+000  0.2488329E+03  0.7546771E-02  0.1114045E+00
         21   -1    0    0  503  502  0.00000000000E+00  0.00000000000E+00  0.21893943489E+03  0.21893943489E+03  0.00000000000E+00 0.  1.
          2   -1    0    0  502    0 -0.00000000000E+00 -0.00000000000E+00 -0.86095884773E+03  0.86095884773E+03  0.00000000000E+00 0.  1.
         25    1    1    2    0    0 -0.16978213756E+03 -0.14955097723E+03  0.57133007228E+02  0.26472750054E+03  0.12500000000E+03 0.  0.
         21    1    1    2  503  501  0.27340309721E+02 -0.10489639128E+02  0.37737431928E+02  0.47766503255E+02  0.00000000000E+00 0.  1.
          2    1    1    2  501    0  0.14244182784E+03  0.16004061636E+03 -0.73688985199E+03  0.76740427883E+03  0.00000000000E+00 0.  1.
<mgrwt>
<rscale>  4 0.24883295E+03</rscale>
<asrwt>0</asrwt>
<pdfrwt beam="1">  1       21 0.33682990E-01 0.24883295E+03</pdfrwt>
<pdfrwt beam="2">  1        2 0.13245521E+00 0.24883295E+03</pdfrwt>
<totfact> 0.33935561E+03</totfact>
</mgrwt>
</event>
<event>
 5    0  0.2306346E+000  0.7671218E+03  0.7546771E-02  0.9608865E-01
         -2   -1    0    0    0  501 -0.00000000000E+00  0.00000000000E+00  0.70897079769E+03  0.70897079769E+03  0.00000000000E+00 0. -1.
         21   -1    0    0  501  502  0.00000000000E+00 -0.00000000000E+00 -0.10318304332E+04  0.10318304332E+04  0.00000000000E+00 0. -1.
         25    1    1    2    0    0  0.54501703909E+03 -0.51675106686E+03 -0.29929665465E+03  0.81809457001E+03  0.12500000000E+03 0.  0.
         21    1    1    2  503  502  0.26150196897E+02  0.14738730350E+02 -0.14900893086E+03  0.15200238303E+03  0.00000000000E+00 0.  1.
         -2    1    1    2    0  503 -0.57116723599E+03  0.50201233651E+03  0.12544595001E+03  0.77070427782E+03  0.00000000000E+00 0. -1.
<mgrwt>
<rscale>  4 0.76712182E+03</rscale>
<asrwt>0</asrwt>
<pdfrwt beam="1">  1       21 0.15874314E+00 0.76712182E+03</pdfrwt>
<pdfrwt beam="2">  1       -2 0.10907243E+00 0.76712182E+03</pdfrwt>
<totfact> 0.11630479E+01</totfact>
</mgrwt>
</event>
<event>
 5    0  0.2306346E+000  0.2506574E+03  0.7546771E-02  0.1112890E+00
         21   -1    0    0  501  502  0.00000000000E+00  0.00000000000E+00  0.22485093270E+03  0.22485093270E+03  0.00000000000E+00 0. -1.
         -4   -1    0    0    0  501 -0.00000000000E+00 -0.00000000000E+00 -0.75899750985E+03  0.75899750985E+03  0.00000000000E+00 0. -1.
         25    1    1    2    0    0 -0.17760609066E+02  0.20837193275E+03 -0.16088701119E+03  0.29196563490E+03  0.12500000000E+03 0.  0.
         21    1    1    2  503  502  0.11948710476E+03 -0.27196067213E+01  0.10649988766E+03  0.16008369853E+03  0.00000000000E+00 0. -1.
         -4    1    1    2    0  503 -0.10172649569E+03 -0.20565232603E+03 -0.47975945362E+03  0.53179910912E+03  0.00000000000E+00 0. -1.
<mgrwt>
<rscale>  4 0.25065739E+03</rscale>
<asrwt>0</asrwt>
<pdfrwt beam="1">  1       21 0.34592451E-01 0.25065739E+03</pdfrwt>
<pdfrwt beam="2">  1       -4 0.11676885E+00 0.25065739E+03</pdfrwt>
<totfact> 0.19879086E+02</totfact>
</mgrwt>
</event>
<event>
 5    0  0.2306346E+000  0.2821928E+03  0.7546771E-02  0.1094497E+00
          2   -1    0    0  502    0 -0.00000000000E+00  0.00000000000E+00  0.29474716937E+04  0.29474716937E+04  0.00000000000E+00 0. -1.
         21   -1    0    0  503  502  0.00000000000E+00 -0.00000000000E+00 -0.85129476254E+02  0.85129476254E+02  0.00000000000E+00 0.  1.
         25    1    1    2    0    0 -0.94535589591E-01 -0.23246864072E+03  0.57491669574E+03  0.63261037368E+03  0.12500000000E+03 0.  0.
         21    1    1    2  503  501  0.21303949009E+02 -0.24890705869E+02 -0.43693463084E+02  0.54612491230E+02  0.00000000000E+00 0.  1.
          2    1    1    2  501    0 -0.21209413420E+02  0.25735934659E+03  0.23311189848E+04  0.23453783051E+04  0.00000000000E+00 0. -1.
<mgrwt>
<rscale>  4 0.28219279E+03</rscale>
<asrwt>0</asrwt>
<pdfrwt beam="1">  1       21 0.13096845E-01 0.28219279E+03</pdfrwt>
<pdfrwt beam="2">  1        2 0.45345711E+00 0.28219279E+03</pdfrwt>
<totfact> 0.13979779E+03</totfact>
</mgrwt>
</event>
<event>
 5    0  0.2306346E+000  0.2553042E+03  0.7546771E-02  0.1109998E+00
          3   -1    0    0  502    0 -0.00000000000E+00  0.00000000000E+00  0.26097915635E+03  0.26097915635E+03  0.00000000000E+00 0. -1.
         21   -1    0    0  503  502  0.00000000000E+00 -0.00000000000E+00 -0.26693510441E+03  0.26693510441E+03  0.00000000000E+00 0. -1.
         25    1    1    2    0    0 -0.18772282616E+03  0.13646734085E+03 -0.29562359151E+02  0.26525860525E+03  0.12500000000E+03 0.  0.
         21    1    1    2  503  501  0.36212429158E+02  0.20130278333E+02 -0.88234233292E+01  0.42360605880E+02  0.00000000000E+00 0. -1.
          3    1    1    2  501    0  0.15151039700E+03 -0.15659761918E+03  0.32429834420E+02  0.22029504963E+03  0.00000000000E+00 0. -1.
<mgrwt>
<rscale>  4 0.25530419E+03</rscale>
<asrwt>0</asrwt>
<pdfrwt beam="1">  1       21 0.41066939E-01 0.25530419E+03</pdfrwt>
<pdfrwt beam="2">  1        3 0.40150639E-01 0.25530419E+03</pdfrwt>
<totfact> 0.17314276E+03</totfact>
</mgrwt>
</event>
<event>
 5    0  0.2306346E+000  0.2156967E+03  0.7546771E-02  0.1137133E+00
          2   -1    0    0  502    0 -0.00000000000E+00  0.00000000000E+00  0.27517550992E+04  0.27517550992E+04  0.00000000000E+00 0.  1.
         21   -1    0    0  503  502  0.00000000000E+00 -0.00000000000E+00 -0.32281899212E+02  0.32281899212E+02  0.00000000000E+00 0.  1.
         25    1    1    2    0    0  0.12981847974E+03  0.21782987990E+03  0.12383136486E+04  0.12701765178E+04  0.12500000000E+03 0.  0.
         21    1    1    2  503  501 -0.46798033030E+01 -0.15182887291E+03  0.50034697208E+03  0.52289673902E+03  0.00000000000E+00 0.  1.
          2    1    1    2  501    0 -0.12513867644E+03 -0.66001006986E+02  0.98081257936E+03  0.99096374156E+03  0.00000000000E+00 0.  1.
<mgrwt>
<rscale>  4 0.21569675E+03</rscale>
<asrwt>0</asrwt>
<pdfrwt beam="1">  1       21 0.49664482E-02 0.21569675E+03</pdfrwt>
<pdfrwt beam="2">  1        2 0.42334675E+00 0.21569675E+03</pdfrwt>
<totfact> 0.10254550E+04</totfact>
</mgrwt>
</event>
<event>
 5    0  0.2306346E+000  0.3204482E+03  0.7546771E-02  0.1075443E+00
          2   -1    0    0  502    0 -0.00000000000E+00  0.00000000000E+00  0.12222509378E+04  0.12222509378E+04  0.00000000000E+00 0. -1.
         21   -1    0    0  503  502  0.00000000000E+00 -0.00000000000E+00 -0.12214778573E+03  0.12214778573E+03  0.00000000000E+00 0. -1.
         25    1    1    2    0    0 -0.24598673670E+03  0.13492159038E+03  0.48564862841E+03  0.57462413842E+03  0.12500000000E+03 0.  0.
         21    1    1    2  503  501 -0.24309744654E+02  0.88917325848E+01 -0.39769176299E+02  0.47451174665E+02  0.00000000000E+00 0.  1.
          2    1    1    2  501    0  0.27029648135E+03 -0.14381332296E+03  0.65422370000E+03  0.72232341049E+03  0.00000000000E+00 0. -1.
<mgrwt>
<rscale>  4 0.32044820E+03</rscale>
<asrwt>0</asrwt>
<pdfrwt beam="1">  1       21 0.18791968E-01 0.32044820E+03</pdfrwt>
<pdfrwt beam="2">  1        2 0.18803860E+00 0.32044820E+03</pdfrwt>
<totfact> 0.61793701E+03</totfact>
</mgrwt>
</event>
<event>
 5    0  0.2306346E+000  0.2653282E+03  0.7546771E-02  0.1103984E+00
         21   -1    0    0  503  502  0.00000000000E+00  0.00000000000E+00  0.66663215549E+02  0.66663215549E+02  0.00000000000E+00 0.  1.
          2   -1    0    0  502    0 -0.00000000000E+00 -0.00000000000E+00 -0.10872207890E+04  0.10872207890E+04  0.00000000000E+00 0.  1.
         25    1    1    2    0    0  0.28148029976E+02 -0.23233972658E+03 -0.38554800721E+03  0.46802385196E+03  0.12500000000E+03 0.  0.
         21    1    1    2  503  501 -0.39316320497E+02  0.69557205409E+02 -0.10915329716E+03  0.13527165321E+03  0.00000000000E+00 0. -1.
          2    1    1    2  501    0  0.11168290521E+02  0.16278252117E+03 -0.52585626904E+03  0.55058849933E+03  0.00000000000E+00 0.  1.
<mgrwt>
<rscale>  4 0.26532821E+03</rscale>
<asrwt>0</asrwt>
<pdfrwt beam="1">  1       21 0.10255879E-01 0.26532821E+03</pdfrwt>
<pdfrwt beam="2">  1        2 0.16726474E+00 0.26532821E+03</pdfrwt>
<totfact> 0.22655629E+04</totfact>
</mgrwt>
</event>
