<LesHouchesEvents version="3.0">
  <!--
  <scalesfunctionalform>
    muR  H_T/2 := sum_i mT(i)/2, i=final state
    muF1 H_T/2 := sum_i mT(i)/2, i=final state
    muF2 H_T/2 := sum_i mT(i)/2, i=final state
    QES  H_T/2 := sum_i mT(i)/2, i=final state
  </scalesfunctionalform>
HERWIG6   
  -->
  <header>
      270
  </header>
  <init>
   2212   2212 0.65000000D+04 0.65000000D+04 -1 -1   247000   247000 -3   1
 0.51550398D-01 0.11366706D-02 0.46027262D-03     66
  </init>
  <event>
  5     66 0.46027262E-03 0.32059013E+02 0.75467711E-02 0.11013160E+00
       21 -1    0    0  501  502 0.00000000E+00 0.00000000E+00 0.27642286E+03 0.27642388E+03 0.75000000E+00 0.0000E+00 0.9000E+01
        2 -1    0    0  502    0 0.00000000E+00 0.00000000E+00 -.59231708E+03 0.59231716E+03 0.32000000E+00 0.0000E+00 0.9000E+01
       25  1    1    2    0    0 -.10321075E+03 -.19260403E+03 -.23233698E+03 0.34257005E+03 0.12500000E+03 0.0000E+00 0.9000E+01
       24  1    1    2    0    0 0.76438204E+02 0.17496854E+03 -.26812258E+03 0.33884174E+03 0.80419002E+02 0.0000E+00 0.9000E+01
        1  1    1    2  501    0 0.26772542E+02 0.17635488E+02 0.18456535E+03 0.18732926E+03 0.32000000E+00 0.0000E+00 0.9000E+01
#aMCatNLO 1  0  0  1  5 0.42222075D+02 0.00000000D+00  -5  6  0 0.00000000D+00 0.00000000D+00 0.00000000D+00 0.00000000D+00 0.00000000D+00
  <mgrwgt>
 0.8918508522D+00    4    2    0
 0.404636210305763D+03 0.000000000000000D+00 0.000000000000000D+00 0.404636210305763D+03
 0.404636210305763D+03 0.000000000000000D+00 0.000000000000000D+00 -.404636210305763D+03
 0.277052298415034D+03 -.103210751430054D+03 -.192604030391418D+03 -.115690121977973D+03
 0.259081335263929D+03 0.764381977464850D+02 0.174968534838692D+03 -.155560715058270D+03
 0.273138786932563D+03 0.267725536835689D+02 0.176354955527260D+02 0.271250837036243D+03
 0.000000000000000D+00 0.000000000000000D+00 -.000000000000000D+00 -.000000000000000D+00
 0.422315866281994D+03 0.000000000000000D+00 0.000000000000000D+00 0.422315866281994D+03
 0.434282434336355D+03 0.000000000000000D+00 0.000000000000000D+00 -.434282434336355D+03
 0.272345634303295D+03 -.112209566930621D+03 -.180477015960560D+03 -.115690121977973D+03
 0.264697291156791D+03 0.678590114379758D+02 0.186530047146814D+03 -.155560715058270D+03
 0.273453254389527D+03 0.178196970362953D+02 0.297005747569900D+02 0.271250837036243D+03
 0.461021207687379D+02 0.265308584563496D+02 -.357536059432442D+02 -.119665680543609D+02
0.219113564795D-02 0.000000000000D+00 0.000000000000D+00 0.330752321651D-05 0.000000000000D+00  6 21 2 25 24 1 21 2 0.42526679D-01 0.91125789D-01 0.60265727D+05 0.60265727D+05 0.60265727D+05 0.11843325D+01  1  2  2  1  6  1       21 0.103257727511D+01 0.100000000000D+01
0.780633673564D-03 0.115629404881D-03 -.442327157905D-05 0.330752321651D-05 0.000000000000D+00  6 21 2 25 24 1 21 4 0.42526679D-01 0.91125789D-01 0.60265727D+05 0.60265727D+05 0.60265727D+05 0.11843325D+01  1  2  3  1  6  1       21 0.515997790203D+00 0.100000000000D+01
0.235441229428D-03 0.000000000000D+00 0.000000000000D+00 0.330752321651D-05 0.000000000000D+00  6 21 2 25 24 1 21 4 0.42526679D-01 0.91125789D-01 0.60265727D+05 0.60265727D+05 0.60265727D+05 0.11843325D+01  1  2 15  1  6  1       21 0.155626330533D+00 0.100000000000D+01
-.122897462195D-02 0.000000000000D+00 0.000000000000D+00 0.330752321651D-05 0.000000000000D+00  6 21 2 25 24 1 21 4 0.42526679D-01 0.91125789D-01 0.60265727D+05 0.60265727D+05 0.60265727D+05 0.11843325D+01  1  2  4  1  6  1       21 -.812350543689D+00 0.100000000000D+01
  </mgrwgt>
  </event>
  <event>
  5     66 0.46027262E-03 0.21143400E+02 0.75467711E-02 0.12321387E+00
       21 -1    0    0  501  502 0.00000000E+00 0.00000000E+00 0.34413658E+02 0.34421830E+02 0.75000000E+00 0.0000E+00 0.9000E+01
        2 -1    0    0  502    0 -.00000000E+00 -.00000000E+00 -.66687425E+03 0.66687433E+03 0.32000000E+00 0.0000E+00 0.9000E+01
       25  1    1    2    0    0 0.48019979E+02 -.39707949E+02 -.39284766E+03 0.41693756E+03 0.12500000E+03 0.0000E+00 0.9000E+01
       24  1    1    2    0    0 -.26938233E+02 0.38097315E+02 -.24541094E+03 0.26243251E+03 0.80419002E+02 0.0000E+00 0.9000E+01
        1  1    1    2  501    0 -.21081746E+02 0.16106339E+01 0.57980144E+01 0.21926093E+02 0.32000000E+00 0.0000E+00 0.9000E+01
#aMCatNLO 1  0  0  5  1 0.30224043D+01 0.00000000D+00  -5  6  0 0.00000000D+00 0.00000000D+00 0.00000000D+00 0.00000000D+00 0.00000000D+00
  <mgrwgt>
 0.2276354036D+00    6    2    0
 0.151500741322817D+03 0.000000000000000D+00 0.000000000000000D+00 0.151500741322817D+03
 0.151500741322817D+03 -.000000000000000D+00 -.000000000000000D+00 -.151500741322817D+03
 0.145002868406947D+03 0.480201100388772D+02 -.397079586110225D+02 -.389638152783046D+02
 0.951485952113587D+02 -.269381471018930D+02 0.380973081310635D+02 -.202230205510463D+02
 0.628500190273282D+02 -.210819629369843D+02 0.161065047995903D+01 0.591868358293510D+02
 0.000000000000000D+00 0.000000000000000D+00 0.000000000000000D+00 0.000000000000000D+00
 0.151500741322817D+03 0.000000000000000D+00 0.000000000000000D+00 0.151500741322817D+03
 0.151500741322817D+03 -.000000000000000D+00 -.000000000000000D+00 -.151500741322817D+03
 0.144597551548879D+03 0.476505279411955D+02 -.396797227401601D+02 -.379262271274129D+02
 0.950826223557491D+02 -.271809162679174D+02 0.381158555630528D+02 -.195414550432772D+02
 0.316704617705382D+01 -.126482532571368D+01 0.286418607806585D+01 0.476273548748866D+00
 0.601542625639519D+02 -.192047863475645D+02 -.130031890095864D+01 0.569914086219412D+02
0.106316349968D-04 0.000000000000D+00 0.000000000000D+00 0.359428247089D-05 0.000000000000D+00  6 21 2 25 24 1 21 2 0.52950434D-02 0.10259667D+00 0.16102068D+05 0.16102068D+05 0.16102068D+05 0.12443276D+01  1  2  2  3  6  5        1 0.223211856164D+00 0.100000000000D+01
0.163347605574D-05 0.561046792670D-06 -.214622079487D-07 0.359428247089D-05 0.000000000000D+00  6 21 2 25 24 1 21 4 0.52950434D-02 0.10259667D+00 0.16102068D+05 0.16102068D+05 0.16102068D+05 0.12443276D+01  1  2  3  3  6  5        1 0.531006020145D-01 0.100000000000D+01
0.965261582733D-06 0.000000000000D+00 0.000000000000D+00 0.359428247089D-05 0.000000000000D+00  6 21 2 25 24 1 21 4 0.52950434D-02 0.10259667D+00 0.16102068D+05 0.16102068D+05 0.16102068D+05 0.12443276D+01  1  2 15  3  6  5        1 0.313784649395D-01 0.100000000000D+01
-.443802637489D-05 0.000000000000D+00 0.000000000000D+00 0.359428247089D-05 0.000000000000D+00  6 21 2 25 24 1 21 4 0.52950434D-02 0.10259667D+00 0.16102068D+05 0.16102068D+05 0.16102068D+05 0.12443276D+01  1  2  4  3  6  5        1 -.144270172455D+00 0.100000000000D+01
-.145994600040D-05 0.000000000000D+00 0.000000000000D+00 0.359428247089D-05 0.000000000000D+00  6 21 2 25 24 1 21 4 0.52950434D-02 0.10259667D+00 0.16102068D+05 0.16102068D+05 0.16102068D+05 0.12443276D+01  1  2  5  3  6  5        1 -.474595334640D-01 0.100000000000D+01
0.343531151334D-05 0.000000000000D+00 -.000000000000D+00 0.359428247089D-05 0.000000000000D+00  6 21 2 25 24 1 21 4 0.52950434D-02 0.10259667D+00 0.16102068D+05 0.16102068D+05 0.16102068D+05 0.12443276D+01  1  2  6  3  6  5        1 0.111674186361D+00 0.100000000000D+01
  </mgrwgt>
  </event>
  <event>
  5     66 0.46027262E-03 0.50634127E+02 0.75467711E-02 0.11988223E+00
       21 -1    0    0  501  502 0.00000000E+00 0.00000000E+00 0.91491457E+02 0.91494531E+02 0.75000000E+00 0.0000E+00 0.9000E+01
        2 -1    0    0  502    0 0.00000000E+00 0.00000000E+00 -.24592323E+03 0.24592344E+03 0.32000000E+00 0.0000E+00 0.9000E+01
       25  1    1    2    0    0 0.53993010E+01 -.51500115E+02 -.38471782E+02 0.14066447E+03 0.12500000E+03 0.0000E+00 0.9000E+01
       24  1    1    2    0    0 0.44973221E+02 0.56632792E+02 -.74787455E+02 0.13149237E+03 0.80419002E+02 0.0000E+00 0.9000E+01
        1  1    1    2  501    0 -.50372521E+02 -.51326772E+01 -.41172535E+02 0.65261132E+02 0.32000000E+00 0.0000E+00 0.9000E+01
#aMCatNLO 1  0  0  1  2 0.85008240D+01 0.00000000D+00  -5  6  0 0.00000000D+00 0.00000000D+00 0.00000000D+00 0.00000000D+00 0.00000000D+00
  <mgrwgt>
 0.1766082333D+00   22    2    0
 0.150001427378104D+03 0.000000000000000D+00 0.000000000000000D+00 0.150001427378104D+03
 0.150001427378104D+03 0.000000000000000D+00 0.000000000000000D+00 -.150001427378104D+03
 0.138403550551497D+03 0.539973755140353D+01 -.515000703878154D+02 0.291398076467023D+02
 0.109393535068338D+03 0.449735655876346D+02 0.566328272564237D+02 -.164265284115661D+02
 0.522057691363725D+02 -.503733031390381D+02 -.513275686860826D+01 -.127132792351362D+02
 0.000000000000000D+00 0.000000000000000D+00 -.000000000000000D+00 -.000000000000000D+00
 0.153263270099497D+03 0.000000000000000D+00 0.000000000000000D+00 0.153263270099497D+03
 0.155704376716572D+03 0.000000000000000D+00 0.000000000000000D+00 -.155704376716572D+03
 0.137040613592314D+03 0.401391247847152D+01 -.478527939694878D+02 0.291398076467023D+02
 0.110484908032015D+03 0.438673048672709D+02 0.595443337060568D+02 -.164265284115661D+02
 0.525977478353716D+02 -.509005945485416D+02 -.374500775002733D+01 -.127132792351362D+02
 0.884437735636848D+01 0.301937720279924D+01 -.794653198654162D+01 -.244110661707565D+01
0.526041664525D-05 0.000000000000D+00 0.000000000000D+00 0.283271991692D-06 0.000000000000D+00  6 21 2 25 24 1 21 2 0.14075861D-01 0.37834595D-01 0.21622015D+05 0.21622015D+05 0.21622015D+05 0.12301150D+01  1  2  2  1  6  1       21 0.585932274317D-01 0.100000000000D+01
-.302290301677D-06 0.277599812994D-06 -.106192656136D-07 0.283271991692D-06 0.000000000000D+00  6 21 2 25 24 1 21 4 0.14075861D-01 0.37834595D-01 0.21622015D+05 0.21622015D+05 0.21622015D+05 0.12301150D+01  1  2  3  1  6  1       21 -.509498518221D-02 0.100000000000D+01
0.595919811592D-06 0.000000000000D+00 0.000000000000D+00 0.283271991692D-06 0.000000000000D+00  6 21 2 25 24 1 21 4 0.14075861D-01 0.37834595D-01 0.21622015D+05 0.21622015D+05 0.21622015D+05 0.12301150D+01  1  2 15  1  6  1       21 0.100439960958D-01 0.100000000000D+01
0.105263471347D-04 0.000000000000D+00 0.000000000000D+00 0.282018021594D-06 0.000000000000D+00  6 21 2 25 24 1 21 4 0.14641779D-01 0.37834595D-01 0.22907224D+05 0.22907224D+05 0.22907224D+05 0.12273893D+01  1  2 12  1  6  1       21 0.163885940109D+00 0.100000000000D+01
-.309517605274D-05 0.000000000000D+00 0.000000000000D+00 0.283271991692D-06 0.000000000000D+00  6 21 2 25 24 1 21 4 0.14075861D-01 0.37834595D-01 0.21622015D+05 0.21622015D+05 0.21622015D+05 0.12301150D+01  1  2  4  1  6  1       21 -.521679856667D-01 0.100000000000D+01
0.572632658313D-08 0.000000000000D+00 0.000000000000D+00 0.283271991692D-06 0.458877815758D-07  6 21 2 25 24 1 21 4 0.14381947D-01 0.39273040D-01 0.22907224D+05 0.22907224D+05 0.22907224D+05 0.12273893D+01  1  2 11  1  6  1       21 0.884807005455D-04 0.100000000000D+01
0.152667870785D-06 0.000000000000D+00 0.000000000000D+00 0.282018021594D-06 0.000000000000D+00  6 -1 2 25 24 1 -1 4 0.14641779D-01 0.37834595D-01 0.22907224D+05 0.22907224D+05 0.22907224D+05 0.12273893D+01  1  2 12  4  6  1       21 0.172751939865D-03 0.100000000000D+01
0.181877024947D-08 0.000000000000D+00 0.000000000000D+00 0.282018021594D-06 0.106770112371D-07  6 -1 2 25 24 1 -1 4 0.14381947D-01 0.39273040D-01 0.22907224D+05 0.22907224D+05 0.22907224D+05 0.12273893D+01  1  2 11  4  6  1       21 0.203381795420D-05 0.100000000000D+01
0.152667870785D-06 0.000000000000D+00 0.000000000000D+00 0.282018021594D-06 0.000000000000D+00  6 1 2 25 24 1 1 4 0.14641779D-01 0.37834595D-01 0.22907224D+05 0.22907224D+05 0.22907224D+05 0.12273893D+01  1  2 12  5  6  1       21 0.236568183466D-03 0.100000000000D+01
0.305473951744D-09 0.000000000000D+00 0.000000000000D+00 0.282018021594D-06 0.148857450010D-09  6 1 2 25 24 1 1 4 0.14381947D-01 0.39273040D-01 0.22907224D+05 0.22907224D+05 0.22907224D+05 0.12273893D+01  1  2 11  5  6  1       21 0.465553479084D-06 0.100000000000D+01
0.152667870785D-06 0.000000000000D+00 0.000000000000D+00 0.282018021594D-06 0.000000000000D+00  6 -2 2 25 24 1 -2 4 0.14641779D-01 0.37834595D-01 0.22907224D+05 0.22907224D+05 0.22907224D+05 0.12273893D+01  1  2 12  6  6  1       21 0.161765613965D-03 0.100000000000D+01
0.314478635013D-09 0.000000000000D+00 0.000000000000D+00 0.282018021594D-06 0.285951239618D-09  6 -2 2 25 24 1 -2 4 0.14381947D-01 0.39273040D-01 0.22907224D+05 0.22907224D+05 0.22907224D+05 0.12273893D+01  1  2 11  6  6  1       21 0.329679385042D-06 0.100000000000D+01
0.152667870785D-06 0.000000000000D+00 0.000000000000D+00 0.282018021594D-06 0.000000000000D+00  6 2 2 25 24 1 2 4 0.14641779D-01 0.37834595D-01 0.22907224D+05 0.22907224D+05 0.22907224D+05 0.12273893D+01  1  2 12  7  6  1       21 0.280508141029D-03 0.100000000000D+01
0.337137479689D-09 0.000000000000D+00 0.000000000000D+00 0.282018021594D-06 0.100702739988D-08  6 2 2 25 24 1 2 4 0.14381947D-01 0.39273040D-01 0.22907224D+05 0.22907224D+05 0.22907224D+05 0.12273893D+01  1  2 11  7  6  1       21 0.607913832370D-06 0.100000000000D+01
0.152667870785D-06 0.000000000000D+00 0.000000000000D+00 0.282018021594D-06 0.000000000000D+00  6 -3 2 25 24 1 -3 4 0.14641779D-01 0.37834595D-01 0.22907224D+05 0.22907224D+05 0.22907224D+05 0.12273893D+01  1  2 12  8  6  1       21 0.108323767552D-03 0.100000000000D+01
0.152667870785D-06 0.000000000000D+00 0.000000000000D+00 0.282018021594D-06 0.000000000000D+00  6 -4 2 25 24 1 -4 4 0.14641779D-01 0.37834595D-01 0.22907224D+05 0.22907224D+05 0.22907224D+05 0.12273893D+01  1  2 12  8  6  1       21 0.935388297833D-04 0.100000000000D+01
0.311709286610D-09 0.000000000000D+00 0.000000000000D+00 0.282018021594D-06 0.283433107953D-09  6 -3 2 25 24 1 -3 4 0.14381947D-01 0.39273040D-01 0.22907224D+05 0.22907224D+05 0.22907224D+05 0.12273893D+01  1  2 11  8  6  1       21 0.219121985114D-06 0.100000000000D+01
0.311709286610D-09 0.000000000000D+00 0.000000000000D+00 0.282018021594D-06 0.283433107953D-09  6 -4 2 25 24 1 -4 4 0.14381947D-01 0.39273040D-01 0.22907224D+05 0.22907224D+05 0.22907224D+05 0.12273893D+01  1  2 11  8  6  1       21 0.189334333105D-06 0.100000000000D+01
0.152667870785D-06 0.000000000000D+00 0.000000000000D+00 0.282018021594D-06 0.000000000000D+00  6 3 2 25 24 1 3 4 0.14641779D-01 0.37834595D-01 0.22907224D+05 0.22907224D+05 0.22907224D+05 0.12273893D+01  1  2 12  9  6  1       21 0.108310638201D-03 0.100000000000D+01
0.152667870785D-06 0.000000000000D+00 0.000000000000D+00 0.282018021594D-06 0.000000000000D+00  6 4 2 25 24 1 4 4 0.14641779D-01 0.37834595D-01 0.22907224D+05 0.22907224D+05 0.22907224D+05 0.12273893D+01  1  2 12  9  6  1       21 0.935388297833D-04 0.100000000000D+01
0.311709286610D-09 0.000000000000D+00 0.000000000000D+00 0.282018021594D-06 0.283433107953D-09  6 3 2 25 24 1 3 4 0.14381947D-01 0.39273040D-01 0.22907224D+05 0.22907224D+05 0.22907224D+05 0.12273893D+01  1  2 11  9  6  1       21 0.219095249524D-06 0.100000000000D+01
0.311709286610D-09 0.000000000000D+00 0.000000000000D+00 0.282018021594D-06 0.283433107953D-09  6 4 2 25 24 1 4 4 0.14381947D-01 0.39273040D-01 0.22907224D+05 0.22907224D+05 0.22907224D+05 0.12273893D+01  1  2 11  9  6  1       21 0.189334333105D-06 0.100000000000D+01
  </mgrwgt>
  </event>
  <event>
  6     66 0.46027262E-03 0.57431357E+02 0.75467711E-02 0.12043462E+00
       21 -1    0    0  501  502 0.00000000E+00 0.00000000E+00 0.49731701E+02 0.49737356E+02 0.75000000E+00 0.0000E+00 0.9000E+01
        2 -1    0    0  502    0 -.00000000E+00 -.00000000E+00 -.97318116E+03 0.97318121E+03 0.32000000E+00 0.0000E+00 0.9000E+01
       25  1    1    2    0    0 -.19387312E+02 0.74122152E+01 -.47711387E+03 0.49365317E+03 0.12500000E+03 0.0000E+00 0.9000E+01
       24  1    1    2    0    0 -.89066639E+01 -.64070756E+02 -.45043535E+03 0.46210779E+03 0.80419002E+02 0.0000E+00 0.9000E+01
        1  1    1    2  503    0 0.25016481E+02 0.42371565E+02 -.56610533E+01 0.49531038E+02 0.32000000E+00 0.0000E+00 0.9000E+01
       21  1    1    2  501  503 0.32774947E+01 0.14286975E+02 0.97608192E+01 0.17626563E+02 0.75000000E+00 0.0000E+00 0.9000E+01
#aMCatNLO 2  0  0  5  1 0.10615901D+02 0.00000000D+00  -5  6  0 0.00000000D+00 0.00000000D+00 0.00000000D+00 0.00000000D+00 0.00000000D+00
  <mgrwgt>
 0.2115818947D+00    2    2    0
 0.220001985958993D+03 0.000000000000000D+00 0.000000000000000D+00 0.220001985958993D+03
 0.220001985958993D+03 -.000000000000000D+00 -.000000000000000D+00 -.220001985958993D+03
 0.146538079926219D+03 -.194723105611442D+02 0.724200525714320D+01 -.735988542691314D+02
 0.129282406044655D+03 -.898161983598399D+01 -.642208544386876D+02 -.777286106823694D+02
 0.164183485947112D+03 0.284539303971282D+02 0.569788491815443D+02 0.151327464951501D+03
 0.000000000000000D+00 0.000000000000000D+00 0.000000000000000D+00 0.000000000000000D+00
 0.220001985958993D+03 0.000000000000000D+00 0.000000000000000D+00 0.220001985958993D+03
 0.220001985958993D+03 -.000000000000000D+00 -.000000000000000D+00 -.220001985958993D+03
 0.146309275145313D+03 -.193874902666312D+02 0.741185746037634D+01 -.731477517337011D+02
 0.128963961421118D+03 -.890682136993662D+01 -.640710708953795D+02 -.773308075637412D+02
 0.103007591650696D+03 0.249820831538440D+02 0.422906291870218D+02 0.905425984933982D+02
 0.617231437008599D+02 0.331222848272376D+01 0.143685842479813D+02 0.599359608040440D+02
-.802817644469D-05 0.000000000000D+00 0.000000000000D+00 0.194415872139D-05 0.000000000000D+00  6 21 2 25 24 1 21 4 0.76514700D-02 0.14972062D+00 0.21576967D+05 0.21576967D+05 0.21576967D+05 0.12302138D+01  1  2 13  3  6  5        1 -.830439622262D-01 0.100000000000D+01
0.284826048851D-04 0.000000000000D+00 0.000000000000D+00 0.194423266029D-05 0.285655925142D-06  6 21 2 25 24 1 21 4 0.76514700D-02 0.14972062D+00 0.21576967D+05 0.21576967D+05 0.21576967D+05 0.12302138D+01  1  2  1  3  6  5        1 0.294625856877D+00 0.100000000000D+01
  </mgrwgt>
  </event>
  <event>
  5     66 0.46027262E-03 0.36386795E+02 0.75467711E-02 0.12140179E+00
       21 -1    0    0  501  502 0.00000000E+00 0.00000000E+00 0.20505898E+03 0.20506035E+03 0.75000000E+00 0.0000E+00 0.9000E+01
        2 -1    0    0  502    0 0.00000000E+00 0.00000000E+00 -.32047484E+03 0.32047500E+03 0.32000000E+00 0.0000E+00 0.9000E+01
       25  1    1    2    0    0 0.18019178E+02 0.73024487E+02 -.13957371E+03 0.20189871E+03 0.12500000E+03 0.0000E+00 0.9000E+01
       24  1    1    2    0    0 0.10575797E+02 -.50522839E+02 -.13218848E+03 0.16311166E+03 0.80419002E+02 0.0000E+00 0.9000E+01
        1  1    1    2  501    0 -.28594976E+02 -.22501649E+02 0.15634632E+03 0.16052499E+03 0.32000000E+00 0.0000E+00 0.9000E+01
#aMCatNLO 1  0  0  1  5 0.87256505D+00 0.00000000D+00  -5  6  0 0.00000000D+00 0.00000000D+00 0.00000000D+00 0.00000000D+00 0.00000000D+00
  <mgrwgt>
 0.6309237567D+00   41    2    0
 0.256352583691747D+03 0.000000000000000D+00 0.000000000000000D+00 0.256352583691747D+03
 0.256352583691747D+03 0.000000000000000D+00 0.000000000000000D+00 -.256352583691747D+03
 0.175531515333104D+03 0.180191909675527D+02 0.730244969815476D+02 -.976168247414469D+02
 0.137436339773054D+03 0.105758069401040D+02 -.505228308376243D+02 -.987781727284037D+02
 0.199737312277336D+03 -.285949979076567D+02 -.225016661439233D+02 0.196394997469851D+03
 0.000000000000000D+00 0.000000000000000D+00 0.000000000000000D+00 0.000000000000000D+00
 0.285132688184723D+03 0.000000000000000D+00 0.000000000000000D+00 0.285132688184723D+03
 0.256359568709514D+03 0.000000000000000D+00 0.000000000000000D+00 -.256359568709514D+03
 0.175420880716785D+03 0.178123656473970D+02 0.728090691390392D+02 -.976168247414469D+02
 0.137486099297450D+03 0.104137880391969D+02 -.506915886195136D+02 -.987781727284037D+02
 0.199798929871258D+03 -.288304549443554D+02 -.227469165870568D+02 0.196394997469851D+03
 0.287863470087453D+02 0.604301257761571D+00 0.629436067531131D+00 0.287731194752091D+02
0.131045988514D-05 0.000000000000D+00 0.000000000000D+00 0.733747101220D-05 0.000000000000D+00  6 21 2 25 24 1 21 2 0.31547653D-01 0.49303940D-01 0.19297480D+05 0.19297480D+05 0.19297480D+05 0.12355394D+01  1  2  2  1  6  1       21 0.246579428992D-02 0.100000000000D+01
0.243478003169D-06 0.691548680617D-07 -.264544094787D-08 0.733747101220D-05 0.000000000000D+00  6 21 2 25 24 1 21 4 0.31547653D-01 0.49303940D-01 0.19297480D+05 0.19297480D+05 0.19297480D+05 0.12355394D+01  1  2  3  1  6  1       21 0.699368420137D-03 0.100000000000D+01
0.134669008460D-06 0.000000000000D+00 0.000000000000D+00 0.733747101220D-05 0.000000000000D+00  6 21 2 25 24 1 21 4 0.31547653D-01 0.49303940D-01 0.19297480D+05 0.19297480D+05 0.19297480D+05 0.12355394D+01  1  2 15  1  6  1       21 0.386824478852D-03 0.100000000000D+01
0.110479930064D-07 0.000000000000D+00 0.000000000000D+00 0.733277182857D-05 0.000000000000D+00  6 21 2 25 24 1 21 4 0.35089836D-01 0.49303940D-01 0.19457244D+05 0.19457244D+05 0.19457244D+05 0.12351437D+01  1  2 12  1  6  1       21 0.257341163681D-04 0.100000000000D+01
0.108226313083D-07 0.000000000000D+00 0.000000000000D+00 0.733277182857D-05 0.000000000000D+00  6 21 2 25 24 1 21 4 0.35158682D-01 0.49303940D-01 0.19457244D+05 0.19457244D+05 0.19457244D+05 0.12351437D+01  1  2 12  1  6  1       21 0.251120617813D-04 0.100000000000D+01
-.672160574582D-02 0.000000000000D+00 0.000000000000D+00 0.733747101220D-05 0.000000000000D+00  6 21 2 25 24 1 21 4 0.31547653D-01 0.49303940D-01 0.19297480D+05 0.19297480D+05 0.19297480D+05 0.12355394D+01  1  2  4  1  6  1       21 -.193072011847D+02 0.100000000000D+01
-.796934951580D-02 0.000000000000D+00 -.409268054475D-05 0.733747101220D-05 0.000000000000D+00  6 21 2 25 24 1 21 4 0.35089872D-01 0.49303940D-01 0.19297480D+05 0.19297480D+05 0.19297480D+05 0.12355394D+01  1  2  5  1  6  1       21 -.185891704168D+02 0.100000000000D+01
0.784027584221D-02 0.000000000000D+00 0.400145752084D-05 0.733747101220D-05 0.000000000000D+00  6 21 2 25 24 1 21 4 0.31547653D-01 0.49303940D-01 0.19297480D+05 0.19297480D+05 0.19297480D+05 0.12355394D+01  1  2  6  1  6  1       21 0.225204792952D+02 0.100000000000D+01
0.687140847753D-02 0.000000000000D+00 0.000000000000D+00 0.733747101220D-05 0.155480659320D-03  6 21 2 25 24 1 21 4 0.35089434D-01 0.49305283D-01 0.19457244D+05 0.19457244D+05 0.19457244D+05 0.12351437D+01  1  2 11  1  6  1       21 0.160054863613D+02 0.100000000000D+01
0.274334549267D-09 0.000000000000D+00 0.000000000000D+00 0.733277182857D-05 0.000000000000D+00  6 -1 2 25 24 1 -1 4 0.35089836D-01 0.49303940D-01 0.19457244D+05 0.19457244D+05 0.19457244D+05 0.12351437D+01  1  2 12  4  6  1       21 0.574791377337D-07 0.100000000000D+01
0.273914007628D-09 0.000000000000D+00 0.000000000000D+00 0.733277182857D-05 0.000000000000D+00  6 -1 2 25 24 1 -1 4 0.35158682D-01 0.49303940D-01 0.19457244D+05 0.19457244D+05 0.19457244D+05 0.12351437D+01  1  2 12  4  6  1       21 0.571980909221D-07 0.100000000000D+01
-.197827507870D-03 0.000000000000D+00 -.112184268710D-06 0.733747101220D-05 0.000000000000D+00  6 -1 2 25 24 1 -1 4 0.35089872D-01 0.49303940D-01 0.19297480D+05 0.19297480D+05 0.19297480D+05 0.12355394D+01  1  2  5  4  6  1       21 -.415006665335D-01 0.100000000000D+01
0.206042150442D-03 0.000000000000D+00 0.000000000000D+00 0.733747101220D-05 0.466101207546D-05  6 -1 2 25 24 1 -1 4 0.35089434D-01 0.49305283D-01 0.19457244D+05 0.19457244D+05 0.19457244D+05 0.12351437D+01  1  2 11  4  6  1       21 0.431699755456D-01 0.100000000000D+01
0.274334549267D-09 0.000000000000D+00 0.000000000000D+00 0.733277182857D-05 0.000000000000D+00  6 1 2 25 24 1 1 4 0.35089836D-01 0.49303940D-01 0.19457244D+05 0.19457244D+05 0.19457244D+05 0.12351437D+01  1  2 12  5  6  1       21 0.108510674539D-06 0.100000000000D+01
0.273914007628D-09 0.000000000000D+00 0.000000000000D+00 0.733277182857D-05 0.000000000000D+00  6 1 2 25 24 1 1 4 0.35158682D-01 0.49303940D-01 0.19457244D+05 0.19457244D+05 0.19457244D+05 0.12351437D+01  1  2 12  5  6  1       21 0.108081474782D-06 0.100000000000D+01
-.197827507870D-03 0.000000000000D+00 -.112184268710D-06 0.733747101220D-05 0.000000000000D+00  6 1 2 25 24 1 1 4 0.35089872D-01 0.49303940D-01 0.19297480D+05 0.19297480D+05 0.19297480D+05 0.12355394D+01  1  2  5  5  6  1       21 -.783457644262D-01 0.100000000000D+01
0.188842903627D-03 0.000000000000D+00 0.000000000000D+00 0.733747101220D-05 0.212625425213D-05  6 1 2 25 24 1 1 4 0.35089434D-01 0.49305283D-01 0.19457244D+05 0.19457244D+05 0.19457244D+05 0.12351437D+01  1  2 11  5  6  1       21 0.746940894565D-01 0.100000000000D+01
0.274334549267D-09 0.000000000000D+00 0.000000000000D+00 0.733277182857D-05 0.000000000000D+00  6 -2 2 25 24 1 -2 4 0.35089836D-01 0.49303940D-01 0.19457244D+05 0.19457244D+05 0.19457244D+05 0.12351437D+01  1  2 12  6  6  1       21 0.494599583041D-07 0.100000000000D+01
0.273914007628D-09 0.000000000000D+00 0.000000000000D+00 0.733277182857D-05 0.000000000000D+00  6 -2 2 25 24 1 -2 4 0.35158682D-01 0.49303940D-01 0.19457244D+05 0.19457244D+05 0.19457244D+05 0.12351437D+01  1  2 12  6  6  1       21 0.492055274659D-07 0.100000000000D+01
-.197827507870D-03 0.000000000000D+00 -.112184268710D-06 0.733747101220D-05 0.000000000000D+00  6 -2 2 25 24 1 -2 4 0.35089872D-01 0.49303940D-01 0.19297480D+05 0.19297480D+05 0.19297480D+05 0.12355394D+01  1  2  5  6  6  1       21 -.357101171767D-01 0.100000000000D+01
0.197715543887D-03 0.000000000000D+00 0.000000000000D+00 0.733747101220D-05 0.445123111454D-05  6 -2 2 25 24 1 -2 4 0.35089434D-01 0.49305283D-01 0.19457244D+05 0.19457244D+05 0.19457244D+05 0.12351437D+01  1  2 11  6  6  1       21 0.356459909803D-01 0.100000000000D+01
0.274334549267D-09 0.000000000000D+00 0.000000000000D+00 0.733277182857D-05 0.000000000000D+00  6 2 2 25 24 1 2 4 0.35089836D-01 0.49303940D-01 0.19457244D+05 0.19457244D+05 0.19457244D+05 0.12351437D+01  1  2 12  7  6  1       21 0.146217228970D-06 0.100000000000D+01
0.273914007628D-09 0.000000000000D+00 0.000000000000D+00 0.733277182857D-05 0.000000000000D+00  6 2 2 25 24 1 2 4 0.35158682D-01 0.49303940D-01 0.19457244D+05 0.19457244D+05 0.19457244D+05 0.12351437D+01  1  2 12  7  6  1       21 0.145686705260D-06 0.100000000000D+01
-.197827507870D-03 0.000000000000D+00 -.112184268710D-06 0.733747101220D-05 0.000000000000D+00  6 2 2 25 24 1 2 4 0.35089872D-01 0.49303940D-01 0.19297480D+05 0.19297480D+05 0.19297480D+05 0.12355394D+01  1  2  5  7  6  1       21 -.105568124041D+00 0.100000000000D+01
0.197890747522D-03 0.000000000000D+00 0.000000000000D+00 0.733747101220D-05 0.445519373365D-05  6 2 2 25 24 1 2 4 0.35089434D-01 0.49305283D-01 0.19457244D+05 0.19457244D+05 0.19457244D+05 0.12351437D+01  1  2 11  7  6  1       21 0.105471788427D+00 0.100000000000D+01
0.274334549267D-09 0.000000000000D+00 0.000000000000D+00 0.733277182857D-05 0.000000000000D+00  6 -3 2 25 24 1 -3 4 0.35089836D-01 0.49303940D-01 0.19457244D+05 0.19457244D+05 0.19457244D+05 0.12351437D+01  1  2 12  8  6  1       21 0.312372148622D-07 0.100000000000D+01
0.274334549267D-09 0.000000000000D+00 0.000000000000D+00 0.733277182857D-05 0.000000000000D+00  6 -4 2 25 24 1 -4 4 0.35089836D-01 0.49303940D-01 0.19457244D+05 0.19457244D+05 0.19457244D+05 0.12351437D+01  1  2 12  8  6  1       21 0.260301508247D-07 0.100000000000D+01
0.273914007628D-09 0.000000000000D+00 0.000000000000D+00 0.733277182857D-05 0.000000000000D+00  6 -3 2 25 24 1 -3 4 0.35158682D-01 0.49303940D-01 0.19457244D+05 0.19457244D+05 0.19457244D+05 0.12351437D+01  1  2 12  8  6  1       21 0.310739450984D-07 0.100000000000D+01
0.273914007628D-09 0.000000000000D+00 0.000000000000D+00 0.733277182857D-05 0.000000000000D+00  6 -4 2 25 24 1 -4 4 0.35158682D-01 0.49303940D-01 0.19457244D+05 0.19457244D+05 0.19457244D+05 0.12351437D+01  1  2 12  8  6  1       21 0.258920098087D-07 0.100000000000D+01
-.197827507870D-03 0.000000000000D+00 -.112184268710D-06 0.733747101220D-05 0.000000000000D+00  6 -3 2 25 24 1 -3 4 0.35089872D-01 0.49303940D-01 0.19297480D+05 0.19297480D+05 0.19297480D+05 0.12355394D+01  1  2  5  8  6  1       21 -.225491405197D-01 0.100000000000D+01
-.197827507870D-03 0.000000000000D+00 -.112184268710D-06 0.733747101220D-05 0.000000000000D+00  6 -4 2 25 24 1 -4 4 0.35089872D-01 0.49303940D-01 0.19297480D+05 0.19297480D+05 0.19297480D+05 0.12355394D+01  1  2  5  8  6  1       21 -.187885833427D-01 0.100000000000D+01
0.197711937101D-03 0.000000000000D+00 0.000000000000D+00 0.733747101220D-05 0.445114991384D-05  6 -3 2 25 24 1 -3 4 0.35089434D-01 0.49305283D-01 0.19457244D+05 0.19457244D+05 0.19457244D+05 0.12351437D+01  1  2 11  8  6  1       21 0.225123867019D-01 0.100000000000D+01
0.197711937101D-03 0.000000000000D+00 0.000000000000D+00 0.733747101220D-05 0.445114991384D-05  6 -4 2 25 24 1 -4 4 0.35089434D-01 0.49305283D-01 0.19457244D+05 0.19457244D+05 0.19457244D+05 0.12351437D+01  1  2 11  8  6  1       21 0.187597101674D-01 0.100000000000D+01
0.274334549267D-09 0.000000000000D+00 0.000000000000D+00 0.733277182857D-05 0.000000000000D+00  6 3 2 25 24 1 3 4 0.35089836D-01 0.49303940D-01 0.19457244D+05 0.19457244D+05 0.19457244D+05 0.12351437D+01  1  2 12  9  6  1       21 0.312403743443D-07 0.100000000000D+01
0.274334549267D-09 0.000000000000D+00 0.000000000000D+00 0.733277182857D-05 0.000000000000D+00  6 4 2 25 24 1 4 4 0.35089836D-01 0.49303940D-01 0.19457244D+05 0.19457244D+05 0.19457244D+05 0.12351437D+01  1  2 12  9  6  1       21 0.260301508247D-07 0.100000000000D+01
0.273914007628D-09 0.000000000000D+00 0.000000000000D+00 0.733277182857D-05 0.000000000000D+00  6 3 2 25 24 1 3 4 0.35158682D-01 0.49303940D-01 0.19457244D+05 0.19457244D+05 0.19457244D+05 0.12351437D+01  1  2 12  9  6  1       21 0.310771252369D-07 0.100000000000D+01
0.273914007628D-09 0.000000000000D+00 0.000000000000D+00 0.733277182857D-05 0.000000000000D+00  6 4 2 25 24 1 4 4 0.35158682D-01 0.49303940D-01 0.19457244D+05 0.19457244D+05 0.19457244D+05 0.12351437D+01  1  2 12  9  6  1       21 0.258920098087D-07 0.100000000000D+01
-.197827507870D-03 0.000000000000D+00 -.112184268710D-06 0.733747101220D-05 0.000000000000D+00  6 3 2 25 24 1 3 4 0.35089872D-01 0.49303940D-01 0.19297480D+05 0.19297480D+05 0.19297480D+05 0.12355394D+01  1  2  5  9  6  1       21 -.225514175310D-01 0.100000000000D+01
-.197827507870D-03 0.000000000000D+00 -.112184268710D-06 0.733747101220D-05 0.000000000000D+00  6 4 2 25 24 1 4 4 0.35089872D-01 0.49303940D-01 0.19297480D+05 0.19297480D+05 0.19297480D+05 0.12355394D+01  1  2  5  9  6  1       21 -.187885833427D-01 0.100000000000D+01
0.197711937101D-03 0.000000000000D+00 0.000000000000D+00 0.733747101220D-05 0.445114991384D-05  6 3 2 25 24 1 3 4 0.35089434D-01 0.49305283D-01 0.19457244D+05 0.19457244D+05 0.19457244D+05 0.12351437D+01  1  2 11  9  6  1       21 0.225146635560D-01 0.100000000000D+01
0.197711937101D-03 0.000000000000D+00 0.000000000000D+00 0.733747101220D-05 0.445114991384D-05  6 4 2 25 24 1 4 4 0.35089434D-01 0.49305283D-01 0.19457244D+05 0.19457244D+05 0.19457244D+05 0.12351437D+01  1  2 11  9  6  1       21 0.187597101674D-01 0.100000000000D+01
  </mgrwgt>
  </event>
  <event>
  6     66 -.46027262E-03 0.63881359E+02 0.75467711E-02 0.11704873E+00
       21 -1    0    0  501  503 0.00000000E+00 0.00000000E+00 0.69006117E+03 0.69006158E+03 0.75000000E+00 0.0000E+00 0.9000E+01
        4 -1    0    0  502    0 0.00000000E+00 0.00000000E+00 -.65505158E+02 0.65523494E+02 0.15500000E+01 0.0000E+00 0.9000E+01
       25  1    1    2    0    0 0.12191252E+03 0.24454500E+02 0.39278706E+03 0.43054310E+03 0.12500000E+03 0.0000E+00 0.9000E+01
       24  1    1    2    0    0 -.48672797E+02 -.34865962E+02 0.24521584E+02 0.10321434E+03 0.80419002E+02 0.0000E+00 0.9000E+01
        3  1    1    2  501    0 -.51517674E+02 -.43062293E+01 0.11867124E+03 0.12944392E+03 0.50000000E+00 0.0000E+00 0.9000E+01
       21  1    1    2  502  503 -.21722047E+02 0.14717691E+02 0.88576122E+02 0.92383709E+02 0.75000000E+00 0.0000E+00 0.9000E+01
#aMCatNLO 2  0  0  1  2 0.26238478D+02 0.00000000D+00  -5  6  0 0.00000000D+00 0.00000000D+00 0.00000000D+00 0.00000000D+00 0.00000000D+00
  <mgrwgt>
 -.2007902266D-01    2    2    0
 0.194854526906935D+03 0.000000000000000D+00 0.000000000000000D+00 0.194854526906935D+03
 0.194854526906935D+03 0.000000000000000D+00 0.000000000000000D+00 -.194854526906935D+03
 0.186607623809856D+03 0.111372515098096D+03 0.315964960075697D+02 0.761264053054445D+02
 0.143319522867584D+03 -.566037769595441D+02 -.294918516765199D+02 -.999975639664574D+02
 0.597819071364302D+02 -.547687381385520D+02 -.210464433104983D+01 0.238711586610130D+02
 0.000000000000000D+00 -.000000000000000D+00 0.000000000000000D+00 0.000000000000000D+00
 0.224761978720505D+03 0.000000000000000D+00 0.000000000000000D+00 0.224761978720505D+03
 0.201136735922185D+03 0.000000000000000D+00 0.000000000000000D+00 -.201136735922185D+03
 0.192044641661277D+03 0.121913458171973D+03 0.244545194724809D+02 0.761264053054445D+02
 0.141602736134447D+03 -.486720950801714D+02 -.348659330532286D+02 -.999975639664574D+02
 0.569439743531583D+02 -.515193164811933D+02 -.430627781553179D+01 0.238711586610130D+02
 0.353073624938079D+02 -.217220466106084D+02 0.147176913962796D+02 0.236252427983204D+02
-.486072992664D-04 0.000000000000D+00 0.000000000000D+00 0.168757870355D-06 0.000000000000D+00  6 21 4 25 24 3 21 4 0.10749081D+00 0.97641611D-02 0.31419018D+05 0.31419018D+05 0.31419018D+05 0.12127975D+01  1  2 13  1  6  1       21 -.241200198802D-01 0.100000000000D+01
0.834020583976D-05 0.000000000000D+00 0.000000000000D+00 0.170754291615D-06 0.642379172984D-08  6 21 4 25 24 3 21 4 0.10616264D+00 0.10078963D-01 0.31419018D+05 0.31419018D+05 0.31419018D+05 0.12127975D+01  1  2  1  1  6  1       21 0.404099722202D-02 0.100000000000D+01
  </mgrwgt>
  </event>
  <event>
  5     66 0.46027262E-03 0.49231239E+02 0.75467711E-02 0.10489067E+00
       21 -1    0    0  501  502 0.00000000E+00 0.00000000E+00 0.54434455E+02 0.54439622E+02 0.75000000E+00 0.0000E+00 0.9000E+01
        2 -1    0    0  502    0 0.00000000E+00 0.00000000E+00 -.75935165E+03 0.75935172E+03 0.32000000E+00 0.0000E+00 0.9000E+01
       25  1    1    2    0    0 0.94814878E+02 0.89474138E+02 -.50427644E+03 0.53564466E+03 0.12500000E+03 0.0000E+00 0.9000E+01
       24  1    1    2    0    0 -.53962595E+02 -.62000802E+02 -.19784412E+03 0.22883525E+03 0.80419002E+02 0.0000E+00 0.9000E+01
        1  1    1    2  501    0 -.40852284E+02 -.27473336E+02 -.27966445E+01 0.49311427E+02 0.32000000E+00 0.0000E+00 0.9000E+01
#aMCatNLO 1  0  0  1  1 0.23362206D+03 0.00000000D+00  -5  6  0 0.00000000D+00 0.00000000D+00 0.00000000D+00 0.00000000D+00 0.00000000D+00
  <mgrwgt>
 0.2007490911D+00    3    2    0
 0.203315083430338D+03 0.000000000000000D+00 0.000000000000000D+00 0.203315083430338D+03
 0.203315083430338D+03 0.000000000000000D+00 0.000000000000000D+00 -.203315083430338D+03
 0.197796275082531D+03 0.948149940195748D+02 0.894742153273405D+02 -.806402389452633D+02
 0.114994915287925D+03 -.539625277623477D+02 -.620007565554972D+02 0.752576740476954D+00
 0.938389764902202D+02 -.408524662572270D+02 -.274734587718433D+02 0.798876622047863D+02
 0.000000000000000D+00 -.000000000000000D+00 0.000000000000000D+00 -.000000000000000D+00
 0.373188365191469D+03 0.000000000000000D+00 0.000000000000000D+00 0.373188365191469D+03
 0.452375600848754D+03 0.000000000000000D+00 0.000000000000000D+00 -.452375600848754D+03
 0.199129377885264D+03 0.126343744683579D+03 -.395211232020788D+02 -.806402389452633D+02
 0.179705427847592D+03 -.305537771062896D+02 -.157774285535712D+03 0.752576740476954D+00
 0.130291906983432D+03 -.230492159802360D+02 -.100312890973841D+03 0.798876622047863D+02
 0.316437253323934D+03 -.727407515970534D+02 0.297608299711633D+03 -.791872356572852D+02
0.209104610597D-04 0.000000000000D+00 0.000000000000D+00 0.562656548877D-06 0.000000000000D+00  6 21 2 25 24 1 21 2 0.83749342D-02 0.11682373D+00 0.29727830D+05 0.29727830D+05 0.29727830D+05 0.12153140D+01  1  2  2  1  6  1       21 0.164072814909D+00 0.100000000000D+01
0.972537434246D-06 0.110347534639D-05 -.422121963086D-07 0.562656548877D-06 0.000000000000D+00  6 21 2 25 24 1 21 4 0.83749342D-02 0.11682373D+00 0.29727830D+05 0.29727830D+05 0.29727830D+05 0.12153140D+01  1  2  3  1  6  1       21 0.112708422263D-01 0.100000000000D+01
0.219218183029D-05 0.000000000000D+00 0.000000000000D+00 0.562656548877D-06 0.000000000000D+00  6 21 2 25 24 1 21 4 0.83749342D-02 0.11682373D+00 0.29727830D+05 0.29727830D+05 0.29727830D+05 0.12153140D+01  1  2 15  1  6  1       21 0.254054339405D-01 0.100000000000D+01
  </mgrwgt>
  </event>
  <event>
  5     66 0.46027262E-03 0.20988349E+02 0.75467711E-02 0.12246445E+00
       21 -1    0    0  501  502 0.00000000E+00 0.00000000E+00 0.15286765E+03 0.15286949E+03 0.75000000E+00 0.0000E+00 0.9000E+01
        2 -1    0    0  502    0 0.00000000E+00 0.00000000E+00 -.60975697E+03 0.60975705E+03 0.32000000E+00 0.0000E+00 0.9000E+01
       25  1    1    2    0    0 0.52799455E+02 0.22526155E+02 -.21607794E+03 0.25614426E+03 0.12500000E+03 0.0000E+00 0.9000E+01
       24  1    1    2    0    0 -.42488045E+02 -.40806889E+02 -.36610912E+03 0.37943845E+03 0.80419002E+02 0.0000E+00 0.9000E+01
        1  1    1    2  501    0 -.10311409E+02 0.18280734E+02 0.12529774E+03 0.12704383E+03 0.32000000E+00 0.0000E+00 0.9000E+01
#aMCatNLO 1  0  0  1  2 0.80093916D+01 0.00000000D+00  -5  6  0 0.00000000D+00 0.00000000D+00 0.00000000D+00 0.00000000D+00 0.00000000D+00
  <mgrwgt>
 0.1921211252D+02   32    2    0
 0.305307797917899D+03 0.000000000000000D+00 0.000000000000000D+00 0.305307797917899D+03
 0.305307797917899D+03 0.000000000000000D+00 0.000000000000000D+00 -.305307797917899D+03
 0.158231681147379D+03 0.527994569824250D+02 0.225261514330503D+02 -.782116024813586D+02
 0.199959726176020D+03 -.424880427608919D+02 -.408068938852937D+02 -.173338512084884D+03
 0.252424188512399D+03 -.103114142215332D+02 0.182807424522435D+02 0.251550114566243D+03
 0.000000000000000D+00 -.000000000000000D+00 0.000000000000000D+00 0.000000000000000D+00
 0.427878044988513D+03 0.000000000000000D+00 0.000000000000000D+00 0.427878044988513D+03
 0.305464933511482D+03 0.000000000000000D+00 0.000000000000000D+00 -.305464933511482D+03
 0.158090718483658D+03 0.532044722983161D+02 0.204915747426792D+02 -.782116024813586D+02
 0.200393080439278D+03 -.419754359438334D+02 -.433819517667913D+02 -.173338512084884D+03
 0.252184323899807D+03 -.966531967908436D+01 0.150351148320869D+02 0.251550114566243D+03
 0.122674855677252D+03 -.156371667539829D+01 0.785526219202527D+01 0.122413111477031D+03
0.393577565702D-04 0.000000000000D+00 0.000000000000D+00 0.280192573038D-04 0.000000000000D+00  6 21 2 25 24 1 21 2 0.23518249D-01 0.93808913D-01 0.16670280D+05 0.16670280D+05 0.16670280D+05 0.12426290D+01  1  2  2  1  6  1       21 0.654192560583D-01 0.100000000000D+01
0.147876392609D-04 0.207696587563D-05 -.794519710430D-07 0.280192573038D-04 0.000000000000D+00  6 21 2 25 24 1 21 4 0.23518249D-01 0.93808913D-01 0.16670280D+05 0.16670280D+05 0.16670280D+05 0.12426290D+01  1  2  3  1  6  1       21 0.379539612226D-01 0.100000000000D+01
0.420132969943D-05 0.000000000000D+00 0.000000000000D+00 0.280192573038D-04 0.000000000000D+00  6 21 2 25 24 1 21 4 0.23518249D-01 0.93808913D-01 0.16670280D+05 0.16670280D+05 0.16670280D+05 0.12426290D+01  1  2 15  1  6  1       21 0.107831345952D-01 0.100000000000D+01
0.848116200475D-02 0.000000000000D+00 0.000000000000D+00 0.279250215475D-04 0.000000000000D+00  6 21 2 25 24 1 21 4 0.32964219D-01 0.93808913D-01 0.17401036D+05 0.17401036D+05 0.17401036D+05 0.12405376D+01  1  2 12  1  6  1       21 0.113210250537D+02 0.100000000000D+01
-.203835186150D-02 0.000000000000D+00 0.000000000000D+00 0.280192573038D-04 0.000000000000D+00  6 21 2 25 24 1 21 4 0.23518249D-01 0.93808913D-01 0.16670280D+05 0.16670280D+05 0.16670280D+05 0.12426290D+01  1  2  4  1  6  1       21 -.523163475551D+01 0.100000000000D+01
-.170249894286D-01 0.000000000000D+00 -.530733418250D-04 0.280192573038D-04 0.000000000000D+00  6 21 2 25 24 1 21 4 0.32966973D-01 0.93808913D-01 0.16670280D+05 0.16670280D+05 0.16670280D+05 0.12426290D+01  1  2  5  1  6  1       21 -.229012463296D+02 0.100000000000D+01
0.142897864606D-01 0.000000000000D+00 0.426786027153D-04 0.280192573038D-04 0.000000000000D+00  6 21 2 25 24 1 21 4 0.23518249D-01 0.93808913D-01 0.16670280D+05 0.16670280D+05 0.16670280D+05 0.12426290D+01  1  2  6  1  6  1       21 0.366761720133D+02 0.100000000000D+01
0.845256940410D-05 0.000000000000D+00 0.000000000000D+00 0.280192573038D-04 0.352584369735D-04  6 21 2 25 24 1 21 4 0.32959991D-01 0.93857194D-01 0.17401036D+05 0.17401036D+05 0.17401036D+05 0.12405376D+01  1  2 11  1  6  1       21 0.112790579377D-01 0.100000000000D+01
0.801943830770D-03 0.000000000000D+00 0.000000000000D+00 0.279250215475D-04 0.000000000000D+00  6 -1 2 25 24 1 -1 4 0.32964219D-01 0.93808913D-01 0.17401036D+05 0.17401036D+05 0.17401036D+05 0.12405376D+01  1  2 12  4  6  1       21 0.945752258005D-01 0.100000000000D+01
-.160736729203D-02 0.000000000000D+00 -.577997523064D-05 0.280192573038D-04 0.000000000000D+00  6 -1 2 25 24 1 -1 4 0.32966973D-01 0.93808913D-01 0.16670280D+05 0.16670280D+05 0.16670280D+05 0.12426290D+01  1  2  5  4  6  1       21 -.190862945748D+00 0.100000000000D+01
0.160980412178D-05 0.000000000000D+00 0.000000000000D+00 0.280192573038D-04 0.666620253617D-05  6 -1 2 25 24 1 -1 4 0.32959991D-01 0.93857194D-01 0.17401036D+05 0.17401036D+05 0.17401036D+05 0.12405376D+01  1  2 11  4  6  1       21 0.189778128684D-03 0.100000000000D+01
0.801943830770D-03 0.000000000000D+00 0.000000000000D+00 0.279250215475D-04 0.000000000000D+00  6 1 2 25 24 1 1 4 0.32964219D-01 0.93808913D-01 0.17401036D+05 0.17401036D+05 0.17401036D+05 0.12405376D+01  1  2 12  5  6  1       21 0.173368050535D+00 0.100000000000D+01
-.160736729203D-02 0.000000000000D+00 -.577997523064D-05 0.280192573038D-04 0.000000000000D+00  6 1 2 25 24 1 1 4 0.32966973D-01 0.93808913D-01 0.16670280D+05 0.16670280D+05 0.16670280D+05 0.12426290D+01  1  2  5  5  6  1       21 -.349884701270D+00 0.100000000000D+01
0.118257399498D-04 0.000000000000D+00 0.000000000000D+00 0.280192573038D-04 0.855422519979D-06  6 1 2 25 24 1 1 4 0.32959991D-01 0.93857194D-01 0.17401036D+05 0.17401036D+05 0.17401036D+05 0.12405376D+01  1  2 11  5  6  1       21 0.255545033976D-02 0.100000000000D+01
0.801943830770D-03 0.000000000000D+00 0.000000000000D+00 0.279250215475D-04 0.000000000000D+00  6 -2 2 25 24 1 -2 4 0.32964219D-01 0.93808913D-01 0.17401036D+05 0.17401036D+05 0.17401036D+05 0.12405376D+01  1  2 12  6  6  1       21 0.820174258991D-01 0.100000000000D+01
-.160736729203D-02 0.000000000000D+00 -.577997523064D-05 0.280192573038D-04 0.000000000000D+00  6 -2 2 25 24 1 -2 4 0.32966973D-01 0.93808913D-01 0.16670280D+05 0.16670280D+05 0.16670280D+05 0.12426290D+01  1  2  5  6  6  1       21 -.165504217040D+00 0.100000000000D+01
0.672727368633D-05 0.000000000000D+00 0.000000000000D+00 0.280192573038D-04 0.769280388788D-06  6 -2 2 25 24 1 -2 4 0.32959991D-01 0.93857194D-01 0.17401036D+05 0.17401036D+05 0.17401036D+05 0.12405376D+01  1  2 11  6  6  1       21 0.687777532419D-03 0.100000000000D+01
0.801943830770D-03 0.000000000000D+00 0.000000000000D+00 0.279250215475D-04 0.000000000000D+00  6 2 2 25 24 1 2 4 0.32964219D-01 0.93808913D-01 0.17401036D+05 0.17401036D+05 0.17401036D+05 0.12405376D+01  1  2 12  7  6  1       21 0.231138349264D+00 0.100000000000D+01
-.160736729203D-02 0.000000000000D+00 -.577997523064D-05 0.280192573038D-04 0.000000000000D+00  6 2 2 25 24 1 2 4 0.32966973D-01 0.93808913D-01 0.16670280D+05 0.16670280D+05 0.16670280D+05 0.12426290D+01  1  2  5  7  6  1       21 -.466433605124D+00 0.100000000000D+01
0.672015136139D-05 0.000000000000D+00 0.000000000000D+00 0.280192573038D-04 0.768510395946D-06  6 2 2 25 24 1 2 4 0.32959991D-01 0.93857194D-01 0.17401036D+05 0.17401036D+05 0.17401036D+05 0.12405376D+01  1  2 11  7  6  1       21 0.193602939934D-02 0.100000000000D+01
0.801943830770D-03 0.000000000000D+00 0.000000000000D+00 0.279250215475D-04 0.000000000000D+00  6 -3 2 25 24 1 -3 4 0.32964219D-01 0.93808913D-01 0.17401036D+05 0.17401036D+05 0.17401036D+05 0.12405376D+01  1  2 12  8  6  1       21 0.518123091053D-01 0.100000000000D+01
0.801943830770D-03 0.000000000000D+00 0.000000000000D+00 0.279250215475D-04 0.000000000000D+00  6 -4 2 25 24 1 -4 4 0.32964219D-01 0.93808913D-01 0.17401036D+05 0.17401036D+05 0.17401036D+05 0.12405376D+01  1  2 12  8  6  1       21 0.432315841008D-01 0.100000000000D+01
-.160736729203D-02 0.000000000000D+00 -.577997523064D-05 0.280192573038D-04 0.000000000000D+00  6 -3 2 25 24 1 -3 4 0.32966973D-01 0.93808913D-01 0.16670280D+05 0.16670280D+05 0.16670280D+05 0.12426290D+01  1  2  5  8  6  1       21 -.104446254726D+00 0.100000000000D+01
-.160736729203D-02 0.000000000000D+00 -.577997523064D-05 0.280192573038D-04 0.000000000000D+00  6 -4 2 25 24 1 -4 4 0.32966973D-01 0.93808913D-01 0.16670280D+05 0.16670280D+05 0.16670280D+05 0.12426290D+01  1  2  5  8  6  1       21 -.871037590503D-01 0.100000000000D+01
0.672692604600D-05 0.000000000000D+00 0.000000000000D+00 0.280192573038D-04 0.769240635257D-06  6 -3 2 25 24 1 -3 4 0.32959991D-01 0.93857194D-01 0.17401036D+05 0.17401036D+05 0.17401036D+05 0.12405376D+01  1  2 11  8  6  1       21 0.434465116539D-03 0.100000000000D+01
0.672692604600D-05 0.000000000000D+00 0.000000000000D+00 0.280192573038D-04 0.769240635257D-06  6 -4 2 25 24 1 -4 4 0.32959991D-01 0.93857194D-01 0.17401036D+05 0.17401036D+05 0.17401036D+05 0.12405376D+01  1  2 11  8  6  1       21 0.362514511092D-03 0.100000000000D+01
0.801943830770D-03 0.000000000000D+00 0.000000000000D+00 0.279250215475D-04 0.000000000000D+00  6 3 2 25 24 1 3 4 0.32964219D-01 0.93808913D-01 0.17401036D+05 0.17401036D+05 0.17401036D+05 0.12405376D+01  1  2 12  9  6  1       21 0.518155818070D-01 0.100000000000D+01
0.801943830770D-03 0.000000000000D+00 0.000000000000D+00 0.279250215475D-04 0.000000000000D+00  6 4 2 25 24 1 4 4 0.32964219D-01 0.93808913D-01 0.17401036D+05 0.17401036D+05 0.17401036D+05 0.12405376D+01  1  2 12  9  6  1       21 0.432315841008D-01 0.100000000000D+01
-.160736729203D-02 0.000000000000D+00 -.577997523064D-05 0.280192573038D-04 0.000000000000D+00  6 3 2 25 24 1 3 4 0.32966973D-01 0.93808913D-01 0.16670280D+05 0.16670280D+05 0.16670280D+05 0.12426290D+01  1  2  5  9  6  1       21 -.104452764264D+00 0.100000000000D+01
-.160736729203D-02 0.000000000000D+00 -.577997523064D-05 0.280192573038D-04 0.000000000000D+00  6 4 2 25 24 1 4 4 0.32966973D-01 0.93808913D-01 0.16670280D+05 0.16670280D+05 0.16670280D+05 0.12426290D+01  1  2  5  9  6  1       21 -.871037590503D-01 0.100000000000D+01
0.672692604600D-05 0.000000000000D+00 0.000000000000D+00 0.280192573038D-04 0.769240635257D-06  6 3 2 25 24 1 3 4 0.32959991D-01 0.93857194D-01 0.17401036D+05 0.17401036D+05 0.17401036D+05 0.12405376D+01  1  2 11  9  6  1       21 0.434492529485D-03 0.100000000000D+01
0.672692604600D-05 0.000000000000D+00 0.000000000000D+00 0.280192573038D-04 0.769240635257D-06  6 4 2 25 24 1 4 4 0.32959991D-01 0.93857194D-01 0.17401036D+05 0.17401036D+05 0.17401036D+05 0.12405376D+01  1  2 11  9  6  1       21 0.362514511092D-03 0.100000000000D+01
  </mgrwgt>
  </event>
  <event>
  6     66 0.46027262E-03 0.15687234E+03 0.75467711E-02 0.10640870E+00
       21 -1    0    0  501  503 0.00000000E+00 0.00000000E+00 0.12194159E+03 0.12194389E+03 0.75000000E+00 0.0000E+00 0.9000E+01
        2 -1    0    0  502    0 0.00000000E+00 0.00000000E+00 -.38507185E+04 0.38507185E+04 0.32000000E+00 0.0000E+00 0.9000E+01
       25  1    1    2    0    0 0.18673561E+02 0.19229648E+03 -.18039042E+04 0.18185219E+04 0.12500000E+03 0.0000E+00 0.9000E+01
       24  1    1    2    0    0 0.14658178E+03 0.17861941E+02 -.10891927E+04 0.11020950E+04 0.80419002E+02 0.0000E+00 0.9000E+01
        1  1    1    2  501    0 -.16468360E+03 -.11833014E+03 0.84223696E+01 0.20296243E+03 0.32000000E+00 0.0000E+00 0.9000E+01
       21  1    1    2  502  503 -.57173943E+00 -.91828280E+02 -.84410235E+03 0.84908310E+03 0.75000000E+00 0.0000E+00 0.9000E+01
#aMCatNLO 2  0  0  1  2 0.91830059D+02 0.00000000D+00  -5  6  0 0.00000000D+00 0.00000000D+00 0.00000000D+00 0.00000000D+00 0.00000000D+00
  <mgrwgt>
 0.6771037030D-03    1    2    0
 0.597278754912960D+03 0.000000000000000D+00 0.000000000000000D+00 0.597278754912960D+03
 0.597278754912960D+03 0.000000000000000D+00 0.000000000000000D+00 -.597278754912960D+03
 0.384202529655959D+03 0.184866994150044D+02 0.162282865873904D+03 -.324513631736064D+03
 0.250126441424655D+03 0.146462076799333D+03 -.136449002198107D+01 -.186126352169694D+03
 0.560228538745307D+03 -.164948776214338D+03 -.160918375851923D+03 0.510639983905758D+03
 0.000000000000000D+00 -.000000000000000D+00 -.000000000000000D+00 -.000000000000000D+00
 0.611529171989928D+03 0.000000000000000D+00 0.000000000000000D+00 0.611529171989928D+03
 0.767855710013019D+03 0.000000000000000D+00 0.000000000000000D+00 -.767855710013019D+03
 0.397819983736279D+03 0.186735696509100D+02 0.192296490019698D+03 -.324513631736064D+03
 0.250829630481397D+03 0.146581784068283D+03 0.178619478340354D+02 -.186126352169694D+03
 0.549432354641558D+03 -.164683614292051D+03 -.118330158232803D+03 0.510639983905758D+03
 0.181302913143714D+03 -.571739427142029D+00 -.918282796209301D+02 -.156326538023091D+03
0.212107256397D-04 0.000000000000D+00 0.000000000000D+00 0.788126867088D-06 0.695712617853D-09  6 21 2 25 24 1 21 4 0.18760399D-01 0.59241767D+00 0.12001856D+06 0.12001856D+06 0.12001856D+06 0.11563612D+01  1  2  1  1  6  1       21 0.677103702985D-03 0.100000000000D+01
  </mgrwgt>
  </event>
  <event>
  5     66 -.46027262E-03 0.20348418E+02 0.75467711E-02 0.12326210E+00
       21 -1    0    0  501  502 0.00000000E+00 0.00000000E+00 0.89772234E+02 0.89775367E+02 0.75000000E+00 0.0000E+00 0.9000E+01
        2 -1    0    0  502    0 0.00000000E+00 0.00000000E+00 -.90923113E+03 0.90923119E+03 0.32000000E+00 0.0000E+00 0.9000E+01
       25  1    1    2    0    0 0.25586032E+02 0.28415531E+02 -.17503127E+03 0.21845602E+03 0.12500000E+03 0.0000E+00 0.9000E+01
       24  1    1    2    0    0 -.55694844E+01 -.24755566E+02 -.70840909E+03 0.71341048E+03 0.80419002E+02 0.0000E+00 0.9000E+01
        1  1    1    2  501    0 -.20016547E+02 -.36599651E+01 0.63981461E+02 0.67140057E+02 0.32000000E+00 0.0000E+00 0.9000E+01
#aMCatNLO 1  0  0  2  5 0.25335903D+02 0.00000000D+00  -5  6  0 0.00000000D+00 0.00000000D+00 0.00000000D+00 0.00000000D+00 0.00000000D+00
  <mgrwgt>
 -.4181021201D+01    7    2    0
 0.285701422945781D+03 0.000000000000000D+00 0.000000000000000D+00 0.285701422945781D+03
 0.285701422945781D+03 0.000000000000000D+00 0.000000000000000D+00 -.285701422945781D+03
 0.130920005751088D+03 0.255860370951200D+02 0.284155320180374D+02 0.727737258658692D+01
 0.231342328984615D+03 -.556947492265903D+01 -.247555642117899D+02 -.215425625716387D+03
 0.209140511155860D+03 -.200165621724609D+02 -.365996780624750D+01 0.208148253129800D+03
 0.000000000000000D+00 -.000000000000000D+00 0.000000000000000D+00 -.000000000000000D+00
 0.287348965258321D+03 0.000000000000000D+00 0.000000000000000D+00 0.287348965258321D+03
 0.403390053109673D+03 0.000000000000000D+00 0.000000000000000D+00 -.403390053109673D+03
 0.132132223881071D+03 0.314104267943173D+02 0.281842070066229D+02 0.727737258658692D+01
 0.231366435047211D+03 0.467562416934974D+01 -.251624648119897D+02 -.215425625716387D+03
 0.208465605944239D+03 -.107701065535108D+02 -.402720567357145D+01 0.208148253129800D+03
 0.118774753495474D+03 -.253159444101562D+02 0.100546347893821D+01 -.116041087851351D+03
0.444042177624D-04 0.000000000000D+00 0.000000000000D+00 0.909695193455D-05 0.000000000000D+00  6 21 2 25 24 1 21 2 0.13811358D-01 0.13988196D+00 0.13852488D+05 0.13852488D+05 0.13852488D+05 0.12517822D+01  1  2  2  2  6  2        2 0.122611302483D+00 0.100000000000D+01
0.139498695979D-04 0.234327494917D-05 -.896393222401D-07 0.909695193455D-05 0.000000000000D+00  6 21 2 25 24 1 21 4 0.13811358D-01 0.13988196D+00 0.13852488D+05 0.13852488D+05 0.13852488D+05 0.12517822D+01  1  2  3  2  6  2        2 0.603578759459D-01 0.100000000000D+01
0.505034194357D-05 0.000000000000D+00 0.000000000000D+00 0.909695193455D-05 0.000000000000D+00  6 21 2 25 24 1 21 4 0.13811358D-01 0.13988196D+00 0.13852488D+05 0.13852488D+05 0.13852488D+05 0.12517822D+01  1  2 15  2  6  2        2 0.218516675281D-01 0.100000000000D+01
-.154253155017D-02 0.000000000000D+00 0.000000000000D+00 0.909695193455D-05 0.000000000000D+00  6 21 2 25 24 1 21 4 0.13811358D-01 0.13988196D+00 0.13852488D+05 0.13852488D+05 0.13852488D+05 0.12517822D+01  1  2  4  2  6  2        2 -.667417908777D+01 0.100000000000D+01
-.159952076499D-02 0.000000000000D+00 -.521406683728D-04 0.909695193455D-05 0.000000000000D+00  6 21 2 25 24 1 21 4 0.13811358D-01 0.19789687D+00 0.13852488D+05 0.13852488D+05 0.13852488D+05 0.12517822D+01  1  2  5  2  6  2        2 -.420902977668D+01 0.100000000000D+01
0.152772499609D-02 0.000000000000D+00 0.491525704218D-04 0.909695193455D-05 0.000000000000D+00  6 21 2 25 24 1 21 4 0.13811358D-01 0.13988196D+00 0.13852488D+05 0.13852488D+05 0.13852488D+05 0.12517822D+01  1  2  6  2  6  2        2 0.661011453521D+01 0.100000000000D+01
-.672060950424D-04 0.000000000000D+00 -.223821915975D-05 0.909695193455D-05 0.000000000000D+00  6 21 21 25 24 1 -2 4 0.13811358D-01 0.19789687D+00 0.13852488D+05 0.13852488D+05 0.13852488D+05 0.12517822D+01  1  2  5 10  6  2        2 -.112747718186D+00 0.100000000000D+01
  </mgrwgt>
  </event>
  <event>
  5     66 -.46027262E-03 0.34826791E+02 0.75467711E-02 0.12253259E+00
       21 -1    0    0  501  502 0.00000000E+00 0.00000000E+00 0.10212599E+02 0.10240102E+02 0.75000000E+00 0.0000E+00 0.9000E+01
        2 -1    0    0  502    0 -.00000000E+00 -.00000000E+00 -.24008194E+04 0.24008194E+04 0.32000000E+00 0.0000E+00 0.9000E+01
       25  1    1    2    0    0 0.93464190E+01 -.36767276E+02 -.17035269E+04 0.17085281E+04 0.12500000E+03 0.0000E+00 0.9000E+01
       24  1    1    2    0    0 0.24051795E+02 0.46638564E+02 -.61530558E+03 0.62275341E+03 0.80419002E+02 0.0000E+00 0.9000E+01
        1  1    1    2  501    0 -.33398214E+02 -.98712886E+01 -.71774308E+02 0.79778047E+02 0.32000000E+00 0.0000E+00 0.9000E+01
#aMCatNLO 1  0  0  5  2 0.13753294D+02 0.00000000D+00  -5  6  0 0.00000000D+00 0.00000000D+00 0.00000000D+00 0.00000000D+00 0.00000000D+00
  <mgrwgt>
 -.1627485825D+00    6    2    0
 0.156690096900279D+03 0.000000000000000D+00 0.000000000000000D+00 0.156690096900279D+03
 0.156690096900279D+03 -.000000000000000D+00 -.000000000000000D+00 -.156690096900279D+03
 0.149658061864800D+03 0.934660501423686D+01 -.367672207763568D+02 -.730297742856893D+02
 0.974594262433820D+02 0.240519165624301D+02 0.466386001502987D+02 0.166574336262562D+02
 0.662627056923768D+02 -.333985215766670D+02 -.987137937394182D+01 0.563723406594330D+02
 0.000000000000000D+00 0.000000000000000D+00 0.000000000000000D+00 0.000000000000000D+00
 0.156690096900279D+03 0.000000000000000D+00 0.000000000000000D+00 0.156690096900279D+03
 0.156690096900279D+03 -.000000000000000D+00 -.000000000000000D+00 -.156690096900279D+03
 0.148394889069155D+03 0.775964924598866D+01 -.372362667609847D+02 -.703512002963053D+02
 0.973776509544307D+02 0.230145243052529D+02 0.463319850054732D+02 0.184084162134587D+02
 0.435744061169622D+02 -.308536934350795D+02 -.124390514648144D+02 0.281433556726234D+02
 0.240332476600105D+02 0.795198838378539D-01 0.334333322032594D+01 0.237994284102232D+02
0.432258331421D-05 0.000000000000D+00 0.000000000000D+00 0.121437485762D-05 0.000000000000D+00  6 21 2 25 24 1 21 2 0.15732863D-02 0.36935895D+00 0.17093224D+05 0.17093224D+05 0.17093224D+05 0.12414064D+01  1  2  2  3  6  5        1 0.725704334544D-01 0.100000000000D+01
0.211750778827D-06 0.228108988431D-06 -.872605031993D-08 0.121437485762D-05 0.000000000000D+00  6 21 2 25 24 1 21 4 0.15732863D-02 0.36935895D+00 0.17093224D+05 0.17093224D+05 0.17093224D+05 0.12414064D+01  1  2  3  3  6  5        1 0.547859615331D-02 0.100000000000D+01
0.422643451967D-06 0.000000000000D+00 0.000000000000D+00 0.121437485762D-05 0.000000000000D+00  6 21 2 25 24 1 21 4 0.15732863D-02 0.36935895D+00 0.17093224D+05 0.17093224D+05 0.17093224D+05 0.12414064D+01  1  2 15  3  6  5        1 0.109349906668D-01 0.100000000000D+01
-.118126246416D-04 0.000000000000D+00 0.000000000000D+00 0.121437485762D-05 0.000000000000D+00  6 21 2 25 24 1 21 4 0.15732863D-02 0.36935895D+00 0.17093224D+05 0.17093224D+05 0.17093224D+05 0.12414064D+01  1  2  4  3  6  5        1 -.305626266314D+00 0.100000000000D+01
-.409460295246D-05 0.000000000000D+00 0.000000000000D+00 0.121437485762D-05 0.000000000000D+00  6 21 2 25 24 1 21 4 0.15732863D-02 0.36935895D+00 0.17093224D+05 0.17093224D+05 0.17093224D+05 0.12414064D+01  1  2  5  3  6  5        1 -.105939048295D+00 0.100000000000D+01
0.617762292916D-05 0.000000000000D+00 -.000000000000D+00 0.121437485762D-05 0.000000000000D+00  6 21 2 25 24 1 21 4 0.15732863D-02 0.36935895D+00 0.17093224D+05 0.17093224D+05 0.17093224D+05 0.12414064D+01  1  2  6  3  6  5        1 0.159832711850D+00 0.100000000000D+01
  </mgrwgt>
  </event>
  <event>
  5     66 0.46027262E-03 0.75105005E+03 0.75467711E-02 0.83833101E-01
       21 -1    0    0  501  502 0.00000000E+00 0.00000000E+00 0.10438942E+04 0.10438944E+04 0.75000000E+00 0.0000E+00 0.9000E+01
        2 -1    0    0  502    0 0.00000000E+00 0.00000000E+00 -.13060952E+04 0.13060952E+04 0.32000000E+00 0.0000E+00 0.9000E+01
       25  1    1    2    0    0 0.15864994E+03 0.45539705E+03 -.27057638E+03 0.56691521E+03 0.12500000E+03 0.0000E+00 0.9000E+01
       24  1    1    2    0    0 0.18471827E+03 0.21256584E+03 -.69493863E+03 0.75412996E+03 0.80419002E+02 0.0000E+00 0.9000E+01
        1  1    1    2  501    0 -.34336821E+03 -.66796289E+03 0.70331396E+03 0.10289445E+04 0.32000000E+00 0.0000E+00 0.9000E+01
#aMCatNLO 1  0  0  1  2 0.92967559D+01 0.00000000D+00  -5  6  0 0.00000000D+00 0.00000000D+00 0.00000000D+00 0.00000000D+00 0.00000000D+00
  <mgrwgt>
 0.3687564332D-01    3    2    0
 0.116765813090444D+04 0.000000000000000D+00 0.000000000000000D+00 0.116765813090444D+04
 0.116765813090444D+04 0.000000000000000D+00 0.000000000000000D+00 -.116765813090444D+04
 0.540097938800018D+03 0.158649943085963D+03 0.455397060574157D+03 -.208625253205997D+03
 0.680843114497642D+03 0.184718270314464D+03 0.212565847377905D+03 -.614634079550609D+03
 0.111437520851122D+04 -.343368213400427D+03 -.667962907952063D+03 0.823259332756605D+03
 0.000000000000000D+00 0.000000000000000D+00 0.000000000000000D+00 -.000000000000000D+00
 0.268654618337939D+04 0.000000000000000D+00 0.000000000000000D+00 0.268654618337939D+04
 0.302477781830336D+04 0.000000000000000D+00 0.000000000000000D+00 -.302477781830336D+04
 0.417744582924395D+03 -.198786116337360D+03 0.275399927812118D+03 -.208625253205997D+03
 0.705017661234235D+03 -.332440451867921D+03 -.478641924056954D+02 -.614634079550609D+03
 0.220033089893912D+04 -.158031005125126D+04 -.129086028592161D+04 0.823259332756605D+03
 0.238823085858500D+04 0.211153661945654D+04 0.106332455051519D+04 -.338231634923973D+03
0.683033676690D-02 0.000000000000D+00 0.000000000000D+00 0.725425167645D-07 0.000000000000D+00  6 21 2 25 24 1 21 2 0.16059912D+00 0.20093775D+00 0.59451586D+06 0.59451586D+06 0.59451586D+06 0.10985151D+01  1  2  2  1  6  1       21 0.346044013939D-01 0.100000000000D+01
-.361038289406D-03 0.360446773905D-03 -.137884820251D-04 0.725425167645D-07 0.000000000000D+00  6 21 2 25 24 1 21 4 0.16059912D+00 0.20093775D+00 0.59451586D+06 0.59451586D+06 0.59451586D+06 0.10985151D+01  1  2  3  1  6  1       21 -.220726527678D-02 0.100000000000D+01
0.732541121123D-03 0.000000000000D+00 0.000000000000D+00 0.725425167645D-07 0.000000000000D+00  6 21 2 25 24 1 21 4 0.16059912D+00 0.20093775D+00 0.59451586D+06 0.59451586D+06 0.59451586D+06 0.10985151D+01  1  2 15  1  6  1       21 0.447850720522D-02 0.100000000000D+01
  </mgrwgt>
  </event>
  <event>
  5     66 0.46027262E-03 0.26373649E+03 0.75467711E-02 0.10718535E+00
       21 -1    0    0  501  502 0.00000000E+00 0.00000000E+00 0.39402922E+02 0.39410059E+02 0.75000000E+00 0.0000E+00 0.9000E+01
        2 -1    0    0  502    0 -.00000000E+00 -.00000000E+00 -.28500342E+04 0.28500342E+04 0.32000000E+00 0.0000E+00 0.9000E+01
       25  1    1    2    0    0 0.20353574E+02 -.18613966E+03 -.10066211E+04 0.10314908E+04 0.12500000E+03 0.0000E+00 0.9000E+01
       24  1    1    2    0    0 -.14471215E+03 -.46436822E+02 -.89907894E+03 0.91537322E+03 0.80419002E+02 0.0000E+00 0.9000E+01
        1  1    1    2  501    0 0.12435858E+03 0.23257648E+03 -.90493121E+03 0.94258022E+03 0.32000000E+00 0.0000E+00 0.9000E+01
#aMCatNLO 1  0  0  5  1 0.99533801D+02 0.00000000D+00  -5  6  0 0.00000000D+00 0.00000000D+00 0.00000000D+00 0.00000000D+00 0.00000000D+00
  <mgrwgt>
 0.4159357848D-01    3    2    0
 0.335126861636951D+03 0.000000000000000D+00 0.000000000000000D+00 0.335126861636951D+03
 0.335126861636951D+03 -.000000000000000D+00 -.000000000000000D+00 -.335126861636951D+03
 0.225577984475511D+03 0.203535447367276D+02 -.186139715652351D+03 -.140771642579608D+02
 0.175964048516952D+03 -.144712173116481D+03 -.464368652762674D+02 -.373916422656875D+02
 0.268711690281440D+03 0.124358628379753D+03 0.232576580928618D+03 0.514688065236483D+02
 0.000000000000000D+00 0.000000000000000D+00 -.000000000000000D+00 0.000000000000000D+00
 0.335126861636951D+03 0.000000000000000D+00 0.000000000000000D+00 0.335126861636951D+03
 0.335126861636951D+03 -.000000000000000D+00 -.000000000000000D+00 -.335126861636951D+03
 0.204632337534129D+03 0.354556454358864D+02 -.157895636482193D+03 -.782679700067599D+01
 0.160556452796125D+03 -.132898959350662D+03 -.243436908562102D+02 -.325024598932450D+02
 0.107029488515455D+03 -.643724580770422D+02 0.837253582977483D+02 -.173655529976186D+02
 0.198035444428193D+03 0.161815771991818D+03 0.985139690406545D+02 0.576948098915396D+02
0.497528445589D-04 0.000000000000D+00 0.000000000000D+00 0.102801509657D-06 0.000000000000D+00  6 21 2 25 24 1 21 2 0.60625384D-02 0.43846735D+00 0.10917083D+06 0.10917083D+06 0.10917083D+06 0.11600872D+01  1  2  2  3  6  5        1 0.409544739196D-01 0.100000000000D+01
-.447495040569D-05 0.262552973973D-05 -.100436658734D-06 0.102801509657D-06 0.000000000000D+00  6 21 2 25 24 1 21 4 0.60625384D-02 0.43846735D+00 0.10917083D+06 0.10917083D+06 0.10917083D+06 0.11600872D+01  1  2  3  3  6  5        1 -.495738866142D-02 0.100000000000D+01
0.505185922000D-05 0.000000000000D+00 0.000000000000D+00 0.102801509657D-06 0.000000000000D+00  6 21 2 25 24 1 21 4 0.60625384D-02 0.43846735D+00 0.10917083D+06 0.10917083D+06 0.10917083D+06 0.11600872D+01  1  2 15  3  6  5        1 0.559649322247D-02 0.100000000000D+01
  </mgrwgt>
  </event>
  <event>
  5     66 0.46027262E-03 0.23387363E+02 0.75467711E-02 0.12466707E+00
       21 -1    0    0  501  502 0.00000000E+00 0.00000000E+00 0.27434896E+02 0.27445145E+02 0.75000000E+00 0.0000E+00 0.9000E+01
        2 -1    0    0  502    0 -.00000000E+00 -.00000000E+00 -.10822851E+04 0.10822851E+04 0.32000000E+00 0.0000E+00 0.9000E+01
       25  1    1    2    0    0 0.31680650E+02 0.13896180E+02 -.84704505E+03 0.85691719E+03 0.12500000E+03 0.0000E+00 0.9000E+01
       24  1    1    2    0    0 -.85069980E+01 -.17049910E+02 -.21333055E+03 0.22877982E+03 0.80419002E+02 0.0000E+00 0.9000E+01
        1  1    1    2  501    0 -.23173652E+02 0.31537300E+01 0.55254212E+01 0.24033245E+02 0.32000000E+00 0.0000E+00 0.9000E+01
#aMCatNLO 1  0  0  5  1 0.14351472D+01 0.00000000D+00  -5  6  0 0.00000000D+00 0.00000000D+00 0.00000000D+00 0.00000000D+00 0.00000000D+00
  <mgrwgt>
 0.1877596104D+00    8    2    0
 0.172331342022287D+03 0.000000000000000D+00 0.000000000000000D+00 0.172331342022287D+03
 0.172331342022287D+03 -.000000000000000D+00 -.000000000000000D+00 -.172331342022287D+03
 0.166659723323041D+03 0.316807150091924D+02 0.138961707705521D+02 -.104659887791524D+03
 0.837111764768854D+02 -.850696558541073D+01 -.170499139363493D+02 0.133145440802696D+02
 0.942917842446481D+02 -.231737494237816D+02 0.315374316579715D+01 0.913453437112546D+02
 0.000000000000000D+00 0.000000000000000D+00 0.000000000000000D+00 0.000000000000000D+00
 0.172331342022287D+03 0.000000000000000D+00 0.000000000000000D+00 0.172331342022287D+03
 0.172331342022287D+03 -.000000000000000D+00 -.000000000000000D+00 -.172331342022287D+03
 0.166630093178543D+03 0.316695498072278D+02 0.138976902561885D+02 -.104615877252167D+03
 0.837151104317633D+02 -.851257436256193D+01 -.170491506311851D+02 0.133366525301069D+02
 0.816143391883265D+02 -.187213997000467D+02 0.233262125639849D+01 0.794038313464312D+02
 0.127031412459413D+02 -.443557574461911D+01 0.818839118598067D+00 0.118753933756291D+02
0.455974481567D-06 0.000000000000D+00 0.000000000000D+00 0.427244729565D-05 0.000000000000D+00  6 21 2 25 24 1 21 2 0.42215453D-02 0.16650619D+00 0.13892355D+05 0.13892355D+05 0.13892355D+05 0.12516385D+01  1  2  2  3  6  5        1 0.760957471755D-02 0.100000000000D+01
0.745423855522D-07 0.240624344704D-07 -.920481106213D-09 0.427244729565D-05 0.000000000000D+00  6 21 2 25 24 1 21 4 0.42215453D-02 0.16650619D+00 0.13892355D+05 0.13892355D+05 0.13892355D+05 0.12516385D+01  1  2  3  3  6  5        1 0.194886144687D-02 0.100000000000D+01
0.445941199563D-07 0.000000000000D+00 0.000000000000D+00 0.427244729565D-05 0.000000000000D+00  6 21 2 25 24 1 21 4 0.42215453D-02 0.16650619D+00 0.13892355D+05 0.13892355D+05 0.13892355D+05 0.12516385D+01  1  2 15  3  6  5        1 0.116588381893D-02 0.100000000000D+01
0.803632274292D-08 0.000000000000D+00 0.000000000000D+00 0.427248442305D-05 0.000000000000D+00  6 21 2 25 24 1 21 4 0.42215453D-02 0.16650619D+00 0.13890843D+05 0.13890843D+05 0.13890843D+05 0.12516439D+01  1  2 12  3  6  5        1 0.210107867952D-03 0.100000000000D+01
-.385694976417D-04 0.000000000000D+00 0.000000000000D+00 0.427244729565D-05 0.000000000000D+00  6 21 2 25 24 1 21 4 0.42215453D-02 0.16650619D+00 0.13892355D+05 0.13892355D+05 0.13892355D+05 0.12516385D+01  1  2  4  3  6  5        1 -.100837404682D+01 0.100000000000D+01
-.681301384048D-04 0.000000000000D+00 0.000000000000D+00 0.427244729565D-05 0.000000000000D+00  6 21 2 25 24 1 21 4 0.42215453D-02 0.16650619D+00 0.13892355D+05 0.13892355D+05 0.13892355D+05 0.12516385D+01  1  2  5  3  6  5        1 -.178121747947D+01 0.100000000000D+01
0.779206014324D-04 0.000000000000D+00 -.000000000000D+00 0.427244729565D-05 0.000000000000D+00  6 21 2 25 24 1 21 4 0.42215453D-02 0.16650619D+00 0.13892355D+05 0.13892355D+05 0.13892355D+05 0.12516385D+01  1  2  6  3  6  5        1 0.203718267028D+01 0.100000000000D+01
0.355418609980D-04 0.000000000000D+00 0.000000000000D+00 0.427244729565D-05 0.695245014508D-05  6 21 2 25 24 1 21 4 0.42215453D-02 0.16650619D+00 0.13890843D+05 0.13890843D+05 0.13890843D+05 0.12516439D+01  1  2 11  3  6  5        1 0.929234038531D+00 0.100000000000D+01
  </mgrwgt>
  </event>
  <event>
  5     66 0.46027262E-03 0.28003922E+02 0.75467711E-02 0.11991983E+00
       21 -1    0    0  501  502 0.00000000E+00 0.00000000E+00 0.24281760E+02 0.24293340E+02 0.75000000E+00 0.0000E+00 0.9000E+01
        2 -1    0    0  502    0 -.00000000E+00 -.00000000E+00 -.13872457E+04 0.13872457E+04 0.32000000E+00 0.0000E+00 0.9000E+01
       25  1    1    2    0    0 0.28994466E+02 -.10140826E+03 -.34875588E+03 0.38520122E+03 0.12500000E+03 0.0000E+00 0.9000E+01
       24  1    1    2    0    0 -.22009638E+02 0.74290892E+02 -.94652742E+03 0.95309230E+03 0.80419002E+02 0.0000E+00 0.9000E+01
        1  1    1    2  501    0 -.69848281E+01 0.27117372E+02 -.67680587E+02 0.73245505E+02 0.32000000E+00 0.0000E+00 0.9000E+01
#aMCatNLO 1  0  0  5  2 0.51708837D+01 0.00000000D+00  -5  6  0 0.00000000D+00 0.00000000D+00 0.00000000D+00 0.00000000D+00 0.00000000D+00
  <mgrwgt>
 0.1107765567D+00    5    2    0
 0.183556434954367D+03 0.000000000000000D+00 0.000000000000000D+00 0.183556434954367D+03
 0.183556434954367D+03 -.000000000000000D+00 -.000000000000000D+00 -.183556434954367D+03
 0.186277829510068D+03 0.289946632963541D+02 -.101409029042562D+03 0.891624814367444D+02
 0.150482954951264D+03 -.220094790236756D+02 0.742902740568861D+02 -.100868438027724D+03
 0.303520854474008D+02 -.698518427267854D+01 0.271187549856762D+02 0.117059565909801D+02
 0.000000000000000D+00 0.000000000000000D+00 0.000000000000000D+00 -.000000000000000D+00
 0.183556434954367D+03 0.000000000000000D+00 0.000000000000000D+00 0.183556434954367D+03
 0.183556434954367D+03 -.000000000000000D+00 -.000000000000000D+00 -.183556434954367D+03
 0.184159232568577D+03 0.274794294101370D+02 -.955263987636392D+02 0.917017504674293D+02
 0.151735111805133D+03 -.232456702762644D+02 0.790895701650096D+02 -.987967960242982D+02
 0.239987797729782D+02 -.685935367041703D+00 0.212364762667068D+02 0.111571949448662D+02
 0.721974576204564D+01 -.354782376683092D+01 -.479964766807723D+01 -.406214938799726D+01
0.132703894721D-04 0.000000000000D+00 0.000000000000D+00 0.323189301933D-06 0.000000000000D+00  6 21 2 25 24 1 21 2 0.37365490D-02 0.21342330D+00 0.22986926D+05 0.22986926D+05 0.22986926D+05 0.12272259D+01  1  2  2  3  6  5        1 0.177467857024D+00 0.100000000000D+01
0.587624537281D-06 0.700297692036D-06 -.267890929755D-07 0.323189301933D-06 0.000000000000D+00  6 21 2 25 24 1 21 4 0.37365490D-02 0.21342330D+00 0.22986926D+05 0.22986926D+05 0.22986926D+05 0.12272259D+01  1  2  3  3  6  5        1 0.118354561186D-01 0.100000000000D+01
0.148542757014D-05 0.000000000000D+00 0.000000000000D+00 0.323189301933D-06 0.000000000000D+00  6 21 2 25 24 1 21 4 0.37365490D-02 0.21342330D+00 0.22986926D+05 0.22986926D+05 0.22986926D+05 0.12272259D+01  1  2 15  3  6  5        1 0.299182755455D-01 0.100000000000D+01
-.203527631507D-04 0.000000000000D+00 0.000000000000D+00 0.323189301933D-06 0.000000000000D+00  6 21 2 25 24 1 21 4 0.37365490D-02 0.21342330D+00 0.22986926D+05 0.22986926D+05 0.22986926D+05 0.12272259D+01  1  2  4  3  6  5        1 -.409928823388D+00 0.100000000000D+01
0.149508659152D-04 0.000000000000D+00 0.000000000000D+00 0.323189301933D-06 0.117756951433D-06  6 21 2 25 24 1 21 4 0.37365490D-02 0.21342330D+00 0.22813717D+05 0.22813717D+05 0.22813717D+05 0.12275818D+01  1  2 11  3  6  5        1 0.301483791400D+00 0.100000000000D+01
  </mgrwgt>
  </event>
  <event>
  6     66 0.46027262E-03 0.41397748E+02 0.75467711E-02 0.12209564E+00
       21 -1    0    0  501  502 0.00000000E+00 0.00000000E+00 0.22895820E+02 0.22908101E+02 0.75000000E+00 0.0000E+00 0.9000E+01
        2 -1    0    0  502    0 -.00000000E+00 -.00000000E+00 -.11849185E+04 0.11849186E+04 0.32000000E+00 0.0000E+00 0.9000E+01
       25  1    1    2    0    0 0.20936253E+02 -.15181477E+02 -.85861556E+03 0.86805212E+03 0.12500000E+03 0.0000E+00 0.9000E+01
       24  1    1    2    0    0 0.12749883E+02 0.14560375E+01 -.22533299E+03 0.23959727E+03 0.80419002E+02 0.0000E+00 0.9000E+01
        1  1    1    2  503    0 -.41549306E+02 0.23197491E+02 -.72308872E+02 0.86562947E+02 0.32000000E+00 0.0000E+00 0.9000E+01
       21  1    1    2  501  503 0.78631693E+01 -.94720522E+01 -.57652927E+01 0.13614342E+02 0.75000000E+00 0.0000E+00 0.9000E+01
#aMCatNLO 2  0  0  5  1 0.23232330D+02 0.00000000D+00  -5  6  0 0.00000000D+00 0.00000000D+00 0.00000000D+00 0.00000000D+00 0.00000000D+00
  <mgrwgt>
 0.5664382808D-01    1    2    0
 0.164733495308768D+03 0.000000000000000D+00 0.000000000000000D+00 0.164733495308768D+03
 0.164733495308768D+03 -.000000000000000D+00 -.000000000000000D+00 -.164733495308768D+03
 0.158384298230468D+03 0.242693453758599D+02 -.165395473068455D+02 -.927255529822811D+02
 0.831695939073045D+02 0.145297097204275D+02 0.730845961936475D+00 0.154375773991727D+02
 0.879130984797625D+02 -.387990550962874D+02 0.158087013449090D+02 0.772879755831083D+02
 0.000000000000000D+00 0.000000000000000D+00 0.000000000000000D+00 0.000000000000000D+00
 0.164733495308768D+03 0.000000000000000D+00 0.000000000000000D+00 0.164733495308768D+03
 0.164733495308768D+03 -.000000000000000D+00 -.000000000000000D+00 -.164733495308768D+03
 0.153942535537725D+03 0.209203868427711D+02 -.151750118784775D+02 -.860544053295389D+02
 0.836223209686881D+02 0.127412652251692D+02 0.145954888594635D+01 0.190001707184749D+02
 0.620694805364953D+02 -.415064146697644D+02 0.232169493434553D+02 0.398849748466183D+02
 0.298326535746271D+02 0.784476260182414D+01 -.950148635092420D+01 0.271692597644458D+02
0.190960484978D-05 0.000000000000D+00 0.000000000000D+00 0.132007486676D-05 0.721014145803D-07  6 21 2 25 24 1 21 4 0.35233819D-02 0.18229611D+00 0.18084726D+05 0.18084726D+05 0.18084726D+05 0.12386683D+01  1  2  1  3  6  5        1 0.566438280802D-01 0.100000000000D+01
  </mgrwgt>
  </event>
  <event>
  6     66 0.46027262E-03 0.77595606E+02 0.75467711E-02 0.11426186E+00
       21 -1    0    0  501  503 0.00000000E+00 0.00000000E+00 0.29983344E+03 0.29983437E+03 0.75000000E+00 0.0000E+00 0.9000E+01
        2 -1    0    0  502    0 0.00000000E+00 0.00000000E+00 -.86270917E+03 0.86270923E+03 0.32000000E+00 0.0000E+00 0.9000E+01
       25  1    1    2    0    0 0.72157307E+02 0.14562315E+03 -.30664276E+03 0.36887337E+03 0.12500000E+03 0.0000E+00 0.9000E+01
       24  1    1    2    0    0 -.24826162E+02 -.73383748E+02 -.28518749E+03 0.30626889E+03 0.80419002E+02 0.0000E+00 0.9000E+01
        1  1    1    2  501    0 0.11357764E+02 -.10362160E+02 -.22190670E+03 0.22243889E+03 0.32000000E+00 0.0000E+00 0.9000E+01
       21  1    1    2  502  503 -.58688909E+02 -.61877242E+02 0.25086123E+03 0.26496245E+03 0.75000000E+00 0.0000E+00 0.9000E+01
#aMCatNLO 2  0  0  1  5 0.94702086D+03 0.00000000D+00  -5  6  0 0.00000000D+00 0.00000000D+00 0.00000000D+00 0.00000000D+00 0.00000000D+00
  <mgrwgt>
 0.4523759516D+00    1    2    0
 0.184533810010242D+03 0.000000000000000D+00 0.000000000000000D+00 0.184533810010242D+03
 0.184533810010242D+03 0.000000000000000D+00 0.000000000000000D+00 -.184533810010242D+03
 0.185119846663135D+03 0.407313359229254D+02 0.112490146382245D+03 0.658124826261514D+02
 0.132310008745766D+03 -.440832908598576D+02 -.936868848761793D+02 -.178368587227922D+02
 0.516377646115835D+02 0.335195493693220D+01 -.188032615060660D+02 -.479756239033593D+02
 0.000000000000000D+00 -.000000000000000D+00 -.000000000000000D+00 0.000000000000000D+00
 0.135459474608303D+04 0.000000000000000D+00 0.000000000000000D+00 0.135459474608303D+04
 0.190956971429921D+03 0.000000000000000D+00 0.000000000000000D+00 -.190956971429921D+03
 0.215334924404434D+03 0.721573195259902D+02 0.145623377373517D+03 0.658124826261514D+02
 0.113079035683840D+03 -.248262045575561D+02 -.733836384692542D+02 -.178368587227922D+02
 0.503789770187838D+02 0.113577940012721D+02 -.103624973808072D+02 -.479756239033593D+02
 0.116675878040589D+04 -.586889089697063D+02 -.618772415234560D+02 0.116363777465311D+04
0.120562101328D-02 0.000000000000D+00 0.000000000000D+00 0.101972629556D-06 0.945621878518D-08  6 21 2 25 24 1 21 4 0.46128269D-01 0.13272448D+00 0.43545748D+05 0.43545748D+05 0.43545748D+05 0.11982725D+01  1  2  1  1  6  1       21 0.452375951597D+00 0.100000000000D+01
  </mgrwgt>
  </event>
  <event>
  6     66 0.46027262E-03 0.19189943E+03 0.75467711E-02 0.11004056E+00
       21 -1    0    0  501  502 0.00000000E+00 0.00000000E+00 0.44065847E+02 0.44072229E+02 0.75000000E+00 0.0000E+00 0.9000E+01
        2 -1    0    0  502    0 -.00000000E+00 -.00000000E+00 -.19171089E+04 0.19171089E+04 0.32000000E+00 0.0000E+00 0.9000E+01
       25  1    1    2    0    0 -.11301399E+03 -.12265828E+03 -.87618781E+03 0.90063716E+03 0.12500000E+03 0.0000E+00 0.9000E+01
       24  1    1    2    0    0 -.73243692E+02 0.43908161E+02 -.51978734E+03 0.53285895E+03 0.80419002E+02 0.0000E+00 0.9000E+01
        1  1    1    2  503    0 0.17743475E+03 0.93192132E+02 -.46646954E+03 0.50770247E+03 0.32000000E+00 0.0000E+00 0.9000E+01
       21  1    1    2  501  503 0.88229294E+01 -.14442016E+02 -.10598379E+02 0.19982593E+02 0.75000000E+00 0.0000E+00 0.9000E+01
#aMCatNLO 2  0  0  5  1 0.30242155D+02 0.00000000D+00  -5  6  0 0.00000000D+00 0.00000000D+00 0.00000000D+00 0.00000000D+00 0.00000000D+00
  <mgrwgt>
 0.1632581937D-01    2    2    0
 0.290663573446514D+03 0.000000000000000D+00 0.000000000000000D+00 0.290663573446514D+03
 0.290663573446514D+03 -.000000000000000D+00 -.000000000000000D+00 -.290663573446514D+03
 0.221518208558089D+03 -.119910409964182D+03 -.125574097774984D+03 -.574278353501636D+02
 0.125284984444277D+03 -.771618642280186D+02 0.422515497105602D+02 -.386000599577902D+02
 0.234523953890662D+03 0.197072274192201D+03 0.833225480644235D+02 0.960278953079537D+02
 0.000000000000000D+00 0.000000000000000D+00 0.000000000000000D+00 0.000000000000000D+00
 0.290663573446514D+03 0.000000000000000D+00 0.000000000000000D+00 0.290663573446514D+03
 0.290663573446514D+03 -.000000000000000D+00 -.000000000000000D+00 -.290663573446514D+03
 0.215312396760172D+03 -.112998115838341D+03 -.122651566120561D+03 -.540596646657032D+02
 0.122901115576880D+03 -.732346317941970D+02 0.439119913661334D+02 -.366864276797295D+02
 0.209767978558925D+03 0.177381679429701D+03 0.932165116091163D+02 0.620405238116481D+02
 0.333456559970519D+02 0.885106820283631D+01 -.144769368546891D+02 0.287055685337846D+02
-.769291153503D-05 0.000000000000D+00 0.000000000000D+00 0.190846189204D-06 0.000000000000D+00  6 21 2 25 24 1 21 4 0.67798541D-02 0.29494033D+00 0.73729939D+05 0.73729939D+05 0.73729939D+05 0.11759296D+01  1  2 13  3  6  5        1 -.244019304095D-01 0.100000000000D+01
0.128397618895D-04 0.000000000000D+00 0.000000000000D+00 0.190648429525D-06 0.992510952464D-08  6 21 2 25 24 1 21 4 0.67798541D-02 0.29494033D+00 0.73729939D+05 0.73729939D+05 0.73729939D+05 0.11759296D+01  1  2  1  3  6  5        1 0.407277497830D-01 0.100000000000D+01
  </mgrwgt>
  </event>
  <event>
  6     66 0.46027262E-03 0.34584335E+02 0.75467711E-02 0.11995333E+00
       21 -1    0    0  501  503 0.00000000E+00 0.00000000E+00 0.30088961E+02 0.30098307E+02 0.75000000E+00 0.0000E+00 0.9000E+01
        2 -1    0    0  502    0 0.00000000E+00 0.00000000E+00 -.12737876E+04 0.12737876E+04 0.32000000E+00 0.0000E+00 0.9000E+01
       25  1    1    2    0    0 -.49755822E+02 -.61168536E+02 -.60893115E+03 0.62660943E+03 0.12500000E+03 0.0000E+00 0.9000E+01
       24  1    1    2    0    0 0.37557773E+02 0.16178032E+02 -.44835180E+03 0.45733890E+03 0.80419002E+02 0.0000E+00 0.9000E+01
        1  1    1    2  501    0 0.19245939E+02 0.13247536E+01 -.17248210E+03 0.17355788E+03 0.32000000E+00 0.0000E+00 0.9000E+01
       21  1    1    2  502  503 -.70478901E+01 0.43665750E+02 -.13933555E+02 0.46379704E+02 0.75000000E+00 0.0000E+00 0.9000E+01
#aMCatNLO 2  0  0  1  1 0.24158239D+02 0.00000000D+00  -5  6  0 0.00000000D+00 0.00000000D+00 0.00000000D+00 0.00000000D+00 0.00000000D+00
  <mgrwgt>
 0.2799374262D+00    1    2    0
 0.129463718032449D+03 0.000000000000000D+00 0.000000000000000D+00 0.129463718032449D+03
 0.129463718032449D+03 0.000000000000000D+00 0.000000000000000D+00 -.129463718032449D+03
 0.142135728352525D+03 -.536897465420477D+02 -.368017864366426D+02 0.184554844321436D+02
 0.933882101682302D+02 0.350741683440515D+02 0.315613289599825D+02 -.527513727858318D+01
 0.234034975441442D+02 0.186155781979962D+02 0.524045747666010D+01 -.131803471535604D+02
 0.000000000000000D+00 -.000000000000000D+00 0.000000000000000D+00 0.000000000000000D+00
 0.284951777823502D+03 0.000000000000000D+00 0.000000000000000D+00 0.284951777823502D+03
 0.134522986316947D+03 0.000000000000000D+00 0.000000000000000D+00 -.134522986316947D+03
 0.148939497386883D+03 -.497567626482196D+02 -.611688936225028D+02 0.184554844321436D+02
 0.903731498935472D+02 0.375571363383045D+02 0.161779079014910D+02 -.527513727858318D+01
 0.233654592741740D+02 0.192475163968942D+02 0.132523528326361D+01 -.131803471535604D+02
 0.156796657585844D+03 -.704789008697914D+01 0.436657504377482D+02 0.150428791506555D+03
0.172444440319D-04 0.000000000000D+00 0.000000000000D+00 0.502447809394D-06 0.871696501677D-08  6 21 2 25 24 1 21 4 0.46297628D-02 0.19596676D+00 0.22730789D+05 0.22730789D+05 0.22730789D+05 0.12277532D+01  1  2  1  1  6  1       21 0.279937426230D+00 0.100000000000D+01
  </mgrwgt>
  </event>
  <event>
  6     66 0.46027262E-03 0.30710228E+02 0.75467711E-02 0.12175567E+00
       -2 -1    0    0    0  502 0.00000000E+00 0.00000000E+00 0.95799368E+03 0.95799374E+03 0.32000000E+00 0.0000E+00 0.9000E+01
        4 -1    0    0  502    0 0.00000000E+00 0.00000000E+00 -.17798226E+03 0.17798901E+03 0.15500000E+01 0.0000E+00 0.9000E+01
       25  1    1    2    0    0 -.27389632E+02 -.59872586E+02 -.20677078E+02 0.14278466E+03 0.12500000E+03 0.0000E+00 0.9000E+01
       24  1    1    2    0    0 0.54857098E+01 0.42174230E+02 -.73650472E+02 0.11704857E+03 0.80419002E+02 0.0000E+00 0.9000E+01
        3  1    1    2  501    0 -.19822066E+01 -.69530162E+01 0.22912729E+02 0.24031578E+02 0.50000000E+00 0.0000E+00 0.9000E+01
       -2  1    1    2    0  501 0.23886129E+02 0.24651372E+02 0.85142624E+03 0.85211794E+03 0.32000000E+00 0.0000E+00 0.9000E+01
#aMCatNLO 2  0  0  1  5 0.11564530D+03 0.00000000D+00  -5  6  0 0.00000000D+00 0.00000000D+00 0.00000000D+00 0.00000000D+00 0.00000000D+00
  <mgrwgt>
 0.2701263197D-02    1    2    0
 0.136290970423666D+03 0.000000000000000D+00 0.000000000000000D+00 0.136290970423666D+03
 0.136290970423666D+03 0.000000000000000D+00 0.000000000000000D+00 -.136290970423666D+03
 0.135462484668667D+03 -.152738156385342D+02 -.473682796772058D+02 0.157493297911644D+02
 0.106893117562605D+03 0.145931965036214D+02 0.515737579546719D+02 -.456739393322045D+02
 0.302263386160607D+02 0.680619134912851D+00 -.420547827746607D+01 0.299246095410402D+02
 0.000000000000000D+00 0.000000000000000D+00 0.000000000000000D+00 0.000000000000000D+00
 0.123885624019289D+04 0.000000000000000D+00 0.000000000000000D+00 0.123885624019289D+04
 0.137634765952608D+03 0.000000000000000D+00 0.000000000000000D+00 -.137634765952608D+03
 0.142154573707097D+03 -.273896485613164D+02 -.598722689453401D+02 0.157493297911644D+02
 0.101794377642214D+03 0.548560477360179D+01 0.421743852514898D+02 -.456739393322045D+02
 0.307857420743444D+02 -.198208531214494D+01 -.695348809589287D+01 0.299246095410402D+02
 0.110175631272184D+04 0.238861290998595D+02 0.246513717897432D+02 0.110122147424028D+04
0.801754195649D-03 0.000000000000D+00 0.000000000000D+00 0.408582605339D-04 0.136027250628D-05  6 -2 4 25 24 3 -2 4 0.14738414D+00 0.27382405D-01 0.18742681D+05 0.18742681D+05 0.18742681D+05 0.12369426D+01  1  2  1  8  6  1       21 0.270126319681D-02 0.100000000000D+01
  </mgrwgt>
  </event>
  <event>
  6     66 -.46027262E-03 0.36212356E+02 0.75467711E-02 0.11991574E+00
       21 -1    0    0  501  502 0.00000000E+00 0.00000000E+00 0.14480101E+02 0.14499511E+02 0.75000000E+00 0.0000E+00 0.9000E+01
        2 -1    0    0  503    0 0.00000000E+00 0.00000000E+00 -.20180974E+04 0.20180974E+04 0.32000000E+00 0.0000E+00 0.9000E+01
       25  1    1    2    0    0 0.65005719E+02 0.62491236E+01 -.13361542E+04 0.13435765E+04 0.12500000E+03 0.0000E+00 0.9000E+01
       24  1    1    2    0    0 -.60591981E+02 -.53251691E+02 -.36978508E+03 0.38693068E+03 0.80419002E+02 0.0000E+00 0.9000E+01
        1  1    1    2  501    0 -.34929673E+01 0.39725544E+02 -.18898740E+03 0.19314932E+03 0.32000000E+00 0.0000E+00 0.9000E+01
       21  1    1    2  503  502 -.92077146E+00 0.72770231E+01 -.10869060E+03 0.10894040E+03 0.75000000E+00 0.0000E+00 0.9000E+01
#aMCatNLO 2  0  0  2  1 0.73350451D+01 0.00000000D+00  -5  6  0 0.00000000D+00 0.00000000D+00 0.00000000D+00 0.00000000D+00 0.00000000D+00
  <mgrwgt>
 -.3219952022D+00    3    2    0
 0.165569810422400D+03 0.000000000000000D+00 0.000000000000000D+00 0.165569810422400D+03
 0.165569810422400D+03 0.000000000000000D+00 0.000000000000000D+00 -.165569810422400D+03
 0.158999678176206D+03 0.645637024908348D+02 0.974229009046676D+01 -.734337372370849D+02
 0.130683328442226D+03 -.609566210027177D+02 -.503700153529735D+02 0.660156669862573D+02
 0.414566142263675D+02 -.360708148811713D+01 0.406277252625067D+02 0.741807025082764D+01
 0.000000000000000D+00 -.000000000000000D+00 0.000000000000000D+00 -.000000000000000D+00
 0.167037543175924D+03 0.000000000000000D+00 0.000000000000000D+00 0.167037543175924D+03
 0.175035517415543D+03 0.000000000000000D+00 0.000000000000000D+00 -.175035517415543D+03
 0.159004114162748D+03 0.650057711677632D+02 0.624854150658297D+01 -.734337372370849D+02
 0.131652804481020D+03 -.605919379706729D+02 -.532521712108043D+02 0.660156669862573D+02
 0.405639312119628D+02 -.349306173465387D+01 0.397266065608495D+02 0.741807025082764D+01
 0.108522107357358D+02 -.920771462436398D+00 0.727702314337182D+01 -.799797423961929D+01
-.185522465299D-04 0.000000000000D+00 0.000000000000D+00 0.273240194500D-06 0.000000000000D+00  6 21 2 25 24 1 21 4 0.22094451D-02 0.31171023D+00 0.22823852D+05 0.22823852D+05 0.22823852D+05 0.12275609D+01  1  2 13  2  6  2        2 -.414316690232D+00 0.100000000000D+01
-.170658089012D-05 0.000000000000D+00 0.000000000000D+00 0.274305435267D-06 0.000000000000D+00  6 21 2 25 24 1 21 4 0.22094451D-02 0.29366513D+00 0.21696845D+05 0.21696845D+05 0.21696845D+05 0.12299514D+01  1  2  8  2  6  2        2 -.441419517924D-01 0.100000000000D+01
0.613918099800D-05 0.000000000000D+00 0.000000000000D+00 0.274305435267D-06 0.442380064546D-07  6 21 2 25 24 1 21 4 0.22290312D-02 0.31045411D+00 0.22823852D+05 0.22823852D+05 0.22823852D+05 0.12275609D+01  1  2  1  2  6  2        2 0.136463439848D+00 0.100000000000D+01
  </mgrwgt>
  </event>
  <event>
  5     66 -.46027262E-03 0.22559398E+02 0.75467711E-02 0.12480553E+00
       21 -1    0    0  501  502 0.00000000E+00 0.00000000E+00 0.67798875E+01 0.68212443E+01 0.75000000E+00 0.0000E+00 0.9000E+01
        2 -1    0    0  502    0 -.00000000E+00 -.00000000E+00 -.22839171E+04 0.22839171E+04 0.32000000E+00 0.0000E+00 0.9000E+01
       25  1    1    2    0    0 0.25550403E+02 -.13073923E+00 -.13507223E+04 0.13567345E+04 0.12500000E+03 0.0000E+00 0.9000E+01
       24  1    1    2    0    0 -.14251642E+02 -.19394366E+02 -.85497994E+03 0.85909090E+03 0.80419002E+02 0.0000E+00 0.9000E+01
        1  1    1    2  501    0 -.11298761E+02 0.19525105E+02 -.71434934E+02 0.74912909E+02 0.32000000E+00 0.0000E+00 0.9000E+01
#aMCatNLO 1  0  0  5  1 0.64939442D+01 0.00000000D+00  -5  6  0 0.00000000D+00 0.00000000D+00 0.00000000D+00 0.00000000D+00 0.00000000D+00
  <mgrwgt>
 -.2389786399D+01    7    2    0
 0.124627825900405D+03 0.000000000000000D+00 0.000000000000000D+00 0.124627825900405D+03
 0.124627825900405D+03 -.000000000000000D+00 -.000000000000000D+00 -.124627825900405D+03
 0.128959361645867D+03 0.255506360817585D+02 -.131141421171511D+00 -.187793704328634D+02
 0.844348086486182D+02 -.142514898491489D+02 -.193946292238729D+02 -.909749149526026D+01
 0.358614815063244D+02 -.112991462326095D+02 0.195257706450444D+02 0.278768619281237D+02
 0.000000000000000D+00 0.000000000000000D+00 0.000000000000000D+00 0.000000000000000D+00
 0.124627825900405D+03 0.000000000000000D+00 0.000000000000000D+00 0.124627825900405D+03
 0.124627825900405D+03 -.000000000000000D+00 -.000000000000000D+00 -.124627825900405D+03
 0.128743852599465D+03 0.251545874823464D+02 0.553260210351220D+00 -.178022530564395D+02
 0.843106235613341D+02 -.145108245737066D+02 -.189464794037215D+02 -.845766985202866D+01
 0.191519626416829D+02 -.604835993262909D+01 0.150486134881088D+02 0.101859828803751D+02
 0.170492129983272D+02 -.459540297601066D+01 0.334460570526141D+01 0.160739400280931D+02
0.871431758512D-05 0.000000000000D+00 0.000000000000D+00 0.222353061792D-05 0.000000000000D+00  6 21 2 25 24 1 21 2 0.10462426D-02 0.35137504D+00 0.13699222D+05 0.13699222D+05 0.13699222D+05 0.12523388D+01  1  2  2  3  6  5        1 0.327868429376D+00 0.100000000000D+01
0.639340369329D-06 0.459867173104D-06 -.175916964982D-07 0.222353061792D-05 0.000000000000D+00  6 21 2 25 24 1 21 4 0.10462426D-02 0.35137504D+00 0.13699222D+05 0.13699222D+05 0.13699222D+05 0.12523388D+01  1  2  3  3  6  5        1 0.377261098091D-01 0.100000000000D+01
0.766593471583D-06 0.000000000000D+00 0.000000000000D+00 0.222353061792D-05 0.000000000000D+00  6 21 2 25 24 1 21 4 0.10462426D-02 0.35137504D+00 0.13699222D+05 0.13699222D+05 0.13699222D+05 0.12523388D+01  1  2 15  3  6  5        1 0.452350436095D-01 0.100000000000D+01
0.789899361889D-05 0.000000000000D+00 0.000000000000D+00 0.222473733816D-05 0.000000000000D+00  6 21 2 25 24 1 21 4 0.10462426D-02 0.35137504D+00 0.13606606D+05 0.13606606D+05 0.13606606D+05 0.12526786D+01  1  2 12  3  6  5        1 0.466608762203D+00 0.100000000000D+01
-.640593724024D-04 0.000000000000D+00 0.000000000000D+00 0.222353061792D-05 0.000000000000D+00  6 21 2 25 24 1 21 4 0.10462426D-02 0.35137504D+00 0.13699222D+05 0.13699222D+05 0.13699222D+05 0.12523388D+01  1  2  4  3  6  5        1 -.378000675930D+01 0.100000000000D+01
-.886393717949D-05 0.000000000000D+00 0.000000000000D+00 0.222353061792D-05 0.000000000000D+00  6 21 2 25 24 1 21 4 0.10462426D-02 0.35137504D+00 0.13699222D+05 0.13699222D+05 0.13699222D+05 0.12523388D+01  1  2  5  3  6  5        1 -.523042003002D+00 0.100000000000D+01
0.175539994317D-04 0.000000000000D+00 -.000000000000D+00 0.222353061792D-05 0.000000000000D+00  6 21 2 25 24 1 21 4 0.10462426D-02 0.35137504D+00 0.13699222D+05 0.13699222D+05 0.13699222D+05 0.12523388D+01  1  2  6  3  6  5        1 0.103582401788D+01 0.100000000000D+01
  </mgrwgt>
  </event>
  <event>
  6     66 -.46027262E-03 0.25006730E+02 0.75467711E-02 0.12372923E+00
       21 -1    0    0  503  502 0.00000000E+00 0.00000000E+00 0.18467643E+02 0.18482866E+02 0.75000000E+00 0.0000E+00 0.9000E+01
        2 -1    0    0  502    0 0.00000000E+00 0.00000000E+00 -.12086852E+04 0.12086852E+04 0.32000000E+00 0.0000E+00 0.9000E+01
       25  1    1    2    0    0 -.26774910E+02 0.77916047E-01 -.70384511E+03 0.71535994E+03 0.12500000E+03 0.0000E+00 0.9000E+01
       24  1    1    2    0    0 0.33928648E+01 0.83324218E+01 -.45259973E+03 0.45977676E+03 0.80419002E+02 0.0000E+00 0.9000E+01
        1  1    1    2  501    0 0.29421582E+02 -.18156543E+01 -.30660087E+02 0.42533157E+02 0.32000000E+00 0.0000E+00 0.9000E+01
       21  1    1    2  503  501 -.60395373E+01 -.65946835E+01 -.31126371E+01 0.94982562E+01 0.75000000E+00 0.0000E+00 0.9000E+01
#aMCatNLO 2  0  0  1  2 0.89423633D+01 0.00000000D+00  -5  6  0 0.00000000D+00 0.00000000D+00 0.00000000D+00 0.00000000D+00 0.00000000D+00
  <mgrwgt>
 -.2027577123D+00    3    2    0
 0.135482295950651D+03 0.000000000000000D+00 0.000000000000000D+00 0.135482295950651D+03
 0.135482295950651D+03 0.000000000000000D+00 0.000000000000000D+00 -.135482295950651D+03
 0.131734801161858D+03 -.297031471504074D+02 -.311921375478752D+01 -.289318404542046D+02
 0.830274942011300D+02 0.154003073715286D+01 0.630944624962763D+01 -.196002049045365D+02
 0.562022965383138D+02 0.281631164132545D+02 -.319023249484011D+01 0.485320453587411D+02
 0.000000000000000D+00 -.000000000000000D+00 -.000000000000000D+00 0.000000000000000D+00
 0.163870600117357D+03 0.000000000000000D+00 0.000000000000000D+00 0.163870600117357D+03
 0.136262104078789D+03 0.000000000000000D+00 0.000000000000000D+00 -.136262104078789D+03
 0.131068550679970D+03 -.267751285702497D+02 0.779443829262054D-01 -.289318404542046D+02
 0.832605796086687D+02 0.339272617030232D+01 0.833243897274069D+01 -.196002049045365D+02
 0.567829792275305D+02 0.294219397288937D+02 -.181569982117006D+01 0.485320453587411D+02
 0.290205946799776D+02 -.603953732894639D+01 -.659468353449684D+01 0.276084960385684D+02
-.865410724231D-05 0.000000000000D+00 0.000000000000D+00 0.224831515781D-05 0.000000000000D+00  6 21 2 25 24 1 21 4 0.28480898D-02 0.18488202D+00 0.15274049D+05 0.15274049D+05 0.15274049D+05 0.12469271D+01  1  2 13  1  6  1       21 -.365611813302D+00 0.100000000000D+01
-.589513234942D-05 0.000000000000D+00 0.000000000000D+00 0.224831515781D-05 0.000000000000D+00  6 21 2 25 24 1 21 4 0.30818603D-02 0.18488202D+00 0.15274049D+05 0.15274049D+05 0.15274049D+05 0.12469271D+01  1  2 13  1  6  1       21 -.218872884502D+00 0.100000000000D+01
0.908455265219D-05 0.000000000000D+00 0.000000000000D+00 0.226257164753D-05 0.413957137464D-06  6 21 2 25 24 1 21 4 0.28422495D-02 0.18594617D+00 0.15274049D+05 0.15274049D+05 0.15274049D+05 0.12469271D+01  1  2  1  1  6  1       21 0.381726985463D+00 0.100000000000D+01
  </mgrwgt>
  </event>
  <event>
  6     66 0.46027262E-03 0.62138504E+02 0.75467711E-02 0.11529321E+00
       -3 -1    0    0    0  502 0.00000000E+00 0.00000000E+00 0.95901972E+02 0.95903276E+02 0.50000000E+00 0.0000E+00 0.9000E+01
        2 -1    0    0  502    0 0.00000000E+00 0.00000000E+00 -.64564368E+03 0.64564376E+03 0.32000000E+00 0.0000E+00 0.9000E+01
       25  1    1    2    0    0 0.38429235E+02 0.13761791E+02 -.29119780E+03 0.31951111E+03 0.12500000E+03 0.0000E+00 0.9000E+01
       24  1    1    2    0    0 0.43410493E+02 0.30597333E+02 -.21000620E+03 0.23106382E+03 0.80419002E+02 0.0000E+00 0.9000E+01
        1  1    1    2  501    0 -.93528995E+02 0.22976970E+02 0.15219244E+02 0.97505599E+02 0.32000000E+00 0.0000E+00 0.9000E+01
       -3  1    1    2    0  501 0.11689267E+02 -.67336094E+02 -.63756952E+02 0.93466505E+02 0.50000000E+00 0.0000E+00 0.9000E+01
#aMCatNLO 2  0  0  1  2 0.68343168D+02 0.00000000D+00  -5  6  0 0.00000000D+00 0.00000000D+00 0.00000000D+00 0.00000000D+00 0.00000000D+00
  <mgrwgt>
 0.9608973523D-04    2    2    0
 0.211634355621742D+03 0.000000000000000D+00 0.000000000000000D+00 0.211634355621742D+03
 0.211634355621742D+03 0.000000000000000D+00 0.000000000000000D+00 -.211634355621742D+03
 0.153741136440217D+03 0.426361046815839D+02 -.104715346648865D+02 -.779990164891354D+02
 0.108997672292162D+03 0.464318904687602D+02 0.131928189067884D+02 -.555275218925593D+02
 0.160529902511106D+03 -.890679951503441D+02 -.272128424190183D+01 0.133526538381695D+03
 0.000000000000000D+00 0.000000000000000D+00 -.000000000000000D+00 0.000000000000000D+00
 0.253666002839064D+03 0.000000000000000D+00 0.000000000000000D+00 0.253666002839064D+03
 0.244094842462367D+03 0.000000000000000D+00 0.000000000000000D+00 -.244094842462367D+03
 0.152888994800644D+03 0.384292976284336D+02 0.137618037213166D+02 -.779990164891354D+02
 0.111225868380275D+03 0.434105372168099D+02 0.305973432440618D+02 -.555275218925593D+02
 0.164635869174779D+03 -.935291016183733D+02 0.229769475169504D+02 0.133526538381695D+03
 0.690101129457341D+02 0.116892667731298D+02 -.673360944823288D+02 0.957116037669774D+01
-.420223260039D-06 0.000000000000D+00 0.000000000000D+00 0.111824600908D-05 0.000000000000D+00  6 -3 2 25 24 1 -3 4 0.15536752D-01 0.86120391D-01 0.38518566D+05 0.38518566D+05 0.38518566D+05 0.12036682D+01  1  2 13  8  6  1       21 -.104345348405D-03 0.100000000000D+01
0.870672527407D-06 0.000000000000D+00 0.000000000000D+00 0.115548355229D-05 0.161662571148D-09  6 -3 2 25 24 1 -3 4 0.14754202D-01 0.99329541D-01 0.38518566D+05 0.38518566D+05 0.38518566D+05 0.12036682D+01  1  2  1  8  6  1       21 0.200435083634D-03 0.100000000000D+01
  </mgrwgt>
  </event>
  <event>
  5     66 0.46027262E-03 0.66461143E+02 0.75467711E-02 0.11899245E+00
       21 -1    0    0  501  502 0.00000000E+00 0.00000000E+00 0.11815899E+03 0.11816137E+03 0.75000000E+00 0.0000E+00 0.9000E+01
        2 -1    0    0  502    0 0.00000000E+00 0.00000000E+00 -.21134751E+03 0.21134775E+03 0.32000000E+00 0.0000E+00 0.9000E+01
       25  1    1    2    0    0 0.42227839E+02 -.14547065E+02 -.29120249E+02 0.13589627E+03 0.12500000E+03 0.0000E+00 0.9000E+01
       24  1    1    2    0    0 0.32150492E+02 0.53335031E+01 -.78821712E+02 0.11722704E+03 0.80419002E+02 0.0000E+00 0.9000E+01
        1  1    1    2  501    0 -.74378330E+02 0.92135617E+01 0.14753446E+02 0.76385812E+02 0.32000000E+00 0.0000E+00 0.9000E+01
#aMCatNLO 1  0  0  1  2 0.22382408D+02 0.00000000D+00  -5  6  0 0.00000000D+00 0.00000000D+00 0.00000000D+00 0.00000000D+00 0.00000000D+00
  <mgrwgt>
 0.1208866406D+00   32    2    0
 0.158028606549178D+03 0.000000000000000D+00 0.000000000000000D+00 0.158028606549178D+03
 0.158028606549178D+03 0.000000000000000D+00 0.000000000000000D+00 -.158028606549178D+03
 0.133094285971459D+03 0.422280661196362D+02 -.145470929283921D+02 0.970883501666636D+01
 0.989761634765275D+02 0.321506605841282D+02 0.533348214517017D+01 -.476125400957889D+02
 0.839867636503698D+02 -.743787267037644D+02 0.921361078322188D+01 0.379037050791225D+02
 0.000000000000000D+00 0.000000000000000D+00 0.000000000000000D+00 0.000000000000000D+00
 0.197720988811448D+03 0.000000000000000D+00 0.000000000000000D+00 0.197720988811448D+03
 0.161611498928834D+03 0.000000000000000D+00 0.000000000000000D+00 -.161611498928834D+03
 0.131599878555103D+03 0.346255625379650D+02 -.200084226581320D+02 0.970883501666636D+01
 0.971545144681732D+02 0.265174265299617D+02 0.128679564458449D+01 -.476125400957889D+02
 0.880943629429806D+02 -.793212133792978D+02 0.566312913859501D+01 0.379037050791225D+02
 0.424837317740250D+02 0.181782243113711D+02 0.130584978749525D+02 0.361094898826145D+02
0.254488116299D-05 0.000000000000D+00 0.000000000000D+00 0.429087101516D-06 0.000000000000D+00  6 21 2 25 24 1 21 2 0.18178508D-01 0.32515203D-01 0.21676468D+05 0.21676468D+05 0.21676468D+05 0.12299959D+01  1  2  2  1  6  1       21 0.209447494248D-01 0.100000000000D+01
-.126653919736D-06 0.134297068575D-06 -.513738185532D-08 0.429087101516D-06 0.000000000000D+00  6 21 2 25 24 1 21 4 0.18178508D-01 0.32515203D-01 0.21676468D+05 0.21676468D+05 0.21676468D+05 0.12299959D+01  1  2  3  1  6  1       21 -.157700696556D-02 0.100000000000D+01
0.277918901403D-06 0.000000000000D+00 0.000000000000D+00 0.429087101516D-06 0.000000000000D+00  6 21 2 25 24 1 21 4 0.18178508D-01 0.32515203D-01 0.21676468D+05 0.21676468D+05 0.21676468D+05 0.12299959D+01  1  2 15  1  6  1       21 0.346045384374D-02 0.100000000000D+01
0.117349019472D-04 0.000000000000D+00 0.000000000000D+00 0.424099154792D-06 0.000000000000D+00  6 21 2 25 24 1 21 4 0.22914705D-01 0.32515203D-01 0.25254726D+05 0.25254726D+05 0.25254726D+05 0.12228259D+01  1  2 12  1  6  1       21 0.928443325061D-01 0.100000000000D+01
0.930775030011D-05 0.000000000000D+00 0.000000000000D+00 0.424099154792D-06 0.000000000000D+00  6 21 2 25 24 1 21 4 0.24164498D-01 0.32515203D-01 0.25254726D+05 0.25254726D+05 0.25254726D+05 0.12228259D+01  1  2 12  1  6  1       21 0.666144095602D-01 0.100000000000D+01
-.135811819187D-04 0.000000000000D+00 0.000000000000D+00 0.429087101516D-06 0.000000000000D+00  6 21 2 25 24 1 21 4 0.18178508D-01 0.32515203D-01 0.21676468D+05 0.21676468D+05 0.21676468D+05 0.12299959D+01  1  2  4  1  6  1       21 -.169103479237D+00 0.100000000000D+01
-.312072369938D-04 0.000000000000D+00 -.414457916096D-05 0.429087101516D-06 0.000000000000D+00  6 21 2 25 24 1 21 4 0.23162988D-01 0.32515203D-01 0.21676468D+05 0.21676468D+05 0.21676468D+05 0.12299959D+01  1  2  5  1  6  1       21 -.247594446477D+00 0.100000000000D+01
0.287397587471D-04 0.000000000000D+00 0.369559730126D-05 0.429087101516D-06 0.000000000000D+00  6 21 2 25 24 1 21 4 0.18178508D-01 0.32515203D-01 0.21676468D+05 0.21676468D+05 0.21676468D+05 0.12299959D+01  1  2  6  1  6  1       21 0.357847588351D+00 0.100000000000D+01
0.804089676292D-06 0.000000000000D+00 0.000000000000D+00 0.424099154792D-06 0.000000000000D+00  6 -1 2 25 24 1 -1 4 0.22914705D-01 0.32515203D-01 0.25254726D+05 0.25254726D+05 0.25254726D+05 0.12228259D+01  1  2 12  4  6  1       21 0.516707770120D-03 0.100000000000D+01
0.821455299023D-06 0.000000000000D+00 0.000000000000D+00 0.424099154792D-06 0.000000000000D+00  6 -1 2 25 24 1 -1 4 0.24164498D-01 0.32515203D-01 0.25254726D+05 0.25254726D+05 0.25254726D+05 0.12228259D+01  1  2 12  4  6  1       21 0.483880298288D-03 0.100000000000D+01
-.207639011638D-05 0.000000000000D+00 -.300212890703D-06 0.429087101516D-06 0.000000000000D+00  6 -1 2 25 24 1 -1 4 0.23162988D-01 0.32515203D-01 0.21676468D+05 0.21676468D+05 0.21676468D+05 0.12299959D+01  1  2  5  4  6  1       21 -.133780270867D-02 0.100000000000D+01
0.804089676292D-06 0.000000000000D+00 0.000000000000D+00 0.424099154792D-06 0.000000000000D+00  6 1 2 25 24 1 1 4 0.22914705D-01 0.32515203D-01 0.25254726D+05 0.25254726D+05 0.25254726D+05 0.12228259D+01  1  2 12  5  6  1       21 0.815044089749D-03 0.100000000000D+01
0.821455299023D-06 0.000000000000D+00 0.000000000000D+00 0.424099154792D-06 0.000000000000D+00  6 1 2 25 24 1 1 4 0.24164498D-01 0.32515203D-01 0.25254726D+05 0.25254726D+05 0.25254726D+05 0.12228259D+01  1  2 12  5  6  1       21 0.778547590718D-03 0.100000000000D+01
-.207639011638D-05 0.000000000000D+00 -.300212890703D-06 0.429087101516D-06 0.000000000000D+00  6 1 2 25 24 1 1 4 0.23162988D-01 0.32515203D-01 0.21676468D+05 0.21676468D+05 0.21676468D+05 0.12299959D+01  1  2  5  5  6  1       21 -.211875787734D-02 0.100000000000D+01
0.804089676292D-06 0.000000000000D+00 0.000000000000D+00 0.424099154792D-06 0.000000000000D+00  6 -2 2 25 24 1 -2 4 0.22914705D-01 0.32515203D-01 0.25254726D+05 0.25254726D+05 0.25254726D+05 0.12228259D+01  1  2 12  6  6  1       21 0.466824159530D-03 0.100000000000D+01
0.821455299023D-06 0.000000000000D+00 0.000000000000D+00 0.424099154792D-06 0.000000000000D+00  6 -2 2 25 24 1 -2 4 0.24164498D-01 0.32515203D-01 0.25254726D+05 0.25254726D+05 0.25254726D+05 0.12228259D+01  1  2 12  6  6  1       21 0.434887515550D-03 0.100000000000D+01
-.207639011638D-05 0.000000000000D+00 -.300212890703D-06 0.429087101516D-06 0.000000000000D+00  6 -2 2 25 24 1 -2 4 0.23162988D-01 0.32515203D-01 0.21676468D+05 0.21676468D+05 0.21676468D+05 0.12299959D+01  1  2  5  6  6  1       21 -.120716662202D-02 0.100000000000D+01
0.804089676292D-06 0.000000000000D+00 0.000000000000D+00 0.424099154792D-06 0.000000000000D+00  6 2 2 25 24 1 2 4 0.22914705D-01 0.32515203D-01 0.25254726D+05 0.25254726D+05 0.25254726D+05 0.12228259D+01  1  2 12  7  6  1       21 0.102714937340D-02 0.100000000000D+01
0.821455299023D-06 0.000000000000D+00 0.000000000000D+00 0.424099154792D-06 0.000000000000D+00  6 2 2 25 24 1 2 4 0.24164498D-01 0.32515203D-01 0.25254726D+05 0.25254726D+05 0.25254726D+05 0.12228259D+01  1  2 12  7  6  1       21 0.988985256841D-03 0.100000000000D+01
-.207639011638D-05 0.000000000000D+00 -.300212890703D-06 0.429087101516D-06 0.000000000000D+00  6 2 2 25 24 1 2 4 0.23162988D-01 0.32515203D-01 0.21676468D+05 0.21676468D+05 0.21676468D+05 0.12299959D+01  1  2  5  7  6  1       21 -.267378431947D-02 0.100000000000D+01
0.804089676292D-06 0.000000000000D+00 0.000000000000D+00 0.424099154792D-06 0.000000000000D+00  6 -3 2 25 24 1 -3 4 0.22914705D-01 0.32515203D-01 0.25254726D+05 0.25254726D+05 0.25254726D+05 0.12228259D+01  1  2 12  8  6  1       21 0.303464029768D-03 0.100000000000D+01
0.804089676292D-06 0.000000000000D+00 0.000000000000D+00 0.424099154792D-06 0.000000000000D+00  6 -4 2 25 24 1 -4 4 0.22914705D-01 0.32515203D-01 0.25254726D+05 0.25254726D+05 0.25254726D+05 0.12228259D+01  1  2 12  8  6  1       21 0.257980348975D-03 0.100000000000D+01
0.821455299023D-06 0.000000000000D+00 0.000000000000D+00 0.424099154792D-06 0.000000000000D+00  6 -3 2 25 24 1 -3 4 0.24164498D-01 0.32515203D-01 0.25254726D+05 0.25254726D+05 0.25254726D+05 0.12228259D+01  1  2 12  8  6  1       21 0.281759184764D-03 0.100000000000D+01
0.821455299023D-06 0.000000000000D+00 0.000000000000D+00 0.424099154792D-06 0.000000000000D+00  6 -4 2 25 24 1 -4 4 0.24164498D-01 0.32515203D-01 0.25254726D+05 0.25254726D+05 0.25254726D+05 0.12228259D+01  1  2 12  8  6  1       21 0.239032684948D-03 0.100000000000D+01
-.207639011638D-05 0.000000000000D+00 -.300212890703D-06 0.429087101516D-06 0.000000000000D+00  6 -3 2 25 24 1 -3 4 0.23162988D-01 0.32515203D-01 0.21676468D+05 0.21676468D+05 0.21676468D+05 0.12299959D+01  1  2  5  8  6  1       21 -.781496915952D-03 0.100000000000D+01
-.207639011638D-05 0.000000000000D+00 -.300212890703D-06 0.429087101516D-06 0.000000000000D+00  6 -4 2 25 24 1 -4 4 0.23162988D-01 0.32515203D-01 0.21676468D+05 0.21676468D+05 0.21676468D+05 0.12299959D+01  1  2  5  8  6  1       21 -.662984911957D-03 0.100000000000D+01
0.804089676292D-06 0.000000000000D+00 0.000000000000D+00 0.424099154792D-06 0.000000000000D+00  6 3 2 25 24 1 3 4 0.22914705D-01 0.32515203D-01 0.25254726D+05 0.25254726D+05 0.25254726D+05 0.12228259D+01  1  2 12  9  6  1       21 0.303444839818D-03 0.100000000000D+01
0.804089676292D-06 0.000000000000D+00 0.000000000000D+00 0.424099154792D-06 0.000000000000D+00  6 4 2 25 24 1 4 4 0.22914705D-01 0.32515203D-01 0.25254726D+05 0.25254726D+05 0.25254726D+05 0.12228259D+01  1  2 12  9  6  1       21 0.257980348975D-03 0.100000000000D+01
0.821455299023D-06 0.000000000000D+00 0.000000000000D+00 0.424099154792D-06 0.000000000000D+00  6 3 2 25 24 1 3 4 0.24164498D-01 0.32515203D-01 0.25254726D+05 0.25254726D+05 0.25254726D+05 0.12228259D+01  1  2 12  9  6  1       21 0.281745053034D-03 0.100000000000D+01
0.821455299023D-06 0.000000000000D+00 0.000000000000D+00 0.424099154792D-06 0.000000000000D+00  6 4 2 25 24 1 4 4 0.24164498D-01 0.32515203D-01 0.25254726D+05 0.25254726D+05 0.25254726D+05 0.12228259D+01  1  2 12  9  6  1       21 0.239032684948D-03 0.100000000000D+01
-.207639011638D-05 0.000000000000D+00 -.300212890703D-06 0.429087101516D-06 0.000000000000D+00  6 3 2 25 24 1 3 4 0.23162988D-01 0.32515203D-01 0.21676468D+05 0.21676468D+05 0.21676468D+05 0.12299959D+01  1  2  5  9  6  1       21 -.781447322492D-03 0.100000000000D+01
-.207639011638D-05 0.000000000000D+00 -.300212890703D-06 0.429087101516D-06 0.000000000000D+00  6 4 2 25 24 1 4 4 0.23162988D-01 0.32515203D-01 0.21676468D+05 0.21676468D+05 0.21676468D+05 0.12299959D+01  1  2  5  9  6  1       21 -.662984911957D-03 0.100000000000D+01
  </mgrwgt>
  </event>
  <event>
  5     66 0.46027262E-03 0.35419220E+02 0.75467711E-02 0.11609391E+00
       21 -1    0    0  501  502 0.00000000E+00 0.00000000E+00 0.21600449E+02 0.21613465E+02 0.75000000E+00 0.0000E+00 0.9000E+01
        2 -1    0    0  502    0 0.00000000E+00 0.00000000E+00 -.89406151E+03 0.89406156E+03 0.32000000E+00 0.0000E+00 0.9000E+01
       25  1    1    2    0    0 -.67402574E+02 0.12097870E+02 -.56511873E+03 0.58281528E+03 0.12500000E+03 0.0000E+00 0.9000E+01
       24  1    1    2    0    0 0.32631052E+02 -.53616134E+01 -.16902533E+03 0.19007975E+03 0.80419002E+02 0.0000E+00 0.9000E+01
        1  1    1    2  501    0 0.34771522E+02 -.67362566E+01 -.13831699E+03 0.14278000E+03 0.32000000E+00 0.0000E+00 0.9000E+01
#aMCatNLO 1  0  0  2  1 0.79251030D+02 0.00000000D+00  -5  6  0 0.00000000D+00 0.00000000D+00 0.00000000D+00 0.00000000D+00 0.00000000D+00
  <mgrwgt>
 0.3067791113D+00    3    2    0
 0.138989622818594D+03 0.000000000000000D+00 0.000000000000000D+00 0.138989622818594D+03
 0.138989622818594D+03 0.000000000000000D+00 0.000000000000000D+00 -.138989622818594D+03
 0.146145420884624D+03 -.674032884034302D+02 0.120980083203785D+02 -.323097346418689D+02
 0.956302553357295D+02 0.326305845292570D+02 -.536152283634105D+01 0.398048842148885D+02
 0.362035694168341D+02 0.347727038741732D+02 -.673648548403744D+01 -.749514957301963D+01
 0.000000000000000D+00 -.000000000000000D+00 0.000000000000000D+00 0.000000000000000D+00
 0.314088847437894D+03 0.000000000000000D+00 0.000000000000000D+00 0.314088847437894D+03
 0.159593730110089D+03 0.000000000000000D+00 0.000000000000000D+00 -.159593730110089D+03
 0.132409878841913D+03 -.276351204535803D+02 -.998785161174871D+01 -.323097346418689D+02
 0.111316482115879D+03 0.621754993800191D+02 -.217697428962500D+02 0.398048842148885D+02
 0.494857151938263D+02 0.470062024478662D+02 -.135305459074189D+02 -.749514957301963D+01
 0.180470501396364D+03 -.815465813743051D+02 0.452881404154176D+02 0.154495117327805D+03
0.864068243897D-05 0.000000000000D+00 0.000000000000D+00 0.393652250647D-06 0.000000000000D+00  6 21 2 25 24 1 21 2 0.33241516D-02 0.13754893D+00 0.17543105D+05 0.17543105D+05 0.17543105D+05 0.12401425D+01  1  2  2  2  6  2        2 0.273353547007D+00 0.100000000000D+01
-.242295629271D-06 0.455981339684D-06 -.174430483533D-07 0.393652250647D-06 0.000000000000D+00  6 21 2 25 24 1 21 4 0.33241516D-02 0.13754893D+00 0.17543105D+05 0.17543105D+05 0.17543105D+05 0.12401425D+01  1  2  3  2  6  2        2 -.117886866063D-01 0.100000000000D+01
0.929299060000D-06 0.000000000000D+00 0.000000000000D+00 0.393652250647D-06 0.000000000000D+00  6 21 2 25 24 1 21 4 0.33241516D-02 0.13754893D+00 0.17543105D+05 0.17543105D+05 0.17543105D+05 0.12401425D+01  1  2 15  2  6  2        2 0.452142509330D-01 0.100000000000D+01
  </mgrwgt>
  </event>
  <event>
  5     66 -.46027262E-03 0.22383831E+02 0.75467711E-02 0.12023684E+00
       21 -1    0    0  501  502 0.00000000E+00 0.00000000E+00 0.13248933E+02 0.13270144E+02 0.75000000E+00 0.0000E+00 0.9000E+01
        2 -1    0    0  502    0 -.00000000E+00 -.00000000E+00 -.22394627E+04 0.22394627E+04 0.32000000E+00 0.0000E+00 0.9000E+01
       25  1    1    2    0    0 -.22842714E+02 -.89348198E+02 -.10111665E+04 0.10230287E+04 0.12500000E+03 0.0000E+00 0.9000E+01
       24  1    1    2    0    0 0.49963478E+00 0.88002692E+02 -.11906103E+04 0.11965637E+04 0.80419002E+02 0.0000E+00 0.9000E+01
        1  1    1    2  501    0 0.22343079E+02 0.13455060E+01 -.24436970E+02 0.33140481E+02 0.32000000E+00 0.0000E+00 0.9000E+01
#aMCatNLO 1  0  0  5  1 0.19145100D+01 0.00000000D+00  -5  6  0 0.00000000D+00 0.00000000D+00 0.00000000D+00 0.00000000D+00 0.00000000D+00
  <mgrwgt>
 -.3878235541D+00    7    2    0
 0.172320655015990D+03 0.000000000000000D+00 0.000000000000000D+00 0.172320655015990D+03
 0.172320655015990D+03 -.000000000000000D+00 -.000000000000000D+00 -.172320655015990D+03
 0.155342518528665D+03 -.228428632788921D+02 -.893482073653724D+02 -.118300492178907D+01
 0.130528470304042D+03 0.499509337913712D+00 0.880026848220186D+02 -.531577234283081D+02
 0.587703211992718D+02 0.223433539409784D+02 0.134552254335378D+01 0.543407283500972D+02
 0.000000000000000D+00 0.000000000000000D+00 0.000000000000000D+00 0.000000000000000D+00
 0.172320655015990D+03 0.000000000000000D+00 0.000000000000000D+00 0.172320655015990D+03
 0.172320655015990D+03 -.000000000000000D+00 -.000000000000000D+00 -.172320655015990D+03
 0.155325299266069D+03 -.227560217322764D+02 -.893429777450128D+02 -.971799705839349D+00
 0.130459575666967D+03 0.572463806520125D+00 0.880070781589549D+02 -.529802926374368D+02
 0.547449193530431D+02 0.192005022230371D+02 0.208946760851336D+01 0.512248087792167D+02
 0.411151574589985D+01 0.298305570271926D+01 -.753568022455403D+00 0.272728356405951D+01
0.209718008714D-05 0.000000000000D+00 0.000000000000D+00 0.205435303993D-05 0.000000000000D+00  6 21 2 25 24 1 21 2 0.20399308D-02 0.34453436D+00 0.22042699D+05 0.22042699D+05 0.22042699D+05 0.12292033D+01  1  2  2  3  6  5        1 0.275193339902D-01 0.100000000000D+01
0.307143281236D-06 0.110671233719D-06 -.423360237157D-08 0.205435303993D-05 0.000000000000D+00  6 21 2 25 24 1 21 4 0.20399308D-02 0.34453436D+00 0.22042699D+05 0.22042699D+05 0.22042699D+05 0.12292033D+01  1  2  3  3  6  5        1 0.608962624960D-02 0.100000000000D+01
0.209121135804D-06 0.000000000000D+00 0.000000000000D+00 0.205435303993D-05 0.000000000000D+00  6 21 2 25 24 1 21 4 0.20399308D-02 0.34453436D+00 0.22042699D+05 0.22042699D+05 0.22042699D+05 0.12292033D+01  1  2 15  3  6  5        1 0.414617423117D-02 0.100000000000D+01
0.279991420397D-08 0.000000000000D+00 0.000000000000D+00 0.205435877487D-05 0.000000000000D+00  6 21 2 25 24 1 21 4 0.20399308D-02 0.34453436D+00 0.22041899D+05 0.22041899D+05 0.22041899D+05 0.12292050D+01  1  2 12  3  6  5        1 0.555132916652D-04 0.100000000000D+01
-.256831912626D-04 0.000000000000D+00 0.000000000000D+00 0.205435303993D-05 0.000000000000D+00  6 21 2 25 24 1 21 4 0.20399308D-02 0.34453436D+00 0.22042699D+05 0.22042699D+05 0.22042699D+05 0.12292033D+01  1  2  4  3  6  5        1 -.509211971223D+00 0.100000000000D+01
-.416947816936D-04 0.000000000000D+00 0.000000000000D+00 0.205435303993D-05 0.000000000000D+00  6 21 2 25 24 1 21 4 0.20399308D-02 0.34453436D+00 0.22042699D+05 0.22042699D+05 0.22042699D+05 0.12292033D+01  1  2  5  3  6  5        1 -.826668374613D+00 0.100000000000D+01
0.459102046565D-04 0.000000000000D+00 -.000000000000D+00 0.205435303993D-05 0.000000000000D+00  6 21 2 25 24 1 21 4 0.20399308D-02 0.34453436D+00 0.22042699D+05 0.22042699D+05 0.22042699D+05 0.12292033D+01  1  2  6  3  6  5        1 0.910246143999D+00 0.100000000000D+01
  </mgrwgt>
  </event>
  <event>
  5     66 0.46027262E-03 0.16664295E+03 0.75467711E-02 0.11331713E+00
       21 -1    0    0  501  502 0.00000000E+00 0.00000000E+00 0.59101041E+02 0.59105800E+02 0.75000000E+00 0.0000E+00 0.9000E+01
        2 -1    0    0  502    0 -.00000000E+00 -.00000000E+00 -.83092198E+03 0.83092204E+03 0.32000000E+00 0.0000E+00 0.9000E+01
       25  1    1    2    0    0 0.98097796E+02 0.77367263E+02 -.29723813E+03 0.34580974E+03 0.12500000E+03 0.0000E+00 0.9000E+01
       24  1    1    2    0    0 0.56548845E+02 -.15284855E+02 -.18819801E+03 0.21287815E+03 0.80419002E+02 0.0000E+00 0.9000E+01
        1  1    1    2  501    0 -.15464664E+03 -.62082408E+02 -.28638480E+03 0.33133995E+03 0.32000000E+00 0.0000E+00 0.9000E+01
#aMCatNLO 1  0  0  5  5 0.82118158D+01 0.00000000D+00  -5  6  0 0.00000000D+00 0.00000000D+00 0.00000000D+00 0.00000000D+00 0.00000000D+00
  <mgrwgt>
 0.6351668585D-01    4    2    0
 0.221608887629919D+03 0.000000000000000D+00 0.000000000000000D+00 0.221608887629919D+03
 0.221608887629919D+03 -.000000000000000D+00 -.000000000000000D+00 -.221608887629919D+03
 0.176810872110045D+03 0.980979100365783D+02 0.773673082685024D+02 0.530887502741555D+01
 0.997530557171148D+02 0.565489090694089D+02 -.152848288073928D+02 -.721464218930455D+01
 0.166653847432678D+03 -.154646819105987D+03 -.620824794611096D+02 0.190576716188901D+01
 0.000000000000000D+00 0.000000000000000D+00 0.000000000000000D+00 -.000000000000000D+00
 0.221608887629919D+03 0.000000000000000D+00 0.000000000000000D+00 0.221608887629919D+03
 0.221608887629919D+03 -.000000000000000D+00 -.000000000000000D+00 -.221608887629919D+03
 0.174026821317694D+03 0.942480701023843D+02 0.758218021273166D+02 0.535631795943012D+01
 0.986724628502931D+02 0.543715304705461D+02 -.161589306022077D+02 -.718780958675442D+01
 0.839716472304083D+01 0.436334272617055D+01 -.604028437119188D+01 0.387150879567558D+01
 0.162121326368811D+03 -.152982943299101D+03 -.536225871539170D+02 -.204001716835128D+01
0.107680865141D-04 0.000000000000D+00 0.000000000000D+00 0.220106424939D-06 0.000000000000D+00  6 21 2 25 24 1 21 2 0.90928387D-02 0.12783452D+00 0.49032555D+05 0.49032555D+05 0.49032555D+05 0.11931230D+01  1  2  2  3  6  5        1 0.626632045932D-01 0.100000000000D+01
-.105586415413D-05 0.568247537066D-06 -.217376642486D-07 0.220106424939D-06 0.000000000000D+00  6 21 2 25 24 1 21 4 0.90928387D-02 0.12783452D+00 0.49032555D+05 0.49032555D+05 0.49032555D+05 0.11931230D+01  1  2  3  3  6  5        1 -.874686805848D-02 0.100000000000D+01
0.115202638472D-05 0.000000000000D+00 0.000000000000D+00 0.220106424939D-06 0.000000000000D+00  6 21 2 25 24 1 21 4 0.90928387D-02 0.12783452D+00 0.49032555D+05 0.49032555D+05 0.49032555D+05 0.11931230D+01  1  2 15  3  6  5        1 0.954348411921D-02 0.100000000000D+01
0.685974270114D-08 0.000000000000D+00 0.000000000000D+00 0.220174845102D-06 0.121168894842D-08  6 21 2 25 24 1 21 4 0.90928387D-02 0.12783452D+00 0.48822130D+05 0.48822130D+05 0.48822130D+05 0.11933085D+01  1  2 11  3  6  5        1 0.568652003456D-04 0.100000000000D+01
  </mgrwgt>
  </event>
  <event>
  5     66 -.46027262E-03 0.46580884E+02 0.75467711E-02 0.12093857E+00
       21 -1    0    0  501  502 0.00000000E+00 0.00000000E+00 0.61489084E+03 0.61489130E+03 0.75000000E+00 0.0000E+00 0.9000E+01
        4 -1    0    0  502    0 0.00000000E+00 0.00000000E+00 -.20389002E+03 0.20389591E+03 0.15500000E+01 0.0000E+00 0.9000E+01
       25  1    1    2    0    0 0.40301033E+02 0.70248172E+02 -.77114712E+02 0.16772197E+03 0.12500000E+03 0.0000E+00 0.9000E+01
       24  1    1    2    0    0 -.52876524E+01 -.39526211E+02 -.55448697E+02 0.10550855E+03 0.80419002E+02 0.0000E+00 0.9000E+01
        3  1    1    2  501    0 -.35013381E+02 -.30721961E+02 0.54356424E+03 0.54555669E+03 0.50000000E+00 0.0000E+00 0.9000E+01
#aMCatNLO 1  0  0  1  2 0.95718992D+00 0.00000000D+00  -5  6  0 0.00000000D+00 0.00000000D+00 0.00000000D+00 0.00000000D+00 0.00000000D+00
  <mgrwgt>
 -.1690390787D+00   41    2    0
 0.354080080858065D+03 0.000000000000000D+00 0.000000000000000D+00 0.354080080858065D+03
 0.354080080858065D+03 0.000000000000000D+00 0.000000000000000D+00 -.354080080858065D+03
 0.238678899624436D+03 0.403010480305292D+02 0.702481845259692D+02 -.186503713701304D+03
 0.154172129945424D+03 -.528764285567695D+01 -.395262025506082D+02 -.125345721277183D+03
 0.315309132146271D+03 -.350134051748522D+02 -.307219819753610D+02 0.311849434978487D+03
 0.000000000000000D+00 -.000000000000000D+00 -.000000000000000D+00 0.000000000000000D+00
 0.420616602978896D+03 0.000000000000000D+00 0.000000000000000D+00 0.420616602978896D+03
 0.354083846840288D+03 0.000000000000000D+00 0.000000000000000D+00 -.354083846840288D+03
 0.238760812295096D+03 0.406071703915245D+02 0.703501810674969D+02 -.186503713701304D+03
 0.154148602014531D+03 -.508995534025867D+01 -.394603352849492D+02 -.125345721277183D+03
 0.315251394302629D+03 -.346091055904483D+02 -.305872738827663D+02 0.311849434978487D+03
 0.665396412069286D+02 -.908109460817538D+00 -.302571899781415D+00 0.665327561386076D+02
0.303629265875D-05 0.000000000000D+00 0.000000000000D+00 0.129302946571D-04 0.000000000000D+00  6 21 4 25 24 3 21 2 0.94599080D-01 0.31368183D-01 0.20347214D+05 0.20347214D+05 0.20347214D+05 0.12330040D+01  1  2  2  1  6  1       21 0.178204806599D-03 0.100000000000D+01
0.580107032239D-06 0.160229565661D-06 -.612940008332D-08 0.129302946571D-04 0.000000000000D+00  6 21 4 25 24 3 21 4 0.94599080D-01 0.31368183D-01 0.20347214D+05 0.20347214D+05 0.20347214D+05 0.12330040D+01  1  2  3  1  6  1       21 0.517622161614D-04 0.100000000000D+01
0.312101236215D-06 0.000000000000D+00 0.000000000000D+00 0.129302946571D-04 0.000000000000D+00  6 21 4 25 24 3 21 4 0.94599080D-01 0.31368183D-01 0.20347214D+05 0.20347214D+05 0.20347214D+05 0.12330040D+01  1  2 15  1  6  1       21 0.278483982358D-04 0.100000000000D+01
0.155010068330D-06 0.000000000000D+00 0.000000000000D+00 0.129257025168D-04 0.000000000000D+00  6 21 4 25 24 3 21 4 0.11237599D+00 0.31368183D-01 0.20440832D+05 0.20440832D+05 0.20440832D+05 0.12327850D+01  1  2 12  1  6  1       21 0.919699063658D-05 0.100000000000D+01
0.153986993553D-06 0.000000000000D+00 0.000000000000D+00 0.129257025168D-04 0.000000000000D+00  6 21 4 25 24 3 21 4 0.11248715D+00 0.31368183D-01 0.20440832D+05 0.20440832D+05 0.20440832D+05 0.12327850D+01  1  2 12  1  6  1       21 0.911459025629D-05 0.100000000000D+01
-.499266207688D-01 0.000000000000D+00 0.000000000000D+00 0.129302946571D-04 0.000000000000D+00  6 21 4 25 24 3 21 4 0.94599080D-01 0.31368183D-01 0.20347214D+05 0.20347214D+05 0.20347214D+05 0.12330040D+01  1  2  4  1  6  1       21 -.445488917186D+01 0.100000000000D+01
-.474528729771D-01 0.000000000000D+00 -.586482575707D-05 0.129302946571D-04 0.000000000000D+00  6 21 4 25 24 3 21 4 0.11237603D+00 0.31368183D-01 0.20347214D+05 0.20347214D+05 0.20347214D+05 0.12330040D+01  1  2  5  1  6  1       21 -.281759396950D+01 0.100000000000D+01
0.450059214113D-01 0.000000000000D+00 0.553109016935D-05 0.129302946571D-04 0.000000000000D+00  6 21 4 25 24 3 21 4 0.94599080D-01 0.31368183D-01 0.20347214D+05 0.20347214D+05 0.20347214D+05 0.12330040D+01  1  2  6  1  6  1       21 0.401582139703D+01 0.100000000000D+01
0.520637637871D-01 0.000000000000D+00 0.000000000000D+00 0.129302946571D-04 0.298255881386D-03  6 21 4 25 24 3 21 4 0.11237555D+00 0.31368517D-01 0.20440832D+05 0.20440832D+05 0.20440832D+05 0.12327850D+01  1  2 11  1  6  1       21 0.308899161475D+01 0.100000000000D+01
0.708685637211D-08 0.000000000000D+00 0.000000000000D+00 0.129257025168D-04 0.000000000000D+00  6 -3 4 25 24 3 -3 4 0.11237599D+00 0.31368183D-01 0.20440832D+05 0.20440832D+05 0.20440832D+05 0.12327850D+01  1  2 12  4  6  1       21 0.223958600667D-07 0.100000000000D+01
0.708674382471D-08 0.000000000000D+00 0.000000000000D+00 0.129257025168D-04 0.000000000000D+00  6 -3 4 25 24 3 -3 4 0.11248715D+00 0.31368183D-01 0.20440832D+05 0.20440832D+05 0.20440832D+05 0.12327850D+01  1  2 12  4  6  1       21 0.223440957782D-07 0.100000000000D+01
-.216930699816D-02 0.000000000000D+00 -.281248203222D-06 0.129302946571D-04 0.000000000000D+00  6 -3 4 25 24 3 -3 4 0.11237603D+00 0.31368183D-01 0.20347214D+05 0.20347214D+05 0.20347214D+05 0.12330040D+01  1  2  5  4  6  1       21 -.685895231457D-02 0.100000000000D+01
0.217180742014D-02 0.000000000000D+00 0.000000000000D+00 0.129302946571D-04 0.124404214997D-04  6 -3 4 25 24 3 -3 4 0.11237555D+00 0.31368517D-01 0.20440832D+05 0.20440832D+05 0.20440832D+05 0.12327850D+01  1  2 11  4  6  1       21 0.686326266727D-02 0.100000000000D+01
0.708685637211D-08 0.000000000000D+00 0.000000000000D+00 0.129257025168D-04 0.000000000000D+00  6 3 4 25 24 3 3 4 0.11237599D+00 0.31368183D-01 0.20440832D+05 0.20440832D+05 0.20440832D+05 0.12327850D+01  1  2 12  5  6  1       21 0.224498670737D-07 0.100000000000D+01
0.708674382471D-08 0.000000000000D+00 0.000000000000D+00 0.129257025168D-04 0.000000000000D+00  6 3 4 25 24 3 3 4 0.11248715D+00 0.31368183D-01 0.20440832D+05 0.20440832D+05 0.20440832D+05 0.12327850D+01  1  2 12  5  6  1       21 0.223980705954D-07 0.100000000000D+01
-.216930699816D-02 0.000000000000D+00 -.281248203222D-06 0.129302946571D-04 0.000000000000D+00  6 3 4 25 24 3 3 4 0.11237603D+00 0.31368183D-01 0.20347214D+05 0.20347214D+05 0.20347214D+05 0.12330040D+01  1  2  5  5  6  1       21 -.687549225471D-02 0.100000000000D+01
0.226683658495D-02 0.000000000000D+00 0.000000000000D+00 0.129302946571D-04 0.648056526841D-05  6 3 4 25 24 3 3 4 0.11237555D+00 0.31368517D-01 0.20440832D+05 0.20440832D+05 0.20440832D+05 0.12327850D+01  1  2 11  5  6  1       21 0.718084483200D-02 0.100000000000D+01
0.708685637211D-08 0.000000000000D+00 0.000000000000D+00 0.129257025168D-04 0.000000000000D+00  6 -4 4 25 24 3 -4 4 0.11237599D+00 0.31368183D-01 0.20440832D+05 0.20440832D+05 0.20440832D+05 0.12327850D+01  1  2 12  6  6  1       21 0.178033288273D-07 0.100000000000D+01
0.708674382471D-08 0.000000000000D+00 0.000000000000D+00 0.129257025168D-04 0.000000000000D+00  6 -4 4 25 24 3 -4 4 0.11248715D+00 0.31368183D-01 0.20440832D+05 0.20440832D+05 0.20440832D+05 0.12327850D+01  1  2 12  6  6  1       21 0.177614273130D-07 0.100000000000D+01
-.216930699816D-02 0.000000000000D+00 -.281248203222D-06 0.129302946571D-04 0.000000000000D+00  6 -4 4 25 24 3 -4 4 0.11237603D+00 0.31368183D-01 0.20347214D+05 0.20347214D+05 0.20347214D+05 0.12330040D+01  1  2  5  6  6  1       21 -.545218070641D-02 0.100000000000D+01
0.214928280546D-02 0.000000000000D+00 0.000000000000D+00 0.129302946571D-04 0.122878724878D-04  6 -4 4 25 24 3 -4 4 0.11237555D+00 0.31368517D-01 0.20440832D+05 0.20440832D+05 0.20440832D+05 0.12327850D+01  1  2 11  6  6  1       21 0.539928700484D-02 0.100000000000D+01
0.708685637211D-08 0.000000000000D+00 0.000000000000D+00 0.129257025168D-04 0.000000000000D+00  6 4 4 25 24 3 4 4 0.11237599D+00 0.31368183D-01 0.20440832D+05 0.20440832D+05 0.20440832D+05 0.12327850D+01  1  2 12  7  6  1       21 0.178033288273D-07 0.100000000000D+01
0.708674382471D-08 0.000000000000D+00 0.000000000000D+00 0.129257025168D-04 0.000000000000D+00  6 4 4 25 24 3 4 4 0.11248715D+00 0.31368183D-01 0.20440832D+05 0.20440832D+05 0.20440832D+05 0.12327850D+01  1  2 12  7  6  1       21 0.177614273130D-07 0.100000000000D+01
-.216930699816D-02 0.000000000000D+00 -.281248203222D-06 0.129302946571D-04 0.000000000000D+00  6 4 4 25 24 3 4 4 0.11237603D+00 0.31368183D-01 0.20347214D+05 0.20347214D+05 0.20347214D+05 0.12330040D+01  1  2  5  7  6  1       21 -.545218070641D-02 0.100000000000D+01
0.214857264232D-02 0.000000000000D+00 0.000000000000D+00 0.129302946571D-04 0.122838182643D-04  6 4 4 25 24 3 4 4 0.11237555D+00 0.31368517D-01 0.20440832D+05 0.20440832D+05 0.20440832D+05 0.12327850D+01  1  2 11  7  6  1       21 0.539750297968D-02 0.100000000000D+01
0.708685637211D-08 0.000000000000D+00 0.000000000000D+00 0.129257025168D-04 0.000000000000D+00  6 -1 4 25 24 3 -1 4 0.11237599D+00 0.31368183D-01 0.20440832D+05 0.20440832D+05 0.20440832D+05 0.12327850D+01  1  2 12  8  6  1       21 0.483684396846D-07 0.100000000000D+01
0.708685637211D-08 0.000000000000D+00 0.000000000000D+00 0.129257025168D-04 0.000000000000D+00  6 -2 4 25 24 3 -2 4 0.11237599D+00 0.31368183D-01 0.20440832D+05 0.20440832D+05 0.20440832D+05 0.12327850D+01  1  2 12  8  6  1       21 0.354979420725D-07 0.100000000000D+01
0.708674382471D-08 0.000000000000D+00 0.000000000000D+00 0.129257025168D-04 0.000000000000D+00  6 -1 4 25 24 3 -1 4 0.11248715D+00 0.31368183D-01 0.20440832D+05 0.20440832D+05 0.20440832D+05 0.12327850D+01  1  2 12  8  6  1       21 0.482581507214D-07 0.100000000000D+01
0.708674382471D-08 0.000000000000D+00 0.000000000000D+00 0.129257025168D-04 0.000000000000D+00  6 -2 4 25 24 3 -2 4 0.11248715D+00 0.31368183D-01 0.20440832D+05 0.20440832D+05 0.20440832D+05 0.12327850D+01  1  2 12  8  6  1       21 0.354145176307D-07 0.100000000000D+01
-.216930699816D-02 0.000000000000D+00 -.281248203222D-06 0.129302946571D-04 0.000000000000D+00  6 -1 4 25 24 3 -1 4 0.11237603D+00 0.31368183D-01 0.20347214D+05 0.20347214D+05 0.20347214D+05 0.12330040D+01  1  2  5  8  6  1       21 -.148150317021D-01 0.100000000000D+01
-.216930699816D-02 0.000000000000D+00 -.281248203222D-06 0.129302946571D-04 0.000000000000D+00  6 -2 4 25 24 3 -2 4 0.11237603D+00 0.31368183D-01 0.20347214D+05 0.20347214D+05 0.20347214D+05 0.12330040D+01  1  2  5  8  6  1       21 -.108724991192D-01 0.100000000000D+01
0.214927798249D-02 0.000000000000D+00 0.000000000000D+00 0.129302946571D-04 0.122878449140D-04  6 -1 4 25 24 3 -1 4 0.11237555D+00 0.31368517D-01 0.20440832D+05 0.20440832D+05 0.20440832D+05 0.12327850D+01  1  2 11  8  6  1       21 0.146688536407D-01 0.100000000000D+01
0.214927798249D-02 0.000000000000D+00 0.000000000000D+00 0.129302946571D-04 0.122878449140D-04  6 -2 4 25 24 3 -2 4 0.11237555D+00 0.31368517D-01 0.20440832D+05 0.20440832D+05 0.20440832D+05 0.12327850D+01  1  2 11  8  6  1       21 0.107655790904D-01 0.100000000000D+01
0.708685637211D-08 0.000000000000D+00 0.000000000000D+00 0.129257025168D-04 0.000000000000D+00  6 1 4 25 24 3 1 4 0.11237599D+00 0.31368183D-01 0.20440832D+05 0.20440832D+05 0.20440832D+05 0.12327850D+01  1  2 12  9  6  1       21 0.196193954299D-06 0.100000000000D+01
0.708685637211D-08 0.000000000000D+00 0.000000000000D+00 0.129257025168D-04 0.000000000000D+00  6 2 4 25 24 3 2 4 0.11237599D+00 0.31368183D-01 0.20440832D+05 0.20440832D+05 0.20440832D+05 0.12327850D+01  1  2 12  9  6  1       21 0.332935357207D-06 0.100000000000D+01
0.708674382471D-08 0.000000000000D+00 0.000000000000D+00 0.129257025168D-04 0.000000000000D+00  6 1 4 25 24 3 1 4 0.11248715D+00 0.31368183D-01 0.20440832D+05 0.20440832D+05 0.20440832D+05 0.12327850D+01  1  2 12  9  6  1       21 0.195908897465D-06 0.100000000000D+01
0.708674382471D-08 0.000000000000D+00 0.000000000000D+00 0.129257025168D-04 0.000000000000D+00  6 2 4 25 24 3 2 4 0.11248715D+00 0.31368183D-01 0.20440832D+05 0.20440832D+05 0.20440832D+05 0.12327850D+01  1  2 12  9  6  1       21 0.332533208932D-06 0.100000000000D+01
-.216930699816D-02 0.000000000000D+00 -.281248203222D-06 0.129302946571D-04 0.000000000000D+00  6 1 4 25 24 3 1 4 0.11237603D+00 0.31368183D-01 0.20347214D+05 0.20347214D+05 0.20347214D+05 0.12330040D+01  1  2  5  9  6  1       21 -.600926452507D-01 0.100000000000D+01
-.216930699816D-02 0.000000000000D+00 -.281248203222D-06 0.129302946571D-04 0.000000000000D+00  6 2 4 25 24 3 2 4 0.11237603D+00 0.31368183D-01 0.20347214D+05 0.20347214D+05 0.20347214D+05 0.12330040D+01  1  2  5  9  6  1       21 -.101972943431D+00 0.100000000000D+01
0.214927798249D-02 0.000000000000D+00 0.000000000000D+00 0.129302946571D-04 0.122878449140D-04  6 1 4 25 24 3 1 4 0.11237555D+00 0.31368517D-01 0.20440832D+05 0.20440832D+05 0.20440832D+05 0.12327850D+01  1  2 11  9  6  1       21 0.595001802207D-01 0.100000000000D+01
0.214927798249D-02 0.000000000000D+00 0.000000000000D+00 0.129302946571D-04 0.122878449140D-04  6 2 4 25 24 3 2 4 0.11237555D+00 0.31368517D-01 0.20440832D+05 0.20440832D+05 0.20440832D+05 0.12327850D+01  1  2 11  9  6  1       21 0.100969953043D+00 0.100000000000D+01
  </mgrwgt>
  </event>
  <event>
  5     66 0.46027262E-03 0.10754575E+03 0.75467711E-02 0.11543737E+00
       21 -1    0    0  501  502 0.00000000E+00 0.00000000E+00 0.60875737E+02 0.60880357E+02 0.75000000E+00 0.0000E+00 0.9000E+01
        2 -1    0    0  502    0 -.00000000E+00 -.00000000E+00 -.83483816E+03 0.83483823E+03 0.32000000E+00 0.0000E+00 0.9000E+01
       25  1    1    2    0    0 -.10025123E+02 0.71192166E+01 -.43531720E+03 0.45307533E+03 0.12500000E+03 0.0000E+00 0.9000E+01
       24  1    1    2    0    0 0.70086064E+02 0.82092561E+02 -.29921338E+03 0.32809619E+03 0.80419002E+02 0.0000E+00 0.9000E+01
        1  1    1    2  501    0 -.60060941E+02 -.89211777E+02 -.39431846E+02 0.11454707E+03 0.32000000E+00 0.0000E+00 0.9000E+01
#aMCatNLO 1  0  0  5  1 0.67692747D+02 0.00000000D+00  -5  6  0 0.00000000D+00 0.00000000D+00 0.00000000D+00 0.00000000D+00 0.00000000D+00
  <mgrwgt>
 0.2461201526D-01    4    2    0
 0.225440645825059D+03 0.000000000000000D+00 0.000000000000000D+00 0.225440645825059D+03
 0.225440645825059D+03 -.000000000000000D+00 -.000000000000000D+00 -.225440645825059D+03
 0.152831474091960D+03 -.100250819197997D+02 0.711927719689032D+01 -.870705064750198D+02
 0.138178205200906D+03 0.700861008571679D+02 0.820926155768375D+02 -.312208483639615D+02
 0.159871612357253D+03 -.600610189373682D+02 -.892118927737278D+02 0.118291354838981D+03
 0.000000000000000D+00 0.000000000000000D+00 0.000000000000000D+00 0.000000000000000D+00
 0.225440645825059D+03 0.000000000000000D+00 0.000000000000000D+00 0.225440645825059D+03
 0.225440645825059D+03 -.000000000000000D+00 -.000000000000000D+00 -.225440645825059D+03
 0.144989916654599D+03 -.181829964704839D+02 -.499811626444615D+01 -.710033337574309D+02
 0.125692573636758D+03 0.628581604436736D+02 0.713565631995715D+02 -.169852779501583D+02
 0.905529496767436D+02 -.202915864122872D+01 -.896417465370389D+02 0.126521337392889D+02
 0.896458516820177D+02 -.426460053319610D+02 0.232832996019135D+02 0.753364779683003D+02
0.730651456474D-05 0.000000000000D+00 0.000000000000D+00 0.453726047270D-06 0.000000000000D+00  6 21 2 25 24 1 21 2 0.93658580D-02 0.12843700D+00 0.33810737D+05 0.33810737D+05 0.33810737D+05 0.12094853D+01  1  2  2  3  6  5        1 0.414160131055D-01 0.100000000000D+01
-.215345986615D-06 0.385575366666D-06 -.147497478060D-07 0.453726047270D-06 0.000000000000D+00  6 21 2 25 24 1 21 4 0.93658580D-02 0.12843700D+00 0.33810737D+05 0.33810737D+05 0.33810737D+05 0.12094853D+01  1  2  3  3  6  5        1 -.178564861489D-02 0.100000000000D+01
0.749906698779D-06 0.000000000000D+00 0.000000000000D+00 0.453726047270D-06 0.000000000000D+00  6 21 2 25 24 1 21 4 0.93658580D-02 0.12843700D+00 0.33810737D+05 0.33810737D+05 0.33810737D+05 0.12094853D+01  1  2 15  3  6  5        1 0.621822528024D-02 0.100000000000D+01
-.256109239640D-05 0.000000000000D+00 0.000000000000D+00 0.453726047270D-06 0.000000000000D+00  6 21 2 25 24 1 21 4 0.93658580D-02 0.12843700D+00 0.33810737D+05 0.33810737D+05 0.33810737D+05 0.12094853D+01  1  2  4  3  6  5        1 -.212365745102D-01 0.100000000000D+01
  </mgrwgt>
  </event>
  <event>
  6     66 0.46027262E-03 0.91875177E+02 0.75467711E-02 0.11475474E+00
       21 -1    0    0  501  502 0.00000000E+00 0.00000000E+00 0.23838329E+02 0.23850124E+02 0.75000000E+00 0.0000E+00 0.9000E+01
        2 -1    0    0  502    0 -.00000000E+00 -.00000000E+00 -.21616396E+04 0.21616397E+04 0.32000000E+00 0.0000E+00 0.9000E+01
       25  1    1    2    0    0 0.34437944E+02 -.47625674E+02 -.35601403E+03 0.38187061E+03 0.12500000E+03 0.0000E+00 0.9000E+01
       24  1    1    2    0    0 -.31645730E+02 0.13484450E+03 -.11153018E+04 0.11267430E+04 0.80419002E+02 0.0000E+00 0.9000E+01
        1  1    1    2  503    0 0.52371633E+01 0.86188738E+01 -.21614000E+03 0.21637540E+03 0.32000000E+00 0.0000E+00 0.9000E+01
       21  1    1    2  501  503 -.80293773E+01 -.95837699E+02 -.45034553E+03 0.46050081E+03 0.75000000E+00 0.0000E+00 0.9000E+01
#aMCatNLO 2  0  0  5  1 0.22685101D+02 0.00000000D+00  -5  6  0 0.00000000D+00 0.00000000D+00 0.00000000D+00 0.00000000D+00 0.00000000D+00
  <mgrwgt>
 0.3108049036D-01    2    2    0
 0.227030376402383D+03 0.000000000000000D+00 0.000000000000000D+00 0.227030376402383D+03
 0.227030376402383D+03 -.000000000000000D+00 -.000000000000000D+00 -.227030376402383D+03
 0.160477028361096D+03 0.347832570378637D+02 -.368393217530130D+02 0.869532405044458D+02
 0.180557781141933D+03 -.312678033254128D+02 0.146649580013762D+03 -.604162356781522D+02
 0.113025943301737D+03 -.351545371245086D+01 -.109810258260749D+03 -.265370048262936D+02
 0.000000000000000D+00 0.000000000000000D+00 0.000000000000000D+00 0.000000000000000D+00
 0.227030376402383D+03 0.000000000000000D+00 0.000000000000000D+00 0.227030376402383D+03
 0.227030376402383D+03 -.000000000000000D+00 -.000000000000000D+00 -.227030376402383D+03
 0.161785115455906D+03 0.344497276868906D+02 -.472575912464154D+02 0.844355370384221D+02
 0.172475473896815D+03 -.316331796337509D+02 0.135236524953794D+03 -.631743413597721D+02
 0.229664297894268D+02 0.504658524088308D+01 0.853348150502761D+01 -.207163840494069D+02
 0.968337336626182D+02 -.786313329402271D+01 -.965124152124064D+02 -.544811629243036D+00
-.215733306912D-05 0.000000000000D+00 0.000000000000D+00 0.864038137123D-07 0.000000000000D+00  6 21 2 25 24 1 21 4 0.36683444D-02 0.33256085D+00 0.41054728D+05 0.41054728D+05 0.41054728D+05 0.12008541D+01  1  2 13  3  6  5        1 -.160766590300D-01 0.100000000000D+01
0.632803604434D-05 0.000000000000D+00 0.000000000000D+00 0.861068736970D-07 0.266460951402D-09  6 21 2 25 24 1 21 4 0.36683444D-02 0.33256085D+00 0.41054728D+05 0.41054728D+05 0.41054728D+05 0.12008541D+01  1  2  1  3  6  5        1 0.471571493854D-01 0.100000000000D+01
  </mgrwgt>
  </event>
  <event>
  6     66 -.46027262E-03 0.19150586E+02 0.75467711E-02 0.12230659E+00
       21 -1    0    0  501  502 0.00000000E+00 0.00000000E+00 0.35940701E+01 0.36714902E+01 0.75000000E+00 0.0000E+00 0.9000E+01
        2 -1    0    0  503    0 0.00000000E+00 0.00000000E+00 -.48926803E+04 0.48926803E+04 0.32000000E+00 0.0000E+00 0.9000E+01
       25  1    1    2    0    0 0.47313275E+01 0.22762329E+02 -.22678354E+04 0.22713967E+04 0.12500000E+03 0.0000E+00 0.9000E+01
       24  1    1    2    0    0 -.12555056E+02 -.25502601E+02 -.17174674E+04 0.17195841E+04 0.80419002E+02 0.0000E+00 0.9000E+01
        1  1    1    2  501    0 0.30621269E+02 0.14137988E+00 -.50705917E+03 0.50798306E+03 0.32000000E+00 0.0000E+00 0.9000E+01
       21  1    1    2  503  502 -.22797540E+02 0.25988922E+01 -.39672421E+03 0.39738790E+03 0.75000000E+00 0.0000E+00 0.9000E+01
#aMCatNLO 2  0  0  2  1 0.22945197D+02 0.00000000D+00  -5  6  0 0.00000000D+00 0.00000000D+00 0.00000000D+00 0.00000000D+00 0.00000000D+00
  <mgrwgt>
 -.2884982120D-01    2    2    0
 0.121277756339133D+03 0.000000000000000D+00 0.000000000000000D+00 0.121277756339133D+03
 0.121277756339133D+03 0.000000000000000D+00 0.000000000000000D+00 -.121277756339133D+03
 0.127580635096046D+03 -.721687040595387D+01 0.241242850874616D+02 0.421356168496720D+01
 0.869140611858920D+02 -.206460148883451D+02 -.245803262643759D+02 -.750917488286832D+01
 0.280608163963289D+02 0.278628852942989D+02 0.456041176914252D+00 0.329561319790112D+01
 0.000000000000000D+00 -.000000000000000D+00 0.000000000000000D+00 0.000000000000000D+00
 0.134059582963786D+03 0.000000000000000D+00 0.000000000000000D+00 0.134059582963786D+03
 0.132572152466251D+03 0.000000000000000D+00 0.000000000000000D+00 -.132572152466251D+03
 0.127213416988156D+03 0.473037481518882D+01 0.227623134553010D+02 0.421356168496720D+01
 0.856249518042484D+02 -.125556929928955D+02 -.255026132613106D+02 -.750917488286832D+01
 0.308000083310425D+02 0.306228583045959D+02 0.141407562555921D+00 0.329561319790112D+01
 0.229933583065894D+02 -.227975401268892D+02 0.259889224345364D+01 0.148743049753481D+01
-.395228243543D-04 0.000000000000D+00 0.000000000000D+00 0.841177060162D-06 0.000000000000D+00  6 21 2 25 24 1 21 4 0.50557984D-03 0.78557826D+00 0.17689937D+05 0.17689937D+05 0.17689937D+05 0.12397378D+01  1  2 13  2  6  2        2 -.556114229900D-01 0.100000000000D+01
0.124476708074D-04 0.000000000000D+00 0.000000000000D+00 0.853844025195D-06 0.161135531462D-07  6 21 2 25 24 1 21 4 0.55886442D-03 0.75269147D+00 0.17689937D+05 0.17689937D+05 0.17689937D+05 0.12397378D+01  1  2  1  2  6  2        2 0.267616017873D-01 0.100000000000D+01
  </mgrwgt>
  </event>
  <event>
  5     66 0.46027262E-03 0.27099608E+02 0.75467711E-02 0.11002921E+00
       21 -1    0    0  501  502 0.00000000E+00 0.00000000E+00 0.25751170E+03 0.25751279E+03 0.75000000E+00 0.0000E+00 0.9000E+01
        2 -1    0    0  502    0 0.00000000E+00 0.00000000E+00 -.24302516E+03 0.24302537E+03 0.32000000E+00 0.0000E+00 0.9000E+01
       25  1    1    2    0    0 -.51522100E+02 -.29314365E+02 -.70703662E+02 0.15536366E+03 0.12500000E+03 0.0000E+00 0.9000E+01
       24  1    1    2    0    0 0.32249980E+02 0.48366213E+02 -.10998157E+03 0.14813006E+03 0.80419002E+02 0.0000E+00 0.9000E+01
        1  1    1    2  501    0 0.19272119E+02 -.19051848E+02 0.19517178E+03 0.19704444E+03 0.32000000E+00 0.0000E+00 0.9000E+01
#aMCatNLO 1  0  0  1  2 0.65039069D+01 0.00000000D+00  -5  6  0 0.00000000D+00 0.00000000D+00 0.00000000D+00 0.00000000D+00 0.00000000D+00
  <mgrwgt>
 0.5135963010D+00   12    2    0
 0.250164241117074D+03 0.000000000000000D+00 0.000000000000000D+00 0.250164241117074D+03
 0.250164241117074D+03 0.000000000000000D+00 0.000000000000000D+00 -.250164241117074D+03
 0.157475968117865D+03 -.515221079957845D+02 -.293143569063284D+02 -.752317845162405D+02
 0.151376611765703D+03 0.322499722266970D+02 0.483662210886086D+02 -.114316711745392D+03
 0.191475902350579D+03 0.192721357690875D+02 -.190518641822803D+02 0.189548496261632D+03
 0.000000000000000D+00 -.000000000000000D+00 0.000000000000000D+00 0.000000000000000D+00
 0.395685079687643D+03 0.000000000000000D+00 0.000000000000000D+00 0.395685079687643D+03
 0.340671952417168D+03 0.000000000000000D+00 0.000000000000000D+00 -.340671952417168D+03
 0.173385136879081D+03 -.326521549610185D+02 -.878146973204452D+02 -.752317845162405D+02
 0.148295009501107D+03 0.493410999952786D+02 -.461943238286995D+01 -.114316711745392D+03
 0.214421085950050D+03 0.424215993672838D+02 -.908194779332853D+02 0.189548496261632D+03
 0.200255799774572D+03 -.591105444015439D+02 0.183253607636600D+03 0.550131272704741D+02
0.177916682180D-03 0.000000000000D+00 0.000000000000D+00 0.115605322978D-04 0.000000000000D+00  6 21 2 25 24 1 21 2 0.39617285D-01 0.37388586D-01 0.17512916D+05 0.17512916D+05 0.17512916D+05 0.12402262D+01  1  2  2  1  6  1       21 0.289240819422D+00 0.100000000000D+01
0.452297314817D-04 0.938892126471D-05 -.359162521254D-06 0.115605322978D-04 0.000000000000D+00  6 21 2 25 24 1 21 4 0.39617285D-01 0.37388586D-01 0.17512916D+05 0.17512916D+05 0.17512916D+05 0.12402262D+01  1  2  3  1  6  1       21 0.113101585707D+00 0.100000000000D+01
0.175303828289D-04 0.000000000000D+00 0.000000000000D+00 0.115605322978D-04 0.000000000000D+00  6 21 2 25 24 1 21 4 0.39617285D-01 0.37388586D-01 0.17512916D+05 0.17512916D+05 0.17512916D+05 0.12402262D+01  1  2 15  1  6  1       21 0.438365214882D-01 0.100000000000D+01
0.742636439176D-04 0.000000000000D+00 -.253096943980D-03 0.115605322978D-04 0.000000000000D+00  6 21 2 25 24 1 21 4 0.81809035D-01 0.37388586D-01 0.17512916D+05 0.17512916D+05 0.17512916D+05 0.12402262D+01  1  2  5  1  6  1       21 0.401568763341D-01 0.100000000000D+01
0.398519544276D-04 0.000000000000D+00 -.652407656902D-04 0.115605322978D-04 0.000000000000D+00  6 -1 2 25 24 1 -1 4 0.81809035D-01 0.37388586D-01 0.17512916D+05 0.17512916D+05 0.17512916D+05 0.12402262D+01  1  2  5  4  6  1       21 0.235059858668D-02 0.100000000000D+01
0.398519544276D-04 0.000000000000D+00 -.652407656902D-04 0.115605322978D-04 0.000000000000D+00  6 1 2 25 24 1 1 4 0.81809035D-01 0.37388586D-01 0.17512916D+05 0.17512916D+05 0.17512916D+05 0.12402262D+01  1  2  5  5  6  1       21 0.741559103630D-02 0.100000000000D+01
0.398519544276D-04 0.000000000000D+00 -.652407656902D-04 0.115605322978D-04 0.000000000000D+00  6 -2 2 25 24 1 -2 4 0.81809035D-01 0.37388586D-01 0.17512916D+05 0.17512916D+05 0.17512916D+05 0.12402262D+01  1  2  5  6  6  1       21 0.178454893750D-02 0.100000000000D+01
0.398519544276D-04 0.000000000000D+00 -.652407656902D-04 0.115605322978D-04 0.000000000000D+00  6 2 2 25 24 1 2 4 0.81809035D-01 0.37388586D-01 0.17512916D+05 0.17512916D+05 0.17512916D+05 0.12402262D+01  1  2  5  7  6  1       21 0.116948870354D-01 0.100000000000D+01
0.398519544276D-04 0.000000000000D+00 -.652407656902D-04 0.115605322978D-04 0.000000000000D+00  6 -3 2 25 24 1 -3 4 0.81809035D-01 0.37388586D-01 0.17512916D+05 0.17512916D+05 0.17512916D+05 0.12402262D+01  1  2  5  8  6  1       21 0.111236352738D-02 0.100000000000D+01
0.398519544276D-04 0.000000000000D+00 -.652407656902D-04 0.115605322978D-04 0.000000000000D+00  6 -4 2 25 24 1 -4 4 0.81809035D-01 0.37388586D-01 0.17512916D+05 0.17512916D+05 0.17512916D+05 0.12402262D+01  1  2  5  8  6  1       21 0.894331511689D-03 0.100000000000D+01
0.398519544276D-04 0.000000000000D+00 -.652407656902D-04 0.115605322978D-04 0.000000000000D+00  6 3 2 25 24 1 3 4 0.81809035D-01 0.37388586D-01 0.17512916D+05 0.17512916D+05 0.17512916D+05 0.12402262D+01  1  2  5  9  6  1       21 0.111384585376D-02 0.100000000000D+01
0.398519544276D-04 0.000000000000D+00 -.652407656902D-04 0.115605322978D-04 0.000000000000D+00  6 4 2 25 24 1 4 4 0.81809035D-01 0.37388586D-01 0.17512916D+05 0.17512916D+05 0.17512916D+05 0.12402262D+01  1  2  5  9  6  1       21 0.894331511689D-03 0.100000000000D+01
  </mgrwgt>
  </event>
  <event>
  6     66 0.46027262E-03 0.18651654E+03 0.75467711E-02 0.10837801E+00
       21 -1    0    0  501  502 0.00000000E+00 0.00000000E+00 0.56195955E+02 0.56200960E+02 0.75000000E+00 0.0000E+00 0.9000E+01
        2 -1    0    0  503    0 0.00000000E+00 0.00000000E+00 -.25638019E+04 0.25638019E+04 0.32000000E+00 0.0000E+00 0.9000E+01
       25  1    1    2    0    0 -.35755112E+02 -.13753376E+02 -.18693812E+03 0.22811937E+03 0.12500000E+03 0.0000E+00 0.9000E+01
       24  1    1    2    0    0 0.10059305E+03 0.18265454E+03 -.17945944E+04 0.18084573E+04 0.80419002E+02 0.0000E+00 0.9000E+01
        1  1    1    2  501    0 -.10717960E+03 -.17852475E+03 -.44969616E+03 0.49556563E+03 0.32000000E+00 0.0000E+00 0.9000E+01
       21  1    1    2  503  502 0.42341658E+02 0.96235846E+01 -.76377307E+02 0.87860599E+02 0.75000000E+00 0.0000E+00 0.9000E+01
#aMCatNLO 2  0  0  2  2 0.43421531D+02 0.00000000D+00  -5  6  0 0.00000000D+00 0.00000000D+00 0.00000000D+00 0.00000000D+00 0.00000000D+00
  <mgrwgt>
 0.5083107479D-01    1    2    0
 0.353194850341161D+03 0.000000000000000D+00 0.000000000000000D+00 0.353194850341161D+03
 0.353194850341161D+03 0.000000000000000D+00 0.000000000000000D+00 -.353194850341161D+03
 0.171994396880848D+03 -.253953532135705D+02 -.113987283536000D+02 0.114813838823922D+03
 0.314584292833990D+03 0.119159474578387D+03 0.186874465196728D+03 -.208266692534190D+03
 0.219811010967484D+03 -.937641213648168D+02 -.175475736843128D+03 0.934528537102688D+02
 0.000000000000000D+00 0.000000000000000D+00 0.000000000000000D+00 0.000000000000000D+00
 0.394125684354894D+03 0.000000000000000D+00 0.000000000000000D+00 0.394125684354894D+03
 0.365568113263817D+03 0.000000000000000D+00 0.000000000000000D+00 -.365568113263817D+03
 0.173996545633106D+03 -.357550863641188D+02 -.137533307188649D+02 0.114813838823922D+03
 0.305489626988783D+03 0.100593091608060D+03 0.182654622019200D+03 -.208266692534190D+03
 0.228236823060295D+03 -.107179663302079D+03 -.178524875881532D+03 0.934528537102688D+02
 0.519708019365263D+02 0.423416580581377D+02 0.962358458119652D+01 0.285575710910775D+02
0.568107052405D-04 0.000000000000D+00 0.000000000000D+00 0.376013232033D-07 0.227127885980D-09  6 21 2 25 24 1 21 4 0.86458552D-02 0.39442858D+00 0.91772623D+05 0.91772623D+05 0.91772623D+05 0.11670125D+01  1  2  1  2  6  2        2 0.508310747904D-01 0.100000000000D+01
  </mgrwgt>
  </event>
  <event>
  5     66 0.46027262E-03 0.59980794E+02 0.75467711E-02 0.11703031E+00
       21 -1    0    0  501  502 0.00000000E+00 0.00000000E+00 0.12098144E+03 0.12098376E+03 0.75000000E+00 0.0000E+00 0.9000E+01
        2 -1    0    0  502    0 0.00000000E+00 0.00000000E+00 -.72463193E+03 0.72463200E+03 0.32000000E+00 0.0000E+00 0.9000E+01
       25  1    1    2    0    0 0.45591439E+02 -.39455600E+02 -.30477593E+03 0.33488609E+03 0.12500000E+03 0.0000E+00 0.9000E+01
       24  1    1    2    0    0 -.10651455E+03 0.36845186E+02 -.38275399E+03 0.40702672E+03 0.80419002E+02 0.0000E+00 0.9000E+01
        1  1    1    2  501    0 0.60923115E+02 0.26104145E+01 0.83879434E+02 0.10370295E+03 0.32000000E+00 0.0000E+00 0.9000E+01
#aMCatNLO 1  0  0  1  5 0.13434035D+02 0.00000000D+00  -5  6  0 0.00000000D+00 0.00000000D+00 0.00000000D+00 0.00000000D+00 0.00000000D+00
  <mgrwgt>
 0.2831028045D+00   32    2    0
 0.296087868814218D+03 0.000000000000000D+00 0.000000000000000D+00 0.296087868814218D+03
 0.296087868814218D+03 0.000000000000000D+00 0.000000000000000D+00 -.296087868814218D+03
 0.167529376725747D+03 0.455914224415116D+02 -.394556007597449D+02 -.938390634787273D+02
 0.191055802311816D+03 -.106514572229793D+03 0.368451847687949D+02 -.131651744784104D+03
 0.233590558590873D+03 0.609231497882818D+02 0.261041599094995D+01 0.225490808262831D+03
 0.000000000000000D+00 -.000000000000000D+00 -.000000000000000D+00 0.000000000000000D+00
 0.436316799379827D+03 0.000000000000000D+00 0.000000000000000D+00 0.436316799379827D+03
 0.296485972267356D+03 0.000000000000000D+00 0.000000000000000D+00 -.296485972267356D+03
 0.168193347123545D+03 0.491184768934172D+02 -.380211442453749D+02 -.938390634787273D+02
 0.189181518477119D+03 -.102519853851209D+03 0.384698406620824D+02 -.131651744784104D+03
 0.234953233955560D+03 0.658456032059881D+02 0.461238263705504D+01 0.225490808262831D+03
 0.140474672090959D+03 -.124442262481965D+02 -.506107905376248D+01 0.139830827112471D+03
0.282544210918D-05 0.000000000000D+00 0.000000000000D+00 0.232997200918D-05 0.000000000000D+00  6 21 2 25 24 1 21 2 0.18612713D-01 0.11148202D+00 0.28597664D+05 0.28597664D+05 0.28597664D+05 0.12170865D+01  1  2  2  1  6  1       21 0.563345398722D-02 0.100000000000D+01
0.294507876704D-06 0.149102676466D-06 -.570375357247D-08 0.232997200918D-05 0.000000000000D+00  6 21 2 25 24 1 21 4 0.18612713D-01 0.11148202D+00 0.28597664D+05 0.28597664D+05 0.28597664D+05 0.12170865D+01  1  2  3  1  6  1       21 0.869817547216D-03 0.100000000000D+01
0.290277672929D-06 0.000000000000D+00 0.000000000000D+00 0.232997200918D-05 0.000000000000D+00  6 21 2 25 24 1 21 4 0.18612713D-01 0.11148202D+00 0.28597664D+05 0.28597664D+05 0.28597664D+05 0.12170865D+01  1  2 15  1  6  1       21 0.857323805071D-03 0.100000000000D+01
0.251998946453D-03 0.000000000000D+00 0.000000000000D+00 0.231321498831D-05 0.000000000000D+00  6 21 2 25 24 1 21 4 0.27435649D-01 0.11148202D+00 0.31485235D+05 0.31485235D+05 0.31485235D+05 0.12127020D+01  1  2 12  1  6  1       21 0.352107655870D+00 0.100000000000D+01
0.226361635731D-03 0.000000000000D+00 0.000000000000D+00 0.231321498831D-05 0.000000000000D+00  6 21 2 25 24 1 21 4 0.28470658D-01 0.11148202D+00 0.31485235D+05 0.31485235D+05 0.31485235D+05 0.12127020D+01  1  2 12  1  6  1       21 0.294475246896D+00 0.100000000000D+01
-.290835548006D-03 0.000000000000D+00 0.000000000000D+00 0.232997200918D-05 0.000000000000D+00  6 21 2 25 24 1 21 4 0.18612713D-01 0.11148202D+00 0.28597664D+05 0.28597664D+05 0.28597664D+05 0.12170865D+01  1  2  4  1  6  1       21 -.858971467389D+00 0.100000000000D+01
-.503807177069D-03 0.000000000000D+00 -.364408410390D-05 0.232997200918D-05 0.000000000000D+00  6 21 2 25 24 1 21 4 0.27443263D-01 0.11148202D+00 0.28597664D+05 0.28597664D+05 0.28597664D+05 0.12170865D+01  1  2  5  1  6  1       21 -.715867975453D+00 0.100000000000D+01
0.408319787034D-03 0.000000000000D+00 0.274274016948D-05 0.232997200918D-05 0.000000000000D+00  6 21 2 25 24 1 21 4 0.18612713D-01 0.11148202D+00 0.28597664D+05 0.28597664D+05 0.28597664D+05 0.12170865D+01  1  2  6  1  6  1       21 0.120595659312D+01 0.100000000000D+01
0.266316407826D-04 0.000000000000D+00 0.000000000000D+00 0.231321498831D-05 0.000000000000D+00  6 -1 2 25 24 1 -1 4 0.27435649D-01 0.11148202D+00 0.31485235D+05 0.31485235D+05 0.31485235D+05 0.12127020D+01  1  2 12  4  6  1       21 0.317743753435D-02 0.100000000000D+01
0.265538454906D-04 0.000000000000D+00 0.000000000000D+00 0.231321498831D-05 0.000000000000D+00  6 -1 2 25 24 1 -1 4 0.28470658D-01 0.11148202D+00 0.31485235D+05 0.31485235D+05 0.31485235D+05 0.12127020D+01  1  2 12  4  6  1       21 0.297750756514D-02 0.100000000000D+01
-.530962059162D-04 0.000000000000D+00 -.470504728923D-06 0.232997200918D-05 0.000000000000D+00  6 -1 2 25 24 1 -1 4 0.27443263D-01 0.11148202D+00 0.28597664D+05 0.28597664D+05 0.28597664D+05 0.12170865D+01  1  2  5  4  6  1       21 -.642882043645D-02 0.100000000000D+01
0.266316407826D-04 0.000000000000D+00 0.000000000000D+00 0.231321498831D-05 0.000000000000D+00  6 1 2 25 24 1 1 4 0.27435649D-01 0.11148202D+00 0.31485235D+05 0.31485235D+05 0.31485235D+05 0.12127020D+01  1  2 12  5  6  1       21 0.537587020937D-02 0.100000000000D+01
0.265538454906D-04 0.000000000000D+00 0.000000000000D+00 0.231321498831D-05 0.000000000000D+00  6 1 2 25 24 1 1 4 0.28470658D-01 0.11148202D+00 0.31485235D+05 0.31485235D+05 0.31485235D+05 0.12127020D+01  1  2 12  5  6  1       21 0.511633785882D-02 0.100000000000D+01
-.530962059162D-04 0.000000000000D+00 -.470504728923D-06 0.232997200918D-05 0.000000000000D+00  6 1 2 25 24 1 1 4 0.27443263D-01 0.11148202D+00 0.28597664D+05 0.28597664D+05 0.28597664D+05 0.12170865D+01  1  2  5  5  6  1       21 -.108780498390D-01 0.100000000000D+01
0.266316407826D-04 0.000000000000D+00 0.000000000000D+00 0.231321498831D-05 0.000000000000D+00  6 -2 2 25 24 1 -2 4 0.27435649D-01 0.11148202D+00 0.31485235D+05 0.31485235D+05 0.31485235D+05 0.12127020D+01  1  2 12  6  6  1       21 0.281864900742D-02 0.100000000000D+01
0.265538454906D-04 0.000000000000D+00 0.000000000000D+00 0.231321498831D-05 0.000000000000D+00  6 -2 2 25 24 1 -2 4 0.28470658D-01 0.11148202D+00 0.31485235D+05 0.31485235D+05 0.31485235D+05 0.12127020D+01  1  2 12  6  6  1       21 0.263039422204D-02 0.100000000000D+01
-.530962059162D-04 0.000000000000D+00 -.470504728923D-06 0.232997200918D-05 0.000000000000D+00  6 -2 2 25 24 1 -2 4 0.27443263D-01 0.11148202D+00 0.28597664D+05 0.28597664D+05 0.28597664D+05 0.12170865D+01  1  2  5  6  6  1       21 -.570194899674D-02 0.100000000000D+01
0.266316407826D-04 0.000000000000D+00 0.000000000000D+00 0.231321498831D-05 0.000000000000D+00  6 2 2 25 24 1 2 4 0.27435649D-01 0.11148202D+00 0.31485235D+05 0.31485235D+05 0.31485235D+05 0.12127020D+01  1  2 12  7  6  1       21 0.696681530642D-02 0.100000000000D+01
0.265538454906D-04 0.000000000000D+00 0.000000000000D+00 0.231321498831D-05 0.000000000000D+00  6 2 2 25 24 1 2 4 0.28470658D-01 0.11148202D+00 0.31485235D+05 0.31485235D+05 0.31485235D+05 0.12127020D+01  1  2 12  7  6  1       21 0.666956859610D-02 0.100000000000D+01
-.530962059162D-04 0.000000000000D+00 -.470504728923D-06 0.232997200918D-05 0.000000000000D+00  6 2 2 25 24 1 2 4 0.27443263D-01 0.11148202D+00 0.28597664D+05 0.28597664D+05 0.28597664D+05 0.12170865D+01  1  2  5  7  6  1       21 -.140953575232D-01 0.100000000000D+01
0.266316407826D-04 0.000000000000D+00 0.000000000000D+00 0.231321498831D-05 0.000000000000D+00  6 -3 2 25 24 1 -3 4 0.27435649D-01 0.11148202D+00 0.31485235D+05 0.31485235D+05 0.31485235D+05 0.12127020D+01  1  2 12  8  6  1       21 0.182102822081D-02 0.100000000000D+01
0.266316407826D-04 0.000000000000D+00 0.000000000000D+00 0.231321498831D-05 0.000000000000D+00  6 -4 2 25 24 1 -4 4 0.27435649D-01 0.11148202D+00 0.31485235D+05 0.31485235D+05 0.31485235D+05 0.12127020D+01  1  2 12  8  6  1       21 0.154063621933D-02 0.100000000000D+01
0.265538454906D-04 0.000000000000D+00 0.000000000000D+00 0.231321498831D-05 0.000000000000D+00  6 -3 2 25 24 1 -3 4 0.28470658D-01 0.11148202D+00 0.31485235D+05 0.31485235D+05 0.31485235D+05 0.12127020D+01  1  2 12  8  6  1       21 0.169592509677D-02 0.100000000000D+01
0.265538454906D-04 0.000000000000D+00 0.000000000000D+00 0.231321498831D-05 0.000000000000D+00  6 -4 2 25 24 1 -4 4 0.28470658D-01 0.11148202D+00 0.31485235D+05 0.31485235D+05 0.31485235D+05 0.12127020D+01  1  2 12  8  6  1       21 0.143267775851D-02 0.100000000000D+01
-.530962059162D-04 0.000000000000D+00 -.470504728923D-06 0.232997200918D-05 0.000000000000D+00  6 -3 2 25 24 1 -3 4 0.27443263D-01 0.11148202D+00 0.28597664D+05 0.28597664D+05 0.28597664D+05 0.12170865D+01  1  2  5  8  6  1       21 -.367627626050D-02 0.100000000000D+01
-.530962059162D-04 0.000000000000D+00 -.470504728923D-06 0.232997200918D-05 0.000000000000D+00  6 -4 2 25 24 1 -4 4 0.27443263D-01 0.11148202D+00 0.28597664D+05 0.28597664D+05 0.28597664D+05 0.12170865D+01  1  2  5  8  6  1       21 -.310713009742D-02 0.100000000000D+01
0.266316407826D-04 0.000000000000D+00 0.000000000000D+00 0.231321498831D-05 0.000000000000D+00  6 3 2 25 24 1 3 4 0.27435649D-01 0.11148202D+00 0.31485235D+05 0.31485235D+05 0.31485235D+05 0.12127020D+01  1  2 12  9  6  1       21 0.182101529402D-02 0.100000000000D+01
0.266316407826D-04 0.000000000000D+00 0.000000000000D+00 0.231321498831D-05 0.000000000000D+00  6 4 2 25 24 1 4 4 0.27435649D-01 0.11148202D+00 0.31485235D+05 0.31485235D+05 0.31485235D+05 0.12127020D+01  1  2 12  9  6  1       21 0.154063621933D-02 0.100000000000D+01
0.265538454906D-04 0.000000000000D+00 0.000000000000D+00 0.231321498831D-05 0.000000000000D+00  6 3 2 25 24 1 3 4 0.28470658D-01 0.11148202D+00 0.31485235D+05 0.31485235D+05 0.31485235D+05 0.12127020D+01  1  2 12  9  6  1       21 0.169593676905D-02 0.100000000000D+01
0.265538454906D-04 0.000000000000D+00 0.000000000000D+00 0.231321498831D-05 0.000000000000D+00  6 4 2 25 24 1 4 4 0.28470658D-01 0.11148202D+00 0.31485235D+05 0.31485235D+05 0.31485235D+05 0.12127020D+01  1  2 12  9  6  1       21 0.143267775851D-02 0.100000000000D+01
-.530962059162D-04 0.000000000000D+00 -.470504728923D-06 0.232997200918D-05 0.000000000000D+00  6 3 2 25 24 1 3 4 0.27443263D-01 0.11148202D+00 0.28597664D+05 0.28597664D+05 0.28597664D+05 0.12170865D+01  1  2  5  9  6  1       21 -.367624425327D-02 0.100000000000D+01
-.530962059162D-04 0.000000000000D+00 -.470504728923D-06 0.232997200918D-05 0.000000000000D+00  6 4 2 25 24 1 4 4 0.27443263D-01 0.11148202D+00 0.28597664D+05 0.28597664D+05 0.28597664D+05 0.12170865D+01  1  2  5  9  6  1       21 -.310713009742D-02 0.100000000000D+01
  </mgrwgt>
  </event>
  <event>
  5     66 0.46027262E-03 0.99458000E+02 0.75467711E-02 0.10900750E+00
       21 -1    0    0  501  502 0.00000000E+00 0.00000000E+00 0.52306647E+02 0.52312024E+02 0.75000000E+00 0.0000E+00 0.9000E+01
        2 -1    0    0  502    0 -.00000000E+00 -.00000000E+00 -.19980618E+04 0.19980619E+04 0.32000000E+00 0.0000E+00 0.9000E+01
       25  1    1    2    0    0 0.26668737E+03 -.19819138E+01 -.12676688E+04 0.13014358E+04 0.12500000E+03 0.0000E+00 0.9000E+01
       24  1    1    2    0    0 -.16816663E+03 0.15601014E+02 -.26709321E+03 0.32608190E+03 0.80419002E+02 0.0000E+00 0.9000E+01
        1  1    1    2  501    0 -.98520736E+02 -.13619100E+02 -.41099319E+03 0.42285615E+03 0.32000000E+00 0.0000E+00 0.9000E+01
#aMCatNLO 1  0  0  5  1 0.25790510D+01 0.00000000D+00  -5  6  0 0.00000000D+00 0.00000000D+00 0.00000000D+00 0.00000000D+00 0.00000000D+00
  <mgrwgt>
 0.3964114711D-01    1    2    0
 0.323291591823561D+03 0.000000000000000D+00 0.000000000000000D+00 0.323291591823561D+03
 0.323291591823561D+03 -.000000000000000D+00 -.000000000000000D+00 -.323291591823561D+03
 0.312190363429448D+03 0.266687593034611D+03 -.198188272640217D+01 -.103496970392736D+03
 0.230274716168883D+03 -.168166466461450D+03 0.156010370402755D+02 0.134297714624736D+03
 0.104118104048792D+03 -.985211265731612D+02 -.136191543138733D+02 -.308007442320000D+02
 0.000000000000000D+00 0.000000000000000D+00 0.000000000000000D+00 0.000000000000000D+00
 0.323291591823561D+03 0.000000000000000D+00 0.000000000000000D+00 0.323291591823561D+03
 0.323291591823561D+03 -.000000000000000D+00 -.000000000000000D+00 -.323291591823561D+03
 0.301000069842213D+03 0.251477283104447D+03 -.408449325579875D+01 -.108252182621258D+03
 0.236748542876345D+03 -.179751070736458D+03 0.139996291110905D+02 0.130676009862372D+03
 0.267917441991926D+02 -.580130907196913D+01 -.324407586670330D+01 0.259541584733069D+02
 0.820428267293713D+02 -.659249032960197D+02 -.667105998858844D+01 -.483779857144213D+02
0.190548337497D-04 0.000000000000D+00 0.000000000000D+00 0.368984844624D-07 0.000000000000D+00  6 21 2 25 24 1 21 4 0.80475920D-02 0.30739454D+00 0.84405132D+05 0.84405132D+05 0.84405132D+05 0.11703968D+01  1  2 14  3  6  5        1 0.396411471111D-01 0.100000000000D+01
  </mgrwgt>
  </event>
  <event>
  5     66 0.46027262E-03 0.84444420E+02 0.75467711E-02 0.10914031E+00
       21 -1    0    0  501  502 0.00000000E+00 0.00000000E+00 0.46092850E+03 0.46092911E+03 0.75000000E+00 0.0000E+00 0.9000E+01
        2 -1    0    0  502    0 0.00000000E+00 0.00000000E+00 -.42782543E+03 0.42782555E+03 0.32000000E+00 0.0000E+00 0.9000E+01
       25  1    1    2    0    0 -.20891997E+03 -.80441524E+02 -.23546850E+03 0.34812183E+03 0.12500000E+03 0.0000E+00 0.9000E+01
       24  1    1    2    0    0 0.19158796E+03 -.22050527E+01 -.47770610E+02 0.21321364E+03 0.80419002E+02 0.0000E+00 0.9000E+01
        1  1    1    2  501    0 0.17332012E+02 0.82646577E+02 0.31634218E+03 0.32741920E+03 0.32000000E+00 0.0000E+00 0.9000E+01
#aMCatNLO 1  0  0  1  2 0.34246799D+02 0.00000000D+00  -5  6  0 0.00000000D+00 0.00000000D+00 0.00000000D+00 0.00000000D+00 0.00000000D+00
  <mgrwgt>
 0.2563031402D+00    4    2    0
 0.444068979652865D+03 0.000000000000000D+00 0.000000000000000D+00 0.444068979652865D+03
 0.444068979652865D+03 0.000000000000000D+00 0.000000000000000D+00 -.444068979652865D+03
 0.357140090207079D+03 -.208919971142954D+03 -.804415411896190D+02 -.248607417712720D+03
 0.215142220418435D+03 0.191587953515366D+03 -.220506299590329D+01 -.557508100136861D+02
 0.315855648680216D+03 0.173320176275877D+02 0.826466041855223D+02 0.304358227726406D+03
 0.000000000000000D+00 -.000000000000000D+00 0.000000000000000D+00 -.000000000000000D+00
 0.447731550466961D+03 0.000000000000000D+00 0.000000000000000D+00 0.447731550466961D+03
 0.532382852164793D+03 0.000000000000000D+00 0.000000000000000D+00 -.532382852164793D+03
 0.360252122306858D+03 -.208484572727716D+03 -.942609485383550D+02 -.248607417712720D+03
 0.215619735920735D+03 0.191849390801502D+03 -.105029993843246D+02 -.557508100136861D+02
 0.312926137929088D+03 0.177136367595557D+02 0.705341341990277D+02 0.304358227726406D+03
 0.913164064750735D+02 -.107845483334226D+01 0.342298137236519D+02 -.846513016978319D+02
0.979881842175D-03 0.000000000000D+00 0.000000000000D+00 0.509160586479D-06 0.000000000000D+00  6 21 2 25 24 1 21 2 0.70912133D-01 0.65819354D-01 0.75252118D+05 0.75252118D+05 0.75252118D+05 0.11750883D+01  1  2  2  1  6  1       21 0.218140275899D+00 0.100000000000D+01
0.111606801201D-03 0.517097854577D-04 -.197809912288D-05 0.509160586479D-06 0.000000000000D+00  6 21 2 25 24 1 21 4 0.70912133D-01 0.65819354D-01 0.75252118D+05 0.75252118D+05 0.75252118D+05 0.11750883D+01  1  2  3  1  6  1       21 0.343078750839D-01 0.100000000000D+01
0.982566983080D-04 0.000000000000D+00 0.000000000000D+00 0.509160586479D-06 0.000000000000D+00  6 21 2 25 24 1 21 4 0.70912133D-01 0.65819354D-01 0.75252118D+05 0.75252118D+05 0.75252118D+05 0.11750883D+01  1  2 15  1  6  1       21 0.302040601058D-01 0.100000000000D+01
-.857160493177D-04 0.000000000000D+00 0.000000000000D+00 0.509160586479D-06 0.000000000000D+00  6 21 2 25 24 1 21 4 0.70912133D-01 0.65819354D-01 0.75252118D+05 0.75252118D+05 0.75252118D+05 0.11750883D+01  1  2  4  1  6  1       21 -.263490708543D-01 0.100000000000D+01
  </mgrwgt>
  </event>
  <event>
  6     66 0.46027262E-03 0.23493506E+03 0.75467711E-02 0.98117664E-01
       21 -1    0    0  501  503 0.00000000E+00 0.00000000E+00 0.48006935E+03 0.48006993E+03 0.75000000E+00 0.0000E+00 0.9000E+01
        2 -1    0    0  502    0 0.00000000E+00 0.00000000E+00 -.31839834E+04 0.31839834E+04 0.32000000E+00 0.0000E+00 0.9000E+01
       25  1    1    2    0    0 -.73938813E+00 0.22309242E+03 -.17819626E+04 0.18002184E+04 0.12500000E+03 0.0000E+00 0.9000E+01
       24  1    1    2    0    0 0.90382114E+02 -.14700777E+02 -.54553485E+03 0.55898168E+03 0.80419002E+02 0.0000E+00 0.9000E+01
        1  1    1    2  501    0 -.44670918E+03 0.85286828E+02 -.63042871E+03 0.77734381E+03 0.32000000E+00 0.0000E+00 0.9000E+01
       21  1    1    2  502  503 0.35706646E+03 -.29367847E+03 0.25401208E+03 0.52750943E+03 0.75000000E+00 0.0000E+00 0.9000E+01
#aMCatNLO 2  0  0  1  2 0.23274503D+02 0.00000000D+00  -5  6  0 0.00000000D+00 0.00000000D+00 0.00000000D+00 0.00000000D+00 0.00000000D+00
  <mgrwgt>
 0.1930956654D-01    1    2    0
 0.467663686210222D+03 0.000000000000000D+00 0.000000000000000D+00 0.467663686210222D+03
 0.467663686210222D+03 0.000000000000000D+00 0.000000000000000D+00 -.467663686210222D+03
 0.331187887431504D+03 0.123980730855810D+03 0.120513187008683D+03 -.253309626573512D+03
 0.188392400381078D+03 0.148527223827011D+03 -.625236973395554D+02 -.552714358435390D+02
 0.415747084607861D+03 -.272507954682821D+03 -.579894896691276D+02 0.308581062417051D+03
 0.000000000000000D+00 0.000000000000000D+00 -.000000000000000D+00 0.000000000000000D+00
 0.280420537712224D+04 0.000000000000000D+00 0.000000000000000D+00 0.280420537712224D+04
 0.545086185686899D+03 0.000000000000000D+00 0.000000000000000D+00 -.545086185686899D+03
 0.359946591657648D+03 -.739372303362643D+00 0.223092436581213D+03 -.253309626573512D+03
 0.133817744410914D+03 0.903821251331212D+02 -.147007687237262D+02 -.552714358435390D+02
 0.549586416490303D+03 -.446709209985029D+03 0.852868033330329D+02 0.308581062417051D+03
 0.230594081025027D+04 0.357066457155271D+03 -.293678471190520D+03 0.225911919143534D+04
0.479083128961D-02 0.000000000000D+00 0.000000000000D+00 0.227860681316D-06 0.424214975799D-09  6 21 2 25 24 1 21 4 0.73856861D-01 0.48984360D+00 0.41906058D+06 0.41906058D+06 0.41906058D+06 0.11103976D+01  1  2  1  1  6  1       21 0.193095665368D-01 0.100000000000D+01
  </mgrwgt>
  </event>
  <event>
  5     66 0.46027262E-03 0.24753579E+02 0.75467711E-02 0.12079040E+00
       21 -1    0    0  501  502 0.00000000E+00 0.00000000E+00 0.56689888E+03 0.56689938E+03 0.75000000E+00 0.0000E+00 0.9000E+01
        2 -1    0    0  502    0 0.00000000E+00 0.00000000E+00 -.43175929E+02 0.43177115E+02 0.32000000E+00 0.0000E+00 0.9000E+01
       25  1    1    2    0    0 -.47965683E+02 -.50020887E+02 0.24413496E+03 0.28289516E+03 0.12500000E+03 0.0000E+00 0.9000E+01
       24  1    1    2    0    0 0.31605464E+02 0.31444844E+02 0.68536200E+02 0.11468265E+03 0.80419002E+02 0.0000E+00 0.9000E+01
        1  1    1    2  501    0 0.16360218E+02 0.18576043E+02 0.21105180E+03 0.21249868E+03 0.32000000E+00 0.0000E+00 0.9000E+01
#aMCatNLO 1  0  0  5  2 0.30652604D+02 0.00000000D+00  -5  6  0 0.00000000D+00 0.00000000D+00 0.00000000D+00 0.00000000D+00 0.00000000D+00
  <mgrwgt>
 0.1800679549D+00    4    2    0
 0.156450947637632D+03 0.000000000000000D+00 0.000000000000000D+00 0.156450947637632D+03
 0.156450947637632D+03 -.000000000000000D+00 -.000000000000000D+00 -.156450947637632D+03
 0.142947775278124D+03 -.479657852993127D+02 -.500210035126381D+02 0.249982102836884D+01
 0.108887923278707D+03 0.316053860997866D+02 0.314447552607990D+02 -.583240157881025D+02
 0.610661967184340D+02 0.163603991995261D+02 0.185762482518391D+02 0.558241947597337D+02
 0.000000000000000D+00 -.000000000000000D+00 0.000000000000000D+00 0.000000000000000D+00
 0.156450947637632D+03 0.000000000000000D+00 0.000000000000000D+00 0.156450947637632D+03
 0.156450947637632D+03 -.000000000000000D+00 -.000000000000000D+00 -.156450947637632D+03
 0.140715429831038D+03 -.425613055315349D+02 -.438845421333100D+02 0.209407360361278D+02
 0.104950890199464D+03 0.356795399561658D+02 0.360707116649973D+02 -.444223771064363D+02
 0.315252093619862D+02 0.294445073837799D+02 0.105033586326175D+02 -.406684984702063D+01
 0.357103658827764D+02 -.225627418084109D+02 -.268952816430479D+01 0.275484909173290D+02
0.107052053036D-03 0.000000000000D+00 0.000000000000D+00 0.214486486287D-05 0.000000000000D+00  6 21 2 25 24 1 21 2 0.87215342D-01 0.66425800D-02 0.16851930D+05 0.16851930D+05 0.16851930D+05 0.12420997D+01  1  2  2  3  6  5        1 0.244590300717D+00 0.100000000000D+01
0.117906782371D-04 0.564929204423D-05 -.216107252016D-06 0.214486486287D-05 0.000000000000D+00  6 21 2 25 24 1 21 4 0.87215342D-01 0.66425800D-02 0.16851930D+05 0.16851930D+05 0.16851930D+05 0.12420997D+01  1  2  3  3  6  5        1 0.415619512227D-01 0.100000000000D+01
0.107027073296D-04 0.000000000000D+00 0.000000000000D+00 0.214486486287D-05 0.000000000000D+00  6 21 2 25 24 1 21 4 0.87215342D-01 0.66425800D-02 0.16851930D+05 0.16851930D+05 0.16851930D+05 0.12420997D+01  1  2 15  3  6  5        1 0.377268712651D-01 0.100000000000D+01
-.407976806444D-04 0.000000000000D+00 0.000000000000D+00 0.214486486287D-05 0.000000000000D+00  6 21 2 25 24 1 21 4 0.87215342D-01 0.66425800D-02 0.16851930D+05 0.16851930D+05 0.16851930D+05 0.12420997D+01  1  2  4  3  6  5        1 -.143811168351D+00 0.100000000000D+01
  </mgrwgt>
  </event>
  <event>
  5     66 -.46027262E-03 0.27970926E+02 0.75467711E-02 0.12025257E+00
       21 -1    0    0  501  502 0.00000000E+00 0.00000000E+00 0.52814540E+01 0.53344406E+01 0.75000000E+00 0.0000E+00 0.9000E+01
        2 -1    0    0  502    0 0.00000000E+00 0.00000000E+00 -.26679972E+04 0.26679972E+04 0.32000000E+00 0.0000E+00 0.9000E+01
       25  1    1    2    0    0 0.45692679E+01 0.12687236E+02 -.14631051E+04 0.14684970E+04 0.12500000E+03 0.0000E+00 0.9000E+01
       24  1    1    2    0    0 0.22599211E+02 -.60421693E+01 -.85601915E+03 0.86010653E+03 0.80419002E+02 0.0000E+00 0.9000E+01
        1  1    1    2  501    0 -.27168479E+02 -.66450664E+01 -.34359149E+03 0.34472815E+03 0.32000000E+00 0.0000E+00 0.9000E+01
#aMCatNLO 1  0  0  1  5 0.34964839D+01 0.00000000D+00  -5  6  0 0.00000000D+00 0.00000000D+00 0.00000000D+00 0.00000000D+00 0.00000000D+00
  <mgrwgt>
 -.6949307141D+00   12    2    0
 0.119003171229063D+03 0.000000000000000D+00 0.000000000000000D+00 0.119003171229063D+03
 0.119003171229063D+03 0.000000000000000D+00 0.000000000000000D+00 -.119003171229063D+03
 0.125822241555192D+03 0.457019979238307D+01 0.126874635627796D+02 -.493740945981538D+01
 0.840917561406529D+02 0.225998340496922D+02 -.604201693717011D+01 0.754645802385635D+01
 0.280923447622812D+02 -.271700338420753D+02 -.664544662560946D+01 -.260904856404097D+01
 0.000000000000000D+00 -.000000000000000D+00 0.000000000000000D+00 0.000000000000000D+00
 0.334915060057388D+03 0.000000000000000D+00 0.000000000000000D+00 0.334915060057388D+03
 0.125288970005190D+03 0.000000000000000D+00 0.000000000000000D+00 -.125288970005190D+03
 0.126098665564493D+03 0.458059058385828D+01 -.151826754847445D+02 -.493740945981538D+01
 0.875309933670328D+02 0.226069128436793D+02 -.250287296605614D+02 0.754645802385635D+01
 0.302748443330748D+02 -.271676264146894D+02 -.131026386645690D+02 -.260904856404097D+01
 0.216299526797977D+03 -.198770128481904D-01 0.533140438098750D+02 0.209626090052197D+03
0.217200492200D-05 0.000000000000D+00 0.000000000000D+00 0.760837947201D-06 0.000000000000D+00  6 21 2 25 24 1 21 2 0.81660875D-03 0.41046519D+00 0.14095473D+05 0.14095473D+05 0.14095473D+05 0.12509137D+01  1  2  2  1  6  1       21 0.752774832702D-01 0.100000000000D+01
-.107543175451D-07 0.114619848736D-06 -.438465215516D-08 0.760837947201D-06 0.000000000000D+00  6 21 2 25 24 1 21 4 0.81660875D-03 0.41046519D+00 0.14095473D+05 0.14095473D+05 0.14095473D+05 0.12509137D+01  1  2  3  1  6  1       21 -.583232657871D-03 0.100000000000D+01
0.232326876347D-06 0.000000000000D+00 0.000000000000D+00 0.760837947201D-06 0.000000000000D+00  6 21 2 25 24 1 21 4 0.81660875D-03 0.41046519D+00 0.14095473D+05 0.14095473D+05 0.14095473D+05 0.12509137D+01  1  2 15  1  6  1       21 0.125996485614D-01 0.100000000000D+01
-.738824426233D-04 0.000000000000D+00 -.567017607324D-05 0.760837947201D-06 0.000000000000D+00  6 21 2 25 24 1 21 4 0.24568937D-02 0.41046519D+00 0.14095473D+05 0.14095473D+05 0.14095473D+05 0.12509137D+01  1  2  5  1  6  1       21 -.694114373388D+00 0.100000000000D+01
-.268304935136D-04 0.000000000000D+00 -.200878454003D-05 0.760837947201D-06 0.000000000000D+00  6 -1 2 25 24 1 -1 4 0.24568937D-02 0.41046519D+00 0.14095473D+05 0.14095473D+05 0.14095473D+05 0.12509137D+01  1  2  5  4  6  1       21 -.125345266659D-01 0.100000000000D+01
-.268304935136D-04 0.000000000000D+00 -.200878454003D-05 0.760837947201D-06 0.000000000000D+00  6 1 2 25 24 1 1 4 0.24568937D-02 0.41046519D+00 0.14095473D+05 0.14095473D+05 0.14095473D+05 0.12509137D+01  1  2  5  5  6  1       21 -.133245623901D-01 0.100000000000D+01
-.268304935136D-04 0.000000000000D+00 -.200878454003D-05 0.760837947201D-06 0.000000000000D+00  6 -2 2 25 24 1 -2 4 0.24568937D-02 0.41046519D+00 0.14095473D+05 0.14095473D+05 0.14095473D+05 0.12509137D+01  1  2  5  6  6  1       21 -.123925843723D-01 0.100000000000D+01
-.268304935136D-04 0.000000000000D+00 -.200878454003D-05 0.760837947201D-06 0.000000000000D+00  6 2 2 25 24 1 2 4 0.24568937D-02 0.41046519D+00 0.14095473D+05 0.14095473D+05 0.14095473D+05 0.12509137D+01  1  2  5  7  6  1       21 -.138644192681D-01 0.100000000000D+01
-.268304935136D-04 0.000000000000D+00 -.200878454003D-05 0.760837947201D-06 0.000000000000D+00  6 -3 2 25 24 1 -3 4 0.24568937D-02 0.41046519D+00 0.14095473D+05 0.14095473D+05 0.14095473D+05 0.12509137D+01  1  2  5  8  6  1       21 -.946042350085D-02 0.100000000000D+01
-.268304935136D-04 0.000000000000D+00 -.200878454003D-05 0.760837947201D-06 0.000000000000D+00  6 -4 2 25 24 1 -4 4 0.24568937D-02 0.41046519D+00 0.14095473D+05 0.14095473D+05 0.14095473D+05 0.12509137D+01  1  2  5  8  6  1       21 -.853696819147D-02 0.100000000000D+01
-.268304935136D-04 0.000000000000D+00 -.200878454003D-05 0.760837947201D-06 0.000000000000D+00  6 3 2 25 24 1 3 4 0.24568937D-02 0.41046519D+00 0.14095473D+05 0.14095473D+05 0.14095473D+05 0.12509137D+01  1  2  5  9  6  1       21 -.945978725798D-02 0.100000000000D+01
-.268304935136D-04 0.000000000000D+00 -.200878454003D-05 0.760837947201D-06 0.000000000000D+00  6 4 2 25 24 1 4 4 0.24568937D-02 0.41046519D+00 0.14095473D+05 0.14095473D+05 0.14095473D+05 0.12509137D+01  1  2  5  9  6  1       21 -.853696819147D-02 0.100000000000D+01
  </mgrwgt>
  </event>
  <event>
  5     66 0.46027262E-03 0.25713011E+02 0.75467711E-02 0.11742700E+00
       21 -1    0    0  501  502 0.00000000E+00 0.00000000E+00 0.29296923E+03 0.29297019E+03 0.75000000E+00 0.0000E+00 0.9000E+01
        2 -1    0    0  502    0 -.00000000E+00 -.00000000E+00 -.32865591E+03 0.32865607E+03 0.32000000E+00 0.0000E+00 0.9000E+01
       25  1    1    2    0    0 0.11710626E+02 0.11916162E+03 0.13442404E+03 0.21916079E+03 0.12500000E+03 0.0000E+00 0.9000E+01
       24  1    1    2    0    0 -.21459061E+02 -.95368291E+02 -.27059761E+03 0.29874049E+03 0.80419002E+02 0.0000E+00 0.9000E+01
        1  1    1    2  501    0 0.97484348E+01 -.23793325E+02 0.10048689E+03 0.10372498E+03 0.32000000E+00 0.0000E+00 0.9000E+01
#aMCatNLO 1  0  0  5  2 0.19627582D+02 0.00000000D+00  -5  6  0 0.00000000D+00 0.00000000D+00 0.00000000D+00 0.00000000D+00 0.00000000D+00
  <mgrwgt>
 0.9198172401D-01    6    2    0
 0.310300529030606D+03 0.000000000000000D+00 0.000000000000000D+00 0.310300529030606D+03
 0.310300529030606D+03 -.000000000000000D+00 -.000000000000000D+00 -.310300529030606D+03
 0.227252584580450D+03 0.117106112245352D+02 0.119161653211098D+03 0.147248426773396D+03
 0.283673885863099D+03 -.214590801704677D+02 -.953682446104027D+02 -.253866231240919D+03
 0.109674587617662D+03 0.974846894593250D+01 -.237934086006953D+02 0.106617804467523D+03
 0.000000000000000D+00 0.000000000000000D+00 -.000000000000000D+00 0.000000000000000D+00
 0.310300529030606D+03 0.000000000000000D+00 0.000000000000000D+00 0.310300529030606D+03
 0.310300529030606D+03 -.000000000000000D+00 -.000000000000000D+00 -.310300529030606D+03
 0.228749141759175D+03 0.119638641540977D+02 0.118543530461175D+03 0.150018222879295D+03
 0.280846624434725D+03 -.211455583902354D+02 -.961334675252685D+02 -.250437282136550D+03
 0.421310278182873D+02 0.140691991999866D+02 0.811806783786346D+01 0.388738744335606D+02
 0.688742640490245D+02 -.488750496384889D+01 -.305281307737695D+02 0.615451848236946D+02
0.128754657566D-03 0.000000000000D+00 0.000000000000D+00 0.547787749298D-06 0.000000000000D+00  6 21 2 25 24 1 21 2 0.45072276D-01 0.50562534D-01 0.26469428D+05 0.26469428D+05 0.26469428D+05 0.12206472D+01  1  2  2  3  6  5        1 0.112439295188D+00 0.100000000000D+01
0.176227929734D-04 0.679456995001D-05 -.259918557764D-06 0.547787749298D-06 0.000000000000D+00  6 21 2 25 24 1 21 4 0.45072276D-01 0.50562534D-01 0.26469428D+05 0.26469428D+05 0.26469428D+05 0.12206472D+01  1  2  3  3  6  5        1 0.229303253850D-01 0.100000000000D+01
0.149783023193D-04 0.000000000000D+00 0.000000000000D+00 0.547787749298D-06 0.000000000000D+00  6 21 2 25 24 1 21 4 0.45072276D-01 0.50562534D-01 0.26469428D+05 0.26469428D+05 0.26469428D+05 0.12206472D+01  1  2 15  3  6  5        1 0.194893820981D-01 0.100000000000D+01
-.140224501208D-03 0.000000000000D+00 0.000000000000D+00 0.547787749298D-06 0.000000000000D+00  6 21 2 25 24 1 21 4 0.45072276D-01 0.50562534D-01 0.26469428D+05 0.26469428D+05 0.26469428D+05 0.12206472D+01  1  2  4  3  6  5        1 -.182456517789D+00 0.100000000000D+01
-.806456041677D-04 0.000000000000D+00 0.000000000000D+00 0.547787749298D-06 0.000000000000D+00  6 21 2 25 24 1 21 4 0.45072276D-01 0.50562534D-01 0.26469428D+05 0.26469428D+05 0.26469428D+05 0.12206472D+01  1  2  5  3  6  5        1 -.104933987888D+00 0.100000000000D+01
0.172546619077D-03 0.000000000000D+00 -.000000000000D+00 0.547787749298D-06 0.000000000000D+00  6 21 2 25 24 1 21 4 0.45072276D-01 0.50562534D-01 0.26469428D+05 0.26469428D+05 0.26469428D+05 0.12206472D+01  1  2  6  3  6  5        1 0.224513227016D+00 0.100000000000D+01
  </mgrwgt>
  </event>
  <event>
  6     66 -.46027262E-03 0.21172886E+02 0.75467711E-02 0.12402140E+00
       21 -1    0    0  501  502 0.00000000E+00 0.00000000E+00 0.64196275E+02 0.64200656E+02 0.75000000E+00 0.0000E+00 0.9000E+01
        2 -1    0    0  502    0 -.00000000E+00 -.00000000E+00 -.24095937E+03 0.24095958E+03 0.32000000E+00 0.0000E+00 0.9000E+01
       25  1    1    2    0    0 0.38584273E+02 0.11397869E+02 -.94223344E+02 0.16162208E+03 0.12500000E+03 0.0000E+00 0.9000E+01
       24  1    1    2    0    0 -.26917262E+02 0.11023567E+02 -.78454203E+02 0.11605316E+03 0.80419002E+02 0.0000E+00 0.9000E+01
        1  1    1    2  503    0 -.73947632E+01 -.84027711E+01 0.23823266E+01 0.11448448E+02 0.32000000E+00 0.0000E+00 0.9000E+01
       21  1    1    2  501  503 -.42722477E+01 -.14018665E+02 -.64678721E+01 0.16036550E+02 0.75000000E+00 0.0000E+00 0.9000E+01
#aMCatNLO 2  0  0  5  1 0.49459957D+01 0.00000000D+00  -5  6  0 0.00000000D+00 0.00000000D+00 0.00000000D+00 0.00000000D+00 0.00000000D+00
  <mgrwgt>
 -.1938601022D+00    1    2    0
 0.124376021465994D+03 0.000000000000000D+00 0.000000000000000D+00 0.124376021465994D+03
 0.124376021465994D+03 -.000000000000000D+00 -.000000000000000D+00 -.124376021465994D+03
 0.131485337656144D+03 0.389376896229934D+02 0.120770585194456D+02 -.118110240519611D+01
 0.866530547213249D+02 -.266842441491848D+02 0.114713759766515D+02 -.140675010415989D+02
 0.306136505545187D+02 -.122534454738086D+02 -.235484344960971D+02 0.152486034467950D+02
 0.000000000000000D+00 0.000000000000000D+00 -.000000000000000D+00 0.000000000000000D+00
 0.124376021465994D+03 0.000000000000000D+00 0.000000000000000D+00 0.124376021465994D+03
 0.124376021465994D+03 -.000000000000000D+00 -.000000000000000D+00 -.124376021465994D+03
 0.131320633492819D+03 0.385916118644242D+02 0.114119729771266D+02 -.750431496066276D+00
 0.866210414766058D+02 -.269124212738070D+02 0.110328695921283D+02 -.137835496830663D+02
 0.152173697876047D+02 -.717398501006453D+01 -.799734590327559D+01 0.107770469439190D+02
 0.155929981749581D+02 -.450520558055270D+01 -.144474966659794D+02 0.375693423521357D+01
-.569361996271D-05 0.000000000000D+00 0.000000000000D+00 0.119796652038D-05 0.000000000000D+00  6 21 2 25 24 1 21 4 0.98767034D-02 0.37071025D-01 0.14727403D+05 0.14727403D+05 0.14727403D+05 0.12487316D+01  1  2 13  3  6  5        1 -.193860102216D+00 0.100000000000D+01
  </mgrwgt>
  </event>
  <event>
  5     66 0.46027262E-03 0.27239334E+02 0.75467711E-02 0.11941005E+00
       21 -1    0    0  501  502 0.00000000E+00 0.00000000E+00 0.95097467E+01 0.95392758E+01 0.75000000E+00 0.0000E+00 0.9000E+01
        2 -1    0    0  502    0 0.00000000E+00 0.00000000E+00 -.19069926E+04 0.19069926E+04 0.32000000E+00 0.0000E+00 0.9000E+01
       25  1    1    2    0    0 -.27409451E+01 0.67959668E+01 -.96177289E+03 0.96988958E+03 0.12500000E+03 0.0000E+00 0.9000E+01
       24  1    1    2    0    0 -.35235271E+01 0.19712835E+02 -.88675012E+03 0.89061440E+03 0.80419002E+02 0.0000E+00 0.9000E+01
        1  1    1    2  501    0 0.62644722E+01 -.26508802E+02 -.48959834E+02 0.56027921E+02 0.32000000E+00 0.0000E+00 0.9000E+01
#aMCatNLO 1  0  0  2  1 0.10461306D+02 0.00000000D+00  -5  6  0 0.00000000D+00 0.00000000D+00 0.00000000D+00 0.00000000D+00 0.00000000D+00
  <mgrwgt>
 0.2436756968D+00    4    2    0
 0.134771431260448D+03 0.000000000000000D+00 0.000000000000000D+00 0.134771431260448D+03
 0.134771431260448D+03 0.000000000000000D+00 0.000000000000000D+00 -.134771431260448D+03
 0.125682272240363D+03 -.274099697042912D+01 0.679618608629569D+01 -.108320056217294D+02
 0.901444525073997D+02 -.352356427418999D+01 0.197129927610009D+02 -.354653179134021D+02
 0.537161377731328D+02 0.626456124461911D+01 -.265091788472966D+02 0.462973235351315D+02
 0.000000000000000D+00 -.000000000000000D+00 0.000000000000000D+00 0.000000000000000D+00
 0.191026154111108D+03 0.000000000000000D+00 0.000000000000000D+00 0.191026154111108D+03
 0.157625486835007D+03 0.000000000000000D+00 0.000000000000000D+00 -.157625486835007D+03
 0.127732264006292D+03 0.223298917981818D+02 -.863567337648823D+01 -.108320056217294D+02
 0.894704536169731D+02 0.142461556452926D+02 0.877521456648334D+01 -.354653179134021D+02
 0.597151198661782D+02 0.174865790707427D+02 -.334166564233774D+02 0.462973235351315D+02
 0.717338034566715D+02 -.540626265142171D+02 0.332771152333823D+02 0.334006672761014D+02
0.768071870830D-05 0.000000000000D+00 0.000000000000D+00 0.225070191479D-05 0.000000000000D+00  6 21 2 25 24 1 21 2 0.14653115D-02 0.29338575D+00 0.13844906D+05 0.13844906D+05 0.13844906D+05 0.12518095D+01  1  2  2  2  6  2        2 0.264057577373D+00 0.100000000000D+01
0.544265109055D-06 0.405322661848D-06 -.155051581589D-07 0.225070191479D-05 0.000000000000D+00  6 21 2 25 24 1 21 4 0.14653115D-02 0.29338575D+00 0.13844906D+05 0.13844906D+05 0.13844906D+05 0.12518095D+01  1  2  3  2  6  2        2 0.293213376598D-01 0.100000000000D+01
0.828547082030D-06 0.000000000000D+00 0.000000000000D+00 0.225070191479D-05 0.000000000000D+00  6 21 2 25 24 1 21 4 0.14653115D-02 0.29338575D+00 0.13844906D+05 0.13844906D+05 0.13844906D+05 0.12518095D+01  1  2 15  2  6  2        2 0.446365353117D-01 0.100000000000D+01
-.175114235337D-05 0.000000000000D+00 0.000000000000D+00 0.225070191479D-05 0.000000000000D+00  6 21 2 25 24 1 21 4 0.14653115D-02 0.29338575D+00 0.13844906D+05 0.13844906D+05 0.13844906D+05 0.12518095D+01  1  2  4  2  6  2        2 -.943397535124D-01 0.100000000000D+01
  </mgrwgt>
  </event>
  <event>
  5     66 0.46027262E-03 0.24638524E+02 0.75467711E-02 0.12192786E+00
       21 -1    0    0  501  502 0.00000000E+00 0.00000000E+00 0.15892288E+02 0.15909975E+02 0.75000000E+00 0.0000E+00 0.9000E+01
        2 -1    0    0  502    0 0.00000000E+00 0.00000000E+00 -.11162930E+04 0.11162930E+04 0.32000000E+00 0.0000E+00 0.9000E+01
       25  1    1    2    0    0 0.28023092E+02 0.48008984E+02 -.53384963E+03 0.55109943E+03 0.12500000E+03 0.0000E+00 0.9000E+01
       24  1    1    2    0    0 -.34594983E+01 -.49914227E+02 -.51875366E+03 0.52732909E+03 0.80419002E+02 0.0000E+00 0.9000E+01
        1  1    1    2  501    0 -.24563594E+02 0.19052432E+01 -.47797402E+02 0.53774475E+02 0.32000000E+00 0.0000E+00 0.9000E+01
#aMCatNLO 1  0  0  1  5 0.14877900D+02 0.00000000D+00  -5  6  0 0.00000000D+00 0.00000000D+00 0.00000000D+00 0.00000000D+00 0.00000000D+00
  <mgrwgt>
 0.1713993442D+00   32    2    0
 0.133230957692333D+03 0.000000000000000D+00 0.000000000000000D+00 0.133230957692333D+03
 0.133230957692333D+03 0.000000000000000D+00 0.000000000000000D+00 -.133230957692333D+03
 0.137010019400314D+03 0.280237607295445D+02 0.480089320290364D+02 0.752041861062255D+01
 0.983507302420648D+02 -.345901835721617D+01 -.499142643186643D+02 -.265000300812627D+02
 0.311011657422872D+02 -.245647423723283D+02 0.190533228962783D+01 0.189796114706402D+02
 0.000000000000000D+00 -.000000000000000D+00 0.000000000000000D+00 0.000000000000000D+00
 0.195207489377756D+03 0.000000000000000D+00 0.000000000000000D+00 0.195207489377756D+03
 0.134334358578178D+03 0.000000000000000D+00 0.000000000000000D+00 -.134334358578178D+03
 0.135706079618393D+03 0.318805043641965D+02 0.414513786356877D+02 0.752041861062255D+01
 0.100808287621750D+03 -.642516958165530D+00 -.547031121281927D+02 -.265000300812627D+02
 0.303625786505869D+02 -.236955237753989D+02 0.427415191731225D+00 0.189796114706402D+02
 0.626649020652037D+02 -.754246363063208D+01 0.128243183007737D+02 0.608731307995786D+02
0.705363749799D-06 0.000000000000D+00 0.000000000000D+00 0.124257678552D-05 0.000000000000D+00  6 21 2 25 24 1 21 2 0.24463315D-02 0.17173875D+00 0.16403887D+05 0.16403887D+05 0.16403887D+05 0.12434171D+01  1  2  2  1  6  1       21 0.272808538434D-01 0.100000000000D+01
0.399307817688D-07 0.372230677229D-07 -.142392618654D-08 0.124257678552D-05 0.000000000000D+00  6 21 2 25 24 1 21 4 0.24463315D-02 0.17173875D+00 0.16403887D+05 0.16403887D+05 0.16403887D+05 0.12434171D+01  1  2  3  1  6  1       21 0.238773618513D-02 0.100000000000D+01
0.698160870076D-07 0.000000000000D+00 0.000000000000D+00 0.124257678552D-05 0.000000000000D+00  6 21 2 25 24 1 21 4 0.24463315D-02 0.17173875D+00 0.16403887D+05 0.16403887D+05 0.16403887D+05 0.12434171D+01  1  2 15  1  6  1       21 0.417478421078D-02 0.100000000000D+01
0.113881618495D-04 0.000000000000D+00 0.000000000000D+00 0.123140905160D-05 0.000000000000D+00  6 21 2 25 24 1 21 4 0.35907554D-02 0.17173875D+00 0.18406031D+05 0.18406031D+05 0.18406031D+05 0.12378169D+01  1  2 12  1  6  1       21 0.356841224966D+00 0.100000000000D+01
0.981910017634D-05 0.000000000000D+00 0.000000000000D+00 0.123140905160D-05 0.000000000000D+00  6 21 2 25 24 1 21 4 0.38265037D-02 0.17173875D+00 0.18406031D+05 0.18406031D+05 0.18406031D+05 0.12378169D+01  1  2 12  1  6  1       21 0.276901263462D+00 0.100000000000D+01
-.133874915069D-04 0.000000000000D+00 0.000000000000D+00 0.124257678552D-05 0.000000000000D+00  6 21 2 25 24 1 21 4 0.24463315D-02 0.17173875D+00 0.16403887D+05 0.16403887D+05 0.16403887D+05 0.12434171D+01  1  2  4  1  6  1       21 -.800530229639D+00 0.100000000000D+01
-.240425981146D-04 0.000000000000D+00 -.923995782875D-06 0.124257678552D-05 0.000000000000D+00  6 21 2 25 24 1 21 4 0.36108892D-02 0.17173875D+00 0.16403887D+05 0.16403887D+05 0.16403887D+05 0.12434171D+01  1  2  5  1  6  1       21 -.759405539629D+00 0.100000000000D+01
0.178563850788D-04 0.000000000000D+00 0.694404255487D-06 0.124257678552D-05 0.000000000000D+00  6 21 2 25 24 1 21 4 0.24463315D-02 0.17173875D+00 0.16403887D+05 0.16403887D+05 0.16403887D+05 0.12434171D+01  1  2  6  1  6  1       21 0.106775612447D+01 0.100000000000D+01
0.151596261019D-05 0.000000000000D+00 0.000000000000D+00 0.123140905160D-05 0.000000000000D+00  6 -1 2 25 24 1 -1 4 0.35907554D-02 0.17173875D+00 0.18406031D+05 0.18406031D+05 0.18406031D+05 0.12378169D+01  1  2 12  4  6  1       21 0.254398939909D-02 0.100000000000D+01
0.157160034712D-05 0.000000000000D+00 0.000000000000D+00 0.123140905160D-05 0.000000000000D+00  6 -1 2 25 24 1 -1 4 0.38265037D-02 0.17173875D+00 0.18406031D+05 0.18406031D+05 0.18406031D+05 0.12378169D+01  1  2 12  4  6  1       21 0.240279880156D-02 0.100000000000D+01
-.326723062967D-05 0.000000000000D+00 -.119706910449D-06 0.124257678552D-05 0.000000000000D+00  6 -1 2 25 24 1 -1 4 0.36108892D-02 0.17173875D+00 0.16403887D+05 0.16403887D+05 0.16403887D+05 0.12434171D+01  1  2  5  4  6  1       21 -.552359564397D-02 0.100000000000D+01
0.151596261019D-05 0.000000000000D+00 0.000000000000D+00 0.123140905160D-05 0.000000000000D+00  6 1 2 25 24 1 1 4 0.35907554D-02 0.17173875D+00 0.18406031D+05 0.18406031D+05 0.18406031D+05 0.12378169D+01  1  2 12  5  6  1       21 0.277665271773D-02 0.100000000000D+01
0.157160034712D-05 0.000000000000D+00 0.000000000000D+00 0.123140905160D-05 0.000000000000D+00  6 1 2 25 24 1 1 4 0.38265037D-02 0.17173875D+00 0.18406031D+05 0.18406031D+05 0.18406031D+05 0.12378169D+01  1  2 12  5  6  1       21 0.263693683284D-02 0.100000000000D+01
-.326723062967D-05 0.000000000000D+00 -.119706910449D-06 0.124257678552D-05 0.000000000000D+00  6 1 2 25 24 1 1 4 0.36108892D-02 0.17173875D+00 0.16403887D+05 0.16403887D+05 0.16403887D+05 0.12434171D+01  1  2  5  5  6  1       21 -.603261159159D-02 0.100000000000D+01
0.151596261019D-05 0.000000000000D+00 0.000000000000D+00 0.123140905160D-05 0.000000000000D+00  6 -2 2 25 24 1 -2 4 0.35907554D-02 0.17173875D+00 0.18406031D+05 0.18406031D+05 0.18406031D+05 0.12378169D+01  1  2 12  6  6  1       21 0.250250463655D-02 0.100000000000D+01
0.157160034712D-05 0.000000000000D+00 0.000000000000D+00 0.123140905160D-05 0.000000000000D+00  6 -2 2 25 24 1 -2 4 0.38265037D-02 0.17173875D+00 0.18406031D+05 0.18406031D+05 0.18406031D+05 0.12378169D+01  1  2 12  6  6  1       21 0.236113092902D-02 0.100000000000D+01
-.326723062967D-05 0.000000000000D+00 -.119706910449D-06 0.124257678552D-05 0.000000000000D+00  6 -2 2 25 24 1 -2 4 0.36108892D-02 0.17173875D+00 0.16403887D+05 0.16403887D+05 0.16403887D+05 0.12434171D+01  1  2  5  6  6  1       21 -.543282054961D-02 0.100000000000D+01
0.151596261019D-05 0.000000000000D+00 0.000000000000D+00 0.123140905160D-05 0.000000000000D+00  6 2 2 25 24 1 2 4 0.35907554D-02 0.17173875D+00 0.18406031D+05 0.18406031D+05 0.18406031D+05 0.12378169D+01  1  2 12  7  6  1       21 0.293398413870D-02 0.100000000000D+01
0.157160034712D-05 0.000000000000D+00 0.000000000000D+00 0.123140905160D-05 0.000000000000D+00  6 2 2 25 24 1 2 4 0.38265037D-02 0.17173875D+00 0.18406031D+05 0.18406031D+05 0.18406031D+05 0.12378169D+01  1  2 12  7  6  1       21 0.279501339587D-02 0.100000000000D+01
-.326723062967D-05 0.000000000000D+00 -.119706910449D-06 0.124257678552D-05 0.000000000000D+00  6 2 2 25 24 1 2 4 0.36108892D-02 0.17173875D+00 0.16403887D+05 0.16403887D+05 0.16403887D+05 0.12434171D+01  1  2  5  7  6  1       21 -.637664570714D-02 0.100000000000D+01
0.151596261019D-05 0.000000000000D+00 0.000000000000D+00 0.123140905160D-05 0.000000000000D+00  6 -3 2 25 24 1 -3 4 0.35907554D-02 0.17173875D+00 0.18406031D+05 0.18406031D+05 0.18406031D+05 0.12378169D+01  1  2 12  8  6  1       21 0.186709497364D-02 0.100000000000D+01
0.151596261019D-05 0.000000000000D+00 0.000000000000D+00 0.123140905160D-05 0.000000000000D+00  6 -4 2 25 24 1 -4 4 0.35907554D-02 0.17173875D+00 0.18406031D+05 0.18406031D+05 0.18406031D+05 0.12378169D+01  1  2 12  8  6  1       21 0.167606607352D-02 0.100000000000D+01
0.157160034712D-05 0.000000000000D+00 0.000000000000D+00 0.123140905160D-05 0.000000000000D+00  6 -3 2 25 24 1 -3 4 0.38265037D-02 0.17173875D+00 0.18406031D+05 0.18406031D+05 0.18406031D+05 0.12378169D+01  1  2 12  8  6  1       21 0.175291249246D-02 0.100000000000D+01
0.157160034712D-05 0.000000000000D+00 0.000000000000D+00 0.123140905160D-05 0.000000000000D+00  6 -4 2 25 24 1 -4 4 0.38265037D-02 0.17173875D+00 0.18406031D+05 0.18406031D+05 0.18406031D+05 0.12378169D+01  1  2 12  8  6  1       21 0.157127098200D-02 0.100000000000D+01
-.326723062967D-05 0.000000000000D+00 -.119706910449D-06 0.124257678552D-05 0.000000000000D+00  6 -3 2 25 24 1 -3 4 0.36108892D-02 0.17173875D+00 0.16403887D+05 0.16403887D+05 0.16403887D+05 0.12434171D+01  1  2  5  8  6  1       21 -.404133027777D-02 0.100000000000D+01
-.326723062967D-05 0.000000000000D+00 -.119706910449D-06 0.124257678552D-05 0.000000000000D+00  6 -4 2 25 24 1 -4 4 0.36108892D-02 0.17173875D+00 0.16403887D+05 0.16403887D+05 0.16403887D+05 0.12434171D+01  1  2  5  8  6  1       21 -.362313673474D-02 0.100000000000D+01
0.151596261019D-05 0.000000000000D+00 0.000000000000D+00 0.123140905160D-05 0.000000000000D+00  6 3 2 25 24 1 3 4 0.35907554D-02 0.17173875D+00 0.18406031D+05 0.18406031D+05 0.18406031D+05 0.12378169D+01  1  2 12  9  6  1       21 0.186694000882D-02 0.100000000000D+01
0.151596261019D-05 0.000000000000D+00 0.000000000000D+00 0.123140905160D-05 0.000000000000D+00  6 4 2 25 24 1 4 4 0.35907554D-02 0.17173875D+00 0.18406031D+05 0.18406031D+05 0.18406031D+05 0.12378169D+01  1  2 12  9  6  1       21 0.167606607352D-02 0.100000000000D+01
0.157160034712D-05 0.000000000000D+00 0.000000000000D+00 0.123140905160D-05 0.000000000000D+00  6 3 2 25 24 1 3 4 0.38265037D-02 0.17173875D+00 0.18406031D+05 0.18406031D+05 0.18406031D+05 0.12378169D+01  1  2 12  9  6  1       21 0.175276158861D-02 0.100000000000D+01
0.157160034712D-05 0.000000000000D+00 0.000000000000D+00 0.123140905160D-05 0.000000000000D+00  6 4 2 25 24 1 4 4 0.38265037D-02 0.17173875D+00 0.18406031D+05 0.18406031D+05 0.18406031D+05 0.12378169D+01  1  2 12  9  6  1       21 0.157127098200D-02 0.100000000000D+01
-.326723062967D-05 0.000000000000D+00 -.119706910449D-06 0.124257678552D-05 0.000000000000D+00  6 3 2 25 24 1 3 4 0.36108892D-02 0.17173875D+00 0.16403887D+05 0.16403887D+05 0.16403887D+05 0.12434171D+01  1  2  5  9  6  1       21 -.404099049727D-02 0.100000000000D+01
-.326723062967D-05 0.000000000000D+00 -.119706910449D-06 0.124257678552D-05 0.000000000000D+00  6 4 2 25 24 1 4 4 0.36108892D-02 0.17173875D+00 0.16403887D+05 0.16403887D+05 0.16403887D+05 0.12434171D+01  1  2  5  9  6  1       21 -.362313673474D-02 0.100000000000D+01
  </mgrwgt>
  </event>
  <event>
  6     66 -.46027262E-03 0.28008857E+02 0.75467711E-02 0.12229675E+00
       21 -1    0    0  501  502 0.00000000E+00 0.00000000E+00 0.28708413E+03 0.28708511E+03 0.75000000E+00 0.0000E+00 0.9000E+01
        2 -1    0    0  503    0 0.00000000E+00 0.00000000E+00 -.73339994E+02 0.73340692E+02 0.32000000E+00 0.0000E+00 0.9000E+01
       25  1    1    2    0    0 -.42900864E+01 -.30078899E+02 0.17553566E+03 0.21762562E+03 0.12500000E+03 0.0000E+00 0.9000E+01
       24  1    1    2    0    0 0.22756259E+02 0.46290724E+02 0.28446801E+02 0.99685078E+02 0.80419002E+02 0.0000E+00 0.9000E+01
        1  1    1    2  501    0 -.20732423E+02 -.25235030E+02 0.74786274E+01 0.33506304E+02 0.32000000E+00 0.0000E+00 0.9000E+01
       21  1    1    2  503  502 0.22662505E+01 0.90232057E+01 0.22830503E+01 0.96087955E+01 0.75000000E+00 0.0000E+00 0.9000E+01
#aMCatNLO 2  0  0  2  1 0.93034473D+01 0.00000000D+00  -5  6  0 0.00000000D+00 0.00000000D+00 0.00000000D+00 0.00000000D+00 0.00000000D+00
  <mgrwgt>
 -.1004110047D+00    3    2    0
 0.139884083001019D+03 0.000000000000000D+00 0.000000000000000D+00 0.139884083001019D+03
 0.139884083001019D+03 0.000000000000000D+00 0.000000000000000D+00 -.139884083001019D+03
 0.139210573656711D+03 -.315855743310302D+01 -.255748186011753D+02 0.555925893108900D+02
 0.105176849368881D+03 0.236012940908751D+02 0.496543985469303D+02 -.396531626856218D+02
 0.353807429764460D+02 -.204427366577720D+02 -.240795799457550D+02 -.159394266252683D+02
 0.000000000000000D+00 0.000000000000000D+00 0.000000000000000D+00 -.000000000000000D+00
 0.142907977896956D+03 0.000000000000000D+00 0.000000000000000D+00 0.142907977896956D+03
 0.147305036276529D+03 0.000000000000000D+00 0.000000000000000D+00 -.147305036276529D+03
 0.140137960548005D+03 -.428967046635457D+01 -.300784096580082D+02 0.555925893108900D+02
 0.103442330770139D+03 0.227565720152311D+02 0.462910894226040D+02 -.396531626856218D+02
 0.363425209722194D+02 -.207331520661458D+02 -.252358854585284D+02 -.159394266252683D+02
 0.102902018831224D+02 0.226625051726926D+01 0.902320569393264D+01 -.439705837957323D+01
-.244676875404D-04 0.000000000000D+00 0.000000000000D+00 0.333830606609D-06 0.000000000000D+00  6 21 2 25 24 1 21 4 0.43228266D-01 0.11393503D-01 0.17708125D+05 0.17708125D+05 0.17708125D+05 0.12396880D+01  1  2 13  2  6  2        2 -.196178898452D+00 0.100000000000D+01
-.236773991412D-05 0.000000000000D+00 0.000000000000D+00 0.335743921079D-06 0.000000000000D+00  6 21 2 25 24 1 21 4 0.43228266D-01 0.10713764D-01 0.16464871D+05 0.16464871D+05 0.16464871D+05 0.12432355D+01  1  2  8  2  6  2        2 -.206809420665D-01 0.100000000000D+01
0.149875152877D-04 0.000000000000D+00 0.000000000000D+00 0.335743921079D-06 0.424633997224D-07  6 21 2 25 24 1 21 4 0.44162738D-01 0.11282137D-01 0.17708125D+05 0.17708125D+05 0.17708125D+05 0.12396880D+01  1  2  1  2  6  2        2 0.116448835803D+00 0.100000000000D+01
  </mgrwgt>
  </event>
  <event>
  5     66 -.46027262E-03 0.23131342E+03 0.75467711E-02 0.10793364E+00
       21 -1    0    0  501  502 0.00000000E+00 0.00000000E+00 0.32046747E+03 0.32046834E+03 0.75000000E+00 0.0000E+00 0.9000E+01
        2 -1    0    0  502    0 -.00000000E+00 -.00000000E+00 -.39058277E+03 0.39058290E+03 0.32000000E+00 0.0000E+00 0.9000E+01
       25  1    1    2    0    0 0.79568222E+02 -.15158703E+02 -.97229405E+02 0.17787480E+03 0.12500000E+03 0.0000E+00 0.9000E+01
       24  1    1    2    0    0 -.80433545E+02 -.21620515E+03 0.13364348E+03 0.27846368E+03 0.80419002E+02 0.0000E+00 0.9000E+01
        1  1    1    2  501    0 0.86532308E+00 0.23136386E+03 -.10652938E+03 0.25471277E+03 0.32000000E+00 0.0000E+00 0.9000E+01
#aMCatNLO 1  0  0  5  1 0.64408989D+01 0.00000000D+00  -5  6  0 0.00000000D+00 0.00000000D+00 0.00000000D+00 0.00000000D+00 0.00000000D+00
  <mgrwgt>
 -.2765766635D-01    8    2    0
 0.353792919958731D+03 0.000000000000000D+00 0.000000000000000D+00 0.353792919958731D+03
 0.353792919958731D+03 -.000000000000000D+00 -.000000000000000D+00 -.353792919958731D+03
 0.169111394590451D+03 0.795682220902262D+02 -.151587502923017D+02 -.800797983470439D+02
 0.293070381950342D+03 -.804335456493276D+02 -.216205233756644D+03 0.161891242668223D+03
 0.245404063376669D+03 0.865323559101408D+00 0.231363984048946D+03 -.818114443211789D+02
 0.000000000000000D+00 0.000000000000000D+00 0.000000000000000D+00 0.000000000000000D+00
 0.353792919958731D+03 0.000000000000000D+00 0.000000000000000D+00 0.353792919958731D+03
 0.353792919958731D+03 -.000000000000000D+00 -.000000000000000D+00 -.353792919958731D+03
 0.169119031860591D+03 0.795685796699184D+02 -.150631432083106D+02 -.801136054828468D+02
 0.292915672721448D+03 -.804329261405648D+02 -.216039593963281D+03 0.161832671621446D+03
 0.177958315733809D+03 -.120201059134335D+01 0.165614262881950D+03 -.651124660830847D+02
 0.675928196016152D+02 0.206635706198975D+01 0.654884742896416D+02 -.166066000555146D+02
0.366103115841D-05 0.000000000000D+00 0.000000000000D+00 0.248344046366D-07 0.000000000000D+00  6 21 2 25 24 1 21 2 0.49302765D-01 0.60089735D-01 0.97535290D+05 0.97535290D+05 0.97535290D+05 0.11645686D+01  1  2  2  3  6  5        1 0.192312997591D-02 0.100000000000D+01
-.422904824362D-06 0.193197922043D-06 -.739056711901D-08 0.248344046366D-07 0.000000000000D+00  6 21 2 25 24 1 21 4 0.49302765D-01 0.60089735D-01 0.97535290D+05 0.97535290D+05 0.97535290D+05 0.11645686D+01  1  2  3  3  6  5        1 -.301285338459D-03 0.100000000000D+01
0.394201866565D-06 0.000000000000D+00 0.000000000000D+00 0.248344046366D-07 0.000000000000D+00  6 21 2 25 24 1 21 4 0.49302765D-01 0.60089735D-01 0.97535290D+05 0.97535290D+05 0.97535290D+05 0.11645686D+01  1  2 15  3  6  5        1 0.280836812322D-03 0.100000000000D+01
0.204649840787D-03 0.000000000000D+00 0.000000000000D+00 0.248364933125D-07 0.000000000000D+00  6 21 2 25 24 1 21 4 0.49302765D-01 0.60089735D-01 0.97415962D+05 0.97415962D+05 0.97415962D+05 0.11646176D+01  1  2 12  3  6  5        1 0.145827240078D+00 0.100000000000D+01
-.347896259585D-03 0.000000000000D+00 0.000000000000D+00 0.248344046366D-07 0.000000000000D+00  6 21 2 25 24 1 21 4 0.49302765D-01 0.60089735D-01 0.97535290D+05 0.97535290D+05 0.97535290D+05 0.11645686D+01  1  2  4  3  6  5        1 -.247847828352D+00 0.100000000000D+01
-.230395604530D-03 0.000000000000D+00 0.000000000000D+00 0.248344046366D-07 0.000000000000D+00  6 21 2 25 24 1 21 4 0.49302765D-01 0.60089735D-01 0.97535290D+05 0.97535290D+05 0.97535290D+05 0.11645686D+01  1  2  5  3  6  5        1 -.164138155187D+00 0.100000000000D+01
0.302159214816D-03 0.000000000000D+00 -.000000000000D+00 0.248344046366D-07 0.000000000000D+00  6 21 2 25 24 1 21 4 0.49302765D-01 0.60089735D-01 0.97535290D+05 0.97535290D+05 0.97535290D+05 0.11645686D+01  1  2  6  3  6  5        1 0.215263898779D+00 0.100000000000D+01
0.299402319346D-04 0.000000000000D+00 0.000000000000D+00 0.248344046366D-07 0.272097670177D-08  6 21 2 25 24 1 21 4 0.49302765D-01 0.60089735D-01 0.97415962D+05 0.97415962D+05 0.97415962D+05 0.11646176D+01  1  2 11  3  6  5        1 0.213344968828D-01 0.100000000000D+01
  </mgrwgt>
  </event>
  <event>
  6     66 0.46027262E-03 0.11913551E+03 0.75467711E-02 0.11106867E+00
       21 -1    0    0  501  503 0.00000000E+00 0.00000000E+00 0.67046477E+03 0.67046519E+03 0.75000000E+00 0.0000E+00 0.9000E+01
        2 -1    0    0  502    0 0.00000000E+00 0.00000000E+00 -.13061749E+03 0.13061789E+03 0.32000000E+00 0.0000E+00 0.9000E+01
       25  1    1    2    0    0 -.43773209E+02 -.49879761E+02 0.24999004E+03 0.28727009E+03 0.12500000E+03 0.0000E+00 0.9000E+01
       24  1    1    2    0    0 -.25489465E+02 0.97232050E+02 0.18419500E+03 0.22471938E+03 0.80419002E+02 0.0000E+00 0.9000E+01
        1  1    1    2  501    0 -.78628694E+02 0.10482429E+02 -.25295631E+02 0.83260580E+02 0.32000000E+00 0.0000E+00 0.9000E+01
       21  1    1    2  502  503 0.14789137E+03 -.57834718E+02 0.13095787E+03 0.20583303E+03 0.75000000E+00 0.0000E+00 0.9000E+01
#aMCatNLO 2  0  0  1  5 0.15726601D+02 0.00000000D+00  -5  6  0 0.00000000D+00 0.00000000D+00 0.00000000D+00 0.00000000D+00 0.00000000D+00
  <mgrwgt>
 0.7097935754D-02    1    2    0
 0.201193536882964D+03 0.000000000000000D+00 0.000000000000000D+00 0.201193536882964D+03
 0.201193536882964D+03 0.000000000000000D+00 0.000000000000000D+00 -.201193536882964D+03
 0.162009146323682D+03 0.130833224281976D+02 -.721141690112896D+02 0.724592077970725D+02
 0.121911958153003D+03 0.200352751529194D+02 0.794290688060281D+02 0.410477814806483D+02
 0.118465969289242D+03 -.331185975811170D+02 -.731489979473850D+01 -.113506989277721D+03
 0.000000000000000D+00 0.000000000000000D+00 -.000000000000000D+00 -.000000000000000D+00
 0.288838451937561D+03 0.000000000000000D+00 0.000000000000000D+00 0.288838451937561D+03
 0.303194502092461D+03 0.000000000000000D+00 0.000000000000000D+00 -.303194502092461D+03
 0.158995021886822D+03 -.437731842050555D+02 -.498797407246870D+02 0.724592077970725D+02
 0.135114479634884D+03 -.254894463685321D+02 0.972320647316389D+02 0.410477814806483D+02
 0.138478140879527D+03 -.786287371709738D+02 0.104823936892078D+02 -.113506989277721D+03
 0.159445311628789D+03 0.147891367744561D+03 -.578347176961596D+02 -.143560501548998D+02
0.144617235390D-04 0.000000000000D+00 0.000000000000D+00 0.126535587932D-06 0.765391511808D-10  6 21 2 25 24 1 21 4 0.10314818D+00 0.20095002D-01 0.64611192D+05 0.64611192D+05 0.64611192D+05 0.11814102D+01  1  2  1  1  6  1       21 0.709793575407D-02 0.100000000000D+01
  </mgrwgt>
  </event>
  <event>
  5     66 0.46027262E-03 0.76734913E+02 0.75467711E-02 0.11262118E+00
       21 -1    0    0  501  502 0.00000000E+00 0.00000000E+00 0.20956418E+03 0.20956552E+03 0.75000000E+00 0.0000E+00 0.9000E+01
        2 -1    0    0  502    0 0.00000000E+00 0.00000000E+00 -.31582560E+03 0.31582577E+03 0.32000000E+00 0.0000E+00 0.9000E+01
       25  1    1    2    0    0 -.52183966E+02 0.97256721E+02 -.11288593E+03 0.20137097E+03 0.12500000E+03 0.0000E+00 0.9000E+01
       24  1    1    2    0    0 0.46838687E+02 -.20708275E+02 -.13362488E+03 0.16415090E+03 0.80419002E+02 0.0000E+00 0.9000E+01
        1  1    1    2  501    0 0.53452791E+01 -.76548447E+02 0.14024938E+03 0.15986941E+03 0.32000000E+00 0.0000E+00 0.9000E+01
#aMCatNLO 1  0  0  2  1 0.14238704D+02 0.00000000D+00  -5  6  0 0.00000000D+00 0.00000000D+00 0.00000000D+00 0.00000000D+00 0.00000000D+00
  <mgrwgt>
 0.9585909757D-02    4    2    0
 0.257266645976919D+03 0.000000000000000D+00 0.000000000000000D+00 0.257266645976919D+03
 0.257266645976919D+03 0.000000000000000D+00 0.000000000000000D+00 -.257266645976919D+03
 0.182307274649335D+03 -.521839684573483D+02 0.972567587721256D+02 -.736810606550364D+02
 0.140018746252943D+03 0.468386847272885D+02 -.207082457722671D+02 -.102544329525959D+03
 0.192207271051561D+03 0.534528373005974D+01 -.765485129998585D+02 0.176225390180995D+03
 0.000000000000000D+00 0.000000000000000D+00 0.000000000000000D+00 0.000000000000000D+00
 0.313791556713194D+03 0.000000000000000D+00 0.000000000000000D+00 0.313791556713194D+03
 0.308953839508170D+03 0.000000000000000D+00 0.000000000000000D+00 -.308953839508170D+03
 0.180339506922441D+03 -.775217281163642D+02 0.738838326539079D+02 -.736810606550364D+02
 0.138660973938381D+03 0.273676177528474D+02 -.386694158189071D+02 -.102544329525959D+03
 0.204915823856466D+03 -.224013006742268D+02 -.102143469935347D+03 0.176225390180995D+03
 0.988290915040745D+02 0.725554110377436D+02 0.669290531003467D+02 0.483771720502414D+01
0.644063366471D-04 0.000000000000D+00 0.000000000000D+00 0.117981112657D-05 0.000000000000D+00  6 21 2 25 24 1 21 2 0.32240758D-01 0.48588670D-01 0.28701505D+05 0.28701505D+05 0.28701505D+05 0.12169204D+01  1  2  2  2  6  2        2 0.113804729104D+00 0.100000000000D+01
0.231864653595D-05 0.339881576206D-05 -.130017837402D-06 0.117981112657D-05 0.000000000000D+00  6 21 2 25 24 1 21 4 0.32240758D-01 0.48588670D-01 0.28701505D+05 0.28701505D+05 0.28701505D+05 0.12169204D+01  1  2  3  2  6  2        2 0.606723236188D-02 0.100000000000D+01
0.654713875059D-05 0.000000000000D+00 0.000000000000D+00 0.117981112657D-05 0.000000000000D+00  6 21 2 25 24 1 21 4 0.32240758D-01 0.48588670D-01 0.28701505D+05 0.28701505D+05 0.28701505D+05 0.12169204D+01  1  2 15  2  6  2        2 0.171319825982D-01 0.100000000000D+01
-.486939293311D-04 0.000000000000D+00 0.000000000000D+00 0.117981112657D-05 0.000000000000D+00  6 21 2 25 24 1 21 4 0.32240758D-01 0.48588670D-01 0.28701505D+05 0.28701505D+05 0.28701505D+05 0.12169204D+01  1  2  4  2  6  2        2 -.127418034308D+00 0.100000000000D+01
  </mgrwgt>
  </event>
  <event>
  5     66 -.46027262E-03 0.35058271E+02 0.75467711E-02 0.12283315E+00
       21 -1    0    0  501  502 0.00000000E+00 0.00000000E+00 0.47043790E+02 0.47049768E+02 0.75000000E+00 0.0000E+00 0.9000E+01
        2 -1    0    0  502    0 -.00000000E+00 -.00000000E+00 -.52608797E+03 0.52608807E+03 0.32000000E+00 0.0000E+00 0.9000E+01
       25  1    1    2    0    0 0.26296975E+02 -.13573372E+01 -.41365885E+03 0.43293420E+03 0.12500000E+03 0.0000E+00 0.9000E+01
       24  1    1    2    0    0 0.85612451E+01 0.50942172E+01 -.66944462E+02 0.10510958E+03 0.80419002E+02 0.0000E+00 0.9000E+01
        1  1    1    2  501    0 -.34858220E+02 -.37368800E+01 0.15591362E+01 0.35094061E+02 0.32000000E+00 0.0000E+00 0.9000E+01
#aMCatNLO 1  0  0  5  2 0.14298087D+02 0.00000000D+00  -5  6  0 0.00000000D+00 0.00000000D+00 0.00000000D+00 0.00000000D+00 0.00000000D+00
  <mgrwgt>
 -.5943496265D-01    4    2    0
 0.157324229324429D+03 0.000000000000000D+00 0.000000000000000D+00 0.157324229324429D+03
 0.157324229324429D+03 -.000000000000000D+00 -.000000000000000D+00 -.157324229324429D+03
 0.158812714794723D+03 0.262971801907402D+02 -.135731525287450D+01 -.943562101283757D+02
 0.895376977685545D+02 0.856136066041597D+01 0.509422960033812D+01 0.380858936582012D+02
 0.662980460855793D+02 -.348585408511561D+02 -.373691434746361D+01 0.562703164701745D+02
 0.000000000000000D+00 0.000000000000000D+00 0.000000000000000D+00 0.000000000000000D+00
 0.157324229324429D+03 0.000000000000000D+00 0.000000000000000D+00 0.157324229324429D+03
 0.157324229324429D+03 -.000000000000000D+00 -.000000000000000D+00 -.157324229324429D+03
 0.154628231251836D+03 0.224744668857724D+02 -.176711875717409D+01 -.881854042887459D+02
 0.909122552033135D+02 0.636060021476598D+01 0.485830310760866D+01 0.416384659612286D+02
 0.546584125134852D+02 -.395062449482568D+02 0.110967185145416D+01 0.377566854605214D+02
 0.144495596802226D+02 0.106711778477184D+02 -.420085620188872D+01 0.879025286699597D+01
0.400556361847D-05 0.000000000000D+00 0.000000000000D+00 0.105435592743D-05 0.000000000000D+00  6 21 2 25 24 1 21 2 0.72379735D-02 0.80937078D-01 0.14863928D+05 0.14863928D+05 0.14863928D+05 0.12482740D+01  1  2  2  3  6  5        1 0.650420407312D-01 0.100000000000D+01
0.134539369333D-06 0.211379399468D-06 -.808607889165D-08 0.105435592743D-05 0.000000000000D+00  6 21 2 25 24 1 21 4 0.72379735D-02 0.80937078D-01 0.14863928D+05 0.14863928D+05 0.14863928D+05 0.12482740D+01  1  2  3  3  6  5        1 0.340407982897D-02 0.100000000000D+01
0.396997850742D-06 0.000000000000D+00 0.000000000000D+00 0.105435592743D-05 0.000000000000D+00  6 21 2 25 24 1 21 4 0.72379735D-02 0.80937078D-01 0.14863928D+05 0.14863928D+05 0.14863928D+05 0.12482740D+01  1  2 15  3  6  5        1 0.100447354745D-01 0.100000000000D+01
-.545123898155D-05 0.000000000000D+00 0.000000000000D+00 0.105435592743D-05 0.000000000000D+00  6 21 2 25 24 1 21 4 0.72379735D-02 0.80937078D-01 0.14863928D+05 0.14863928D+05 0.14863928D+05 0.12482740D+01  1  2  4  3  6  5        1 -.137925818680D+00 0.100000000000D+01
  </mgrwgt>
  </event>
  <event>
  5     66 -.46027262E-03 0.22137666E+02 0.75467711E-02 0.11459661E+00
       21 -1    0    0  501  502 0.00000000E+00 0.00000000E+00 0.34575571E+02 0.34583705E+02 0.75000000E+00 0.0000E+00 0.9000E+01
        4 -1    0    0  502    0 0.00000000E+00 0.00000000E+00 -.11125065E+04 0.11125076E+04 0.15500000E+01 0.0000E+00 0.9000E+01
       25  1    1    2    0    0 -.93087186E+02 -.83476081E+02 -.45635804E+03 0.48940897E+03 0.12500000E+03 0.0000E+00 0.9000E+01
       24  1    1    2    0    0 0.71162229E+02 0.86533077E+02 -.62036224E+03 0.63550654E+03 0.80419002E+02 0.0000E+00 0.9000E+01
        3  1    1    2  501    0 0.21924957E+02 -.30569959E+01 -.12106409E+01 0.22175767E+02 0.50000000E+00 0.0000E+00 0.9000E+01
#aMCatNLO 1  0  0  1  2 0.17311231D+02 0.00000000D+00  -5  6  0 0.00000000D+00 0.00000000D+00 0.00000000D+00 0.00000000D+00 0.00000000D+00
  <mgrwgt>
 -.7182206731D-01   12    2    0
 0.196139826817830D+03 0.000000000000000D+00 0.000000000000000D+00 0.196139826817830D+03
 0.196139826817830D+03 0.000000000000000D+00 0.000000000000000D+00 -.196139826817830D+03
 0.177104159810811D+03 -.930875128736564D+02 -.834760355689685D+02 0.103609775107535D+02
 0.153656840267475D+03 0.711619450129800D+02 0.865331166387175D+02 -.677584379496270D+02
 0.615186535573739D+02 0.219255678606764D+02 -.305708106974900D+01 0.573974604388735D+02
 0.000000000000000D+00 -.000000000000000D+00 0.000000000000000D+00 0.000000000000000D+00
 0.754814922554051D+03 0.000000000000000D+00 0.000000000000000D+00 0.754814922554051D+03
 0.200765977138343D+03 0.000000000000000D+00 0.000000000000000D+00 -.200765977138343D+03
 0.191548783535418D+03 -.895226831561765D+02 -.113772913382048D+03 0.103609775107535D+02
 0.142840315507681D+03 0.740290369245801D+02 0.621661930522459D+02 -.677584379496270D+02
 0.632998610657954D+02 0.231325479167192D+02 -.133149980472261D+02 0.573974604388735D+02
 0.557891939583499D+03 -.763890168512282D+01 0.649217183770279D+02 0.554048945415707D+03
0.529510838956D-05 0.000000000000D+00 0.000000000000D+00 0.169628738849D-05 0.000000000000D+00  6 21 4 25 24 3 21 2 0.53200274D-02 0.17115555D+00 0.28366758D+05 0.28366758D+05 0.28366758D+05 0.12174583D+01  1  2  2  1  6  1       21 0.178498796301D-02 0.100000000000D+01
0.886400955748D-06 0.279430546638D-06 -.106892982502D-07 0.169628738849D-05 0.000000000000D+00  6 21 4 25 24 3 21 4 0.53200274D-02 0.17115555D+00 0.28366758D+05 0.28366758D+05 0.28366758D+05 0.12174583D+01  1  2  3  1  6  1       21 0.442893021437D-03 0.100000000000D+01
0.517373238371D-06 0.000000000000D+00 0.000000000000D+00 0.169628738849D-05 0.000000000000D+00  6 21 4 25 24 3 21 4 0.53200274D-02 0.17115555D+00 0.28366758D+05 0.28366758D+05 0.28366758D+05 0.12174583D+01  1  2 15  1  6  1       21 0.258507163453D-03 0.100000000000D+01
-.133007057764D-02 0.000000000000D+00 -.224588731517D-04 0.169628738849D-05 0.000000000000D+00  6 21 4 25 24 3 21 4 0.20747289D-01 0.17115555D+00 0.28366758D+05 0.28366758D+05 0.28366758D+05 0.12174583D+01  1  2  5  1  6  1       21 -.596217124887D-01 0.100000000000D+01
-.546729401141D-03 0.000000000000D+00 -.879826463563D-05 0.169628738849D-05 0.000000000000D+00  6 -3 4 25 24 3 -3 4 0.20747289D-01 0.17115555D+00 0.28366758D+05 0.28366758D+05 0.28366758D+05 0.12174583D+01  1  2  5  4  6  1       21 -.116448442572D-02 0.100000000000D+01
-.546729401141D-03 0.000000000000D+00 -.879826463563D-05 0.169628738849D-05 0.000000000000D+00  6 3 4 25 24 3 3 4 0.20747289D-01 0.17115555D+00 0.28366758D+05 0.28366758D+05 0.28366758D+05 0.12174583D+01  1  2  5  5  6  1       21 -.116438958954D-02 0.100000000000D+01
-.546729401141D-03 0.000000000000D+00 -.879826463563D-05 0.169628738849D-05 0.000000000000D+00  6 -4 4 25 24 3 -4 4 0.20747289D-01 0.17115555D+00 0.28366758D+05 0.28366758D+05 0.28366758D+05 0.12174583D+01  1  2  5  6  6  1       21 -.994925143107D-03 0.100000000000D+01
-.546729401141D-03 0.000000000000D+00 -.879826463563D-05 0.169628738849D-05 0.000000000000D+00  6 4 4 25 24 3 4 4 0.20747289D-01 0.17115555D+00 0.28366758D+05 0.28366758D+05 0.28366758D+05 0.12174583D+01  1  2  5  7  6  1       21 -.994925143107D-03 0.100000000000D+01
-.546729401141D-03 0.000000000000D+00 -.879826463563D-05 0.169628738849D-05 0.000000000000D+00  6 -1 4 25 24 3 -1 4 0.20747289D-01 0.17115555D+00 0.28366758D+05 0.28366758D+05 0.28366758D+05 0.12174583D+01  1  2  5  8  6  1       21 -.194667605007D-02 0.100000000000D+01
-.546729401141D-03 0.000000000000D+00 -.879826463563D-05 0.169628738849D-05 0.000000000000D+00  6 -2 4 25 24 3 -2 4 0.20747289D-01 0.17115555D+00 0.28366758D+05 0.28366758D+05 0.28366758D+05 0.12174583D+01  1  2  5  8  6  1       21 -.177521706426D-02 0.100000000000D+01
-.546729401141D-03 0.000000000000D+00 -.879826463563D-05 0.169628738849D-05 0.000000000000D+00  6 1 4 25 24 3 1 4 0.20747289D-01 0.17115555D+00 0.28366758D+05 0.28366758D+05 0.28366758D+05 0.12174583D+01  1  2  5  9  6  1       21 -.296396311475D-02 0.100000000000D+01
-.546729401141D-03 0.000000000000D+00 -.879826463563D-05 0.169628738849D-05 0.000000000000D+00  6 2 4 25 24 3 2 4 0.20747289D-01 0.17115555D+00 0.28366758D+05 0.28366758D+05 0.28366758D+05 0.12174583D+01  1  2  5  9  6  1       21 -.368216243940D-02 0.100000000000D+01
  </mgrwgt>
  </event>
  <event>
  5     66 0.46027262E-03 0.78097239E+02 0.75467711E-02 0.11182084E+00
       21 -1    0    0  501  502 0.00000000E+00 0.00000000E+00 0.67245564E+03 0.67245606E+03 0.75000000E+00 0.0000E+00 0.9000E+01
        2 -1    0    0  502    0 0.00000000E+00 0.00000000E+00 -.67340369E+02 0.67341130E+02 0.32000000E+00 0.0000E+00 0.9000E+01
       25  1    1    2    0    0 0.88808991E+02 -.72781919E+02 0.17766182E+03 0.24570911E+03 0.12500000E+03 0.0000E+00 0.9000E+01
       24  1    1    2    0    0 -.28868432E+02 0.13577154E+03 0.29090038E+03 0.33220106E+03 0.80419002E+02 0.0000E+00 0.9000E+01
        1  1    1    2  501    0 -.59940559E+02 -.62989623E+02 0.13655307E+03 0.16188702E+03 0.32000000E+00 0.0000E+00 0.9000E+01
#aMCatNLO 1  0  0  2  1 0.63194052D+02 0.00000000D+00  -5  6  0 0.00000000D+00 0.00000000D+00 0.00000000D+00 0.00000000D+00 0.00000000D+00
  <mgrwgt>
 0.7412208548D-01    9    2    0
 0.212800017392699D+03 0.000000000000000D+00 0.000000000000000D+00 0.212800017392699D+03
 0.212800017392699D+03 0.000000000000000D+00 0.000000000000000D+00 -.212800017392699D+03
 0.174504298312591D+03 0.888091566741580D+02 -.727817448379770D+02 -.405277860082972D+02
 0.163846773990176D+03 -.288682772693892D+02 0.135771704204081D+03 0.333349110938416D+02
 0.872489624826307D+02 -.599408794047688D+02 -.629899593661042D+02 0.719287491445567D+01
 0.000000000000000D+00 0.000000000000000D+00 -.000000000000000D+00 -.000000000000000D+00
 0.235028626154928D+03 0.000000000000000D+00 0.000000000000000D+00 0.235028626154928D+03
 0.265313574845035D+03 0.000000000000000D+00 0.000000000000000D+00 -.265313574845035D+03
 0.161532686270098D+03 0.643857778969264D+02 -.684089095038594D+02 -.405277860082972D+02
 0.173415375463863D+03 -.533807017978042D+02 0.140160482557823D+03 0.333349110938416D+02
 0.953179929113960D+02 -.732099602154171D+02 -.606142231524827D+02 0.719287491445567D+01
 0.700761463546056D+02 0.622048841162949D+02 -.111373499014804D+02 -.302849486901071D+02
0.326992944715D-04 0.000000000000D+00 0.000000000000D+00 0.119759316721D-06 0.000000000000D+00  6 21 2 25 24 1 21 2 0.10345480D+00 0.10360148D-01 0.43494094D+05 0.43494094D+05 0.43494094D+05 0.11983243D+01  1  2  2  2  6  2        2 0.262572963189D-01 0.100000000000D+01
-.180782649474D-05 0.172558917715D-05 -.660104544536D-07 0.119759316721D-06 0.000000000000D+00  6 21 2 25 24 1 21 4 0.10345480D+00 0.10360148D-01 0.43494094D+05 0.43494094D+05 0.43494094D+05 0.11983243D+01  1  2  3  2  6  2        2 -.208457298663D-02 0.100000000000D+01
0.341974564633D-05 0.000000000000D+00 0.000000000000D+00 0.119759316721D-06 0.000000000000D+00  6 21 2 25 24 1 21 4 0.10345480D+00 0.10360148D-01 0.43494094D+05 0.43494094D+05 0.43494094D+05 0.11983243D+01  1  2 15  2  6  2        2 0.394324865590D-02 0.100000000000D+01
0.772806133219D-04 0.000000000000D+00 0.000000000000D+00 0.117190706153D-06 0.000000000000D+00  6 21 2 25 24 1 21 4 0.10345480D+00 0.13354390D-01 0.58754732D+05 0.58754732D+05 0.58754732D+05 0.11854038D+01  1  2 12  2  6  2        2 0.619797260571D-01 0.100000000000D+01
-.588145796965D-04 0.000000000000D+00 0.000000000000D+00 0.119759316721D-06 0.000000000000D+00  6 21 2 25 24 1 21 4 0.10345480D+00 0.10360148D-01 0.43494094D+05 0.43494094D+05 0.43494094D+05 0.11983243D+01  1  2  4  2  6  2        2 -.678180590960D-01 0.100000000000D+01
-.147000868138D-03 0.000000000000D+00 -.471258181776D-04 0.119759316721D-06 0.000000000000D+00  6 21 2 25 24 1 21 4 0.10345480D+00 0.14236204D-01 0.43494094D+05 0.43494094D+05 0.43494094D+05 0.11983243D+01  1  2  5  2  6  2        2 -.115218865869D+00 0.100000000000D+01
0.156301625111D-03 0.000000000000D+00 0.448419326112D-04 0.119759316721D-06 0.000000000000D+00  6 21 2 25 24 1 21 4 0.10345480D+00 0.10360148D-01 0.43494094D+05 0.43494094D+05 0.43494094D+05 0.11983243D+01  1  2  6  2  6  2        2 0.180228659344D+00 0.100000000000D+01
0.264526561897D-05 0.000000000000D+00 0.000000000000D+00 0.117190706153D-06 0.000000000000D+00  6 21 21 25 24 1 -2 4 0.10345480D+00 0.13354390D-01 0.58754732D+05 0.58754732D+05 0.58754732D+05 0.11854038D+01  1  2 12 10  6  2        2 0.186653288444D-01 0.100000000000D+01
-.476941515675D-05 0.000000000000D+00 -.189910191281D-05 0.119759316721D-06 0.000000000000D+00  6 21 21 25 24 1 -2 4 0.10345480D+00 0.14236204D-01 0.43494094D+05 0.43494094D+05 0.43494094D+05 0.11983243D+01  1  2  5 10  6  2        2 -.318306757879D-01 0.100000000000D+01
  </mgrwgt>
  </event>
  <event>
  5     66 0.46027262E-03 0.46656588E+02 0.75467711E-02 0.11560119E+00
       21 -1    0    0  501  502 0.00000000E+00 0.00000000E+00 0.60082640E+02 0.60087321E+02 0.75000000E+00 0.0000E+00 0.9000E+01
        4 -1    0    0  502    0 0.00000000E+00 0.00000000E+00 -.50385055E+03 0.50385293E+03 0.15500000E+01 0.0000E+00 0.9000E+01
       25  1    1    2    0    0 -.45114515E+02 -.89555264E+02 -.20594719E+03 0.26094963E+03 0.12500000E+03 0.0000E+00 0.9000E+01
       24  1    1    2    0    0 0.22916539E+01 0.71036428E+02 -.68413436E+02 0.12727545E+03 0.80419002E+02 0.0000E+00 0.9000E+01
        3  1    1    2  501    0 0.42822861E+02 0.18518836E+02 -.16940728E+03 0.17571517E+03 0.50000000E+00 0.0000E+00 0.9000E+01
#aMCatNLO 1  0  0  1  2 0.52538073D+02 0.00000000D+00  -5  6  0 0.00000000D+00 0.00000000D+00 0.00000000D+00 0.00000000D+00 0.00000000D+00
  <mgrwgt>
 0.1282918465D-01    4    2    0
 0.173996158494654D+03 0.000000000000000D+00 0.000000000000000D+00 0.173996158494654D+03
 0.173996158494654D+03 0.000000000000000D+00 0.000000000000000D+00 -.173996158494654D+03
 0.160254517570808D+03 -.451150371145443D+02 -.895554896258936D+02 -.978828826744859D+00
 0.119014389154386D+03 0.229126630436027D+01 0.710362603722048D+02 0.514374249207314D+02
 0.687234102641154D+02 0.428237708101840D+02 0.185192292536888D+02 -.504585960939866D+02
 0.000000000000000D+00 -.000000000000000D+00 0.000000000000000D+00 -.000000000000000D+00
 0.184435650628233D+03 0.000000000000000D+00 0.000000000000000D+00 0.184435650628233D+03
 0.315169386932618D+03 0.000000000000000D+00 0.000000000000000D+00 -.315169386932618D+03
 0.168910156422054D+03 -.239312484309376D+02 -.111049440274084D+03 -.978828826744859D+00
 0.111973781691568D+03 0.171567879906869D+02 0.559530854851378D+02 0.514374249207314D+02
 0.730081464798937D+02 0.519450756921556D+02 0.926437499185804D+01 -.504585960939866D+02
 0.145712952967336D+03 -.451706152519049D+02 0.458319797970883D+02 -.130733736304386D+03
0.152009100470D-04 0.000000000000D+00 0.000000000000D+00 0.157301139498D-06 0.000000000000D+00  6 21 4 25 24 3 21 2 0.92440265D-02 0.77516013D-01 0.24685584D+05 0.24685584D+05 0.24685584D+05 0.12238874D+01  1  2  2  1  6  1       21 0.134339809765D-01 0.100000000000D+01
-.144866658492D-05 0.802174061666D-06 -.306862578085D-07 0.157301139498D-06 0.000000000000D+00  6 21 4 25 24 3 21 4 0.92440265D-02 0.77516013D-01 0.24685584D+05 0.24685584D+05 0.24685584D+05 0.12238874D+01  1  2  3  1  6  1       21 -.191772575226D-02 0.100000000000D+01
0.160206946010D-05 0.000000000000D+00 0.000000000000D+00 0.157301139498D-06 0.000000000000D+00  6 21 4 25 24 3 21 4 0.92440265D-02 0.77516013D-01 0.24685584D+05 0.24685584D+05 0.24685584D+05 0.12238874D+01  1  2 15  1  6  1       21 0.212079845875D-02 0.100000000000D+01
-.610271237394D-06 0.000000000000D+00 0.000000000000D+00 0.157301139498D-06 0.000000000000D+00  6 21 4 25 24 3 21 4 0.92440265D-02 0.77516013D-01 0.24685584D+05 0.24685584D+05 0.24685584D+05 0.12238874D+01  1  2  4  1  6  1       21 -.807869029352D-03 0.100000000000D+01
  </mgrwgt>
  </event>
  <event>
  6     66 0.46027262E-03 0.44617889E+02 0.75467711E-02 0.12053071E+00
       21 -1    0    0  501  502 0.00000000E+00 0.00000000E+00 0.21443991E+02 0.21457103E+02 0.75000000E+00 0.0000E+00 0.9000E+01
        2 -1    0    0  502    0 -.00000000E+00 -.00000000E+00 -.13486029E+04 0.13486030E+04 0.32000000E+00 0.0000E+00 0.9000E+01
       25  1    1    2    0    0 0.62297464E+01 0.27183168E+01 -.60354731E+03 0.61639319E+03 0.12500000E+03 0.0000E+00 0.9000E+01
       24  1    1    2    0    0 -.33627033E+02 -.33702147E+02 -.61573027E+03 0.62278213E+03 0.80419002E+02 0.0000E+00 0.9000E+01
        1  1    1    2  503    0 0.56783693E+01 -.18845255E+02 -.31132212E+02 0.36833470E+02 0.32000000E+00 0.0000E+00 0.9000E+01
       21  1    1    2  501  503 0.21718917E+02 0.49829085E+02 -.76749146E+02 0.94051279E+02 0.75000000E+00 0.0000E+00 0.9000E+01
#aMCatNLO 2  0  0  5  1 0.23936651D+02 0.00000000D+00  -5  6  0 0.00000000D+00 0.00000000D+00 0.00000000D+00 0.00000000D+00 0.00000000D+00
  <mgrwgt>
 0.3497230062D-01    1    2    0
 0.170083618449798D+03 0.000000000000000D+00 0.000000000000000D+00 0.170083618449798D+03
 0.170083618449798D+03 -.000000000000000D+00 -.000000000000000D+00 -.170083618449798D+03
 0.129263756266722D+03 0.381755490965508D+01 -.965154510392387D-02 -.327038967944488D+02
 0.110207865229310D+03 -.356559361677520D+02 -.359966515512698D+02 -.557803988613276D+02
 0.100695615403565D+03 0.318383812580969D+02 0.360063030963738D+02 0.884842956557764D+02
 0.000000000000000D+00 0.000000000000000D+00 0.000000000000000D+00 0.000000000000000D+00
 0.170083618449798D+03 0.000000000000000D+00 0.000000000000000D+00 0.170083618449798D+03
 0.170083618449798D+03 -.000000000000000D+00 -.000000000000000D+00 -.170083618449798D+03
 0.127880838049396D+03 0.617983278930610D+01 0.266186911554344D+01 -.261387233759358D+02
 0.106139169300993D+03 -.336684480956880D+02 -.337489839533776D+02 -.502568302868066D+02
 0.262044605686248D+02 0.547728103887794D+01 -.185272766334248D+02 0.177034789423522D+02
 0.799427689805838D+02 0.220113342675039D+02 0.496143914712589D+02 0.586920747203902D+02
0.133255186645D-05 0.000000000000D+00 0.000000000000D+00 0.144945604111D-05 0.101362304982D-07  6 21 2 25 24 1 21 4 0.33000871D-02 0.20747839D+00 0.21354788D+05 0.21354788D+05 0.21354788D+05 0.12307045D+01  1  2  1  3  6  5        1 0.349723006205D-01 0.100000000000D+01
  </mgrwgt>
  </event>
  <event>
  5     66 0.46027262E-03 0.12379384E+03 0.75467711E-02 0.11041862E+00
       21 -1    0    0  501  502 0.00000000E+00 0.00000000E+00 0.29851797E+03 0.29851892E+03 0.75000000E+00 0.0000E+00 0.9000E+01
        2 -1    0    0  502    0 0.00000000E+00 0.00000000E+00 -.22685623E+03 0.22685645E+03 0.32000000E+00 0.0000E+00 0.9000E+01
       25  1    1    2    0    0 -.90575829E+02 -.18516507E+03 0.53472725E+01 0.24113000E+03 0.12500000E+03 0.0000E+00 0.9000E+01
       24  1    1    2    0    0 0.10372335E+03 0.62071689E+02 0.68271880E+02 0.16043595E+03 0.80419002E+02 0.0000E+00 0.9000E+01
        1  1    1    2  501    0 -.13147522E+02 0.12309338E+03 -.19574065E+01 0.12380942E+03 0.32000000E+00 0.0000E+00 0.9000E+01
#aMCatNLO 1  0  0  2  1 0.19570263D+02 0.00000000D+00  -5  6  0 0.00000000D+00 0.00000000D+00 0.00000000D+00 0.00000000D+00 0.00000000D+00
  <mgrwgt>
 0.2433024043D+00    9    2    0
 0.260232528486849D+03 0.000000000000000D+00 0.000000000000000D+00 0.260232528486849D+03
 0.260232528486849D+03 0.000000000000000D+00 0.000000000000000D+00 -.260232528486849D+03
 0.242668815679731D+03 -.905758094354973D+02 -.185165260259157D+03 -.278029358461741D+02
 0.152549331844740D+03 0.103723364194820D+03 0.620715710335568D+02 0.468259167709603D+02
 0.125246909449227D+03 -.131475547593224D+02 0.123093689225600D+03 -.190229809247862D+02
 0.000000000000000D+00 -.000000000000000D+00 0.000000000000000D+00 -.000000000000000D+00
 0.265172367733339D+03 0.000000000000000D+00 0.000000000000000D+00 0.265172367733339D+03
 0.280548912036524D+03 0.000000000000000D+00 0.000000000000000D+00 -.280548912036524D+03
 0.247270999994635D+03 -.861019655331977D+02 -.193213342520645D+03 -.278029358461741D+02
 0.152512108294778D+03 0.106509006880170D+03 0.570604258142781D+02 0.468259167709603D+02
 0.121049754274889D+03 -.108985176492394D+02 0.119047853906718D+03 -.190229809247862D+02
 0.248884172055612D+02 -.950852369773238D+01 0.171050627996488D+02 -.153765443031849D+02
0.143740247299D-04 0.000000000000D+00 0.000000000000D+00 0.637238591951D-07 0.000000000000D+00  6 21 2 25 24 1 21 2 0.45925932D-01 0.34901048D-01 0.65037623D+05 0.65037623D+05 0.65037623D+05 0.11811353D+01  1  2  2  2  6  2        2 0.164628742576D-01 0.100000000000D+01
-.116614229637D-05 0.758538124653D-06 -.290170145895D-07 0.637238591951D-07 0.000000000000D+00  6 21 2 25 24 1 21 4 0.45925932D-01 0.34901048D-01 0.65037623D+05 0.65037623D+05 0.65037623D+05 0.11811353D+01  1  2  3  2  6  2        2 -.186327991996D-02 0.100000000000D+01
0.150763655680D-05 0.000000000000D+00 0.000000000000D+00 0.637238591951D-07 0.000000000000D+00  6 21 2 25 24 1 21 4 0.45925932D-01 0.34901048D-01 0.65037623D+05 0.65037623D+05 0.65037623D+05 0.11811353D+01  1  2 15  2  6  2        2 0.240892464978D-02 0.100000000000D+01
0.163905966940D-03 0.000000000000D+00 0.000000000000D+00 0.633803965878D-07 0.000000000000D+00  6 21 2 25 24 1 21 4 0.45925932D-01 0.37939937D-01 0.70215622D+05 0.70215622D+05 0.70215622D+05 0.11779479D+01  1  2 12  2  6  2        2 0.236087581377D+00 0.100000000000D+01
-.353426010043D-04 0.000000000000D+00 0.000000000000D+00 0.637238591951D-07 0.000000000000D+00  6 21 2 25 24 1 21 4 0.45925932D-01 0.34901048D-01 0.65037623D+05 0.65037623D+05 0.65037623D+05 0.11811353D+01  1  2  4  2  6  2        2 -.564709461063D-01 0.100000000000D+01
-.396110108410D-03 0.000000000000D+00 -.604198865592D-04 0.637238591951D-07 0.000000000000D+00  6 21 2 25 24 1 21 4 0.45925932D-01 0.38226035D-01 0.65037623D+05 0.65037623D+05 0.65037623D+05 0.11811353D+01  1  2  5  2  6  2        2 -.573210187408D+00 0.100000000000D+01
0.400199455747D-03 0.000000000000D+00 0.601705784826D-04 0.637238591951D-07 0.000000000000D+00  6 21 2 25 24 1 21 4 0.45925932D-01 0.34901048D-01 0.65037623D+05 0.65037623D+05 0.65037623D+05 0.11811353D+01  1  2  6  2  6  2        2 0.639444784907D+00 0.100000000000D+01
0.230365764767D-05 0.000000000000D+00 0.000000000000D+00 0.633803965878D-07 0.000000000000D+00  6 21 21 25 24 1 -2 4 0.45925932D-01 0.37939937D-01 0.70215622D+05 0.70215622D+05 0.70215622D+05 0.11779479D+01  1  2 12 10  6  2        2 0.130364875354D-01 0.100000000000D+01
-.576029206434D-05 0.000000000000D+00 -.904105923329D-06 0.637238591951D-07 0.000000000000D+00  6 21 21 25 24 1 -2 4 0.45925932D-01 0.38226035D-01 0.65037623D+05 0.65037623D+05 0.65037623D+05 0.11811353D+01  1  2  5 10  6  2        2 -.325938349571D-01 0.100000000000D+01
  </mgrwgt>
  </event>
  <event>
  6     66 -.46027262E-03 0.18882675E+02 0.75467711E-02 0.11958701E+00
       21 -1    0    0  501  502 0.00000000E+00 0.00000000E+00 0.60537182E+02 0.60541827E+02 0.75000000E+00 0.0000E+00 0.9000E+01
        2 -1    0    0  503    0 0.00000000E+00 0.00000000E+00 -.60414870E+03 0.60414879E+03 0.32000000E+00 0.0000E+00 0.9000E+01
       25  1    1    2    0    0 -.27213773E+01 -.62530094E+02 -.10473721E+03 0.17467771E+03 0.12500000E+03 0.0000E+00 0.9000E+01
       24  1    1    2    0    0 -.20784563E+01 0.78315782E+02 -.35608773E+03 0.37336761E+03 0.80419002E+02 0.0000E+00 0.9000E+01
        1  1    1    2  501    0 -.17554492E+02 -.25677741E+02 -.83003266E+00 0.31117486E+02 0.32000000E+00 0.0000E+00 0.9000E+01
       21  1    1    2  503  502 0.22354325E+02 0.98920532E+01 -.81956550E+02 0.85527815E+02 0.75000000E+00 0.0000E+00 0.9000E+01
#aMCatNLO 2  0  0  2  1 0.24445216D+02 0.00000000D+00  -5  6  0 0.00000000D+00 0.00000000D+00 0.00000000D+00 0.00000000D+00 0.00000000D+00
  <mgrwgt>
 -.3082869162D+00    2    2    0
 0.174432413372455D+03 0.000000000000000D+00 0.000000000000000D+00 0.174432413372455D+03
 0.174432413372455D+03 0.000000000000000D+00 0.000000000000000D+00 -.174432413372455D+03
 0.149441589450293D+03 0.689332929084527D+01 -.582753075326016D+02 0.571336958431598D+02
 0.150715472461575D+03 0.748884299228565D+01 0.825495923609072D+02 -.968370782119652D+02
 0.487077648330421D+02 -.143821722831309D+02 -.242742848283056D+02 0.397033823688054D+02
 0.000000000000000D+00 0.000000000000000D+00 0.000000000000000D+00 -.000000000000000D+00
 0.180170291022960D+03 0.000000000000000D+00 0.000000000000000D+00 0.180170291022960D+03
 0.202993281455767D+03 0.000000000000000D+00 0.000000000000000D+00 -.202993281455767D+03
 0.151018701210849D+03 -.272122961551357D+01 -.625298634581325D+02 0.571336958431598D+02
 0.148264462382487D+03 -.207834536745495D+01 0.783159984620041D+02 -.968370782119652D+02
 0.504370616206624D+02 -.175547505033754D+02 -.256781881792148D+02 0.397033823688054D+02
 0.334433472647288D+02 0.223543254863439D+02 0.989205317534313D+01 -.228229904328075D+02
-.341899015843D-04 0.000000000000D+00 0.000000000000D+00 0.781470770465D-06 0.000000000000D+00  6 21 2 25 24 1 21 4 0.90169546D-02 0.94110635D-01 0.23656944D+05 0.23656944D+05 0.23656944D+05 0.12258771D+01  1  2 13  2  6  2        2 -.466363660817D+00 0.100000000000D+01
0.120888233325D-04 0.000000000000D+00 0.000000000000D+00 0.792094690973D-06 0.933556298709D-08  6 21 2 25 24 1 21 4 0.93135634D-02 0.92944192D-01 0.23656944D+05 0.23656944D+05 0.23656944D+05 0.12258771D+01  1  2  1  2  6  2        2 0.158076744643D+00 0.100000000000D+01
  </mgrwgt>
  </event>
  <event>
  5     66 0.46027262E-03 0.42773975E+02 0.75467711E-02 0.11051744E+00
       21 -1    0    0  501  502 0.00000000E+00 0.00000000E+00 0.80402471E+03 0.80402506E+03 0.75000000E+00 0.0000E+00 0.9000E+01
        4 -1    0    0  502    0 0.00000000E+00 0.00000000E+00 -.12145492E+03 0.12146481E+03 0.15500000E+01 0.0000E+00 0.9000E+01
       25  1    1    2    0    0 0.14220718E+03 0.14445056E+03 0.12465433E+03 0.26879834E+03 0.12500000E+03 0.0000E+00 0.9000E+01
       24  1    1    2    0    0 -.15182773E+03 -.10277270E+03 0.15945999E+03 0.25594646E+03 0.80419002E+02 0.0000E+00 0.9000E+01
        3  1    1    2  501    0 0.96205458E+01 -.41677865E+02 0.39845547E+03 0.40074506E+03 0.50000000E+00 0.0000E+00 0.9000E+01
#aMCatNLO 1  0  0  1  2 0.38476326D+02 0.00000000D+00  -5  6  0 0.00000000D+00 0.00000000D+00 0.00000000D+00 0.00000000D+00 0.00000000D+00
  <mgrwgt>
 0.1530100958D+00   23    2    0
 0.312501996147139D+03 0.000000000000000D+00 0.000000000000000D+00 0.312501996147139D+03
 0.312501996147139D+03 0.000000000000000D+00 0.000000000000000D+00 -.312501996147139D+03
 0.261894283468605D+03 0.142207164103482D+03 0.144450648349449D+03 -.108971319082604D+03
 0.204851979822632D+03 -.151827745794489D+03 -.102772628420661D+03 -.433963147900199D+02
 0.158257729003041D+03 0.962058169100636D+01 -.416780199287889D+02 0.152367633872624D+03
 0.000000000000000D+00 0.000000000000000D+00 0.000000000000000D+00 0.000000000000000D+00
 0.349623247527658D+03 0.000000000000000D+00 0.000000000000000D+00 0.349623247527658D+03
 0.323225290168764D+03 0.000000000000000D+00 0.000000000000000D+00 -.323225290168764D+03
 0.252706198557735D+03 0.140704215363240D+03 0.128697312271521D+03 -.108971319082604D+03
 0.212425752785775D+03 -.153046452469782D+03 -.115546647468858D+03 -.433963147900199D+02
 0.161055255510071D+03 0.868799211019769D+01 -.514530686020312D+02 0.152367633872624D+03
 0.466613308428419D+02 0.365424499634427D+01 0.383024037993687D+02 0.263979573588933D+02
0.312931140990D-03 0.000000000000D+00 0.000000000000D+00 0.812328680500D-06 0.000000000000D+00  6 21 4 25 24 3 21 2 0.12369690D+00 0.18686161D-01 0.57869917D+05 0.57869917D+05 0.57869917D+05 0.11860454D+01  1  2  2  1  6  1       21 0.229529840841D-01 0.100000000000D+01
0.548445943688D-04 0.165138300019D-04 -.631717814201D-06 0.812328680500D-06 0.000000000000D+00  6 21 4 25 24 3 21 4 0.12369690D+00 0.18686161D-01 0.57869917D+05 0.57869917D+05 0.57869917D+05 0.11860454D+01  1  2  3  1  6  1       21 0.565883220707D-02 0.100000000000D+01
0.344906796081D-04 0.000000000000D+00 0.000000000000D+00 0.812328680500D-06 0.000000000000D+00  6 21 4 25 24 3 21 4 0.12369690D+00 0.18686161D-01 0.57869917D+05 0.57869917D+05 0.57869917D+05 0.11860454D+01  1  2 15  1  6  1       21 0.355872754383D-02 0.100000000000D+01
0.864814863385D-03 0.000000000000D+00 0.000000000000D+00 0.801991683271D-06 0.000000000000D+00  6 21 4 25 24 3 21 4 0.14033711D+00 0.18686161D-01 0.69328790D+05 0.69328790D+05 0.69328790D+05 0.11784749D+01  1  2 12  1  6  1       21 0.627357272808D-01 0.100000000000D+01
-.359580598507D-03 0.000000000000D+00 0.000000000000D+00 0.812328680500D-06 0.000000000000D+00  6 21 4 25 24 3 21 4 0.12369690D+00 0.18686161D-01 0.57869917D+05 0.57869917D+05 0.57869917D+05 0.11860454D+01  1  2  4  1  6  1       21 -.371013095327D-01 0.100000000000D+01
-.359032071627D-02 0.000000000000D+00 -.725386137004D-03 0.812328680500D-06 0.000000000000D+00  6 21 4 25 24 3 21 4 0.14130804D+00 0.18686161D-01 0.57869917D+05 0.57869917D+05 0.57869917D+05 0.11860454D+01  1  2  5  1  6  1       21 -.263564386263D+00 0.100000000000D+01
0.358212407643D-02 0.000000000000D+00 0.700313047656D-03 0.812328680500D-06 0.000000000000D+00  6 21 4 25 24 3 21 4 0.12369690D+00 0.18686161D-01 0.57869917D+05 0.57869917D+05 0.57869917D+05 0.11860454D+01  1  2  6  1  6  1       21 0.369601404236D+00 0.100000000000D+01
0.288165774526D-04 0.000000000000D+00 0.000000000000D+00 0.801991683271D-06 0.000000000000D+00  6 -3 4 25 24 3 -3 4 0.14033711D+00 0.18686161D-01 0.69328790D+05 0.69328790D+05 0.69328790D+05 0.11784749D+01  1  2 12  4  6  1       21 0.121967697765D-03 0.100000000000D+01
-.982190857064D-04 0.000000000000D+00 -.257045758923D-04 0.812328680500D-06 0.000000000000D+00  6 -3 4 25 24 3 -3 4 0.14130804D+00 0.18686161D-01 0.57869917D+05 0.57869917D+05 0.57869917D+05 0.11860454D+01  1  2  5  4  6  1       21 -.416720889396D-03 0.100000000000D+01
0.288165774526D-04 0.000000000000D+00 0.000000000000D+00 0.801991683271D-06 0.000000000000D+00  6 3 4 25 24 3 3 4 0.14033711D+00 0.18686161D-01 0.69328790D+05 0.69328790D+05 0.69328790D+05 0.11784749D+01  1  2 12  5  6  1       21 0.122397615905D-03 0.100000000000D+01
-.982190857064D-04 0.000000000000D+00 -.257045758923D-04 0.812328680500D-06 0.000000000000D+00  6 3 4 25 24 3 3 4 0.14130804D+00 0.18686161D-01 0.57869917D+05 0.57869917D+05 0.57869917D+05 0.11860454D+01  1  2  5  5  6  1       21 -.418204864428D-03 0.100000000000D+01
0.288165774526D-04 0.000000000000D+00 0.000000000000D+00 0.801991683271D-06 0.000000000000D+00  6 -4 4 25 24 3 -4 4 0.14033711D+00 0.18686161D-01 0.69328790D+05 0.69328790D+05 0.69328790D+05 0.11784749D+01  1  2 12  6  6  1       21 0.969761542160D-04 0.100000000000D+01
-.982190857064D-04 0.000000000000D+00 -.257045758923D-04 0.812328680500D-06 0.000000000000D+00  6 -4 4 25 24 3 -4 4 0.14130804D+00 0.18686161D-01 0.57869917D+05 0.57869917D+05 0.57869917D+05 0.11860454D+01  1  2  5  6  6  1       21 -.330746776496D-03 0.100000000000D+01
0.288165774526D-04 0.000000000000D+00 0.000000000000D+00 0.801991683271D-06 0.000000000000D+00  6 4 4 25 24 3 4 4 0.14033711D+00 0.18686161D-01 0.69328790D+05 0.69328790D+05 0.69328790D+05 0.11784749D+01  1  2 12  7  6  1       21 0.969761542160D-04 0.100000000000D+01
-.982190857064D-04 0.000000000000D+00 -.257045758923D-04 0.812328680500D-06 0.000000000000D+00  6 4 4 25 24 3 4 4 0.14130804D+00 0.18686161D-01 0.57869917D+05 0.57869917D+05 0.57869917D+05 0.11860454D+01  1  2  5  7  6  1       21 -.330746776496D-03 0.100000000000D+01
0.288165774526D-04 0.000000000000D+00 0.000000000000D+00 0.801991683271D-06 0.000000000000D+00  6 -1 4 25 24 3 -1 4 0.14033711D+00 0.18686161D-01 0.69328790D+05 0.69328790D+05 0.69328790D+05 0.11784749D+01  1  2 12  8  6  1       21 0.255447046143D-03 0.100000000000D+01
0.288165774526D-04 0.000000000000D+00 0.000000000000D+00 0.801991683271D-06 0.000000000000D+00  6 -2 4 25 24 3 -2 4 0.14033711D+00 0.18686161D-01 0.69328790D+05 0.69328790D+05 0.69328790D+05 0.11784749D+01  1  2 12  8  6  1       21 0.187733239669D-03 0.100000000000D+01
-.982190857064D-04 0.000000000000D+00 -.257045758923D-04 0.812328680500D-06 0.000000000000D+00  6 -1 4 25 24 3 -1 4 0.14130804D+00 0.18686161D-01 0.57869917D+05 0.57869917D+05 0.57869917D+05 0.11860454D+01  1  2  5  8  6  1       21 -.875721161513D-03 0.100000000000D+01
-.982190857064D-04 0.000000000000D+00 -.257045758923D-04 0.812328680500D-06 0.000000000000D+00  6 -2 4 25 24 3 -2 4 0.14130804D+00 0.18686161D-01 0.57869917D+05 0.57869917D+05 0.57869917D+05 0.11860454D+01  1  2  5  8  6  1       21 -.642820111347D-03 0.100000000000D+01
0.288165774526D-04 0.000000000000D+00 0.000000000000D+00 0.801991683271D-06 0.000000000000D+00  6 1 4 25 24 3 1 4 0.14033711D+00 0.18686161D-01 0.69328790D+05 0.69328790D+05 0.69328790D+05 0.11784749D+01  1  2 12  9  6  1       21 0.126176129591D-02 0.100000000000D+01
0.288165774526D-04 0.000000000000D+00 0.000000000000D+00 0.801991683271D-06 0.000000000000D+00  6 2 4 25 24 3 2 4 0.14033711D+00 0.18686161D-01 0.69328790D+05 0.69328790D+05 0.69328790D+05 0.11784749D+01  1  2 12  9  6  1       21 0.228802113702D-02 0.100000000000D+01
-.982190857064D-04 0.000000000000D+00 -.257045758923D-04 0.812328680500D-06 0.000000000000D+00  6 1 4 25 24 3 1 4 0.14130804D+00 0.18686161D-01 0.57869917D+05 0.57869917D+05 0.57869917D+05 0.11860454D+01  1  2  5  9  6  1       21 -.435069958781D-02 0.100000000000D+01
-.982190857064D-04 0.000000000000D+00 -.257045758923D-04 0.812328680500D-06 0.000000000000D+00  6 2 4 25 24 3 2 4 0.14130804D+00 0.18686161D-01 0.57869917D+05 0.57869917D+05 0.57869917D+05 0.11860454D+01  1  2  5  9  6  1       21 -.789750389344D-02 0.100000000000D+01
  </mgrwgt>
  </event>
  <event>
  6     66 -.46027262E-03 0.24672866E+02 0.75467711E-02 0.12372397E+00
       21 -1    0    0  501  503 0.00000000E+00 0.00000000E+00 0.78273352E+01 0.78631849E+01 0.75000000E+00 0.0000E+00 0.9000E+01
        2 -1    0    0  502    0 0.00000000E+00 0.00000000E+00 -.22116006E+04 0.22116006E+04 0.32000000E+00 0.0000E+00 0.9000E+01
       25  1    1    2    0    0 -.54158418E+01 0.31613824E+02 -.11224811E+04 0.11298751E+04 0.12500000E+03 0.0000E+00 0.9000E+01
       24  1    1    2    0    0 0.87122552E+01 -.88903780E+01 -.90913647E+03 0.91277121E+03 0.80419002E+02 0.0000E+00 0.9000E+01
        1  1    1    2  501    0 0.22378570E+01 -.28632166E+02 -.15712847E+03 0.15973186E+03 0.32000000E+00 0.0000E+00 0.9000E+01
       21  1    1    2  502  503 -.55342704E+01 0.59087207E+01 -.15027152E+02 0.17085635E+02 0.75000000E+00 0.0000E+00 0.9000E+01
#aMCatNLO 2  0  0  1  5 0.80957476D+01 0.00000000D+00  -5  6  0 0.00000000D+00 0.00000000D+00 0.00000000D+00 0.00000000D+00 0.00000000D+00
  <mgrwgt>
 -.1870725282D+00    3    2    0
 0.122264598571643D+03 0.000000000000000D+00 0.000000000000000D+00 0.122264598571643D+03
 0.122264598571643D+03 0.000000000000000D+00 0.000000000000000D+00 -.122264598571643D+03
 0.130057185681017D+03 -.834774366193012D+01 0.347448206233071D+02 0.360335439214565D+01
 0.830073813716021D+02 0.682994700316647D+01 -.688025158555875D+01 -.181390013466400D+02
 0.314646300906669D+02 0.151779665876366D+01 -.278645690377484D+02 0.145356469544944D+02
 0.000000000000000D+00 -.000000000000000D+00 0.000000000000000D+00 0.000000000000000D+00
 0.140795788651593D+03 0.000000000000000D+00 0.000000000000000D+00 0.140795788651593D+03
 0.123218995832369D+03 0.000000000000000D+00 0.000000000000000D+00 -.123218995832369D+03
 0.129099953237494D+03 -.541587932054111D+01 0.316145854667275D+02 0.360335439214565D+01
 0.833736911694000D+02 0.871222867868075D+01 -.888988900025889D+01 -.181390013466400D+02
 0.321895309685949D+02 0.223792100405274D+01 -.286334172108753D+02 0.145356469544944D+02
 0.193516091084734D+02 -.553427036219238D+01 0.590872074440671D+01 0.175767928192240D+02
-.727571897740D-05 0.000000000000D+00 0.000000000000D+00 0.113799542911D-05 0.000000000000D+00  6 21 2 25 24 1 21 4 0.12105974D-02 0.33759382D+00 0.15282242D+05 0.15282242D+05 0.15282242D+05 0.12469007D+01  1  2 13  1  6  1       21 -.372748944240D+00 0.100000000000D+01
-.534172151851D-05 0.000000000000D+00 0.000000000000D+00 0.113799542911D-05 0.000000000000D+00  6 21 2 25 24 1 21 4 0.12664881D-02 0.33759382D+00 0.15282242D+05 0.15282242D+05 0.15282242D+05 0.12469007D+01  1  2 13  1  6  1       21 -.254773176885D+00 0.100000000000D+01
0.873140114814D-05 0.000000000000D+00 0.000000000000D+00 0.114420903603D-05 0.265517089448D-06  6 21 2 25 24 1 21 4 0.12068942D-02 0.34022907D+00 0.15282242D+05 0.15282242D+05 0.15282242D+05 0.12469007D+01  1  2  1  1  6  1       21 0.440449592969D+00 0.100000000000D+01
  </mgrwgt>
  </event>
  <event>
  5     66 0.46027262E-03 0.33036190E+02 0.75467711E-02 0.12223339E+00
       21 -1    0    0  501  502 0.00000000E+00 0.00000000E+00 0.53380526E+02 0.53385794E+02 0.75000000E+00 0.0000E+00 0.9000E+01
        2 -1    0    0  502    0 0.00000000E+00 0.00000000E+00 -.72589088E+03 0.72589095E+03 0.32000000E+00 0.0000E+00 0.9000E+01
       25  1    1    2    0    0 -.20029276E+02 -.95946632E+01 -.43591189E+03 0.45402358E+03 0.12500000E+03 0.0000E+00 0.9000E+01
       24  1    1    2    0    0 -.10649011E+02 0.21851455E+02 -.26727599E+03 0.28016881E+03 0.80419002E+02 0.0000E+00 0.9000E+01
        1  1    1    2  501    0 0.30678287E+02 -.12256792E+02 0.30677532E+02 0.45084361E+02 0.32000000E+00 0.0000E+00 0.9000E+01
#aMCatNLO 1  0  0  1  2 0.17994987D+02 0.00000000D+00  -5  6  0 0.00000000D+00 0.00000000D+00 0.00000000D+00 0.00000000D+00 0.00000000D+00
  <mgrwgt>
 0.2634980240D+00   23    2    0
 0.196851509762413D+03 0.000000000000000D+00 0.000000000000000D+00 0.196851509762413D+03
 0.196851509762413D+03 0.000000000000000D+00 0.000000000000000D+00 -.196851509762413D+03
 0.154062280043308D+03 -.200293068977603D+02 -.959465095167477D+01 -.872751721307592D+02
 0.980007256146965D+02 -.106490305783054D+02 0.218514632794261D+02 -.504582794685541D+02
 0.141640013866822D+03 0.306783374760657D+02 -.122568123277513D+02 0.137733451599313D+03
 0.000000000000000D+00 -.000000000000000D+00 0.000000000000000D+00 0.000000000000000D+00
 0.215265153053878D+03 0.000000000000000D+00 0.000000000000000D+00 0.215265153053878D+03
 0.201503112582143D+03 0.000000000000000D+00 0.000000000000000D+00 -.201503112582143D+03
 0.153514912678346D+03 -.134343177721211D+02 -.120163159988507D+02 -.872751721307592D+02
 0.973018662033587D+02 -.646140386303449D+01 0.203137762485913D+02 -.504582794685541D+02
 0.143297274601887D+03 0.367878877398944D+02 -.145002253260168D+02 0.137733451599313D+03
 0.226542121524289D+02 -.168921661047388D+02 0.620276507627624D+01 0.137620404717360D+02
0.397343360843D-05 0.000000000000D+00 0.000000000000D+00 0.692952698909D-05 0.000000000000D+00  6 21 2 25 24 1 21 2 0.82127992D-02 0.11167593D+00 0.14884770D+05 0.14884770D+05 0.14884770D+05 0.12482045D+01  1  2  2  1  6  1       21 0.359312839403D-01 0.100000000000D+01
0.590639574386D-06 0.209683852255D-06 -.802121765845D-08 0.692952698909D-05 0.000000000000D+00  6 21 2 25 24 1 21 4 0.82127992D-02 0.11167593D+00 0.14884770D+05 0.14884770D+05 0.14884770D+05 0.12482045D+01  1  2  3  1  6  1       21 0.832148471306D-02 0.100000000000D+01
0.392289278155D-06 0.000000000000D+00 0.000000000000D+00 0.692952698909D-05 0.000000000000D+00  6 21 2 25 24 1 21 4 0.82127992D-02 0.11167593D+00 0.14884770D+05 0.14884770D+05 0.14884770D+05 0.12482045D+01  1  2 15  1  6  1       21 0.552693956320D-02 0.100000000000D+01
0.159949645409D-04 0.000000000000D+00 0.000000000000D+00 0.683174739980D-05 0.000000000000D+00  6 21 2 25 24 1 21 4 0.90719657D-02 0.11167593D+00 0.17825786D+05 0.17825786D+05 0.17825786D+05 0.12393668D+01  1  2 12  1  6  1       21 0.184435761464D+00 0.100000000000D+01
-.853829708652D-05 0.000000000000D+00 0.000000000000D+00 0.692952698909D-05 0.000000000000D+00  6 21 2 25 24 1 21 4 0.82127992D-02 0.11167593D+00 0.14884770D+05 0.14884770D+05 0.14884770D+05 0.12482045D+01  1  2  4  1  6  1       21 -.120295543615D+00 0.100000000000D+01
-.620362301384D-04 0.000000000000D+00 -.121188443791D-04 0.692952698909D-05 0.000000000000D+00  6 21 2 25 24 1 21 4 0.91878370D-02 0.11167593D+00 0.14884770D+05 0.14884770D+05 0.14884770D+05 0.12482045D+01  1  2  5  1  6  1       21 -.719793933471D+00 0.100000000000D+01
0.620873599040D-04 0.000000000000D+00 0.118191478117D-04 0.692952698909D-05 0.000000000000D+00  6 21 2 25 24 1 21 4 0.82127992D-02 0.11167593D+00 0.14884770D+05 0.14884770D+05 0.14884770D+05 0.12482045D+01  1  2  6  1  6  1       21 0.874745003080D+00 0.100000000000D+01
0.406332702986D-06 0.000000000000D+00 0.000000000000D+00 0.683174739980D-05 0.000000000000D+00  6 -1 2 25 24 1 -1 4 0.90719657D-02 0.11167593D+00 0.17825786D+05 0.17825786D+05 0.17825786D+05 0.12393668D+01  1  2 12  4  6  1       21 0.303753317653D-03 0.100000000000D+01
-.141665198492D-05 0.000000000000D+00 -.352768358855D-06 0.692952698909D-05 0.000000000000D+00  6 -1 2 25 24 1 -1 4 0.91878370D-02 0.11167593D+00 0.14884770D+05 0.14884770D+05 0.14884770D+05 0.12482045D+01  1  2  5  4  6  1       21 -.106561540507D-02 0.100000000000D+01
0.406332702986D-06 0.000000000000D+00 0.000000000000D+00 0.683174739980D-05 0.000000000000D+00  6 1 2 25 24 1 1 4 0.90719657D-02 0.11167593D+00 0.17825786D+05 0.17825786D+05 0.17825786D+05 0.12393668D+01  1  2 12  5  6  1       21 0.373647833560D-03 0.100000000000D+01
-.141665198492D-05 0.000000000000D+00 -.352768358855D-06 0.692952698909D-05 0.000000000000D+00  6 1 2 25 24 1 1 4 0.91878370D-02 0.11167593D+00 0.14884770D+05 0.14884770D+05 0.14884770D+05 0.12482045D+01  1  2  5  5  6  1       21 -.131431970804D-02 0.100000000000D+01
0.406332702986D-06 0.000000000000D+00 0.000000000000D+00 0.683174739980D-05 0.000000000000D+00  6 -2 2 25 24 1 -2 4 0.90719657D-02 0.11167593D+00 0.17825786D+05 0.17825786D+05 0.17825786D+05 0.12393668D+01  1  2 12  6  6  1       21 0.291587263857D-03 0.100000000000D+01
-.141665198492D-05 0.000000000000D+00 -.352768358855D-06 0.692952698909D-05 0.000000000000D+00  6 -2 2 25 24 1 -2 4 0.91878370D-02 0.11167593D+00 0.14884770D+05 0.14884770D+05 0.14884770D+05 0.12482045D+01  1  2  5  6  6  1       21 -.102230055247D-02 0.100000000000D+01
0.406332702986D-06 0.000000000000D+00 0.000000000000D+00 0.683174739980D-05 0.000000000000D+00  6 2 2 25 24 1 2 4 0.90719657D-02 0.11167593D+00 0.17825786D+05 0.17825786D+05 0.17825786D+05 0.12393668D+01  1  2 12  7  6  1       21 0.420738427561D-03 0.100000000000D+01
-.141665198492D-05 0.000000000000D+00 -.352768358855D-06 0.692952698909D-05 0.000000000000D+00  6 2 2 25 24 1 2 4 0.91878370D-02 0.11167593D+00 0.14884770D+05 0.14884770D+05 0.14884770D+05 0.12482045D+01  1  2  5  7  6  1       21 -.148173863757D-02 0.100000000000D+01
0.406332702986D-06 0.000000000000D+00 0.000000000000D+00 0.683174739980D-05 0.000000000000D+00  6 -3 2 25 24 1 -3 4 0.90719657D-02 0.11167593D+00 0.17825786D+05 0.17825786D+05 0.17825786D+05 0.12393668D+01  1  2 12  8  6  1       21 0.201720376666D-03 0.100000000000D+01
0.406332702986D-06 0.000000000000D+00 0.000000000000D+00 0.683174739980D-05 0.000000000000D+00  6 -4 2 25 24 1 -4 4 0.90719657D-02 0.11167593D+00 0.17825786D+05 0.17825786D+05 0.17825786D+05 0.12393668D+01  1  2 12  8  6  1       21 0.176535895322D-03 0.100000000000D+01
-.141665198492D-05 0.000000000000D+00 -.352768358855D-06 0.692952698909D-05 0.000000000000D+00  6 -3 2 25 24 1 -3 4 0.91878370D-02 0.11167593D+00 0.14884770D+05 0.14884770D+05 0.14884770D+05 0.12482045D+01  1  2  5  8  6  1       21 -.703472520425D-03 0.100000000000D+01
-.141665198492D-05 0.000000000000D+00 -.352768358855D-06 0.692952698909D-05 0.000000000000D+00  6 -4 2 25 24 1 -4 4 0.91878370D-02 0.11167593D+00 0.14884770D+05 0.14884770D+05 0.14884770D+05 0.12482045D+01  1  2  5  8  6  1       21 -.614178287501D-03 0.100000000000D+01
0.406332702986D-06 0.000000000000D+00 0.000000000000D+00 0.683174739980D-05 0.000000000000D+00  6 3 2 25 24 1 3 4 0.90719657D-02 0.11167593D+00 0.17825786D+05 0.17825786D+05 0.17825786D+05 0.12393668D+01  1  2 12  9  6  1       21 0.201695047918D-03 0.100000000000D+01
0.406332702986D-06 0.000000000000D+00 0.000000000000D+00 0.683174739980D-05 0.000000000000D+00  6 4 2 25 24 1 4 4 0.90719657D-02 0.11167593D+00 0.17825786D+05 0.17825786D+05 0.17825786D+05 0.12393668D+01  1  2 12  9  6  1       21 0.176535895322D-03 0.100000000000D+01
-.141665198492D-05 0.000000000000D+00 -.352768358855D-06 0.692952698909D-05 0.000000000000D+00  6 3 2 25 24 1 3 4 0.91878370D-02 0.11167593D+00 0.14884770D+05 0.14884770D+05 0.14884770D+05 0.12482045D+01  1  2  5  9  6  1       21 -.703382373805D-03 0.100000000000D+01
-.141665198492D-05 0.000000000000D+00 -.352768358855D-06 0.692952698909D-05 0.000000000000D+00  6 4 2 25 24 1 4 4 0.91878370D-02 0.11167593D+00 0.14884770D+05 0.14884770D+05 0.14884770D+05 0.12482045D+01  1  2  5  9  6  1       21 -.614178287501D-03 0.100000000000D+01
  </mgrwgt>
  </event>
  <event>
  6     66 -.46027262E-03 0.35668701E+02 0.75467711E-02 0.11634778E+00
       21 -1    0    0  501  502 0.00000000E+00 0.00000000E+00 0.92052366E+02 0.92055421E+02 0.75000000E+00 0.0000E+00 0.9000E+01
        4 -1    0    0  503    0 0.00000000E+00 0.00000000E+00 -.16715369E+04 0.16715376E+04 0.15500000E+01 0.0000E+00 0.9000E+01
       25  1    1    2    0    0 -.59018934E+02 0.77511682E+02 -.53095137E+03 0.55409895E+03 0.12500000E+03 0.0000E+00 0.9000E+01
       24  1    1    2    0    0 0.91132996E+02 -.10676029E+03 -.10587498E+04 0.10710375E+04 0.80419002E+02 0.0000E+00 0.9000E+01
        3  1    1    2  501    0 -.23844874E+02 0.32185929E+02 0.68585199E+02 0.79427272E+02 0.50000000E+00 0.0000E+00 0.9000E+01
       21  1    1    2  503  502 -.82691883E+01 -.29373247E+01 -.58368539E+02 0.59029283E+02 0.75000000E+00 0.0000E+00 0.9000E+01
#aMCatNLO 2  0  0  2  1 0.87753832D+01 0.00000000D+00  -5  6  0 0.00000000D+00 0.00000000D+00 0.00000000D+00 0.00000000D+00 0.00000000D+00
  <mgrwgt>
 -.2155723456D-01    3    2    0
 0.384599375242937D+03 0.000000000000000D+00 0.000000000000000D+00 0.384599375242937D+03
 0.384599375242937D+03 0.000000000000000D+00 0.000000000000000D+00 -.384599375242937D+03
 0.178261813370567D+03 -.609333658759690D+02 0.768316379936376D+02 -.808473773996583D+02
 0.279161335596235D+03 0.881290372795885D+02 -.107827350236179D+03 -.228189330746905D+03
 0.311775601519073D+03 -.271956714036195D+02 0.309957122425418D+02 0.309036708146563D+03
 0.000000000000000D+00 -.000000000000000D+00 -.000000000000000D+00 -.000000000000000D+00
 0.386000625982425D+03 0.000000000000000D+00 0.000000000000000D+00 0.386000625982425D+03
 0.398613295688264D+03 0.000000000000000D+00 0.000000000000000D+00 -.398613295688264D+03
 0.177911751606773D+03 -.590189254019932D+02 0.775116724873182D+02 -.808473773996583D+02
 0.279715165344227D+03 0.911330103381238D+02 -.106760299405579D+03 -.228189330746905D+03
 0.311621888768015D+03 -.238448966574462D+02 0.321859516043430D+02 0.309036708146563D+03
 0.153651159516737D+02 -.826918827868440D+01 -.293732468608225D+01 -.126126697058386D+02
-.395996345519D-03 0.000000000000D+00 0.000000000000D+00 0.481157758101D-05 0.000000000000D+00  6 21 4 25 24 3 21 4 0.14110448D-01 0.25759627D+00 0.34055944D+05 0.34055944D+05 0.34055944D+05 0.12091606D+01  1  2 13  2  6  2        4 -.102483376306D-01 0.100000000000D+01
-.971498886344D-03 0.000000000000D+00 0.000000000000D+00 0.482762313093D-05 0.000000000000D+00  6 21 4 25 24 3 21 4 0.14110448D-01 0.24811306D+00 0.32566139D+05 0.32566139D+05 0.32566139D+05 0.12111750D+01  1  2  8  2  6  2        4 -.287844471411D-01 0.100000000000D+01
0.675694018869D-03 0.000000000000D+00 0.000000000000D+00 0.482762313093D-05 0.501184449939D-06  6 21 4 25 24 3 21 4 0.14161858D-01 0.25715374D+00 0.34055944D+05 0.34055944D+05 0.34055944D+05 0.12091606D+01  1  2  1  2  6  2        4 0.174755502094D-01 0.100000000000D+01
  </mgrwgt>
  </event>
  <event>
  5     66 0.46027262E-03 0.30378936E+02 0.75467711E-02 0.11677616E+00
       21 -1    0    0  501  502 0.00000000E+00 0.00000000E+00 0.35920911E+02 0.35928740E+02 0.75000000E+00 0.0000E+00 0.9000E+01
        2 -1    0    0  502    0 0.00000000E+00 0.00000000E+00 -.19726438E+04 0.19726439E+04 0.32000000E+00 0.0000E+00 0.9000E+01
       25  1    1    2    0    0 -.53578914E+02 0.87197857E+02 -.42497195E+03 0.45464308E+03 0.12500000E+03 0.0000E+00 0.9000E+01
       24  1    1    2    0    0 0.78877780E+02 -.70379910E+02 -.15172521E+04 0.15230549E+04 0.80419002E+02 0.0000E+00 0.9000E+01
        1  1    1    2  501    0 -.25298866E+02 -.16817948E+02 0.55011634E+01 0.30874604E+02 0.32000000E+00 0.0000E+00 0.9000E+01
#aMCatNLO 1  0  0  1  1 0.41345198D+02 0.00000000D+00  -5  6  0 0.00000000D+00 0.00000000D+00 0.00000000D+00 0.00000000D+00 0.00000000D+00
  <mgrwgt>
 0.3442611059D+00    4    2    0
 0.266208663813129D+03 0.000000000000000D+00 0.000000000000000D+00 0.266208663813129D+03
 0.266208663813129D+03 0.000000000000000D+00 0.000000000000000D+00 -.266208663813129D+03
 0.169285785986329D+03 -.535788921057890D+02 0.871978720002074D+02 0.505817237385283D+02
 0.226644507999505D+03 0.788778095657204D+02 -.703798900248634D+02 -.183644981663451D+03
 0.136487033640423D+03 -.252989174599314D+02 -.168179819753440D+02 0.133063257924923D+03
 0.000000000000000D+00 -.000000000000000D+00 -.000000000000000D+00 -.000000000000000D+00
 0.274381852604442D+03 0.000000000000000D+00 0.000000000000000D+00 0.274381852604442D+03
 0.324982507610657D+03 0.000000000000000D+00 0.000000000000000D+00 -.324982507610657D+03
 0.174505214042101D+03 -.485667108539654D+02 0.995481468855451D+02 0.505817237385283D+02
 0.224566027809979D+03 0.854560765593956D+02 -.541706985453110D+02 -.183644981663451D+03
 0.134949016322721D+03 -.213416100243620D+02 -.706697095249044D+01 0.133063257924923D+03
 0.653441020402984D+02 -.155477556810682D+02 -.383104773877436D+02 -.506006550062144D+02
0.823300642853D-04 0.000000000000D+00 0.000000000000D+00 0.121981195958D-05 0.000000000000D+00  6 21 2 25 24 1 21 2 0.55268983D-02 0.30348427D+00 0.26366525D+05 0.26366525D+05 0.26366525D+05 0.12208274D+01  1  2  2  1  6  1       21 0.280020686054D+00 0.100000000000D+01
0.137371331384D-04 0.434467685559D-05 -.166200679449D-06 0.121981195958D-05 0.000000000000D+00  6 21 2 25 24 1 21 4 0.55268983D-02 0.30348427D+00 0.26366525D+05 0.26366525D+05 0.26366525D+05 0.12208274D+01  1  2  3  1  6  1       21 0.696363972823D-01 0.100000000000D+01
0.777764509392D-05 0.000000000000D+00 0.000000000000D+00 0.121981195958D-05 0.000000000000D+00  6 21 2 25 24 1 21 4 0.55268983D-02 0.30348427D+00 0.26366525D+05 0.26366525D+05 0.26366525D+05 0.12208274D+01  1  2 15  1  6  1       21 0.394265075708D-01 0.100000000000D+01
-.884210655030D-05 0.000000000000D+00 0.000000000000D+00 0.121981195958D-05 0.000000000000D+00  6 21 2 25 24 1 21 4 0.55268983D-02 0.30348427D+00 0.26366525D+05 0.26366525D+05 0.26366525D+05 0.12208274D+01  1  2  4  1  6  1       21 -.448224850372D-01 0.100000000000D+01
  </mgrwgt>
  </event>
  <event>
  5     66 0.46027262E-03 0.73532775E+02 0.75467711E-02 0.12020845E+00
       21 -1    0    0  501  502 0.00000000E+00 0.00000000E+00 0.50920866E+02 0.50926389E+02 0.75000000E+00 0.0000E+00 0.9000E+01
        2 -1    0    0  502    0 -.00000000E+00 -.00000000E+00 -.49765061E+03 0.49765071E+03 0.32000000E+00 0.0000E+00 0.9000E+01
       25  1    1    2    0    0 0.67021699E+02 0.19232018E+01 -.25465926E+03 0.29149948E+03 0.12500000E+03 0.0000E+00 0.9000E+01
       24  1    1    2    0    0 0.48275310E+01 -.17565622E+02 -.48215854E+02 0.95518797E+02 0.80419002E+02 0.0000E+00 0.9000E+01
        1  1    1    2  501    0 -.71849230E+02 0.15642420E+02 -.14385462E+03 0.16155882E+03 0.32000000E+00 0.0000E+00 0.9000E+01
#aMCatNLO 1  0  0  5  1 0.39123211D+01 0.00000000D+00  -5  6  0 0.00000000D+00 0.00000000D+00 0.00000000D+00 0.00000000D+00 0.00000000D+00
  <mgrwgt>
 0.3805707190D-01    8    2    0
 0.159192785102289D+03 0.000000000000000D+00 0.000000000000000D+00 0.159192785102289D+03
 0.159192785102289D+03 -.000000000000000D+00 -.000000000000000D+00 -.159192785102289D+03
 0.144937815193967D+03 0.670219853227425D+02 0.192313948700638D+01 -.297712158151494D+02
 0.969264518633850D+02 0.482772223658782D+01 -.175656636257386D+02 0.509476366070921D+02
 0.765213031472252D+02 -.718497075593304D+02 0.156425241387323D+02 -.211764207919427D+02
 0.000000000000000D+00 0.000000000000000D+00 0.000000000000000D+00 -.000000000000000D+00
 0.159192785102289D+03 0.000000000000000D+00 0.000000000000000D+00 0.159192785102289D+03
 0.159192785102289D+03 -.000000000000000D+00 -.000000000000000D+00 -.159192785102289D+03
 0.144848430165439D+03 0.667975321682369D+02 0.197200557159648D+01 -.298373693822180D+02
 0.968899199631201D+02 0.467760228870233D+01 -.175329807521644D+02 0.509033914279024D+02
 0.198175801446061D+02 -.189592712067393D+02 0.546971764183926D+01 -.183431377243605D+01
 0.568296399314124D+02 -.525158632502000D+02 0.100912575387287D+02 -.192317082732483D+02
0.106836894522D-05 0.000000000000D+00 0.000000000000D+00 0.232830459971D-06 0.000000000000D+00  6 21 2 25 24 1 21 2 0.78344121D-02 0.76562064D-01 0.22176651D+05 0.22176651D+05 0.22176651D+05 0.12289171D+01  1  2  2  3  6  5        1 0.156764894184D-01 0.100000000000D+01
-.960894479309D-07 0.563793781752D-07 -.215672908966D-08 0.232830459971D-06 0.000000000000D+00  6 21 2 25 24 1 21 4 0.78344121D-02 0.76562064D-01 0.22176651D+05 0.22176651D+05 0.22176651D+05 0.12289171D+01  1  2  3  3  6  5        1 -.212935662662D-02 0.100000000000D+01
0.113351398882D-06 0.000000000000D+00 0.000000000000D+00 0.232830459971D-06 0.000000000000D+00  6 21 2 25 24 1 21 4 0.78344121D-02 0.76562064D-01 0.22176651D+05 0.22176651D+05 0.22176651D+05 0.12289171D+01  1  2 15  3  6  5        1 0.251188405744D-02 0.100000000000D+01
0.384276177573D-06 0.000000000000D+00 0.000000000000D+00 0.232883926109D-06 0.000000000000D+00  6 21 2 25 24 1 21 4 0.78344121D-02 0.76562064D-01 0.22110507D+05 0.22110507D+05 0.22110507D+05 0.12290582D+01  1  2 12  3  6  5        1 0.851924901422D-02 0.100000000000D+01
-.712897404296D-05 0.000000000000D+00 0.000000000000D+00 0.232830459971D-06 0.000000000000D+00  6 21 2 25 24 1 21 4 0.78344121D-02 0.76562064D-01 0.22176651D+05 0.22176651D+05 0.22176651D+05 0.12289171D+01  1  2  4  3  6  5        1 -.157979137629D+00 0.100000000000D+01
-.423716753106D-05 0.000000000000D+00 0.000000000000D+00 0.232830459971D-06 0.000000000000D+00  6 21 2 25 24 1 21 4 0.78344121D-02 0.76562064D-01 0.22176651D+05 0.22176651D+05 0.22176651D+05 0.12289171D+01  1  2  5  3  6  5        1 -.938962701383D-01 0.100000000000D+01
0.818056894052D-05 0.000000000000D+00 -.000000000000D+00 0.232830459971D-06 0.000000000000D+00  6 21 2 25 24 1 21 4 0.78344121D-02 0.76562064D-01 0.22176651D+05 0.22176651D+05 0.22176651D+05 0.12289171D+01  1  2  6  3  6  5        1 0.181282638813D+00 0.100000000000D+01
0.379220086472D-05 0.000000000000D+00 0.000000000000D+00 0.232830459971D-06 0.164451812811D-07  6 21 2 25 24 1 21 4 0.78344121D-02 0.76562064D-01 0.22110507D+05 0.22110507D+05 0.22110507D+05 0.12290582D+01  1  2 11  3  6  5        1 0.840715749869D-01 0.100000000000D+01
  </mgrwgt>
  </event>
  <event>
  6     66 -.46027262E-03 0.40319858E+02 0.75467711E-02 0.11696956E+00
       21 -1    0    0  501  502 0.00000000E+00 0.00000000E+00 0.23438906E+03 0.23439026E+03 0.75000000E+00 0.0000E+00 0.9000E+01
        2 -1    0    0  503    0 0.00000000E+00 0.00000000E+00 -.24427882E+03 0.24427903E+03 0.32000000E+00 0.0000E+00 0.9000E+01
       25  1    1    2    0    0 0.46380085E+01 -.97202342E+02 -.54471531E+02 0.16751703E+03 0.12500000E+03 0.0000E+00 0.9000E+01
       24  1    1    2    0    0 -.44585385E+02 0.91951147E+02 -.83885845E+02 0.15474793E+03 0.80419002E+02 0.0000E+00 0.9000E+01
        1  1    1    2  501    0 0.48193687E+02 -.11006614E+02 0.12900367E+03 0.13815146E+03 0.32000000E+00 0.0000E+00 0.9000E+01
       21  1    1    2  503  502 -.82463097E+01 0.16257809E+02 -.53604534E+00 0.18252885E+02 0.75000000E+00 0.0000E+00 0.9000E+01
#aMCatNLO 2  0  0  2  1 0.18229591D+02 0.00000000D+00  -5  6  0 0.00000000D+00 0.00000000D+00 0.00000000D+00 0.00000000D+00 0.00000000D+00
  <mgrwgt>
 -.1743352111D+00    3    2    0
 0.229980141178233D+03 0.000000000000000D+00 0.000000000000000D+00 0.229980141178233D+03
 0.229980141178233D+03 0.000000000000000D+00 0.000000000000000D+00 -.229980141178233D+03
 0.163056577659935D+03 0.168542458731931D+01 -.913813259763647D+02 -.510789597087898D+02
 0.157245023564071D+03 -.473660935042246D+02 0.974333077545144D+02 -.807588088536345D+02
 0.139658681132461D+03 0.456806689169053D+02 -.605198177814978D+01 0.131837768562424D+03
 0.000000000000000D+00 -.000000000000000D+00 0.000000000000000D+00 -.000000000000000D+00
 0.239193236833252D+03 0.000000000000000D+00 0.000000000000000D+00 0.239193236833252D+03
 0.239358489654946D+03 0.000000000000000D+00 0.000000000000000D+00 -.239358489654946D+03
 0.166444781380803D+03 0.463796656888578D+01 -.972023373694130D+02 -.510789597087898D+02
 0.153075390380230D+03 -.445854250038729D+02 0.919511492883883D+02 -.807588088536345D+02
 0.140801215223499D+03 0.481937681664728D+02 -.110066206808056D+02 0.131837768562424D+03
 0.182303395036657D+02 -.824630973148562D+01 0.162578087618302D+02 -.165252821693846D+00
-.742295439286D-04 0.000000000000D+00 0.000000000000D+00 0.133312516481D-05 0.000000000000D+00  6 21 2 25 24 1 21 4 0.34669912D-01 0.38274802D-01 0.31704731D+05 0.31704731D+05 0.31704731D+05 0.12123873D+01  1  2 13  2  6  2        2 -.213718432325D+00 0.100000000000D+01
-.325214358697D-05 0.000000000000D+00 0.000000000000D+00 0.134490151245D-05 0.000000000000D+00  6 21 2 25 24 1 21 4 0.34669912D-01 0.36107816D-01 0.28199079D+05 0.28199079D+05 0.28199079D+05 0.12177304D+01  1  2  8  2  6  2        2 -.101635768871D-01 0.100000000000D+01
0.182402410930D-04 0.000000000000D+00 0.000000000000D+00 0.134490151245D-05 0.296552056732D-07  6 21 2 25 24 1 21 4 0.36058803D-01 0.37580255D-01 0.31704731D+05 0.31704731D+05 0.31704731D+05 0.12123873D+01  1  2  1  2  6  2        2 0.495467980914D-01 0.100000000000D+01
  </mgrwgt>
  </event>
  <event>
  5     66 -.46027262E-03 0.28540493E+02 0.75467711E-02 0.11693709E+00
       21 -1    0    0  501  502 0.00000000E+00 0.00000000E+00 0.19259551E+02 0.19274148E+02 0.75000000E+00 0.0000E+00 0.9000E+01
        2 -1    0    0  502    0 0.00000000E+00 0.00000000E+00 -.98870054E+03 0.98870059E+03 0.32000000E+00 0.0000E+00 0.9000E+01
       25  1    1    2    0    0 -.54080613E+01 -.10460285E+02 -.43609739E+03 0.45381119E+03 0.12500000E+03 0.0000E+00 0.9000E+01
       24  1    1    2    0    0 0.22973020E+02 -.12034354E+02 -.51093814E+03 0.51787797E+03 0.80419002E+02 0.0000E+00 0.9000E+01
        1  1    1    2  501    0 -.17564959E+02 0.22494639E+02 -.22405454E+02 0.36285580E+02 0.32000000E+00 0.0000E+00 0.9000E+01
#aMCatNLO 1  0  0  1  5 0.45175446D+01 0.00000000D+00  -5  6  0 0.00000000D+00 0.00000000D+00 0.00000000D+00 0.00000000D+00 0.00000000D+00
  <mgrwgt>
 -.1024119289D+01   12    2    0
 0.138019242529029D+03 0.000000000000000D+00 0.000000000000000D+00 0.138019242529029D+03
 0.138019242529029D+03 0.000000000000000D+00 0.000000000000000D+00 -.138019242529029D+03
 0.125560516984279D+03 -.540792003322198D+01 -.104604660400121D+02 0.133284526464233D+01
 0.966661546643384D+02 0.229731288557288D+02 -.120344932239985D+02 -.469524847759825D+02
 0.538118134094401D+02 -.175652088225068D+02 0.224949592640106D+02 0.456196395113401D+02
 0.000000000000000D+00 0.000000000000000D+00 -.000000000000000D+00 0.000000000000000D+00
 0.941834355992441D+04 0.000000000000000D+00 0.000000000000000D+00 0.941834355992441D+04
 0.146252568071749D+03 0.000000000000000D+00 0.000000000000000D+00 -.146252568071749D+03
 0.130354735844321D+03 -.236653560501071D+02 0.283818886539423D+02 0.133284526464233D+01
 0.951296202259805D+02 0.929008710786481D+01 0.170759229577253D+02 -.469524847759825D+02
 0.665313705198879D+02 -.261506993564747D+02 0.407604302881760D+02 0.456196395113401D+02
 0.927258040140598D+04 0.405259682987170D+02 -.862182418998435D+02 0.927209099185266D+04
0.317319317792D-06 0.000000000000D+00 0.000000000000D+00 0.185365235745D-05 0.000000000000D+00  6 21 2 25 24 1 21 2 0.29641347D-02 0.15210890D+00 0.14231456D+05 0.14231456D+05 0.14231456D+05 0.12504350D+01  1  2  2  1  6  1       21 0.107413865446D-01 0.100000000000D+01
0.193328778214D-07 0.167454004538D-07 -.640576278874D-09 0.185365235745D-05 0.000000000000D+00  6 21 2 25 24 1 21 4 0.29641347D-02 0.15210890D+00 0.14231456D+05 0.14231456D+05 0.14231456D+05 0.12504350D+01  1  2  3  1  6  1       21 0.102325191299D-02 0.100000000000D+01
0.324852292675D-07 0.000000000000D+00 0.000000000000D+00 0.185365235745D-05 0.000000000000D+00  6 21 2 25 24 1 21 4 0.29641347D-02 0.15210890D+00 0.14231456D+05 0.14231456D+05 0.14231456D+05 0.12504350D+01  1  2 15  1  6  1       21 0.171938049259D-02 0.100000000000D+01
-.392259383810D-01 0.000000000000D+00 -.468856924145D-03 0.185365235745D-05 0.000000000000D+00  6 21 2 25 24 1 21 4 0.20370383D+00 0.15210890D+00 0.14231456D+05 0.14231456D+05 0.14231456D+05 0.12504350D+01  1  2  5  1  6  1       21 -.460326301125D+00 0.100000000000D+01
-.174142895717D-01 0.000000000000D+00 -.208313714134D-03 0.185365235745D-05 0.000000000000D+00  6 -1 2 25 24 1 -1 4 0.20370383D+00 0.15210890D+00 0.14231456D+05 0.14231456D+05 0.14231456D+05 0.12504350D+01  1  2  5  4  6  1       21 -.231666530287D-01 0.100000000000D+01
-.174142895717D-01 0.000000000000D+00 -.208313714134D-03 0.185365235745D-05 0.000000000000D+00  6 1 2 25 24 1 1 4 0.20370383D+00 0.15210890D+00 0.14231456D+05 0.14231456D+05 0.14231456D+05 0.12504350D+01  1  2  5  5  6  1       21 -.163542717821D+00 0.100000000000D+01
-.174142895717D-01 0.000000000000D+00 -.208313714134D-03 0.185365235745D-05 0.000000000000D+00  6 -2 2 25 24 1 -2 4 0.20370383D+00 0.15210890D+00 0.14231456D+05 0.14231456D+05 0.14231456D+05 0.12504350D+01  1  2  5  6  6  1       21 -.173792528756D-01 0.100000000000D+01
-.174142895717D-01 0.000000000000D+00 -.208313714134D-03 0.185365235745D-05 0.000000000000D+00  6 2 2 25 24 1 2 4 0.20370383D+00 0.15210890D+00 0.14231456D+05 0.14231456D+05 0.14231456D+05 0.12504350D+01  1  2  5  7  6  1       21 -.333090696459D+00 0.100000000000D+01
-.174142895717D-01 0.000000000000D+00 -.208313714134D-03 0.185365235745D-05 0.000000000000D+00  6 -3 2 25 24 1 -3 4 0.20370383D+00 0.15210890D+00 0.14231456D+05 0.14231456D+05 0.14231456D+05 0.12504350D+01  1  2  5  8  6  1       21 -.113494550954D-01 0.100000000000D+01
-.174142895717D-01 0.000000000000D+00 -.208313714134D-03 0.185365235745D-05 0.000000000000D+00  6 -4 2 25 24 1 -4 4 0.20370383D+00 0.15210890D+00 0.14231456D+05 0.14231456D+05 0.14231456D+05 0.12504350D+01  1  2  5  8  6  1       21 -.866248892485D-02 0.100000000000D+01
-.174142895717D-01 0.000000000000D+00 -.208313714134D-03 0.185365235745D-05 0.000000000000D+00  6 3 2 25 24 1 3 4 0.20370383D+00 0.15210890D+00 0.14231456D+05 0.14231456D+05 0.14231456D+05 0.12504350D+01  1  2  5  9  6  1       21 -.114232537621D-01 0.100000000000D+01
-.174142895717D-01 0.000000000000D+00 -.208313714134D-03 0.185365235745D-05 0.000000000000D+00  6 4 2 25 24 1 4 4 0.20370383D+00 0.15210890D+00 0.14231456D+05 0.14231456D+05 0.14231456D+05 0.12504350D+01  1  2  5  9  6  1       21 -.866248892485D-02 0.100000000000D+01
  </mgrwgt>
  </event>
  <event>
  5     66 0.46027262E-03 0.71556352E+02 0.75467711E-02 0.10895294E+00
       21 -1    0    0  501  502 0.00000000E+00 0.00000000E+00 0.33169900E+02 0.33178378E+02 0.75000000E+00 0.0000E+00 0.9000E+01
        2 -1    0    0  502    0 -.00000000E+00 -.00000000E+00 -.46379236E+04 0.46379236E+04 0.32000000E+00 0.0000E+00 0.9000E+01
       25  1    1    2    0    0 -.87880942E+02 -.14214579E+03 -.17079920E+04 0.17206947E+04 0.12500000E+03 0.0000E+00 0.9000E+01
       24  1    1    2    0    0 0.64803264E+02 -.94233684E+02 -.20469642E+03 0.24788564E+03 0.80419002E+02 0.0000E+00 0.9000E+01
        1  1    1    2  501    0 0.23077678E+02 0.23637947E+03 -.26920652E+04 0.27025216E+04 0.32000000E+00 0.0000E+00 0.9000E+01
#aMCatNLO 1  0  0  5  1 0.43899517D+01 0.00000000D+00  -5  6  0 0.00000000D+00 0.00000000D+00 0.00000000D+00 0.00000000D+00 0.00000000D+00
  <mgrwgt>
 0.7494840015D-02    8    2    0
 0.392249011131504D+03 0.000000000000000D+00 0.000000000000000D+00 0.392249011131504D+03
 0.392249011131504D+03 -.000000000000000D+00 -.000000000000000D+00 -.392249011131504D+03
 0.220087031038658D+03 -.878809460484162D+02 -.142145825850012D+03 -.698913781983463D+02
 0.274471751041684D+03 0.648032593333285D+02 -.942337343272786D+02 0.236194976788312D+03
 0.289939240182666D+03 0.230776867150877D+02 0.236379560177291D+03 -.166303598589965D+03
 0.000000000000000D+00 0.000000000000000D+00 0.000000000000000D+00 0.000000000000000D+00
 0.392249011131504D+03 0.000000000000000D+00 0.000000000000000D+00 0.392249011131504D+03
 0.392249011131504D+03 -.000000000000000D+00 -.000000000000000D+00 -.392249011131504D+03
 0.219704446634057D+03 -.877995656793500D+02 -.141312265013330D+03 -.704778255488703D+02
 0.273511566504200D+03 0.649046598535477D+02 -.931951115802463D+02 0.235464259207319D+03
 0.286806734758323D+03 0.212682907829700D+02 0.231539405450230D+03 -.167914462252828D+03
 0.447527436642810D+01 0.162661504283224D+01 0.296797114334647D+01 0.292802859437933D+01
0.822147530506D-04 0.000000000000D+00 0.000000000000D+00 0.307014398278D-07 0.000000000000D+00  6 21 2 25 24 1 21 2 0.51037145D-02 0.71352736D+00 0.85851225D+05 0.85851225D+05 0.85851225D+05 0.11697074D+01  1  2  2  3  6  5        1 0.457905008013D-02 0.100000000000D+01
-.100142162752D-04 0.433859171456D-05 -.165967899289D-06 0.307014398278D-07 0.000000000000D+00  6 21 2 25 24 1 21 4 0.51037145D-02 0.71352736D+00 0.85851225D+05 0.85851225D+05 0.85851225D+05 0.11697074D+01  1  2  3  3  6  5        1 -.763127410908D-03 0.100000000000D+01
0.844894758037D-05 0.000000000000D+00 0.000000000000D+00 0.307014398278D-07 0.000000000000D+00  6 21 2 25 24 1 21 4 0.51037145D-02 0.71352736D+00 0.85851225D+05 0.85851225D+05 0.85851225D+05 0.11697074D+01  1  2 15  3  6  5        1 0.643847038520D-03 0.100000000000D+01
0.494871536821D-05 0.000000000000D+00 0.000000000000D+00 0.307222569269D-07 0.000000000000D+00  6 21 2 25 24 1 21 4 0.51037145D-02 0.71352736D+00 0.85016255D+05 0.85016255D+05 0.85016255D+05 0.11701039D+01  1  2 12  3  6  5        1 0.377981681847D-03 0.100000000000D+01
-.243688904950D-02 0.000000000000D+00 0.000000000000D+00 0.307014398278D-07 0.000000000000D+00  6 21 2 25 24 1 21 4 0.51037145D-02 0.71352736D+00 0.85851225D+05 0.85851225D+05 0.85851225D+05 0.11697074D+01  1  2  4  3  6  5        1 -.185701684476D+00 0.100000000000D+01
-.125687240191D-02 0.000000000000D+00 0.000000000000D+00 0.307014398278D-07 0.000000000000D+00  6 21 2 25 24 1 21 4 0.51037145D-02 0.71352736D+00 0.85851225D+05 0.85851225D+05 0.85851225D+05 0.11697074D+01  1  2  5  3  6  5        1 -.957792158219D-01 0.100000000000D+01
0.127642220124D-02 0.000000000000D+00 -.000000000000D+00 0.307014398278D-07 0.000000000000D+00  6 21 2 25 24 1 21 4 0.51037145D-02 0.71352736D+00 0.85851225D+05 0.85851225D+05 0.85851225D+05 0.11697074D+01  1  2  6  3  6  5        1 0.972689966834D-01 0.100000000000D+01
0.244657743523D-02 0.000000000000D+00 0.000000000000D+00 0.307014398278D-07 0.568029743368D-07  6 21 2 25 24 1 21 4 0.51037145D-02 0.71352736D+00 0.85016255D+05 0.85016255D+05 0.85016255D+05 0.11701039D+01  1  2 11  3  6  5        1 0.186868992240D+00 0.100000000000D+01
  </mgrwgt>
  </event>
  <event>
  6     66 0.46027262E-03 0.53759701E+02 0.75467711E-02 0.11745740E+00
        2 -1    0    0  501    0 0.00000000E+00 0.00000000E+00 0.10513909E+04 0.10513909E+04 0.32000000E+00 0.0000E+00 0.9000E+01
        2 -1    0    0  502    0 0.00000000E+00 0.00000000E+00 -.12625877E+03 0.12625917E+03 0.32000000E+00 0.0000E+00 0.9000E+01
       25  1    1    2    0    0 0.12196127E+03 0.89597443E+01 0.10569369E+03 0.20433058E+03 0.12500000E+03 0.0000E+00 0.9000E+01
       24  1    1    2    0    0 -.65131869E+02 -.27890655E+02 -.37730055E+02 0.11362580E+03 0.80419002E+02 0.0000E+00 0.9000E+01
        1  1    1    2  501    0 -.51989867E+02 0.24030870E+02 0.80754709E+03 0.80957571E+03 0.32000000E+00 0.0000E+00 0.9000E+01
        2  1    1    2  502    0 -.48395387E+01 -.50999592E+01 0.49621406E+02 0.50118032E+02 0.32000000E+00 0.0000E+00 0.9000E+01
#aMCatNLO 2  0  0  1  2 0.70306983D+01 0.00000000D+00  -5  6  0 0.00000000D+00 0.00000000D+00 0.00000000D+00 0.00000000D+00 0.00000000D+00
  <mgrwgt>
 0.6532475860D-02    2    2    0
 0.355232370154899D+03 0.000000000000000D+00 0.000000000000000D+00 0.355232370154899D+03
 0.355232370154899D+03 0.000000000000000D+00 0.000000000000000D+00 -.355232370154899D+03
 0.193137539311816D+03 0.120642686678332D+03 0.757018896208989D+01 -.840544078649962D+02
 0.227466999965686D+03 -.666790477230566D+02 -.295211042764285D+02 -.199891043111155D+03
 0.289860201032295D+03 -.539636389552759D+02 0.219509153143386D+02 0.283945450976151D+03
 0.000000000000000D+00 -.000000000000000D+00 -.000000000000000D+00 0.000000000000000D+00
 0.372937600786283D+03 0.000000000000000D+00 0.000000000000000D+00 0.372937600786283D+03
 0.355948417597107D+03 0.000000000000000D+00 0.000000000000000D+00 -.355948417597107D+03
 0.194023130379831D+03 0.121961283547041D+03 0.895974086745535D+01 -.840544078649962D+02
 0.226812021056768D+03 -.651318582962042D+02 -.278906590152090D+02 -.199891043111155D+03
 0.289664375615673D+03 -.519898865782175D+02 0.240308773113272D+02 0.283945450976151D+03
 0.183864913311185D+02 -.483953867261884D+01 -.509995916357355D+01 0.169891831891767D+02
-.319683004329D-04 0.000000000000D+00 0.000000000000D+00 0.297817663160D-05 0.000000000000D+00  6 2 2 25 24 1 2 4 0.16190284D+00 0.19385309D-01 0.29990499D+05 0.29990499D+05 0.29990499D+05 0.12149128D+01  1  2 13  7  6  1       21 -.763215722711D-02 0.100000000000D+01
0.593878854485D-04 0.000000000000D+00 0.000000000000D+00 0.298554945449D-05 0.116563772966D-07  6 2 2 25 24 1 2 4 0.16175185D+00 0.19424385D-01 0.29990499D+05 0.29990499D+05 0.29990499D+05 0.12149128D+01  1  2  1  7  6  1       21 0.141646330867D-01 0.100000000000D+01
  </mgrwgt>
  </event>
  <event>
  6     66 0.46027262E-03 0.18479526E+02 0.75467711E-02 0.12287329E+00
       21 -1    0    0  501  502 0.00000000E+00 0.00000000E+00 0.10142570E+03 0.10142847E+03 0.75000000E+00 0.0000E+00 0.9000E+01
        2 -1    0    0  502    0 -.00000000E+00 -.00000000E+00 -.13494606E+04 0.13494607E+04 0.32000000E+00 0.0000E+00 0.9000E+01
       25  1    1    2    0    0 -.53794907E+02 0.15634568E+02 -.55390624E+03 0.57059219E+03 0.12500000E+03 0.0000E+00 0.9000E+01
       24  1    1    2    0    0 0.46873400E+02 -.62122275E+00 -.78218540E+03 0.78770472E+03 0.80419002E+02 0.0000E+00 0.9000E+01
        1  1    1    2  503    0 0.12934396E+02 -.17450310E+02 0.60811728E+02 0.64575386E+02 0.32000000E+00 0.0000E+00 0.9000E+01
       21  1    1    2  501  503 -.60128887E+01 0.24369641E+01 0.27244966E+02 0.28016857E+02 0.75000000E+00 0.0000E+00 0.9000E+01
#aMCatNLO 2  0  0  5  1 0.10841672D+02 0.00000000D+00  -5  6  0 0.00000000D+00 0.00000000D+00 0.00000000D+00 0.00000000D+00 0.00000000D+00
  <mgrwgt>
 0.4400043708D+01    1    2    0
 0.369962197368654D+03 0.000000000000000D+00 0.000000000000000D+00 0.369962197368654D+03
 0.369962197368654D+03 -.000000000000000D+00 -.000000000000000D+00 -.369962197368654D+03
 0.184715733067343D+03 -.537992535532943D+02 0.156439967813344D+02 -.123918552785368D+03
 0.225491332932150D+03 0.468680942076886D+02 -.609714371086773D+00 -.205382899158796D+03
 0.329717328737814D+03 0.693115934560574D+01 -.150342824102478D+02 0.329301451944164D+03
 0.000000000000000D+00 0.000000000000000D+00 0.000000000000000D+00 0.000000000000000D+00
 0.369962197368654D+03 0.000000000000000D+00 0.000000000000000D+00 0.369962197368654D+03
 0.369962197368654D+03 -.000000000000000D+00 -.000000000000000D+00 -.369962197368654D+03
 0.184575469161887D+03 -.537949155116485D+02 0.156345871948630D+02 -.123712451130319D+03
 0.225263357217473D+03 0.468733891960503D+02 -.621199657518609D+00 -.205131332679280D+03
 0.229058302154535D+03 0.129412898605757D+02 -.174524970457725D+02 0.228025523022161D+03
 0.101027266203414D+03 -.601976354497748D+01 0.243910950842795D+01 0.100818260787438D+03
0.233016548303D-02 0.000000000000D+00 0.000000000000D+00 0.911286425336D-04 0.159278021526D-04  6 21 2 25 24 1 21 4 0.15604170D-01 0.20760955D+00 0.16677915D+05 0.16677915D+05 0.16677915D+05 0.12426067D+01  1  2  1  3  6  5        1 0.440004370753D+01 0.100000000000D+01
  </mgrwgt>
  </event>
  <event>
  6     66 -.46027262E-03 0.12420153E+03 0.75467711E-02 0.11153163E+00
       21 -1    0    0  501  503 0.00000000E+00 0.00000000E+00 0.11119200E+03 0.11119453E+03 0.75000000E+00 0.0000E+00 0.9000E+01
        2 -1    0    0  502    0 0.00000000E+00 0.00000000E+00 -.12772564E+04 0.12772565E+04 0.32000000E+00 0.0000E+00 0.9000E+01
       25  1    1    2    0    0 0.17171156E+03 0.24091727E+02 -.82942983E+03 0.85653028E+03 0.12500000E+03 0.0000E+00 0.9000E+01
       24  1    1    2    0    0 -.94204084E+02 0.67129121E+02 -.36241867E+03 0.38883832E+03 0.80419002E+02 0.0000E+00 0.9000E+01
        1  1    1    2  501    0 -.81265162E+02 -.10037922E+03 0.17861128E+02 0.13038074E+03 0.32000000E+00 0.0000E+00 0.9000E+01
       21  1    1    2  502  503 0.37576887E+01 0.91583731E+01 0.79229655E+01 0.12701650E+02 0.75000000E+00 0.0000E+00 0.9000E+01
#aMCatNLO 2  0  0  1  5 0.98992941D+01 0.00000000D+00  -5  6  0 0.00000000D+00 0.00000000D+00 0.00000000D+00 0.00000000D+00 0.00000000D+00
  <mgrwgt>
 -.1398143311D+00    6    2    0
 0.358588160634796D+03 0.000000000000000D+00 0.000000000000000D+00 0.358588160634796D+03
 0.358588160634796D+03 0.000000000000000D+00 0.000000000000000D+00 -.358588160634796D+03
 0.286535853088216D+03 0.173209594652086D+03 0.277427708484048D+02 -.188961821781821D+03
 0.153002716633645D+03 -.934034350841093D+02 0.690804785400816D+02 -.587052054086074D+02
 0.277637751547730D+03 -.798061595679771D+02 -.968232493884864D+02 0.247667027190429D+03
 0.000000000000000D+00 0.000000000000000D+00 0.000000000000000D+00 0.000000000000000D+00
 0.395277458241313D+03 0.000000000000000D+00 0.000000000000000D+00 0.395277458241313D+03
 0.359290684205150D+03 0.000000000000000D+00 0.000000000000000D+00 -.359290684205150D+03
 0.285301329643940D+03 0.171711578240535D+03 0.240917517760751D+02 -.188961821781821D+03
 0.152624523720455D+03 -.942040731602838D+02 0.671291348407703D+02 -.587052054086074D+02
 0.279318785383495D+03 -.812651938141547D+02 -.100379259735836D+03 0.247667027190429D+03
 0.373235036985730D+02 0.375768873390375D+01 0.915837311899038D+01 0.359867740361627D+02
-.207775566005D-03 0.000000000000D+00 0.000000000000D+00 0.394791591881D-06 0.000000000000D+00  6 21 2 25 24 1 21 4 0.17120778D-01 0.19611491D+00 0.60931479D+05 0.60931479D+05 0.60931479D+05 0.11838699D+01  1  2 13  1  6  1       21 -.286106662690D+00 0.100000000000D+01
-.167649629968D-03 0.000000000000D+00 0.000000000000D+00 0.394791591881D-06 0.000000000000D+00  6 21 2 25 24 1 21 4 0.17478187D-01 0.19611491D+00 0.60931479D+05 0.60931479D+05 0.60931479D+05 0.11838699D+01  1  2 13  1  6  1       21 -.222181404599D+00 0.100000000000D+01
-.861695603362D-06 0.000000000000D+00 0.000000000000D+00 0.396121697585D-06 0.000000000000D+00  6 21 2 25 24 1 21 4 0.15518672D-01 0.19611491D+00 0.58120614D+05 0.58120614D+05 0.58120614D+05 0.11858625D+01  1  2  8  1  6  1       21 -.143430866821D-02 0.100000000000D+01
-.946031951202D-06 0.000000000000D+00 0.000000000000D+00 0.396121697585D-06 0.000000000000D+00  6 21 2 25 24 1 21 4 0.17127236D-01 0.19611491D+00 0.58120614D+05 0.58120614D+05 0.58120614D+05 0.11858625D+01  1  2  9  1  6  1       21 -.131297232977D-02 0.100000000000D+01
0.933067711301D-06 0.000000000000D+00 0.000000000000D+00 0.396121697585D-06 0.000000000000D+00  6 21 2 25 24 1 21 4 0.15518672D-01 0.19611491D+00 0.58120614D+05 0.58120614D+05 0.58120614D+05 0.11858625D+01  1  2 10  1  6  1       21 0.155310889498D-02 0.100000000000D+01
0.268903129012D-03 0.000000000000D+00 0.000000000000D+00 0.396121697585D-06 0.481243309975D-07  6 21 2 25 24 1 21 4 0.17106480D-01 0.19649913D+00 0.60931479D+05 0.60931479D+05 0.60931479D+05 0.11838699D+01  1  2  1  1  6  1       21 0.369667908273D+00 0.100000000000D+01
  </mgrwgt>
  </event>
  <event>
  6     66 0.46027262E-03 0.34966656E+02 0.75467711E-02 0.12153409E+00
       21 -1    0    0  503  502 0.00000000E+00 0.00000000E+00 0.10113493E+04 0.10113496E+04 0.75000000E+00 0.0000E+00 0.9000E+01
        2 -1    0    0  502    0 0.00000000E+00 0.00000000E+00 -.11799003E+03 0.11799047E+03 0.32000000E+00 0.0000E+00 0.9000E+01
       25  1    1    2    0    0 0.31523943E+02 -.31818179E+02 0.69303673E+02 0.14978035E+03 0.12500000E+03 0.0000E+00 0.9000E+01
       24  1    1    2    0    0 0.11560143E+00 -.12014083E+02 -.54560815E+02 0.97920631E+02 0.80419002E+02 0.0000E+00 0.9000E+01
        1  1    1    2  501    0 -.18585129E+02 0.15099310E+01 0.97490695E+02 0.99258375E+02 0.32000000E+00 0.0000E+00 0.9000E+01
       21  1    1    2  503  501 -.13054415E+02 0.42322331E+02 0.78112571E+03 0.78238068E+03 0.75000000E+00 0.0000E+00 0.9000E+01
#aMCatNLO 2  0  0  1  1 0.44289925D+02 0.00000000D+00  -5  6  0 0.00000000D+00 0.00000000D+00 0.00000000D+00 0.00000000D+00 0.00000000D+00
  <mgrwgt>
 0.2781297524D-01    1    2    0
 0.162652105657255D+03 0.000000000000000D+00 0.000000000000000D+00 0.162652105657255D+03
 0.162652105657255D+03 0.000000000000000D+00 0.000000000000000D+00 -.162652105657255D+03
 0.130435891200135D+03 0.262305400608605D+02 -.146567752915071D+02 0.220376818051089D+02
 0.121695686972505D+03 -.475432787071293D+01 0.377440683858735D+01 -.911360219279617D+02
 0.731726331418706D+02 -.214762121901475D+02 0.108823684529198D+02 0.690983401228527D+02
 0.000000000000000D+00 -.000000000000000D+00 0.000000000000000D+00 0.000000000000000D+00
 0.723075263536258D+03 0.000000000000000D+00 0.000000000000000D+00 0.723075263536258D+03
 0.165030094896594D+03 0.000000000000000D+00 0.000000000000000D+00 -.165030094896594D+03
 0.134598746362635D+03 0.315240244143335D+02 -.318182178598099D+02 0.220376818051089D+02
 0.122136577389819D+03 0.115685679754336D+00 -.120141460827725D+02 -.911360219279617D+02
 0.715700635515007D+02 -.185852949603405D+02 0.151003320147082D+01 0.690983401228527D+02
 0.559799971128898D+03 -.130544151337473D+02 0.423223307411115D+02 0.558045168639664D+03
0.111838029239D-03 0.000000000000D+00 0.000000000000D+00 0.248512949974D-05 0.118118787453D-06  6 21 2 25 24 1 21 4 0.15559202D+00 0.18152340D-01 0.19186462D+05 0.19186462D+05 0.19186462D+05 0.12358165D+01  1  2  1  1  6  1       21 0.278129752395D-01 0.100000000000D+01
  </mgrwgt>
  </event>
  <event>
  5     66 0.46027262E-03 0.60856109E+02 0.75467711E-02 0.10512398E+00
       21 -1    0    0  501  502 0.00000000E+00 0.00000000E+00 0.13209430E+02 0.13230704E+02 0.75000000E+00 0.0000E+00 0.9000E+01
        2 -1    0    0  502    0 0.00000000E+00 0.00000000E+00 -.18387484E+04 0.18387484E+04 0.32000000E+00 0.0000E+00 0.9000E+01
       25  1    1    2    0    0 -.15611943E+02 0.43735327E+02 -.83251201E+03 0.84312381E+03 0.12500000E+03 0.0000E+00 0.9000E+01
       24  1    1    2    0    0 0.59156368E+02 -.12230340E+01 -.80638955E+03 0.81254679E+03 0.80419002E+02 0.0000E+00 0.9000E+01
        1  1    1    2  501    0 -.43544426E+02 -.42512292E+02 -.18663738E+03 0.19630850E+03 0.32000000E+00 0.0000E+00 0.9000E+01
#aMCatNLO 1  0  0  2  1 0.16092229D+03 0.00000000D+00  -5  6  0 0.00000000D+00 0.00000000D+00 0.00000000D+00 0.00000000D+00 0.00000000D+00
  <mgrwgt>
 0.9985401563D-01    3    2    0
 0.155911971359808D+03 0.000000000000000D+00 0.000000000000000D+00 0.155911971359808D+03
 0.155911971359808D+03 0.000000000000000D+00 0.000000000000000D+00 -.155911971359808D+03
 0.133615774867169D+03 -.156117646892683D+02 0.437355003020972D+02 -.846487507090627D+01
 0.104944461105664D+03 0.591565079897667D+02 -.122289757186822D+01 -.323285639392346D+02
 0.732637067467833D+02 -.435447433004984D+02 -.425126027302290D+02 0.407934390101408D+02
 0.000000000000000D+00 0.000000000000000D+00 0.000000000000000D+00 0.000000000000000D+00
 0.568299961415399D+03 0.000000000000000D+00 0.000000000000000D+00 0.568299961415399D+03
 0.298403588606063D+03 0.000000000000000D+00 0.000000000000000D+00 -.298403588606063D+03
 0.166003753033682D+03 -.932137014921448D+02 -.563187159427046D+02 -.846487507090627D+01
 0.114268535948542D+03 0.237999124217004D+01 -.744263525155350D+02 -.323285639392346D+02
 0.167150109828863D+03 -.105812306203192D+03 -.122795807768379D+03 0.407934390101408D+02
 0.419281151210375D+03 0.196646016453167D+03 0.253540876226619D+03 0.269896372809336D+03
0.420436070915D-05 0.000000000000D+00 0.000000000000D+00 0.505640525571D-06 0.000000000000D+00  6 21 2 25 24 1 21 2 0.20338586D-02 0.28288600D+00 0.21615523D+05 0.21615523D+05 0.21615523D+05 0.12301292D+01  1  2  2  2  6  2        2 0.893343124276D-01 0.100000000000D+01
-.105989325865D-06 0.221870210162D-06 -.848739294176D-08 0.505640525571D-06 0.000000000000D+00  6 21 2 25 24 1 21 4 0.20338586D-02 0.28288600D+00 0.21615523D+05 0.21615523D+05 0.21615523D+05 0.12301292D+01  1  2  3  2  6  2        2 -.340786151879D-02 0.100000000000D+01
0.433167013283D-06 0.000000000000D+00 0.000000000000D+00 0.505640525571D-06 0.000000000000D+00  6 21 2 25 24 1 21 4 0.20338586D-02 0.28288600D+00 0.21615523D+05 0.21615523D+05 0.21615523D+05 0.12301292D+01  1  2 15  2  6  2        2 0.139275647215D-01 0.100000000000D+01
  </mgrwgt>
  </event>
  <event>
  5     66 0.46027262E-03 0.25851482E+02 0.75467711E-02 0.11506453E+00
       21 -1    0    0  501  502 0.00000000E+00 0.00000000E+00 0.20637847E+03 0.20637983E+03 0.75000000E+00 0.0000E+00 0.9000E+01
        2 -1    0    0  502    0 0.00000000E+00 0.00000000E+00 -.22902107E+03 0.22902130E+03 0.32000000E+00 0.0000E+00 0.9000E+01
       25  1    1    2    0    0 0.81956420E+02 0.11404533E+03 -.11246334E+03 0.21908034E+03 0.12500000E+03 0.0000E+00 0.9000E+01
       24  1    1    2    0    0 -.66996850E+02 -.13512700E+03 0.77104931E+02 0.18751072E+03 0.80419002E+02 0.0000E+00 0.9000E+01
        1  1    1    2  501    0 -.14959569E+02 0.21081679E+02 0.12715803E+02 0.28810067E+02 0.32000000E+00 0.0000E+00 0.9000E+01
#aMCatNLO 1  0  0  2  1 0.12831299D+02 0.00000000D+00  -5  6  0 0.00000000D+00 0.00000000D+00 0.00000000D+00 0.00000000D+00 0.00000000D+00
  <mgrwgt>
 0.4537631401D+00    9    2    0
 0.217405988249305D+03 0.000000000000000D+00 0.000000000000000D+00 0.217405988249305D+03
 0.217405988249305D+03 0.000000000000000D+00 0.000000000000000D+00 -.217405988249305D+03
 0.213520747506074D+03 0.819568515379155D+02 0.114044716753081D+03 -.101207641422247D+03
 0.191780074566273D+03 -.669964624015407D+02 -.135127551014249D+03 0.869735593663102D+02
 0.295111544262631D+02 -.149603891363748D+02 0.210828342611674D+02 0.142340820559366D+02
 0.000000000000000D+00 0.000000000000000D+00 -.000000000000000D+00 -.000000000000000D+00
 0.223110142280406D+03 0.000000000000000D+00 0.000000000000000D+00 0.223110142280406D+03
 0.224838267001575D+03 0.000000000000000D+00 0.000000000000000D+00 -.224838267001575D+03
 0.215170714604044D+03 0.785841376726743D+02 0.119394233726772D+03 -.101207641422247D+03
 0.189544805539309D+03 -.699965214742431D+02 -.130369107940588D+03 0.869735593663102D+02
 0.302857409332417D+02 -.154308389491251D+02 0.218290224523787D+02 0.142340820559366D+02
 0.129471482053862D+02 0.684322275069397D+01 -.108541482385632D+02 -.172812472116830D+01
0.181640757880D-04 0.000000000000D+00 0.000000000000D+00 0.354167096550D-06 0.000000000000D+00  6 21 2 25 24 1 21 2 0.31750655D-01 0.35234133D-01 0.37015256D+05 0.37015256D+05 0.37015256D+05 0.12054355D+01  1  2  2  2  6  2        2 0.456378639403D-01 0.100000000000D+01
0.172549781077D-05 0.958544613857D-06 -.366680357137D-07 0.354167096550D-06 0.000000000000D+00  6 21 2 25 24 1 21 4 0.31750655D-01 0.35234133D-01 0.37015256D+05 0.37015256D+05 0.37015256D+05 0.12054355D+01  1  2  3  2  6  2        2 0.629961997311D-02 0.100000000000D+01
0.200320770371D-05 0.000000000000D+00 0.000000000000D+00 0.354167096550D-06 0.000000000000D+00  6 21 2 25 24 1 21 4 0.31750655D-01 0.35234133D-01 0.37015256D+05 0.37015256D+05 0.37015256D+05 0.12054355D+01  1  2 15  2  6  2        2 0.731351102380D-02 0.100000000000D+01
0.111643296320D-03 0.000000000000D+00 0.000000000000D+00 0.352428979247D-06 0.000000000000D+00  6 21 2 25 24 1 21 4 0.31750655D-01 0.36886978D-01 0.39572953D+05 0.39572953D+05 0.39572953D+05 0.12024739D+01  1  2 12  2  6  2        2 0.383695309979D+00 0.100000000000D+01
-.244137245031D-04 0.000000000000D+00 0.000000000000D+00 0.354167096550D-06 0.000000000000D+00  6 21 2 25 24 1 21 4 0.31750655D-01 0.35234133D-01 0.37015256D+05 0.37015256D+05 0.37015256D+05 0.12054355D+01  1  2  4  2  6  2        2 -.891320670119D-01 0.100000000000D+01
-.702567034100D-03 0.000000000000D+00 -.118613897984D-03 0.354167096550D-06 0.000000000000D+00  6 21 2 25 24 1 21 4 0.31750655D-01 0.37317640D-01 0.37015256D+05 0.37015256D+05 0.37015256D+05 0.12054355D+01  1  2  5  2  6  2        2 -.241063237378D+01 0.100000000000D+01
0.708407573264D-03 0.000000000000D+00 0.118418418550D-03 0.354167096550D-06 0.000000000000D+00  6 21 2 25 24 1 21 4 0.31750655D-01 0.35234133D-01 0.37015256D+05 0.37015256D+05 0.37015256D+05 0.12054355D+01  1  2  6  2  6  2        2 0.258632521571D+01 0.100000000000D+01
0.137599539847D-05 0.000000000000D+00 0.000000000000D+00 0.352428979247D-06 0.000000000000D+00  6 21 21 25 24 1 -2 4 0.31750655D-01 0.36886978D-01 0.39572953D+05 0.39572953D+05 0.39572953D+05 0.12024739D+01  1  2 12 10  6  2        2 0.193937032309D-01 0.100000000000D+01
-.682045911826D-05 0.000000000000D+00 -.117453656156D-05 0.354167096550D-06 0.000000000000D+00  6 21 21 25 24 1 -2 4 0.31750655D-01 0.37317640D-01 0.37015256D+05 0.37015256D+05 0.37015256D+05 0.12054355D+01  1  2  5 10  6  2        2 -.951376429412D-01 0.100000000000D+01
  </mgrwgt>
  </event>
  <event>
  6     66 -.46027262E-03 0.86368253E+02 0.75467711E-02 0.11802171E+00
       21 -1    0    0  503  502 0.00000000E+00 0.00000000E+00 0.34091589E+02 0.34099838E+02 0.75000000E+00 0.0000E+00 0.9000E+01
        2 -1    0    0  502    0 0.00000000E+00 0.00000000E+00 -.18629486E+04 0.18629487E+04 0.32000000E+00 0.0000E+00 0.9000E+01
       25  1    1    2    0    0 -.56280321E+02 -.77147465E+02 -.12234288E+04 0.12335000E+04 0.12500000E+03 0.0000E+00 0.9000E+01
       24  1    1    2    0    0 -.20014729E+01 0.16754246E+02 -.53994192E+03 0.54615859E+03 0.80419002E+02 0.0000E+00 0.9000E+01
        1  1    1    2  501    0 0.64452784E+02 0.62221681E+02 -.65384230E+02 0.11090942E+03 0.32000000E+00 0.0000E+00 0.9000E+01
       21  1    1    2  503  501 -.61709902E+01 -.18284611E+01 -.10212954E+00 0.64805340E+01 0.75000000E+00 0.0000E+00 0.9000E+01
#aMCatNLO 2  0  0  1  2 0.64361783D+01 0.00000000D+00  -5  6  0 0.00000000D+00 0.00000000D+00 0.00000000D+00 0.00000000D+00 0.00000000D+00
  <mgrwgt>
 -.1011257024D+00    6    2    0
 0.239719244887165D+03 0.000000000000000D+00 0.000000000000000D+00 0.239719244887165D+03
 0.239719244887165D+03 0.000000000000000D+00 0.000000000000000D+00 -.239719244887165D+03
 0.198466642754630D+03 -.588280939300118D+02 -.779023952495281D+02 -.119308341976753D+03
 0.940896865614433D+02 -.321268206162065D+01 0.163953526581898D+02 -.458968871280465D+02
 0.186882160458258D+03 0.620407759916324D+02 0.615070425913383D+02 0.165205229104800D+03
 0.000000000000000D+00 -.000000000000000D+00 -.000000000000000D+00 0.000000000000000D+00
 0.264473230447735D+03 0.000000000000000D+00 0.000000000000000D+00 0.264473230447735D+03
 0.240159570570600D+03 0.000000000000000D+00 0.000000000000000D+00 -.240159570570600D+03
 0.197430231315008D+03 -.562803576342836D+02 -.771475023342480D+02 -.119308341976753D+03
 0.941193408675093D+02 -.200149045650561D+01 0.167542280894034D+02 -.458968871280465D+02
 0.187932116589531D+03 0.644528383248747D+02 0.622217353833795D+02 0.165205229104800D+03
 0.251511122462872D+02 -.617099023408547D+01 -.182846113853478D+01 0.243136598771354D+02
-.344071412844D-04 0.000000000000D+00 0.000000000000D+00 0.121861898911D-05 0.000000000000D+00  6 21 2 25 24 1 21 4 0.52494792D-02 0.28607598D+00 0.28139319D+05 0.28139319D+05 0.28139319D+05 0.12178278D+01  1  2 13  1  6  1       21 -.215156886337D+00 0.100000000000D+01
-.285634623867D-04 0.000000000000D+00 0.000000000000D+00 0.121861898911D-05 0.000000000000D+00  6 21 2 25 24 1 21 4 0.53443399D-02 0.28607598D+00 0.28139319D+05 0.28139319D+05 0.28139319D+05 0.12178278D+01  1  2 13  1  6  1       21 -.173274239599D+00 0.100000000000D+01
-.111680567647D-06 0.000000000000D+00 0.000000000000D+00 0.122273004249D-05 0.000000000000D+00  6 21 2 25 24 1 21 4 0.47544216D-02 0.28607598D+00 0.26912442D+05 0.26912442D+05 0.26912442D+05 0.12198803D+01  1  2  8  1  6  1       21 -.832094984307D-03 0.100000000000D+01
-.126697098142D-06 0.000000000000D+00 0.000000000000D+00 0.122273004249D-05 0.000000000000D+00  6 21 2 25 24 1 21 4 0.52532961D-02 0.28607598D+00 0.26912442D+05 0.26912442D+05 0.26912442D+05 0.12198803D+01  1  2  9  1  6  1       21 -.797559298285D-03 0.100000000000D+01
0.124589468032D-06 0.000000000000D+00 0.000000000000D+00 0.122273004249D-05 0.000000000000D+00  6 21 2 25 24 1 21 4 0.47544216D-02 0.28607598D+00 0.26912442D+05 0.26912442D+05 0.26912442D+05 0.12198803D+01  1  2 10  1  6  1       21 0.928274932968D-03 0.100000000000D+01
0.461828011748D-04 0.000000000000D+00 0.000000000000D+00 0.122273004249D-05 0.383663115726D-06  6 21 2 25 24 1 21 4 0.52453746D-02 0.28660146D+00 0.28139319D+05 0.28139319D+05 0.28139319D+05 0.12178278D+01  1  2  1  1  6  1       21 0.288006802899D+00 0.100000000000D+01
  </mgrwgt>
  </event>
  <event>
  5     66 -.46027262E-03 0.20419830E+02 0.75467711E-02 0.12319423E+00
       21 -1    0    0  501  502 0.00000000E+00 0.00000000E+00 0.38393632E+02 0.38400956E+02 0.75000000E+00 0.0000E+00 0.9000E+01
        2 -1    0    0  502    0 -.00000000E+00 -.00000000E+00 -.46682320E+03 0.46682331E+03 0.32000000E+00 0.0000E+00 0.9000E+01
       25  1    1    2    0    0 0.62518693E+02 0.16454670E+02 -.26205182E+03 0.29744832E+03 0.12500000E+03 0.0000E+00 0.9000E+01
       24  1    1    2    0    0 -.46330192E+02 -.40101220E+01 -.16221910E+03 0.18693534E+03 0.80419002E+02 0.0000E+00 0.9000E+01
        1  1    1    2  501    0 -.16188501E+02 -.12444547E+02 -.41586417E+01 0.20840610E+02 0.32000000E+00 0.0000E+00 0.9000E+01
#aMCatNLO 1  0  0  5  1 0.15081257D+01 0.00000000D+00  -5  6  0 0.00000000D+00 0.00000000D+00 0.00000000D+00 0.00000000D+00 0.00000000D+00
  <mgrwgt>
 -.4692923067D+01    7    2    0
 0.133883964994940D+03 0.000000000000000D+00 0.000000000000000D+00 0.133883964994940D+03
 0.133883964994940D+03 -.000000000000000D+00 -.000000000000000D+00 -.133883964994940D+03
 0.141941714888840D+03 0.625191045861472D+02 0.164549860217484D+02 -.185214854251806D+02
 0.931582045971648D+02 -.463299219729925D+02 -.400991431711025D+01 -.697811196116471D+01
 0.326680105038761D+02 -.161891826131547D+02 -.124450717046381D+02 0.254995973863452D+02
 0.000000000000000D+00 0.000000000000000D+00 0.000000000000000D+00 0.000000000000000D+00
 0.133883964994940D+03 0.000000000000000D+00 0.000000000000000D+00 0.133883964994940D+03
 0.133883964994940D+03 -.000000000000000D+00 -.000000000000000D+00 -.133883964994940D+03
 0.141853766325591D+03 0.623992199988832D+02 0.163628274291602D+02 -.183326550943906D+02
 0.931908007910812D+02 -.464086419494432D+02 -.407042853669297D+01 -.685412004917490D+01
 0.297932554805741D+02 -.153220840326462D+02 -.124081360458312D+02 0.223362927294444D+02
 0.293010739263452D+01 -.668494016793701D+00 0.115737153364028D+00 0.285048241412111D+01
0.158123479994D-05 0.000000000000D+00 0.000000000000D+00 0.203620831923D-05 0.000000000000D+00  6 21 2 25 24 1 21 2 0.59072845D-02 0.71819526D-01 0.16134644D+05 0.16134644D+05 0.16134644D+05 0.12442284D+01  1  2  2  3  6  5        1 0.411403013922D-01 0.100000000000D+01
0.151484926362D-06 0.834440528887D-07 -.319205748714D-08 0.203620831923D-05 0.000000000000D+00  6 21 2 25 24 1 21 4 0.59072845D-02 0.71819526D-01 0.16134644D+05 0.16134644D+05 0.16134644D+05 0.12442284D+01  1  2  3  3  6  5        1 0.610155818191D-02 0.100000000000D+01
0.154935240690D-06 0.000000000000D+00 0.000000000000D+00 0.203620831923D-05 0.000000000000D+00  6 21 2 25 24 1 21 4 0.59072845D-02 0.71819526D-01 0.16134644D+05 0.16134644D+05 0.16134644D+05 0.12442284D+01  1  2 15  3  6  5        1 0.624053104291D-02 0.100000000000D+01
0.267771950416D-09 0.000000000000D+00 0.000000000000D+00 0.203626807637D-05 0.000000000000D+00  6 21 2 25 24 1 21 4 0.59072845D-02 0.71819526D-01 0.16128642D+05 0.16128642D+05 0.16128642D+05 0.12442467D+01  1  2 12  3  6  5        1 0.107859547093D-04 0.100000000000D+01
-.120904076242D-03 0.000000000000D+00 0.000000000000D+00 0.203620831923D-05 0.000000000000D+00  6 21 2 25 24 1 21 4 0.59072845D-02 0.71819526D-01 0.16134644D+05 0.16134644D+05 0.16134644D+05 0.12442284D+01  1  2  4  3  6  5        1 -.486981294664D+01 0.100000000000D+01
-.186717968452D-04 0.000000000000D+00 0.000000000000D+00 0.203620831923D-05 0.000000000000D+00  6 21 2 25 24 1 21 4 0.59072845D-02 0.71819526D-01 0.16134644D+05 0.16134644D+05 0.16134644D+05 0.12442284D+01  1  2  5  3  6  5        1 -.752068588920D+00 0.100000000000D+01
0.217353979696D-04 0.000000000000D+00 -.000000000000D+00 0.203620831923D-05 0.000000000000D+00  6 21 2 25 24 1 21 4 0.59072845D-02 0.71819526D-01 0.16134644D+05 0.16134644D+05 0.16134644D+05 0.12442284D+01  1  2  6  3  6  5        1 0.875465292177D+00 0.100000000000D+01
  </mgrwgt>
  </event>
  <event>
  5     66 0.46027262E-03 0.11200708E+03 0.75467711E-02 0.10984827E+00
       21 -1    0    0  501  502 0.00000000E+00 0.00000000E+00 0.29198467E+02 0.29208098E+02 0.75000000E+00 0.0000E+00 0.9000E+01
        2 -1    0    0  502    0 0.00000000E+00 0.00000000E+00 -.13819704E+04 0.13819704E+04 0.32000000E+00 0.0000E+00 0.9000E+01
       25  1    1    2    0    0 0.51169363E+02 0.50319277E+02 -.32004373E+03 0.35100331E+03 0.12500000E+03 0.0000E+00 0.9000E+01
       24  1    1    2    0    0 -.80165549E+02 0.57869149E+02 -.57231572E+03 0.58633425E+03 0.80419002E+02 0.0000E+00 0.9000E+01
        1  1    1    2  501    0 0.28996186E+02 -.10818843E+03 -.46041249E+03 0.47384098E+03 0.32000000E+00 0.0000E+00 0.9000E+01
#aMCatNLO 1  0  0  1  2 0.21368016D+01 0.00000000D+00  -5  6  0 0.00000000D+00 0.00000000D+00 0.00000000D+00 0.00000000D+00 0.00000000D+00
  <mgrwgt>
 0.2674828509D-01   12    2    0
 0.200893601064609D+03 0.000000000000000D+00 0.000000000000000D+00 0.200893601064609D+03
 0.200893601064609D+03 0.000000000000000D+00 0.000000000000000D+00 -.200893601064609D+03
 0.155261739523096D+03 0.511693186381261D+02 0.503194417458775D+02 0.577136238008910D+02
 0.132432531026280D+03 -.801655862329614D+02 0.578692889363177D+02 -.359969929520047D+02
 0.114092931579843D+03 0.289962675948353D+02 -.108188730682195D+03 -.217166308488863D+02
 0.000000000000000D+00 0.000000000000000D+00 0.000000000000000D+00 0.000000000000000D+00
 0.308902496588359D+03 0.000000000000000D+00 0.000000000000000D+00 0.308902496588359D+03
 0.266122980746223D+03 0.000000000000000D+00 0.000000000000000D+00 -.266122980746223D+03
 0.140714400286258D+03 0.286913839722256D+02 0.463514416697782D+01 0.577136238008910D+02
 0.134647936949012D+03 -.100449036492005D+03 0.166450754427764D+02 -.359969929520047D+02
 0.150929355678489D+03 0.886912605620491D+01 -.149095261336825D+03 -.217166308488863D+02
 0.148733784420824D+03 0.628885264635746D+02 0.127815041727071D+03 0.427795158421362D+02
0.610471937714D-05 0.000000000000D+00 0.000000000000D+00 0.140550961276D-06 0.000000000000D+00  6 21 2 25 24 1 21 2 0.44928155D-02 0.21261158D+00 0.36785332D+05 0.36785332D+05 0.36785332D+05 0.12057128D+01  1  2  2  1  6  1       21 0.580393407463D-01 0.100000000000D+01
-.587227402810D-06 0.322154892238D-06 -.123236695748D-07 0.140550961276D-06 0.000000000000D+00  6 21 2 25 24 1 21 4 0.44928155D-02 0.21261158D+00 0.36785332D+05 0.36785332D+05 0.36785332D+05 0.12057128D+01  1  2  3  1  6  1       21 -.811616420384D-02 0.100000000000D+01
0.685800350857D-06 0.000000000000D+00 0.000000000000D+00 0.140550961276D-06 0.000000000000D+00  6 21 2 25 24 1 21 4 0.44928155D-02 0.21261158D+00 0.36785332D+05 0.36785332D+05 0.36785332D+05 0.12057128D+01  1  2 15  1  6  1       21 0.947855674305D-02 0.100000000000D+01
-.781449688087D-05 0.000000000000D+00 -.914178559543D-05 0.140550961276D-06 0.000000000000D+00  6 21 2 25 24 1 21 4 0.94059202D-02 0.21261158D+00 0.36785332D+05 0.36785332D+05 0.36785332D+05 0.12057128D+01  1  2  5  1  6  1       21 -.302955771441D-01 0.100000000000D+01
-.129039759271D-05 0.000000000000D+00 -.239798768801D-05 0.140550961276D-06 0.000000000000D+00  6 -1 2 25 24 1 -1 4 0.94059202D-02 0.21261158D+00 0.36785332D+05 0.36785332D+05 0.36785332D+05 0.12057128D+01  1  2  5  4  6  1       21 -.331129933143D-03 0.100000000000D+01
-.129039759271D-05 0.000000000000D+00 -.239798768801D-05 0.140550961276D-06 0.000000000000D+00  6 1 2 25 24 1 1 4 0.94059202D-02 0.21261158D+00 0.36785332D+05 0.36785332D+05 0.36785332D+05 0.12057128D+01  1  2  5  5  6  1       21 -.409662685379D-03 0.100000000000D+01
-.129039759271D-05 0.000000000000D+00 -.239798768801D-05 0.140550961276D-06 0.000000000000D+00  6 -2 2 25 24 1 -2 4 0.94059202D-02 0.21261158D+00 0.36785332D+05 0.36785332D+05 0.36785332D+05 0.12057128D+01  1  2  5  6  6  1       21 -.317506898948D-03 0.100000000000D+01
-.129039759271D-05 0.000000000000D+00 -.239798768801D-05 0.140550961276D-06 0.000000000000D+00  6 2 2 25 24 1 2 4 0.94059202D-02 0.21261158D+00 0.36785332D+05 0.36785332D+05 0.36785332D+05 0.12057128D+01  1  2  5  7  6  1       21 -.462871584819D-03 0.100000000000D+01
-.129039759271D-05 0.000000000000D+00 -.239798768801D-05 0.140550961276D-06 0.000000000000D+00  6 -3 2 25 24 1 -3 4 0.94059202D-02 0.21261158D+00 0.36785332D+05 0.36785332D+05 0.36785332D+05 0.12057128D+01  1  2  5  8  6  1       21 -.222480141967D-03 0.100000000000D+01
-.129039759271D-05 0.000000000000D+00 -.239798768801D-05 0.140550961276D-06 0.000000000000D+00  6 -4 2 25 24 1 -4 4 0.94059202D-02 0.21261158D+00 0.36785332D+05 0.36785332D+05 0.36785332D+05 0.12057128D+01  1  2  5  8  6  1       21 -.195883001097D-03 0.100000000000D+01
-.129039759271D-05 0.000000000000D+00 -.239798768801D-05 0.140550961276D-06 0.000000000000D+00  6 3 2 25 24 1 3 4 0.94059202D-02 0.21261158D+00 0.36785332D+05 0.36785332D+05 0.36785332D+05 0.12057128D+01  1  2  5  9  6  1       21 -.222453806411D-03 0.100000000000D+01
-.129039759271D-05 0.000000000000D+00 -.239798768801D-05 0.140550961276D-06 0.000000000000D+00  6 4 2 25 24 1 4 4 0.94059202D-02 0.21261158D+00 0.36785332D+05 0.36785332D+05 0.36785332D+05 0.12057128D+01  1  2  5  9  6  1       21 -.195883001097D-03 0.100000000000D+01
  </mgrwgt>
  </event>
  <event>
  5     66 0.46027262E-03 0.49678969E+02 0.75467711E-02 0.11406227E+00
       21 -1    0    0  501  502 0.00000000E+00 0.00000000E+00 0.91425932E+02 0.91429008E+02 0.75000000E+00 0.0000E+00 0.9000E+01
        2 -1    0    0  502    0 0.00000000E+00 0.00000000E+00 -.49831738E+03 0.49831748E+03 0.32000000E+00 0.0000E+00 0.9000E+01
       25  1    1    2    0    0 0.99242502E+02 -.10206403E+03 -.22992032E+03 0.29791692E+03 0.12500000E+03 0.0000E+00 0.9000E+01
       24  1    1    2    0    0 -.74897485E+02 0.45677950E+02 -.19444510E+03 0.22797417E+03 0.80419002E+02 0.0000E+00 0.9000E+01
        1  1    1    2  501    0 -.24345017E+02 0.56386078E+02 0.17473973E+02 0.63855397E+02 0.32000000E+00 0.0000E+00 0.9000E+01
#aMCatNLO 1  0  0  1  2 0.45397609D+02 0.00000000D+00  -5  6  0 0.00000000D+00 0.00000000D+00 0.00000000D+00 0.00000000D+00 0.00000000D+00
  <mgrwgt>
 0.1969883642D+00   23    2    0
 0.213448044893142D+03 0.000000000000000D+00 0.000000000000000D+00 0.213448044893142D+03
 0.213448044893142D+03 0.000000000000000D+00 0.000000000000000D+00 -.213448044893142D+03
 0.192418954899034D+03 0.992425526865821D+02 -.102064146066409D+03 -.336731351142457D+02
 0.129607457069080D+03 -.748974501142097D+02 0.456778702201140D+02 -.513301189564839D+02
 0.104869677818170D+03 -.243451025723725D+02 0.563862758462950D+02 0.850032540707296D+02
 0.000000000000000D+00 0.000000000000000D+00 -.000000000000000D+00 0.000000000000000D+00
 0.247749961987092D+03 0.000000000000000D+00 0.000000000000000D+00 0.247749961987092D+03
 0.230218384471818D+03 0.000000000000000D+00 0.000000000000000D+00 -.230218384471818D+03
 0.180691768533051D+03 0.951264635294130D+02 -.827139113061808D+02 -.336731351142457D+02
 0.136746667141319D+03 -.778358200236697D+02 0.594915038391551D+02 -.513301189564839D+02
 0.111864737351326D+03 -.267360769406740D+02 0.676265365806234D+02 0.850032540707296D+02
 0.486651734332144D+02 0.944543343493077D+01 -.444041291135977D+02 0.175315775152742D+02
0.938271097487D-05 0.000000000000D+00 0.000000000000D+00 0.416486068626D-06 0.000000000000D+00  6 21 2 25 24 1 21 2 0.14065772D-01 0.76664456D-01 0.34202206D+05 0.34202206D+05 0.34202206D+05 0.12089681D+01  1  2  2  1  6  1       21 0.473361839381D-01 0.100000000000D+01
0.229136709632D-06 0.495139261327D-06 -.189409901794D-07 0.416486068626D-06 0.000000000000D+00  6 21 2 25 24 1 21 4 0.14065772D-01 0.76664456D-01 0.34202206D+05 0.34202206D+05 0.34202206D+05 0.12089681D+01  1  2  3  1  6  1       21 0.168962088621D-02 0.100000000000D+01
0.945420058652D-06 0.000000000000D+00 0.000000000000D+00 0.416486068626D-06 0.000000000000D+00  6 21 2 25 24 1 21 4 0.14065772D-01 0.76664456D-01 0.34202206D+05 0.34202206D+05 0.34202206D+05 0.12089681D+01  1  2 15  1  6  1       21 0.697139048521D-02 0.100000000000D+01
0.130084887703D-04 0.000000000000D+00 0.000000000000D+00 0.408434731369D-06 0.000000000000D+00  6 21 2 25 24 1 21 4 0.16809628D-01 0.76664456D-01 0.44603558D+05 0.44603558D+05 0.44603558D+05 0.11972254D+01  1  2 12  1  6  1       21 0.664329971731D-01 0.100000000000D+01
-.702060148503D-05 0.000000000000D+00 0.000000000000D+00 0.416486068626D-06 0.000000000000D+00  6 21 2 25 24 1 21 4 0.14065772D-01 0.76664456D-01 0.34202206D+05 0.34202206D+05 0.34202206D+05 0.12089681D+01  1  2  4  1  6  1       21 -.517688977987D-01 0.100000000000D+01
-.561555105034D-04 0.000000000000D+00 -.162961935965D-04 0.416486068626D-06 0.000000000000D+00  6 21 2 25 24 1 21 4 0.17559776D-01 0.76664456D-01 0.34202206D+05 0.34202206D+05 0.34202206D+05 0.12089681D+01  1  2  5  1  6  1       21 -.276140983747D+00 0.100000000000D+01
0.552991212107D-04 0.000000000000D+00 0.147972738849D-04 0.416486068626D-06 0.000000000000D+00  6 21 2 25 24 1 21 4 0.14065772D-01 0.76664456D-01 0.34202206D+05 0.34202206D+05 0.34202206D+05 0.12089681D+01  1  2  6  1  6  1       21 0.407767704864D+00 0.100000000000D+01
0.649830592174D-06 0.000000000000D+00 0.000000000000D+00 0.408434731369D-06 0.000000000000D+00  6 -1 2 25 24 1 -1 4 0.16809628D-01 0.76664456D-01 0.44603558D+05 0.44603558D+05 0.44603558D+05 0.11972254D+01  1  2 12  4  6  1       21 0.252808037850D-03 0.100000000000D+01
-.257015063537D-05 0.000000000000D+00 -.106010131325D-05 0.416486068626D-06 0.000000000000D+00  6 -1 2 25 24 1 -1 4 0.17559776D-01 0.76664456D-01 0.34202206D+05 0.34202206D+05 0.34202206D+05 0.12089681D+01  1  2  5  4  6  1       21 -.967299426522D-03 0.100000000000D+01
0.649830592174D-06 0.000000000000D+00 0.000000000000D+00 0.408434731369D-06 0.000000000000D+00  6 1 2 25 24 1 1 4 0.16809628D-01 0.76664456D-01 0.44603558D+05 0.44603558D+05 0.44603558D+05 0.11972254D+01  1  2 12  5  6  1       21 0.359731881512D-03 0.100000000000D+01
-.257015063537D-05 0.000000000000D+00 -.106010131325D-05 0.416486068626D-06 0.000000000000D+00  6 1 2 25 24 1 1 4 0.17559776D-01 0.76664456D-01 0.34202206D+05 0.34202206D+05 0.34202206D+05 0.12089681D+01  1  2  5  5  6  1       21 -.139493965405D-02 0.100000000000D+01
0.649830592174D-06 0.000000000000D+00 0.000000000000D+00 0.408434731369D-06 0.000000000000D+00  6 -2 2 25 24 1 -2 4 0.16809628D-01 0.76664456D-01 0.44603558D+05 0.44603558D+05 0.44603558D+05 0.11972254D+01  1  2 12  6  6  1       21 0.234594149616D-03 0.100000000000D+01
-.257015063537D-05 0.000000000000D+00 -.106010131325D-05 0.416486068626D-06 0.000000000000D+00  6 -2 2 25 24 1 -2 4 0.17559776D-01 0.76664456D-01 0.34202206D+05 0.34202206D+05 0.34202206D+05 0.12089681D+01  1  2  5  6  6  1       21 -.894491733190D-03 0.100000000000D+01
0.649830592174D-06 0.000000000000D+00 0.000000000000D+00 0.408434731369D-06 0.000000000000D+00  6 2 2 25 24 1 2 4 0.16809628D-01 0.76664456D-01 0.44603558D+05 0.44603558D+05 0.44603558D+05 0.11972254D+01  1  2 12  7  6  1       21 0.434347622081D-03 0.100000000000D+01
-.257015063537D-05 0.000000000000D+00 -.106010131325D-05 0.416486068626D-06 0.000000000000D+00  6 2 2 25 24 1 2 4 0.17559776D-01 0.76664456D-01 0.34202206D+05 0.34202206D+05 0.34202206D+05 0.12089681D+01  1  2  5  7  6  1       21 -.169365211025D-02 0.100000000000D+01
0.649830592174D-06 0.000000000000D+00 0.000000000000D+00 0.408434731369D-06 0.000000000000D+00  6 -3 2 25 24 1 -3 4 0.16809628D-01 0.76664456D-01 0.44603558D+05 0.44603558D+05 0.44603558D+05 0.11972254D+01  1  2 12  8  6  1       21 0.157675961229D-03 0.100000000000D+01
0.649830592174D-06 0.000000000000D+00 0.000000000000D+00 0.408434731369D-06 0.000000000000D+00  6 -4 2 25 24 1 -4 4 0.16809628D-01 0.76664456D-01 0.44603558D+05 0.44603558D+05 0.44603558D+05 0.11972254D+01  1  2 12  8  6  1       21 0.136370055749D-03 0.100000000000D+01
-.257015063537D-05 0.000000000000D+00 -.106010131325D-05 0.416486068626D-06 0.000000000000D+00  6 -3 2 25 24 1 -3 4 0.17559776D-01 0.76664456D-01 0.34202206D+05 0.34202206D+05 0.34202206D+05 0.12089681D+01  1  2  5  8  6  1       21 -.596044448844D-03 0.100000000000D+01
-.257015063537D-05 0.000000000000D+00 -.106010131325D-05 0.416486068626D-06 0.000000000000D+00  6 -4 2 25 24 1 -4 4 0.17559776D-01 0.76664456D-01 0.34202206D+05 0.34202206D+05 0.34202206D+05 0.12089681D+01  1  2  5  8  6  1       21 -.513399033699D-03 0.100000000000D+01
0.649830592174D-06 0.000000000000D+00 0.000000000000D+00 0.408434731369D-06 0.000000000000D+00  6 3 2 25 24 1 3 4 0.16809628D-01 0.76664456D-01 0.44603558D+05 0.44603558D+05 0.44603558D+05 0.11972254D+01  1  2 12  9  6  1       21 0.157659838614D-03 0.100000000000D+01
0.649830592174D-06 0.000000000000D+00 0.000000000000D+00 0.408434731369D-06 0.000000000000D+00  6 4 2 25 24 1 4 4 0.16809628D-01 0.76664456D-01 0.44603558D+05 0.44603558D+05 0.44603558D+05 0.11972254D+01  1  2 12  9  6  1       21 0.136370055749D-03 0.100000000000D+01
-.257015063537D-05 0.000000000000D+00 -.106010131325D-05 0.416486068626D-06 0.000000000000D+00  6 3 2 25 24 1 3 4 0.17559776D-01 0.76664456D-01 0.34202206D+05 0.34202206D+05 0.34202206D+05 0.12089681D+01  1  2  5  9  6  1       21 -.595983792756D-03 0.100000000000D+01
-.257015063537D-05 0.000000000000D+00 -.106010131325D-05 0.416486068626D-06 0.000000000000D+00  6 4 2 25 24 1 4 4 0.17559776D-01 0.76664456D-01 0.34202206D+05 0.34202206D+05 0.34202206D+05 0.12089681D+01  1  2  5  9  6  1       21 -.513399033699D-03 0.100000000000D+01
  </mgrwgt>
  </event>
  <event>
  5     66 0.46027262E-03 0.96277042E+02 0.75467711E-02 0.11255771E+00
       21 -1    0    0  501  502 0.00000000E+00 0.00000000E+00 0.44454397E+03 0.44454460E+03 0.75000000E+00 0.0000E+00 0.9000E+01
        2 -1    0    0  502    0 0.00000000E+00 0.00000000E+00 -.23239274E+03 0.23239296E+03 0.32000000E+00 0.0000E+00 0.9000E+01
       25  1    1    2    0    0 -.13090232E+03 0.45631858E+02 0.60163767E+02 0.19611824E+03 0.12500000E+03 0.0000E+00 0.9000E+01
       24  1    1    2    0    0 0.41875051E+02 -.89794084E+01 -.14353416E+03 0.17001006E+03 0.80419002E+02 0.0000E+00 0.9000E+01
        1  1    1    2  501    0 0.89027272E+02 -.36652450E+02 0.29552163E+03 0.31080925E+03 0.32000000E+00 0.0000E+00 0.9000E+01
#aMCatNLO 1  0  0  1  1 0.10886724D+03 0.00000000D+00  -5  6  0 0.00000000D+00 0.00000000D+00 0.00000000D+00 0.00000000D+00 0.00000000D+00
  <mgrwgt>
 0.9925462247D-01    4    2    0
 0.321417293947032D+03 0.000000000000000D+00 0.000000000000000D+00 0.321417293947032D+03
 0.321417293947032D+03 0.000000000000000D+00 0.000000000000000D+00 -.321417293947032D+03
 0.186666988498587D+03 -.130902347923102D+03 0.456318682987260D+02 -.136839282315275D+01
 0.226399117649852D+03 0.418750201518558D+02 -.897939586634001D+01 -.207256357334144D+03
 0.229768481745626D+03 0.890273277712458D+02 -.366524724323860D+02 0.208624750157296D+03
 0.000000000000000D+00 0.000000000000000D+00 -.000000000000000D+00 -.000000000000000D+00
 0.372848383845698D+03 0.000000000000000D+00 0.000000000000000D+00 0.372848383845698D+03
 0.389232910345006D+03 0.000000000000000D+00 0.000000000000000D+00 -.389232910345006D+03
 0.211946927230937D+03 -.158445833950329D+03 0.647266959414939D+02 -.136839282315275D+01
 0.222928274739677D+03 0.108273264674006D+02 0.125447626597115D+02 -.207256357334144D+03
 0.217112821626662D+03 0.581486543241911D+02 -.152454890633974D+02 0.208624750157296D+03
 0.110093270593427D+03 0.894698531587373D+02 -.620259695378079D+02 -.163845264993078D+02
0.212055549070D-03 0.000000000000D+00 0.000000000000D+00 0.440118472539D-06 0.000000000000D+00  6 21 2 25 24 1 21 2 0.68391445D-01 0.35752794D-01 0.34978506D+05 0.34978506D+05 0.34978506D+05 0.12079618D+01  1  2  2  1  6  1       21 0.107887761818D+00 0.100000000000D+01
0.262003481585D-05 0.111904787655D-04 -.428079057660D-06 0.440118472539D-06 0.000000000000D+00  6 21 2 25 24 1 21 4 0.68391445D-01 0.35752794D-01 0.34978506D+05 0.34978506D+05 0.34978506D+05 0.12079618D+01  1  2  3  1  6  1       21 0.194507331871D-02 0.100000000000D+01
0.221969940924D-04 0.000000000000D+00 0.000000000000D+00 0.440118472539D-06 0.000000000000D+00  6 21 2 25 24 1 21 4 0.68391445D-01 0.35752794D-01 0.34978506D+05 0.34978506D+05 0.34978506D+05 0.12079618D+01  1  2 15  1  6  1       21 0.164787050552D-01 0.100000000000D+01
-.364459610708D-04 0.000000000000D+00 0.000000000000D+00 0.440118472539D-06 0.000000000000D+00  6 21 2 25 24 1 21 4 0.68391445D-01 0.35752794D-01 0.34978506D+05 0.34978506D+05 0.34978506D+05 0.12079618D+01  1  2  4  1  6  1       21 -.270569177267D-01 0.100000000000D+01
  </mgrwgt>
  </event>
  <event>
  6     66 0.46027262E-03 0.17682067E+02 0.75467711E-02 0.12298619E+00
       21 -1    0    0  503  502 0.00000000E+00 0.00000000E+00 0.27537071E+02 0.27547282E+02 0.75000000E+00 0.0000E+00 0.9000E+01
        2 -1    0    0  502    0 0.00000000E+00 0.00000000E+00 -.18386536E+04 0.18386536E+04 0.32000000E+00 0.0000E+00 0.9000E+01
       25  1    1    2    0    0 -.26249656E+02 -.17050915E+02 -.74049902E+03 0.75162728E+03 0.12500000E+03 0.0000E+00 0.9000E+01
       24  1    1    2    0    0 0.43921546E+02 0.85148223E+01 -.10092824E+04 0.10134691E+04 0.80419002E+02 0.0000E+00 0.9000E+01
        1  1    1    2  501    0 -.45408144E+01 -.11258407E+02 -.73437435E+02 0.74434737E+02 0.32000000E+00 0.0000E+00 0.9000E+01
       21  1    1    2  503  501 -.13131076E+02 0.19794500E+02 0.12102287E+02 0.26669744E+02 0.75000000E+00 0.0000E+00 0.9000E+01
#aMCatNLO 2  0  0  1  5 0.17637400D+02 0.00000000D+00  -5  6  0 0.00000000D+00 0.00000000D+00 0.00000000D+00 0.00000000D+00 0.00000000D+00
  <mgrwgt>
 0.1195670076D+01    1    2    0
 0.121638615597733D+03 0.000000000000000D+00 0.000000000000000D+00 0.121638615597733D+03
 0.121638615597733D+03 0.000000000000000D+00 0.000000000000000D+00 -.121638615597733D+03
 0.133827254110414D+03 -.334370805288047D+02 -.621253194570911D+01 0.335872004678436D+02
 0.976559252811931D+02 0.386312850190425D+02 0.164923273202515D+02 -.361260397150675D+02
 0.117940518038591D+02 -.519420449023781D+01 -.102797953745423D+02 0.253883924722389D+01
 0.000000000000000D+00 -.000000000000000D+00 0.000000000000000D+00 0.000000000000000D+00
 0.412707299143321D+03 0.000000000000000D+00 0.000000000000000D+00 0.412707299143321D+03
 0.122702679309037D+03 0.000000000000000D+00 0.000000000000000D+00 -.122702679309037D+03
 0.133164379683445D+03 -.262486339019014D+02 -.170487887984344D+02 0.335872004678436D+02
 0.988635759204671D+02 0.439223494822252D+02 0.851628791657925D+01 -.361260397150675D+02
 0.124062044353272D+02 -.454264006531247D+01 -.112619991566731D+02 0.253883924722389D+01
 0.290975818413118D+03 -.131310755150114D+02 0.197945000385282D+02 0.290004619834284D+03
0.118608034448D-03 0.000000000000D+00 0.000000000000D+00 0.157306865725D-05 0.342577124904D-06  6 21 2 25 24 1 21 4 0.42372434D-02 0.28286946D+00 0.16484415D+05 0.16484415D+05 0.16484415D+05 0.12431774D+01  1  2  1  1  6  1       21 0.119567007557D+01 0.100000000000D+01
  </mgrwgt>
  </event>
  <event>
  6     66 0.46027262E-03 0.17287184E+02 0.75467711E-02 0.11422735E+00
       21 -1    0    0  501  503 0.00000000E+00 0.00000000E+00 0.34499534E+02 0.34507685E+02 0.75000000E+00 0.0000E+00 0.9000E+01
        2 -1    0    0  502    0 0.00000000E+00 0.00000000E+00 -.16499428E+04 0.16499429E+04 0.32000000E+00 0.0000E+00 0.9000E+01
       25  1    1    2    0    0 0.16105591E+02 0.16317687E+03 -.84702207E+03 0.87175540E+03 0.12500000E+03 0.0000E+00 0.9000E+01
       24  1    1    2    0    0 -.25922089E+01 -.14996229E+03 -.59768401E+03 0.62144090E+03 0.80419002E+02 0.0000E+00 0.9000E+01
        1  1    1    2  501    0 -.10993604E+02 0.12135859E+02 -.16410337E+03 0.16491864E+03 0.32000000E+00 0.0000E+00 0.9000E+01
       21  1    1    2  502  503 -.25197783E+01 -.25350436E+02 -.66338484E+01 0.26335609E+02 0.75000000E+00 0.0000E+00 0.9000E+01
#aMCatNLO 2  0  0  1  1 0.36807169D+01 0.00000000D+00  -5  6  0 0.00000000D+00 0.00000000D+00 0.00000000D+00 0.00000000D+00 0.00000000D+00
  <mgrwgt>
 0.7521573578D+00    1    2    0
 0.200267515322286D+03 0.000000000000000D+00 0.000000000000000D+00 0.200267515322286D+03
 0.200267515322286D+03 0.000000000000000D+00 0.000000000000000D+00 -.200267515322286D+03
 0.196228021107988D+03 0.148414303838280D+02 0.150452792782152D+03 -.491175693310545D+01
 0.181430098233500D+03 -.370097679801203D+01 -.161122583948706D+03 0.218055108419783D+02
 0.228769113030834D+02 -.111404535858159D+02 0.106697911665537D+02 -.168937539088729D+02
 0.000000000000000D+00 -.000000000000000D+00 -.000000000000000D+00 0.000000000000000D+00
 0.280855543013085D+03 0.000000000000000D+00 0.000000000000000D+00 0.280855543013085D+03
 0.202695653936939D+03 0.000000000000000D+00 0.000000000000000D+00 -.202695653936939D+03
 0.206240269784573D+03 0.161061229044557D+02 0.163176335078437D+03 -.491175693310545D+01
 0.171575742901149D+03 -.259171215002992D+01 -.149962736447300D+03 0.218055108419783D+02
 0.235283589475550D+02 -.109946324129888D+02 0.121368369740509D+02 -.168937539088729D+02
 0.822068253167469D+02 -.251977834143700D+01 -.253504356051876D+02 0.781598890761457D+02
0.103006671873D-03 0.000000000000D+00 0.000000000000D+00 0.205216214614D-06 0.649020673337D-08  6 21 2 25 24 1 21 4 0.53082056D-02 0.25383587D+00 0.43726564D+05 0.43726564D+05 0.43726564D+05 0.11980915D+01  1  2  1  1  6  1       21 0.752157357761D+00 0.100000000000D+01
  </mgrwgt>
  </event>
  <event>
  5     66 -.46027262E-03 0.29462326E+02 0.75467711E-02 0.11713548E+00
       21 -1    0    0  501  502 0.00000000E+00 0.00000000E+00 0.70278916E+02 0.70282917E+02 0.75000000E+00 0.0000E+00 0.9000E+01
        2 -1    0    0  502    0 0.00000000E+00 0.00000000E+00 -.34097202E+03 0.34097217E+03 0.32000000E+00 0.0000E+00 0.9000E+01
       25  1    1    2    0    0 -.38629237E+01 0.57537331E+02 -.11972216E+03 0.18243865E+03 0.12500000E+03 0.0000E+00 0.9000E+01
       24  1    1    2    0    0 -.24426670E+02 -.49308833E+02 -.16841682E+03 0.19457509E+03 0.80419002E+02 0.0000E+00 0.9000E+01
        1  1    1    2  501    0 0.28289593E+02 -.82284982E+01 0.17445871E+02 0.34241351E+02 0.32000000E+00 0.0000E+00 0.9000E+01
#aMCatNLO 1  0  0  1  2 0.20362164D+03 0.00000000D+00  -5  6  0 0.00000000D+00 0.00000000D+00 0.00000000D+00 0.00000000D+00 0.00000000D+00
  <mgrwgt>
 -.9585752573D+00   12    2    0
 0.154803093730106D+03 0.000000000000000D+00 0.000000000000000D+00 0.154803093730106D+03
 0.154803093730106D+03 0.000000000000000D+00 0.000000000000000D+00 -.154803093730106D+03
 0.137661554962380D+03 -.386309823952895D+01 0.575373819628866D+02 0.479440829408389D+00
 0.111208263314175D+03 -.244268108338010D+02 -.493087919946025D+02 -.535913782198869D+02
 0.607363691836574D+02 0.282899090733299D+02 -.822858996828409D+01 0.531119373904785D+02
 0.000000000000000D+00 -.000000000000000D+00 -.000000000000000D+00 0.000000000000000D+00
 0.135558815582214D+04 0.000000000000000D+00 0.000000000000000D+00 0.135558815582214D+04
 0.160848169113171D+03 0.000000000000000D+00 0.000000000000000D+00 -.160848169113171D+03
 0.154689052321358D+03 0.108467809715657D+02 0.904755236908071D+02 0.479440829408389D+00
 0.100868203358920D+03 -.137559959609957D+02 -.254148627794825D+02 -.535913782198869D+02
 0.636224774670767D+02 0.345471343620325D+02 0.578249539993319D+01 0.531119373904785D+02
 0.119725659178795D+04 -.316379193726024D+02 -.708431563112578D+02 0.119473998670897D+04
0.102392529070D-05 0.000000000000D+00 0.000000000000D+00 0.156149541238D-05 0.000000000000D+00  6 21 2 25 24 1 21 2 0.10812460D-01 0.52457554D-01 0.17498869D+05 0.17498869D+05 0.17498869D+05 0.12402651D+01  1  2  2  1  6  1       21 0.130702907656D-01 0.100000000000D+01
0.785308148705D-07 0.540340220911D-07 -.206701015597D-08 0.156149541238D-05 0.000000000000D+00  6 21 2 25 24 1 21 4 0.10812460D-01 0.52457554D-01 0.17498869D+05 0.17498869D+05 0.17498869D+05 0.12402651D+01  1  2  3  1  6  1       21 0.154200633922D-02 0.100000000000D+01
0.945147567804D-07 0.000000000000D+00 0.000000000000D+00 0.156149541238D-05 0.000000000000D+00  6 21 2 25 24 1 21 4 0.10812460D-01 0.52457554D-01 0.17498869D+05 0.17498869D+05 0.17498869D+05 0.12402651D+01  1  2 15  1  6  1       21 0.185586198674D-02 0.100000000000D+01
-.226179435100D-02 0.000000000000D+00 -.230025983271D-04 0.156149541238D-05 0.000000000000D+00  6 21 2 25 24 1 21 4 0.95604366D-01 0.52457554D-01 0.17498869D+05 0.17498869D+05 0.17498869D+05 0.12402651D+01  1  2  5  1  6  1       21 -.598713009375D+00 0.100000000000D+01
-.993465667802D-03 0.000000000000D+00 -.100063963602D-04 0.156149541238D-05 0.000000000000D+00  6 -1 2 25 24 1 -1 4 0.95604366D-01 0.52457554D-01 0.17498869D+05 0.17498869D+05 0.17498869D+05 0.12402651D+01  1  2  5  4  6  1       21 -.294616649293D-01 0.100000000000D+01
-.993465667802D-03 0.000000000000D+00 -.100063963602D-04 0.156149541238D-05 0.000000000000D+00  6 1 2 25 24 1 1 4 0.95604366D-01 0.52457554D-01 0.17498869D+05 0.17498869D+05 0.17498869D+05 0.12402651D+01  1  2  5  5  6  1       21 -.104695730936D+00 0.100000000000D+01
-.993465667802D-03 0.000000000000D+00 -.100063963602D-04 0.156149541238D-05 0.000000000000D+00  6 -2 2 25 24 1 -2 4 0.95604366D-01 0.52457554D-01 0.17498869D+05 0.17498869D+05 0.17498869D+05 0.12402651D+01  1  2  5  6  6  1       21 -.219329947452D-01 0.100000000000D+01
-.993465667802D-03 0.000000000000D+00 -.100063963602D-04 0.156149541238D-05 0.000000000000D+00  6 2 2 25 24 1 2 4 0.95604366D-01 0.52457554D-01 0.17498869D+05 0.17498869D+05 0.17498869D+05 0.12402651D+01  1  2  5  7  6  1       21 -.170844259016D+00 0.100000000000D+01
-.993465667802D-03 0.000000000000D+00 -.100063963602D-04 0.156149541238D-05 0.000000000000D+00  6 -3 2 25 24 1 -3 4 0.95604366D-01 0.52457554D-01 0.17498869D+05 0.17498869D+05 0.17498869D+05 0.12402651D+01  1  2  5  8  6  1       21 -.137218428031D-01 0.100000000000D+01
-.993465667802D-03 0.000000000000D+00 -.100063963602D-04 0.156149541238D-05 0.000000000000D+00  6 -4 2 25 24 1 -4 4 0.95604366D-01 0.52457554D-01 0.17498869D+05 0.17498869D+05 0.17498869D+05 0.12402651D+01  1  2  5  8  6  1       21 -.109636813320D-01 0.100000000000D+01
-.993465667802D-03 0.000000000000D+00 -.100063963602D-04 0.156149541238D-05 0.000000000000D+00  6 3 2 25 24 1 3 4 0.95604366D-01 0.52457554D-01 0.17498869D+05 0.17498869D+05 0.17498869D+05 0.12402651D+01  1  2  5  9  6  1       21 -.137465519672D-01 0.100000000000D+01
-.993465667802D-03 0.000000000000D+00 -.100063963602D-04 0.156149541238D-05 0.000000000000D+00  6 4 2 25 24 1 4 4 0.95604366D-01 0.52457554D-01 0.17498869D+05 0.17498869D+05 0.17498869D+05 0.12402651D+01  1  2  5  9  6  1       21 -.109636813320D-01 0.100000000000D+01
  </mgrwgt>
  </event>
  <event>
  5     66 0.46027262E-03 0.35095346E+02 0.75467711E-02 0.12248172E+00
       21 -1    0    0  501  502 0.00000000E+00 0.00000000E+00 0.20738263E+02 0.20751820E+02 0.75000000E+00 0.0000E+00 0.9000E+01
        2 -1    0    0  502    0 0.00000000E+00 0.00000000E+00 -.81377163E+03 0.81377169E+03 0.32000000E+00 0.0000E+00 0.9000E+01
       25  1    1    2    0    0 0.39477373E+02 0.59601398E+01 -.36685965E+03 0.38962160E+03 0.12500000E+03 0.0000E+00 0.9000E+01
       24  1    1    2    0    0 -.23544617E+02 0.25309089E+02 -.24035761E+03 0.25580050E+03 0.80419002E+02 0.0000E+00 0.9000E+01
        1  1    1    2  501    0 -.15932756E+02 -.31269229E+02 -.18581611E+03 0.18910142E+03 0.32000000E+00 0.0000E+00 0.9000E+01
#aMCatNLO 1  0  0  2  1 0.97451521D+01 0.00000000D+00  -5  6  0 0.00000000D+00 0.00000000D+00 0.00000000D+00 0.00000000D+00 0.00000000D+00
  <mgrwgt>
 0.4922132244D+00   11    2    0
 0.129930339164885D+03 0.000000000000000D+00 0.000000000000000D+00 0.129930339164885D+03
 0.129930339164885D+03 0.000000000000000D+00 0.000000000000000D+00 -.129930339164885D+03
 0.131672376735920D+03 0.394776287159240D+02 0.596064135786998D+01 0.108904720217485D+02
 0.879700059410519D+02 -.235444464523721D+02 0.253094239850542D+02 0.875203346053452D+01
 0.402182956527975D+02 -.159331822635519D+02 -.312700653429242D+02 -.196425054822831D+02
 0.000000000000000D+00 -.000000000000000D+00 -.000000000000000D+00 -.000000000000000D+00
 0.134890402462844D+03 0.000000000000000D+00 0.000000000000000D+00 0.134890402462844D+03
 0.134898095487057D+03 0.000000000000000D+00 0.000000000000000D+00 -.134898095487057D+03
 0.132747590529430D+03 0.421357577126402D+02 0.101438815299808D+02 0.108904720217485D+02
 0.883594009066806D+02 -.217718635640103D+02 0.280990327497724D+02 0.875203346053452D+01
 0.389363513585569D+02 -.151374660223703D+02 -.300178040155681D+02 -.196425054822831D+02
 0.974515515523387D+01 -.522642812625956D+01 -.822511026418508D+01 -.769302421259265D-02
0.104288883202D-05 0.000000000000D+00 0.000000000000D+00 0.417580801847D-06 0.000000000000D+00  6 21 2 25 24 1 21 2 0.31915497D-02 0.12519668D+00 0.16109973D+05 0.16109973D+05 0.16109973D+05 0.12443035D+01  1  2  2  2  6  2        2 0.399782901751D-01 0.100000000000D+01
-.590351654417D-07 0.550347556604D-07 -.210529208226D-08 0.417580801847D-06 0.000000000000D+00  6 21 2 25 24 1 21 4 0.31915497D-02 0.12519668D+00 0.16109973D+05 0.16109973D+05 0.16109973D+05 0.12443035D+01  1  2  3  2  6  2        2 -.350388333918D-02 0.100000000000D+01
0.985860238065D-07 0.000000000000D+00 0.000000000000D+00 0.417580801847D-06 0.000000000000D+00  6 21 2 25 24 1 21 4 0.31915497D-02 0.12519668D+00 0.16109973D+05 0.16109973D+05 0.16109973D+05 0.12443035D+01  1  2 15  2  6  2        2 0.585132477747D-02 0.100000000000D+01
0.608936467084D-05 0.000000000000D+00 0.000000000000D+00 0.415115558796D-06 0.000000000000D+00  6 21 2 25 24 1 21 4 0.31915497D-02 0.13228348D+00 0.17369760D+05 0.17369760D+05 0.17369760D+05 0.12406251D+01  1  2 12  2  6  2        2 0.333639506369D+00 0.100000000000D+01
-.545881924581D-06 0.000000000000D+00 0.000000000000D+00 0.417580801847D-06 0.000000000000D+00  6 21 2 25 24 1 21 4 0.31915497D-02 0.12519668D+00 0.16109973D+05 0.16109973D+05 0.16109973D+05 0.12443035D+01  1  2  4  2  6  2        2 -.323994447443D-01 0.100000000000D+01
-.305360094857D-04 0.000000000000D+00 -.537268706541D-05 0.417580801847D-06 0.000000000000D+00  6 21 2 25 24 1 21 4 0.31915497D-02 0.13378662D+00 0.16109973D+05 0.16109973D+05 0.16109973D+05 0.12443035D+01  1  2  5  2  6  2        2 -.166641765679D+01 0.100000000000D+01
0.308364282433D-04 0.000000000000D+00 0.536087896588D-05 0.417580801847D-06 0.000000000000D+00  6 21 2 25 24 1 21 4 0.31915497D-02 0.12519668D+00 0.16109973D+05 0.16109973D+05 0.16109973D+05 0.12443035D+01  1  2  6  2  6  2        2 0.183021841903D+01 0.100000000000D+01
0.319137284917D-12 0.000000000000D+00 0.000000000000D+00 0.417580801847D-06 0.230288723337D-06  6 21 2 25 24 1 21 4 0.33133864D-02 0.12998345D+00 0.17369760D+05 0.17369760D+05 0.17369760D+05 0.12406251D+01  1  2 11  2  6  2        2 0.168111564512D-07 0.100000000000D+01
0.665481433879D-07 0.000000000000D+00 0.000000000000D+00 0.415115558796D-06 0.000000000000D+00  6 21 21 25 24 1 -2 4 0.31915497D-02 0.13228348D+00 0.17369760D+05 0.17369760D+05 0.17369760D+05 0.12406251D+01  1  2 12 10  6  2        2 0.380170325126D-02 0.100000000000D+01
-.336715492433D-06 0.000000000000D+00 -.606784066578D-07 0.417580801847D-06 0.000000000000D+00  6 21 21 25 24 1 -2 4 0.31915497D-02 0.13378662D+00 0.16109973D+05 0.16109973D+05 0.16109973D+05 0.12443035D+01  1  2  5 10  6  2        2 -.189550541917D-01 0.100000000000D+01
0.550241241296D-13 0.000000000000D+00 0.000000000000D+00 0.417580801847D-06 0.773091497221D-09  6 21 21 25 24 1 -2 4 0.33133864D-02 0.12998345D+00 0.17369760D+05 0.17369760D+05 0.17369760D+05 0.12406251D+01  1  2 11 10  6  2        2 0.308740272398D-08 0.100000000000D+01
  </mgrwgt>
  </event>
  <event>
  5     66 -.46027262E-03 0.23685338E+02 0.75467711E-02 0.12411105E+00
       21 -1    0    0  501  502 0.00000000E+00 0.00000000E+00 0.21953522E+02 0.21966329E+02 0.75000000E+00 0.0000E+00 0.9000E+01
        2 -1    0    0  502    0 -.00000000E+00 -.00000000E+00 -.10659764E+04 0.10659765E+04 0.32000000E+00 0.0000E+00 0.9000E+01
       25  1    1    2    0    0 -.11894996E+02 -.22684449E+02 -.65012195E+03 0.66252519E+03 0.12500000E+03 0.0000E+00 0.9000E+01
       24  1    1    2    0    0 0.17706294E+02 -.27677445E+00 -.39318925E+03 0.40171954E+03 0.80419002E+02 0.0000E+00 0.9000E+01
        1  1    1    2  501    0 -.58112978E+01 0.22961224E+02 -.71168968E+00 0.23698056E+02 0.32000000E+00 0.0000E+00 0.9000E+01
#aMCatNLO 1  0  0  5  2 0.15389339D+02 0.00000000D+00  -5  6  0 0.00000000D+00 0.00000000D+00 0.00000000D+00 0.00000000D+00 0.00000000D+00
  <mgrwgt>
 -.7183684735D-01    6    2    0
 0.152999768085244D+03 0.000000000000000D+00 0.000000000000000D+00 0.152999768085244D+03
 0.152999768085244D+03 -.000000000000000D+00 -.000000000000000D+00 -.152999768085244D+03
 0.137409808369156D+03 -.118949761520724D+02 -.226845280674722D+02 -.509938934064251D+02
 0.867626169929143D+02 0.177063064789929D+02 -.276824230270503D+00 -.273303097733290D+02
 0.818271108084175D+02 -.581133032692049D+01 0.229613522977427D+02 0.783242031797541D+02
 0.000000000000000D+00 0.000000000000000D+00 0.000000000000000D+00 0.000000000000000D+00
 0.152999768085244D+03 0.000000000000000D+00 0.000000000000000D+00 0.152999768085244D+03
 0.152999768085244D+03 -.000000000000000D+00 -.000000000000000D+00 -.152999768085244D+03
 0.136368769584087D+03 -.120859819425824D+02 -.219298383492690D+02 -.484195471719471D+02
 0.862391046733223D+02 0.175856091956134D+02 0.200067064691428D+00 -.257035706250025D+02
 0.456875545791938D+02 -.994222592988839D+01 0.251312222289740D+02 0.368364826804052D+02
 0.377041073338843D+02 0.444259867685739D+01 -.340145094439644D+01 0.372866351165444D+02
0.348502373802D-05 0.000000000000D+00 0.000000000000D+00 0.513734643991D-05 0.000000000000D+00  6 21 2 25 24 1 21 2 0.33784537D-02 0.16399736D+00 0.13645547D+05 0.13645547D+05 0.13645547D+05 0.12525354D+01  1  2  2  3  6  5        1 0.859950492287D-01 0.100000000000D+01
0.528752508188D-06 0.183909755291D-06 -.703525884722D-08 0.513734643991D-05 0.000000000000D+00  6 21 2 25 24 1 21 4 0.33784537D-02 0.16399736D+00 0.13645547D+05 0.13645547D+05 0.13645547D+05 0.12525354D+01  1  2  3  3  6  5        1 0.204691672503D-01 0.100000000000D+01
0.321170137739D-06 0.000000000000D+00 0.000000000000D+00 0.513734643991D-05 0.000000000000D+00  6 21 2 25 24 1 21 4 0.33784537D-02 0.16399736D+00 0.13645547D+05 0.13645547D+05 0.13645547D+05 0.12525354D+01  1  2 15  3  6  5        1 0.124331992064D-01 0.100000000000D+01
-.682497477715D-05 0.000000000000D+00 0.000000000000D+00 0.513734643991D-05 0.000000000000D+00  6 21 2 25 24 1 21 4 0.33784537D-02 0.16399736D+00 0.13645547D+05 0.13645547D+05 0.13645547D+05 0.12525354D+01  1  2  4  3  6  5        1 -.264209716321D+00 0.100000000000D+01
-.345419998540D-05 0.000000000000D+00 0.000000000000D+00 0.513734643991D-05 0.000000000000D+00  6 21 2 25 24 1 21 4 0.33784537D-02 0.16399736D+00 0.13645547D+05 0.13645547D+05 0.13645547D+05 0.12525354D+01  1  2  5  3  6  5        1 -.133719644110D+00 0.100000000000D+01
0.535219269504D-05 0.000000000000D+00 -.000000000000D+00 0.513734643991D-05 0.000000000000D+00  6 21 2 25 24 1 21 4 0.33784537D-02 0.16399736D+00 0.13645547D+05 0.13645547D+05 0.13645547D+05 0.12525354D+01  1  2  6  3  6  5        1 0.207195097392D+00 0.100000000000D+01
  </mgrwgt>
  </event>
  <event>
  5     66 0.46027262E-03 0.22561475E+02 0.75467711E-02 0.10757757E+00
       21 -1    0    0  501  502 0.00000000E+00 0.00000000E+00 0.92745072E+02 0.92748104E+02 0.75000000E+00 0.0000E+00 0.9000E+01
        2 -1    0    0  502    0 0.00000000E+00 0.00000000E+00 -.75526950E+03 0.75526957E+03 0.32000000E+00 0.0000E+00 0.9000E+01
       25  1    1    2    0    0 -.33782060E+02 0.19378865E+02 -.29567076E+03 0.32336197E+03 0.12500000E+03 0.0000E+00 0.9000E+01
       24  1    1    2    0    0 0.16295906E+02 -.33635579E+02 -.43961807E+03 0.44847316E+03 0.80419002E+02 0.0000E+00 0.9000E+01
        1  1    1    2  501    0 0.17486154E+02 0.14256714E+02 0.72764400E+02 0.76182543E+02 0.32000000E+00 0.0000E+00 0.9000E+01
#aMCatNLO 1  0  0  1  2 0.73707863D+00 0.00000000D+00  -5  6  0 0.00000000D+00 0.00000000D+00 0.00000000D+00 0.00000000D+00 0.00000000D+00
  <mgrwgt>
 0.2875346266D+01    3    2    0
 0.264667410734438D+03 0.000000000000000D+00 0.000000000000000D+00 0.264667410734438D+03
 0.264667410734438D+03 0.000000000000000D+00 0.000000000000000D+00 -.264667410734438D+03
 0.147973608721450D+03 -.337820654628788D+02 0.193788602602573D+02 -.689523074749776D+02
 0.168240369343891D+03 0.162958998768689D+02 -.336355842357534D+02 -.142970965734029D+03
 0.213120843403535D+03 0.174861655860098D+02 0.142567239754961D+02 0.211923273209007D+03
 0.000000000000000D+00 -.000000000000000D+00 0.000000000000000D+00 -.000000000000000D+00
 0.365736814143557D+03 0.000000000000000D+00 0.000000000000000D+00 0.365736814143557D+03
 0.518556159182722D+03 0.000000000000000D+00 0.000000000000000D+00 -.518556159182722D+03
 0.145972002846691D+03 0.304678253125888D+02 0.341364427098156D+00 -.689523074749776D+02
 0.198796179143831D+03 0.965218233908658D+02 -.574068415277927D+02 -.142970965734029D+03
 0.242602573522778D+03 0.117097041234517D+03 -.152583710263442D+02 0.211923273209007D+03
 0.296922217812978D+03 -.244086689937972D+03 0.723238481270388D+02 -.152819345039165D+03
0.530929308807D-03 0.000000000000D+00 0.000000000000D+00 0.222128812564D-04 0.000000000000D+00  6 21 2 25 24 1 21 2 0.14268711D-01 0.11619555D+00 0.14661329D+05 0.14661329D+05 0.14661329D+05 0.12489548D+01  1  2  2  1  6  1       21 0.173657779066D+01 0.100000000000D+01
0.165747715404D-03 0.280179093743D-04 -.107179330697D-05 0.222128812564D-04 0.000000000000D+00  6 21 2 25 24 1 21 4 0.14268711D-01 0.11619555D+00 0.14661329D+05 0.14661329D+05 0.14661329D+05 0.12489548D+01  1  2  3  1  6  1       21 0.845665312672D+00 0.100000000000D+01
0.574472888999D-04 0.000000000000D+00 0.000000000000D+00 0.222128812564D-04 0.000000000000D+00  6 21 2 25 24 1 21 4 0.14268711D-01 0.11619555D+00 0.14661329D+05 0.14661329D+05 0.14661329D+05 0.12489548D+01  1  2 15  1  6  1       21 0.293103162304D+00 0.100000000000D+01
  </mgrwgt>
  </event>
  <event>
  5     66 -.46027262E-03 0.94480271E+02 0.75467711E-02 0.11284900E+00
       21 -1    0    0  501  502 0.00000000E+00 0.00000000E+00 0.21615984E+03 0.21616114E+03 0.75000000E+00 0.0000E+00 0.9000E+01
        2 -1    0    0  502    0 0.00000000E+00 0.00000000E+00 -.46652473E+03 0.46652484E+03 0.32000000E+00 0.0000E+00 0.9000E+01
       25  1    1    2    0    0 0.28616287E+02 0.61311839E+02 -.22828762E+03 0.26892057E+03 0.12500000E+03 0.0000E+00 0.9000E+01
       24  1    1    2    0    0 0.78999552E+01 0.43909228E+02 -.19067844E+03 0.21169769E+03 0.80419002E+02 0.0000E+00 0.9000E+01
        1  1    1    2  501    0 -.36516242E+02 -.10522107E+03 0.16860117E+03 0.20206772E+03 0.32000000E+00 0.0000E+00 0.9000E+01
#aMCatNLO 1  0  0  1  2 0.87666398D+02 0.00000000D+00  -5  6  0 0.00000000D+00 0.00000000D+00 0.00000000D+00 0.00000000D+00 0.00000000D+00
  <mgrwgt>
 -.1325694507D+00   30    2    0
 0.317560060396568D+03 0.000000000000000D+00 0.000000000000000D+00 0.317560060396568D+03
 0.317560060396568D+03 0.000000000000000D+00 0.000000000000000D+00 -.317560060396568D+03
 0.199069622798010D+03 0.286162942750415D+02 0.613118595410266D+02 -.139376032023184D+03
 0.152386735986864D+03 0.789996080766290D+01 0.439092443783238D+02 -.121507490418170D+03
 0.283663762008263D+03 -.365162550827044D+02 -.105221103919350D+03 0.260883522441354D+03
 0.000000000000000D+00 0.000000000000000D+00 0.000000000000000D+00 0.000000000000000D+00
 0.210758825503028D+04 0.000000000000000D+00 0.000000000000000D+00 0.210758825503028D+04
 0.321646132502678D+03 0.000000000000000D+00 0.000000000000000D+00 -.321646132502678D+03
 0.191883690630074D+03 0.233481311965453D+02 0.349790965709425D+02 -.139376032023184D+03
 0.147674574751279D+03 0.385658308397809D+01 0.236985360897145D+02 -.121507490418170D+03
 0.301583657435317D+03 -.444025646265805D+02 -.144640597362002D+03 0.260883522441354D+03
 0.178809246471629D+04 0.171978503460572D+02 0.859629647013447D+02 0.178594212252760D+04
0.559201496251D-05 0.000000000000D+00 0.000000000000D+00 0.248799939819D-05 0.000000000000D+00  6 21 2 25 24 1 21 2 0.33255468D-01 0.71773144D-01 0.29839145D+05 0.29839145D+05 0.29839145D+05 0.12151435D+01  1  2  2  1  6  1       21 0.608474787663D-02 0.100000000000D+01
0.916037952388D-07 0.295098736952D-06 -.112886670784D-07 0.248799939819D-05 0.000000000000D+00  6 21 2 25 24 1 21 4 0.33255468D-01 0.71773144D-01 0.29839145D+05 0.29839145D+05 0.29839145D+05 0.12151435D+01  1  2  3  1  6  1       21 0.147177996614D-03 0.100000000000D+01
0.626923469456D-06 0.000000000000D+00 0.000000000000D+00 0.248799939819D-05 0.000000000000D+00  6 21 2 25 24 1 21 4 0.33255468D-01 0.71773144D-01 0.29839145D+05 0.29839145D+05 0.29839145D+05 0.12151435D+01  1  2 15  1  6  1       21 0.100726547437D-02 0.100000000000D+01
0.201078372535D-02 0.000000000000D+00 0.000000000000D+00 0.238947620772D-05 0.000000000000D+00  6 21 2 25 24 1 21 4 0.21901050D+00 0.71773144D-01 0.51706423D+05 0.51706423D+05 0.51706423D+05 0.11908411D+01  1  2 12  1  6  1       21 0.335790847154D-01 0.100000000000D+01
0.201776742093D-02 0.000000000000D+00 0.000000000000D+00 0.238947620772D-05 0.000000000000D+00  6 21 2 25 24 1 21 4 0.22860049D+00 0.71773144D-01 0.51706423D+05 0.51706423D+05 0.51706423D+05 0.11908411D+01  1  2 12  1  6  1       21 0.294194964922D-01 0.100000000000D+01
-.667727066537D-02 0.000000000000D+00 -.680762516322D-04 0.248799939819D-05 0.000000000000D+00  6 21 2 25 24 1 21 4 0.22105520D+00 0.71773144D-01 0.29839145D+05 0.29839145D+05 0.29839145D+05 0.12151435D+01  1  2  5  1  6  1       21 -.124150029057D+00 0.100000000000D+01
0.849609612586D-03 0.000000000000D+00 0.000000000000D+00 0.238947620772D-05 0.000000000000D+00  6 -1 2 25 24 1 -1 4 0.21901050D+00 0.71773144D-01 0.51706423D+05 0.51706423D+05 0.51706423D+05 0.11908411D+01  1  2 12  4  6  1       21 0.169045525466D-02 0.100000000000D+01
0.856320970035D-03 0.000000000000D+00 0.000000000000D+00 0.238947620772D-05 0.000000000000D+00  6 -1 2 25 24 1 -1 4 0.22860049D+00 0.71773144D-01 0.51706423D+05 0.51706423D+05 0.51706423D+05 0.11908411D+01  1  2 12  4  6  1       21 0.147839635678D-02 0.100000000000D+01
-.282270459824D-02 0.000000000000D+00 -.290886466518D-04 0.248799939819D-05 0.000000000000D+00  6 -1 2 25 24 1 -1 4 0.22105520D+00 0.71773144D-01 0.29839145D+05 0.29839145D+05 0.29839145D+05 0.12151435D+01  1  2  5  4  6  1       21 -.607649664432D-02 0.100000000000D+01
0.849609612586D-03 0.000000000000D+00 0.000000000000D+00 0.238947620772D-05 0.000000000000D+00  6 1 2 25 24 1 1 4 0.21901050D+00 0.71773144D-01 0.51706423D+05 0.51706423D+05 0.51706423D+05 0.11908411D+01  1  2 12  5  6  1       21 0.129186508950D-01 0.100000000000D+01
0.856320970035D-03 0.000000000000D+00 0.000000000000D+00 0.238947620772D-05 0.000000000000D+00  6 1 2 25 24 1 1 4 0.22860049D+00 0.71773144D-01 0.51706423D+05 0.51706423D+05 0.51706423D+05 0.11908411D+01  1  2 12  5  6  1       21 0.118372877417D-01 0.100000000000D+01
-.282270459824D-02 0.000000000000D+00 -.290886466518D-04 0.248799939819D-05 0.000000000000D+00  6 1 2 25 24 1 1 4 0.22105520D+00 0.71773144D-01 0.29839145D+05 0.29839145D+05 0.29839145D+05 0.12151435D+01  1  2  5  5  6  1       21 -.468421535025D-01 0.100000000000D+01
0.849609612586D-03 0.000000000000D+00 0.000000000000D+00 0.238947620772D-05 0.000000000000D+00  6 -2 2 25 24 1 -2 4 0.21901050D+00 0.71773144D-01 0.51706423D+05 0.51706423D+05 0.51706423D+05 0.11908411D+01  1  2 12  6  6  1       21 0.129815451206D-02 0.100000000000D+01
0.856320970035D-03 0.000000000000D+00 0.000000000000D+00 0.238947620772D-05 0.000000000000D+00  6 -2 2 25 24 1 -2 4 0.22860049D+00 0.71773144D-01 0.51706423D+05 0.51706423D+05 0.51706423D+05 0.11908411D+01  1  2 12  6  6  1       21 0.114534984845D-02 0.100000000000D+01
-.282270459824D-02 0.000000000000D+00 -.290886466518D-04 0.248799939819D-05 0.000000000000D+00  6 -2 2 25 24 1 -2 4 0.22105520D+00 0.71773144D-01 0.29839145D+05 0.29839145D+05 0.29839145D+05 0.12151435D+01  1  2  5  6  6  1       21 -.465676356954D-02 0.100000000000D+01
0.849609612586D-03 0.000000000000D+00 0.000000000000D+00 0.238947620772D-05 0.000000000000D+00  6 2 2 25 24 1 2 4 0.21901050D+00 0.71773144D-01 0.51706423D+05 0.51706423D+05 0.51706423D+05 0.11908411D+01  1  2 12  7  6  1       21 0.273285503453D-01 0.100000000000D+01
0.856320970035D-03 0.000000000000D+00 0.000000000000D+00 0.238947620772D-05 0.000000000000D+00  6 2 2 25 24 1 2 4 0.22860049D+00 0.71773144D-01 0.51706423D+05 0.51706423D+05 0.51706423D+05 0.11908411D+01  1  2 12  7  6  1       21 0.255052708157D-01 0.100000000000D+01
-.282270459824D-02 0.000000000000D+00 -.290886466518D-04 0.248799939819D-05 0.000000000000D+00  6 2 2 25 24 1 2 4 0.22105520D+00 0.71773144D-01 0.29839145D+05 0.29839145D+05 0.29839145D+05 0.12151435D+01  1  2  5  7  6  1       21 -.991316371673D-01 0.100000000000D+01
0.849609612586D-03 0.000000000000D+00 0.000000000000D+00 0.238947620772D-05 0.000000000000D+00  6 -3 2 25 24 1 -3 4 0.21901050D+00 0.71773144D-01 0.51706423D+05 0.51706423D+05 0.51706423D+05 0.11908411D+01  1  2 12  8  6  1       21 0.870688096244D-03 0.100000000000D+01
0.849609612586D-03 0.000000000000D+00 0.000000000000D+00 0.238947620772D-05 0.000000000000D+00  6 -4 2 25 24 1 -4 4 0.21901050D+00 0.71773144D-01 0.51706423D+05 0.51706423D+05 0.51706423D+05 0.11908411D+01  1  2 12  8  6  1       21 0.664801108618D-03 0.100000000000D+01
0.856320970035D-03 0.000000000000D+00 0.000000000000D+00 0.238947620772D-05 0.000000000000D+00  6 -3 2 25 24 1 -3 4 0.22860049D+00 0.71773144D-01 0.51706423D+05 0.51706423D+05 0.51706423D+05 0.11908411D+01  1  2 12  8  6  1       21 0.772758018724D-03 0.100000000000D+01
0.856320970035D-03 0.000000000000D+00 0.000000000000D+00 0.238947620772D-05 0.000000000000D+00  6 -4 2 25 24 1 -4 4 0.22860049D+00 0.71773144D-01 0.51706423D+05 0.51706423D+05 0.51706423D+05 0.11908411D+01  1  2 12  8  6  1       21 0.586307531722D-03 0.100000000000D+01
-.282270459824D-02 0.000000000000D+00 -.290886466518D-04 0.248799939819D-05 0.000000000000D+00  6 -3 2 25 24 1 -3 4 0.22105520D+00 0.71773144D-01 0.29839145D+05 0.29839145D+05 0.29839145D+05 0.12151435D+01  1  2  5  8  6  1       21 -.310526859687D-02 0.100000000000D+01
-.282270459824D-02 0.000000000000D+00 -.290886466518D-04 0.248799939819D-05 0.000000000000D+00  6 -4 2 25 24 1 -4 4 0.22105520D+00 0.71773144D-01 0.29839145D+05 0.29839145D+05 0.29839145D+05 0.12151435D+01  1  2  5  8  6  1       21 -.236001685355D-02 0.100000000000D+01
0.849609612586D-03 0.000000000000D+00 0.000000000000D+00 0.238947620772D-05 0.000000000000D+00  6 3 2 25 24 1 3 4 0.21901050D+00 0.71773144D-01 0.51706423D+05 0.51706423D+05 0.51706423D+05 0.11908411D+01  1  2 12  9  6  1       21 0.877333059425D-03 0.100000000000D+01
0.849609612586D-03 0.000000000000D+00 0.000000000000D+00 0.238947620772D-05 0.000000000000D+00  6 4 2 25 24 1 4 4 0.21901050D+00 0.71773144D-01 0.51706423D+05 0.51706423D+05 0.51706423D+05 0.11908411D+01  1  2 12  9  6  1       21 0.664801108618D-03 0.100000000000D+01
0.856320970035D-03 0.000000000000D+00 0.000000000000D+00 0.238947620772D-05 0.000000000000D+00  6 3 2 25 24 1 3 4 0.22860049D+00 0.71773144D-01 0.51706423D+05 0.51706423D+05 0.51706423D+05 0.11908411D+01  1  2 12  9  6  1       21 0.779195829005D-03 0.100000000000D+01
0.856320970035D-03 0.000000000000D+00 0.000000000000D+00 0.238947620772D-05 0.000000000000D+00  6 4 2 25 24 1 4 4 0.22860049D+00 0.71773144D-01 0.51706423D+05 0.51706423D+05 0.51706423D+05 0.11908411D+01  1  2 12  9  6  1       21 0.586307531722D-03 0.100000000000D+01
-.282270459824D-02 0.000000000000D+00 -.290886466518D-04 0.248799939819D-05 0.000000000000D+00  6 3 2 25 24 1 3 4 0.22105520D+00 0.71773144D-01 0.29839145D+05 0.29839145D+05 0.29839145D+05 0.12151435D+01  1  2  5  9  6  1       21 -.312914903403D-02 0.100000000000D+01
-.282270459824D-02 0.000000000000D+00 -.290886466518D-04 0.248799939819D-05 0.000000000000D+00  6 4 2 25 24 1 4 4 0.22105520D+00 0.71773144D-01 0.29839145D+05 0.29839145D+05 0.29839145D+05 0.12151435D+01  1  2  5  9  6  1       21 -.236001685355D-02 0.100000000000D+01
  </mgrwgt>
  </event>
  <event>
  6     66 0.46027262E-03 0.16504498E+02 0.75467711E-02 0.12300753E+00
       21 -1    0    0  503  502 0.00000000E+00 0.00000000E+00 0.75041241E+02 0.75044989E+02 0.75000000E+00 0.0000E+00 0.9000E+01
        2 -1    0    0  502    0 0.00000000E+00 0.00000000E+00 -.11215694E+04 0.11215694E+04 0.32000000E+00 0.0000E+00 0.9000E+01
       25  1    1    2    0    0 0.44613835E+02 -.51894718E+01 -.42449831E+03 0.44479337E+03 0.12500000E+03 0.0000E+00 0.9000E+01
       24  1    1    2    0    0 -.40786586E+02 -.10054930E+02 -.67782309E+03 0.68386841E+03 0.80419002E+02 0.0000E+00 0.9000E+01
        1  1    1    2  501    0 0.10908835E+02 -.10711263E+01 0.39849970E+01 0.11667588E+02 0.32000000E+00 0.0000E+00 0.9000E+01
       21  1    1    2  503  501 -.14736085E+02 0.16315528E+02 0.51808260E+02 0.56285051E+02 0.75000000E+00 0.0000E+00 0.9000E+01
#aMCatNLO 2  0  0  1  2 0.87666398D+02 0.00000000D+00  -5  6  0 0.00000000D+00 0.00000000D+00 0.00000000D+00 0.00000000D+00 0.00000000D+00
  <mgrwgt>
 0.1458762115D+01    1    2    0
 0.152909174637550D+03 0.000000000000000D+00 0.000000000000000D+00 0.152909174637550D+03
 0.152909174637550D+03 0.000000000000000D+00 0.000000000000000D+00 -.152909174637550D+03
 0.131538453640913D+03 0.382335764808894D+02 0.187456230354548D+01 0.145617454960855D+02
 0.117045006217277D+03 -.463777136593646D+02 -.386460009778983D+01 -.711792811697759D+02
 0.572348894169103D+02 0.814413717847513D+01 0.199003779424436D+01 0.566175356736904D+02
 0.000000000000000D+00 -.000000000000000D+00 0.000000000000000D+00 0.000000000000000D+00
 0.547918979149044D+03 0.000000000000000D+00 0.000000000000000D+00 0.547918979149044D+03
 0.153610007882170D+03 0.000000000000000D+00 0.000000000000000D+00 -.153610007882170D+03
 0.133620224234548D+03 0.446137777967102D+02 -.518948198802238D+01 0.145617454960855D+02
 0.115318501631539D+03 -.407866239375262D+02 -.100549542070340D+02 -.711792811697759D+02
 0.576688595149193D+02 0.109089309087860D+02 -.107109216093993D+01 0.566175356736904D+02
 0.394921401650207D+03 -.147360847679700D+02 0.163155283559963D+02 0.394308971266873D+03
0.337476002982D-03 0.000000000000D+00 0.000000000000D+00 0.154825943565D-04 0.287139730865D-05  6 21 2 25 24 1 21 4 0.11545071D-01 0.17254903D+00 0.16448141D+05 0.16448141D+05 0.16448141D+05 0.12432852D+01  1  2  1  1  6  1       21 0.145876211488D+01 0.100000000000D+01
  </mgrwgt>
  </event>
  <event>
  6     66 0.46027262E-03 0.54730670E+02 0.75467711E-02 0.11747976E+00
       21 -1    0    0  501  503 0.00000000E+00 0.00000000E+00 0.61185231E+02 0.61189828E+02 0.75000000E+00 0.0000E+00 0.9000E+01
        2 -1    0    0  502    0 0.00000000E+00 0.00000000E+00 -.14134521E+04 0.14134521E+04 0.32000000E+00 0.0000E+00 0.9000E+01
       25  1    1    2    0    0 -.13339863E+02 -.45071554E+02 -.56956144E+02 0.14518402E+03 0.12500000E+03 0.0000E+00 0.9000E+01
       24  1    1    2    0    0 0.62502062E+02 0.87533573E+02 -.77648758E+03 0.78801575E+03 0.80419002E+02 0.0000E+00 0.9000E+01
        1  1    1    2  501    0 -.13011436E+02 0.85361255E+01 -.44254500E+03 0.44281863E+03 0.32000000E+00 0.0000E+00 0.9000E+01
       21  1    1    2  502  503 -.36150763E+02 -.50998145E+02 -.76278102E+02 0.98623526E+02 0.75000000E+00 0.0000E+00 0.9000E+01
#aMCatNLO 2  0  0  1  5 0.84455639D+02 0.00000000D+00  -5  6  0 0.00000000D+00 0.00000000D+00 0.00000000D+00 0.00000000D+00 0.00000000D+00
  <mgrwgt>
 0.8953517012D-01    1    2    0
 0.255622628410310D+03 0.000000000000000D+00 0.000000000000000D+00 0.255622628410310D+03
 0.255622628410310D+03 0.000000000000000D+00 0.000000000000000D+00 -.255622628410310D+03
 0.254049122611684D+03 -.309809200167290D+02 -.699580113907786D+02 0.207513893358809D+03
 0.169803340435115D+03 0.501240384878122D+02 0.700717450575775D+02 -.122243567433265D+03
 0.873927937738198D+02 -.191431184710833D+02 -.113733666798893D+00 -.852703259255440D+02
 0.000000000000000D+00 -.000000000000000D+00 -.000000000000000D+00 0.000000000000000D+00
 0.315052609281009D+03 0.000000000000000D+00 0.000000000000000D+00 0.315052609281009D+03
 0.274508618464247D+03 0.000000000000000D+00 0.000000000000000D+00 -.274508618464247D+03
 0.246771976952929D+03 -.133397827705171D+02 -.450715305704293D+02 0.207513893358809D+03
 0.181602153513937D+03 0.625020963476296D+02 0.875335614485624D+02 -.122243567433265D+03
 0.866786834820342D+02 -.130115500855041D+02 0.853611452023577D+01 -.852703259255440D+02
 0.745084137963561D+02 -.361507634916084D+02 -.509981453983689D+02 0.405439908167615D+02
0.231885034756D-04 0.000000000000D+00 0.000000000000D+00 0.253100442529D-07 0.136194871495D-09  6 21 2 25 24 1 21 4 0.94134063D-02 0.21745307D+00 0.29914518D+05 0.29914518D+05 0.29914518D+05 0.12150285D+01  1  2  1  1  6  1       21 0.895351701182D-01 0.100000000000D+01
  </mgrwgt>
  </event>
  <event>
  5     66 0.46027262E-03 0.13782282E+03 0.75467711E-02 0.11168843E+00
       21 -1    0    0  501  502 0.00000000E+00 0.00000000E+00 0.15453656E+04 0.15453658E+04 0.75000000E+00 0.0000E+00 0.9000E+01
        2 -1    0    0  502    0 0.00000000E+00 0.00000000E+00 -.46126870E+02 0.46127980E+02 0.32000000E+00 0.0000E+00 0.9000E+01
       25  1    1    2    0    0 -.13939609E+03 -.43880904E+02 0.55750203E+03 0.58973750E+03 0.12500000E+03 0.0000E+00 0.9000E+01
       24  1    1    2    0    0 0.46600418E+01 -.78062208E+02 0.13853952E+03 0.17825778E+03 0.80419002E+02 0.0000E+00 0.9000E+01
        1  1    1    2  501    0 0.13473605E+03 0.12194311E+03 0.80319719E+03 0.82349848E+03 0.32000000E+00 0.0000E+00 0.9000E+01
#aMCatNLO 1  0  0  1  2 0.26993241D+01 0.00000000D+00  -5  6  0 0.00000000D+00 0.00000000D+00 0.00000000D+00 0.00000000D+00 0.00000000D+00
  <mgrwgt>
 0.1881157825D+00   41    2    0
 0.266990462438922D+03 0.000000000000000D+00 0.000000000000000D+00 0.266990462438922D+03
 0.266990462438922D+03 0.000000000000000D+00 0.000000000000000D+00 -.266990462438922D+03
 0.192394413682005D+03 -.139396156127129D+03 -.438809602001868D+02 0.581234934712398D+01
 0.142312883577263D+03 0.465999547546971D+01 -.780622501205501D+02 -.875803084374020D+02
 0.199273627618575D+03 0.134736160651659D+03 0.121943210320737D+03 0.817679590902781D+02
 0.000000000000000D+00 0.000000000000000D+00 -.000000000000000D+00 0.000000000000000D+00
 0.269204169861957D+03 0.000000000000000D+00 0.000000000000000D+00 0.269204169861957D+03
 0.267818011160285D+03 0.000000000000000D+00 0.000000000000000D+00 -.267818011160285D+03
 0.193083836106949D+03 -.140367962384561D+03 -.438111800440097D+02 0.581234934712398D+01
 0.142262943476521D+03 0.394256830650198D+01 -.780107355521746D+02 -.875803084374020D+02
 0.198640967920373D+03 0.133733001863635D+03 0.122015241732722D+03 0.817679590902781D+02
 0.303443351839902D+01 0.269239221442448D+01 -.193326136537588D+00 0.138615870167212D+01
0.146401606524D-03 0.000000000000D+00 0.000000000000D+00 0.167819780467D-06 0.000000000000D+00  6 21 2 25 24 1 21 2 0.23774865D+00 0.70965410D-02 0.59098583D+05 0.59098583D+05 0.59098583D+05 0.11851573D+01  1  2  2  1  6  1       21 0.186829723091D-01 0.100000000000D+01
-.109231430662D-04 0.772582503131D-05 -.295542663399D-06 0.167819780467D-06 0.000000000000D+00  6 21 2 25 24 1 21 4 0.23774865D+00 0.70965410D-02 0.59098583D+05 0.59098583D+05 0.59098583D+05 0.11851573D+01  1  2  3  1  6  1       21 -.195794162504D-02 0.100000000000D+01
0.162268098344D-04 0.000000000000D+00 0.000000000000D+00 0.167819780467D-06 0.000000000000D+00  6 21 2 25 24 1 21 4 0.23774865D+00 0.70965410D-02 0.59098583D+05 0.59098583D+05 0.59098583D+05 0.11851573D+01  1  2 15  1  6  1       21 0.290860846773D-02 0.100000000000D+01
0.501460289821D-06 0.000000000000D+00 0.000000000000D+00 0.167690784227D-06 0.000000000000D+00  6 21 2 25 24 1 21 4 0.24008626D+00 0.70965410D-02 0.59740090D+05 0.59740090D+05 0.59740090D+05 0.11847017D+01  1  2 12  1  6  1       21 0.868155500682D-04 0.100000000000D+01
0.320591628335D-06 0.000000000000D+00 0.000000000000D+00 0.167690784227D-06 0.000000000000D+00  6 21 2 25 24 1 21 4 0.24138651D+00 0.70965410D-02 0.59740090D+05 0.59740090D+05 0.59740090D+05 0.11847017D+01  1  2 12  1  6  1       21 0.545116989260D-04 0.100000000000D+01
-.186644845950D-02 0.000000000000D+00 0.000000000000D+00 0.167819780467D-06 0.000000000000D+00  6 21 2 25 24 1 21 4 0.23774865D+00 0.70965410D-02 0.59098583D+05 0.59098583D+05 0.59098583D+05 0.11851573D+01  1  2  4  1  6  1       21 -.334555457866D+00 0.100000000000D+01
-.370834301884D-01 0.000000000000D+00 -.363557272892D-02 0.167819780467D-06 0.000000000000D+00  6 21 2 25 24 1 21 4 0.24009476D+00 0.70965410D-02 0.59098583D+05 0.59098583D+05 0.59098583D+05 0.11851573D+01  1  2  5  1  6  1       21 -.643405201433D+01 0.100000000000D+01
0.371120911538D-01 0.000000000000D+00 0.363487170277D-02 0.167819780467D-06 0.000000000000D+00  6 21 2 25 24 1 21 4 0.23774865D+00 0.70965410D-02 0.59098583D+05 0.59098583D+05 0.59098583D+05 0.11851573D+01  1  2  6  1  6  1       21 0.665223440013D+01 0.100000000000D+01
0.185510376310D-02 0.000000000000D+00 0.000000000000D+00 0.167819780467D-06 0.488264792350D-06  6 21 2 25 24 1 21 4 0.23971991D+00 0.71185370D-02 0.59740090D+05 0.59740090D+05 0.59740090D+05 0.11847017D+01  1  2 11  1  6  1       21 0.321515935135D+00 0.100000000000D+01
0.694407356961D-07 0.000000000000D+00 0.000000000000D+00 0.167690784227D-06 0.000000000000D+00  6 -1 2 25 24 1 -1 4 0.24008626D+00 0.70965410D-02 0.59740090D+05 0.59740090D+05 0.59740090D+05 0.11847017D+01  1  2 12  4  6  1       21 0.142276760649D-05 0.100000000000D+01
0.694530821904D-07 0.000000000000D+00 0.000000000000D+00 0.167690784227D-06 0.000000000000D+00  6 -1 2 25 24 1 -1 4 0.24138651D+00 0.70965410D-02 0.59740090D+05 0.59740090D+05 0.59740090D+05 0.11847017D+01  1  2 12  4  6  1       21 0.139630694399D-05 0.100000000000D+01
-.741689908541D-04 0.000000000000D+00 -.805029987213D-05 0.167819780467D-06 0.000000000000D+00  6 -1 2 25 24 1 -1 4 0.24009476D+00 0.70965410D-02 0.59098583D+05 0.59098583D+05 0.59098583D+05 0.11851573D+01  1  2  5  4  6  1       21 -.152209056101D-02 0.100000000000D+01
0.187528182821D-04 0.000000000000D+00 0.000000000000D+00 0.167819780467D-06 0.475094482531D-08  6 -1 2 25 24 1 -1 4 0.23971991D+00 0.71185370D-02 0.59740090D+05 0.59740090D+05 0.59740090D+05 0.11847017D+01  1  2 11  4  6  1       21 0.384745376165D-03 0.100000000000D+01
0.694407356961D-07 0.000000000000D+00 0.000000000000D+00 0.167690784227D-06 0.000000000000D+00  6 1 2 25 24 1 1 4 0.24008626D+00 0.70965410D-02 0.59740090D+05 0.59740090D+05 0.59740090D+05 0.11847017D+01  1  2 12  5  6  1       21 0.120404496724D-04 0.100000000000D+01
0.694530821904D-07 0.000000000000D+00 0.000000000000D+00 0.167690784227D-06 0.000000000000D+00  6 1 2 25 24 1 1 4 0.24138651D+00 0.70965410D-02 0.59740090D+05 0.59740090D+05 0.59740090D+05 0.11847017D+01  1  2 12  5  6  1       21 0.118895058272D-04 0.100000000000D+01
-.741689908541D-04 0.000000000000D+00 -.805029987213D-05 0.167819780467D-06 0.000000000000D+00  6 1 2 25 24 1 1 4 0.24009476D+00 0.70965410D-02 0.59098583D+05 0.59098583D+05 0.59098583D+05 0.11851573D+01  1  2  5  5  6  1       21 -.128810985044D-01 0.100000000000D+01
0.170648977917D-04 0.000000000000D+00 0.000000000000D+00 0.167819780467D-06 0.364433746265D-09  6 1 2 25 24 1 1 4 0.23971991D+00 0.71185370D-02 0.59740090D+05 0.59740090D+05 0.59740090D+05 0.11847017D+01  1  2 11  5  6  1       21 0.295777319971D-02 0.100000000000D+01
0.694407356961D-07 0.000000000000D+00 0.000000000000D+00 0.167690784227D-06 0.000000000000D+00  6 -2 2 25 24 1 -2 4 0.24008626D+00 0.70965410D-02 0.59740090D+05 0.59740090D+05 0.59740090D+05 0.11847017D+01  1  2 12  6  6  1       21 0.111526268079D-05 0.100000000000D+01
0.694530821904D-07 0.000000000000D+00 0.000000000000D+00 0.167690784227D-06 0.000000000000D+00  6 -2 2 25 24 1 -2 4 0.24138651D+00 0.70965410D-02 0.59740090D+05 0.59740090D+05 0.59740090D+05 0.11847017D+01  1  2 12  6  6  1       21 0.109587576022D-05 0.100000000000D+01
-.741689908541D-04 0.000000000000D+00 -.805029987213D-05 0.167819780467D-06 0.000000000000D+00  6 -2 2 25 24 1 -2 4 0.24009476D+00 0.70965410D-02 0.59098583D+05 0.59098583D+05 0.59098583D+05 0.11851573D+01  1  2  5  6  6  1       21 -.119304968492D-02 0.100000000000D+01
0.167074428102D-04 0.000000000000D+00 0.000000000000D+00 0.167819780467D-06 0.712406884848D-09  6 -2 2 25 24 1 -2 4 0.23971991D+00 0.71185370D-02 0.59740090D+05 0.59740090D+05 0.59740090D+05 0.11847017D+01  1  2 11  6  6  1       21 0.268601777243D-03 0.100000000000D+01
0.694407356961D-07 0.000000000000D+00 0.000000000000D+00 0.167690784227D-06 0.000000000000D+00  6 2 2 25 24 1 2 4 0.24008626D+00 0.70965410D-02 0.59740090D+05 0.59740090D+05 0.59740090D+05 0.11847017D+01  1  2 12  7  6  1       21 0.265411438314D-04 0.100000000000D+01
0.694530821904D-07 0.000000000000D+00 0.000000000000D+00 0.167690784227D-06 0.000000000000D+00  6 2 2 25 24 1 2 4 0.24138651D+00 0.70965410D-02 0.59740090D+05 0.59740090D+05 0.59740090D+05 0.11847017D+01  1  2 12  7  6  1       21 0.262732856574D-04 0.100000000000D+01
-.741689908541D-04 0.000000000000D+00 -.805029987213D-05 0.167819780467D-06 0.000000000000D+00  6 2 2 25 24 1 2 4 0.24009476D+00 0.70965410D-02 0.59098583D+05 0.59098583D+05 0.59098583D+05 0.11851573D+01  1  2  5  7  6  1       21 -.283927971181D-01 0.100000000000D+01
0.149339295809D-04 0.000000000000D+00 0.000000000000D+00 0.167819780467D-06 0.782893795575D-09  6 2 2 25 24 1 2 4 0.23971991D+00 0.71185370D-02 0.59740090D+05 0.59740090D+05 0.59740090D+05 0.11847017D+01  1  2 11  7  6  1       21 0.570176869892D-02 0.100000000000D+01
0.694407356961D-07 0.000000000000D+00 0.000000000000D+00 0.167690784227D-06 0.000000000000D+00  6 -3 2 25 24 1 -3 4 0.24008626D+00 0.70965410D-02 0.59740090D+05 0.59740090D+05 0.59740090D+05 0.11847017D+01  1  2 12  8  6  1       21 0.759545192657D-06 0.100000000000D+01
0.694407356961D-07 0.000000000000D+00 0.000000000000D+00 0.167690784227D-06 0.000000000000D+00  6 -4 2 25 24 1 -4 4 0.24008626D+00 0.70965410D-02 0.59740090D+05 0.59740090D+05 0.59740090D+05 0.11847017D+01  1  2 12  8  6  1       21 0.571891389979D-06 0.100000000000D+01
0.694530821904D-07 0.000000000000D+00 0.000000000000D+00 0.167690784227D-06 0.000000000000D+00  6 -3 2 25 24 1 -3 4 0.24138651D+00 0.70965410D-02 0.59740090D+05 0.59740090D+05 0.59740090D+05 0.11847017D+01  1  2 12  8  6  1       21 0.747022571321D-06 0.100000000000D+01
0.694530821904D-07 0.000000000000D+00 0.000000000000D+00 0.167690784227D-06 0.000000000000D+00  6 -4 2 25 24 1 -4 4 0.24138651D+00 0.70965410D-02 0.59740090D+05 0.59740090D+05 0.59740090D+05 0.11847017D+01  1  2 12  8  6  1       21 0.561897604028D-06 0.100000000000D+01
-.741689908541D-04 0.000000000000D+00 -.805029987213D-05 0.167819780467D-06 0.000000000000D+00  6 -3 2 25 24 1 -3 4 0.24009476D+00 0.70965410D-02 0.59098583D+05 0.59098583D+05 0.59098583D+05 0.11851573D+01  1  2  5  8  6  1       21 -.812427075159D-03 0.100000000000D+01
-.741689908541D-04 0.000000000000D+00 -.805029987213D-05 0.167819780467D-06 0.000000000000D+00  6 -4 2 25 24 1 -4 4 0.24009476D+00 0.70965410D-02 0.59098583D+05 0.59098583D+05 0.59098583D+05 0.11851573D+01  1  2  5  8  6  1       21 -.611674047974D-03 0.100000000000D+01
0.167033829997D-04 0.000000000000D+00 0.000000000000D+00 0.167819780467D-06 0.712233774157D-09  6 -3 2 25 24 1 -3 4 0.23971991D+00 0.71185370D-02 0.59740090D+05 0.59740090D+05 0.59740090D+05 0.11847017D+01  1  2 11  8  6  1       21 0.182839047584D-03 0.100000000000D+01
0.167033829997D-04 0.000000000000D+00 0.000000000000D+00 0.167819780467D-06 0.712233774157D-09  6 -4 2 25 24 1 -4 4 0.23971991D+00 0.71185370D-02 0.59740090D+05 0.59740090D+05 0.59740090D+05 0.11847017D+01  1  2 11  8  6  1       21 0.137705397943D-03 0.100000000000D+01
0.694407356961D-07 0.000000000000D+00 0.000000000000D+00 0.167690784227D-06 0.000000000000D+00  6 3 2 25 24 1 3 4 0.24008626D+00 0.70965410D-02 0.59740090D+05 0.59740090D+05 0.59740090D+05 0.11847017D+01  1  2 12  9  6  1       21 0.766604833624D-06 0.100000000000D+01
0.694407356961D-07 0.000000000000D+00 0.000000000000D+00 0.167690784227D-06 0.000000000000D+00  6 4 2 25 24 1 4 4 0.24008626D+00 0.70965410D-02 0.59740090D+05 0.59740090D+05 0.59740090D+05 0.11847017D+01  1  2 12  9  6  1       21 0.571891389979D-06 0.100000000000D+01
0.694530821904D-07 0.000000000000D+00 0.000000000000D+00 0.167690784227D-06 0.000000000000D+00  6 3 2 25 24 1 3 4 0.24138651D+00 0.70965410D-02 0.59740090D+05 0.59740090D+05 0.59740090D+05 0.11847017D+01  1  2 12  9  6  1       21 0.754050304086D-06 0.100000000000D+01
0.694530821904D-07 0.000000000000D+00 0.000000000000D+00 0.167690784227D-06 0.000000000000D+00  6 4 2 25 24 1 4 4 0.24138651D+00 0.70965410D-02 0.59740090D+05 0.59740090D+05 0.59740090D+05 0.11847017D+01  1  2 12  9  6  1       21 0.561897604028D-06 0.100000000000D+01
-.741689908541D-04 0.000000000000D+00 -.805029987213D-05 0.167819780467D-06 0.000000000000D+00  6 3 2 25 24 1 3 4 0.24009476D+00 0.70965410D-02 0.59098583D+05 0.59098583D+05 0.59098583D+05 0.11851573D+01  1  2  5  9  6  1       21 -.819976860251D-03 0.100000000000D+01
-.741689908541D-04 0.000000000000D+00 -.805029987213D-05 0.167819780467D-06 0.000000000000D+00  6 4 2 25 24 1 4 4 0.24009476D+00 0.70965410D-02 0.59098583D+05 0.59098583D+05 0.59098583D+05 0.11851573D+01  1  2  5  9  6  1       21 -.611674047974D-03 0.100000000000D+01
0.167033829997D-04 0.000000000000D+00 0.000000000000D+00 0.167819780467D-06 0.712233774157D-09  6 3 2 25 24 1 3 4 0.23971991D+00 0.71185370D-02 0.59740090D+05 0.59740090D+05 0.59740090D+05 0.11847017D+01  1  2 11  9  6  1       21 0.184532679991D-03 0.100000000000D+01
0.167033829997D-04 0.000000000000D+00 0.000000000000D+00 0.167819780467D-06 0.712233774157D-09  6 4 2 25 24 1 4 4 0.23971991D+00 0.71185370D-02 0.59740090D+05 0.59740090D+05 0.59740090D+05 0.11847017D+01  1  2 11  9  6  1       21 0.137705397943D-03 0.100000000000D+01
  </mgrwgt>
  </event>
  <event>
  5     66 0.46027262E-03 0.20790702E+02 0.75467711E-02 0.11523777E+00
       21 -1    0    0  501  502 0.00000000E+00 0.00000000E+00 0.11275831E+03 0.11276080E+03 0.75000000E+00 0.0000E+00 0.9000E+01
        2 -1    0    0  502    0 0.00000000E+00 0.00000000E+00 -.17929416E+03 0.17929445E+03 0.32000000E+00 0.0000E+00 0.9000E+01
       25  1    1    2    0    0 0.30895566E+02 0.58857741E+02 -.39927526E+02 0.14709853E+03 0.12500000E+03 0.0000E+00 0.9000E+01
       24  1    1    2    0    0 -.46044603E+02 -.44619346E+02 -.49405743E+02 0.11410142E+03 0.80419002E+02 0.0000E+00 0.9000E+01
        1  1    1    2  501    0 0.15149037E+02 -.14238395E+02 0.22797415E+02 0.30855303E+02 0.32000000E+00 0.0000E+00 0.9000E+01
#aMCatNLO 1  0  0  1  5 0.11384071D+03 0.00000000D+00  -5  6  0 0.00000000D+00 0.00000000D+00 0.00000000D+00 0.00000000D+00 0.00000000D+00
  <mgrwgt>
 0.3994790492D+00    3    2    0
 0.142187597890273D+03 0.000000000000000D+00 0.000000000000000D+00 0.142187597890273D+03
 0.142187597890273D+03 0.000000000000000D+00 0.000000000000000D+00 -.142187597890273D+03
 0.141729335145991D+03 0.308952843669225D+02 0.588580056183167D+02 -.658946275851491D+01
 0.105623476823060D+03 -.460448135422482D+02 -.446191481046963D+02 -.240439112893835D+02
 0.370223838114955D+02 0.151495291753257D+02 -.142388575136204D+02 0.306333740478984D+02
 0.000000000000000D+00 0.000000000000000D+00 -.000000000000000D+00 -.000000000000000D+00
 0.185185848138853D+03 0.000000000000000D+00 0.000000000000000D+00 0.185185848138853D+03
 0.254315879991734D+03 0.000000000000000D+00 0.000000000000000D+00 -.254315879991734D+03
 0.156233272330370D+03 -.159110076019803D+02 0.921262948386590D+02 -.658946275851491D+01
 0.118448631587946D+03 -.812438092055052D+02 -.196009225898702D+02 -.240439112893835D+02
 0.316332280451865D+02 0.436456981050849D+01 -.657328238930265D+01 0.306333740478984D+02
 0.133186596167085D+03 0.927902469969770D+02 -.659520898594861D+02 -.691300318528812D+02
0.279500951433D-04 0.000000000000D+00 0.000000000000D+00 0.202012458602D-05 0.000000000000D+00  6 21 2 25 24 1 21 2 0.17347646D-01 0.27583931D-01 0.17585040D+05 0.17585040D+05 0.17585040D+05 0.12400265D+01  1  2  2  1  6  1       21 0.303841249720D+00 0.100000000000D+01
0.297451161575D-05 0.147496704314D-05 -.564231893150D-07 0.202012458602D-05 0.000000000000D+00  6 21 2 25 24 1 21 4 0.17347646D-01 0.27583931D-01 0.17585040D+05 0.17585040D+05 0.17585040D+05 0.12400265D+01  1  2  3  1  6  1       21 0.497211390240D-01 0.100000000000D+01
0.274691293482D-05 0.000000000000D+00 0.000000000000D+00 0.202012458602D-05 0.000000000000D+00  6 21 2 25 24 1 21 4 0.17347646D-01 0.27583931D-01 0.17585040D+05 0.17585040D+05 0.17585040D+05 0.12400265D+01  1  2 15  1  6  1       21 0.459166604680D-01 0.100000000000D+01
  </mgrwgt>
  </event>
  <event>
  5     66 0.46027262E-03 0.21612938E+02 0.75467711E-02 0.11979563E+00
       21 -1    0    0  501  502 0.00000000E+00 0.00000000E+00 0.40757127E+02 0.40764027E+02 0.75000000E+00 0.0000E+00 0.9000E+01
        2 -1    0    0  502    0 0.00000000E+00 0.00000000E+00 -.82602938E+03 0.82602944E+03 0.32000000E+00 0.0000E+00 0.9000E+01
       25  1    1    2    0    0 0.81557541E+02 0.48916191E+02 -.23377592E+03 0.28163914E+03 0.12500000E+03 0.0000E+00 0.9000E+01
       24  1    1    2    0    0 -.67266013E+02 -.32703321E+02 -.55270010E+03 0.56350585E+03 0.80419002E+02 0.0000E+00 0.9000E+01
        1  1    1    2  501    0 -.14291529E+02 -.16212869E+02 0.12037729E+01 0.21648473E+02 0.32000000E+00 0.0000E+00 0.9000E+01
#aMCatNLO 1  0  0  1  2 0.16956923D+02 0.00000000D+00  -5  6  0 0.00000000D+00 0.00000000D+00 0.00000000D+00 0.00000000D+00 0.00000000D+00
  <mgrwgt>
 0.5383428246D+00   23    2    0
 0.183492784085256D+03 0.000000000000000D+00 0.000000000000000D+00 0.183492784085256D+03
 0.183492784085256D+03 0.000000000000000D+00 0.000000000000000D+00 -.183492784085256D+03
 0.164979831718849D+03 0.815576551542416D+02 0.489163202781304D+02 0.504865068128979D+02
 0.148297920373489D+03 -.672659100825598D+02 -.327032051758392D+02 -.996536750186516D+02
 0.537078160781739D+02 -.142917450716818D+02 -.162131151022912D+02 0.491671682057537D+02
 0.000000000000000D+00 -.000000000000000D+00 0.000000000000000D+00 0.000000000000000D+00
 0.209267105238564D+03 0.000000000000000D+00 0.000000000000000D+00 0.209267105238564D+03
 0.186498893408181D+03 0.000000000000000D+00 0.000000000000000D+00 -.186498893408181D+03
 0.168791099524199D+03 0.892524283896701D+02 0.484824910144468D+02 0.504865068128979D+02
 0.145438044306481D+03 -.604941051477067D+02 -.330849977327882D+02 -.996536750186516D+02
 0.531479709980893D+02 -.118282859340544D+02 -.163520042717434D+02 0.491671682057537D+02
 0.283888838179763D+02 -.169300373079089D+02 0.954510990084831D+00 0.227682118303826D+02
0.366593318806D-05 0.000000000000D+00 0.000000000000D+00 0.141441485258D-05 0.000000000000D+00  6 21 2 25 24 1 21 2 0.62708628D-02 0.12708198D+00 0.20808432D+05 0.20808432D+05 0.20808432D+05 0.12319359D+01  1  2  2  1  6  1       21 0.438090919281D-01 0.100000000000D+01
0.450183213561D-06 0.193456609254D-06 -.740046290452D-08 0.141441485258D-05 0.000000000000D+00  6 21 2 25 24 1 21 4 0.62708628D-02 0.12708198D+00 0.20808432D+05 0.20808432D+05 0.20808432D+05 0.12319359D+01  1  2  3  1  6  1       21 0.816479429972D-02 0.100000000000D+01
0.359539591631D-06 0.000000000000D+00 0.000000000000D+00 0.141441485258D-05 0.000000000000D+00  6 21 2 25 24 1 21 4 0.62708628D-02 0.12708198D+00 0.20808432D+05 0.20808432D+05 0.20808432D+05 0.12319359D+01  1  2 15  1  6  1       21 0.652082689858D-02 0.100000000000D+01
0.210474096466D-04 0.000000000000D+00 0.000000000000D+00 0.140297971652D-05 0.000000000000D+00  6 21 2 25 24 1 21 4 0.71984310D-02 0.12708198D+00 0.23124263D+05 0.23124263D+05 0.23124263D+05 0.12269459D+01  1  2 12  1  6  1       21 0.296627114861D+00 0.100000000000D+01
-.203840664395D-05 0.000000000000D+00 0.000000000000D+00 0.141441485258D-05 0.000000000000D+00  6 21 2 25 24 1 21 4 0.62708628D-02 0.12708198D+00 0.20808432D+05 0.20808432D+05 0.20808432D+05 0.12319359D+01  1  2  4  1  6  1       21 -.369697724076D-01 0.100000000000D+01
-.639968533736D-04 0.000000000000D+00 -.885227849840D-05 0.141441485258D-05 0.000000000000D+00  6 21 2 25 24 1 21 4 0.72639436D-02 0.12708198D+00 0.20808432D+05 0.20808432D+05 0.20808432D+05 0.12319359D+01  1  2  5  1  6  1       21 -.902443226621D+00 0.100000000000D+01
0.624292858104D-04 0.000000000000D+00 0.848106328846D-05 0.141441485258D-05 0.000000000000D+00  6 21 2 25 24 1 21 4 0.62708628D-02 0.12708198D+00 0.20808432D+05 0.20808432D+05 0.20808432D+05 0.12319359D+01  1  2  6  1  6  1       21 0.113225518315D+01 0.100000000000D+01
0.777441036720D-06 0.000000000000D+00 0.000000000000D+00 0.140297971652D-05 0.000000000000D+00  6 -1 2 25 24 1 -1 4 0.71984310D-02 0.12708198D+00 0.23124263D+05 0.23124263D+05 0.23124263D+05 0.12269459D+01  1  2 12  4  6  1       21 0.678096696616D-03 0.100000000000D+01
-.234369945112D-05 0.000000000000D+00 -.352194469064D-06 0.141441485258D-05 0.000000000000D+00  6 -1 2 25 24 1 -1 4 0.72639436D-02 0.12708198D+00 0.20808432D+05 0.20808432D+05 0.20808432D+05 0.12319359D+01  1  2  5  4  6  1       21 -.204605287194D-02 0.100000000000D+01
0.777441036720D-06 0.000000000000D+00 0.000000000000D+00 0.140297971652D-05 0.000000000000D+00  6 1 2 25 24 1 1 4 0.71984310D-02 0.12708198D+00 0.23124263D+05 0.23124263D+05 0.23124263D+05 0.12269459D+01  1  2 12  5  6  1       21 0.801797340483D-03 0.100000000000D+01
-.234369945112D-05 0.000000000000D+00 -.352194469064D-06 0.141441485258D-05 0.000000000000D+00  6 1 2 25 24 1 1 4 0.72639436D-02 0.12708198D+00 0.20808432D+05 0.20808432D+05 0.20808432D+05 0.12319359D+01  1  2  5  5  6  1       21 -.242309128135D-02 0.100000000000D+01
0.777441036720D-06 0.000000000000D+00 0.000000000000D+00 0.140297971652D-05 0.000000000000D+00  6 -2 2 25 24 1 -2 4 0.71984310D-02 0.12708198D+00 0.23124263D+05 0.23124263D+05 0.23124263D+05 0.12269459D+01  1  2 12  6  6  1       21 0.656494497209D-03 0.100000000000D+01
-.234369945112D-05 0.000000000000D+00 -.352194469064D-06 0.141441485258D-05 0.000000000000D+00  6 -2 2 25 24 1 -2 4 0.72639436D-02 0.12708198D+00 0.20808432D+05 0.20808432D+05 0.20808432D+05 0.12319359D+01  1  2  5  6  6  1       21 -.198019825928D-02 0.100000000000D+01
0.777441036720D-06 0.000000000000D+00 0.000000000000D+00 0.140297971652D-05 0.000000000000D+00  6 2 2 25 24 1 2 4 0.71984310D-02 0.12708198D+00 0.23124263D+05 0.23124263D+05 0.23124263D+05 0.12269459D+01  1  2 12  7  6  1       21 0.884923507868D-03 0.100000000000D+01
-.234369945112D-05 0.000000000000D+00 -.352194469064D-06 0.141441485258D-05 0.000000000000D+00  6 2 2 25 24 1 2 4 0.72639436D-02 0.12708198D+00 0.20808432D+05 0.20808432D+05 0.20808432D+05 0.12319359D+01  1  2  5  7  6  1       21 -.267633163229D-02 0.100000000000D+01
0.777441036720D-06 0.000000000000D+00 0.000000000000D+00 0.140297971652D-05 0.000000000000D+00  6 -3 2 25 24 1 -3 4 0.71984310D-02 0.12708198D+00 0.23124263D+05 0.23124263D+05 0.23124263D+05 0.12269459D+01  1  2 12  8  6  1       21 0.465563379532D-03 0.100000000000D+01
0.777441036720D-06 0.000000000000D+00 0.000000000000D+00 0.140297971652D-05 0.000000000000D+00  6 -4 2 25 24 1 -4 4 0.71984310D-02 0.12708198D+00 0.23124263D+05 0.23124263D+05 0.23124263D+05 0.12269459D+01  1  2 12  8  6  1       21 0.411401983232D-03 0.100000000000D+01
-.234369945112D-05 0.000000000000D+00 -.352194469064D-06 0.141441485258D-05 0.000000000000D+00  6 -3 2 25 24 1 -3 4 0.72639436D-02 0.12708198D+00 0.20808432D+05 0.20808432D+05 0.20808432D+05 0.12319359D+01  1  2  5  8  6  1       21 -.139997096124D-02 0.100000000000D+01
-.234369945112D-05 0.000000000000D+00 -.352194469064D-06 0.141441485258D-05 0.000000000000D+00  6 -4 2 25 24 1 -4 4 0.72639436D-02 0.12708198D+00 0.20808432D+05 0.20808432D+05 0.20808432D+05 0.12319359D+01  1  2  5  8  6  1       21 -.123546159107D-02 0.100000000000D+01
0.777441036720D-06 0.000000000000D+00 0.000000000000D+00 0.140297971652D-05 0.000000000000D+00  6 3 2 25 24 1 3 4 0.71984310D-02 0.12708198D+00 0.23124263D+05 0.23124263D+05 0.23124263D+05 0.12269459D+01  1  2 12  9  6  1       21 0.465510116411D-03 0.100000000000D+01
0.777441036720D-06 0.000000000000D+00 0.000000000000D+00 0.140297971652D-05 0.000000000000D+00  6 4 2 25 24 1 4 4 0.71984310D-02 0.12708198D+00 0.23124263D+05 0.23124263D+05 0.23124263D+05 0.12269459D+01  1  2 12  9  6  1       21 0.411401983232D-03 0.100000000000D+01
-.234369945112D-05 0.000000000000D+00 -.352194469064D-06 0.141441485258D-05 0.000000000000D+00  6 3 2 25 24 1 3 4 0.72639436D-02 0.12708198D+00 0.20808432D+05 0.20808432D+05 0.20808432D+05 0.12319359D+01  1  2  5  9  6  1       21 -.139980878380D-02 0.100000000000D+01
-.234369945112D-05 0.000000000000D+00 -.352194469064D-06 0.141441485258D-05 0.000000000000D+00  6 4 2 25 24 1 4 4 0.72639436D-02 0.12708198D+00 0.20808432D+05 0.20808432D+05 0.20808432D+05 0.12319359D+01  1  2  5  9  6  1       21 -.123546159107D-02 0.100000000000D+01
  </mgrwgt>
  </event>
  <event>
  6     66 0.46027262E-03 0.18075440E+02 0.75467711E-02 0.12268184E+00
       21 -1    0    0  501  502 0.00000000E+00 0.00000000E+00 0.25218794E+02 0.25229944E+02 0.75000000E+00 0.0000E+00 0.9000E+01
        2 -1    0    0  502    0 -.00000000E+00 -.00000000E+00 -.78598118E+03 0.78598125E+03 0.32000000E+00 0.0000E+00 0.9000E+01
       25  1    1    2    0    0 -.11433052E+02 0.40241856E+02 -.52515881E+03 0.54144889E+03 0.12500000E+03 0.0000E+00 0.9000E+01
       24  1    1    2    0    0 0.56524238E+01 -.52467962E+02 -.19613856E+03 0.21845454E+03 0.80419002E+02 0.0000E+00 0.9000E+01
        1  1    1    2  503    0 0.12515523E+02 0.19272065E+02 -.28673194E+02 0.36746500E+02 0.32000000E+00 0.0000E+00 0.9000E+01
       21  1    1    2  501  503 -.67348946E+01 -.70459587E+01 -.10791827E+02 0.14561262E+02 0.75000000E+00 0.0000E+00 0.9000E+01
#aMCatNLO 2  0  0  5  2 0.10095775D+03 0.00000000D+00  -5  6  0 0.00000000D+00 0.00000000D+00 0.00000000D+00 0.00000000D+00 0.00000000D+00
  <mgrwgt>
 0.3510970663D+00    1    2    0
 0.140804993391775D+03 0.000000000000000D+00 0.000000000000000D+00 0.140804993391775D+03
 0.140804993391775D+03 -.000000000000000D+00 -.000000000000000D+00 -.140804993391775D+03
 0.142510112037749D+03 -.127802135153996D+02 0.373925916092305D+02 -.558801598803886D+02
 0.994994509432686D+02 0.470722491486778D+01 -.544670700613687D+02 0.210738011799526D+02
 0.396004238025336D+02 0.807298860053178D+01 0.170744784521382D+02 0.348063587004360D+02
 0.000000000000000D+00 -.000000000000000D+00 0.000000000000000D+00 0.000000000000000D+00
 0.140804993391775D+03 0.000000000000000D+00 0.000000000000000D+00 0.140804993391775D+03
 0.140804993391775D+03 -.000000000000000D+00 -.000000000000000D+00 -.140804993391775D+03
 0.140984627215334D+03 -.114131365804220D+02 0.402839775412201D+02 -.499860638368505D+02
 0.994214089084353D+02 0.566646712199179D+01 -.524382600126537D+02 0.252095345488263D+02
 0.281302191304028D+02 0.125793654487110D+02 0.192605691287501D+02 0.161894802284969D+02
 0.130737315293792D+02 -.683269599028081D+01 -.710628665731650D+01 0.858704905952736D+01
0.788444422606D-05 0.000000000000D+00 0.000000000000D+00 0.228909559400D-05 0.144736562929D-06  6 21 2 25 24 1 21 4 0.38806771D-02 0.12092104D+00 0.17012102D+05 0.17012102D+05 0.17012102D+05 0.12416382D+01  1  2  1  3  6  5        1 0.351097066336D+00 0.100000000000D+01
  </mgrwgt>
  </event>
  <event>
  5     66 0.46027262E-03 0.48273210E+02 0.75467711E-02 0.11855794E+00
       21 -1    0    0  501  502 0.00000000E+00 0.00000000E+00 0.66046789E+02 0.66051048E+02 0.75000000E+00 0.0000E+00 0.9000E+01
        2 -1    0    0  502    0 0.00000000E+00 0.00000000E+00 -.35902313E+03 0.35902327E+03 0.32000000E+00 0.0000E+00 0.9000E+01
       25  1    1    2    0    0 0.25193207E+02 0.74045393E+02 -.14525414E+03 0.20698112E+03 0.12500000E+03 0.0000E+00 0.9000E+01
       24  1    1    2    0    0 -.63742928E+02 -.44991380E+02 -.99248733E+02 0.14968270E+03 0.80419002E+02 0.0000E+00 0.9000E+01
        1  1    1    2  501    0 0.38549721E+02 -.29054013E+02 -.48473461E+02 0.68410492E+02 0.32000000E+00 0.0000E+00 0.9000E+01
#aMCatNLO 1  0  0  1  5 0.17324586D+02 0.00000000D+00  -5  6  0 0.00000000D+00 0.00000000D+00 0.00000000D+00 0.00000000D+00 0.00000000D+00
  <mgrwgt>
 0.6645975668D-01    4    2    0
 0.153991104085680D+03 0.000000000000000D+00 0.000000000000000D+00 0.153991104085680D+03
 0.153991104085680D+03 0.000000000000000D+00 0.000000000000000D+00 -.153991104085680D+03
 0.147496692395204D+03 0.251928017409766D+02 0.740456981939946D+02 -.358212045150427D+01
 0.112177806522865D+03 -.637432355863128D+02 -.449911480115171D+02 0.540747995876186D+01
 0.483077092532910D+02 0.385504338453363D+02 -.290545501824776D+02 -.182535950725760D+01
 0.000000000000000D+00 -.000000000000000D+00 0.000000000000000D+00 -.000000000000000D+00
 0.156465218614380D+03 0.000000000000000D+00 0.000000000000000D+00 0.156465218614380D+03
 0.187872541951248D+03 0.000000000000000D+00 0.000000000000000D+00 -.187872541951248D+03
 0.146432777944443D+03 0.318810869816887D+02 0.691977106735725D+02 -.358212045150427D+01
 0.110937249191083D+03 -.586663131110404D+02 -.486711430949281D+02 0.540747995876186D+01
 0.510990666886805D+02 0.408124080243500D+02 -.306941367426657D+02 -.182535950725760D+01
 0.358686667414213D+02 -.140271818949982D+02 0.101675691640213D+02 -.314073233368687D+02
0.533455579568D-05 0.000000000000D+00 0.000000000000D+00 0.308167900299D-06 0.000000000000D+00  6 21 2 25 24 1 21 2 0.10161383D-01 0.55234666D-01 0.23681177D+05 0.23681177D+05 0.23681177D+05 0.12258291D+01  1  2  2  1  6  1       21 0.704820123868D-01 0.100000000000D+01
-.183770607330D-06 0.281512243450D-06 -.107689311978D-07 0.308167900299D-06 0.000000000000D+00  6 21 2 25 24 1 21 4 0.10161383D-01 0.55234666D-01 0.23681177D+05 0.23681177D+05 0.23681177D+05 0.12258291D+01  1  2  3  1  6  1       21 -.364851360163D-02 0.100000000000D+01
0.557292816494D-06 0.000000000000D+00 0.000000000000D+00 0.308167900299D-06 0.000000000000D+00  6 21 2 25 24 1 21 4 0.10161383D-01 0.55234666D-01 0.23681177D+05 0.23681177D+05 0.23681177D+05 0.12258291D+01  1  2 15  1  6  1       21 0.110642852555D-01 0.100000000000D+01
-.576117691630D-06 0.000000000000D+00 0.000000000000D+00 0.308167900299D-06 0.000000000000D+00  6 21 2 25 24 1 21 4 0.10161383D-01 0.55234666D-01 0.23681177D+05 0.23681177D+05 0.23681177D+05 0.12258291D+01  1  2  4  1  6  1       21 -.114380273570D-01 0.100000000000D+01
  </mgrwgt>
  </event>
  <event>
  5     66 0.46027262E-03 0.73377833E+02 0.75467711E-02 0.11175378E+00
       21 -1    0    0  501  502 0.00000000E+00 0.00000000E+00 0.80240082E+03 0.80240117E+03 0.75000000E+00 0.0000E+00 0.9000E+01
        2 -1    0    0  502    0 0.00000000E+00 0.00000000E+00 -.33552417E+03 0.33552433E+03 0.32000000E+00 0.0000E+00 0.9000E+01
       25  1    1    2    0    0 0.15057611E+03 0.16530473E+02 -.53331869E+02 0.20350850E+03 0.12500000E+03 0.0000E+00 0.9000E+01
       24  1    1    2    0    0 -.11890902E+03 0.72918185E+02 -.17207809E+03 0.23565759E+03 0.80419002E+02 0.0000E+00 0.9000E+01
        1  1    1    2  501    0 -.31667095E+02 -.89448658E+02 0.69228660E+03 0.69875940E+03 0.32000000E+00 0.0000E+00 0.9000E+01
#aMCatNLO 1  0  0  1  2 0.35726376D+02 0.00000000D+00  -5  6  0 0.00000000D+00 0.00000000D+00 0.00000000D+00 0.00000000D+00 0.00000000D+00
  <mgrwgt>
 0.5179696124D+00   23    2    0
 0.518869113151490D+03 0.000000000000000D+00 0.000000000000000D+00 0.518869113151490D+03
 0.518869113151490D+03 0.000000000000000D+00 0.000000000000000D+00 -.518869113151490D+03
 0.247149932567539D+03 0.150576111875823D+03 0.165304779268695D+02 -.150038884959893D+03
 0.335826551494857D+03 -.118909012702551D+03 0.729181920999355D+02 -.294713149848355D+03
 0.454761742240584D+03 -.316670991732719D+02 -.894486700268050D+02 0.444752034808248D+03
 0.000000000000000D+00 0.000000000000000D+00 -.000000000000000D+00 0.000000000000000D+00
 0.539476754855209D+03 0.000000000000000D+00 0.000000000000000D+00 0.539476754855209D+03
 0.534895213605954D+03 0.000000000000000D+00 0.000000000000000D+00 -.534895213605954D+03
 0.244587254219060D+03 0.145417468074266D+03 0.232382853343564D+02 -.150038884959893D+03
 0.340511062940790D+03 -.126004235386986D+03 0.821441416152043D+02 -.294713149848355D+03
 0.453254705779245D+03 -.411927839234920D+02 -.770623799112465D+02 0.444752034808248D+03
 0.360189455220682D+02 0.217795512362114D+02 -.283200470383142D+02 0.458154124925524D+01
0.908467618009D-03 0.000000000000D+00 0.000000000000D+00 0.178569550844D-05 0.000000000000D+00  6 21 2 25 24 1 21 2 0.12344632D+00 0.51619142D-01 0.51142235D+05 0.51142235D+05 0.51142235D+05 0.11913115D+01  1  2  2  1  6  1       21 0.748374976757D-01 0.100000000000D+01
0.106812706520D-03 0.479411533111D-04 -.183393437964D-05 0.178569550844D-05 0.000000000000D+00  6 21 2 25 24 1 21 4 0.12344632D+00 0.51619142D-01 0.51142235D+05 0.51142235D+05 0.51142235D+05 0.11913115D+01  1  2  3  1  6  1       21 0.124877262492D-01 0.100000000000D+01
0.918803996310D-04 0.000000000000D+00 0.000000000000D+00 0.178569550844D-05 0.000000000000D+00  6 21 2 25 24 1 21 4 0.12344632D+00 0.51619142D-01 0.51142235D+05 0.51142235D+05 0.51142235D+05 0.11913115D+01  1  2 15  1  6  1       21 0.107419549194D-01 0.100000000000D+01
0.244222734210D-02 0.000000000000D+00 0.000000000000D+00 0.176696861645D-05 0.000000000000D+00  6 21 2 25 24 1 21 4 0.13018868D+00 0.51619142D-01 0.59251422D+05 0.59251422D+05 0.59251422D+05 0.11850483D+01  1  2 12  1  6  1       21 0.242181754303D+00 0.100000000000D+01
-.968465398307D-03 0.000000000000D+00 0.000000000000D+00 0.178569550844D-05 0.000000000000D+00  6 21 2 25 24 1 21 4 0.12344632D+00 0.51619142D-01 0.51142235D+05 0.51142235D+05 0.51142235D+05 0.11913115D+01  1  2  4  1  6  1       21 -.113225581205D+00 0.100000000000D+01
-.185687441138D-01 0.000000000000D+00 -.426356227978D-02 0.178569550844D-05 0.000000000000D+00  6 21 2 25 24 1 21 4 0.13131204D+00 0.51619142D-01 0.51142235D+05 0.51142235D+05 0.51142235D+05 0.11913115D+01  1  2  5  1  6  1       21 -.185727629762D+01 0.100000000000D+01
0.186862179622D-01 0.000000000000D+00 0.423120169969D-02 0.178569550844D-05 0.000000000000D+00  6 21 2 25 24 1 21 4 0.12344632D+00 0.51619142D-01 0.51142235D+05 0.51142235D+05 0.51142235D+05 0.11913115D+01  1  2  6  1  6  1       21 0.218464995549D+01 0.100000000000D+01
0.387185317119D-04 0.000000000000D+00 0.000000000000D+00 0.176696861645D-05 0.000000000000D+00  6 -1 2 25 24 1 -1 4 0.13018868D+00 0.51619142D-01 0.59251422D+05 0.59251422D+05 0.59251422D+05 0.11850483D+01  1  2 12  4  6  1       21 0.464049755386D-03 0.100000000000D+01
-.223504063749D-03 0.000000000000D+00 -.639578163780D-04 0.178569550844D-05 0.000000000000D+00  6 -1 2 25 24 1 -1 4 0.13131204D+00 0.51619142D-01 0.51142235D+05 0.51142235D+05 0.51142235D+05 0.11913115D+01  1  2  5  4  6  1       21 -.268979136645D-02 0.100000000000D+01
0.387185317119D-04 0.000000000000D+00 0.000000000000D+00 0.176696861645D-05 0.000000000000D+00  6 1 2 25 24 1 1 4 0.13018868D+00 0.51619142D-01 0.59251422D+05 0.59251422D+05 0.59251422D+05 0.11850483D+01  1  2 12  5  6  1       21 0.214254130412D-02 0.100000000000D+01
-.223504063749D-03 0.000000000000D+00 -.639578163780D-04 0.178569550844D-05 0.000000000000D+00  6 1 2 25 24 1 1 4 0.13131204D+00 0.51619142D-01 0.51142235D+05 0.51142235D+05 0.51142235D+05 0.11913115D+01  1  2  5  5  6  1       21 -.125086301459D-01 0.100000000000D+01
0.387185317119D-04 0.000000000000D+00 0.000000000000D+00 0.176696861645D-05 0.000000000000D+00  6 -2 2 25 24 1 -2 4 0.13018868D+00 0.51619142D-01 0.59251422D+05 0.59251422D+05 0.59251422D+05 0.11850483D+01  1  2 12  6  6  1       21 0.340790470660D-03 0.100000000000D+01
-.223504063749D-03 0.000000000000D+00 -.639578163780D-04 0.178569550844D-05 0.000000000000D+00  6 -2 2 25 24 1 -2 4 0.13131204D+00 0.51619142D-01 0.51142235D+05 0.51142235D+05 0.51142235D+05 0.11913115D+01  1  2  5  6  6  1       21 -.197305301071D-02 0.100000000000D+01
0.387185317119D-04 0.000000000000D+00 0.000000000000D+00 0.176696861645D-05 0.000000000000D+00  6 2 2 25 24 1 2 4 0.13018868D+00 0.51619142D-01 0.59251422D+05 0.59251422D+05 0.59251422D+05 0.11850483D+01  1  2 12  7  6  1       21 0.380017034675D-02 0.100000000000D+01
-.223504063749D-03 0.000000000000D+00 -.639578163780D-04 0.178569550844D-05 0.000000000000D+00  6 2 2 25 24 1 2 4 0.13131204D+00 0.51619142D-01 0.51142235D+05 0.51142235D+05 0.51142235D+05 0.11913115D+01  1  2  5  7  6  1       21 -.222215073819D-01 0.100000000000D+01
0.387185317119D-04 0.000000000000D+00 0.000000000000D+00 0.176696861645D-05 0.000000000000D+00  6 -3 2 25 24 1 -3 4 0.13018868D+00 0.51619142D-01 0.59251422D+05 0.59251422D+05 0.59251422D+05 0.11850483D+01  1  2 12  8  6  1       21 0.220137389653D-03 0.100000000000D+01
0.387185317119D-04 0.000000000000D+00 0.000000000000D+00 0.176696861645D-05 0.000000000000D+00  6 -4 2 25 24 1 -4 4 0.13018868D+00 0.51619142D-01 0.59251422D+05 0.59251422D+05 0.59251422D+05 0.11850483D+01  1  2 12  8  6  1       21 0.175521252761D-03 0.100000000000D+01
-.223504063749D-03 0.000000000000D+00 -.639578163780D-04 0.178569550844D-05 0.000000000000D+00  6 -3 2 25 24 1 -3 4 0.13131204D+00 0.51619142D-01 0.51142235D+05 0.51142235D+05 0.51142235D+05 0.11913115D+01  1  2  5  8  6  1       21 -.127224455676D-02 0.100000000000D+01
-.223504063749D-03 0.000000000000D+00 -.639578163780D-04 0.178569550844D-05 0.000000000000D+00  6 -4 2 25 24 1 -4 4 0.13131204D+00 0.51619142D-01 0.51142235D+05 0.51142235D+05 0.51142235D+05 0.11913115D+01  1  2  5  8  6  1       21 -.101273490323D-02 0.100000000000D+01
0.387185317119D-04 0.000000000000D+00 0.000000000000D+00 0.176696861645D-05 0.000000000000D+00  6 3 2 25 24 1 3 4 0.13018868D+00 0.51619142D-01 0.59251422D+05 0.59251422D+05 0.59251422D+05 0.11850483D+01  1  2 12  9  6  1       21 0.220822025441D-03 0.100000000000D+01
0.387185317119D-04 0.000000000000D+00 0.000000000000D+00 0.176696861645D-05 0.000000000000D+00  6 4 2 25 24 1 4 4 0.13018868D+00 0.51619142D-01 0.59251422D+05 0.59251422D+05 0.59251422D+05 0.11850483D+01  1  2 12  9  6  1       21 0.175521252761D-03 0.100000000000D+01
-.223504063749D-03 0.000000000000D+00 -.639578163780D-04 0.178569550844D-05 0.000000000000D+00  6 3 2 25 24 1 3 4 0.13131204D+00 0.51619142D-01 0.51142235D+05 0.51142235D+05 0.51142235D+05 0.11913115D+01  1  2  5  9  6  1       21 -.127625493366D-02 0.100000000000D+01
-.223504063749D-03 0.000000000000D+00 -.639578163780D-04 0.178569550844D-05 0.000000000000D+00  6 4 2 25 24 1 4 4 0.13131204D+00 0.51619142D-01 0.51142235D+05 0.51142235D+05 0.51142235D+05 0.11913115D+01  1  2  5  9  6  1       21 -.101273490323D-02 0.100000000000D+01
  </mgrwgt>
  </event>
  <event>
  6     66 0.46027262E-03 0.13330026E+03 0.75467711E-02 0.11519450E+00
       21 -1    0    0  501  502 0.00000000E+00 0.00000000E+00 0.18161852E+02 0.18177331E+02 0.75000000E+00 0.0000E+00 0.9000E+01
        2 -1    0    0  502    0 -.00000000E+00 -.00000000E+00 -.23218248E+04 0.23218248E+04 0.32000000E+00 0.0000E+00 0.9000E+01
       25  1    1    2    0    0 0.58002510E+02 -.59994644E+02 -.75669837E+03 0.77147980E+03 0.12500000E+03 0.0000E+00 0.9000E+01
       24  1    1    2    0    0 0.60747553E+02 -.15186795E+02 -.90543879E+03 0.91115725E+03 0.80419002E+02 0.0000E+00 0.9000E+01
        1  1    1    2  503    0 -.10098378E+03 0.52606999E+02 -.53849179E+03 0.55039870E+03 0.32000000E+00 0.0000E+00 0.9000E+01
       21  1    1    2  501  503 -.17766281E+02 0.22574440E+02 -.10303395E+03 0.10696636E+03 0.75000000E+00 0.0000E+00 0.9000E+01
#aMCatNLO 2  0  0  5  1 0.11662783D+02 0.00000000D+00  -5  6  0 0.00000000D+00 0.00000000D+00 0.00000000D+00 0.00000000D+00 0.00000000D+00
  <mgrwgt>
 0.7275465465D-01    2    2    0
 0.205394190268582D+03 0.000000000000000D+00 0.000000000000000D+00 0.205394190268582D+03
 0.205394190268582D+03 -.000000000000000D+00 -.000000000000000D+00 -.205394190268582D+03
 0.151662529636493D+03 0.588602513951473D+02 -.605376854227513D+02 0.157220337455452D+02
 0.113146234285920D+03 0.613872220104494D+02 -.155917732920836D+02 -.482012443632089D+02
 0.145979616614752D+03 -.120247473405597D+03 0.761294587148349D+02 0.324792106176637D+02
 0.000000000000000D+00 0.000000000000000D+00 0.000000000000000D+00 0.000000000000000D+00
 0.205394190268582D+03 0.000000000000000D+00 0.000000000000000D+00 0.205394190268582D+03
 0.205394190268582D+03 -.000000000000000D+00 -.000000000000000D+00 -.205394190268582D+03
 0.151138668248912D+03 0.580010246334797D+02 -.599937033628670D+02 0.159541135237739D+02
 0.112670621821751D+03 0.607464455295163D+02 -.151860935279351D+02 -.480281686744344D+02
 0.115358266356075D+03 -.100918886949487D+03 0.525220683441732D+02 0.190876978812518D+02
 0.316208241104256D+02 -.178285832135092D+02 0.226577285466290D+02 0.129863572694087D+02
-.111046931434D-04 0.000000000000D+00 0.000000000000D+00 0.259197332856D-06 0.000000000000D+00  6 21 2 25 24 1 21 4 0.27953234D-02 0.35720500D+00 0.38969688D+05 0.38969688D+05 0.38969688D+05 0.12031528D+01  1  2 13  3  6  5        1 -.107969037480D+00 0.100000000000D+01
0.185875616909D-04 0.000000000000D+00 0.000000000000D+00 0.259128217330D-06 0.160005798428D-07  6 21 2 25 24 1 21 4 0.27953234D-02 0.35720500D+00 0.38969688D+05 0.38969688D+05 0.38969688D+05 0.12031528D+01  1  2  1  3  6  5        1 0.180723692132D+00 0.100000000000D+01
  </mgrwgt>
  </event>
  <event>
  5     66 0.46027262E-03 0.56966607E+02 0.75467711E-02 0.10764947E+00
       21 -1    0    0  501  502 0.00000000E+00 0.00000000E+00 0.48614371E+02 0.48620156E+02 0.75000000E+00 0.0000E+00 0.9000E+01
        2 -1    0    0  502    0 -.00000000E+00 -.00000000E+00 -.26590863E+04 0.26590863E+04 0.32000000E+00 0.0000E+00 0.9000E+01
       25  1    1    2    0    0 0.26770044E+03 0.89325172E+02 -.12949259E+04 0.13312026E+04 0.12500000E+03 0.0000E+00 0.9000E+01
       24  1    1    2    0    0 -.22482761E+03 -.12683647E+03 -.12824064E+04 0.13105984E+04 0.80419002E+02 0.0000E+00 0.9000E+01
        1  1    1    2  501    0 -.42872835E+02 0.37511300E+02 -.33139688E+02 0.65905379E+02 0.32000000E+00 0.0000E+00 0.9000E+01
#aMCatNLO 1  0  0  5  5 0.37238780D+01 0.00000000D+00  -5  6  0 0.00000000D+00 0.00000000D+00 0.00000000D+00 0.00000000D+00 0.00000000D+00
  <mgrwgt>
 0.1617157026D+00    5    2    0
 0.359552034463087D+03 0.000000000000000D+00 0.000000000000000D+00 0.359552034463087D+03
 0.359552034463087D+03 -.000000000000000D+00 -.000000000000000D+00 -.359552034463087D+03
 0.311691283392524D+03 0.267700502900069D+03 0.893251209250119D+02 -.434041433697376D+02
 0.279556266860148D+03 -.224827557376146D+03 -.126836517331400D+03 -.710602399512475D+02
 0.127856518673503D+03 -.428729455239222D+02 0.375113964063876D+02 0.114464383320985D+03
 0.000000000000000D+00 0.000000000000000D+00 0.000000000000000D+00 -.000000000000000D+00
 0.359552034463087D+03 0.000000000000000D+00 0.000000000000000D+00 0.359552034463087D+03
 0.359552034463087D+03 -.000000000000000D+00 -.000000000000000D+00 -.359552034463087D+03
 0.310199980273377D+03 0.266147131500946D+03 0.906842328219619D+02 -.392568729385547D+02
 0.279208265407365D+03 -.226223249668320D+03 -.125615365712511D+03 -.673339492665921D+02
 0.123751338859666D+03 -.383040323944111D+02 0.381507714422023D+02 0.111318074050231D+03
 0.594448438576669D+01 -.161984943821428D+01 -.321963855165350D+01 -.472725184508372D+01
0.134309996435D-03 0.000000000000D+00 0.000000000000D+00 0.246458195938D-06 0.000000000000D+00  6 21 2 25 24 1 21 2 0.74795805D-02 0.40909064D+00 0.10112244D+06 0.10112244D+06 0.10112244D+06 0.11631266D+01  1  2  2  3  6  5        1 0.995162199887D-01 0.100000000000D+01
0.151033630052D-04 0.708773323637D-05 -.271133186378D-06 0.246458195938D-06 0.000000000000D+00  6 21 2 25 24 1 21 4 0.74795805D-02 0.40909064D+00 0.10112244D+06 0.10112244D+06 0.10112244D+06 0.11631266D+01  1  2  3  3  6  5        1 0.151395574089D-01 0.100000000000D+01
0.132884665897D-04 0.000000000000D+00 0.000000000000D+00 0.246458195938D-06 0.000000000000D+00  6 21 2 25 24 1 21 4 0.74795805D-02 0.40909064D+00 0.10112244D+06 0.10112244D+06 0.10112244D+06 0.11631266D+01  1  2 15  3  6  5        1 0.133203116910D-01 0.100000000000D+01
-.433317134290D-03 0.000000000000D+00 0.000000000000D+00 0.246458195938D-06 0.000000000000D+00  6 21 2 25 24 1 21 4 0.74795805D-02 0.40909064D+00 0.10112244D+06 0.10112244D+06 0.10112244D+06 0.11631266D+01  1  2  4  3  6  5        1 -.434355555686D+00 0.100000000000D+01
0.467073444684D-03 0.000000000000D+00 0.000000000000D+00 0.246458195938D-06 0.148991733485D-06  6 21 2 25 24 1 21 4 0.74795805D-02 0.40909064D+00 0.10123196D+06 0.10123196D+06 0.10123196D+06 0.11630835D+01  1  2 11  3  6  5        1 0.468095169229D+00 0.100000000000D+01
  </mgrwgt>
  </event>
  <event>
  5     66 -.46027262E-03 0.64672285E+02 0.75467711E-02 0.11184590E+00
       21 -1    0    0  501  502 0.00000000E+00 0.00000000E+00 0.11996668E+03 0.11996903E+03 0.75000000E+00 0.0000E+00 0.9000E+01
        2 -1    0    0  502    0 -.00000000E+00 -.00000000E+00 -.64126797E+03 0.64126805E+03 0.32000000E+00 0.0000E+00 0.9000E+01
       25  1    1    2    0    0 0.96548625E+02 0.11791293E+03 -.15190822E+03 0.24884976E+03 0.12500000E+03 0.0000E+00 0.9000E+01
       24  1    1    2    0    0 -.15928459E+03 -.13361878E+03 -.38588430E+03 0.44564500E+03 0.80419002E+02 0.0000E+00 0.9000E+01
        1  1    1    2  501    0 0.62735961E+02 0.15705842E+02 0.16491230E+02 0.66742321E+02 0.32000000E+00 0.0000E+00 0.9000E+01
#aMCatNLO 1  0  0  5  1 0.11874686D+02 0.00000000D+00  -5  6  0 0.00000000D+00 0.00000000D+00 0.00000000D+00 0.00000000D+00 0.00000000D+00
  <mgrwgt>
 -.5278874625D+00    7    2    0
 0.277365670818070D+03 0.000000000000000D+00 0.000000000000000D+00 0.277365670818070D+03
 0.277365670818070D+03 -.000000000000000D+00 -.000000000000000D+00 -.277365670818070D+03
 0.198733446464885D+03 0.965485245591220D+02 0.117912909349201D+03 0.253950971267126D+02
 0.248912585291045D+03 -.159284711539260D+03 -.133618808403443D+03 -.110745897768721D+03
 0.107085309880211D+03 0.627361869801382D+02 0.157058990542421D+02 0.853508006420081D+02
 0.000000000000000D+00 0.000000000000000D+00 0.000000000000000D+00 0.000000000000000D+00
 0.277365670818070D+03 0.000000000000000D+00 0.000000000000000D+00 0.277365670818070D+03
 0.277365670818070D+03 -.000000000000000D+00 -.000000000000000D+00 -.277365670818070D+03
 0.199254454323840D+03 0.971902831969527D+02 0.118073572546442D+03 0.262681915271599D+02
 0.247808869511071D+03 -.158483744264669D+03 -.133418287591356D+03 -.109656204539579D+03
 0.725165411836829D+02 0.492681177520662D+02 0.170572892274940D+02 0.504018868954619D+02
 0.351514766175461D+02 0.120253433156499D+02 -.171257418258005D+01 0.329861261169572D+02
0.117744895256D-04 0.000000000000D+00 0.000000000000D+00 0.199826076432D-06 0.000000000000D+00  6 21 2 25 24 1 21 2 0.18456599D-01 0.98656798D-01 0.58732400D+05 0.58732400D+05 0.58732400D+05 0.11854198D+01  1  2  2  3  6  5        1 0.257768161573D-01 0.100000000000D+01
0.445776641801D-06 0.621356883085D-06 -.237693019715D-07 0.199826076432D-06 0.000000000000D+00  6 21 2 25 24 1 21 4 0.18456599D-01 0.98656798D-01 0.58732400D+05 0.58732400D+05 0.58732400D+05 0.11854198D+01  1  2  3  3  6  5        1 0.137135173739D-02 0.100000000000D+01
0.130147310410D-05 0.000000000000D+00 0.000000000000D+00 0.199826076432D-06 0.000000000000D+00  6 21 2 25 24 1 21 4 0.18456599D-01 0.98656798D-01 0.58732400D+05 0.58732400D+05 0.58732400D+05 0.11854198D+01  1  2 15  3  6  5        1 0.400374814450D-02 0.100000000000D+01
0.388876434092D-04 0.000000000000D+00 0.000000000000D+00 0.199865446263D-06 0.000000000000D+00  6 21 2 25 24 1 21 4 0.18456599D-01 0.98656798D-01 0.58570329D+05 0.58570329D+05 0.58570329D+05 0.11855366D+01  1  2 12  3  6  5        1 0.119685332010D+00 0.100000000000D+01
-.240614510274D-03 0.000000000000D+00 0.000000000000D+00 0.199826076432D-06 0.000000000000D+00  6 21 2 25 24 1 21 4 0.18456599D-01 0.98656798D-01 0.58732400D+05 0.58732400D+05 0.58732400D+05 0.11854198D+01  1  2  4  3  6  5        1 -.740207305102D+00 0.100000000000D+01
-.403669348407D-04 0.000000000000D+00 0.000000000000D+00 0.199826076432D-06 0.000000000000D+00  6 21 2 25 24 1 21 4 0.18456599D-01 0.98656798D-01 0.58732400D+05 0.58732400D+05 0.58732400D+05 0.11854198D+01  1  2  5  3  6  5        1 -.124181621547D+00 0.100000000000D+01
0.603526932693D-04 0.000000000000D+00 -.000000000000D+00 0.199826076432D-06 0.000000000000D+00  6 21 2 25 24 1 21 4 0.18456599D-01 0.98656798D-01 0.58732400D+05 0.58732400D+05 0.58732400D+05 0.11854198D+01  1  2  6  3  6  5        1 0.185664216134D+00 0.100000000000D+01
  </mgrwgt>
  </event>
  <event>
  6     66 0.46027262E-03 0.70764465E+02 0.75467711E-02 0.11702171E+00
       21 -1    0    0  503  502 0.00000000E+00 0.00000000E+00 0.13059945E+03 0.13060160E+03 0.75000000E+00 0.0000E+00 0.9000E+01
        2 -1    0    0  502    0 0.00000000E+00 0.00000000E+00 -.61126770E+03 0.61126779E+03 0.32000000E+00 0.0000E+00 0.9000E+01
       25  1    1    2    0    0 0.57358604E+02 0.81953809E+02 -.18317898E+03 0.24328168E+03 0.12500000E+03 0.0000E+00 0.9000E+01
       24  1    1    2    0    0 0.11142587E+01 -.53088539E+02 -.95892592E+02 0.13594940E+03 0.80419002E+02 0.0000E+00 0.9000E+01
        1  1    1    2  501    0 0.17892731E+02 -.48941963E+01 -.26181581E+03 0.26247233E+03 0.32000000E+00 0.0000E+00 0.9000E+01
       21  1    1    2  503  501 -.76365594E+02 -.23971073E+02 0.60219128E+02 0.10016597E+03 0.75000000E+00 0.0000E+00 0.9000E+01
#aMCatNLO 2  0  0  1  2 0.36436201D+02 0.00000000D+00  -5  6  0 0.00000000D+00 0.00000000D+00 0.00000000D+00 0.00000000D+00 0.00000000D+00
  <mgrwgt>
 0.7668037085D-01    1    2    0
 0.167941796336241D+03 0.000000000000000D+00 0.000000000000000D+00 0.167941796336241D+03
 0.167941796336241D+03 0.000000000000000D+00 0.000000000000000D+00 -.167941796336241D+03
 0.150917677478366D+03 0.219209414249668D+02 0.708300083499769D+02 0.406660499636918D+02
 0.108846094206518D+03 -.225730793016890D+02 -.605239375362545D+02 0.347500409437280D+02
 0.761198209875978D+02 0.652137876722204D+00 -.103060708137224D+02 -.754160909074198D+02
 0.000000000000000D+00 -.000000000000000D+00 -.000000000000000D+00 0.000000000000000D+00
 0.447297354399660D+03 0.000000000000000D+00 0.000000000000000D+00 0.447297354399660D+03
 0.178475497171757D+03 0.000000000000000D+00 0.000000000000000D+00 -.178475497171757D+03
 0.165182244959732D+03 0.573586244470597D+02 0.819538567233325D+02 0.406660499636918D+02
 0.102442239080429D+03 0.111426906441323D+01 -.530885058398001D+02 0.347500409437280D+02
 0.776639521565784D+02 0.178927008119820D+02 -.489427772771387D+01 -.754160909074198D+02
 0.280484415374679D+03 -.763655943234549D+02 -.239710731558186D+02 0.268821857227903D+03
0.248832097963D-04 0.000000000000D+00 0.000000000000D+00 0.160270910584D-06 0.157558134193D-08  6 21 2 25 24 1 21 4 0.20092340D-01 0.94041101D-01 0.31516191D+05 0.31516191D+05 0.31516191D+05 0.12126575D+01  1  2  1  1  6  1       21 0.766803708493D-01 0.100000000000D+01
  </mgrwgt>
  </event>
  <event>
  6     66 0.46027262E-03 0.36596894E+02 0.75467711E-02 0.11340279E+00
       21 -1    0    0  501  502 0.00000000E+00 0.00000000E+00 0.11424340E+03 0.11424586E+03 0.75000000E+00 0.0000E+00 0.9000E+01
        2 -1    0    0  503    0 0.00000000E+00 0.00000000E+00 -.15100649E+04 0.15100649E+04 0.32000000E+00 0.0000E+00 0.9000E+01
       25  1    1    2    0    0 -.73097436E+02 0.89229859E+02 -.48813710E+03 0.51692168E+03 0.12500000E+03 0.0000E+00 0.9000E+01
       24  1    1    2    0    0 0.25747138E+02 -.96067782E+02 -.42018772E+03 0.43922303E+03 0.80419002E+02 0.0000E+00 0.9000E+01
        1  1    1    2  501    0 0.35523719E+02 -.62171344E+02 0.73618778E+02 0.10269877E+03 0.32000000E+00 0.0000E+00 0.9000E+01
       21  1    1    2  503  502 0.11826580E+02 0.69009267E+02 -.56111548E+03 0.56546732E+03 0.75000000E+00 0.0000E+00 0.9000E+01
#aMCatNLO 2  0  0  2  1 0.14479282D+02 0.00000000D+00  -5  6  0 0.00000000D+00 0.00000000D+00 0.00000000D+00 0.00000000D+00 0.00000000D+00
  <mgrwgt>
 0.7350810220D-01    1    2    0
 0.323849196581608D+03 0.000000000000000D+00 0.000000000000000D+00 0.323849196581608D+03
 0.323849196581608D+03 0.000000000000000D+00 0.000000000000000D+00 -.323849196581608D+03
 0.224149700575857D+03 -.691022791611462D+02 0.112542070111572D+03 -.131061991965571D+03
 0.166759978975076D+03 0.288628106444727D+02 -.778874660832966D+02 -.120175519230090D+03
 0.256788713612283D+03 0.402394685166735D+02 -.346546040282755D+02 0.251237511195661D+03
 0.000000000000000D+00 0.000000000000000D+00 0.000000000000000D+00 -.000000000000000D+00
 0.332059622229805D+03 0.000000000000000D+00 0.000000000000000D+00 0.332059622229805D+03
 0.519533968120297D+03 0.000000000000000D+00 0.000000000000000D+00 -.519533968120297D+03
 0.214726456444932D+03 -.730974480162338D+02 0.892298630108094D+02 -.131061991965571D+03
 0.175503002923474D+03 0.257471289569262D+02 -.960677782039335D+02 -.120175519230090D+03
 0.261242224917262D+03 0.355237394015760D+02 -.621713518178601D+02 0.251237511195661D+03
 0.200121906064433D+03 0.118265796577316D+02 0.690092670109841D+02 -.187474345890492D+03
0.720169665669D-04 0.000000000000D+00 0.000000000000D+00 0.322714175038D-05 0.298993834741D-08  6 21 2 25 24 1 21 4 0.17576063D-01 0.23231739D+00 0.48314589D+05 0.48314589D+05 0.48314589D+05 0.11937594D+01  1  2  1  2  6  2        2 0.735081022026D-01 0.100000000000D+01
  </mgrwgt>
  </event>
  <event>
  5     66 0.46027262E-03 0.22459908E+02 0.75467711E-02 0.10032899E+00
       21 -1    0    0  501  502 0.00000000E+00 0.00000000E+00 0.12305202E+03 0.12305430E+03 0.75000000E+00 0.0000E+00 0.9000E+01
        2 -1    0    0  502    0 0.00000000E+00 0.00000000E+00 -.47268401E+03 0.47268412E+03 0.32000000E+00 0.0000E+00 0.9000E+01
       25  1    1    2    0    0 -.10670633E+01 0.80167233E+01 -.20068420E+03 0.23656829E+03 0.12500000E+03 0.0000E+00 0.9000E+01
       24  1    1    2    0    0 -.19168904E+02 -.17761068E+02 -.24570066E+03 0.25984406E+03 0.80419002E+02 0.0000E+00 0.9000E+01
        1  1    1    2  501    0 0.20235968E+02 0.97443446E+01 0.96752876E+02 0.99326070E+02 0.32000000E+00 0.0000E+00 0.9000E+01
#aMCatNLO 1  0  0  1  2 0.46623306D+02 0.00000000D+00  -5  6  0 0.00000000D+00 0.00000000D+00 0.00000000D+00 0.00000000D+00 0.00000000D+00
  <mgrwgt>
 0.1218782476D+01    3    2    0
 0.241175109741298D+03 0.000000000000000D+00 0.000000000000000D+00 0.241175109741298D+03
 0.241175109741298D+03 0.000000000000000D+00 0.000000000000000D+00 -.241175109741298D+03
 0.146713360707100D+03 -.106707180971250D+01 0.801671923209728D+01 -.763832689826664D+02
 0.142830466893057D+03 -.191689126551937D+02 -.177610718439224D+02 -.115110483593331D+03
 0.192806391882440D+03 0.202359844649062D+02 0.974435261182508D+01 0.191493752575998D+03
 0.000000000000000D+00 -.000000000000000D+00 -.000000000000000D+00 -.000000000000000D+00
 0.598251838959265D+03 0.000000000000000D+00 0.000000000000000D+00 0.598251838959265D+03
 0.611090276737528D+03 0.000000000000000D+00 0.000000000000000D+00 -.611090276737528D+03
 0.221299533294031D+03 0.253485319591577D+02 0.163925384194130D+03 -.763832689826664D+02
 0.185683749866148D+03 0.441151488907927D+01 0.121413978244996D+03 -.115110483593331D+03
 0.293813141419684D+03 0.551650562105879D+02 0.215900721093165D+03 0.191493752575998D+03
 0.508545691116930D+03 -.849251030588249D+02 -.501240083532291D+03 -.128384377782632D+02
0.222799892240D-03 0.000000000000D+00 0.000000000000D+00 0.242212888405D-04 0.000000000000D+00  6 21 2 25 24 1 21 2 0.18931264D-01 0.72720801D-01 0.13488457D+05 0.13488457D+05 0.13488457D+05 0.12531158D+01  1  2  2  1  6  1       21 0.748873492421D+00 0.100000000000D+01
0.653293606765D-04 0.117574733318D-04 -.449768790938D-06 0.242212888405D-04 0.000000000000D+00  6 21 2 25 24 1 21 4 0.18931264D-01 0.72720801D-01 0.13488457D+05 0.13488457D+05 0.13488457D+05 0.12531158D+01  1  2  3  1  6  1       21 0.344813548460D+00 0.100000000000D+01
0.237009387927D-04 0.000000000000D+00 0.000000000000D+00 0.242212888405D-04 0.000000000000D+00  6 21 2 25 24 1 21 4 0.18931264D-01 0.72720801D-01 0.13488457D+05 0.13488457D+05 0.13488457D+05 0.12531158D+01  1  2 15  1  6  1       21 0.125095435227D+00 0.100000000000D+01
  </mgrwgt>
  </event>
  <event>
  5     66 0.46027262E-03 0.26661369E+02 0.75467711E-02 0.12139388E+00
       21 -1    0    0  501  502 0.00000000E+00 0.00000000E+00 0.41968362E+03 0.41968429E+03 0.75000000E+00 0.0000E+00 0.9000E+01
        2 -1    0    0  502    0 0.00000000E+00 0.00000000E+00 -.64362025E+02 0.64362821E+02 0.32000000E+00 0.0000E+00 0.9000E+01
       25  1    1    2    0    0 -.42429517E+02 0.65526229E+02 0.76856938E+02 0.16621053E+03 0.12500000E+03 0.0000E+00 0.9000E+01
       24  1    1    2    0    0 0.53511109E+02 -.41277287E+02 0.13067799E+03 0.16766397E+03 0.80419002E+02 0.0000E+00 0.9000E+01
        1  1    1    2  501    0 -.11081592E+02 -.24248942E+02 0.14778667E+03 0.15017262E+03 0.32000000E+00 0.0000E+00 0.9000E+01
#aMCatNLO 1  0  0  1  1 0.14184471D-01 0.00000000D+00  -5  6  0 0.00000000D+00 0.00000000D+00 0.00000000D+00 0.00000000D+00 0.00000000D+00
  <mgrwgt>
 0.7588346971D-01   23    2    0
 0.164353407582023D+03 0.000000000000000D+00 0.000000000000000D+00 0.164353407582023D+03
 0.164353407582023D+03 0.000000000000000D+00 0.000000000000000D+00 -.164353407582023D+03
 0.161678611092607D+03 -.424294429297248D+02 0.655263912076918D+02 -.664906588386985D+02
 0.105639834621624D+03 0.535111570547739D+02 -.412771809218651D+02 0.111941551854693D+02
 0.613883694498164D+02 -.110817141250491D+02 -.242492102858267D+02 0.552965036532292D+02
 0.000000000000000D+00 0.000000000000000D+00 0.000000000000000D+00 0.000000000000000D+00
 0.164377501201452D+03 0.000000000000000D+00 0.000000000000000D+00 0.164377501201452D+03
 0.164355495429839D+03 0.000000000000000D+00 0.000000000000000D+00 -.164355495429839D+03
 0.161677272006171D+03 -.424333089441677D+02 0.655205835032165D+02 -.664906588386985D+02
 0.105640037906402D+03 0.535086310112368D+02 -.412809756604964D+02 0.111941551854693D+02
 0.613895055575205D+02 -.110831820465031D+02 -.242514154648614D+02 0.552965036532292D+02
 0.261811611968914D-01 0.785997943398971D-02 0.118076221412634D-01 0.220057716130113D-01
0.140663338361D-05 0.000000000000D+00 0.000000000000D+00 0.166249204211D-05 0.000000000000D+00  6 21 2 25 24 1 21 2 0.64566824D-01 0.99019628D-02 0.19471410D+05 0.19471410D+05 0.19471410D+05 0.12351088D+01  1  2  2  1  6  1       21 0.374368685773D-02 0.100000000000D+01
0.145742809783D-06 0.742300830097D-07 -.283958753247D-08 0.166249204211D-05 0.000000000000D+00  6 21 2 25 24 1 21 4 0.64566824D-01 0.99019628D-02 0.19471410D+05 0.19471410D+05 0.19471410D+05 0.12351088D+01  1  2  3  1  6  1       21 0.591719837920D-03 0.100000000000D+01
0.128475782769D-06 0.000000000000D+00 0.000000000000D+00 0.166249204211D-05 0.000000000000D+00  6 21 2 25 24 1 21 4 0.64566824D-01 0.99019628D-02 0.19471410D+05 0.19471410D+05 0.19471410D+05 0.12351088D+01  1  2 15  1  6  1       21 0.521615230763D-03 0.100000000000D+01
-.569646115968D-02 0.000000000000D+00 0.000000000000D+00 0.166249204211D-05 0.000000000000D+00  6 21 2 25 24 1 21 4 0.64566824D-01 0.99019628D-02 0.19471410D+05 0.19471410D+05 0.19471410D+05 0.12351088D+01  1  2  4  1  6  1       21 -.231277898316D+02 0.100000000000D+01
-.618813777214D-01 0.000000000000D+00 -.271386482232D-02 0.166249204211D-05 0.000000000000D+00  6 21 2 25 24 1 21 4 0.64576789D-01 0.99019628D-02 0.19471410D+05 0.19471410D+05 0.19471410D+05 0.12351088D+01  1  2  5  1  6  1       21 -.251156566487D+03 0.100000000000D+01
0.618817939190D-01 0.000000000000D+00 0.271386469305D-02 0.166249204211D-05 0.000000000000D+00  6 21 2 25 24 1 21 4 0.64566824D-01 0.99019628D-02 0.19471410D+05 0.19471410D+05 0.19471410D+05 0.12351088D+01  1  2  6  1  6  1       21 0.251241794518D+03 0.100000000000D+01
0.569626912261D-02 0.000000000000D+00 0.000000000000D+00 0.166249204211D-05 0.874784037903D-01  6 21 2 25 24 1 21 4 0.64576289D-01 0.99020886D-02 0.19473578D+05 0.19473578D+05 0.19473578D+05 0.12351034D+01  1  2 11  1  6  1       21 0.231189314795D+02 0.100000000000D+01
-.202953370590D-05 0.000000000000D+00 -.930947244574D-07 0.166249204211D-05 0.000000000000D+00  6 -1 2 25 24 1 -1 4 0.64576789D-01 0.99019628D-02 0.19471410D+05 0.19471410D+05 0.19471410D+05 0.12351088D+01  1  2  5  4  6  1       21 -.858192633115D-03 0.100000000000D+01
0.262282792485D-05 0.000000000000D+00 0.000000000000D+00 0.166249204211D-05 0.397313508811D-04  6 -1 2 25 24 1 -1 4 0.64576289D-01 0.99020886D-02 0.19473578D+05 0.19473578D+05 0.19473578D+05 0.12351034D+01  1  2 11  4  6  1       21 0.110905069903D-02 0.100000000000D+01
-.202953370590D-05 0.000000000000D+00 -.930947244574D-07 0.166249204211D-05 0.000000000000D+00  6 1 2 25 24 1 1 4 0.64576789D-01 0.99019628D-02 0.19471410D+05 0.19471410D+05 0.19471410D+05 0.12351088D+01  1  2  5  5  6  1       21 -.229368393443D-02 0.100000000000D+01
0.601829261924D-06 0.000000000000D+00 0.000000000000D+00 0.166249204211D-05 0.246177114819D-05  6 1 2 25 24 1 1 4 0.64576289D-01 0.99020886D-02 0.19473578D+05 0.19473578D+05 0.19473578D+05 0.12351034D+01  1  2 11  5  6  1       21 0.680145067110D-03 0.100000000000D+01
-.202953370590D-05 0.000000000000D+00 -.930947244574D-07 0.166249204211D-05 0.000000000000D+00  6 -2 2 25 24 1 -2 4 0.64576789D-01 0.99019628D-02 0.19471410D+05 0.19471410D+05 0.19471410D+05 0.12351088D+01  1  2  5  6  6  1       21 -.675126204855D-03 0.100000000000D+01
0.602026279647D-06 0.000000000000D+00 0.000000000000D+00 0.166249204211D-05 0.492506574006D-05  6 -2 2 25 24 1 -2 4 0.64576289D-01 0.99020886D-02 0.19473578D+05 0.19473578D+05 0.19473578D+05 0.12351034D+01  1  2 11  6  6  1       21 0.200261725575D-03 0.100000000000D+01
-.202953370590D-05 0.000000000000D+00 -.930947244574D-07 0.166249204211D-05 0.000000000000D+00  6 2 2 25 24 1 2 4 0.64576789D-01 0.99019628D-02 0.19471410D+05 0.19471410D+05 0.19471410D+05 0.12351088D+01  1  2  5  7  6  1       21 -.344995188658D-02 0.100000000000D+01
0.598556284657D-06 0.000000000000D+00 0.000000000000D+00 0.166249204211D-05 0.502160076803D-05  6 2 2 25 24 1 2 4 0.64576289D-01 0.99020886D-02 0.19473578D+05 0.19473578D+05 0.19473578D+05 0.12351034D+01  1  2 11  7  6  1       21 0.101744806277D-02 0.100000000000D+01
-.202953370590D-05 0.000000000000D+00 -.930947244574D-07 0.166249204211D-05 0.000000000000D+00  6 -3 2 25 24 1 -3 4 0.64576789D-01 0.99019628D-02 0.19471410D+05 0.19471410D+05 0.19471410D+05 0.12351088D+01  1  2  5  8  6  1       21 -.420774707890D-03 0.100000000000D+01
-.202953370590D-05 0.000000000000D+00 -.930947244574D-07 0.166249204211D-05 0.000000000000D+00  6 -4 2 25 24 1 -4 4 0.64576789D-01 0.99019628D-02 0.19471410D+05 0.19471410D+05 0.19471410D+05 0.12351088D+01  1  2  5  8  6  1       21 -.341941280581D-03 0.100000000000D+01
0.602024614980D-06 0.000000000000D+00 0.000000000000D+00 0.166249204211D-05 0.492505212173D-05  6 -3 2 25 24 1 -3 4 0.64576289D-01 0.99020886D-02 0.19473578D+05 0.19473578D+05 0.19473578D+05 0.12351034D+01  1  2 11  8  6  1       21 0.124813745747D-03 0.100000000000D+01
0.602024614980D-06 0.000000000000D+00 0.000000000000D+00 0.166249204211D-05 0.492505212173D-05  6 -4 2 25 24 1 -4 4 0.64576289D-01 0.99020886D-02 0.19473578D+05 0.19473578D+05 0.19473578D+05 0.12351034D+01  1  2 11  8  6  1       21 0.101429668570D-03 0.100000000000D+01
-.202953370590D-05 0.000000000000D+00 -.930947244574D-07 0.166249204211D-05 0.000000000000D+00  6 3 2 25 24 1 3 4 0.64576789D-01 0.99019628D-02 0.19471410D+05 0.19471410D+05 0.19471410D+05 0.12351088D+01  1  2  5  9  6  1       21 -.421111511336D-03 0.100000000000D+01
-.202953370590D-05 0.000000000000D+00 -.930947244574D-07 0.166249204211D-05 0.000000000000D+00  6 4 2 25 24 1 4 4 0.64576789D-01 0.99019628D-02 0.19471410D+05 0.19471410D+05 0.19471410D+05 0.12351088D+01  1  2  5  9  6  1       21 -.341941280581D-03 0.100000000000D+01
0.602024614980D-06 0.000000000000D+00 0.000000000000D+00 0.166249204211D-05 0.492505212173D-05  6 3 2 25 24 1 3 4 0.64576289D-01 0.99020886D-02 0.19473578D+05 0.19473578D+05 0.19473578D+05 0.12351034D+01  1  2 11  9  6  1       21 0.124913649662D-03 0.100000000000D+01
0.602024614980D-06 0.000000000000D+00 0.000000000000D+00 0.166249204211D-05 0.492505212173D-05  6 4 2 25 24 1 4 4 0.64576289D-01 0.99020886D-02 0.19473578D+05 0.19473578D+05 0.19473578D+05 0.12351034D+01  1  2 11  9  6  1       21 0.101429668570D-03 0.100000000000D+01
  </mgrwgt>
  </event>
  <event>
  5     66 0.46027262E-03 0.31122508E+02 0.75467711E-02 0.12342550E+00
       21 -1    0    0  501  502 0.00000000E+00 0.00000000E+00 0.62255205E+03 0.62255251E+03 0.75000000E+00 0.0000E+00 0.9000E+01
        2 -1    0    0  502    0 0.00000000E+00 0.00000000E+00 -.59051127E+02 0.59051994E+02 0.32000000E+00 0.0000E+00 0.9000E+01
       25  1    1    2    0    0 0.20340642E+02 -.34604183E+02 0.10316311E+03 0.16696951E+03 0.12500000E+03 0.0000E+00 0.9000E+01
       24  1    1    2    0    0 -.36400038E+02 0.79451809E+01 0.47367940E+02 0.10049391E+03 0.80419002E+02 0.0000E+00 0.9000E+01
        1  1    1    2  501    0 0.16059396E+02 0.26659002E+02 0.41296988E+03 0.41414108E+03 0.32000000E+00 0.0000E+00 0.9000E+01
#aMCatNLO 1  0  0  5  1 0.27487988D+00 0.00000000D+00  -5  6  0 0.00000000D+00 0.00000000D+00 0.00000000D+00 0.00000000D+00 0.00000000D+00
  <mgrwgt>
 0.9723696081D-01    7    2    0
 0.191736406874435D+03 0.000000000000000D+00 0.000000000000000D+00 0.191736406874435D+03
 0.191736406874435D+03 -.000000000000000D+00 -.000000000000000D+00 -.191736406874435D+03
 0.145185493149970D+03 0.203406229747865D+02 -.346042137716775D+02 -.619889898888640D+02
 0.109017506661514D+03 -.364000520365437D+02 0.794515770943804D+01 -.634784332276064D+02
 0.129269813937387D+03 0.160594290617573D+02 0.266590560622395D+02 0.125467423116470D+03
 0.000000000000000D+00 0.000000000000000D+00 0.000000000000000D+00 0.000000000000000D+00
 0.191736406874435D+03 0.000000000000000D+00 0.000000000000000D+00 0.191736406874435D+03
 0.191736406874435D+03 -.000000000000000D+00 -.000000000000000D+00 -.191736406874435D+03
 0.145184555671795D+03 0.203408840198026D+02 -.346037804303867D+02 -.619869504237396D+02
 0.109016573235488D+03 -.363998560221472D+02 0.794548309826520D+01 -.634769018268862D+02
 0.122059890348737D+03 0.151824611190577D+02 0.249033757899683D+02 0.118523970489424D+03
 0.721179449285004D+01 0.876510883286928D+00 0.175492154215321D+01 0.693988176120230D+01
0.664495983771D-06 0.000000000000D+00 0.000000000000D+00 0.556214378140D-05 0.000000000000D+00  6 21 2 25 24 1 21 2 0.95777341D-01 0.90848902D-02 0.15755189D+05 0.15755189D+05 0.15755189D+05 0.12453979D+01  1  2  2  3  6  5        1 0.831551186398D-03 0.100000000000D+01
0.102216460264D-06 0.350664164590D-07 -.134142594145D-08 0.556214378140D-05 0.000000000000D+00  6 21 2 25 24 1 21 4 0.95777341D-01 0.90848902D-02 0.15755189D+05 0.15755189D+05 0.15755189D+05 0.12453979D+01  1  2  3  3  6  5        1 0.198396381218D-03 0.100000000000D+01
0.599930945516D-07 0.000000000000D+00 0.000000000000D+00 0.556214378140D-05 0.000000000000D+00  6 21 2 25 24 1 21 4 0.95777341D-01 0.90848902D-02 0.15755189D+05 0.15755189D+05 0.15755189D+05 0.12453979D+01  1  2 15  3  6  5        1 0.116443211067D-03 0.100000000000D+01
-.219295947957D-02 0.000000000000D+00 0.000000000000D+00 0.556214378140D-05 0.000000000000D+00  6 21 2 25 24 1 21 4 0.95777341D-01 0.90848902D-02 0.15755189D+05 0.15755189D+05 0.15755189D+05 0.12453979D+01  1  2  4  3  6  5        1 -.425641059943D+01 0.100000000000D+01
-.271832953409D-02 0.000000000000D+00 0.000000000000D+00 0.556214378140D-05 0.000000000000D+00  6 21 2 25 24 1 21 4 0.95777341D-01 0.90848902D-02 0.15755189D+05 0.15755189D+05 0.15755189D+05 0.12453979D+01  1  2  5  3  6  5        1 -.527612422820D+01 0.100000000000D+01
0.287420487203D-02 0.000000000000D+00 -.000000000000D+00 0.556214378140D-05 0.000000000000D+00  6 21 2 25 24 1 21 4 0.95777341D-01 0.90848902D-02 0.15755189D+05 0.15755189D+05 0.15755189D+05 0.12453979D+01  1  2  6  3  6  5        1 0.557866946297D+01 0.100000000000D+01
0.208660725475D-02 0.000000000000D+00 0.000000000000D+00 0.556214378140D-05 0.417951119443D-03  6 21 2 25 24 1 21 4 0.95777341D-01 0.90848902D-02 0.15755881D+05 0.15755881D+05 0.15755881D+05 0.12453958D+01  1  2 11  3  6  5        1 0.404995593468D+01 0.100000000000D+01
  </mgrwgt>
  </event>
  <event>
  5     66 0.46027262E-03 0.49360243E+02 0.75467711E-02 0.12147243E+00
       21 -1    0    0  501  502 0.00000000E+00 0.00000000E+00 0.20324005E+02 0.20337839E+02 0.75000000E+00 0.0000E+00 0.9000E+01
        2 -1    0    0  502    0 0.00000000E+00 0.00000000E+00 -.97371039E+03 0.97371044E+03 0.32000000E+00 0.0000E+00 0.9000E+01
       25  1    1    2    0    0 -.23128826E+00 0.15917076E+02 -.54196918E+03 0.55642520E+03 0.12500000E+03 0.0000E+00 0.9000E+01
       24  1    1    2    0    0 0.13368102E+02 0.34008028E+02 -.17984885E+03 0.20036985E+03 0.80419002E+02 0.0000E+00 0.9000E+01
        1  1    1    2  501    0 -.13136814E+02 -.49925104E+02 -.23156836E+03 0.23725323E+03 0.32000000E+00 0.0000E+00 0.9000E+01
#aMCatNLO 1  0  0  1  2 0.11625457D+02 0.00000000D+00  -5  6  0 0.00000000D+00 0.00000000D+00 0.00000000D+00 0.00000000D+00 0.00000000D+00
  <mgrwgt>
 0.2232956573D+00   32    2    0
 0.140700378622905D+03 0.000000000000000D+00 0.000000000000000D+00 0.140700378622905D+03
 0.140700378622905D+03 0.000000000000000D+00 0.000000000000000D+00 -.140700378622905D+03
 0.129379464308855D+03 -.231180383938485D+00 0.159174858780251D+02 -.293364275909535D+02
 0.984784309150292D+02 0.133681840447650D+02 0.340083397257165D+02 0.435374538249676D+02
 0.535428620219254D+02 -.131370036608266D+02 -.499258256037416D+02 -.142010262340141D+02
 0.000000000000000D+00 -.000000000000000D+00 -.000000000000000D+00 0.000000000000000D+00
 0.155220439556316D+03 0.000000000000000D+00 0.000000000000000D+00 0.155220439556316D+03
 0.143166766710663D+03 0.000000000000000D+00 0.000000000000000D+00 -.143166766710663D+03
 0.129859979980401D+03 0.414897734836638D+01 0.189940623267803D+02 -.293364275909535D+02
 0.998219153101148D+02 0.167187034736975D+02 0.363617091238377D+02 0.435374538249676D+02
 0.519588997623281D+02 -.113544263261234D+02 -.486737621436554D+02 -.142010262340141D+02
 0.167464112141354D+02 -.951325449594050D+01 -.668200930696272D+01 0.120536728456538D+02
0.855594975937D-06 0.000000000000D+00 0.000000000000D+00 0.310845629490D-06 0.000000000000D+00  6 21 2 25 24 1 21 2 0.31278382D-02 0.14980267D+00 0.17684557D+05 0.17684557D+05 0.17684557D+05 0.12397526D+01  1  2  2  1  6  1       21 0.267014405510D-01 0.100000000000D+01
-.598440380992D-07 0.451509873335D-07 -.172719974858D-08 0.310845629490D-06 0.000000000000D+00  6 21 2 25 24 1 21 4 0.31278382D-02 0.14980267D+00 0.17684557D+05 0.17684557D+05 0.17684557D+05 0.12397526D+01  1  2  3  1  6  1       21 -.287049907701D-02 0.100000000000D+01
0.866726987189D-07 0.000000000000D+00 0.000000000000D+00 0.310845629490D-06 0.000000000000D+00  6 21 2 25 24 1 21 4 0.31278382D-02 0.14980267D+00 0.17684557D+05 0.17684557D+05 0.17684557D+05 0.12397526D+01  1  2 15  1  6  1       21 0.415737155407D-02 0.100000000000D+01
0.453240423026D-05 0.000000000000D+00 0.000000000000D+00 0.308718251104D-06 0.000000000000D+00  6 21 2 25 24 1 21 4 0.34762211D-02 0.14980267D+00 0.19312110D+05 0.19312110D+05 0.19312110D+05 0.12355030D+01  1  2 12  1  6  1       21 0.180360033179D+00 0.100000000000D+01
0.358184687478D-05 0.000000000000D+00 0.000000000000D+00 0.308718251104D-06 0.000000000000D+00  6 21 2 25 24 1 21 4 0.35633223D-02 0.14980267D+00 0.19312110D+05 0.19312110D+05 0.19312110D+05 0.12355030D+01  1  2 12  1  6  1       21 0.136816203309D+00 0.100000000000D+01
-.533517351676D-05 0.000000000000D+00 0.000000000000D+00 0.310845629490D-06 0.000000000000D+00  6 21 2 25 24 1 21 4 0.31278382D-02 0.14980267D+00 0.17684557D+05 0.17684557D+05 0.17684557D+05 0.12397526D+01  1  2  4  1  6  1       21 -.255908711076D+00 0.100000000000D+01
-.174393028884D-04 0.000000000000D+00 -.255159964190D-05 0.310845629490D-06 0.000000000000D+00  6 21 2 25 24 1 21 4 0.35115130D-02 0.14980267D+00 0.17684557D+05 0.17684557D+05 0.17684557D+05 0.12397526D+01  1  2  5  1  6  1       21 -.691248681618D+00 0.100000000000D+01
0.172734605152D-04 0.000000000000D+00 0.248455452559D-05 0.310845629490D-06 0.000000000000D+00  6 21 2 25 24 1 21 4 0.31278382D-02 0.14980267D+00 0.17684557D+05 0.17684557D+05 0.17684557D+05 0.12397526D+01  1  2  6  1  6  1       21 0.828544564179D+00 0.100000000000D+01
0.123165780211D-06 0.000000000000D+00 0.000000000000D+00 0.308718251104D-06 0.000000000000D+00  6 -1 2 25 24 1 -1 4 0.34762211D-02 0.14980267D+00 0.19312110D+05 0.19312110D+05 0.19312110D+05 0.12355030D+01  1  2 12  4  6  1       21 0.261050706524D-03 0.100000000000D+01
0.123884465299D-06 0.000000000000D+00 0.000000000000D+00 0.308718251104D-06 0.000000000000D+00  6 -1 2 25 24 1 -1 4 0.35633223D-02 0.14980267D+00 0.19312110D+05 0.19312110D+05 0.19312110D+05 0.12355030D+01  1  2 12  4  6  1       21 0.253234304211D-03 0.100000000000D+01
-.463450322372D-06 0.000000000000D+00 -.769412079813D-07 0.310845629490D-06 0.000000000000D+00  6 -1 2 25 24 1 -1 4 0.35115130D-02 0.14980267D+00 0.17684557D+05 0.17684557D+05 0.17684557D+05 0.12397526D+01  1  2  5  4  6  1       21 -.979049008895D-03 0.100000000000D+01
0.123165780211D-06 0.000000000000D+00 0.000000000000D+00 0.308718251104D-06 0.000000000000D+00  6 1 2 25 24 1 1 4 0.34762211D-02 0.14980267D+00 0.19312110D+05 0.19312110D+05 0.19312110D+05 0.12355030D+01  1  2 12  5  6  1       21 0.284146381888D-03 0.100000000000D+01
0.123884465299D-06 0.000000000000D+00 0.000000000000D+00 0.308718251104D-06 0.000000000000D+00  6 1 2 25 24 1 1 4 0.35633223D-02 0.14980267D+00 0.19312110D+05 0.19312110D+05 0.19312110D+05 0.12355030D+01  1  2 12  5  6  1       21 0.276198632321D-03 0.100000000000D+01
-.463450322372D-06 0.000000000000D+00 -.769412079813D-07 0.310845629490D-06 0.000000000000D+00  6 1 2 25 24 1 1 4 0.35115130D-02 0.14980267D+00 0.17684557D+05 0.17684557D+05 0.17684557D+05 0.12397526D+01  1  2  5  5  6  1       21 -.106667913059D-02 0.100000000000D+01
0.123165780211D-06 0.000000000000D+00 0.000000000000D+00 0.308718251104D-06 0.000000000000D+00  6 -2 2 25 24 1 -2 4 0.34762211D-02 0.14980267D+00 0.19312110D+05 0.19312110D+05 0.19312110D+05 0.12355030D+01  1  2 12  6  6  1       21 0.256929382402D-03 0.100000000000D+01
0.123884465299D-06 0.000000000000D+00 0.000000000000D+00 0.308718251104D-06 0.000000000000D+00  6 -2 2 25 24 1 -2 4 0.35633223D-02 0.14980267D+00 0.19312110D+05 0.19312110D+05 0.19312110D+05 0.12355030D+01  1  2 12  6  6  1       21 0.249139334447D-03 0.100000000000D+01
-.463450322372D-06 0.000000000000D+00 -.769412079813D-07 0.310845629490D-06 0.000000000000D+00  6 -2 2 25 24 1 -2 4 0.35115130D-02 0.14980267D+00 0.17684557D+05 0.17684557D+05 0.17684557D+05 0.12397526D+01  1  2  5  6  6  1       21 -.963412282395D-03 0.100000000000D+01
0.123165780211D-06 0.000000000000D+00 0.000000000000D+00 0.308718251104D-06 0.000000000000D+00  6 2 2 25 24 1 2 4 0.34762211D-02 0.14980267D+00 0.19312110D+05 0.19312110D+05 0.19312110D+05 0.12355030D+01  1  2 12  7  6  1       21 0.299779827217D-03 0.100000000000D+01
0.123884465299D-06 0.000000000000D+00 0.000000000000D+00 0.308718251104D-06 0.000000000000D+00  6 2 2 25 24 1 2 4 0.35633223D-02 0.14980267D+00 0.19312110D+05 0.19312110D+05 0.19312110D+05 0.12355030D+01  1  2 12  7  6  1       21 0.291732974078D-03 0.100000000000D+01
-.463450322372D-06 0.000000000000D+00 -.769412079813D-07 0.310845629490D-06 0.000000000000D+00  6 2 2 25 24 1 2 4 0.35115130D-02 0.14980267D+00 0.17684557D+05 0.17684557D+05 0.17684557D+05 0.12397526D+01  1  2  5  7  6  1       21 -.112596404417D-02 0.100000000000D+01
0.123165780211D-06 0.000000000000D+00 0.000000000000D+00 0.308718251104D-06 0.000000000000D+00  6 -3 2 25 24 1 -3 4 0.34762211D-02 0.14980267D+00 0.19312110D+05 0.19312110D+05 0.19312110D+05 0.12355030D+01  1  2 12  8  6  1       21 0.192372423179D-03 0.100000000000D+01
0.123165780211D-06 0.000000000000D+00 0.000000000000D+00 0.308718251104D-06 0.000000000000D+00  6 -4 2 25 24 1 -4 4 0.34762211D-02 0.14980267D+00 0.19312110D+05 0.19312110D+05 0.19312110D+05 0.12355030D+01  1  2 12  8  6  1       21 0.172898115183D-03 0.100000000000D+01
0.123884465299D-06 0.000000000000D+00 0.000000000000D+00 0.308718251104D-06 0.000000000000D+00  6 -3 2 25 24 1 -3 4 0.35633223D-02 0.14980267D+00 0.19312110D+05 0.19312110D+05 0.19312110D+05 0.12355030D+01  1  2 12  8  6  1       21 0.186183097989D-03 0.100000000000D+01
0.123884465299D-06 0.000000000000D+00 0.000000000000D+00 0.308718251104D-06 0.000000000000D+00  6 -4 2 25 24 1 -4 4 0.35633223D-02 0.14980267D+00 0.19312110D+05 0.19312110D+05 0.19312110D+05 0.12355030D+01  1  2 12  8  6  1       21 0.167242413466D-03 0.100000000000D+01
-.463450322372D-06 0.000000000000D+00 -.769412079813D-07 0.310845629490D-06 0.000000000000D+00  6 -3 2 25 24 1 -3 4 0.35115130D-02 0.14980267D+00 0.17684557D+05 0.17684557D+05 0.17684557D+05 0.12397526D+01  1  2  5  8  6  1       21 -.719416511968D-03 0.100000000000D+01
-.463450322372D-06 0.000000000000D+00 -.769412079813D-07 0.310845629490D-06 0.000000000000D+00  6 -4 2 25 24 1 -4 4 0.35115130D-02 0.14980267D+00 0.17684557D+05 0.17684557D+05 0.17684557D+05 0.12397526D+01  1  2  5  8  6  1       21 -.645879010387D-03 0.100000000000D+01
0.123165780211D-06 0.000000000000D+00 0.000000000000D+00 0.308718251104D-06 0.000000000000D+00  6 3 2 25 24 1 3 4 0.34762211D-02 0.14980267D+00 0.19312110D+05 0.19312110D+05 0.19312110D+05 0.12355030D+01  1  2 12  9  6  1       21 0.192356818294D-03 0.100000000000D+01
0.123165780211D-06 0.000000000000D+00 0.000000000000D+00 0.308718251104D-06 0.000000000000D+00  6 4 2 25 24 1 4 4 0.34762211D-02 0.14980267D+00 0.19312110D+05 0.19312110D+05 0.19312110D+05 0.12355030D+01  1  2 12  9  6  1       21 0.172898115183D-03 0.100000000000D+01
0.123884465299D-06 0.000000000000D+00 0.000000000000D+00 0.308718251104D-06 0.000000000000D+00  6 3 2 25 24 1 3 4 0.35633223D-02 0.14980267D+00 0.19312110D+05 0.19312110D+05 0.19312110D+05 0.12355030D+01  1  2 12  9  6  1       21 0.186167774850D-03 0.100000000000D+01
0.123884465299D-06 0.000000000000D+00 0.000000000000D+00 0.308718251104D-06 0.000000000000D+00  6 4 2 25 24 1 4 4 0.35633223D-02 0.14980267D+00 0.19312110D+05 0.19312110D+05 0.19312110D+05 0.12355030D+01  1  2 12  9  6  1       21 0.167242413466D-03 0.100000000000D+01
-.463450322372D-06 0.000000000000D+00 -.769412079813D-07 0.310845629490D-06 0.000000000000D+00  6 3 2 25 24 1 3 4 0.35115130D-02 0.14980267D+00 0.17684557D+05 0.17684557D+05 0.17684557D+05 0.12397526D+01  1  2  5  9  6  1       21 -.719357379372D-03 0.100000000000D+01
-.463450322372D-06 0.000000000000D+00 -.769412079813D-07 0.310845629490D-06 0.000000000000D+00  6 4 2 25 24 1 4 4 0.35115130D-02 0.14980267D+00 0.17684557D+05 0.17684557D+05 0.17684557D+05 0.12397526D+01  1  2  5  9  6  1       21 -.645879010387D-03 0.100000000000D+01
  </mgrwgt>
  </event>
  <event>
  5     66 0.46027262E-03 0.11443181E+03 0.75467711E-02 0.11277415E+00
       21 -1    0    0  501  502 0.00000000E+00 0.00000000E+00 0.14840112E+02 0.14859052E+02 0.75000000E+00 0.0000E+00 0.9000E+01
        2 -1    0    0  502    0 0.00000000E+00 0.00000000E+00 -.30005448E+04 0.30005448E+04 0.32000000E+00 0.0000E+00 0.9000E+01
       25  1    1    2    0    0 -.13311108E+03 0.15069428E+02 -.14735239E+04 0.14848715E+04 0.12500000E+03 0.0000E+00 0.9000E+01
       24  1    1    2    0    0 0.61056086E+01 -.53623347E+02 -.82370207E+03 0.82937630E+03 0.80419002E+02 0.0000E+00 0.9000E+01
        1  1    1    2  501    0 0.12700547E+03 0.38553920E+02 -.68847873E+03 0.70115609E+03 0.32000000E+00 0.0000E+00 0.9000E+01
#aMCatNLO 1  0  0  1  2 0.42453213D+02 0.00000000D+00  -5  6  0 0.00000000D+00 0.00000000D+00 0.00000000D+00 0.00000000D+00 0.00000000D+00
  <mgrwgt>
 0.1118372784D+00   23    2    0
 0.211085293897609D+03 0.000000000000000D+00 0.000000000000000D+00 0.211085293897609D+03
 0.211085293897609D+03 0.000000000000000D+00 0.000000000000000D+00 -.211085293897609D+03
 0.184712189988165D+03 -.133111227658167D+03 0.150693829023679D+02 -.234074325909854D+02
 0.984753505420205D+02 0.610553004203393D+01 -.536233713219302D+02 -.178167129678709D+02
 0.138983047265032D+03 0.127005697616133D+03 0.385539884195623D+02 0.412241455588563D+02
 0.000000000000000D+00 0.000000000000000D+00 -.000000000000000D+00 0.000000000000000D+00
 0.253635327922605D+03 0.000000000000000D+00 0.000000000000000D+00 0.253635327922605D+03
 0.223010764313586D+03 0.000000000000000D+00 0.000000000000000D+00 -.223010764313586D+03
 0.199114810077174D+03 -.152233912643576D+03 0.172810744109153D+02 -.234074325909854D+02
 0.977425597015087D+02 -.367026292053405D+01 -.524927226551176D+02 -.178167129678709D+02
 0.127442383366798D+03 0.113732088460948D+03 0.400891875131362D+02 0.412241455588563D+02
 0.523463390907096D+02 0.421720871031623D+02 -.487753926893390D+01 0.306245636090190D+02
0.638714358991D-05 0.000000000000D+00 0.000000000000D+00 0.198641145956D-06 0.000000000000D+00  6 21 2 25 24 1 21 2 0.22845523D-02 0.46162373D+00 0.42601321D+05 0.42601321D+05 0.42601321D+05 0.11992314D+01  1  2  2  1  6  1       21 0.248365832831D-01 0.100000000000D+01
-.464909273883D-06 0.337058827408D-06 -.128938026904D-07 0.198641145956D-06 0.000000000000D+00  6 21 2 25 24 1 21 4 0.22845523D-02 0.46162373D+00 0.42601321D+05 0.42601321D+05 0.42601321D+05 0.11992314D+01  1  2  3  1  6  1       21 -.259991641838D-02 0.100000000000D+01
0.698899079628D-06 0.000000000000D+00 0.000000000000D+00 0.198641145956D-06 0.000000000000D+00  6 21 2 25 24 1 21 4 0.22845523D-02 0.46162373D+00 0.42601321D+05 0.42601321D+05 0.42601321D+05 0.11992314D+01  1  2 15  1  6  1       21 0.390845976621D-02 0.100000000000D+01
0.112514564497D-04 0.000000000000D+00 0.000000000000D+00 0.195741367651D-06 0.000000000000D+00  6 21 2 25 24 1 21 4 0.28001748D-02 0.46162373D+00 0.52185552D+05 0.52185552D+05 0.52185552D+05 0.11904460D+01  1  2 12  1  6  1       21 0.433085690407D-01 0.100000000000D+01
-.395060738858D-05 0.000000000000D+00 0.000000000000D+00 0.198641145956D-06 0.000000000000D+00  6 21 2 25 24 1 21 4 0.22845523D-02 0.46162373D+00 0.42601321D+05 0.42601321D+05 0.42601321D+05 0.11992314D+01  1  2  4  1  6  1       21 -.220930181202D-01 0.100000000000D+01
-.410348940291D-04 0.000000000000D+00 -.100788163474D-04 0.198641145956D-06 0.000000000000D+00  6 21 2 25 24 1 21 4 0.29660789D-02 0.46162373D+00 0.42601321D+05 0.42601321D+05 0.42601321D+05 0.11992314D+01  1  2  5  1  6  1       21 -.149263278075D+00 0.100000000000D+01
0.386856191664D-04 0.000000000000D+00 0.882720340063D-05 0.198641145956D-06 0.000000000000D+00  6 21 2 25 24 1 21 4 0.22845523D-02 0.46162373D+00 0.42601321D+05 0.42601321D+05 0.42601321D+05 0.11992314D+01  1  2  6  1  6  1       21 0.216341944710D+00 0.100000000000D+01
0.659210097702D-06 0.000000000000D+00 0.000000000000D+00 0.195741367651D-06 0.000000000000D+00  6 -1 2 25 24 1 -1 4 0.28001748D-02 0.46162373D+00 0.52185552D+05 0.52185552D+05 0.52185552D+05 0.11904460D+01  1  2 12  4  6  1       21 0.132111027238D-03 0.100000000000D+01
-.262160222960D-05 0.000000000000D+00 -.799867500854D-06 0.198641145956D-06 0.000000000000D+00  6 -1 2 25 24 1 -1 4 0.29660789D-02 0.46162373D+00 0.42601321D+05 0.42601321D+05 0.42601321D+05 0.11992314D+01  1  2  5  4  6  1       21 -.499714752298D-03 0.100000000000D+01
0.659210097702D-06 0.000000000000D+00 0.000000000000D+00 0.195741367651D-06 0.000000000000D+00  6 1 2 25 24 1 1 4 0.28001748D-02 0.46162373D+00 0.52185552D+05 0.52185552D+05 0.52185552D+05 0.11904460D+01  1  2 12  5  6  1       21 0.141359758896D-03 0.100000000000D+01
-.262160222960D-05 0.000000000000D+00 -.799867500854D-06 0.198641145956D-06 0.000000000000D+00  6 1 2 25 24 1 1 4 0.29660789D-02 0.46162373D+00 0.42601321D+05 0.42601321D+05 0.42601321D+05 0.11992314D+01  1  2  5  5  6  1       21 -.536912656307D-03 0.100000000000D+01
0.659210097702D-06 0.000000000000D+00 0.000000000000D+00 0.195741367651D-06 0.000000000000D+00  6 -2 2 25 24 1 -2 4 0.28001748D-02 0.46162373D+00 0.52185552D+05 0.52185552D+05 0.52185552D+05 0.11904460D+01  1  2 12  6  6  1       21 0.130456746527D-03 0.100000000000D+01
-.262160222960D-05 0.000000000000D+00 -.799867500854D-06 0.198641145956D-06 0.000000000000D+00  6 -2 2 25 24 1 -2 4 0.29660789D-02 0.46162373D+00 0.42601321D+05 0.42601321D+05 0.42601321D+05 0.11992314D+01  1  2  5  6  6  1       21 -.493064781335D-03 0.100000000000D+01
0.659210097702D-06 0.000000000000D+00 0.000000000000D+00 0.195741367651D-06 0.000000000000D+00  6 2 2 25 24 1 2 4 0.28001748D-02 0.46162373D+00 0.52185552D+05 0.52185552D+05 0.52185552D+05 0.11904460D+01  1  2 12  7  6  1       21 0.147674068801D-03 0.100000000000D+01
-.262160222960D-05 0.000000000000D+00 -.799867500854D-06 0.198641145956D-06 0.000000000000D+00  6 2 2 25 24 1 2 4 0.29660789D-02 0.46162373D+00 0.42601321D+05 0.42601321D+05 0.42601321D+05 0.11992314D+01  1  2  5  7  6  1       21 -.562256902703D-03 0.100000000000D+01
0.659210097702D-06 0.000000000000D+00 0.000000000000D+00 0.195741367651D-06 0.000000000000D+00  6 -3 2 25 24 1 -3 4 0.28001748D-02 0.46162373D+00 0.52185552D+05 0.52185552D+05 0.52185552D+05 0.11904460D+01  1  2 12  8  6  1       21 0.101211826948D-03 0.100000000000D+01
0.659210097702D-06 0.000000000000D+00 0.000000000000D+00 0.195741367651D-06 0.000000000000D+00  6 -4 2 25 24 1 -4 4 0.28001748D-02 0.46162373D+00 0.52185552D+05 0.52185552D+05 0.52185552D+05 0.11904460D+01  1  2 12  8  6  1       21 0.921872576546D-04 0.100000000000D+01
-.262160222960D-05 0.000000000000D+00 -.799867500854D-06 0.198641145956D-06 0.000000000000D+00  6 -3 2 25 24 1 -3 4 0.29660789D-02 0.46162373D+00 0.42601321D+05 0.42601321D+05 0.42601321D+05 0.11992314D+01  1  2  5  8  6  1       21 -.379537903253D-03 0.100000000000D+01
-.262160222960D-05 0.000000000000D+00 -.799867500854D-06 0.198641145956D-06 0.000000000000D+00  6 -4 2 25 24 1 -4 4 0.29660789D-02 0.46162373D+00 0.42601321D+05 0.42601321D+05 0.42601321D+05 0.11992314D+01  1  2  5  8  6  1       21 -.344730133294D-03 0.100000000000D+01
0.659210097702D-06 0.000000000000D+00 0.000000000000D+00 0.195741367651D-06 0.000000000000D+00  6 3 2 25 24 1 3 4 0.28001748D-02 0.46162373D+00 0.52185552D+05 0.52185552D+05 0.52185552D+05 0.11904460D+01  1  2 12  9  6  1       21 0.101205163604D-03 0.100000000000D+01
0.659210097702D-06 0.000000000000D+00 0.000000000000D+00 0.195741367651D-06 0.000000000000D+00  6 4 2 25 24 1 4 4 0.28001748D-02 0.46162373D+00 0.52185552D+05 0.52185552D+05 0.52185552D+05 0.11904460D+01  1  2 12  9  6  1       21 0.921872576546D-04 0.100000000000D+01
-.262160222960D-05 0.000000000000D+00 -.799867500854D-06 0.198641145956D-06 0.000000000000D+00  6 3 2 25 24 1 3 4 0.29660789D-02 0.46162373D+00 0.42601321D+05 0.42601321D+05 0.42601321D+05 0.11992314D+01  1  2  5  9  6  1       21 -.379511613985D-03 0.100000000000D+01
-.262160222960D-05 0.000000000000D+00 -.799867500854D-06 0.198641145956D-06 0.000000000000D+00  6 4 2 25 24 1 4 4 0.29660789D-02 0.46162373D+00 0.42601321D+05 0.42601321D+05 0.42601321D+05 0.11992314D+01  1  2  5  9  6  1       21 -.344730133294D-03 0.100000000000D+01
  </mgrwgt>
  </event>
  <event>
  6     66 0.46027262E-03 0.23195865E+02 0.75467711E-02 0.12138769E+00
       21 -1    0    0  501  502 0.00000000E+00 0.00000000E+00 0.69294356E+01 0.69699051E+01 0.75000000E+00 0.0000E+00 0.9000E+01
        2 -1    0    0  503    0 0.00000000E+00 0.00000000E+00 -.38542302E+04 0.38542302E+04 0.32000000E+00 0.0000E+00 0.9000E+01
       25  1    1    2    0    0 -.22024042E+02 -.20309950E+02 -.23953481E+04 0.23987946E+04 0.12500000E+03 0.0000E+00 0.9000E+01
       24  1    1    2    0    0 -.24214210E+02 0.47587384E+02 -.68453306E+03 0.69130573E+03 0.80419002E+02 0.0000E+00 0.9000E+01
        1  1    1    2  501    0 0.19204775E+02 -.74879410E+01 -.72534904E+02 0.75407608E+02 0.32000000E+00 0.0000E+00 0.9000E+01
       21  1    1    2  503  502 0.27033477E+02 -.19789493E+02 -.69488467E+03 0.69569225E+03 0.75000000E+00 0.0000E+00 0.9000E+01
#aMCatNLO 2  0  0  2  5 0.33502730D+02 0.00000000D+00  -5  6  0 0.00000000D+00 0.00000000D+00 0.00000000D+00 0.00000000D+00 0.00000000D+00
  <mgrwgt>
 0.1722464050D-01    1    2    0
 0.142820193319268D+03 0.000000000000000D+00 0.000000000000000D+00 0.142820193319268D+03
 0.142820193319268D+03 0.000000000000000D+00 0.000000000000000D+00 -.142820193319268D+03
 0.147302674927116D+03 -.814671265199168D+01 -.304687857865326D+02 -.712626283990695D+02
 0.100841327773547D+03 -.144739241965814D+02 0.404570542694867D+02 0.430753956563229D+02
 0.374963839378728D+02 0.226206368485731D+02 -.998826848295409D+01 0.281872327427467D+02
 0.000000000000000D+00 0.000000000000000D+00 -.000000000000000D+00 -.000000000000000D+00
 0.152666211510002D+03 0.000000000000000D+00 0.000000000000000D+00 0.152666211510002D+03
 0.175445608731000D+03 0.000000000000000D+00 0.000000000000000D+00 -.175445608731000D+03
 0.146972535446270D+03 -.220244925068588D+02 -.203097439416777D+02 -.712626283990695D+02
 0.105705338578468D+03 -.242144971852235D+02 0.475875095454271D+02 0.430753956563229D+02
 0.349205672391273D+02 0.192055122618982D+02 -.748827252219854D+01 0.281872327427467D+02
 0.405133789771360D+02 0.270334774301840D+02 -.197894930815508D+02 -.227793972209984D+02
0.277009938697D-05 0.000000000000D+00 0.000000000000D+00 0.119253810456D-05 0.108236835214D-07  6 21 2 25 24 1 21 4 0.10691575D-02 0.59294856D+00 0.19486351D+05 0.19486351D+05 0.19486351D+05 0.12350720D+01  1  2  1  2  6  2        2 0.172246405014D-01 0.100000000000D+01
  </mgrwgt>
  </event>
  <event>
  6     66 -.46027262E-03 0.13373685E+02 0.75467711E-02 0.12384816E+00
       21 -1    0    0  501  502 0.00000000E+00 0.00000000E+00 0.17409935E+02 0.17426082E+02 0.75000000E+00 0.0000E+00 0.9000E+01
        2 -1    0    0  502    0 -.00000000E+00 -.00000000E+00 -.10845696E+04 0.10845696E+04 0.32000000E+00 0.0000E+00 0.9000E+01
       25  1    1    2    0    0 0.68612043E+01 -.24322528E+02 -.66249650E+03 0.67465938E+03 0.12500000E+03 0.0000E+00 0.9000E+01
       24  1    1    2    0    0 0.23368385E+02 0.21802680E+02 -.36360839E+03 0.37376425E+03 0.80419002E+02 0.0000E+00 0.9000E+01
        1  1    1    2  503    0 -.18649132E+02 0.63143865E+01 -.14852794E+02 0.24665147E+02 0.32000000E+00 0.0000E+00 0.9000E+01
       21  1    1    2  501  503 -.11580457E+02 -.37945383E+01 -.26201946E+02 0.28906919E+02 0.75000000E+00 0.0000E+00 0.9000E+01
#aMCatNLO 2  0  0  5  1 0.70360264D+01 0.00000000D+00  -5  6  0 0.00000000D+00 0.00000000D+00 0.00000000D+00 0.00000000D+00 0.00000000D+00
  <mgrwgt>
 -.4334047453D+00    1    2    0
 0.137445292136467D+03 0.000000000000000D+00 0.000000000000000D+00 0.137445292136467D+03
 0.137445292136467D+03 -.000000000000000D+00 -.000000000000000D+00 -.137445292136467D+03
 0.133034342938689D+03 0.753759554017693D+01 -.243789100980581D+02 -.377092799855983D+02
 0.869541179035663D+02 0.238106075047647D+02 0.217658175193421D+02 -.728744289758170D+01
 0.549021234306791D+02 -.313482030449416D+02 0.261309257871604D+01 0.449967228831800D+02
 0.000000000000000D+00 -.000000000000000D+00 0.000000000000000D+00 0.000000000000000D+00
 0.137445292136467D+03 0.000000000000000D+00 0.000000000000000D+00 0.137445292136467D+03
 0.137445292136467D+03 -.000000000000000D+00 -.000000000000000D+00 -.137445292136467D+03
 0.132713820796930D+03 0.685785137997633D+01 -.243222486550434D+02 -.367335857946375D+02
 0.867915665687372D+02 0.233661919621700D+02 0.218028626716449D+02 -.664953574269814D+01
 0.410416030929078D+02 -.184859900844308D+02 0.635658831516793D+01 0.360870494779717D+02
 0.143435938143597D+02 -.117380532577156D+02 -.383720233176948D+01 0.729607205936403D+01
-.797080832378D-05 0.000000000000D+00 0.000000000000D+00 0.166061994895D-05 0.000000000000D+00  6 21 2 25 24 1 21 4 0.26796972D-02 0.16685810D+00 0.15124446D+05 0.15124446D+05 0.15124446D+05 0.12474137D+01  1  2 13  3  6  5        1 -.433404745348D+00 0.100000000000D+01
  </mgrwgt>
  </event>
  <event>
  6     66 -.46027262E-03 0.13859607E+03 0.75467711E-02 0.11123295E+00
       21 -1    0    0  503  502 0.00000000E+00 0.00000000E+00 0.62309162E+02 0.62313676E+02 0.75000000E+00 0.0000E+00 0.9000E+01
        2 -1    0    0  502    0 0.00000000E+00 0.00000000E+00 -.16777423E+04 0.16777423E+04 0.32000000E+00 0.0000E+00 0.9000E+01
       25  1    1    2    0    0 0.25356937E+02 0.10314529E+03 -.68305255E+03 0.70247257E+03 0.12500000E+03 0.0000E+00 0.9000E+01
       24  1    1    2    0    0 -.10562159E+03 0.55815531E+02 -.71261505E+03 0.72702044E+03 0.80419002E+02 0.0000E+00 0.9000E+01
        1  1    1    2  501    0 0.43409425E+02 -.15131255E+03 -.10359904E+03 0.18844821E+03 0.32000000E+00 0.0000E+00 0.9000E+01
       21  1    1    2  503  501 0.36855225E+02 -.76482783E+01 -.11616650E+03 0.12211479E+03 0.75000000E+00 0.0000E+00 0.9000E+01
#aMCatNLO 2  0  0  1  2 0.37640454D+02 0.00000000D+00  -5  6  0 0.00000000D+00 0.00000000D+00 0.00000000D+00 0.00000000D+00 0.00000000D+00
  <mgrwgt>
 -.5648722853D-01    2    2    0
 0.303527809521869D+03 0.000000000000000D+00 0.000000000000000D+00 0.303527809521869D+03
 0.303527809521869D+03 0.000000000000000D+00 0.000000000000000D+00 -.303527809521869D+03
 0.185530117003425D+03 0.365918687911825D+02 0.100813829612095D+03 -.854051006241239D+02
 0.170588635701500D+03 -.950693908063051D+02 0.536257485317569D+02 -.103534326202739D+03
 0.250936866338814D+03 0.584775220151226D+02 -.154439578143852D+03 0.188939426826863D+03
 0.000000000000000D+00 0.000000000000000D+00 -.000000000000000D+00 -.000000000000000D+00
 0.319349955675918D+03 0.000000000000000D+00 0.000000000000000D+00 0.319349955675918D+03
 0.327353425806355D+03 0.000000000000000D+00 0.000000000000000D+00 -.327353425806355D+03
 0.184935026293106D+03 0.253569195411828D+02 0.103145331299080D+03 -.854051006241239D+02
 0.177363674540412D+03 -.105621602310476D+03 0.558155669613680D+02 -.103534326202739D+03
 0.245922745988017D+03 0.434094579074063D+02 -.151312619925796D+03 0.188939426826863D+03
 0.384819346607385D+02 0.368552248618869D+02 -.764827833465238D+01 -.800347013043640D+01
-.298635838872D-04 0.000000000000D+00 0.000000000000D+00 0.428051030060D-06 0.000000000000D+00  6 21 2 25 24 1 21 4 0.99218329D-02 0.23932561D+00 0.63277104D+05 0.63277104D+05 0.63277104D+05 0.11822836D+01  1  2 13  1  6  1       21 -.773119713760D-01 0.100000000000D+01
0.878052913917D-05 0.000000000000D+00 0.000000000000D+00 0.432829351549D-06 0.244500116061D-08  6 21 2 25 24 1 21 4 0.95862658D-02 0.25811163D+00 0.63277104D+05 0.63277104D+05 0.63277104D+05 0.11822836D+01  1  2  1  1  6  1       21 0.208247428420D-01 0.100000000000D+01
  </mgrwgt>
  </event>
  <event>
  6     66 -.46027262E-03 0.10368615E+03 0.75467711E-02 0.11340585E+00
       21 -1    0    0  503  502 0.00000000E+00 0.00000000E+00 0.59904476E+02 0.59909170E+02 0.75000000E+00 0.0000E+00 0.9000E+01
        2 -1    0    0  502    0 0.00000000E+00 0.00000000E+00 -.12148081E+04 0.12148081E+04 0.32000000E+00 0.0000E+00 0.9000E+01
       25  1    1    2    0    0 -.17059388E+03 0.49768855E+01 -.89504074E+03 0.91970103E+03 0.12500000E+03 0.0000E+00 0.9000E+01
       24  1    1    2    0    0 0.54866169E+02 0.40143466E+01 -.15290829E+03 0.18131346E+03 0.80419002E+02 0.0000E+00 0.9000E+01
        1  1    1    2  501    0 0.11231191E+03 0.85875546E+01 -.10759145E+03 0.15576820E+03 0.32000000E+00 0.0000E+00 0.9000E+01
       21  1    1    2  503  501 0.34158012E+01 -.17578787E+02 0.63688345E+00 0.17934591E+02 0.75000000E+00 0.0000E+00 0.9000E+01
#aMCatNLO 2  0  0  1  5 0.17907580D+02 0.00000000D+00  -5  6  0 0.00000000D+00 0.00000000D+00 0.00000000D+00 0.00000000D+00 0.00000000D+00
  <mgrwgt>
 -.4136346410D-01    3    2    0
 0.246935343878199D+03 0.000000000000000D+00 0.000000000000000D+00 0.246935343878199D+03
 0.246935343878199D+03 0.000000000000000D+00 0.000000000000000D+00 -.246935343878199D+03
 0.244878660253749D+03 -.168896767175466D+03 -.375770442664805D+01 -.125699323557407D+03
 0.103866718958105D+03 0.555832046371500D+02 0.323955380248367D+00 0.350924745198702D+02
 0.145125308544545D+03 0.113313562538316D+03 0.343374904639968D+01 0.906068490375363D+02
 0.000000000000000D+00 0.000000000000000D+00 -.000000000000000D+00 0.000000000000000D+00
 0.292420753889211D+03 0.000000000000000D+00 0.000000000000000D+00 0.292420753889211D+03
 0.248866483051603D+03 0.000000000000000D+00 0.000000000000000D+00 -.248866483051603D+03
 0.246073990173689D+03 -.170594018934470D+03 0.497688667712892D+01 -.125699323557407D+03
 0.103562072407128D+03 0.548661112866888D+02 0.401434318882535D+01 0.350924745198702D+02
 0.144559179870745D+03 0.112312106477143D+03 0.858755675720730D+01 0.906068490375363D+02
 0.470919944892512D+02 0.341580117063785D+01 -.175787866231616D+02 0.435542708376077D+02
-.293600321565D-04 0.000000000000D+00 0.000000000000D+00 0.129810476786D-06 0.000000000000D+00  6 21 2 25 24 1 21 4 0.92431670D-02 0.18544145D+00 0.48296573D+05 0.48296573D+05 0.48296573D+05 0.11937755D+01  1  2 13  1  6  1       21 -.140076540026D+00 0.100000000000D+01
-.248020782288D-04 0.000000000000D+00 0.000000000000D+00 0.129810476786D-06 0.000000000000D+00  6 21 2 25 24 1 21 4 0.95001757D-02 0.18544145D+00 0.48296573D+05 0.48296573D+05 0.48296573D+05 0.11937755D+01  1  2 13  1  6  1       21 -.112741066422D+00 0.100000000000D+01
0.446367913105D-04 0.000000000000D+00 0.000000000000D+00 0.130611933871D-06 0.692212452398D-08  6 21 2 25 24 1 21 4 0.92163277D-02 0.18689169D+00 0.48296573D+05 0.48296573D+05 0.48296573D+05 0.11937755D+01  1  2  1  1  6  1       21 0.211454142347D+00 0.100000000000D+01
  </mgrwgt>
  </event>
  <event>
  5     66 0.46027262E-03 0.22110123E+02 0.75467711E-02 0.11227639E+00
       21 -1    0    0  501  502 0.00000000E+00 0.00000000E+00 0.26128129E+02 0.26138891E+02 0.75000000E+00 0.0000E+00 0.9000E+01
        2 -1    0    0  502    0 0.00000000E+00 0.00000000E+00 -.17819922E+04 0.17819922E+04 0.32000000E+00 0.0000E+00 0.9000E+01
       25  1    1    2    0    0 -.10467134E+02 0.12126322E+02 -.74595905E+03 0.75652925E+03 0.12500000E+03 0.0000E+00 0.9000E+01
       24  1    1    2    0    0 0.17813802E+02 -.32980164E+02 -.10223736E+04 0.10262163E+04 0.80419002E+02 0.0000E+00 0.9000E+01
        1  1    1    2  501    0 -.73466675E+01 0.20853842E+02 0.12468576E+02 0.25385508E+02 0.32000000E+00 0.0000E+00 0.9000E+01
#aMCatNLO 1  0  0  2  1 0.14437045D+02 0.00000000D+00  -5  6  0 0.00000000D+00 0.00000000D+00 0.00000000D+00 0.00000000D+00 0.00000000D+00
  <mgrwgt>
 0.1220217874D+01    6    2    0
 0.215800547799240D+03 0.000000000000000D+00 0.000000000000000D+00 0.215800547799240D+03
 0.215800547799240D+03 0.000000000000000D+00 0.000000000000000D+00 -.215800547799240D+03
 0.134618304494680D+03 -.104671292232140D+02 0.121263082405245D+02 -.473337063761409D+02
 0.139908584473361D+03 0.178138064501485D+02 -.329801775445478D+02 -.108176578998671D+03
 0.157074206630438D+03 -.734667722693449D+01 0.208538693040233D+02 0.155510285374812D+03
 0.000000000000000D+00 0.000000000000000D+00 0.000000000000000D+00 -.000000000000000D+00
 0.274239718822157D+03 0.000000000000000D+00 0.000000000000000D+00 0.274239718822157D+03
 0.396795408727923D+03 0.000000000000000D+00 0.000000000000000D+00 -.396795408727923D+03
 0.145658387997572D+03 -.561967275646470D+02 -.138857497375288D+02 -.473337063761409D+02
 0.150447782392758D+03 -.295603790898513D+02 -.599277149300447D+02 -.108176578998671D+03
 0.167019920540949D+03 -.602254739922936D+02 -.922481883577531D+01 0.155510285374812D+03
 0.207909036618801D+03 0.145982580646792D+03 0.830382835033488D+02 -.122555689905765D+03
0.582140308458D-04 0.000000000000D+00 0.000000000000D+00 0.136970513496D-04 0.000000000000D+00  6 21 2 25 24 1 21 2 0.40205422D-02 0.27415347D+00 0.14025430D+05 0.14025430D+05 0.14025430D+05 0.12511623D+01  1  2  2  2  6  2        2 0.449490594480D+00 0.100000000000D+01
0.154447449484D-04 0.307203880723D-05 -.117517356072D-06 0.136970513496D-04 0.000000000000D+00  6 21 2 25 24 1 21 4 0.40205422D-02 0.27415347D+00 0.14025430D+05 0.14025430D+05 0.14025430D+05 0.12511623D+01  1  2  3  2  6  2        2 0.186681369432D+00 0.100000000000D+01
0.587609836980D-05 0.000000000000D+00 0.000000000000D+00 0.136970513496D-04 0.000000000000D+00  6 21 2 25 24 1 21 4 0.40205422D-02 0.27415347D+00 0.14025430D+05 0.14025430D+05 0.14025430D+05 0.12511623D+01  1  2 15  2  6  2        2 0.710246814857D-01 0.100000000000D+01
-.206352663462D-04 0.000000000000D+00 -.402209768679D-04 0.136970513496D-04 0.000000000000D+00  6 21 2 25 24 1 21 4 0.40205422D-02 0.53672349D+00 0.14025430D+05 0.14025430D+05 0.14025430D+05 0.12511623D+01  1  2  5  2  6  2        2 -.285227864115D-01 0.100000000000D+01
0.447954231266D-04 0.000000000000D+00 0.325868650538D-04 0.136970513496D-04 0.000000000000D+00  6 21 2 25 24 1 21 4 0.40205422D-02 0.27415347D+00 0.14025430D+05 0.14025430D+05 0.14025430D+05 0.12511623D+01  1  2  6  2  6  2        2 0.541444417598D+00 0.100000000000D+01
0.867117359168D-06 0.000000000000D+00 -.292730172045D-05 0.136970513496D-04 0.000000000000D+00  6 21 21 25 24 1 -2 4 0.40205422D-02 0.53672349D+00 0.14025430D+05 0.14025430D+05 0.14025430D+05 0.12511623D+01  1  2  5 10  6  2        2 0.995975600923D-04 0.100000000000D+01
  </mgrwgt>
  </event>
  <event>
  5     66 0.46027262E-03 0.20595262E+02 0.75467711E-02 0.11395768E+00
       21 -1    0    0  501  502 0.00000000E+00 0.00000000E+00 0.13820972E+03 0.13821175E+03 0.75000000E+00 0.0000E+00 0.9000E+01
        2 -1    0    0  502    0 0.00000000E+00 0.00000000E+00 -.18013161E+03 0.18013190E+03 0.32000000E+00 0.0000E+00 0.9000E+01
       25  1    1    2    0    0 -.88277429E+02 0.59495468E+02 -.13210200E+02 0.16471832E+03 0.12500000E+03 0.0000E+00 0.9000E+01
       24  1    1    2    0    0 0.72200062E+02 -.72363575E+02 -.27849639E+02 0.13301186E+03 0.80419002E+02 0.0000E+00 0.9000E+01
        1  1    1    2  501    0 0.16077366E+02 0.12868107E+02 -.86205716E+00 0.20613477E+02 0.32000000E+00 0.0000E+00 0.9000E+01
#aMCatNLO 1  0  0  2  1 0.14437045D+02 0.00000000D+00  -5  6  0 0.00000000D+00 0.00000000D+00 0.00000000D+00 0.00000000D+00 0.00000000D+00
  <mgrwgt>
 0.1755906715D+00    4    2    0
 0.157785642852574D+03 0.000000000000000D+00 0.000000000000000D+00 0.157785642852574D+03
 0.157785642852574D+03 0.000000000000000D+00 0.000000000000000D+00 -.157785642852574D+03
 0.164410747904222D+03 -.882784317108910D+02 0.594946651631195D+02 0.855554429709237D+01
 0.130480648378399D+03 0.721992663573148D+02 -.723642121284312D+02 -.104245089751843D+02
 0.206798894225275D+02 0.160791653535762D+02 0.128695469653117D+02 0.186896467809197D+01
 0.000000000000000D+00 -.000000000000000D+00 0.000000000000000D+00 0.000000000000000D+00
 0.215630102238947D+03 0.000000000000000D+00 0.000000000000000D+00 0.215630102238947D+03
 0.210249991435343D+03 0.000000000000000D+00 0.000000000000000D+00 -.210249991435343D+03
 0.141150484067798D+03 -.606081041599941D+02 0.234929675538326D+02 0.855554429709237D+01
 0.167181956980218D+03 0.991543278249309D+02 -.107435281316602D+03 -.104245089751843D+02
 0.214906114145118D+02 0.198979468253471D+02 0.790095324231511D+01 0.186896467809197D+01
 0.960570412117621D+02 -.584441704902840D+02 0.760413605204544D+02 0.538011080360330D+01
0.211022340267D-04 0.000000000000D+00 0.000000000000D+00 0.618003288220D-06 0.000000000000D+00  6 21 2 25 24 1 21 2 0.21263212D-01 0.27712735D-01 0.24782129D+05 0.24782129D+05 0.24782129D+05 0.12237054D+01  1  2  2  2  6  2        2 0.153088580346D+00 0.100000000000D+01
0.191604429486D-05 0.111359548390D-05 -.425993306768D-07 0.618003288220D-06 0.000000000000D+00  6 21 2 25 24 1 21 4 0.21263212D-01 0.27712735D-01 0.24782129D+05 0.24782129D+05 0.24782129D+05 0.12237054D+01  1  2  3  2  6  2        2 0.208148682126D-01 0.100000000000D+01
0.238800954011D-05 0.000000000000D+00 0.000000000000D+00 0.618003288220D-06 0.000000000000D+00  6 21 2 25 24 1 21 4 0.21263212D-01 0.27712735D-01 0.24782129D+05 0.24782129D+05 0.24782129D+05 0.12237054D+01  1  2 15  2  6  2        2 0.259420431986D-01 0.100000000000D+01
-.223269777776D-05 0.000000000000D+00 0.000000000000D+00 0.618003288220D-06 0.000000000000D+00  6 21 2 25 24 1 21 4 0.21263212D-01 0.27712735D-01 0.24782129D+05 0.24782129D+05 0.24782129D+05 0.12237054D+01  1  2  4  2  6  2        2 -.242548202708D-01 0.100000000000D+01
  </mgrwgt>
  </event>
  <event>
  5     66 0.46027262E-03 0.33907164E+02 0.75467711E-02 0.12208697E+00
       21 -1    0    0  501  502 0.00000000E+00 0.00000000E+00 0.17787117E+02 0.17802922E+02 0.75000000E+00 0.0000E+00 0.9000E+01
        2 -1    0    0  502    0 0.00000000E+00 0.00000000E+00 -.10408733E+04 0.10408733E+04 0.32000000E+00 0.0000E+00 0.9000E+01
       25  1    1    2    0    0 0.30984448E+01 -.48237549E+02 -.63296306E+03 0.64699590E+03 0.12500000E+03 0.0000E+00 0.9000E+01
       24  1    1    2    0    0 -.31285577E+02 0.29392670E+02 -.33299516E+03 0.34524732E+03 0.80419002E+02 0.0000E+00 0.9000E+01
        1  1    1    2  501    0 0.28187132E+02 0.18844879E+02 -.57127954E+02 0.66433045E+02 0.32000000E+00 0.0000E+00 0.9000E+01
#aMCatNLO 1  0  0  2  1 0.98950038D+01 0.00000000D+00  -5  6  0 0.00000000D+00 0.00000000D+00 0.00000000D+00 0.00000000D+00 0.00000000D+00
  <mgrwgt>
 0.4764908096D+00   11    2    0
 0.136097490722264D+03 0.000000000000000D+00 0.000000000000000D+00 0.136097490722264D+03
 0.136097490722264D+03 0.000000000000000D+00 0.000000000000000D+00 -.136097490722264D+03
 0.137340855163820D+03 0.309806275389705D+01 -.482378043497664D+02 -.300171073858878D+02
 0.911934527800267D+02 -.312858305444798D+02 0.293925002647242D+02 0.251149575008631D+01
 0.436606735006809D+02 0.281877677905827D+02 0.188453040850422D+02 0.275056116358015D+02
 0.000000000000000D+00 -.000000000000000D+00 0.000000000000000D+00 -.000000000000000D+00
 0.140248379798956D+03 0.000000000000000D+00 0.000000000000000D+00 0.140248379798956D+03
 0.142214925095591D+03 0.000000000000000D+00 0.000000000000000D+00 -.142214925095591D+03
 0.139169751552856D+03 0.415206256916474D+01 -.531502905720130D+02 -.300171073858878D+02
 0.899703819227834D+02 -.305952724115485D+02 0.261739443745380D+02 0.251149575008631D+01
 0.432346432986010D+02 0.285189943172668D+02 0.173015222691366D+02 0.275056116358015D+02
 0.100885281203073D+02 -.207578447488299D+01 0.967482392833842D+01 -.196654529663484D+01
0.108323451062D-05 0.000000000000D+00 0.000000000000D+00 0.979367655354D-06 0.000000000000D+00  6 21 2 25 24 1 21 2 0.27376991D-02 0.16013557D+00 0.16781452D+05 0.16781452D+05 0.16781452D+05 0.12423043D+01  1  2  2  2  6  2        2 0.384884758721D-01 0.100000000000D+01
0.248982042803D-07 0.571638556137D-07 -.218673838324D-08 0.979367655354D-06 0.000000000000D+00  6 21 2 25 24 1 21 4 0.27376991D-02 0.16013557D+00 0.16781452D+05 0.16781452D+05 0.16781452D+05 0.12423043D+01  1  2  3  2  6  2        2 0.136531303252D-02 0.100000000000D+01
0.107921408086D-06 0.000000000000D+00 0.000000000000D+00 0.979367655354D-06 0.000000000000D+00  6 21 2 25 24 1 21 4 0.27376991D-02 0.16013557D+00 0.16781452D+05 0.16781452D+05 0.16781452D+05 0.12423043D+01  1  2 15  2  6  2        2 0.591795710604D-02 0.100000000000D+01
0.722232883730D-05 0.000000000000D+00 0.000000000000D+00 0.973573951617D-06 0.000000000000D+00  6 21 2 25 24 1 21 4 0.27376991D-02 0.16968336D+00 0.18101169D+05 0.18101169D+05 0.18101169D+05 0.12386243D+01  1  2 12  2  6  2        2 0.360716126760D+00 0.100000000000D+01
-.170809897090D-05 0.000000000000D+00 0.000000000000D+00 0.979367655354D-06 0.000000000000D+00  6 21 2 25 24 1 21 4 0.27376991D-02 0.16013557D+00 0.16781452D+05 0.16781452D+05 0.16781452D+05 0.12423043D+01  1  2  4  2  6  2        2 -.936649791906D-01 0.100000000000D+01
-.327927876814D-04 0.000000000000D+00 -.553092279588D-05 0.979367655354D-06 0.000000000000D+00  6 21 2 25 24 1 21 4 0.27376991D-02 0.17075410D+00 0.16781452D+05 0.16781452D+05 0.16781452D+05 0.12423043D+01  1  2  5  2  6  2        2 -.164071393661D+01 0.100000000000D+01
0.330910475361D-04 0.000000000000D+00 0.551954278018D-05 0.979367655354D-06 0.000000000000D+00  6 21 2 25 24 1 21 4 0.27376991D-02 0.16013557D+00 0.16781452D+05 0.16781452D+05 0.16781452D+05 0.12423043D+01  1  2  6  2  6  2        2 0.181457417379D+01 0.100000000000D+01
0.281185311462D-13 0.000000000000D+00 0.000000000000D+00 0.979367655354D-06 0.922640892362D-07  6 21 2 25 24 1 21 4 0.28211972D-02 0.16733349D+00 0.18101169D+05 0.18101169D+05 0.18101169D+05 0.12386243D+01  1  2 11  2  6  2        2 0.136423252827D-08 0.100000000000D+01
0.836736971452D-07 0.000000000000D+00 0.000000000000D+00 0.973573951617D-06 0.000000000000D+00  6 21 21 25 24 1 -2 4 0.27376991D-02 0.16968336D+00 0.18101169D+05 0.18101169D+05 0.18101169D+05 0.12386243D+01  1  2 12 10  6  2        2 0.319475940395D-02 0.100000000000D+01
-.351538947975D-06 0.000000000000D+00 -.606205194322D-07 0.979367655354D-06 0.000000000000D+00  6 21 21 25 24 1 -2 4 0.27376991D-02 0.17075410D+00 0.16781452D+05 0.16781452D+05 0.16781452D+05 0.12423043D+01  1  2  5 10  6  2        2 -.133870819411D-01 0.100000000000D+01
0.874377345156D-15 0.000000000000D+00 0.000000000000D+00 0.979367655354D-06 0.789982199881D-09  6 21 21 25 24 1 -2 4 0.28211972D-02 0.16733349D+00 0.18101169D+05 0.18101169D+05 0.18101169D+05 0.12386243D+01  1  2 11 10  6  2        2 0.330027758266D-10 0.100000000000D+01
  </mgrwgt>
  </event>
  <event>
  6     66 0.46027262E-03 0.60327857E+02 0.75467711E-02 0.11778354E+00
       21 -1    0    0  501  502 0.00000000E+00 0.00000000E+00 0.14623452E+02 0.14642672E+02 0.75000000E+00 0.0000E+00 0.9000E+01
        2 -1    0    0  502    0 -.00000000E+00 -.00000000E+00 -.20261638E+04 0.20261638E+04 0.32000000E+00 0.0000E+00 0.9000E+01
       25  1    1    2    0    0 0.46387944E+02 -.42062637E+02 -.77549118E+03 0.78799281E+03 0.12500000E+03 0.0000E+00 0.9000E+01
       24  1    1    2    0    0 -.10719690E+03 0.21252598E+02 -.90897708E+03 0.91904809E+03 0.80419002E+02 0.0000E+00 0.9000E+01
        1  1    1    2  503    0 0.50960162E+02 0.15077734E+02 -.29431789E+03 0.29907758E+03 0.32000000E+00 0.0000E+00 0.9000E+01
       21  1    1    2  501  503 0.98487944E+01 0.57323054E+01 -.32754205E+02 0.34688017E+02 0.75000000E+00 0.0000E+00 0.9000E+01
#aMCatNLO 2  0  0  5  1 0.68986155D+01 0.00000000D+00  -5  6  0 0.00000000D+00 0.00000000D+00 0.00000000D+00 0.00000000D+00 0.00000000D+00
  <mgrwgt>
 0.1774551686D+00    3    2    0
 0.172189278421827D+03 0.000000000000000D+00 0.000000000000000D+00 0.172189278421827D+03
 0.172189278421827D+03 -.000000000000000D+00 -.000000000000000D+00 -.172189278421827D+03
 0.139792108122802D+03 0.455509496162035D+02 -.423490733992788D+02 0.696422750214941D+01
 0.137549702863154D+03 -.108018030740633D+03 0.209715904049928D+02 -.185742357628075D+02
 0.670367458576983D+02 0.624670811244298D+02 0.213774829942861D+02 0.116100082606581D+02
 0.000000000000000D+00 0.000000000000000D+00 0.000000000000000D+00 0.000000000000000D+00
 0.172189278421827D+03 0.000000000000000D+00 0.000000000000000D+00 0.172189278421827D+03
 0.172189278421827D+03 -.000000000000000D+00 -.000000000000000D+00 -.172189278421827D+03
 0.139989526339994D+03 0.463919850095141D+02 -.420612542872849D+02 0.712054067843489D+01
 0.136925539105077D+03 -.107192946586965D+03 0.212539506841416D+02 -.184208872524017D+02
 0.530969270998282D+02 0.508576039322636D+02 0.150169334200092D+02 0.269805492392121D+01
 0.143665642987552D+02 0.994335764518689D+01 0.579037018313406D+01 0.860229165004556D+01
-.446190065159D-05 0.000000000000D+00 0.000000000000D+00 0.232362171130D-06 0.000000000000D+00  6 21 2 25 24 1 21 4 0.22512423D-02 0.31171899D+00 0.28904062D+05 0.28904062D+05 0.28904062D+05 0.12165984D+01  1  2 13  3  6  5        1 -.929727344761D-01 0.100000000000D+01
-.679573679540D-06 0.000000000000D+00 0.000000000000D+00 0.232166620282D-06 0.000000000000D+00  6 21 2 25 24 1 21 4 0.22512423D-02 0.31171899D+00 0.29229389D+05 0.29229389D+05 0.29229389D+05 0.12160863D+01  1  2  8  3  6  5        1 -.141342153151D-01 0.100000000000D+01
0.136565618815D-04 0.000000000000D+00 0.000000000000D+00 0.232166620282D-06 0.776115177058D-07  6 21 2 25 24 1 21 4 0.22512423D-02 0.31171899D+00 0.28904062D+05 0.28904062D+05 0.28904062D+05 0.12165984D+01  1  2  1  3  6  5        1 0.284562118436D+00 0.100000000000D+01
  </mgrwgt>
  </event>
  <event>
  5     66 0.46027262E-03 0.68602104E+02 0.75467711E-02 0.11732147E+00
       21 -1    0    0  501  502 0.00000000E+00 0.00000000E+00 0.19895925E+02 0.19910056E+02 0.75000000E+00 0.0000E+00 0.9000E+01
        2 -1    0    0  502    0 0.00000000E+00 0.00000000E+00 -.19979871E+04 0.19979872E+04 0.32000000E+00 0.0000E+00 0.9000E+01
       25  1    1    2    0    0 0.63436089E+02 0.61752976E+02 -.10425768E+04 0.10537689E+04 0.12500000E+03 0.0000E+00 0.9000E+01
       24  1    1    2    0    0 -.88429783E+01 0.30524103E+01 -.80145520E+03 0.80553409E+03 0.80419002E+02 0.0000E+00 0.9000E+01
        1  1    1    2  501    0 -.54593110E+02 -.64805387E+02 -.13405920E+03 0.15859419E+03 0.32000000E+00 0.0000E+00 0.9000E+01
#aMCatNLO 1  0  0  1  2 0.32947222D+02 0.00000000D+00  -5  6  0 0.00000000D+00 0.00000000D+00 0.00000000D+00 0.00000000D+00 0.00000000D+00
  <mgrwgt>
 0.8986354000D-01   23    2    0
 0.199414356248653D+03 0.000000000000000D+00 0.000000000000000D+00 0.199414356248653D+03
 0.199414356248653D+03 0.000000000000000D+00 0.000000000000000D+00 -.199414356248653D+03
 0.160684056352964D+03 0.634361480948251D+02 0.617530470327426D+02 -.485467018767072D+02
 0.100628480372945D+03 -.884294103422804D+01 0.305245461892681D+01 -.597608569421676D+02
 0.137516175771397D+03 -.545932070605971D+02 -.648055016516694D+02 0.108307558818875D+03
 0.000000000000000D+00 -.000000000000000D+00 -.000000000000000D+00 0.000000000000000D+00
 0.229788276238741D+03 0.000000000000000D+00 0.000000000000000D+00 0.229788276238741D+03
 0.209232661306998D+03 0.000000000000000D+00 0.000000000000000D+00 -.209232661306998D+03
 0.168444681922384D+03 0.714659187727526D+02 0.726942298865157D+02 -.485467018767072D+02
 0.100742333350586D+03 -.393008698234377D+01 0.974659778584471D+01 -.597608569421676D+02
 0.131000267564729D+03 -.480421976454363D+02 -.558792452537017D+02 0.108307558818875D+03
 0.388336547080405D+02 -.194936341449725D+02 -.265615824186586D+02 0.205556149317426D+02
0.167549880012D-05 0.000000000000D+00 0.000000000000D+00 0.752069177677D-06 0.000000000000D+00  6 21 2 25 24 1 21 2 0.30620005D-02 0.30738373D+00 0.25419869D+05 0.25419869D+05 0.25419869D+05 0.12225229D+01  1  2  2  1  6  1       21 0.149032516315D-01 0.100000000000D+01
-.260435479827D-07 0.884185008435D-07 -.338234934484D-08 0.752069177677D-06 0.000000000000D+00  6 21 2 25 24 1 21 4 0.30620005D-02 0.30738373D+00 0.25419869D+05 0.25419869D+05 0.25419869D+05 0.12225229D+01  1  2  3  1  6  1       21 -.346219137219D-03 0.100000000000D+01
0.159117196245D-06 0.000000000000D+00 0.000000000000D+00 0.752069177677D-06 0.000000000000D+00  6 21 2 25 24 1 21 4 0.30620005D-02 0.30738373D+00 0.25419869D+05 0.25419869D+05 0.25419869D+05 0.12225229D+01  1  2 15  1  6  1       21 0.211528085334D-02 0.100000000000D+01
0.339594852093D-05 0.000000000000D+00 0.000000000000D+00 0.741875718088D-06 0.000000000000D+00  6 21 2 25 24 1 21 4 0.35954864D-02 0.30738373D+00 0.30457148D+05 0.30457148D+05 0.30457148D+05 0.12142097D+01  1  2 12  1  6  1       21 0.335407421189D-01 0.100000000000D+01
-.307667779067D-06 0.000000000000D+00 0.000000000000D+00 0.752069177677D-06 0.000000000000D+00  6 21 2 25 24 1 21 4 0.30620005D-02 0.30738373D+00 0.25419869D+05 0.25419869D+05 0.25419869D+05 0.12225229D+01  1  2  4  1  6  1       21 -.409009068539D-02 0.100000000000D+01
-.129597056879D-04 0.000000000000D+00 -.321252355929D-05 0.752069177677D-06 0.000000000000D+00  6 21 2 25 24 1 21 4 0.37277519D-02 0.30738373D+00 0.25419869D+05 0.25419869D+05 0.25419869D+05 0.12225229D+01  1  2  5  1  6  1       21 -.124362556190D+00 0.100000000000D+01
0.127526389132D-04 0.000000000000D+00 0.297685044310D-05 0.752069177677D-06 0.000000000000D+00  6 21 2 25 24 1 21 4 0.30620005D-02 0.30738373D+00 0.25419869D+05 0.25419869D+05 0.25419869D+05 0.12225229D+01  1  2  6  1  6  1       21 0.169531726043D+00 0.100000000000D+01
0.149936482795D-06 0.000000000000D+00 0.000000000000D+00 0.741875718088D-06 0.000000000000D+00  6 -1 2 25 24 1 -1 4 0.35954864D-02 0.30738373D+00 0.30457148D+05 0.30457148D+05 0.30457148D+05 0.12142097D+01  1  2 12  4  6  1       21 0.799623013359D-04 0.100000000000D+01
-.544577005114D-06 0.000000000000D+00 -.180687797231D-06 0.752069177677D-06 0.000000000000D+00  6 -1 2 25 24 1 -1 4 0.37277519D-02 0.30738373D+00 0.25419869D+05 0.25419869D+05 0.25419869D+05 0.12225229D+01  1  2  5  4  6  1       21 -.283222563229D-03 0.100000000000D+01
0.149936482795D-06 0.000000000000D+00 0.000000000000D+00 0.741875718088D-06 0.000000000000D+00  6 1 2 25 24 1 1 4 0.35954864D-02 0.30738373D+00 0.30457148D+05 0.30457148D+05 0.30457148D+05 0.12142097D+01  1  2 12  5  6  1       21 0.872237908317D-04 0.100000000000D+01
-.544577005114D-06 0.000000000000D+00 -.180687797231D-06 0.752069177677D-06 0.000000000000D+00  6 1 2 25 24 1 1 4 0.37277519D-02 0.30738373D+00 0.25419869D+05 0.25419869D+05 0.25419869D+05 0.12225229D+01  1  2  5  5  6  1       21 -.309967084856D-03 0.100000000000D+01
0.149936482795D-06 0.000000000000D+00 0.000000000000D+00 0.741875718088D-06 0.000000000000D+00  6 -2 2 25 24 1 -2 4 0.35954864D-02 0.30738373D+00 0.30457148D+05 0.30457148D+05 0.30457148D+05 0.12142097D+01  1  2 12  6  6  1       21 0.786694941487D-04 0.100000000000D+01
-.544577005114D-06 0.000000000000D+00 -.180687797231D-06 0.752069177677D-06 0.000000000000D+00  6 -2 2 25 24 1 -2 4 0.37277519D-02 0.30738373D+00 0.25419869D+05 0.25419869D+05 0.25419869D+05 0.12225229D+01  1  2  5  6  6  1       21 -.278463736357D-03 0.100000000000D+01
0.149936482795D-06 0.000000000000D+00 0.000000000000D+00 0.741875718088D-06 0.000000000000D+00  6 2 2 25 24 1 2 4 0.35954864D-02 0.30738373D+00 0.30457148D+05 0.30457148D+05 0.30457148D+05 0.12142097D+01  1  2 12  7  6  1       21 0.921416507432D-04 0.100000000000D+01
-.544577005114D-06 0.000000000000D+00 -.180687797231D-06 0.752069177677D-06 0.000000000000D+00  6 2 2 25 24 1 2 4 0.37277519D-02 0.30738373D+00 0.25419869D+05 0.25419869D+05 0.25419869D+05 0.12225229D+01  1  2  5  7  6  1       21 -.328053741168D-03 0.100000000000D+01
0.149936482795D-06 0.000000000000D+00 0.000000000000D+00 0.741875718088D-06 0.000000000000D+00  6 -3 2 25 24 1 -3 4 0.35954864D-02 0.30738373D+00 0.30457148D+05 0.30457148D+05 0.30457148D+05 0.12142097D+01  1  2 12  8  6  1       21 0.593043968790D-04 0.100000000000D+01
0.149936482795D-06 0.000000000000D+00 0.000000000000D+00 0.741875718088D-06 0.000000000000D+00  6 -4 2 25 24 1 -4 4 0.35954864D-02 0.30738373D+00 0.30457148D+05 0.30457148D+05 0.30457148D+05 0.12142097D+01  1  2 12  8  6  1       21 0.534893070076D-04 0.100000000000D+01
-.544577005114D-06 0.000000000000D+00 -.180687797231D-06 0.752069177677D-06 0.000000000000D+00  6 -3 2 25 24 1 -3 4 0.37277519D-02 0.30738373D+00 0.25419869D+05 0.25419869D+05 0.25419869D+05 0.12225229D+01  1  2  5  8  6  1       21 -.208577996887D-03 0.100000000000D+01
-.544577005114D-06 0.000000000000D+00 -.180687797231D-06 0.752069177677D-06 0.000000000000D+00  6 -4 2 25 24 1 -4 4 0.37277519D-02 0.30738373D+00 0.25419869D+05 0.25419869D+05 0.25419869D+05 0.12225229D+01  1  2  5  8  6  1       21 -.187664329880D-03 0.100000000000D+01
0.149936482795D-06 0.000000000000D+00 0.000000000000D+00 0.741875718088D-06 0.000000000000D+00  6 3 2 25 24 1 3 4 0.35954864D-02 0.30738373D+00 0.30457148D+05 0.30457148D+05 0.30457148D+05 0.12142097D+01  1  2 12  9  6  1       21 0.592996674694D-04 0.100000000000D+01
0.149936482795D-06 0.000000000000D+00 0.000000000000D+00 0.741875718088D-06 0.000000000000D+00  6 4 2 25 24 1 4 4 0.35954864D-02 0.30738373D+00 0.30457148D+05 0.30457148D+05 0.30457148D+05 0.12142097D+01  1  2 12  9  6  1       21 0.534893070076D-04 0.100000000000D+01
-.544577005114D-06 0.000000000000D+00 -.180687797231D-06 0.752069177677D-06 0.000000000000D+00  6 3 2 25 24 1 3 4 0.37277519D-02 0.30738373D+00 0.25419869D+05 0.25419869D+05 0.25419869D+05 0.12225229D+01  1  2  5  9  6  1       21 -.208560768414D-03 0.100000000000D+01
-.544577005114D-06 0.000000000000D+00 -.180687797231D-06 0.752069177677D-06 0.000000000000D+00  6 4 2 25 24 1 4 4 0.37277519D-02 0.30738373D+00 0.25419869D+05 0.25419869D+05 0.25419869D+05 0.12225229D+01  1  2  5  9  6  1       21 -.187664329880D-03 0.100000000000D+01
  </mgrwgt>
  </event>
  <event>
  5     66 0.46027262E-03 0.20041805E+02 0.75467711E-02 0.12000446E+00
       21 -1    0    0  501  502 0.00000000E+00 0.00000000E+00 0.14488478E+02 0.14507877E+02 0.75000000E+00 0.0000E+00 0.9000E+01
        2 -1    0    0  502    0 0.00000000E+00 0.00000000E+00 -.18506768E+04 0.18506769E+04 0.32000000E+00 0.0000E+00 0.9000E+01
       25  1    1    2    0    0 0.37452474E+02 0.18328842E+02 -.94999228E+03 0.95908757E+03 0.12500000E+03 0.0000E+00 0.9000E+01
       24  1    1    2    0    0 -.17472258E+02 -.16759978E+02 -.88152393E+03 0.88551557E+03 0.80419002E+02 0.0000E+00 0.9000E+01
        1  1    1    2  501    0 -.19980216E+02 -.15688634E+01 -.46721347E+01 0.20581584E+02 0.32000000E+00 0.0000E+00 0.9000E+01
#aMCatNLO 1  0  0  1  2 0.32947222D+02 0.00000000D+00  -5  6  0 0.00000000D+00 0.00000000D+00 0.00000000D+00 0.00000000D+00 0.00000000D+00
  <mgrwgt>
 0.3300179290D+00    4    2    0
 0.163803564961604D+03 0.000000000000000D+00 0.000000000000000D+00 0.163803564961604D+03
 0.163803564961604D+03 0.000000000000000D+00 0.000000000000000D+00 -.163803564961604D+03
 0.135866269135445D+03 0.374525251976641D+02 0.183288455943510D+02 -.331059641799190D+02
 0.100749294340932D+03 -.174722200250308D+02 -.167599752121926D+02 -.556509578903075D+02
 0.909915664468297D+02 -.199803051726334D+02 -.156887038215838D+01 0.887569220702265D+02
 0.000000000000000D+00 0.000000000000000D+00 0.000000000000000D+00 -.000000000000000D+00
 0.185065239905102D+03 0.000000000000000D+00 0.000000000000000D+00 0.185065239905102D+03
 0.201202402486180D+03 0.000000000000000D+00 0.000000000000000D+00 -.201202402486180D+03
 0.132009639735416D+03 0.265614116719568D+02 0.177563467798684D+00 -.331059641799190D+02
 0.105730706298168D+03 -.258671411555930D+02 -.307510681809067D+02 -.556509578903075D+02
 0.939839391438899D+02 -.275009114091384D+02 -.141028179201485D+02 0.887569220702265D+02
 0.545433572138088D+02 0.268066408927745D+02 0.446763226332565D+02 -.161371625810781D+02
0.146851454670D-04 0.000000000000D+00 0.000000000000D+00 0.733490285173D-05 0.000000000000D+00  6 21 2 25 24 1 21 2 0.22304910D-02 0.28472101D+00 0.13900107D+05 0.13900107D+05 0.13900107D+05 0.12516106D+01  1  2  2  1  6  1       21 0.274709391905D+00 0.100000000000D+01
0.307952154853D-05 0.774956417018D-06 -.296450777199D-07 0.733490285173D-05 0.000000000000D+00  6 21 2 25 24 1 21 4 0.22304910D-02 0.28472101D+00 0.13900107D+05 0.13900107D+05 0.13900107D+05 0.12516106D+01  1  2  3  1  6  1       21 0.902437183972D-01 0.100000000000D+01
0.148951597968D-05 0.000000000000D+00 0.000000000000D+00 0.733490285173D-05 0.000000000000D+00  6 21 2 25 24 1 21 4 0.22304910D-02 0.28472101D+00 0.13900107D+05 0.13900107D+05 0.13900107D+05 0.12516106D+01  1  2 15  1  6  1       21 0.436494625870D-01 0.100000000000D+01
-.268166148768D-05 0.000000000000D+00 0.000000000000D+00 0.733490285173D-05 0.000000000000D+00  6 21 2 25 24 1 21 4 0.22304910D-02 0.28472101D+00 0.13900107D+05 0.13900107D+05 0.13900107D+05 0.12516106D+01  1  2  4  1  6  1       21 -.785846438537D-01 0.100000000000D+01
  </mgrwgt>
  </event>
  <event>
  6     66 -.46027262E-03 0.14866304E+02 0.75467711E-02 0.12165668E+00
       21 -1    0    0  501  502 0.00000000E+00 0.00000000E+00 0.20161871E+02 0.20175816E+02 0.75000000E+00 0.0000E+00 0.9000E+01
        2 -1    0    0  502    0 -.00000000E+00 -.00000000E+00 -.10710860E+04 0.10710861E+04 0.32000000E+00 0.0000E+00 0.9000E+01
       25  1    1    2    0    0 0.81834090E+02 -.33237495E+01 -.66407283E+03 0.68068024E+03 0.12500000E+03 0.0000E+00 0.9000E+01
       24  1    1    2    0    0 -.59884769E+02 -.25151472E+01 -.34546851E+03 0.35973354E+03 0.80419002E+02 0.0000E+00 0.9000E+01
        1  1    1    2  503    0 -.17978641E+02 0.20666421E+01 -.41546219E+02 0.45317692E+02 0.32000000E+00 0.0000E+00 0.9000E+01
       21  1    1    2  501  503 -.39706811E+01 0.37722546E+01 0.16341355E+00 0.55304084E+01 0.75000000E+00 0.0000E+00 0.9000E+01
#aMCatNLO 2  0  0  5  1 0.93937258D+01 0.00000000D+00  -5  6  0 0.00000000D+00 0.00000000D+00 0.00000000D+00 0.00000000D+00 0.00000000D+00
  <mgrwgt>
 -.1093865226D+00    1    2    0
 0.146978680592599D+03 0.000000000000000D+00 0.000000000000000D+00 0.146978680592599D+03
 0.146978680592599D+03 -.000000000000000D+00 -.000000000000000D+00 -.146978680592599D+03
 0.153988672187586D+03 0.833140939334155D+02 -.371745586975555D+01 -.336519455010603D+02
 0.997593171948539D+02 -.589192762668581D+02 -.277198483873691D+01 0.235380480422771D+01
 0.402093718027570D+02 -.243948176665574D+02 0.648944070849245D+01 0.312981406968326D+02
 0.000000000000000D+00 0.000000000000000D+00 0.000000000000000D+00 0.000000000000000D+00
 0.146978680592599D+03 0.000000000000000D+00 0.000000000000000D+00 0.146978680592599D+03
 0.146978680592599D+03 -.000000000000000D+00 -.000000000000000D+00 -.146978680592599D+03
 0.152787541784171D+03 0.818458592097780D+02 -.332688020260239D+01 -.317682250492621D+02
 0.100357595547173D+03 -.598770382663006D+02 -.251720368836375D+01 0.358259733805033D+01
 0.192451666747743D+02 -.176496884101539D+02 0.198803607057917D+01 0.741030714251438D+01
 0.215670571790791D+02 -.431913253332359D+01 0.385604782038696D+01 0.207753205686974D+02
-.258995372046D-05 0.000000000000D+00 0.000000000000D+00 0.137112191908D-05 0.000000000000D+00  6 21 2 25 24 1 21 4 0.31029026D-02 0.16478354D+00 0.18672305D+05 0.18672305D+05 0.18672305D+05 0.12371239D+01  1  2 13  3  6  5        1 -.109386522576D+00 0.100000000000D+01
  </mgrwgt>
  </event>
  <event>
  5     66 0.46027262E-03 0.34706521E+02 0.75467711E-02 0.11697671E+00
       21 -1    0    0  501  502 0.00000000E+00 0.00000000E+00 0.40573085E+02 0.40580016E+02 0.75000000E+00 0.0000E+00 0.9000E+01
        2 -1    0    0  502    0 0.00000000E+00 0.00000000E+00 -.16369290E+04 0.16369290E+04 0.32000000E+00 0.0000E+00 0.9000E+01
       25  1    1    2    0    0 0.23877388E+02 -.31916653E+01 -.10783525E+04 0.10858405E+04 0.12500000E+03 0.0000E+00 0.9000E+01
       24  1    1    2    0    0 -.82669194E+01 -.27805985E+02 -.54249462E+03 0.54918953E+03 0.80419002E+02 0.0000E+00 0.9000E+01
        1  1    1    2  501    0 -.15610469E+02 0.30997650E+02 0.24491283E+02 0.42479011E+02 0.32000000E+00 0.0000E+00 0.9000E+01
#aMCatNLO 1  0  0  1  5 0.20725582D+01 0.00000000D+00  -5  6  0 0.00000000D+00 0.00000000D+00 0.00000000D+00 0.00000000D+00 0.00000000D+00
  <mgrwgt>
 0.2702415257D+00   14    2    0
 0.257722909818530D+03 0.000000000000000D+00 0.000000000000000D+00 0.257722909818530D+03
 0.257722909818530D+03 0.000000000000000D+00 0.000000000000000D+00 -.257722909818530D+03
 0.194148020230327D+03 0.238773946868524D+02 -.319167829257326D+01 -.146588324814770D+03
 0.107200270426634D+03 -.826691577905596D+01 -.278059921071502D+02 -.646774066549682D+02
 0.214097528980099D+03 -.156104789077964D+02 0.309976703997235D+02 0.211265731469739D+03
 0.000000000000000D+00 -.000000000000000D+00 -.000000000000000D+00 0.000000000000000D+00
 0.352208117798535D+03 0.000000000000000D+00 0.000000000000000D+00 0.352208117798535D+03
 0.281275277989398D+03 0.000000000000000D+00 0.000000000000000D+00 -.281275277989398D+03
 0.199863260441009D+03 0.513310125831242D+02 0.140468163404125D+02 -.146588324814770D+03
 0.105051897979517D+03 0.652222913869646D+01 -.185196897970367D+02 -.646774066549682D+02
 0.217556418860200D+03 0.144659760790593D+02 0.498830795953019D+02 0.211265731469739D+03
 0.111011818507207D+03 -.723192178008800D+02 -.454102061386777D+02 0.709328398091371D+02
0.337124618358D-04 0.000000000000D+00 0.000000000000D+00 0.140162734997D-04 0.000000000000D+00  6 21 2 25 24 1 21 2 0.62425487D-02 0.25183576D+00 0.15313783D+05 0.15313783D+05 0.15313783D+05 0.12467988D+01  1  2  2  1  6  1       21 0.146311196611D+00 0.100000000000D+01
0.654721773593D-05 0.177905548786D-05 -.680557474556D-07 0.140162734997D-04 0.000000000000D+00  6 21 2 25 24 1 21 4 0.62425487D-02 0.25183576D+00 0.15313783D+05 0.15313783D+05 0.15313783D+05 0.12467988D+01  1  2  3  1  6  1       21 0.441709405622D-01 0.100000000000D+01
0.336848203768D-05 0.000000000000D+00 0.000000000000D+00 0.140162734997D-04 0.000000000000D+00  6 21 2 25 24 1 21 4 0.62425487D-02 0.25183576D+00 0.15313783D+05 0.15313783D+05 0.15313783D+05 0.12467988D+01  1  2 15  1  6  1       21 0.227255340928D-01 0.100000000000D+01
-.181827207962D-04 0.000000000000D+00 0.000000000000D+00 0.140162734997D-04 0.000000000000D+00  6 21 2 25 24 1 21 4 0.62425487D-02 0.25183576D+00 0.15313783D+05 0.15313783D+05 0.15313783D+05 0.12467988D+01  1  2  4  1  6  1       21 -.122670103843D+00 0.100000000000D+01
-.915346099256D-04 0.000000000000D+00 -.435279000415D-04 0.140162734997D-04 0.000000000000D+00  6 21 2 25 24 1 21 4 0.93686662D-02 0.25183576D+00 0.15313783D+05 0.15313783D+05 0.15313783D+05 0.12467988D+01  1  2  5  1  6  1       21 -.307428482497D+00 0.100000000000D+01
0.750150741195D-04 0.000000000000D+00 0.319560555134D-04 0.140162734997D-04 0.000000000000D+00  6 21 2 25 24 1 21 4 0.62425487D-02 0.25183576D+00 0.15313783D+05 0.15313783D+05 0.15313783D+05 0.12467988D+01  1  2  6  1  6  1       21 0.506090756996D+00 0.100000000000D+01
-.122687945375D-04 0.000000000000D+00 -.593126293730D-05 0.140162734997D-04 0.000000000000D+00  6 -1 2 25 24 1 -1 4 0.93686662D-02 0.25183576D+00 0.15313783D+05 0.15313783D+05 0.15313783D+05 0.12467988D+01  1  2  5  4  6  1       21 -.268419112292D-02 0.100000000000D+01
-.122687945375D-04 0.000000000000D+00 -.593126293730D-05 0.140162734997D-04 0.000000000000D+00  6 1 2 25 24 1 1 4 0.93686662D-02 0.25183576D+00 0.15313783D+05 0.15313783D+05 0.15313783D+05 0.12467988D+01  1  2  5  5  6  1       21 -.332270628119D-02 0.100000000000D+01
-.122687945375D-04 0.000000000000D+00 -.593126293730D-05 0.140162734997D-04 0.000000000000D+00  6 -2 2 25 24 1 -2 4 0.93686662D-02 0.25183576D+00 0.15313783D+05 0.15313783D+05 0.15313783D+05 0.12467988D+01  1  2  5  6  6  1       21 -.257302500841D-02 0.100000000000D+01
-.122687945375D-04 0.000000000000D+00 -.593126293730D-05 0.140162734997D-04 0.000000000000D+00  6 2 2 25 24 1 2 4 0.93686662D-02 0.25183576D+00 0.15313783D+05 0.15313783D+05 0.15313783D+05 0.12467988D+01  1  2  5  7  6  1       21 -.375283727735D-02 0.100000000000D+01
-.122687945375D-04 0.000000000000D+00 -.593126293730D-05 0.140162734997D-04 0.000000000000D+00  6 -3 2 25 24 1 -3 4 0.93686662D-02 0.25183576D+00 0.15313783D+05 0.15313783D+05 0.15313783D+05 0.12467988D+01  1  2  5  8  6  1       21 -.176894844203D-02 0.100000000000D+01
-.122687945375D-04 0.000000000000D+00 -.593126293730D-05 0.140162734997D-04 0.000000000000D+00  6 -4 2 25 24 1 -4 4 0.93686662D-02 0.25183576D+00 0.15313783D+05 0.15313783D+05 0.15313783D+05 0.12467988D+01  1  2  5  8  6  1       21 -.154394333743D-02 0.100000000000D+01
-.122687945375D-04 0.000000000000D+00 -.593126293730D-05 0.140162734997D-04 0.000000000000D+00  6 3 2 25 24 1 3 4 0.93686662D-02 0.25183576D+00 0.15313783D+05 0.15313783D+05 0.15313783D+05 0.12467988D+01  1  2  5  9  6  1       21 -.176872140922D-02 0.100000000000D+01
-.122687945375D-04 0.000000000000D+00 -.593126293730D-05 0.140162734997D-04 0.000000000000D+00  6 4 2 25 24 1 4 4 0.93686662D-02 0.25183576D+00 0.15313783D+05 0.15313783D+05 0.15313783D+05 0.12467988D+01  1  2  5  9  6  1       21 -.154394333743D-02 0.100000000000D+01
  </mgrwgt>
  </event>
  <event>
  5     66 0.46027262E-03 0.61562892E+02 0.75467711E-02 0.11781439E+00
       21 -1    0    0  501  502 0.00000000E+00 0.00000000E+00 0.23452274E+02 0.23464263E+02 0.75000000E+00 0.0000E+00 0.9000E+01
        2 -1    0    0  502    0 -.00000000E+00 -.00000000E+00 -.12710629E+04 0.12710630E+04 0.32000000E+00 0.0000E+00 0.9000E+01
       25  1    1    2    0    0 -.99390281E+01 0.11133406E+02 -.35513877E+03 0.37679077E+03 0.12500000E+03 0.0000E+00 0.9000E+01
       24  1    1    2    0    0 -.16540236E+01 0.84989692E+02 -.49418903E+03 0.50785431E+03 0.80419002E+02 0.0000E+00 0.9000E+01
        1  1    1    2  501    0 0.11593052E+02 -.96123098E+02 -.39828287E+03 0.40988217E+03 0.32000000E+00 0.0000E+00 0.9000E+01
#aMCatNLO 1  0  0  5  1 0.37538129D+01 0.00000000D+00  -5  6  0 0.00000000D+00 0.00000000D+00 0.00000000D+00 0.00000000D+00 0.00000000D+00
  <mgrwgt>
 0.2607512538D-01    8    2    0
 0.172676295094347D+03 0.000000000000000D+00 0.000000000000000D+00 0.172676295094347D+03
 0.172676295094347D+03 -.000000000000000D+00 -.000000000000000D+00 -.172676295094347D+03
 0.129406892808097D+03 -.993905147518052D+01 0.111335994232449D+02 0.299733569341625D+02
 0.118359541039238D+03 -.165404500963871D+01 0.849898692885108D+02 -.177693909315022D+02
 0.975861563413597D+02 0.115930964848192D+02 -.961234687117557D+02 -.122039660026603D+02
 0.000000000000000D+00 0.000000000000000D+00 0.000000000000000D+00 -.000000000000000D+00
 0.172676295094347D+03 0.000000000000000D+00 0.000000000000000D+00 0.172676295094347D+03
 0.172676295094347D+03 -.000000000000000D+00 -.000000000000000D+00 -.172676295094347D+03
 0.129393076891224D+03 -.992564282577034D+01 0.110224224056350D+02 0.299592417491679D+02
 0.118288331942804D+03 -.164178407944554D+01 0.848882085164001D+02 -.177822979210571D+02
 0.586009166689947D+02 0.753142284986470D+01 -.580016526048195D+02 -.362676155996331D+01
 0.390702646856721D+02 0.403600405535118D+01 -.379089783172156D+02 -.855018226814752D+01
0.357575472721D-06 0.000000000000D+00 0.000000000000D+00 0.223465050718D-06 0.000000000000D+00  6 21 2 25 24 1 21 2 0.36089675D-02 0.19554907D+00 0.28853427D+05 0.28853427D+05 0.28853427D+05 0.12166786D+01  1  2  2  3  6  5        1 0.574922328455D-02 0.100000000000D+01
-.324478059609D-07 0.188697761133D-07 -.721841857364D-09 0.223465050718D-06 0.000000000000D+00  6 21 2 25 24 1 21 4 0.36089675D-02 0.19554907D+00 0.28853427D+05 0.28853427D+05 0.28853427D+05 0.12166786D+01  1  2  3  3  6  5        1 -.772286702734D-03 0.100000000000D+01
0.392750523469D-07 0.000000000000D+00 0.000000000000D+00 0.223465050718D-06 0.000000000000D+00  6 21 2 25 24 1 21 4 0.36089675D-02 0.19554907D+00 0.28853427D+05 0.28853427D+05 0.28853427D+05 0.12166786D+01  1  2 15  3  6  5        1 0.934781251874D-03 0.100000000000D+01
0.641017239319D-06 0.000000000000D+00 0.000000000000D+00 0.223494086486D-06 0.000000000000D+00  6 21 2 25 24 1 21 4 0.36089675D-02 0.19554907D+00 0.28803667D+05 0.28803667D+05 0.28803667D+05 0.12167577D+01  1  2 12  3  6  5        1 0.152608390574D-01 0.100000000000D+01
-.118710043318D-04 0.000000000000D+00 0.000000000000D+00 0.223465050718D-06 0.000000000000D+00  6 21 2 25 24 1 21 4 0.36089675D-02 0.19554907D+00 0.28853427D+05 0.28853427D+05 0.28853427D+05 0.12166786D+01  1  2  4  3  6  5        1 -.282540483772D+00 0.100000000000D+01
-.931023524129D-05 0.000000000000D+00 0.000000000000D+00 0.223465050718D-06 0.000000000000D+00  6 21 2 25 24 1 21 4 0.36089675D-02 0.19554907D+00 0.28853427D+05 0.28853427D+05 0.28853427D+05 0.12166786D+01  1  2  5  3  6  5        1 -.221591896994D+00 0.100000000000D+01
0.136959546482D-04 0.000000000000D+00 -.000000000000D+00 0.223465050718D-06 0.000000000000D+00  6 21 2 25 24 1 21 4 0.36089675D-02 0.19554907D+00 0.28853427D+05 0.28853427D+05 0.28853427D+05 0.12166786D+01  1  2  6  3  6  5        1 0.325975927888D+00 0.100000000000D+01
0.768922259544D-05 0.000000000000D+00 0.000000000000D+00 0.223465050718D-06 0.452093841772D-07  6 21 2 25 24 1 21 4 0.36089675D-02 0.19554907D+00 0.28803667D+05 0.28803667D+05 0.28803667D+05 0.12167577D+01  1  2 11  3  6  5        1 0.183059021362D+00 0.100000000000D+01
  </mgrwgt>
  </event>
  <event>
  5     66 0.46027262E-03 0.21259624E+02 0.75467711E-02 0.11989641E+00
       21 -1    0    0  501  502 0.00000000E+00 0.00000000E+00 0.10722591E+02 0.10748789E+02 0.75000000E+00 0.0000E+00 0.9000E+01
        2 -1    0    0  502    0 0.00000000E+00 0.00000000E+00 -.24878041E+04 0.24878042E+04 0.32000000E+00 0.0000E+00 0.9000E+01
       25  1    1    2    0    0 0.23293433E+02 0.62537665E+02 -.83000662E+03 0.84201516E+03 0.12500000E+03 0.0000E+00 0.9000E+01
       24  1    1    2    0    0 -.43990257E+02 -.67394885E+02 -.16082748E+04 0.16122941E+04 0.80419002E+02 0.0000E+00 0.9000E+01
        1  1    1    2  501    0 0.20696824E+02 0.48572193E+01 -.38800088E+02 0.44243647E+02 0.32000000E+00 0.0000E+00 0.9000E+01
#aMCatNLO 1  0  0  1  5 0.25493485D+02 0.00000000D+00  -5  6  0 0.00000000D+00 0.00000000D+00 0.00000000D+00 0.00000000D+00 0.00000000D+00
  <mgrwgt>
 0.3678266599D+00   14    2    0
 0.163427230376326D+03 0.000000000000000D+00 0.000000000000000D+00 0.163427230376326D+03
 0.163427230376326D+03 0.000000000000000D+00 0.000000000000000D+00 -.163427230376326D+03
 0.146319937385486D+03 0.232931897934598D+02 0.625376082505660D+02 0.364828581670499D+02
 0.136374006333666D+03 -.439904834395278D+02 -.673949378222077D+02 -.751891838752198D+02
 0.441605170335001D+02 0.206972936460681D+02 0.485732957164174D+01 0.387063257081699D+02
 0.000000000000000D+00 0.000000000000000D+00 0.000000000000000D+00 0.000000000000000D+00
 0.176925183713148D+03 0.000000000000000D+00 0.000000000000000D+00 0.176925183713148D+03
 0.176420450838961D+03 0.000000000000000D+00 0.000000000000000D+00 -.176420450838961D+03
 0.142753621229899D+03 0.135423827094419D+02 0.569139816280963D+02 0.364828581670499D+02
 0.142386581570154D+03 -.533934213225255D+02 -.728179362830146D+02 -.751891838752198D+02
 0.427069510346691D+02 0.177671469835130D+02 0.316741296911823D+01 0.387063257081699D+02
 0.254984807173884D+02 0.220838916295706D+02 0.127365416858001D+02 0.504732874187047D+00
0.728013047772D-05 0.000000000000D+00 0.000000000000D+00 0.158572899130D-05 0.000000000000D+00  6 21 2 25 24 1 21 2 0.16516461D-02 0.38274112D+00 0.19145156D+05 0.19145156D+05 0.19145156D+05 0.12359201D+01  1  2  2  1  6  1       21 0.100626940654D+00 0.100000000000D+01
0.803902676418D-06 0.384183040142D-06 -.146964859359D-07 0.158572899130D-05 0.000000000000D+00  6 21 2 25 24 1 21 4 0.16516461D-02 0.38274112D+00 0.19145156D+05 0.19145156D+05 0.19145156D+05 0.12359201D+01  1  2  3  1  6  1       21 0.169730291225D-01 0.100000000000D+01
0.739134841831D-06 0.000000000000D+00 0.000000000000D+00 0.158572899130D-05 0.000000000000D+00  6 21 2 25 24 1 21 4 0.16516461D-02 0.38274112D+00 0.19145156D+05 0.19145156D+05 0.19145156D+05 0.12359201D+01  1  2 15  1  6  1       21 0.156055671462D-01 0.100000000000D+01
-.628753406977D-06 0.000000000000D+00 0.000000000000D+00 0.158572899130D-05 0.000000000000D+00  6 21 2 25 24 1 21 4 0.16516461D-02 0.38274112D+00 0.19145156D+05 0.19145156D+05 0.19145156D+05 0.12359201D+01  1  2  4  1  6  1       21 -.132750520686D-01 0.100000000000D+01
-.494486683732D-04 0.000000000000D+00 -.147174910214D-04 0.158572899130D-05 0.000000000000D+00  6 21 2 25 24 1 21 4 0.19852212D-02 0.38274112D+00 0.19145156D+05 0.19145156D+05 0.19145156D+05 0.12359201D+01  1  2  5  1  6  1       21 -.776382073742D+00 0.100000000000D+01
0.490095043565D-04 0.000000000000D+00 0.137672254842D-04 0.158572899130D-05 0.000000000000D+00  6 21 2 25 24 1 21 4 0.16516461D-02 0.38274112D+00 0.19145156D+05 0.19145156D+05 0.19145156D+05 0.12359201D+01  1  2  6  1  6  1       21 0.103475180407D+01 0.100000000000D+01
-.195894436646D-05 0.000000000000D+00 -.763649845841D-06 0.158572899130D-05 0.000000000000D+00  6 -1 2 25 24 1 -1 4 0.19852212D-02 0.38274112D+00 0.19145156D+05 0.19145156D+05 0.19145156D+05 0.12359201D+01  1  2  5  4  6  1       21 -.147953552232D-02 0.100000000000D+01
-.195894436646D-05 0.000000000000D+00 -.763649845841D-06 0.158572899130D-05 0.000000000000D+00  6 1 2 25 24 1 1 4 0.19852212D-02 0.38274112D+00 0.19145156D+05 0.19145156D+05 0.19145156D+05 0.12359201D+01  1  2  5  5  6  1       21 -.155447488055D-02 0.100000000000D+01
-.195894436646D-05 0.000000000000D+00 -.763649845841D-06 0.158572899130D-05 0.000000000000D+00  6 -2 2 25 24 1 -2 4 0.19852212D-02 0.38274112D+00 0.19145156D+05 0.19145156D+05 0.19145156D+05 0.12359201D+01  1  2  5  6  6  1       21 -.146609960199D-02 0.100000000000D+01
-.195894436646D-05 0.000000000000D+00 -.763649845841D-06 0.158572899130D-05 0.000000000000D+00  6 2 2 25 24 1 2 4 0.19852212D-02 0.38274112D+00 0.19145156D+05 0.19145156D+05 0.19145156D+05 0.12359201D+01  1  2  5  7  6  1       21 -.160603190537D-02 0.100000000000D+01
-.195894436646D-05 0.000000000000D+00 -.763649845841D-06 0.158572899130D-05 0.000000000000D+00  6 -3 2 25 24 1 -3 4 0.19852212D-02 0.38274112D+00 0.19145156D+05 0.19145156D+05 0.19145156D+05 0.12359201D+01  1  2  5  8  6  1       21 -.114407148335D-02 0.100000000000D+01
-.195894436646D-05 0.000000000000D+00 -.763649845841D-06 0.158572899130D-05 0.000000000000D+00  6 -4 2 25 24 1 -4 4 0.19852212D-02 0.38274112D+00 0.19145156D+05 0.19145156D+05 0.19145156D+05 0.12359201D+01  1  2  5  8  6  1       21 -.103966782100D-02 0.100000000000D+01
-.195894436646D-05 0.000000000000D+00 -.763649845841D-06 0.158572899130D-05 0.000000000000D+00  6 3 2 25 24 1 3 4 0.19852212D-02 0.38274112D+00 0.19145156D+05 0.19145156D+05 0.19145156D+05 0.12359201D+01  1  2  5  9  6  1       21 -.114400629083D-02 0.100000000000D+01
-.195894436646D-05 0.000000000000D+00 -.763649845841D-06 0.158572899130D-05 0.000000000000D+00  6 4 2 25 24 1 4 4 0.19852212D-02 0.38274112D+00 0.19145156D+05 0.19145156D+05 0.19145156D+05 0.12359201D+01  1  2  5  9  6  1       21 -.103966782100D-02 0.100000000000D+01
  </mgrwgt>
  </event>
  <event>
  6     66 -.46027262E-03 0.33869233E+02 0.75467711E-02 0.11552097E+00
       21 -1    0    0  501  502 0.00000000E+00 0.00000000E+00 0.14014859E+03 0.14015059E+03 0.75000000E+00 0.0000E+00 0.9000E+01
        2 -1    0    0  503    0 0.00000000E+00 0.00000000E+00 -.45911449E+03 0.45911460E+03 0.32000000E+00 0.0000E+00 0.9000E+01
       25  1    1    2    0    0 -.11903114E+03 0.83458577E+02 -.17203338E+03 0.25759315E+03 0.12500000E+03 0.0000E+00 0.9000E+01
       24  1    1    2    0    0 0.88582490E+02 -.91723101E+02 -.20696266E+03 0.25604832E+03 0.80419002E+02 0.0000E+00 0.9000E+01
        1  1    1    2  501    0 0.34740643E+02 0.14169557E+02 0.66162075E+02 0.76060575E+02 0.32000000E+00 0.0000E+00 0.9000E+01
       21  1    1    2  503  502 -.42919934E+01 -.59050324E+01 -.61319325E+01 0.95631434E+01 0.75000000E+00 0.0000E+00 0.9000E+01
#aMCatNLO 2  0  0  2  1 0.73000422D+01 0.00000000D+00  -5  6  0 0.00000000D+00 0.00000000D+00 0.00000000D+00 0.00000000D+00 0.00000000D+00
  <mgrwgt>
 -.4985841154D+00    3    2    0
 0.249915047374398D+03 0.000000000000000D+00 0.000000000000000D+00 0.249915047374398D+03
 0.249915047374398D+03 0.000000000000000D+00 0.000000000000000D+00 -.249915047374398D+03
 0.196273500522876D+03 -.120716225628019D+03 0.811402324503344D+02 -.417389812469640D+02
 0.172876203799498D+03 0.870995290949797D+02 -.937633616430145D+02 -.839110834788168D+02
 0.130680390426423D+03 0.336166965330390D+02 0.126231291926802D+02 0.125650064725781D+03
 0.000000000000000D+00 -.000000000000000D+00 -.000000000000000D+00 -.000000000000000D+00
 0.253020313573890D+03 0.000000000000000D+00 0.000000000000000D+00 0.253020313573890D+03
 0.254269185703428D+03 0.000000000000000D+00 0.000000000000000D+00 -.254269185703428D+03
 0.196216451120724D+03 -.119031178566685D+03 0.834585625559365D+02 -.417389812469640D+02
 0.172534828263377D+03 0.885824558351229D+02 -.917231137561958D+02 -.839110834788168D+02
 0.131132121252558D+03 0.347407161457135D+02 0.141695836313401D+02 0.125650064725781D+03
 0.740609864065907D+01 -.429199341415155D+01 -.590503243108076D+01 -.124887212953778D+01
-.762585733373D-04 0.000000000000D+00 0.000000000000D+00 0.137794054288D-05 0.000000000000D+00  6 21 2 25 24 1 21 4 0.21295274D-01 0.71052726D-01 0.37500408D+05 0.37500408D+05 0.37500408D+05 0.12048565D+01  1  2 13  2  6  2        2 -.280648565093D+00 0.100000000000D+01
-.223837062288D-03 0.000000000000D+00 0.000000000000D+00 0.138244508369D-05 0.000000000000D+00  6 21 2 25 24 1 21 4 0.21295274D-01 0.69418444D-01 0.35879686D+05 0.35879686D+05 0.35879686D+05 0.12068243D+01  1  2  8  2  6  2        2 -.851156218324D+00 0.100000000000D+01
0.174945625359D-03 0.000000000000D+00 0.000000000000D+00 0.138244508369D-05 0.196884312778D-06  6 21 2 25 24 1 21 4 0.21559873D-01 0.70627885D-01 0.37500408D+05 0.37500408D+05 0.37500408D+05 0.12048565D+01  1  2  1  2  6  2        2 0.633220668030D+00 0.100000000000D+01
  </mgrwgt>
  </event>
  <event>
  6     66 0.46027262E-03 0.26983595E+02 0.75467711E-02 0.12089709E+00
       21 -1    0    0  501  502 0.00000000E+00 0.00000000E+00 0.84683862E+03 0.84683895E+03 0.75000000E+00 0.0000E+00 0.9000E+01
        2 -1    0    0  502    0 0.00000000E+00 0.00000000E+00 -.26261938E+02 0.26263888E+02 0.32000000E+00 0.0000E+00 0.9000E+01
       25  1    1    2    0    0 0.39796917E+02 0.40252030E+01 0.32918150E+03 0.35438038E+03 0.12500000E+03 0.0000E+00 0.9000E+01
       24  1    1    2    0    0 -.55885069E+02 -.42933094E+02 0.25168993E+03 0.27346193E+03 0.80419002E+02 0.0000E+00 0.9000E+01
        1  1    1    2  503    0 0.22211194E+02 0.26272658E+02 0.12333184E+03 0.12804076E+03 0.32000000E+00 0.0000E+00 0.9000E+01
       21  1    1    2  501  503 -.61230411E+01 0.12635233E+02 0.11637340E+03 0.11721976E+03 0.75000000E+00 0.0000E+00 0.9000E+01
#aMCatNLO 2  0  0  5  1 0.14773191D+02 0.00000000D+00  -5  6  0 0.00000000D+00 0.00000000D+00 0.00000000D+00 0.00000000D+00 0.00000000D+00
  <mgrwgt>
 0.9062758231D-01    2    2    0
 0.149132891814150D+03 0.000000000000000D+00 0.000000000000000D+00 0.149132891814150D+03
 0.149132891814150D+03 -.000000000000000D+00 -.000000000000000D+00 -.149132891814150D+03
 0.131505398747223D+03 0.385725748688290D+02 0.106423125984828D+01 -.134049908422274D+02
 0.109829995863306D+03 -.568984699728653D+02 -.453839208903248D+02 -.172706651965405D+02
 0.569303890177707D+02 0.183258951040362D+02 0.443196896304765D+02 0.306756560387679D+02
 0.000000000000000D+00 0.000000000000000D+00 0.000000000000000D+00 0.000000000000000D+00
 0.149132891814150D+03 0.000000000000000D+00 0.000000000000000D+00 0.149132891814150D+03
 0.149132891814150D+03 -.000000000000000D+00 -.000000000000000D+00 -.149132891814150D+03
 0.131735555849533D+03 0.398020052735038D+02 0.403750888957005D+01 -.113470512980301D+02
 0.108049140653687D+03 -.558808956543531D+02 -.429230000067129D+02 -.155673508639332D+02
 0.351649120884638D+02 0.221534175573964D+02 0.259573878877931D+02 0.848593817793204D+01
 0.233161750366150D+02 -.607452717654710D+01 0.129281032293498D+02 0.184284639840313D+02
-.110036929779D-04 0.000000000000D+00 0.000000000000D+00 0.561435097803D-06 0.000000000000D+00  6 21 2 25 24 1 21 4 0.13028304D+00 0.40404737D-02 0.20531670D+05 0.20531670D+05 0.20531670D+05 0.12325736D+01  1  2 13  3  6  5        1 -.275780049703D-01 0.100000000000D+01
0.471643250511D-04 0.000000000000D+00 0.000000000000D+00 0.561233728664D-06 0.565665786390D-07  6 21 2 25 24 1 21 4 0.13028304D+00 0.40404737D-02 0.20531670D+05 0.20531670D+05 0.20531670D+05 0.12325736D+01  1  2  1  3  6  5        1 0.118205587278D+00 0.100000000000D+01
  </mgrwgt>
  </event>
  <event>
  5     66 0.46027262E-03 0.33644698E+02 0.75467711E-02 0.12216834E+00
       21 -1    0    0  501  502 0.00000000E+00 0.00000000E+00 0.11882449E+03 0.11882686E+03 0.75000000E+00 0.0000E+00 0.9000E+01
        2 -1    0    0  502    0 0.00000000E+00 0.00000000E+00 -.13171859E+03 0.13171898E+03 0.32000000E+00 0.0000E+00 0.9000E+01
       25  1    1    2    0    0 0.69052747E+01 0.19168020E+01 -.13481436E+02 0.12592897E+03 0.12500000E+03 0.0000E+00 0.9000E+01
       24  1    1    2    0    0 -.19743773E+02 -.33014390E+02 -.90890145E+01 0.89607994E+02 0.80419002E+02 0.0000E+00 0.9000E+01
        1  1    1    2  501    0 0.12838499E+02 0.31097588E+02 0.96763523E+01 0.35008873E+02 0.32000000E+00 0.0000E+00 0.9000E+01
#aMCatNLO 1  0  0  1  2 0.19339385D+02 0.00000000D+00  -5  6  0 0.00000000D+00 0.00000000D+00 0.00000000D+00 0.00000000D+00 0.00000000D+00
  <mgrwgt>
 0.1549436408D+00   23    2    0
 0.125106914412083D+03 0.000000000000000D+00 0.000000000000000D+00 0.125106914412083D+03
 0.125106914412083D+03 0.000000000000000D+00 0.000000000000000D+00 -.125106914412083D+03
 0.125401328054228D+03 0.690501407609779D+01 0.191617065478341D+01 -.701014610366826D+01
 0.892587336836835D+02 -.197439587411147D+02 -.330148391637496D+02 -.448353350217325D+01
 0.355537670862550D+02 0.128389446650169D+02 0.310986685089662D+02 0.114936796058415D+02
 0.000000000000000D+00 0.000000000000000D+00 0.000000000000000D+00 0.000000000000000D+00
 0.150108918404675D+03 0.000000000000000D+00 0.000000000000000D+00 0.150108918404675D+03
 0.129276528161957D+03 0.000000000000000D+00 0.000000000000000D+00 -.129276528161957D+03
 0.125344408709714D+03 0.127629888132908D+01 -.595396570015459D+01 -.701014610366826D+01
 0.924882525219956D+02 -.238237968913537D+02 -.387193172617534D+02 -.448353350217325D+01
 0.331274391030384D+02 0.112971958246900D+02 0.289429769917053D+02 0.114936796058415D+02
 0.284253462318834D+02 0.112503021853346D+02 0.157303059702026D+02 0.208323902427185D+02
0.143876158992D-05 0.000000000000D+00 0.000000000000D+00 0.832202825028D-06 0.000000000000D+00  6 21 2 25 24 1 21 2 0.18280903D-01 0.20264611D-01 0.15375503D+05 0.15375503D+05 0.15375503D+05 0.12466002D+01  1  2  2  1  6  1       21 0.201703091981D-01 0.100000000000D+01
0.147586729683D-08 0.759255350366D-07 -.290444512447D-08 0.832202825028D-06 0.000000000000D+00  6 21 2 25 24 1 21 4 0.18280903D-01 0.20264611D-01 0.15375503D+05 0.15375503D+05 0.15375503D+05 0.12466002D+01  1  2  3  1  6  1       21 0.321532917729D-04 0.100000000000D+01
0.144558616621D-06 0.000000000000D+00 0.000000000000D+00 0.832202825028D-06 0.000000000000D+00  6 21 2 25 24 1 21 4 0.18280903D-01 0.20264611D-01 0.15375503D+05 0.15375503D+05 0.15375503D+05 0.12466002D+01  1  2 15  1  6  1       21 0.314935861000D-02 0.100000000000D+01
0.444173995205D-05 0.000000000000D+00 0.000000000000D+00 0.822135307573D-06 0.000000000000D+00  6 21 2 25 24 1 21 4 0.22196918D-01 0.20264611D-01 0.17947528D+05 0.17947528D+05 0.17947528D+05 0.12390370D+01  1  2 12  1  6  1       21 0.660983254887D-01 0.100000000000D+01
-.897535523550D-06 0.000000000000D+00 0.000000000000D+00 0.832202825028D-06 0.000000000000D+00  6 21 2 25 24 1 21 4 0.18280903D-01 0.20264611D-01 0.15375503D+05 0.15375503D+05 0.15375503D+05 0.12466002D+01  1  2  4  1  6  1       21 -.195537374039D-01 0.100000000000D+01
-.145369746563D-04 0.000000000000D+00 -.257888990544D-05 0.832202825028D-06 0.000000000000D+00  6 21 2 25 24 1 21 4 0.22576148D-01 0.20264611D-01 0.15375503D+05 0.15375503D+05 0.15375503D+05 0.12466002D+01  1  2  5  1  6  1       21 -.214346372277D+00 0.100000000000D+01
0.139442727019D-04 0.000000000000D+00 0.236291353458D-05 0.832202825028D-06 0.000000000000D+00  6 21 2 25 24 1 21 4 0.18280903D-01 0.20264611D-01 0.15375503D+05 0.15375503D+05 0.15375503D+05 0.12466002D+01  1  2  6  1  6  1       21 0.303790367675D+00 0.100000000000D+01
0.245794920029D-06 0.000000000000D+00 0.000000000000D+00 0.822135307573D-06 0.000000000000D+00  6 -1 2 25 24 1 -1 4 0.22196918D-01 0.20264611D-01 0.17947528D+05 0.17947528D+05 0.17947528D+05 0.12390370D+01  1  2 12  4  6  1       21 0.292879022857D-03 0.100000000000D+01
-.737308189789D-06 0.000000000000D+00 -.157877500956D-06 0.832202825028D-06 0.000000000000D+00  6 -1 2 25 24 1 -1 4 0.22576148D-01 0.20264611D-01 0.15375503D+05 0.15375503D+05 0.15375503D+05 0.12466002D+01  1  2  5  4  6  1       21 -.871652783626D-03 0.100000000000D+01
0.245794920029D-06 0.000000000000D+00 0.000000000000D+00 0.822135307573D-06 0.000000000000D+00  6 1 2 25 24 1 1 4 0.22196918D-01 0.20264611D-01 0.17947528D+05 0.17947528D+05 0.17947528D+05 0.12390370D+01  1  2 12  5  6  1       21 0.456756020828D-03 0.100000000000D+01
-.737308189789D-06 0.000000000000D+00 -.157877500956D-06 0.832202825028D-06 0.000000000000D+00  6 1 2 25 24 1 1 4 0.22576148D-01 0.20264611D-01 0.15375503D+05 0.15375503D+05 0.15375503D+05 0.12466002D+01  1  2  5  5  6  1       21 -.136783723506D-02 0.100000000000D+01
0.245794920029D-06 0.000000000000D+00 0.000000000000D+00 0.822135307573D-06 0.000000000000D+00  6 -2 2 25 24 1 -2 4 0.22196918D-01 0.20264611D-01 0.17947528D+05 0.17947528D+05 0.17947528D+05 0.12390370D+01  1  2 12  6  6  1       21 0.265302270990D-03 0.100000000000D+01
-.737308189789D-06 0.000000000000D+00 -.157877500956D-06 0.832202825028D-06 0.000000000000D+00  6 -2 2 25 24 1 -2 4 0.22576148D-01 0.20264611D-01 0.15375503D+05 0.15375503D+05 0.15375503D+05 0.12466002D+01  1  2  5  6  6  1       21 -.788159026221D-03 0.100000000000D+01
0.245794920029D-06 0.000000000000D+00 0.000000000000D+00 0.822135307573D-06 0.000000000000D+00  6 2 2 25 24 1 2 4 0.22196918D-01 0.20264611D-01 0.17947528D+05 0.17947528D+05 0.17947528D+05 0.12390370D+01  1  2 12  7  6  1       21 0.572638277450D-03 0.100000000000D+01
-.737308189789D-06 0.000000000000D+00 -.157877500956D-06 0.832202825028D-06 0.000000000000D+00  6 2 2 25 24 1 2 4 0.22576148D-01 0.20264611D-01 0.15375503D+05 0.15375503D+05 0.15375503D+05 0.12466002D+01  1  2  5  7  6  1       21 -.171872632371D-02 0.100000000000D+01
0.245794920029D-06 0.000000000000D+00 0.000000000000D+00 0.822135307573D-06 0.000000000000D+00  6 -3 2 25 24 1 -3 4 0.22196918D-01 0.20264611D-01 0.17947528D+05 0.17947528D+05 0.17947528D+05 0.12390370D+01  1  2 12  8  6  1       21 0.171485126037D-03 0.100000000000D+01
0.245794920029D-06 0.000000000000D+00 0.000000000000D+00 0.822135307573D-06 0.000000000000D+00  6 -4 2 25 24 1 -4 4 0.22196918D-01 0.20264611D-01 0.17947528D+05 0.17947528D+05 0.17947528D+05 0.12390370D+01  1  2 12  8  6  1       21 0.145418896337D-03 0.100000000000D+01
-.737308189789D-06 0.000000000000D+00 -.157877500956D-06 0.832202825028D-06 0.000000000000D+00  6 -3 2 25 24 1 -3 4 0.22576148D-01 0.20264611D-01 0.15375503D+05 0.15375503D+05 0.15375503D+05 0.12466002D+01  1  2  5  8  6  1       21 -.507011233836D-03 0.100000000000D+01
-.737308189789D-06 0.000000000000D+00 -.157877500956D-06 0.832202825028D-06 0.000000000000D+00  6 -4 2 25 24 1 -4 4 0.22576148D-01 0.20264611D-01 0.15375503D+05 0.15375503D+05 0.15375503D+05 0.12466002D+01  1  2  5  8  6  1       21 -.428887393206D-03 0.100000000000D+01
0.245794920029D-06 0.000000000000D+00 0.000000000000D+00 0.822135307573D-06 0.000000000000D+00  6 3 2 25 24 1 3 4 0.22196918D-01 0.20264611D-01 0.17947528D+05 0.17947528D+05 0.17947528D+05 0.12390370D+01  1  2 12  9  6  1       21 0.171472037473D-03 0.100000000000D+01
0.245794920029D-06 0.000000000000D+00 0.000000000000D+00 0.822135307573D-06 0.000000000000D+00  6 4 2 25 24 1 4 4 0.22196918D-01 0.20264611D-01 0.17947528D+05 0.17947528D+05 0.17947528D+05 0.12390370D+01  1  2 12  9  6  1       21 0.145418896337D-03 0.100000000000D+01
-.737308189789D-06 0.000000000000D+00 -.157877500956D-06 0.832202825028D-06 0.000000000000D+00  6 3 2 25 24 1 3 4 0.22576148D-01 0.20264611D-01 0.15375503D+05 0.15375503D+05 0.15375503D+05 0.12466002D+01  1  2  5  9  6  1       21 -.506972921170D-03 0.100000000000D+01
-.737308189789D-06 0.000000000000D+00 -.157877500956D-06 0.832202825028D-06 0.000000000000D+00  6 4 2 25 24 1 4 4 0.22576148D-01 0.20264611D-01 0.15375503D+05 0.15375503D+05 0.15375503D+05 0.12466002D+01  1  2  5  9  6  1       21 -.428887393206D-03 0.100000000000D+01
  </mgrwgt>
  </event>
  <event>
  6     66 0.46027262E-03 0.17629959E+02 0.75467711E-02 0.12009601E+00
       21 -1    0    0  501  502 0.00000000E+00 0.00000000E+00 0.13145197E+02 0.13166575E+02 0.75000000E+00 0.0000E+00 0.9000E+01
        2 -1    0    0  502    0 -.00000000E+00 -.00000000E+00 -.18097904E+04 0.18097904E+04 0.32000000E+00 0.0000E+00 0.9000E+01
       25  1    1    2    0    0 0.81729559E+02 -.16891291E+02 -.95644989E+03 0.96818719E+03 0.12500000E+03 0.0000E+00 0.9000E+01
       24  1    1    2    0    0 -.59617168E+02 0.38197761E+02 -.50523753E+03 0.51647406E+03 0.80419002E+02 0.0000E+00 0.9000E+01
        1  1    1    2  503    0 -.16232897E+02 0.30756875E+01 -.22057168E+03 0.22118982E+03 0.32000000E+00 0.0000E+00 0.9000E+01
       21  1    1    2  501  503 -.58794941E+01 -.24382158E+02 -.11438608E+03 0.11710592E+03 0.75000000E+00 0.0000E+00 0.9000E+01
#aMCatNLO 2  0  0  5  1 0.17848990D+02 0.00000000D+00  -5  6  0 0.00000000D+00 0.00000000D+00 0.00000000D+00 0.00000000D+00 0.00000000D+00
  <mgrwgt>
 0.1332434465D+00    2    2    0
 0.154303473646650D+03 0.000000000000000D+00 0.000000000000000D+00 0.154303473646650D+03
 0.154303473646650D+03 -.000000000000000D+00 -.000000000000000D+00 -.154303473646650D+03
 0.153340468110209D+03 0.874048221785563D+02 -.114228712760119D+02 -.108726368469039D+02
 0.109103760686793D+03 -.555399980630198D+02 0.421263322548001D+02 0.240228097346773D+02
 0.461627184962971D+02 -.318648241155364D+02 -.307034609787882D+02 -.131501728877734D+02
 0.000000000000000D+00 0.000000000000000D+00 0.000000000000000D+00 0.000000000000000D+00
 0.154303473646650D+03 0.000000000000000D+00 0.000000000000000D+00 0.154303473646650D+03
 0.154303473646650D+03 -.000000000000000D+00 -.000000000000000D+00 -.154303473646650D+03
 0.150892278819574D+03 0.817613240865803D+02 -.168606832916245D+02 -.132016305778035D+02
 0.109448397546410D+03 -.595941266880063D+02 0.382199626608889D+02 0.223497268350341D+02
 0.219502263871531D+02 -.157000327080522D+02 0.348364303520658D+01 -.149393990045323D+02
 0.263160445401622D+02 -.646716469052181D+01 -.248429224044709D+02 0.579130274730174D+01
-.158056738948D-05 0.000000000000D+00 0.000000000000D+00 0.271591136424D-06 0.000000000000D+00  6 21 2 25 24 1 21 4 0.20239846D-02 0.27843094D+00 0.22381445D+05 0.22381445D+05 0.22381445D+05 0.12284832D+01  1  2 13  3  6  5        1 -.527146611259D-01 0.100000000000D+01
0.557566556472D-05 0.000000000000D+00 0.000000000000D+00 0.270980489986D-06 0.985761841502D-08  6 21 2 25 24 1 21 4 0.20239846D-02 0.27843094D+00 0.22381445D+05 0.22381445D+05 0.22381445D+05 0.12284832D+01  1  2  1  3  6  5        1 0.185958107671D+00 0.100000000000D+01
  </mgrwgt>
  </event>
  <event>
  5     66 0.46027262E-03 0.15952378E+03 0.75467711E-02 0.10789412E+00
       21 -1    0    0  501  502 0.00000000E+00 0.00000000E+00 0.20670547E+03 0.20670683E+03 0.75000000E+00 0.0000E+00 0.9000E+01
        2 -1    0    0  502    0 0.00000000E+00 0.00000000E+00 -.76017977E+03 0.76017984E+03 0.32000000E+00 0.0000E+00 0.9000E+01
       25  1    1    2    0    0 0.12458780E+03 0.57659305E+02 0.51425912E+02 0.19265602E+03 0.12500000E+03 0.0000E+00 0.9000E+01
       24  1    1    2    0    0 0.14158693E+03 0.17179735E+02 -.82903270E+02 0.18352703E+03 0.80419002E+02 0.0000E+00 0.9000E+01
        1  1    1    2  501    0 -.26617473E+03 -.74839040E+02 -.52199694E+03 0.59070363E+03 0.32000000E+00 0.0000E+00 0.9000E+01
#aMCatNLO 1  0  0  1  2 0.19339385D+02 0.00000000D+00  -5  6  0 0.00000000D+00 0.00000000D+00 0.00000000D+00 0.00000000D+00 0.00000000D+00
  <mgrwgt>
 0.1725262323D-02    1    2    0
 0.396401323403885D+03 0.000000000000000D+00 0.000000000000000D+00 0.396401323403885D+03
 0.396401323403885D+03 0.000000000000000D+00 0.000000000000000D+00 -.396401323403885D+03
 0.270861214819346D+03 0.124587840031542D+03 0.576593152982148D+02 0.197215798477272D+03
 0.165949275141841D+03 0.141586949687832D+03 0.171797409080512D+02 0.270173674912898D+02
 0.355992156846583D+03 -.266174789719374D+03 -.748390562062660D+02 -.224233165968562D+03
 0.000000000000000D+00 -.000000000000000D+00 -.000000000000000D+00 0.000000000000000D+00
 0.536697374390463D+03 0.000000000000000D+00 0.000000000000000D+00 0.536697374390463D+03
 0.486803754506178D+03 0.000000000000000D+00 0.000000000000000D+00 -.486803754506178D+03
 0.304823019360476D+03 0.152077174224252D+03 0.123574006340233D+03 0.197215798477272D+03
 0.188865698031883D+03 0.158529618593896D+03 0.578053442253769D+02 0.270173674912898D+02
 0.323897691201606D+03 -.233709562885684D+03 0.300696877746226D+01 -.224233165968562D+03
 0.205914720302676D+03 -.768972299324639D+02 -.184386319343072D+03 0.498936198842854D+02
0.214120397704D-05 0.000000000000D+00 0.000000000000D+00 0.111676820141D-06 0.000000000000D+00  6 21 2 25 24 1 21 4 0.31800952D-01 0.11695084D+00 0.97936642D+05 0.97936642D+05 0.97936642D+05 0.11644044D+01  1  2 14  1  6  1       21 0.172526232291D-02 0.100000000000D+01
  </mgrwgt>
  </event>
  <event>
  5     66 -.46027262E-03 0.47976775E+02 0.75467711E-02 0.11440075E+00
       21 -1    0    0  501  502 0.00000000E+00 0.00000000E+00 0.21476155E+02 0.21489247E+02 0.75000000E+00 0.0000E+00 0.9000E+01
        2 -1    0    0  502    0 0.00000000E+00 0.00000000E+00 -.96928676E+03 0.96928681E+03 0.32000000E+00 0.0000E+00 0.9000E+01
       25  1    1    2    0    0 -.19451518E+02 -.31585088E+02 -.28668346E+03 0.31494187E+03 0.12500000E+03 0.0000E+00 0.9000E+01
       24  1    1    2    0    0 0.43196433E+02 -.10102819E+02 -.40935029E+03 0.41952697E+03 0.80419002E+02 0.0000E+00 0.9000E+01
        1  1    1    2  501    0 -.23744915E+02 0.41687907E+02 -.25177686E+03 0.25630722E+03 0.32000000E+00 0.0000E+00 0.9000E+01
#aMCatNLO 1  0  0  1  1 0.72801103D+02 0.00000000D+00  -5  6  0 0.00000000D+00 0.00000000D+00 0.00000000D+00 0.00000000D+00 0.00000000D+00
  <mgrwgt>
 -.4506663959D+00   12    2    0
 0.144301989829961D+03 0.000000000000000D+00 0.000000000000000D+00 0.144301989829961D+03
 0.144301989829961D+03 0.000000000000000D+00 0.000000000000000D+00 -.144301989829961D+03
 0.139690672486983D+03 -.194513086129425D+02 -.315854549634984D+02 0.501247404767200D+02
 0.958778969097901D+02 0.431965766512811D+02 -.101030713885564D+02 -.275197906169638D+02
 0.530354102631496D+02 -.237452680383385D+02 0.416885263520547D+02 -.226049498597561D+02
 0.000000000000000D+00 -.000000000000000D+00 -.000000000000000D+00 0.000000000000000D+00
 0.171095717202758D+04 0.000000000000000D+00 0.000000000000000D+00 0.171095717202758D+04
 0.158401251799848D+03 0.000000000000000D+00 0.000000000000000D+00 -.158401251799848D+03
 0.138969398352145D+03 0.321671869552032D+02 -.118438234488498D+02 0.501247404767200D+02
 0.118897288342989D+03 0.829811497145617D+02 0.511264485303794D+01 -.275197906169638D+02
 0.543696596085905D+02 -.384974405287515D+01 0.492976226457145D+02 -.226049498597561D+02
 0.155712207752371D+04 -.111298592616890D+03 -.425664440499026D+02 0.155255592022773D+04
0.453517595519D-06 0.000000000000D+00 0.000000000000D+00 0.281053029172D-06 0.000000000000D+00  6 21 2 25 24 1 21 2 0.33050350D-02 0.14912205D+00 0.18253112D+05 0.18253112D+05 0.18253112D+05 0.12382200D+01  1  2  2  1  6  1       21 0.129788189899D-01 0.100000000000D+01
-.336034496277D-07 0.239327810316D-07 -.915521361142D-09 0.281053029172D-06 0.000000000000D+00  6 21 2 25 24 1 21 4 0.33050350D-02 0.14912205D+00 0.18253112D+05 0.18253112D+05 0.18253112D+05 0.12382200D+01  1  2  3  1  6  1       21 -.147441763441D-02 0.100000000000D+01
0.491785317739D-07 0.000000000000D+00 0.000000000000D+00 0.281053029172D-06 0.000000000000D+00  6 21 2 25 24 1 21 4 0.33050350D-02 0.14912205D+00 0.18253112D+05 0.18253112D+05 0.18253112D+05 0.12382200D+01  1  2 15  1  6  1       21 0.215780508505D-02 0.100000000000D+01
-.728338209648D-03 0.000000000000D+00 -.213663317859D-04 0.281053029172D-06 0.000000000000D+00  6 21 2 25 24 1 21 4 0.41690656D-01 0.14912205D+00 0.18253112D+05 0.18253112D+05 0.18253112D+05 0.12382200D+01  1  2  5  1  6  1       21 -.341752669837D+00 0.100000000000D+01
-.320896122231D-03 0.000000000000D+00 -.939979856675D-05 0.281053029172D-06 0.000000000000D+00  6 -1 2 25 24 1 -1 4 0.41690656D-01 0.14912205D+00 0.18253112D+05 0.18253112D+05 0.18253112D+05 0.12382200D+01  1  2  5  4  6  1       21 -.141213377304D-01 0.100000000000D+01
-.320896122231D-03 0.000000000000D+00 -.939979856675D-05 0.281053029172D-06 0.000000000000D+00  6 1 2 25 24 1 1 4 0.41690656D-01 0.14912205D+00 0.18253112D+05 0.18253112D+05 0.18253112D+05 0.12382200D+01  1  2  5  5  6  1       21 -.290742231943D-01 0.100000000000D+01
-.320896122231D-03 0.000000000000D+00 -.939979856675D-05 0.281053029172D-06 0.000000000000D+00  6 -2 2 25 24 1 -2 4 0.41690656D-01 0.14912205D+00 0.18253112D+05 0.18253112D+05 0.18253112D+05 0.12382200D+01  1  2  5  6  6  1       21 -.118667798433D-01 0.100000000000D+01
-.320896122231D-03 0.000000000000D+00 -.939979856675D-05 0.281053029172D-06 0.000000000000D+00  6 2 2 25 24 1 2 4 0.41690656D-01 0.14912205D+00 0.18253112D+05 0.18253112D+05 0.18253112D+05 0.12382200D+01  1  2  5  7  6  1       21 -.403418458824D-01 0.100000000000D+01
-.320896122231D-03 0.000000000000D+00 -.939979856675D-05 0.281053029172D-06 0.000000000000D+00  6 -3 2 25 24 1 -3 4 0.41690656D-01 0.14912205D+00 0.18253112D+05 0.18253112D+05 0.18253112D+05 0.12382200D+01  1  2  5  8  6  1       21 -.743652617937D-02 0.100000000000D+01
-.320896122231D-03 0.000000000000D+00 -.939979856675D-05 0.281053029172D-06 0.000000000000D+00  6 -4 2 25 24 1 -4 4 0.41690656D-01 0.14912205D+00 0.18253112D+05 0.18253112D+05 0.18253112D+05 0.12382200D+01  1  2  5  8  6  1       21 -.614850833554D-02 0.100000000000D+01
-.320896122231D-03 0.000000000000D+00 -.939979856675D-05 0.281053029172D-06 0.000000000000D+00  6 3 2 25 24 1 3 4 0.41690656D-01 0.14912205D+00 0.18253112D+05 0.18253112D+05 0.18253112D+05 0.12382200D+01  1  2  5  9  6  1       21 -.743820304935D-02 0.100000000000D+01
-.320896122231D-03 0.000000000000D+00 -.939979856675D-05 0.281053029172D-06 0.000000000000D+00  6 4 2 25 24 1 4 4 0.41690656D-01 0.14912205D+00 0.18253112D+05 0.18253112D+05 0.18253112D+05 0.12382200D+01  1  2  5  9  6  1       21 -.614850833554D-02 0.100000000000D+01
  </mgrwgt>
  </event>
  <event>
  5     66 0.46027262E-03 0.13446760E+03 0.75467711E-02 0.11176178E+00
       21 -1    0    0  501  502 0.00000000E+00 0.00000000E+00 0.60029362E+03 0.60029409E+03 0.75000000E+00 0.0000E+00 0.9000E+01
        2 -1    0    0  502    0 0.00000000E+00 0.00000000E+00 -.11793099E+03 0.11793143E+03 0.32000000E+00 0.0000E+00 0.9000E+01
       25  1    1    2    0    0 0.20602169E+02 -.60167527E+02 0.23557029E+03 0.27415861E+03 0.12500000E+03 0.0000E+00 0.9000E+01
       24  1    1    2    0    0 0.10078938E+03 -.77720835E+02 0.20723030E+03 0.25614574E+03 0.80419002E+02 0.0000E+00 0.9000E+01
        1  1    1    2  501    0 -.12139154E+03 0.13788836E+03 0.39562031E+02 0.18792116E+03 0.32000000E+00 0.0000E+00 0.9000E+01
#aMCatNLO 1  0  0  1  2 0.11649096D+02 0.00000000D+00  -5  6  0 0.00000000D+00 0.00000000D+00 0.00000000D+00 0.00000000D+00 0.00000000D+00
  <mgrwgt>
 0.4734471773D-01   32    2    0
 0.266070567268934D+03 0.000000000000000D+00 0.000000000000000D+00 0.266070567268934D+03
 0.266070567268934D+03 0.000000000000000D+00 0.000000000000000D+00 -.266070567268934D+03
 0.156494995498648D+03 0.206022070631006D+02 -.601675705105854D+02 0.694341136553550D+02
 0.157872186151105D+03 0.100789414015474D+03 -.777208791695466D+02 0.475117897925231D+02
 0.217773952888115D+03 -.121391621078574D+03 0.137888449680132D+03 -.116945903447878D+03
 0.000000000000000D+00 -.000000000000000D+00 -.000000000000000D+00 0.000000000000000D+00
 0.288816285288562D+03 0.000000000000000D+00 0.000000000000000D+00 0.288816285288562D+03
 0.267630009234720D+03 0.000000000000000D+00 0.000000000000000D+00 -.267630009234720D+03
 0.155257989408020D+03 0.208893476419431D+02 -.567677927262480D+02 0.694341136553550D+02
 0.156400344730477D+03 0.101078875226113D+03 -.742936248353544D+02 0.475117897925231D+02
 0.220610290249050D+03 -.120987846579454D+03 0.142669186619243D+03 -.116945903447878D+03
 0.241776701357344D+02 -.980376288602081D+00 -.116077690576403D+02 0.211862760538424D+02
0.120165244915D-04 0.000000000000D+00 0.000000000000D+00 0.162975168424D-06 0.000000000000D+00  6 21 2 25 24 1 21 2 0.92352934D-01 0.18143299D-01 0.56290147D+05 0.56290147D+05 0.56290147D+05 0.11872185D+01  1  2  2  1  6  1       21 0.627586011189D-02 0.100000000000D+01
-.155305050115D-05 0.634129419140D-06 -.242579008342D-07 0.162975168424D-06 0.000000000000D+00  6 21 2 25 24 1 21 4 0.92352934D-01 0.18143299D-01 0.56290147D+05 0.56290147D+05 0.56290147D+05 0.11872185D+01  1  2  3  1  6  1       21 -.114325018405D-02 0.100000000000D+01
0.116664719053D-05 0.000000000000D+00 0.000000000000D+00 0.162975168424D-06 0.000000000000D+00  6 21 2 25 24 1 21 4 0.92352934D-01 0.18143299D-01 0.56290147D+05 0.56290147D+05 0.56290147D+05 0.11872185D+01  1  2 15  1  6  1       21 0.858806339075D-03 0.100000000000D+01
0.161843029067D-03 0.000000000000D+00 0.000000000000D+00 0.162391493998D-06 0.000000000000D+00  6 21 2 25 24 1 21 4 0.10050493D+00 0.18143299D-01 0.59191915D+05 0.59191915D+05 0.59191915D+05 0.11850907D+01  1  2 12  1  6  1       21 0.966708353258D-01 0.100000000000D+01
0.158462489741D-03 0.000000000000D+00 0.000000000000D+00 0.162391493998D-06 0.000000000000D+00  6 21 2 25 24 1 21 4 0.10066992D+00 0.18143299D-01 0.59191915D+05 0.59191915D+05 0.59191915D+05 0.11850907D+01  1  2 12  1  6  1       21 0.942800263150D-01 0.100000000000D+01
-.287227700410D-03 0.000000000000D+00 0.000000000000D+00 0.162975168424D-06 0.000000000000D+00  6 21 2 25 24 1 21 4 0.92352934D-01 0.18143299D-01 0.56290147D+05 0.56290147D+05 0.56290147D+05 0.11872185D+01  1  2  4  1  6  1       21 -.211437503877D+00 0.100000000000D+01
-.497831174374D-03 0.000000000000D+00 -.431924757036D-04 0.162975168424D-06 0.000000000000D+00  6 21 2 25 24 1 21 4 0.10055177D+00 0.18143299D-01 0.56290147D+05 0.56290147D+05 0.56290147D+05 0.11872185D+01  1  2  5  1  6  1       21 -.299728124564D+00 0.100000000000D+01
0.494587701138D-03 0.000000000000D+00 0.425738809155D-04 0.162975168424D-06 0.000000000000D+00  6 21 2 25 24 1 21 4 0.92352934D-01 0.18143299D-01 0.56290147D+05 0.56290147D+05 0.56290147D+05 0.11872185D+01  1  2  6  1  6  1       21 0.364081837608D+00 0.100000000000D+01
0.355045132825D-05 0.000000000000D+00 0.000000000000D+00 0.162391493998D-06 0.000000000000D+00  6 -1 2 25 24 1 -1 4 0.10050493D+00 0.18143299D-01 0.59191915D+05 0.59191915D+05 0.59191915D+05 0.11850907D+01  1  2 12  4  6  1       21 0.248263611544D-03 0.100000000000D+01
0.355136300022D-05 0.000000000000D+00 0.000000000000D+00 0.162391493998D-06 0.000000000000D+00  6 -1 2 25 24 1 -1 4 0.10066992D+00 0.18143299D-01 0.59191915D+05 0.59191915D+05 0.59191915D+05 0.11850907D+01  1  2 12  4  6  1       21 0.247417922815D-03 0.100000000000D+01
-.972490119541D-05 0.000000000000D+00 -.920553664418D-06 0.162975168424D-06 0.000000000000D+00  6 -1 2 25 24 1 -1 4 0.10055177D+00 0.18143299D-01 0.56290147D+05 0.56290147D+05 0.56290147D+05 0.11872185D+01  1  2  5  4  6  1       21 -.684399312451D-03 0.100000000000D+01
0.355045132825D-05 0.000000000000D+00 0.000000000000D+00 0.162391493998D-06 0.000000000000D+00  6 1 2 25 24 1 1 4 0.10050493D+00 0.18143299D-01 0.59191915D+05 0.59191915D+05 0.59191915D+05 0.11850907D+01  1  2 12  5  6  1       21 0.921001497520D-03 0.100000000000D+01
0.355136300022D-05 0.000000000000D+00 0.000000000000D+00 0.162391493998D-06 0.000000000000D+00  6 1 2 25 24 1 1 4 0.10066992D+00 0.18143299D-01 0.59191915D+05 0.59191915D+05 0.59191915D+05 0.11850907D+01  1  2 12  5  6  1       21 0.919084487296D-03 0.100000000000D+01
-.972490119541D-05 0.000000000000D+00 -.920553664418D-06 0.162975168424D-06 0.000000000000D+00  6 1 2 25 24 1 1 4 0.10055177D+00 0.18143299D-01 0.56290147D+05 0.56290147D+05 0.56290147D+05 0.11872185D+01  1  2  5  5  6  1       21 -.253957388098D-02 0.100000000000D+01
0.355045132825D-05 0.000000000000D+00 0.000000000000D+00 0.162391493998D-06 0.000000000000D+00  6 -2 2 25 24 1 -2 4 0.10050493D+00 0.18143299D-01 0.59191915D+05 0.59191915D+05 0.59191915D+05 0.11850907D+01  1  2 12  6  6  1       21 0.185228872359D-03 0.100000000000D+01
0.355136300022D-05 0.000000000000D+00 0.000000000000D+00 0.162391493998D-06 0.000000000000D+00  6 -2 2 25 24 1 -2 4 0.10066992D+00 0.18143299D-01 0.59191915D+05 0.59191915D+05 0.59191915D+05 0.11850907D+01  1  2 12  6  6  1       21 0.184568059882D-03 0.100000000000D+01
-.972490119541D-05 0.000000000000D+00 -.920553664418D-06 0.162975168424D-06 0.000000000000D+00  6 -2 2 25 24 1 -2 4 0.10055177D+00 0.18143299D-01 0.56290147D+05 0.56290147D+05 0.56290147D+05 0.11872185D+01  1  2  5  6  6  1       21 -.510460075255D-03 0.100000000000D+01
0.355045132825D-05 0.000000000000D+00 0.000000000000D+00 0.162391493998D-06 0.000000000000D+00  6 2 2 25 24 1 2 4 0.10050493D+00 0.18143299D-01 0.59191915D+05 0.59191915D+05 0.59191915D+05 0.11850907D+01  1  2 12  7  6  1       21 0.152943719688D-02 0.100000000000D+01
0.355136300022D-05 0.000000000000D+00 0.000000000000D+00 0.162391493998D-06 0.000000000000D+00  6 2 2 25 24 1 2 4 0.10066992D+00 0.18143299D-01 0.59191915D+05 0.59191915D+05 0.59191915D+05 0.11850907D+01  1  2 12  7  6  1       21 0.152684598756D-02 0.100000000000D+01
-.972490119541D-05 0.000000000000D+00 -.920553664418D-06 0.162975168424D-06 0.000000000000D+00  6 2 2 25 24 1 2 4 0.10055177D+00 0.18143299D-01 0.56290147D+05 0.56290147D+05 0.56290147D+05 0.11872185D+01  1  2  5  7  6  1       21 -.421674740246D-02 0.100000000000D+01
0.355045132825D-05 0.000000000000D+00 0.000000000000D+00 0.162391493998D-06 0.000000000000D+00  6 -3 2 25 24 1 -3 4 0.10050493D+00 0.18143299D-01 0.59191915D+05 0.59191915D+05 0.59191915D+05 0.11850907D+01  1  2 12  8  6  1       21 0.118568655601D-03 0.100000000000D+01
0.355045132825D-05 0.000000000000D+00 0.000000000000D+00 0.162391493998D-06 0.000000000000D+00  6 -4 2 25 24 1 -4 4 0.10050493D+00 0.18143299D-01 0.59191915D+05 0.59191915D+05 0.59191915D+05 0.11850907D+01  1  2 12  8  6  1       21 0.956857496615D-04 0.100000000000D+01
0.355136300022D-05 0.000000000000D+00 0.000000000000D+00 0.162391493998D-06 0.000000000000D+00  6 -3 2 25 24 1 -3 4 0.10066992D+00 0.18143299D-01 0.59191915D+05 0.59191915D+05 0.59191915D+05 0.11850907D+01  1  2 12  8  6  1       21 0.118150718075D-03 0.100000000000D+01
0.355136300022D-05 0.000000000000D+00 0.000000000000D+00 0.162391493998D-06 0.000000000000D+00  6 -4 2 25 24 1 -4 4 0.10066992D+00 0.18143299D-01 0.59191915D+05 0.59191915D+05 0.59191915D+05 0.11850907D+01  1  2 12  8  6  1       21 0.953415792401D-04 0.100000000000D+01
-.972490119541D-05 0.000000000000D+00 -.920553664418D-06 0.162975168424D-06 0.000000000000D+00  6 -3 2 25 24 1 -3 4 0.10055177D+00 0.18143299D-01 0.56290147D+05 0.56290147D+05 0.56290147D+05 0.11872185D+01  1  2  5  8  6  1       21 -.326503353358D-03 0.100000000000D+01
-.972490119541D-05 0.000000000000D+00 -.920553664418D-06 0.162975168424D-06 0.000000000000D+00  6 -4 2 25 24 1 -4 4 0.10055177D+00 0.18143299D-01 0.56290147D+05 0.56290147D+05 0.56290147D+05 0.11872185D+01  1  2  5  8  6  1       21 -.263372475608D-03 0.100000000000D+01
0.355045132825D-05 0.000000000000D+00 0.000000000000D+00 0.162391493998D-06 0.000000000000D+00  6 3 2 25 24 1 3 4 0.10050493D+00 0.18143299D-01 0.59191915D+05 0.59191915D+05 0.59191915D+05 0.11850907D+01  1  2 12  9  6  1       21 0.118804279910D-03 0.100000000000D+01
0.355045132825D-05 0.000000000000D+00 0.000000000000D+00 0.162391493998D-06 0.000000000000D+00  6 4 2 25 24 1 4 4 0.10050493D+00 0.18143299D-01 0.59191915D+05 0.59191915D+05 0.59191915D+05 0.11850907D+01  1  2 12  9  6  1       21 0.956857496615D-04 0.100000000000D+01
0.355136300022D-05 0.000000000000D+00 0.000000000000D+00 0.162391493998D-06 0.000000000000D+00  6 3 2 25 24 1 3 4 0.10066992D+00 0.18143299D-01 0.59191915D+05 0.59191915D+05 0.59191915D+05 0.11850907D+01  1  2 12  9  6  1       21 0.118386211947D-03 0.100000000000D+01
0.355136300022D-05 0.000000000000D+00 0.000000000000D+00 0.162391493998D-06 0.000000000000D+00  6 4 2 25 24 1 4 4 0.10066992D+00 0.18143299D-01 0.59191915D+05 0.59191915D+05 0.59191915D+05 0.11850907D+01  1  2 12  9  6  1       21 0.953415792401D-04 0.100000000000D+01
-.972490119541D-05 0.000000000000D+00 -.920553664418D-06 0.162975168424D-06 0.000000000000D+00  6 3 2 25 24 1 3 4 0.10055177D+00 0.18143299D-01 0.56290147D+05 0.56290147D+05 0.56290147D+05 0.11872185D+01  1  2  5  9  6  1       21 -.327152529834D-03 0.100000000000D+01
-.972490119541D-05 0.000000000000D+00 -.920553664418D-06 0.162975168424D-06 0.000000000000D+00  6 4 2 25 24 1 4 4 0.10055177D+00 0.18143299D-01 0.56290147D+05 0.56290147D+05 0.56290147D+05 0.11872185D+01  1  2  5  9  6  1       21 -.263372475608D-03 0.100000000000D+01
  </mgrwgt>
  </event>
  <event>
  5     66 -.46027262E-03 0.38256002E+02 0.75467711E-02 0.12250516E+00
       21 -1    0    0  501  502 0.00000000E+00 0.00000000E+00 0.19423206E+02 0.19437681E+02 0.75000000E+00 0.0000E+00 0.9000E+01
        2 -1    0    0  502    0 -.00000000E+00 -.00000000E+00 -.25624754E+04 0.25624754E+04 0.32000000E+00 0.0000E+00 0.9000E+01
       25  1    1    2    0    0 0.38995591E+02 -.13507164E+02 -.18342373E+04 0.18389547E+04 0.12500000E+03 0.0000E+00 0.9000E+01
       24  1    1    2    0    0 -.40437705E+02 -.24721600E+02 -.69655899E+03 0.70278589E+03 0.80419002E+02 0.0000E+00 0.9000E+01
        1  1    1    2  501    0 0.14421142E+01 0.38228764E+02 -.12255924E+02 0.40172480E+02 0.32000000E+00 0.0000E+00 0.9000E+01
#aMCatNLO 1  0  0  5  1 0.75738144D+00 0.00000000D+00  -5  6  0 0.00000000D+00 0.00000000D+00 0.00000000D+00 0.00000000D+00 0.00000000D+00
  <mgrwgt>
 -.1725058135D+00    8    2    0
 0.223137176992228D+03 0.000000000000000D+00 0.000000000000000D+00 0.223137176992228D+03
 0.223137176992228D+03 -.000000000000000D+00 -.000000000000000D+00 -.223137176992228D+03
 0.187015478445549D+03 0.389955898891452D+02 -.135071950944588D+02 -.132840840211494D+03
 0.966809752523775D+02 -.404377058425239D+02 -.247216158643962D+02 -.251719819765357D+02
 0.162577900286529D+03 0.144211595337864D+01 0.382288109588550D+02 0.158012822188029D+03
 0.000000000000000D+00 0.000000000000000D+00 0.000000000000000D+00 0.000000000000000D+00
 0.223137176992228D+03 0.000000000000000D+00 0.000000000000000D+00 0.223137176992228D+03
 0.223137176992228D+03 -.000000000000000D+00 -.000000000000000D+00 -.223137176992228D+03
 0.187013158887114D+03 0.389956190529798D+02 -.135064219952383D+02 -.132837644726554D+03
 0.966804366547107D+02 -.404376907657098D+02 -.247212161956492D+02 -.251703300081623D+02
 0.555132679845621D+02 -.218339549166229D+00 0.133080768746399D+02 0.538940659077208D+02
 0.107067490458069D+03 0.166041126189618D+01 0.249195613162475D+02 0.104113908826996D+03
0.427567178563D-06 0.000000000000D+00 0.000000000000D+00 0.456243971325D-05 0.000000000000D+00  6 21 2 25 24 1 21 2 0.29893005D-02 0.39422810D+00 0.17323668D+05 0.17323668D+05 0.17323668D+05 0.12407544D+01  1  2  2  3  6  5        1 0.207961317474D-02 0.100000000000D+01
0.581513699034D-07 0.225633399055D-07 -.863134945954D-09 0.456243971325D-05 0.000000000000D+00  6 21 2 25 24 1 21 4 0.29893005D-02 0.39422810D+00 0.17323668D+05 0.17323668D+05 0.17323668D+05 0.12407544D+01  1  2  3  3  6  5        1 0.435421400377D-03 0.100000000000D+01
0.387474500488D-07 0.000000000000D+00 0.000000000000D+00 0.456243971325D-05 0.000000000000D+00  6 21 2 25 24 1 21 4 0.29893005D-02 0.39422810D+00 0.17323668D+05 0.17323668D+05 0.17323668D+05 0.12407544D+01  1  2 15  3  6  5        1 0.290130206551D-03 0.100000000000D+01
0.199610481131D-09 0.000000000000D+00 0.000000000000D+00 0.456236224971D-05 0.000000000000D+00  6 21 2 25 24 1 21 4 0.29893005D-02 0.39422810D+00 0.17327420D+05 0.17327420D+05 0.17327420D+05 0.12407438D+01  1  2 12  3  6  5        1 0.149456826697D-05 0.100000000000D+01
-.632878699139D-03 0.000000000000D+00 0.000000000000D+00 0.456243971325D-05 0.000000000000D+00  6 21 2 25 24 1 21 4 0.29893005D-02 0.39422810D+00 0.17323668D+05 0.17323668D+05 0.17323668D+05 0.12407544D+01  1  2  4  3  6  5        1 -.473882094103D+01 0.100000000000D+01
-.332182093702D-03 0.000000000000D+00 0.000000000000D+00 0.456243971325D-05 0.000000000000D+00  6 21 2 25 24 1 21 4 0.29893005D-02 0.39422810D+00 0.17323668D+05 0.17323668D+05 0.17323668D+05 0.12407544D+01  1  2  5  3  6  5        1 -.248728779150D+01 0.100000000000D+01
0.594998925803D-03 0.000000000000D+00 -.000000000000D+00 0.456243971325D-05 0.000000000000D+00  6 21 2 25 24 1 21 4 0.29893005D-02 0.39422810D+00 0.17323668D+05 0.17323668D+05 0.17323668D+05 0.12407544D+01  1  2  6  3  6  5        1 0.445518765811D+01 0.100000000000D+01
0.346662439743D-03 0.000000000000D+00 0.000000000000D+00 0.456243971325D-05 0.129937761539D-04  6 21 2 25 24 1 21 4 0.29893005D-02 0.39422810D+00 0.17327420D+05 0.17327420D+05 0.17327420D+05 0.12407438D+01  1  2 11  3  6  5        1 0.259560860160D+01 0.100000000000D+01
  </mgrwgt>
  </event>
  <event>
  6     66 0.46027262E-03 0.28871257E+02 0.75467711E-02 0.11836707E+00
       21 -1    0    0  501  503 0.00000000E+00 0.00000000E+00 0.42138984E+03 0.42139050E+03 0.75000000E+00 0.0000E+00 0.9000E+01
        2 -1    0    0  502    0 0.00000000E+00 0.00000000E+00 -.11537389E+04 0.11537389E+04 0.32000000E+00 0.0000E+00 0.9000E+01
       25  1    1    2    0    0 0.68410056E+02 0.33176347E+02 -.65036004E+03 0.66661367E+03 0.12500000E+03 0.0000E+00 0.9000E+01
       24  1    1    2    0    0 0.87218545E+01 -.40749508E+02 -.29069052E+03 0.30447461E+03 0.80419002E+02 0.0000E+00 0.9000E+01
        1  1    1    2  501    0 -.31542358E+02 0.28048309E+02 -.19385312E+03 0.19839547E+03 0.32000000E+00 0.0000E+00 0.9000E+01
       21  1    1    2  502  503 -.45589553E+02 -.20475147E+02 0.40255462E+03 0.40564569E+03 0.75000000E+00 0.0000E+00 0.9000E+01
#aMCatNLO 2  0  0  1  1 0.49976384D+02 0.00000000D+00  -5  6  0 0.00000000D+00 0.00000000D+00 0.00000000D+00 0.00000000D+00 0.00000000D+00
  <mgrwgt>
 0.9489738616D+00    1    2    0
 0.138913859627388D+03 0.000000000000000D+00 0.000000000000000D+00 0.138913859627388D+03
 0.138913859627388D+03 0.000000000000000D+00 0.000000000000000D+00 -.138913859627388D+03
 0.135694907554737D+03 0.454005701458467D+02 0.228418511751565D+02 -.143229187532633D+02
 0.957756061505335D+02 -.661972470127004D+01 -.476400536671470D+02 0.198079607885902D+02
 0.463572055495066D+02 -.387808454445767D+02 0.247982024919905D+02 -.548504203532685D+01
 0.000000000000000D+00 -.000000000000000D+00 -.000000000000000D+00 0.000000000000000D+00
 0.343992600556585D+04 0.000000000000000D+00 0.000000000000000D+00 0.343992600556585D+04
 0.141332723068910D+03 0.000000000000000D+00 0.000000000000000D+00 -.141332723068910D+03
 0.147006114598057D+03 0.684105277715660D+02 0.331760669401927D+02 -.143229187532633D+02
 0.927156201413416D+02 0.872219057292287D+01 -.407497036164716D+02 0.198079607885902D+02
 0.425651415910660D+02 -.315431657782534D+02 0.280487840239789D+02 -.548504203532685D+01
 0.329897185230430D+04 -.455895525662354D+02 -.204751473477000D+02 0.329859328249694D+04
0.706572992443D-02 0.000000000000D+00 0.000000000000D+00 0.384098798328D-06 0.113004560418D-05  6 21 2 25 24 1 21 4 0.64829241D-01 0.17749829D+00 0.27071494D+05 0.27071494D+05 0.27071494D+05 0.12196083D+01  1  2  1  1  6  1       21 0.948973861641D+00 0.100000000000D+01
  </mgrwgt>
  </event>
  <event>
  5     66 0.46027262E-03 0.11364830E+03 0.75467711E-02 0.11668330E+00
       21 -1    0    0  501  502 0.00000000E+00 0.00000000E+00 0.16889249E+02 0.16905894E+02 0.75000000E+00 0.0000E+00 0.9000E+01
        2 -1    0    0  502    0 0.00000000E+00 0.00000000E+00 -.20997920E+04 0.20997921E+04 0.32000000E+00 0.0000E+00 0.9000E+01
       25  1    1    2    0    0 -.50758762E+02 -.39127328E+02 -.52041099E+03 0.53903617E+03 0.12500000E+03 0.0000E+00 0.9000E+01
       24  1    1    2    0    0 0.84608256E+01 -.66356105E+02 -.74368031E+03 0.75100089E+03 0.80419002E+02 0.0000E+00 0.9000E+01
        1  1    1    2  501    0 0.42297937E+02 0.10548343E+03 -.81881151E+03 0.82666091E+03 0.32000000E+00 0.0000E+00 0.9000E+01
#aMCatNLO 1  0  0  2  1 0.32954990D+01 0.00000000D+00  -5  6  0 0.00000000D+00 0.00000000D+00 0.00000000D+00 0.00000000D+00 0.00000000D+00
  <mgrwgt>
 0.1293498580D+00   11    2    0
 0.188365475267560D+03 0.000000000000000D+00 0.000000000000000D+00 0.188365475267560D+03
 0.188365475267560D+03 0.000000000000000D+00 0.000000000000000D+00 -.188365475267560D+03
 0.151331600781894D+03 -.507588252937141D+02 -.391274849863010D+02 0.562924059590596D+02
 0.107844285148681D+03 0.846078076652385D+01 -.663562173580406D+02 -.262381686024897D+02
 0.117555064604545D+03 0.422980445271902D+02 0.105483702344342D+03 -.300542373565698D+02
 0.000000000000000D+00 -.000000000000000D+00 -.000000000000000D+00 -.000000000000000D+00
 0.189577752429668D+03 0.000000000000000D+00 0.000000000000000D+00 0.189577752429668D+03
 0.190625727585231D+03 0.000000000000000D+00 0.000000000000000D+00 -.190625727585231D+03
 0.150798890850026D+03 -.495291318678847D+02 -.386437007719509D+02 0.562924059590596D+02
 0.107704775691600D+03 0.933808137139600D+01 -.660110710191548D+02 -.262381686024897D+02
 0.118241697603097D+03 0.432577547727614D+02 0.105861270165235D+03 -.300542373565698D+02
 0.345811587017597D+01 -.306670427627276D+01 -.120649837412927D+01 -.104797515556271D+01
0.160950898555D-05 0.000000000000D+00 0.000000000000D+00 0.190650643850D-06 0.000000000000D+00  6 21 2 25 24 1 21 2 0.25996282D-02 0.32304621D+00 0.32170762D+05 0.32170762D+05 0.32170762D+05 0.12117269D+01  1  2  2  2  6  2        2 0.162370413241D-01 0.100000000000D+01
-.168671241630D-06 0.849361226556D-07 -.324913492173D-08 0.190650643850D-06 0.000000000000D+00  6 21 2 25 24 1 21 4 0.25996282D-02 0.32304621D+00 0.32170762D+05 0.32170762D+05 0.32170762D+05 0.12117269D+01  1  2  3  2  6  2        2 -.249841198759D-02 0.100000000000D+01
0.155041434963D-06 0.000000000000D+00 0.000000000000D+00 0.190650643850D-06 0.000000000000D+00  6 21 2 25 24 1 21 4 0.25996282D-02 0.32304621D+00 0.32170762D+05 0.32170762D+05 0.32170762D+05 0.12117269D+01  1  2 15  2  6  2        2 0.229652296350D-02 0.100000000000D+01
0.666631344530D-07 0.000000000000D+00 0.000000000000D+00 0.190391397817D-06 0.000000000000D+00  6 21 2 25 24 1 21 4 0.25996282D-02 0.32795245D+00 0.32763153D+05 0.32763153D+05 0.32763153D+05 0.12109028D+01  1  2 12  2  6  2        2 0.947461875826D-03 0.100000000000D+01
-.418648250118D-04 0.000000000000D+00 0.000000000000D+00 0.190650643850D-06 0.000000000000D+00  6 21 2 25 24 1 21 4 0.25996282D-02 0.32304621D+00 0.32170762D+05 0.32170762D+05 0.32170762D+05 0.12117269D+01  1  2  4  2  6  2        2 -.620115081014D+00 0.100000000000D+01
-.253805020158D-03 0.000000000000D+00 -.279965138890D-04 0.190650643850D-06 0.000000000000D+00  6 21 2 25 24 1 21 4 0.25996282D-02 0.32786070D+00 0.32170762D+05 0.32170762D+05 0.32170762D+05 0.12117269D+01  1  2  5  2  6  2        2 -.362098182938D+01 0.100000000000D+01
0.254194432756D-03 0.000000000000D+00 0.279934507097D-04 0.190650643850D-06 0.000000000000D+00  6 21 2 25 24 1 21 4 0.25996282D-02 0.32304621D+00 0.32170762D+05 0.32170762D+05 0.32170762D+05 0.12117269D+01  1  2  6  2  6  2        2 0.376520864991D+01 0.100000000000D+01
0.416480861951D-04 0.000000000000D+00 0.000000000000D+00 0.190650643850D-06 0.191908487661D-06  6 21 2 25 24 1 21 4 0.26163588D-02 0.32692254D+00 0.32763153D+05 0.32763153D+05 0.32763153D+05 0.12109028D+01  1  2 11  2  6  2        2 0.590451587443D+00 0.100000000000D+01
0.391762302104D-08 0.000000000000D+00 0.000000000000D+00 0.190391397817D-06 0.000000000000D+00  6 21 21 25 24 1 -2 4 0.25996282D-02 0.32795245D+00 0.32763153D+05 0.32763153D+05 0.32763153D+05 0.12109028D+01  1  2 12 10  6  2        2 0.160937843577D-04 0.100000000000D+01
-.686375294321D-06 0.000000000000D+00 -.759608971897D-07 0.190650643850D-06 0.000000000000D+00  6 21 21 25 24 1 -2 4 0.25996282D-02 0.32786070D+00 0.32170762D+05 0.32170762D+05 0.32170762D+05 0.12117269D+01  1  2  5 10  6  2        2 -.283609423333D-02 0.100000000000D+01
0.151393742674D-06 0.000000000000D+00 0.000000000000D+00 0.190650643850D-06 0.486751422856D-09  6 21 21 25 24 1 -2 4 0.26163588D-02 0.32692254D+00 0.32763153D+05 0.32763153D+05 0.32763153D+05 0.12109028D+01  1  2 11 10  6  2        2 0.623917281239D-03 0.100000000000D+01
  </mgrwgt>
  </event>
  <event>
  5     66 0.46027262E-03 0.37992652E+02 0.75467711E-02 0.12050843E+00
       21 -1    0    0  501  502 0.00000000E+00 0.00000000E+00 0.46784096E+01 0.47381448E+01 0.75000000E+00 0.0000E+00 0.9000E+01
        2 -1    0    0  502    0 0.00000000E+00 0.00000000E+00 -.46084547E+04 0.46084547E+04 0.32000000E+00 0.0000E+00 0.9000E+01
       25  1    1    2    0    0 0.19799411E+01 -.60477446E+02 -.25190802E+04 0.25229054E+04 0.12500000E+03 0.0000E+00 0.9000E+01
       24  1    1    2    0    0 -.38370470E+02 0.72000263E+02 -.15386039E+04 0.15428628E+04 0.80419002E+02 0.0000E+00 0.9000E+01
        1  1    1    2  501    0 0.36390529E+02 -.11522817E+02 -.54609217E+03 0.54742470E+03 0.32000000E+00 0.0000E+00 0.9000E+01
#aMCatNLO 1  0  0  1  2 0.10087350D+01 0.00000000D+00  -5  6  0 0.00000000D+00 0.00000000D+00 0.00000000D+00 0.00000000D+00 0.00000000D+00
  <mgrwgt>
 0.1082731557D+00   41    2    0
 0.147302575348289D+03 0.000000000000000D+00 0.000000000000000D+00 0.147302575348289D+03
 0.147302575348289D+03 0.000000000000000D+00 0.000000000000000D+00 -.147302575348289D+03
 0.140416069086302D+03 0.197933636033864D+01 -.604772548043733D+02 -.207426212554888D+02
 0.115868307462611D+03 -.383709691516873D+02 0.720004211795501D+02 0.173740264822899D+02
 0.383207741476655D+02 0.363916327913487D+02 -.115231663751768D+02 0.336859477319893D+01
 0.000000000000000D+00 -.000000000000000D+00 -.000000000000000D+00 0.000000000000000D+00
 0.148912351412749D+03 0.000000000000000D+00 0.000000000000000D+00 0.148912351412749D+03
 0.147461549694945D+03 0.000000000000000D+00 0.000000000000000D+00 -.147461549694945D+03
 0.140282888087354D+03 0.233548368645905D+01 -.601546163609308D+02 -.207426212554888D+02
 0.115937133804318D+03 -.380768573070312D+02 0.722668608824436D+02 0.173740264822899D+02
 0.383868557659996D+02 0.364889584727900D+02 -.114349977885717D+02 0.336859477319893D+01
 0.176702345002220D+01 -.747584852217781D+00 -.677246732941114D+00 0.145080171780415D+01
0.809482970464D-05 0.000000000000D+00 0.000000000000D+00 0.410789524661D-06 0.000000000000D+00  6 21 2 25 24 1 21 2 0.72435120D-03 0.70899763D+00 0.21258557D+05 0.21258557D+05 0.21258557D+05 0.12309188D+01  1  2  2  1  6  1       21 0.144283039252D-01 0.100000000000D+01
-.594035480105D-07 0.427175899509D-06 -.163411289499D-07 0.410789524661D-06 0.000000000000D+00  6 21 2 25 24 1 21 4 0.72435120D-03 0.70899763D+00 0.21258557D+05 0.21258557D+05 0.21258557D+05 0.12309188D+01  1  2  3  1  6  1       21 -.160427489461D-03 0.100000000000D+01
0.778907382663D-06 0.000000000000D+00 0.000000000000D+00 0.410789524661D-06 0.000000000000D+00  6 21 2 25 24 1 21 4 0.72435120D-03 0.70899763D+00 0.21258557D+05 0.21258557D+05 0.21258557D+05 0.12309188D+01  1  2 15  1  6  1       21 0.210354701206D-02 0.100000000000D+01
0.103680143750D-09 0.000000000000D+00 0.000000000000D+00 0.410570563890D-06 0.000000000000D+00  6 21 2 25 24 1 21 4 0.73265567D-03 0.70899763D+00 0.21406077D+05 0.21406077D+05 0.21406077D+05 0.12305907D+01  1  2 12  1  6  1       21 0.274645235357D-06 0.100000000000D+01
0.765260827576D-10 0.000000000000D+00 0.000000000000D+00 0.410570563890D-06 0.000000000000D+00  6 21 2 25 24 1 21 4 0.73556054D-03 0.70899763D+00 0.21406077D+05 0.21406077D+05 0.21406077D+05 0.12305907D+01  1  2 12  1  6  1       21 0.201463149997D-06 0.100000000000D+01
-.681224494730D-03 0.000000000000D+00 0.000000000000D+00 0.410789524661D-06 0.000000000000D+00  6 21 2 25 24 1 21 4 0.72435120D-03 0.70899763D+00 0.21258557D+05 0.21258557D+05 0.21258557D+05 0.12309188D+01  1  2  4  1  6  1       21 -.183974087591D+01 0.100000000000D+01
-.263599243831D-02 0.000000000000D+00 -.195659830728D-03 0.410789524661D-06 0.000000000000D+00  6 21 2 25 24 1 21 4 0.73401298D-03 0.70899763D+00 0.21258557D+05 0.21258557D+05 0.21258557D+05 0.12309188D+01  1  2  5  1  6  1       21 -.697275073059D+01 0.100000000000D+01
0.263763298678D-02 0.000000000000D+00 0.195591142991D-03 0.410789524661D-06 0.000000000000D+00  6 21 2 25 24 1 21 4 0.72435120D-03 0.70899763D+00 0.21258557D+05 0.21258557D+05 0.21258557D+05 0.12309188D+01  1  2  6  1  6  1       21 0.712329233456D+01 0.100000000000D+01
0.679962481331D-03 0.000000000000D+00 0.000000000000D+00 0.410789524661D-06 0.612785144187D-05  6 21 2 25 24 1 21 4 0.73226717D-03 0.70976281D+00 0.21406077D+05 0.21406077D+05 0.21406077D+05 0.12305907D+01  1  2 11  1  6  1       21 0.178301510250D+01 0.100000000000D+01
0.149744740185D-10 0.000000000000D+00 0.000000000000D+00 0.410570563890D-06 0.000000000000D+00  6 -1 2 25 24 1 -1 4 0.73265567D-03 0.70899763D+00 0.21406077D+05 0.21406077D+05 0.21406077D+05 0.12305907D+01  1  2 12  4  6  1       21 0.163372794814D-08 0.100000000000D+01
0.149763242137D-10 0.000000000000D+00 0.000000000000D+00 0.410570563890D-06 0.000000000000D+00  6 -1 2 25 24 1 -1 4 0.73556054D-03 0.70899763D+00 0.21406077D+05 0.21406077D+05 0.21406077D+05 0.12305907D+01  1  2 12  4  6  1       21 0.162475726315D-08 0.100000000000D+01
-.735544229683D-05 0.000000000000D+00 -.587590416146D-06 0.410789524661D-06 0.000000000000D+00  6 -1 2 25 24 1 -1 4 0.73401298D-03 0.70899763D+00 0.21258557D+05 0.21258557D+05 0.21258557D+05 0.12309188D+01  1  2  5  4  6  1       21 -.801473919907D-03 0.100000000000D+01
0.176993055042D-04 0.000000000000D+00 0.000000000000D+00 0.410789524661D-06 0.156006146728D-06  6 -1 2 25 24 1 -1 4 0.73226717D-03 0.70976281D+00 0.21406077D+05 0.21406077D+05 0.21406077D+05 0.12305907D+01  1  2 11  4  6  1       21 0.191137146057D-02 0.100000000000D+01
0.149744740185D-10 0.000000000000D+00 0.000000000000D+00 0.410570563890D-06 0.000000000000D+00  6 1 2 25 24 1 1 4 0.73265567D-03 0.70899763D+00 0.21406077D+05 0.21406077D+05 0.21406077D+05 0.12305907D+01  1  2 12  5  6  1       21 0.166458250204D-08 0.100000000000D+01
0.149763242137D-10 0.000000000000D+00 0.000000000000D+00 0.410570563890D-06 0.000000000000D+00  6 1 2 25 24 1 1 4 0.73556054D-03 0.70899763D+00 0.21406077D+05 0.21406077D+05 0.21406077D+05 0.12305907D+01  1  2 12  5  6  1       21 0.165556173244D-08 0.100000000000D+01
-.735544229683D-05 0.000000000000D+00 -.587590416146D-06 0.410789524661D-06 0.000000000000D+00  6 1 2 25 24 1 1 4 0.73401298D-03 0.70899763D+00 0.21258557D+05 0.21258557D+05 0.21258557D+05 0.12309188D+01  1  2  5  5  6  1       21 -.816641843513D-03 0.100000000000D+01
0.290564493271D-05 0.000000000000D+00 0.000000000000D+00 0.410789524661D-06 0.895384684514D-08  6 1 2 25 24 1 1 4 0.73226717D-03 0.70976281D+00 0.21406077D+05 0.21406077D+05 0.21406077D+05 0.12305907D+01  1  2 11  5  6  1       21 0.319707492072D-03 0.100000000000D+01
0.149744740185D-10 0.000000000000D+00 0.000000000000D+00 0.410570563890D-06 0.000000000000D+00  6 -2 2 25 24 1 -2 4 0.73265567D-03 0.70899763D+00 0.21406077D+05 0.21406077D+05 0.21406077D+05 0.12305907D+01  1  2 12  6  6  1       21 0.162862189808D-08 0.100000000000D+01
0.149763242137D-10 0.000000000000D+00 0.000000000000D+00 0.410570563890D-06 0.000000000000D+00  6 -2 2 25 24 1 -2 4 0.73556054D-03 0.70899763D+00 0.21406077D+05 0.21406077D+05 0.21406077D+05 0.12305907D+01  1  2 12  6  6  1       21 0.161965667959D-08 0.100000000000D+01
-.735544229683D-05 0.000000000000D+00 -.587590416146D-06 0.410789524661D-06 0.000000000000D+00  6 -2 2 25 24 1 -2 4 0.73401298D-03 0.70899763D+00 0.21258557D+05 0.21258557D+05 0.21258557D+05 0.12309188D+01  1  2  5  6  6  1       21 -.798963261264D-03 0.100000000000D+01
0.291091124656D-05 0.000000000000D+00 0.000000000000D+00 0.410789524661D-06 0.179247688316D-07  6 -2 2 25 24 1 -2 4 0.73226717D-03 0.70976281D+00 0.21406077D+05 0.21406077D+05 0.21406077D+05 0.12305907D+01  1  2 11  6  6  1       21 0.313371268948D-03 0.100000000000D+01
0.149744740185D-10 0.000000000000D+00 0.000000000000D+00 0.410570563890D-06 0.000000000000D+00  6 2 2 25 24 1 2 4 0.73265567D-03 0.70899763D+00 0.21406077D+05 0.21406077D+05 0.21406077D+05 0.12305907D+01  1  2 12  7  6  1       21 0.168621815615D-08 0.100000000000D+01
0.149763242137D-10 0.000000000000D+00 0.000000000000D+00 0.410570563890D-06 0.000000000000D+00  6 2 2 25 24 1 2 4 0.73556054D-03 0.70899763D+00 0.21406077D+05 0.21406077D+05 0.21406077D+05 0.12305907D+01  1  2 12  7  6  1       21 0.167716122899D-08 0.100000000000D+01
-.735544229683D-05 0.000000000000D+00 -.587590416146D-06 0.410789524661D-06 0.000000000000D+00  6 2 2 25 24 1 2 4 0.73401298D-03 0.70899763D+00 0.21258557D+05 0.21258557D+05 0.21258557D+05 0.12309188D+01  1  2  5  7  6  1       21 -.827277483953D-03 0.100000000000D+01
0.306547589559D-05 0.000000000000D+00 0.000000000000D+00 0.410789524661D-06 0.194666702700D-07  6 2 2 25 24 1 2 4 0.73226717D-03 0.70976281D+00 0.21406077D+05 0.21406077D+05 0.21406077D+05 0.12305907D+01  1  2 11  7  6  1       21 0.341675472577D-03 0.100000000000D+01
0.149744740185D-10 0.000000000000D+00 0.000000000000D+00 0.410570563890D-06 0.000000000000D+00  6 -3 2 25 24 1 -3 4 0.73265567D-03 0.70899763D+00 0.21406077D+05 0.21406077D+05 0.21406077D+05 0.12305907D+01  1  2 12  8  6  1       21 0.135804079408D-08 0.100000000000D+01
0.149744740185D-10 0.000000000000D+00 0.000000000000D+00 0.410570563890D-06 0.000000000000D+00  6 -4 2 25 24 1 -4 4 0.73265567D-03 0.70899763D+00 0.21406077D+05 0.21406077D+05 0.21406077D+05 0.12305907D+01  1  2 12  8  6  1       21 0.125276323841D-08 0.100000000000D+01
0.149763242137D-10 0.000000000000D+00 0.000000000000D+00 0.410570563890D-06 0.000000000000D+00  6 -3 2 25 24 1 -3 4 0.73556054D-03 0.70899763D+00 0.21406077D+05 0.21406077D+05 0.21406077D+05 0.12305907D+01  1  2 12  8  6  1       21 0.135025476959D-08 0.100000000000D+01
0.149763242137D-10 0.000000000000D+00 0.000000000000D+00 0.410570563890D-06 0.000000000000D+00  6 -4 2 25 24 1 -4 4 0.73556054D-03 0.70899763D+00 0.21406077D+05 0.21406077D+05 0.21406077D+05 0.12305907D+01  1  2 12  8  6  1       21 0.124552746198D-08 0.100000000000D+01
-.735544229683D-05 0.000000000000D+00 -.587590416146D-06 0.410789524661D-06 0.000000000000D+00  6 -3 2 25 24 1 -3 4 0.73401298D-03 0.70899763D+00 0.21258557D+05 0.21258557D+05 0.21258557D+05 0.12309188D+01  1  2  5  8  6  1       21 -.666071991527D-03 0.100000000000D+01
-.735544229683D-05 0.000000000000D+00 -.587590416146D-06 0.410789524661D-06 0.000000000000D+00  6 -4 2 25 24 1 -4 4 0.73401298D-03 0.70899763D+00 0.21258557D+05 0.21258557D+05 0.21258557D+05 0.12309188D+01  1  2  5  8  6  1       21 -.614385394157D-03 0.100000000000D+01
0.291029392573D-05 0.000000000000D+00 0.000000000000D+00 0.410789524661D-06 0.179209675020D-07  6 -3 2 25 24 1 -3 4 0.73226717D-03 0.70976281D+00 0.21406077D+05 0.21406077D+05 0.21406077D+05 0.12305907D+01  1  2 11  8  6  1       21 0.261260035132D-03 0.100000000000D+01
0.291029392573D-05 0.000000000000D+00 0.000000000000D+00 0.410789524661D-06 0.179209675020D-07  6 -4 2 25 24 1 -4 4 0.73226717D-03 0.70976281D+00 0.21406077D+05 0.21406077D+05 0.21406077D+05 0.12305907D+01  1  2 11  8  6  1       21 0.241008109233D-03 0.100000000000D+01
0.149744740185D-10 0.000000000000D+00 0.000000000000D+00 0.410570563890D-06 0.000000000000D+00  6 3 2 25 24 1 3 4 0.73265567D-03 0.70899763D+00 0.21406077D+05 0.21406077D+05 0.21406077D+05 0.12305907D+01  1  2 12  9  6  1       21 0.135800303074D-08 0.100000000000D+01
0.149744740185D-10 0.000000000000D+00 0.000000000000D+00 0.410570563890D-06 0.000000000000D+00  6 4 2 25 24 1 4 4 0.73265567D-03 0.70899763D+00 0.21406077D+05 0.21406077D+05 0.21406077D+05 0.12305907D+01  1  2 12  9  6  1       21 0.125276323841D-08 0.100000000000D+01
0.149763242137D-10 0.000000000000D+00 0.000000000000D+00 0.410570563890D-06 0.000000000000D+00  6 3 2 25 24 1 3 4 0.73556054D-03 0.70899763D+00 0.21406077D+05 0.21406077D+05 0.21406077D+05 0.12305907D+01  1  2 12  9  6  1       21 0.135021711235D-08 0.100000000000D+01
0.149763242137D-10 0.000000000000D+00 0.000000000000D+00 0.410570563890D-06 0.000000000000D+00  6 4 2 25 24 1 4 4 0.73556054D-03 0.70899763D+00 0.21406077D+05 0.21406077D+05 0.21406077D+05 0.12305907D+01  1  2 12  9  6  1       21 0.124552746198D-08 0.100000000000D+01
-.735544229683D-05 0.000000000000D+00 -.587590416146D-06 0.410789524661D-06 0.000000000000D+00  6 3 2 25 24 1 3 4 0.73401298D-03 0.70899763D+00 0.21258557D+05 0.21258557D+05 0.21258557D+05 0.12309188D+01  1  2  5  9  6  1       21 -.666053433734D-03 0.100000000000D+01
-.735544229683D-05 0.000000000000D+00 -.587590416146D-06 0.410789524661D-06 0.000000000000D+00  6 4 2 25 24 1 4 4 0.73401298D-03 0.70899763D+00 0.21258557D+05 0.21258557D+05 0.21258557D+05 0.12309188D+01  1  2  5  9  6  1       21 -.614385394157D-03 0.100000000000D+01
0.291029392573D-05 0.000000000000D+00 0.000000000000D+00 0.410789524661D-06 0.179209675020D-07  6 3 2 25 24 1 3 4 0.73226717D-03 0.70976281D+00 0.21406077D+05 0.21406077D+05 0.21406077D+05 0.12305907D+01  1  2 11  9  6  1       21 0.261252773076D-03 0.100000000000D+01
0.291029392573D-05 0.000000000000D+00 0.000000000000D+00 0.410789524661D-06 0.179209675020D-07  6 4 2 25 24 1 4 4 0.73226717D-03 0.70976281D+00 0.21406077D+05 0.21406077D+05 0.21406077D+05 0.12305907D+01  1  2 11  9  6  1       21 0.241008109233D-03 0.100000000000D+01
  </mgrwgt>
  </event>
  <event>
  6     66 0.46027262E-03 0.37419446E+02 0.75467711E-02 0.11655688E+00
       21 -1    0    0  503  502 0.00000000E+00 0.00000000E+00 0.13568252E+03 0.13568459E+03 0.75000000E+00 0.0000E+00 0.9000E+01
        2 -1    0    0  502    0 0.00000000E+00 0.00000000E+00 -.48966399E+03 0.48966409E+03 0.32000000E+00 0.0000E+00 0.9000E+01
       25  1    1    2    0    0 -.29202245E+02 -.10484413E+02 -.23271095E+03 0.26597384E+03 0.12500000E+03 0.0000E+00 0.9000E+01
       24  1    1    2    0    0 -.29461224E+02 -.22176509E+02 -.53125742E+02 0.10319555E+03 0.80419002E+02 0.0000E+00 0.9000E+01
        1  1    1    2  501    0 0.61972818E+02 -.40579721E+02 -.13690564E+03 0.15566182E+03 0.32000000E+00 0.0000E+00 0.9000E+01
       21  1    1    2  503  501 -.33093491E+01 0.73240644E+02 0.68760874E+02 0.10051748E+03 0.75000000E+00 0.0000E+00 0.9000E+01
#aMCatNLO 2  0  0  1  2 0.44724088D+02 0.00000000D+00  -5  6  0 0.00000000D+00 0.00000000D+00 0.00000000D+00 0.00000000D+00 0.00000000D+00
  <mgrwgt>
 0.1202398122D+00    1    2    0
 0.151130378905418D+03 0.000000000000000D+00 0.000000000000000D+00 0.151130378905418D+03
 0.151130378905418D+03 0.000000000000000D+00 0.000000000000000D+00 -.151130378905418D+03
 0.134133758060275D+03 -.306413884639261D+02 0.213594180510820D+02 -.311728347266359D+02
 0.998311943259201D+02 -.305501494161738D+02 0.191814461063189D+01 0.506168005515091D+02
 0.682958054246420D+02 0.611915378800999D+02 -.232775626617139D+02 -.194439658248732D+02
 0.000000000000000D+00 -.000000000000000D+00 0.000000000000000D+00 0.000000000000000D+00
 0.413374101879002D+03 0.000000000000000D+00 0.000000000000000D+00 0.413374101879002D+03
 0.160723898186851D+03 0.000000000000000D+00 0.000000000000000D+00 -.160723898186851D+03
 0.132512093352074D+03 -.292025423191420D+02 -.104843112197890D+02 -.311728347266359D+02
 0.101926679664710D+03 -.294614449130525D+02 -.221764478369692D+02 0.506168005515091D+02
 0.765864821882021D+02 0.619733363587751D+02 -.405798845184049D+02 -.194439658248732D+02
 0.263072744860867D+03 -.330934912658063D+01 0.732406435751632D+02 0.252650203692151D+03
0.329146991996D-04 0.000000000000D+00 0.000000000000D+00 0.255429416603D-06 0.356900899016D-08  6 21 2 25 24 1 21 4 0.20874334D-01 0.75332846D-01 0.33243508D+05 0.33243508D+05 0.33243508D+05 0.12102466D+01  1  2  1  1  6  1       21 0.120239812224D+00 0.100000000000D+01
  </mgrwgt>
  </event>
  <event>
  5     66 0.46027262E-03 0.22159058E+02 0.75467711E-02 0.12099683E+00
       21 -1    0    0  501  502 0.00000000E+00 0.00000000E+00 0.46721070E+02 0.46727089E+02 0.75000000E+00 0.0000E+00 0.9000E+01
        2 -1    0    0  502    0 0.00000000E+00 0.00000000E+00 -.45174480E+03 0.45174492E+03 0.32000000E+00 0.0000E+00 0.9000E+01
       25  1    1    2    0    0 -.16412437E+02 0.57335537E+02 -.25862888E+03 0.29337796E+03 0.12500000E+03 0.0000E+00 0.9000E+01
       24  1    1    2    0    0 0.18331359E+02 -.79410412E+02 -.14215729E+03 0.18253209E+03 0.80419002E+02 0.0000E+00 0.9000E+01
        1  1    1    2  501    0 -.19189218E+01 0.22074875E+02 -.42375616E+01 0.22561952E+02 0.32000000E+00 0.0000E+00 0.9000E+01
#aMCatNLO 1  0  0  2  1 0.10110958D+02 0.00000000D+00  -5  6  0 0.00000000D+00 0.00000000D+00 0.00000000D+00 0.00000000D+00 0.00000000D+00
  <mgrwgt>
 0.5270268090D+00    9    2    0
 0.145284303824427D+03 0.000000000000000D+00 0.000000000000000D+00 0.145284303824427D+03
 0.145284303824427D+03 0.000000000000000D+00 0.000000000000000D+00 -.145284303824427D+03
 0.142788465285616D+03 -.164123918683213D+02 0.573350202174684D+02 -.347401017333659D+02
 0.114981907391553D+03 0.183313947408977D+02 -.794108274178599D+02 0.105595231281281D+02
 0.327982349716855D+02 -.191900287257640D+01 0.220758072003915D+02 0.241805786052378D+02
 0.000000000000000D+00 -.000000000000000D+00 0.000000000000000D+00 -.000000000000000D+00
 0.147466986412252D+03 0.000000000000000D+00 0.000000000000000D+00 0.147466986412252D+03
 0.157573143391727D+03 0.000000000000000D+00 0.000000000000000D+00 -.157573143391727D+03
 0.140868783712866D+03 -.138858357360459D+02 0.530972986338196D+02 -.347401017333659D+02
 0.117751603396877D+03 0.204043693641256D+02 -.828877694857560D+02 0.105595231281281D+02
 0.321240835389429D+02 -.134073497167237D+01 0.211058947042914D+02 0.241805786052378D+02
 0.142956591552930D+02 -.517779865640731D+01 0.868457614764498D+01 -.101061569794743D+02
0.180863184527D-05 0.000000000000D+00 0.000000000000D+00 0.139699996883D-05 0.000000000000D+00  6 21 2 25 24 1 21 2 0.71883286D-02 0.69499672D-01 0.18927290D+05 0.18927290D+05 0.18927290D+05 0.12364705D+01  1  2  2  2  6  2        2 0.345585511890D-01 0.100000000000D+01
0.160832657305D-06 0.954441246542D-07 -.365110660567D-08 0.139699996883D-05 0.000000000000D+00  6 21 2 25 24 1 21 4 0.71883286D-02 0.69499672D-01 0.18927290D+05 0.18927290D+05 0.18927290D+05 0.12364705D+01  1  2  3  2  6  2        2 0.469836917500D-02 0.100000000000D+01
0.181653577458D-06 0.000000000000D+00 0.000000000000D+00 0.139699996883D-05 0.000000000000D+00  6 21 2 25 24 1 21 4 0.71883286D-02 0.69499672D-01 0.18927290D+05 0.18927290D+05 0.18927290D+05 0.12364705D+01  1  2 15  2  6  2        2 0.530660615299D-02 0.100000000000D+01
0.251166359159D-04 0.000000000000D+00 0.000000000000D+00 0.138935327003D-05 0.000000000000D+00  6 21 2 25 24 1 21 4 0.71883286D-02 0.75872241D-01 0.20314014D+05 0.20314014D+05 0.20314014D+05 0.12330819D+01  1  2 12  2  6  2        2 0.660187598007D+00 0.100000000000D+01
-.108149930455D-04 0.000000000000D+00 0.000000000000D+00 0.139699996883D-05 0.000000000000D+00  6 21 2 25 24 1 21 4 0.71883286D-02 0.69499672D-01 0.18927290D+05 0.18927290D+05 0.18927290D+05 0.12364705D+01  1  2  4  2  6  2        2 -.315936021975D+00 0.100000000000D+01
-.526078253313D-04 0.000000000000D+00 -.730230082803D-05 0.139699996883D-05 0.000000000000D+00  6 21 2 25 24 1 21 4 0.71883286D-02 0.76148466D-01 0.18927290D+05 0.18927290D+05 0.18927290D+05 0.12364705D+01  1  2  5  2  6  2        2 -.139120740733D+01 0.100000000000D+01
0.530836523164D-04 0.000000000000D+00 0.727192966481D-05 0.139699996883D-05 0.000000000000D+00  6 21 2 25 24 1 21 4 0.71883286D-02 0.69499672D-01 0.18927290D+05 0.18927290D+05 0.18927290D+05 0.12364705D+01  1  2  6  2  6  2        2 0.155072110303D+01 0.100000000000D+01
0.366999231664D-06 0.000000000000D+00 0.000000000000D+00 0.138935327003D-05 0.000000000000D+00  6 21 21 25 24 1 -2 4 0.71883286D-02 0.75872241D-01 0.20314014D+05 0.20314014D+05 0.20314014D+05 0.12330819D+01  1  2 12 10  6  2        2 0.192622573703D-01 0.100000000000D+01
-.769619933141D-06 0.000000000000D+00 -.109650556593D-06 0.139699996883D-05 0.000000000000D+00  6 21 21 25 24 1 -2 4 0.71883286D-02 0.76148466D-01 0.18927290D+05 0.18927290D+05 0.18927290D+05 0.12364705D+01  1  2  5 10  6  2        2 -.405642465951D-01 0.100000000000D+01
  </mgrwgt>
  </event>
  <event>
  5     66 0.46027262E-03 0.33586860E+02 0.75467711E-02 0.12211961E+00
       21 -1    0    0  501  502 0.00000000E+00 0.00000000E+00 0.43537160E+02 0.43543619E+02 0.75000000E+00 0.0000E+00 0.9000E+01
        2 -1    0    0  502    0 -.00000000E+00 -.00000000E+00 -.13948159E+04 0.13948159E+04 0.32000000E+00 0.0000E+00 0.9000E+01
       25  1    1    2    0    0 0.20203175E+01 -.35027091E+02 -.72583605E+03 0.73735605E+03 0.12500000E+03 0.0000E+00 0.9000E+01
       24  1    1    2    0    0 -.14215723E+02 0.66321616E+02 -.65059203E+03 0.65904313E+03 0.80419002E+02 0.0000E+00 0.9000E+01
        1  1    1    2  501    0 0.12195405E+02 -.31294525E+02 0.25149383E+02 0.41960327E+02 0.32000000E+00 0.0000E+00 0.9000E+01
#aMCatNLO 1  0  0  5  1 0.61023972D+00 0.00000000D+00  -5  6  0 0.00000000D+00 0.00000000D+00 0.00000000D+00 0.00000000D+00 0.00000000D+00
  <mgrwgt>
 0.1110543957D+01    8    2    0
 0.246436588690334D+03 0.000000000000000D+00 0.000000000000000D+00 0.246436588690334D+03
 0.246436588690334D+03 -.000000000000000D+00 -.000000000000000D+00 -.246436588690334D+03
 0.161859743393002D+03 0.202031192540035D+01 -.350270768224737D+02 -.966571195528039D+02
 0.139609613005083D+03 -.142157277555345D+02 0.663216288473114D+02 -.917768092737944D+02
 0.191403820982583D+03 0.121954158301342D+02 -.312945520248377D+02 0.188433928826598D+03
 0.000000000000000D+00 0.000000000000000D+00 0.000000000000000D+00 0.000000000000000D+00
 0.246436588690334D+03 0.000000000000000D+00 0.000000000000000D+00 0.246436588690334D+03
 0.246436588690334D+03 -.000000000000000D+00 -.000000000000000D+00 -.246436588690334D+03
 0.161859010333965D+03 0.202039658307910D+01 -.350272940618175D+02 -.966558114892466D+02
 0.139608774868433D+03 -.142156547354196D+02 0.663214414710205D+02 -.917756810246784D+02
 0.114417680610002D+03 0.698965952059082D+01 -.181865401906892D+02 0.112746618804517D+03
 0.769877115682676D+02 0.520559863174970D+01 -.131076072185138D+02 0.756848737094081D+02
0.410414908995D-06 0.000000000000D+00 0.000000000000D+00 0.863503166437D-05 0.000000000000D+00  6 21 2 25 24 1 21 2 0.66985243D-02 0.21458755D+00 0.18039356D+05 0.18039356D+05 0.18039356D+05 0.12387898D+01  1  2  2  3  6  5        1 0.207744134372D-02 0.100000000000D+01
0.810441643643D-07 0.216581897728D-07 -.828509455484D-09 0.863503166437D-05 0.000000000000D+00  6 21 2 25 24 1 21 4 0.66985243D-02 0.21458755D+00 0.18039356D+05 0.18039356D+05 0.18039356D+05 0.12387898D+01  1  2  3  3  6  5        1 0.629539022844D-03 0.100000000000D+01
0.410355682259D-07 0.000000000000D+00 0.000000000000D+00 0.863503166437D-05 0.000000000000D+00  6 21 2 25 24 1 21 4 0.66985243D-02 0.21458755D+00 0.18039356D+05 0.18039356D+05 0.18039356D+05 0.12387898D+01  1  2 15  3  6  5        1 0.318758194688D-03 0.100000000000D+01
0.294337432095D-10 0.000000000000D+00 0.000000000000D+00 0.863503164912D-05 0.000000000000D+00  6 21 2 25 24 1 21 4 0.66985243D-02 0.21458755D+00 0.18039356D+05 0.18039356D+05 0.18039356D+05 0.12387898D+01  1  2 12  3  6  5        1 0.228636941508D-06 0.100000000000D+01
-.195216444377D-02 0.000000000000D+00 0.000000000000D+00 0.863503166437D-05 0.000000000000D+00  6 21 2 25 24 1 21 4 0.66985243D-02 0.21458755D+00 0.18039356D+05 0.18039356D+05 0.18039356D+05 0.12387898D+01  1  2  4  3  6  5        1 -.151641232407D+02 0.100000000000D+01
-.154917050252D-02 0.000000000000D+00 0.000000000000D+00 0.863503166437D-05 0.000000000000D+00  6 21 2 25 24 1 21 4 0.66985243D-02 0.21458755D+00 0.18039356D+05 0.18039356D+05 0.18039356D+05 0.12387898D+01  1  2  5  3  6  5        1 -.120337262038D+02 0.100000000000D+01
0.228266826766D-02 0.000000000000D+00 -.000000000000D+00 0.863503166437D-05 0.000000000000D+00  6 21 2 25 24 1 21 4 0.66985243D-02 0.21458755D+00 0.18039356D+05 0.18039356D+05 0.18039356D+05 0.12387898D+01  1  2  6  3  6  5        1 0.177314278205D+02 0.100000000000D+01
0.136124381854D-02 0.000000000000D+00 0.000000000000D+00 0.863503166437D-05 0.676652539231D-04  6 21 2 25 24 1 21 4 0.66985243D-02 0.21458755D+00 0.18039356D+05 0.18039356D+05 0.18039356D+05 0.12387898D+01  1  2 11  3  6  5        1 0.105739396143D+02 0.100000000000D+01
  </mgrwgt>
  </event>
  <event>
  5     66 0.46027262E-03 0.32260083E+02 0.75467711E-02 0.10485843E+00
       21 -1    0    0  501  502 0.00000000E+00 0.00000000E+00 0.72185128E+03 0.72185166E+03 0.75000000E+00 0.0000E+00 0.9000E+01
        2 -1    0    0  502    0 0.00000000E+00 0.00000000E+00 -.14546727E+03 0.14546763E+03 0.32000000E+00 0.0000E+00 0.9000E+01
       25  1    1    2    0    0 0.14081806E+03 -.67291299E+02 0.16537408E+01 0.19996394E+03 0.12500000E+03 0.0000E+00 0.9000E+01
       24  1    1    2    0    0 -.14088027E+03 0.35031300E+02 0.10470971E+03 0.19622890E+03 0.80419002E+02 0.0000E+00 0.9000E+01
        1  1    1    2  501    0 0.62209147E-01 0.32259998E+02 0.47002055E+03 0.47112645E+03 0.32000000E+00 0.0000E+00 0.9000E+01
#aMCatNLO 1  0  0  1  2 0.30160145D+01 0.00000000D+00  -5  6  0 0.00000000D+00 0.00000000D+00 0.00000000D+00 0.00000000D+00 0.00000000D+00
  <mgrwgt>
 0.1272288682D+01    3    2    0
 0.324046384579357D+03 0.000000000000000D+00 0.000000000000000D+00 0.324046384579357D+03
 0.324046384579357D+03 0.000000000000000D+00 0.000000000000000D+00 -.324046384579357D+03
 0.266133877101568D+03 0.140818057897201D+03 -.672913136646268D+02 -.175625721967091D+03
 0.169482086924448D+03 -.140880267091835D+03 0.350312907290793D+02 -.343878008584941D+02
 0.212476805132698D+03 0.622091946340029D-01 0.322600229355475D+02 0.210013522825585D+03
 0.000000000000000D+00 -.000000000000000D+00 -.000000000000000D+00 -.000000000000000D+00
 0.388008996585517D+03 0.000000000000000D+00 0.000000000000000D+00 0.388008996585517D+03
 0.784674078803554D+03 0.000000000000000D+00 0.000000000000000D+00 -.784674078803554D+03
 0.295668173005292D+03 0.201051453924343D+03 0.229910240470671D+02 -.175625721967091D+03
 0.162938279921580D+03 -.105239942176830D+03 0.884516864291836D+02 -.343878008584941D+02
 0.239735102290564D+03 0.485459391896269D+02 0.104931078755779D+03 0.210013522825585D+03
 0.474341520171635D+03 -.144357450937140D+03 -.216373789232030D+03 -.396665082218037D+03
0.303363305085D-02 0.000000000000D+00 0.000000000000D+00 0.288894366725D-05 0.000000000000D+00  6 21 2 25 24 1 21 2 0.11105410D+00 0.22379638D-01 0.39635631D+05 0.39635631D+05 0.39635631D+05 0.12024040D+01  1  2  2  1  6  1       21 0.834489006137D+00 0.100000000000D+01
0.829096834833D-03 0.160089214296D-03 -.612403110124D-05 0.288894366725D-05 0.000000000000D+00  6 21 2 25 24 1 21 4 0.11105410D+00 0.22379638D-01 0.39635631D+05 0.39635631D+05 0.39635631D+05 0.12024040D+01  1  2  3  1  6  1       21 0.329733968800D+00 0.100000000000D+01
0.271724918890D-03 0.000000000000D+00 0.000000000000D+00 0.288894366725D-05 0.000000000000D+00  6 21 2 25 24 1 21 4 0.11105410D+00 0.22379638D-01 0.39635631D+05 0.39635631D+05 0.39635631D+05 0.12024040D+01  1  2 15  1  6  1       21 0.108065707361D+00 0.100000000000D+01
  </mgrwgt>
  </event>
  <event>
  6     66 -.46027262E-03 0.27251517E+02 0.75467711E-02 0.12317727E+00
       21 -1    0    0  503  502 0.00000000E+00 0.00000000E+00 0.29623598E+02 0.29633091E+02 0.75000000E+00 0.0000E+00 0.9000E+01
        2 -1    0    0  502    0 0.00000000E+00 0.00000000E+00 -.13597917E+04 0.13597917E+04 0.32000000E+00 0.0000E+00 0.9000E+01
       25  1    1    2    0    0 -.30044233E+02 -.51118042E+02 -.61368737E+03 0.62908894E+03 0.12500000E+03 0.0000E+00 0.9000E+01
       24  1    1    2    0    0 0.82609696E+01 0.32243316E+02 -.72453402E+03 0.72974286E+03 0.80419002E+02 0.0000E+00 0.9000E+01
        1  1    1    2  501    0 0.17588497E+02 0.14242602E+02 0.87368913E+01 0.24261958E+02 0.32000000E+00 0.0000E+00 0.9000E+01
       21  1    1    2  503  501 0.41947670E+01 0.46321246E+01 -.68360303E+00 0.63310711E+01 0.75000000E+00 0.0000E+00 0.9000E+01
#aMCatNLO 2  0  0  1  2 0.62492118D+01 0.00000000D+00  -5  6  0 0.00000000D+00 0.00000000D+00 0.00000000D+00 0.00000000D+00 0.00000000D+00
  <mgrwgt>
 -.9653291045D+00    5    2    0
 0.190643815196031D+03 0.000000000000000D+00 0.000000000000000D+00 0.190643815196031D+03
 0.190643815196031D+03 0.000000000000000D+00 0.000000000000000D+00 -.190643815196031D+03
 0.141201405678453D+03 -.284857955874311D+02 -.493971111176159D+02 -.325779346883151D+02
 0.121247264594391D+03 0.959202526705242D+01 0.337131572168175D+02 -.836964712458177D+02
 0.118838960119218D+03 0.188937703203787D+02 0.156839539007984D+02 0.116274405934133D+03
 0.000000000000000D+00 0.000000000000000D+00 0.000000000000000D+00 0.000000000000000D+00
 0.210747973570905D+03 0.000000000000000D+00 0.000000000000000D+00 0.210747973570905D+03
 0.191155667495102D+03 0.000000000000000D+00 0.000000000000000D+00 -.191155667495102D+03
 0.142133865774435D+03 -.300442589857518D+02 -.511180640617976D+02 -.325779346883151D+02
 0.120748452155884D+03 0.826094684122927D+01 0.322432970081496D+02 -.836964712458177D+02
 0.118456520555592D+03 0.175885451737803D+02 0.142426425031236D+02 0.116274405934133D+03
 0.205648025800961D+02 0.419476697074229D+01 0.463212455052443D+01 0.195923060758025D+02
-.652872179910D-04 0.000000000000D+00 0.000000000000D+00 0.608501370961D-05 0.000000000000D+00  6 21 2 25 24 1 21 4 0.45632405D-02 0.20863185D+00 0.16162828D+05 0.16162828D+05 0.16162828D+05 0.12441428D+01  1  2 13  1  6  1       21 -.103547443078D+01 0.100000000000D+01
-.255301166670D-08 0.000000000000D+00 0.000000000000D+00 0.610256283847D-05 0.000000000000D+00  6 21 2 25 24 1 21 4 0.41232354D-02 0.20863185D+00 0.15584127D+05 0.15584127D+05 0.15584127D+05 0.12459355D+01  1  2  8  1  6  1       21 -.482294738957D-04 0.100000000000D+01
-.294280053652D-07 0.000000000000D+00 0.000000000000D+00 0.610256283847D-05 0.000000000000D+00  6 21 2 25 24 1 21 4 0.45688425D-02 0.20863185D+00 0.15584127D+05 0.15584127D+05 0.15584127D+05 0.12459355D+01  1  2  9  1  6  1       21 -.468540507332D-03 0.100000000000D+01
0.290920831787D-07 0.000000000000D+00 0.000000000000D+00 0.610256283847D-05 0.000000000000D+00  6 21 2 25 24 1 21 4 0.41232354D-02 0.20863185D+00 0.15584127D+05 0.15584127D+05 0.15584127D+05 0.12459355D+01  1  2 10  1  6  1       21 0.549584588484D-03 0.100000000000D+01
0.443191115006D-05 0.000000000000D+00 0.000000000000D+00 0.610256283847D-05 0.384536516539D-05  6 21 2 25 24 1 21 4 0.45580472D-02 0.20919199D+00 0.16162828D+05 0.16162828D+05 0.16162828D+05 0.12441428D+01  1  2  1  1  6  1       21 0.701125116590D-01 0.100000000000D+01
  </mgrwgt>
  </event>
  <event>
  5     66 -.46027262E-03 0.47757089E+02 0.75467711E-02 0.10618398E+00
       21 -1    0    0  501  502 0.00000000E+00 0.00000000E+00 0.78498229E+02 0.78501812E+02 0.75000000E+00 0.0000E+00 0.9000E+01
        2 -1    0    0  502    0 0.00000000E+00 0.00000000E+00 -.13839360E+04 0.13839361E+04 0.32000000E+00 0.0000E+00 0.9000E+01
       25  1    1    2    0    0 -.10379164E+03 0.12792949E+03 -.76143539E+03 0.78901680E+03 0.12500000E+03 0.0000E+00 0.9000E+01
       24  1    1    2    0    0 0.74403759E+02 -.16557372E+03 -.58037163E+03 0.61339141E+03 0.80419002E+02 0.0000E+00 0.9000E+01
        1  1    1    2  501    0 0.29387881E+02 0.37644232E+02 0.36369233E+02 0.60029653E+02 0.32000000E+00 0.0000E+00 0.9000E+01
#aMCatNLO 1  0  0  1  2 0.62492118D+01 0.00000000D+00  -5  6  0 0.00000000D+00 0.00000000D+00 0.00000000D+00 0.00000000D+00 0.00000000D+00
  <mgrwgt>
 -.8030385551D+00   12    2    0
 0.329604570726564D+03 0.000000000000000D+00 0.000000000000000D+00 0.329604570726564D+03
 0.329604570726564D+03 0.000000000000000D+00 0.000000000000000D+00 -.329604570726564D+03
 0.242535386524057D+03 -.103791652735945D+03 0.127929474768770D+03 -.126727092699633D+03
 0.211477331769425D+03 0.744037472256017D+02 -.165573738013930D+03 -.728345081457123D+02
 0.205196423159647D+03 0.293879055103430D+02 0.376442632451606D+02 0.199561600845346D+03
 0.000000000000000D+00 0.000000000000000D+00 -.000000000000000D+00 0.000000000000000D+00
 0.104051572594622D+04 0.000000000000000D+00 0.000000000000000D+00 0.104051572594622D+04
 0.357003976104676D+03 0.000000000000000D+00 0.000000000000000D+00 -.357003976104676D+03
 0.301163674109040D+03 -.155511881736455D+03 0.186630268760299D+03 -.126727092699633D+03
 0.169456731285569D+03 0.381667948344062D+02 -.124445964253002D+03 -.728345081457123D+02
 0.216464612013756D+03 -.107232642135232D+02 0.831691488889708D+02 0.199561600845346D+03
 0.710434684642534D+03 0.128068351115572D+03 -.145353453396268D+03 0.683511749841548D+03
0.732563195987D-04 0.000000000000D+00 0.000000000000D+00 0.116389657048D-05 0.000000000000D+00  6 21 2 25 24 1 21 2 0.12076929D-01 0.21291351D+00 0.51322637D+05 0.51322637D+05 0.51322637D+05 0.11911604D+01  1  2  2  1  6  1       21 0.120698552868D+00 0.100000000000D+01
0.129765998076D-04 0.386584219324D-05 -.147883403189D-06 0.116389657048D-05 0.000000000000D+00  6 21 2 25 24 1 21 4 0.12076929D-01 0.21291351D+00 0.51322637D+05 0.51322637D+05 0.51322637D+05 0.11911604D+01  1  2  3  1  6  1       21 0.303360052344D-01 0.100000000000D+01
0.708806298313D-05 0.000000000000D+00 0.000000000000D+00 0.116389657048D-05 0.000000000000D+00  6 21 2 25 24 1 21 4 0.12076929D-01 0.21291351D+00 0.51322637D+05 0.51322637D+05 0.51322637D+05 0.11911604D+01  1  2 15  1  6  1       21 0.165700968625D-01 0.100000000000D+01
-.308451569861D-02 0.000000000000D+00 -.229433353642D-03 0.116389657048D-05 0.000000000000D+00  6 21 2 25 24 1 21 4 0.40373432D-01 0.21291351D+00 0.51322637D+05 0.51322637D+05 0.51322637D+05 0.11911604D+01  1  2  5  1  6  1       21 -.728283998482D+00 0.100000000000D+01
-.124175041465D-02 0.000000000000D+00 -.853070581723D-04 0.116389657048D-05 0.000000000000D+00  6 -1 2 25 24 1 -1 4 0.40373432D-01 0.21291351D+00 0.51322637D+05 0.51322637D+05 0.51322637D+05 0.11911604D+01  1  2  5  4  6  1       21 -.279556313294D-01 0.100000000000D+01
-.124175041465D-02 0.000000000000D+00 -.853070581723D-04 0.116389657048D-05 0.000000000000D+00  6 1 2 25 24 1 1 4 0.40373432D-01 0.21291351D+00 0.51322637D+05 0.51322637D+05 0.51322637D+05 0.11911604D+01  1  2  5  5  6  1       21 -.566544699466D-01 0.100000000000D+01
-.124175041465D-02 0.000000000000D+00 -.853070581723D-04 0.116389657048D-05 0.000000000000D+00  6 -2 2 25 24 1 -2 4 0.40373432D-01 0.21291351D+00 0.51322637D+05 0.51322637D+05 0.51322637D+05 0.11911604D+01  1  2  5  6  6  1       21 -.236547964386D-01 0.100000000000D+01
-.124175041465D-02 0.000000000000D+00 -.853070581723D-04 0.116389657048D-05 0.000000000000D+00  6 2 2 25 24 1 2 4 0.40373432D-01 0.21291351D+00 0.51322637D+05 0.51322637D+05 0.51322637D+05 0.11911604D+01  1  2  5  7  6  1       21 -.783962424324D-01 0.100000000000D+01
-.124175041465D-02 0.000000000000D+00 -.853070581723D-04 0.116389657048D-05 0.000000000000D+00  6 -3 2 25 24 1 -3 4 0.40373432D-01 0.21291351D+00 0.51322637D+05 0.51322637D+05 0.51322637D+05 0.11911604D+01  1  2  5  8  6  1       21 -.151602472457D-01 0.100000000000D+01
-.124175041465D-02 0.000000000000D+00 -.853070581723D-04 0.116389657048D-05 0.000000000000D+00  6 -4 2 25 24 1 -4 4 0.40373432D-01 0.21291351D+00 0.51322637D+05 0.51322637D+05 0.51322637D+05 0.11911604D+01  1  2  5  8  6  1       21 -.126871331470D-01 0.100000000000D+01
-.124175041465D-02 0.000000000000D+00 -.853070581723D-04 0.116389657048D-05 0.000000000000D+00  6 3 2 25 24 1 3 4 0.40373432D-01 0.21291351D+00 0.51322637D+05 0.51322637D+05 0.51322637D+05 0.11911604D+01  1  2  5  9  6  1       21 -.151635578616D-01 0.100000000000D+01
-.124175041465D-02 0.000000000000D+00 -.853070581723D-04 0.116389657048D-05 0.000000000000D+00  6 4 2 25 24 1 4 4 0.40373432D-01 0.21291351D+00 0.51322637D+05 0.51322637D+05 0.51322637D+05 0.11911604D+01  1  2  5  9  6  1       21 -.126871331470D-01 0.100000000000D+01
  </mgrwgt>
  </event>
  <event>
  5     66 0.46027262E-03 0.44204886E+02 0.75467711E-02 0.11773127E+00
       21 -1    0    0  501  502 0.00000000E+00 0.00000000E+00 0.13077174E+03 0.13077389E+03 0.75000000E+00 0.0000E+00 0.9000E+01
        4 -1    0    0  502    0 0.00000000E+00 0.00000000E+00 -.29983662E+03 0.29984063E+03 0.15500000E+01 0.0000E+00 0.9000E+01
       25  1    1    2    0    0 0.88901365E+02 0.69381455E+02 -.19064993E+03 0.25434157E+03 0.12500000E+03 0.0000E+00 0.9000E+01
       24  1    1    2    0    0 -.90478050E+02 -.25205653E+02 -.66364424E+01 0.12382593E+03 0.80419002E+02 0.0000E+00 0.9000E+01
        3  1    1    2  501    0 0.15766850E+01 -.44175802E+02 0.28221488E+02 0.52447019E+02 0.50000000E+00 0.0000E+00 0.9000E+01
#aMCatNLO 1  0  0  1  2 0.47598116D+01 0.00000000D+00  -5  6  0 0.00000000D+00 0.00000000D+00 0.00000000D+00 0.00000000D+00 0.00000000D+00
  <mgrwgt>
 0.3984174513D-01   32    2    0
 0.198018893316691D+03 0.000000000000000D+00 0.000000000000000D+00 0.198018893316691D+03
 0.198018893316691D+03 0.000000000000000D+00 0.000000000000000D+00 -.198018893316691D+03
 0.195161121324635D+03 0.889013443953353D+02 0.693820256490044D+02 -.987195459786540D+02
 0.131803495175578D+03 -.904780635441405D+02 -.252052678849730D+02 0.456438371993106D+02
 0.690731701331696D+02 0.157671914880522D+01 -.441767577640315D+02 0.530757087793435D+02
 0.000000000000000D+00 0.000000000000000D+00 0.000000000000000D+00 0.000000000000000D+00
 0.202200934977644D+03 0.000000000000000D+00 0.000000000000000D+00 0.202200934977644D+03
 0.199392192447374D+03 0.000000000000000D+00 0.000000000000000D+00 -.199392192447374D+03
 0.193820320066678D+03 0.870964363739814D+02 0.678968223370656D+02 -.987195459786540D+02
 0.132845180449756D+03 -.917060566220836D+02 -.262157456294460D+02 0.456438371993106D+02
 0.694008881710424D+02 0.934187367112170D+00 -.447054774100779D+02 0.530757087793435D+02
 0.552673873754097D+01 0.367543288098995D+01 0.302440070245834D+01 0.280874253026926D+01
0.773784460598D-05 0.000000000000D+00 0.000000000000D+00 0.426159192413D-06 0.000000000000D+00  6 21 4 25 24 3 21 2 0.20119203D-01 0.46129184D-01 0.28258373D+05 0.28258373D+05 0.28258373D+05 0.12176340D+01  1  2  2  1  6  1       21 0.500135734499D-02 0.100000000000D+01
0.230249154521D-06 0.408337278291D-06 -.156204788876D-07 0.426159192413D-06 0.000000000000D+00  6 21 4 25 24 3 21 4 0.20119203D-01 0.46129184D-01 0.28258373D+05 0.28258373D+05 0.28258373D+05 0.12176340D+01  1  2  3  1  6  1       21 0.220647713606D-03 0.100000000000D+01
0.780381530193D-06 0.000000000000D+00 0.000000000000D+00 0.426159192413D-06 0.000000000000D+00  6 21 4 25 24 3 21 4 0.20119203D-01 0.46129184D-01 0.28258373D+05 0.28258373D+05 0.28258373D+05 0.12176340D+01  1  2 15  1  6  1       21 0.747839446949D-03 0.100000000000D+01
0.390319199138D-05 0.000000000000D+00 0.000000000000D+00 0.425245815420D-06 0.000000000000D+00  6 21 4 25 24 3 21 4 0.20612881D-01 0.46129184D-01 0.29075080D+05 0.29075080D+05 0.29075080D+05 0.12163284D+01  1  2 12  1  6  1       21 0.356217132519D-02 0.100000000000D+01
-.329390792923D-04 0.000000000000D+00 0.000000000000D+00 0.426159192413D-06 0.000000000000D+00  6 21 4 25 24 3 21 4 0.20119203D-01 0.46129184D-01 0.28258373D+05 0.28258373D+05 0.28258373D+05 0.12176340D+01  1  2  4  1  6  1       21 -.315655123653D-01 0.100000000000D+01
-.736072384470D-03 0.000000000000D+00 -.898169301718D-04 0.426159192413D-06 0.000000000000D+00  6 21 4 25 24 3 21 4 0.20675553D-01 0.46129184D-01 0.28258373D+05 0.28258373D+05 0.28258373D+05 0.12176340D+01  1  2  5  1  6  1       21 -.670390925087D+00 0.100000000000D+01
0.737375200036D-03 0.000000000000D+00 0.896834145925D-04 0.426159192413D-06 0.000000000000D+00  6 21 4 25 24 3 21 4 0.20119203D-01 0.46129184D-01 0.28258373D+05 0.28258373D+05 0.28258373D+05 0.12176340D+01  1  2  6  1  6  1       21 0.706626490317D+00 0.100000000000D+01
0.301606843298D-04 0.000000000000D+00 0.000000000000D+00 0.426159192413D-06 0.186184700082D-06  6 21 4 25 24 3 21 4 0.20544108D-01 0.46449099D-01 0.29075080D+05 0.29075080D+05 0.29075080D+05 0.12163284D+01  1  2 11  1  6  1       21 0.273135407261D-01 0.100000000000D+01
0.174364873995D-06 0.000000000000D+00 0.000000000000D+00 0.425245815420D-06 0.000000000000D+00  6 -3 4 25 24 3 -3 4 0.20612881D-01 0.46129184D-01 0.29075080D+05 0.29075080D+05 0.29075080D+05 0.12163284D+01  1  2 12  4  6  1       21 0.756474722923D-05 0.100000000000D+01
-.413008146941D-05 0.000000000000D+00 -.566757979172D-06 0.426159192413D-06 0.000000000000D+00  6 -3 4 25 24 3 -3 4 0.20675553D-01 0.46129184D-01 0.28258373D+05 0.28258373D+05 0.28258373D+05 0.12176340D+01  1  2  5  4  6  1       21 -.178643400643D-03 0.100000000000D+01
0.311580797011D-05 0.000000000000D+00 0.000000000000D+00 0.426159192413D-06 0.176309091888D-07  6 -3 4 25 24 3 -3 4 0.20544108D-01 0.46449099D-01 0.29075080D+05 0.29075080D+05 0.29075080D+05 0.12163284D+01  1  2 11  4  6  1       21 0.134095596980D-03 0.100000000000D+01
0.174364873995D-06 0.000000000000D+00 0.000000000000D+00 0.425245815420D-06 0.000000000000D+00  6 3 4 25 24 3 3 4 0.20612881D-01 0.46129184D-01 0.29075080D+05 0.29075080D+05 0.29075080D+05 0.12163284D+01  1  2 12  5  6  1       21 0.756412555012D-05 0.100000000000D+01
-.413008146941D-05 0.000000000000D+00 -.566757979172D-06 0.426159192413D-06 0.000000000000D+00  6 3 4 25 24 3 3 4 0.20675553D-01 0.46129184D-01 0.28258373D+05 0.28258373D+05 0.28258373D+05 0.12176340D+01  1  2  5  5  6  1       21 -.178628731791D-03 0.100000000000D+01
0.699507208751D-06 0.000000000000D+00 0.000000000000D+00 0.426159192413D-06 0.744705250661D-09  6 3 4 25 24 3 3 4 0.20544108D-01 0.46449099D-01 0.29075080D+05 0.29075080D+05 0.29075080D+05 0.12163284D+01  1  2 11  5  6  1       21 0.301023281078D-04 0.100000000000D+01
0.174364873995D-06 0.000000000000D+00 0.000000000000D+00 0.425245815420D-06 0.000000000000D+00  6 -4 4 25 24 3 -4 4 0.20612881D-01 0.46129184D-01 0.29075080D+05 0.29075080D+05 0.29075080D+05 0.12163284D+01  1  2 12  6  6  1       21 0.646646152910D-05 0.100000000000D+01
-.413008146941D-05 0.000000000000D+00 -.566757979172D-06 0.426159192413D-06 0.000000000000D+00  6 -4 4 25 24 3 -4 4 0.20675553D-01 0.46129184D-01 0.28258373D+05 0.28258373D+05 0.28258373D+05 0.12176340D+01  1  2  5  6  6  1       21 -.152645553234D-03 0.100000000000D+01
0.703728949116D-06 0.000000000000D+00 0.000000000000D+00 0.426159192413D-06 0.140308271769D-08  6 -4 4 25 24 3 -4 4 0.20544108D-01 0.46449099D-01 0.29075080D+05 0.29075080D+05 0.29075080D+05 0.12163284D+01  1  2 11  6  6  1       21 0.258926613445D-04 0.100000000000D+01
0.174364873995D-06 0.000000000000D+00 0.000000000000D+00 0.425245815420D-06 0.000000000000D+00  6 4 4 25 24 3 4 4 0.20612881D-01 0.46129184D-01 0.29075080D+05 0.29075080D+05 0.29075080D+05 0.12163284D+01  1  2 12  7  6  1       21 0.646646152910D-05 0.100000000000D+01
-.413008146941D-05 0.000000000000D+00 -.566757979172D-06 0.426159192413D-06 0.000000000000D+00  6 4 4 25 24 3 4 4 0.20675553D-01 0.46129184D-01 0.28258373D+05 0.28258373D+05 0.28258373D+05 0.12176340D+01  1  2  5  7  6  1       21 -.152645553234D-03 0.100000000000D+01
0.641069516452D-06 0.000000000000D+00 0.000000000000D+00 0.426159192413D-06 0.152119061327D-08  6 4 4 25 24 3 4 4 0.20544108D-01 0.46449099D-01 0.29075080D+05 0.29075080D+05 0.29075080D+05 0.12163284D+01  1  2 11  7  6  1       21 0.235872005957D-04 0.100000000000D+01
0.174364873995D-06 0.000000000000D+00 0.000000000000D+00 0.425245815420D-06 0.000000000000D+00  6 -1 4 25 24 3 -1 4 0.20612881D-01 0.46129184D-01 0.29075080D+05 0.29075080D+05 0.29075080D+05 0.12163284D+01  1  2 12  8  6  1       21 0.126262298600D-04 0.100000000000D+01
0.174364873995D-06 0.000000000000D+00 0.000000000000D+00 0.425245815420D-06 0.000000000000D+00  6 -2 4 25 24 3 -2 4 0.20612881D-01 0.46129184D-01 0.29075080D+05 0.29075080D+05 0.29075080D+05 0.12163284D+01  1  2 12  8  6  1       21 0.115210555665D-04 0.100000000000D+01
-.413008146941D-05 0.000000000000D+00 -.566757979172D-06 0.426159192413D-06 0.000000000000D+00  6 -1 4 25 24 3 -1 4 0.20675553D-01 0.46129184D-01 0.28258373D+05 0.28258373D+05 0.28258373D+05 0.12176340D+01  1  2  5  8  6  1       21 -.298503191681D-03 0.100000000000D+01
-.413008146941D-05 0.000000000000D+00 -.566757979172D-06 0.426159192413D-06 0.000000000000D+00  6 -2 4 25 24 3 -2 4 0.20675553D-01 0.46129184D-01 0.28258373D+05 0.28258373D+05 0.28258373D+05 0.12176340D+01  1  2  5  8  6  1       21 -.272294275129D-03 0.100000000000D+01
0.703267057349D-06 0.000000000000D+00 0.000000000000D+00 0.426159192413D-06 0.140216180580D-08  6 -1 4 25 24 3 -1 4 0.20544108D-01 0.46449099D-01 0.29075080D+05 0.29075080D+05 0.29075080D+05 0.12163284D+01  1  2 11  8  6  1       21 0.504913327476D-04 0.100000000000D+01
0.703267057349D-06 0.000000000000D+00 0.000000000000D+00 0.426159192413D-06 0.140216180580D-08  6 -2 4 25 24 3 -2 4 0.20544108D-01 0.46449099D-01 0.29075080D+05 0.29075080D+05 0.29075080D+05 0.12163284D+01  1  2 11  8  6  1       21 0.460854074431D-04 0.100000000000D+01
0.174364873995D-06 0.000000000000D+00 0.000000000000D+00 0.425245815420D-06 0.000000000000D+00  6 1 4 25 24 3 1 4 0.20612881D-01 0.46129184D-01 0.29075080D+05 0.29075080D+05 0.29075080D+05 0.12163284D+01  1  2 12  9  6  1       21 0.191813146966D-04 0.100000000000D+01
0.174364873995D-06 0.000000000000D+00 0.000000000000D+00 0.425245815420D-06 0.000000000000D+00  6 2 4 25 24 3 2 4 0.20612881D-01 0.46129184D-01 0.29075080D+05 0.29075080D+05 0.29075080D+05 0.12163284D+01  1  2 12  9  6  1       21 0.238077567561D-04 0.100000000000D+01
-.413008146941D-05 0.000000000000D+00 -.566757979172D-06 0.426159192413D-06 0.000000000000D+00  6 1 4 25 24 3 1 4 0.20675553D-01 0.46129184D-01 0.28258373D+05 0.28258373D+05 0.28258373D+05 0.12176340D+01  1  2  5  9  6  1       21 -.453954577353D-03 0.100000000000D+01
-.413008146941D-05 0.000000000000D+00 -.566757979172D-06 0.426159192413D-06 0.000000000000D+00  6 2 4 25 24 3 2 4 0.20675553D-01 0.46129184D-01 0.28258373D+05 0.28258373D+05 0.28258373D+05 0.12176340D+01  1  2  5  9  6  1       21 -.563669918550D-03 0.100000000000D+01
0.703267057349D-06 0.000000000000D+00 0.000000000000D+00 0.426159192413D-06 0.140216180580D-08  6 1 4 25 24 3 1 4 0.20544108D-01 0.46449099D-01 0.29075080D+05 0.29075080D+05 0.29075080D+05 0.12163284D+01  1  2 11  9  6  1       21 0.766169979204D-04 0.100000000000D+01
0.703267057349D-06 0.000000000000D+00 0.000000000000D+00 0.426159192413D-06 0.140216180580D-08  6 2 4 25 24 3 2 4 0.20544108D-01 0.46449099D-01 0.29075080D+05 0.29075080D+05 0.29075080D+05 0.12163284D+01  1  2 11  9  6  1       21 0.950512313584D-04 0.100000000000D+01
  </mgrwgt>
  </event>
  <event>
  5     66 0.46027262E-03 0.67602035E+02 0.75467711E-02 0.11809596E+00
       21 -1    0    0  501  502 0.00000000E+00 0.00000000E+00 0.12769743E+03 0.12769963E+03 0.75000000E+00 0.0000E+00 0.9000E+01
        4 -1    0    0  502    0 -.00000000E+00 -.00000000E+00 -.23123382E+03 0.23123901E+03 0.15500000E+01 0.0000E+00 0.9000E+01
       25  1    1    2    0    0 0.82929155E+02 0.15024274E+02 -.57312422E+02 0.16128449E+03 0.12500000E+03 0.0000E+00 0.9000E+01
       24  1    1    2    0    0 -.65038417E+02 0.50166215E+02 -.58444291E+02 0.12895579E+03 0.80419002E+02 0.0000E+00 0.9000E+01
        3  1    1    2  501    0 -.17890737E+02 -.65190489E+02 0.12220321E+02 0.68698360E+02 0.50000000E+00 0.0000E+00 0.9000E+01
#aMCatNLO 1  0  0  5  2 0.74237538D+00 0.00000000D+00  -5  6  0 0.00000000D+00 0.00000000D+00 0.00000000D+00 0.00000000D+00 0.00000000D+00
  <mgrwgt>
 0.6048910782D-02    7    2    0
 0.171840888842711D+03 0.000000000000000D+00 0.000000000000000D+00 0.171840888842711D+03
 0.171840888842711D+03 -.000000000000000D+00 -.000000000000000D+00 -.171840888842711D+03
 0.151178737916586D+03 0.829293275717588D+02 0.150249037706794D+02 -.112689703713132D+02
 0.117073905701084D+03 -.650382833207585D+02 0.501667033581430D+02 -.221902460238885D+02
 0.754291340677520D+02 -.178910442510003D+02 -.651916071288224D+02 0.334592163952016D+02
 0.000000000000000D+00 0.000000000000000D+00 0.000000000000000D+00 0.000000000000000D+00
 0.171840888842711D+03 0.000000000000000D+00 0.000000000000000D+00 0.171840888842711D+03
 0.171840888842711D+03 -.000000000000000D+00 -.000000000000000D+00 -.171840888842711D+03
 0.149449062387771D+03 0.811053373858368D+02 0.837862589336602D+01 -.785780658024055D+01
 0.115293412134943D+03 -.664481186947088D+02 0.450295278794258D+02 -.195536203358169D+02
 0.703531514715943D+02 -.172153525364076D+02 -.609165074865306D+02 0.306981542551952D+02
 0.858615169111380D+01 0.255813384527964D+01 0.750835371373884D+01 -.328672733913773D+01
0.423900988842D-05 0.000000000000D+00 0.000000000000D+00 0.318524858434D-06 0.000000000000D+00  6 21 4 25 24 3 21 2 0.19646327D-01 0.35575002D-01 0.27774203D+05 0.27774203D+05 0.27774203D+05 0.12184280D+01  1  2  2  3  6  5        3 0.479479126750D-02 0.100000000000D+01
-.132958051503D-06 0.223698697587D-06 -.855733965183D-08 0.318524858434D-06 0.000000000000D+00  6 21 4 25 24 3 21 4 0.19646327D-01 0.35575002D-01 0.27774203D+05 0.27774203D+05 0.27774203D+05 0.12184280D+01  1  2  3  3  6  5        3 -.223264488347D-03 0.100000000000D+01
0.433944593554D-06 0.000000000000D+00 0.000000000000D+00 0.318524858434D-06 0.000000000000D+00  6 21 4 25 24 3 21 4 0.19646327D-01 0.35575002D-01 0.27774203D+05 0.27774203D+05 0.27774203D+05 0.12184280D+01  1  2 15  3  6  5        3 0.728684096645D-03 0.100000000000D+01
-.629578144801D-05 0.000000000000D+00 0.000000000000D+00 0.318524858434D-06 0.000000000000D+00  6 21 4 25 24 3 21 4 0.19646327D-01 0.35575002D-01 0.27774203D+05 0.27774203D+05 0.27774203D+05 0.12184280D+01  1  2  4  3  6  5        3 -.105719391030D-01 0.100000000000D+01
0.770096301474D-12 0.000000000000D+00 0.000000000000D+00 0.318524858434D-06 0.000000000000D+00  6 21 4 25 24 3 21 4 0.19646327D-01 0.35575002D-01 0.27774203D+05 0.27774203D+05 0.27774203D+05 0.12184280D+01  1  2  5  3  6  5        3 0.129315340277D-08 0.100000000000D+01
-.862709931525D-12 0.000000000000D+00 0.000000000000D+00 0.318524858434D-06 0.000000000000D+00  6 21 4 25 24 3 21 4 0.19646327D-01 0.35575002D-01 0.27774203D+05 0.27774203D+05 0.27774203D+05 0.12184280D+01  1  2  6  3  6  5        3 -.144867113558D-08 0.100000000000D+01
0.674550847469D-05 0.000000000000D+00 0.000000000000D+00 0.318524858434D-06 0.489729261079D-07  6 21 4 25 24 3 21 4 0.19646327D-01 0.35575002D-01 0.27905713D+05 0.27905713D+05 0.27905713D+05 0.12182108D+01  1  2 11  3  6  5        3 0.113206391648D-01 0.100000000000D+01
  </mgrwgt>
  </event>
  <event>
  5     66 0.46027262E-03 0.23023553E+02 0.75467711E-02 0.10769208E+00
       21 -1    0    0  501  502 0.00000000E+00 0.00000000E+00 0.17281640E+02 0.17297907E+02 0.75000000E+00 0.0000E+00 0.9000E+01
        2 -1    0    0  502    0 0.00000000E+00 0.00000000E+00 -.11989110E+04 0.11989110E+04 0.32000000E+00 0.0000E+00 0.9000E+01
       25  1    1    2    0    0 -.20387875E+02 -.33258243E+02 -.93027028E+03 0.93944109E+03 0.12500000E+03 0.0000E+00 0.9000E+01
       24  1    1    2    0    0 -.16347077E+01 0.26544931E+02 -.23097428E+03 0.24601553E+03 0.80419002E+02 0.0000E+00 0.9000E+01
        1  1    1    2  501    0 0.22022582E+02 0.67133117E+01 -.20384775E+02 0.30752303E+02 0.32000000E+00 0.0000E+00 0.9000E+01
#aMCatNLO 1  0  0  2  1 0.27753623D+03 0.00000000D+00  -5  6  0 0.00000000D+00 0.00000000D+00 0.00000000D+00 0.00000000D+00 0.00000000D+00
  <mgrwgt>
 0.1850286600D+00    5    2    0
 0.143975920773209D+03 0.000000000000000D+00 0.000000000000000D+00 0.143975920773209D+03
 0.143975920773209D+03 0.000000000000000D+00 0.000000000000000D+00 -.143975920773209D+03
 0.150449040313440D+03 -.203881503501974D+02 -.332583271397322D+02 -.740818515724285D+02
 0.912661602124132D+02 -.163487488305114D+01 0.265448805161477D+02 0.339851813007898D+02
 0.462366410205643D+02 0.220230252332486D+02 0.671344662358451D+01 0.400966702716387D+02
 0.000000000000000D+00 0.000000000000000D+00 -.000000000000000D+00 -.000000000000000D+00
 0.252581400661894D+03 0.000000000000000D+00 0.000000000000000D+00 0.252581400661894D+03
 0.565938861798349D+03 0.000000000000000D+00 0.000000000000000D+00 -.565938861798349D+03
 0.224395274183684D+03 -.170411799581550D+03 -.141399047715622D+02 -.740818515724285D+02
 0.131554377690637D+03 -.908141659302015D+02 0.379095377649801D+02 0.339851813007898D+02
 0.439786178854481D+02 -.140837578603900D+02 0.113147527048381D+02 0.400966702716387D+02
 0.418591992700474D+03 0.275309723372142D+03 -.350843856982560D+02 -.313357461136455D+03
0.469853545033D-05 0.000000000000D+00 0.000000000000D+00 0.185830997330D-05 0.000000000000D+00  6 21 2 25 24 1 21 2 0.26599684D-02 0.18444910D+00 0.14241063D+05 0.14241063D+05 0.14241063D+05 0.12504013D+01  1  2  2  2  6  2        2 0.143924212275D+00 0.100000000000D+01
0.381634151799D-06 0.247948527715D-06 -.948498936615D-08 0.185830997330D-05 0.000000000000D+00  6 21 2 25 24 1 21 4 0.26599684D-02 0.18444910D+00 0.14241063D+05 0.14241063D+05 0.14241063D+05 0.12504013D+01  1  2  3  2  6  2        2 0.182775277160D-01 0.100000000000D+01
0.471512337745D-06 0.000000000000D+00 0.000000000000D+00 0.185830997330D-05 0.000000000000D+00  6 21 2 25 24 1 21 4 0.26599684D-02 0.18444910D+00 0.14241063D+05 0.14241063D+05 0.14241063D+05 0.12504013D+01  1  2 15  2  6  2        2 0.225820456082D-01 0.100000000000D+01
0.195493402804D-05 0.000000000000D+00 -.421836917414D-05 0.185830997330D-05 0.000000000000D+00  6 21 2 25 24 1 21 4 0.26599684D-02 0.77714683D+00 0.14241063D+05 0.14241063D+05 0.14241063D+05 0.12504013D+01  1  2  5  2  6  2        2 0.244235162349D-03 0.100000000000D+01
0.349930702918D-06 0.000000000000D+00 -.728639148269D-06 0.185830997330D-05 0.000000000000D+00  6 21 21 25 24 1 -2 4 0.26599684D-02 0.77714683D+00 0.14241063D+05 0.14241063D+05 0.14241063D+05 0.12504013D+01  1  2  5 10  6  2        2 0.639258850985D-06 0.100000000000D+01
  </mgrwgt>
  </event>
  <event>
  6     66 0.46027262E-03 0.35962432E+02 0.75467711E-02 0.12345937E+00
       21 -1    0    0  501  502 0.00000000E+00 0.00000000E+00 0.32387887E+02 0.32396569E+02 0.75000000E+00 0.0000E+00 0.9000E+01
        2 -1    0    0  502    0 -.00000000E+00 -.00000000E+00 -.54501690E+03 0.54501699E+03 0.32000000E+00 0.0000E+00 0.9000E+01
       25  1    1    2    0    0 -.28266057E+02 -.31030195E+01 -.26147582E+03 0.29120989E+03 0.12500000E+03 0.0000E+00 0.9000E+01
       24  1    1    2    0    0 -.99009076E+01 -.31256562E+01 -.98267716E+02 0.12740313E+03 0.80419002E+02 0.0000E+00 0.9000E+01
        1  1    1    2  503    0 0.37676195E+02 0.27356564E+01 -.12225364E+03 0.12795716E+03 0.32000000E+00 0.0000E+00 0.9000E+01
       21  1    1    2  501  503 0.49076972E+00 0.34930193E+01 -.30631837E+02 0.30843378E+02 0.75000000E+00 0.0000E+00 0.9000E+01
#aMCatNLO 2  0  0  5  1 0.63739477D+01 0.00000000D+00  -5  6  0 0.00000000D+00 0.00000000D+00 0.00000000D+00 0.00000000D+00 0.00000000D+00
  <mgrwgt>
 0.5925570540D+00    3    2    0
 0.132870159345671D+03 0.000000000000000D+00 0.000000000000000D+00 0.132870159345671D+03
 0.132870159345671D+03 -.000000000000000D+00 -.000000000000000D+00 -.132870159345671D+03
 0.128638229006952D+03 -.297047322700122D+02 -.333780475353799D+01 -.541127547248076D+01
 0.876327862588425D+02 -.108800042066930D+02 -.328544029692358D+01 0.329107985870160D+02
 0.494693034255479D+02 0.405847364767052D+02 0.662324505046156D+01 -.274995231145352D+02
 0.000000000000000D+00 0.000000000000000D+00 0.000000000000000D+00 -.000000000000000D+00
 0.132870159345671D+03 0.000000000000000D+00 0.000000000000000D+00 0.132870159345671D+03
 0.132870159345671D+03 -.000000000000000D+00 -.000000000000000D+00 -.132870159345671D+03
 0.128349435633531D+03 -.282496178793873D+02 -.310033668001498D+01 -.639723608952828D+01
 0.872593042513640D+02 -.988973100403206D+01 -.312383219847274D+01 0.322398064064481D+02
 0.421200295629172D+02 0.376582451869205D+02 0.267519917378938D+01 -.186761015526088D+02
 0.801154924352946D+01 0.481103696498925D+00 0.354896970469834D+01 -.716646876431105D+01
-.143236577814D-04 0.000000000000D+00 0.000000000000D+00 0.363204311627D-06 0.000000000000D+00  6 21 2 25 24 1 21 4 0.49834269D-02 0.83849428D-01 0.15701282D+05 0.15701282D+05 0.15701282D+05 0.12455666D+01  1  2 13  3  6  5        1 -.650833796457D+00 0.100000000000D+01
-.105824912220D-04 0.000000000000D+00 0.000000000000D+00 0.363146008914D-06 0.000000000000D+00  6 21 2 25 24 1 21 4 0.49834269D-02 0.83849428D-01 0.15733202D+05 0.15733202D+05 0.15733202D+05 0.12454667D+01  1  2  8  3  6  5        1 -.480709799812D+00 0.100000000000D+01
0.379442921215D-04 0.000000000000D+00 0.000000000000D+00 0.363146008914D-06 0.307784617653D-06  6 21 2 25 24 1 21 4 0.49834269D-02 0.83849428D-01 0.15701282D+05 0.15701282D+05 0.15701282D+05 0.12455666D+01  1  2  1  3  6  5        1 0.172410065028D+01 0.100000000000D+01
  </mgrwgt>
  </event>
  <event>
  5     66 0.46027262E-03 0.22336295E+02 0.75467711E-02 0.10814494E+00
       21 -1    0    0  501  502 0.00000000E+00 0.00000000E+00 0.25709605E+02 0.25720542E+02 0.75000000E+00 0.0000E+00 0.9000E+01
        2 -1    0    0  502    0 0.00000000E+00 0.00000000E+00 -.12633627E+04 0.12633627E+04 0.32000000E+00 0.0000E+00 0.9000E+01
       25  1    1    2    0    0 0.22534549E+02 0.28193282E+02 -.16623439E+03 0.21109604E+03 0.12500000E+03 0.0000E+00 0.9000E+01
       24  1    1    2    0    0 -.43282184E+02 -.19921232E+02 -.75176864E+03 0.75755760E+03 0.80419002E+02 0.0000E+00 0.9000E+01
        1  1    1    2  501    0 0.20747635E+02 -.82720500E+01 -.31965004E+03 0.32042962E+03 0.32000000E+00 0.0000E+00 0.9000E+01
#aMCatNLO 1  0  0  1  2 0.37859275D+02 0.00000000D+00  -5  6  0 0.00000000D+00 0.00000000D+00 0.00000000D+00 0.00000000D+00 0.00000000D+00
  <mgrwgt>
 0.1794288066D+00    3    2    0
 0.180243253990271D+03 0.000000000000000D+00 0.000000000000000D+00 0.180243253990271D+03
 0.180243253990271D+03 0.000000000000000D+00 0.000000000000000D+00 -.180243253990271D+03
 0.184140010922003D+03 0.225343172682787D+02 0.281933747332972D+02 0.130306875446985D+03
 0.127954798611228D+03 -.432823449097491D+02 -.199211681566101D+02 -.873784882660427D+02
 0.483916984473108D+02 0.207480276414704D+02 -.827220657668708D+01 -.429283871809419D+02
 0.000000000000000D+00 -.000000000000000D+00 -.000000000000000D+00 -.000000000000000D+00
 0.336417867440911D+03 0.000000000000000D+00 0.000000000000000D+00 0.336417867440911D+03
 0.368447416445069D+03 0.000000000000000D+00 0.000000000000000D+00 -.368447416445069D+03
 0.252663110631297D+03 0.107224657752654D+03 0.140487146938620D+03 0.130306875446985D+03
 0.127404708686145D+03 0.622848171170840D+01 0.457269028574967D+02 -.873784882660427D+02
 0.638182062535679D+02 0.425040421155500D+02 0.205748250856630D+02 -.429283871809419D+02
 0.260979258314970D+03 -.155957181579912D+03 -.206788874881779D+03 -.320295490041578D+02
0.117734734350D-04 0.000000000000D+00 0.000000000000D+00 0.947452634782D-07 0.000000000000D+00  6 21 2 25 24 1 21 2 0.39561682D-02 0.19436433D+00 0.15118776D+05 0.15118776D+05 0.15118776D+05 0.12474322D+01  1  2  2  1  6  1       21 0.172475871926D+00 0.100000000000D+01
-.833255153883D-06 0.621303262507D-06 -.237672507772D-07 0.947452634782D-07 0.000000000000D+00  6 21 2 25 24 1 21 4 0.39561682D-02 0.19436433D+00 0.15118776D+05 0.15118776D+05 0.15118776D+05 0.12474322D+01  1  2  3  1  6  1       21 -.189948412485D-01 0.100000000000D+01
0.113826263220D-05 0.000000000000D+00 0.000000000000D+00 0.947452634782D-07 0.000000000000D+00  6 21 2 25 24 1 21 4 0.39561682D-02 0.19436433D+00 0.15118776D+05 0.15118776D+05 0.15118776D+05 0.12474322D+01  1  2 15  1  6  1       21 0.259477758968D-01 0.100000000000D+01
  </mgrwgt>
  </event>
  <event>
  5     66 -.46027262E-03 0.72056477E+02 0.75467711E-02 0.12053884E+00
       21 -1    0    0  501  502 0.00000000E+00 0.00000000E+00 0.89682658E+02 0.89685794E+02 0.75000000E+00 0.0000E+00 0.9000E+01
        2 -1    0    0  502    0 -.00000000E+00 -.00000000E+00 -.24889111E+03 0.24889132E+03 0.32000000E+00 0.0000E+00 0.9000E+01
       25  1    1    2    0    0 0.12667919E+02 0.22904895E+02 -.10449564E+03 0.16501348E+03 0.12500000E+03 0.0000E+00 0.9000E+01
       24  1    1    2    0    0 0.27023466E+02 0.37233734E+02 -.29887685E+02 0.97350441E+02 0.80419002E+02 0.0000E+00 0.9000E+01
        1  1    1    2  501    0 -.39691386E+02 -.60138628E+02 -.24825128E+02 0.76213189E+02 0.32000000E+00 0.0000E+00 0.9000E+01
#aMCatNLO 1  0  0  5  1 0.41276889D+01 0.00000000D+00  -5  6  0 0.00000000D+00 0.00000000D+00 0.00000000D+00 0.00000000D+00 0.00000000D+00
  <mgrwgt>
 -.4424183204D-01    8    2    0
 0.149404759679517D+03 0.000000000000000D+00 0.000000000000000D+00 0.149404759679517D+03
 0.149404759679517D+03 -.000000000000000D+00 -.000000000000000D+00 -.149404759679517D+03
 0.131298429148178D+03 0.126680864644493D+02 0.229051477849516D+02 -.304819829909053D+02
 0.943821622483566D+02 0.270235863280063D+02 0.372339154708479D+02 0.180038306198187D+02
 0.731289279624997D+02 -.396916727924556D+02 -.601390632557995D+02 0.124781523710866D+02
 0.000000000000000D+00 0.000000000000000D+00 0.000000000000000D+00 0.000000000000000D+00
 0.149404759679517D+03 0.000000000000000D+00 0.000000000000000D+00 0.149404759679517D+03
 0.149404759679517D+03 -.000000000000000D+00 -.000000000000000D+00 -.149404759679517D+03
 0.131244866308173D+03 0.125441773516369D+02 0.227174061895706D+02 -.304430288052774D+02
 0.943088884664246D+02 0.269345322897035D+02 0.370989847393900D+02 0.180318271687425D+02
 0.481805557234692D+02 -.240674852515309D+02 -.414210509545729D+02 0.513990674121077D+01
 0.250752088609673D+02 -.154112243898095D+02 -.183953399743878D+02 0.727129489532411D+01
0.102503777918D-05 0.000000000000D+00 0.000000000000D+00 0.365375686612D-06 0.000000000000D+00  6 21 2 25 24 1 21 2 0.13797589D-01 0.38291198D-01 0.21376878D+05 0.21376878D+05 0.21376878D+05 0.12306555D+01  1  2  2  3  6  5        1 0.116927776250D-01 0.100000000000D+01
-.653187816374D-07 0.540927297211D-07 -.206925594969D-08 0.365375686612D-06 0.000000000000D+00  6 21 2 25 24 1 21 4 0.13797589D-01 0.38291198D-01 0.21376878D+05 0.21376878D+05 0.21376878D+05 0.12306555D+01  1  2  3  3  6  5        1 -.112846702531D-02 0.100000000000D+01
0.103495487769D-06 0.000000000000D+00 0.000000000000D+00 0.365375686612D-06 0.000000000000D+00  6 21 2 25 24 1 21 4 0.13797589D-01 0.38291198D-01 0.21376878D+05 0.21376878D+05 0.21376878D+05 0.12306555D+01  1  2 15  3  6  5        1 0.178801934587D-02 0.100000000000D+01
0.171910637902D-05 0.000000000000D+00 0.000000000000D+00 0.365429454138D-06 0.000000000000D+00  6 21 2 25 24 1 21 4 0.13797589D-01 0.38291198D-01 0.21336115D+05 0.21336115D+05 0.21336115D+05 0.12307460D+01  1  2 12  3  6  5        1 0.297078988392D-01 0.100000000000D+01
-.263974987573D-04 0.000000000000D+00 0.000000000000D+00 0.365375686612D-06 0.000000000000D+00  6 21 2 25 24 1 21 4 0.13797589D-01 0.38291198D-01 0.21376878D+05 0.21376878D+05 0.21376878D+05 0.12306555D+01  1  2  4  3  6  5        1 -.456051171680D+00 0.100000000000D+01
-.134169381892D-04 0.000000000000D+00 0.000000000000D+00 0.365375686612D-06 0.000000000000D+00  6 21 2 25 24 1 21 4 0.13797589D-01 0.38291198D-01 0.21376878D+05 0.21376878D+05 0.21376878D+05 0.12306555D+01  1  2  5  3  6  5        1 -.231795081715D+00 0.100000000000D+01
0.188782514802D-04 0.000000000000D+00 -.000000000000D+00 0.365375686612D-06 0.000000000000D+00  6 21 2 25 24 1 21 4 0.13797589D-01 0.38291198D-01 0.21376878D+05 0.21376878D+05 0.21376878D+05 0.12306555D+01  1  2  6  3  6  5        1 0.326146381745D+00 0.100000000000D+01
0.159364395282D-04 0.000000000000D+00 0.000000000000D+00 0.365375686612D-06 0.110672981930D-06  6 21 2 25 24 1 21 4 0.13797589D-01 0.38291198D-01 0.21336115D+05 0.21336115D+05 0.21336115D+05 0.12307460D+01  1  2 11  3  6  5        1 0.275397810826D+00 0.100000000000D+01
  </mgrwgt>
  </event>
  <event>
  5     66 0.46027262E-03 0.91576702E+02 0.75467711E-02 0.11675831E+00
       21 -1    0    0  501  502 0.00000000E+00 0.00000000E+00 0.28346537E+02 0.28356457E+02 0.75000000E+00 0.0000E+00 0.9000E+01
        2 -1    0    0  502    0 -.00000000E+00 -.00000000E+00 -.17704031E+04 0.17704031E+04 0.32000000E+00 0.0000E+00 0.9000E+01
       25  1    1    2    0    0 -.53599132E+02 0.10574560E+03 -.10159537E+04 0.10304572E+04 0.12500000E+03 0.0000E+00 0.9000E+01
       24  1    1    2    0    0 -.11885692E+02 -.41729924E+02 -.62598463E+03 0.63261887E+03 0.80419002E+02 0.0000E+00 0.9000E+01
        1  1    1    2  501    0 0.65484824E+02 -.64015678E+02 -.10011821E+03 0.13568355E+03 0.32000000E+00 0.0000E+00 0.9000E+01
#aMCatNLO 1  0  0  5  1 0.33046164D+02 0.00000000D+00  -5  6  0 0.00000000D+00 0.00000000D+00 0.00000000D+00 0.00000000D+00 0.00000000D+00
  <mgrwgt>
 0.4113628446D-01    6    2    0
 0.224039606568990D+03 0.000000000000000D+00 0.000000000000000D+00 0.224039606568990D+03
 0.224039606568990D+03 -.000000000000000D+00 -.000000000000000D+00 -.224039606568990D+03
 0.186788160598564D+03 -.535991896623822D+02 0.105745658467778D+03 -.721789409907554D+02
 0.105848754280660D+03 -.118857247550167D+02 -.417298923349188D+02 -.534236694842383D+02
 0.155442298258756D+03 0.654849144173989D+02 -.640157661328589D+02 0.125602610474994D+03
 0.000000000000000D+00 0.000000000000000D+00 0.000000000000000D+00 0.000000000000000D+00
 0.224039606568990D+03 0.000000000000000D+00 0.000000000000000D+00 0.224039606568990D+03
 0.224039606568990D+03 -.000000000000000D+00 -.000000000000000D+00 -.224039606568990D+03
 0.182621926631808D+03 -.509261517441909D+02 0.103132589919738D+03 -.670519503943646D+02
 0.104846347873257D+03 -.103611426802360D+02 -.432202705451952D+02 -.504994618223747D+02
 0.629489208515952D+02 -.597835772279920D+01 -.191278504517553D+02 0.596737062064518D+02
 0.976620177813191D+02 0.672656521472261D+02 -.407844689227872D+02 0.578777060102875D+02
0.832143167949D-05 0.000000000000D+00 0.000000000000D+00 0.574858192974D-06 0.000000000000D+00  6 21 2 25 24 1 21 2 0.43617711D-02 0.27237047D+00 0.31547660D+05 0.31547660D+05 0.31547660D+05 0.12126123D+01  1  2  2  3  6  5        1 0.527224416939D-01 0.100000000000D+01
-.735903356009D-07 0.439134014252D-06 -.167985730501D-07 0.574858192974D-06 0.000000000000D+00  6 21 2 25 24 1 21 4 0.43617711D-02 0.27237047D+00 0.31547660D+05 0.31547660D+05 0.31547660D+05 0.12126123D+01  1  2  3  3  6  5        1 -.685586337231D-03 0.100000000000D+01
0.739809456613D-06 0.000000000000D+00 0.000000000000D+00 0.574858192974D-06 0.000000000000D+00  6 21 2 25 24 1 21 4 0.43617711D-02 0.27237047D+00 0.31547660D+05 0.31547660D+05 0.31547660D+05 0.12126123D+01  1  2 15  3  6  5        1 0.689225360187D-02 0.100000000000D+01
-.488945733128D-05 0.000000000000D+00 0.000000000000D+00 0.574858192974D-06 0.000000000000D+00  6 21 2 25 24 1 21 4 0.43617711D-02 0.27237047D+00 0.31547660D+05 0.31547660D+05 0.31547660D+05 0.12126123D+01  1  2  4  3  6  5        1 -.455514316578D-01 0.100000000000D+01
-.393499179875D-05 0.000000000000D+00 0.000000000000D+00 0.574858192974D-06 0.000000000000D+00  6 21 2 25 24 1 21 4 0.43617711D-02 0.27237047D+00 0.31547660D+05 0.31547660D+05 0.31547660D+05 0.12126123D+01  1  2  5  3  6  5        1 -.366593873001D-01 0.100000000000D+01
0.691458037276D-05 0.000000000000D+00 -.000000000000D+00 0.574858192974D-06 0.000000000000D+00  6 21 2 25 24 1 21 4 0.43617711D-02 0.27237047D+00 0.31547660D+05 0.31547660D+05 0.31547660D+05 0.12126123D+01  1  2  6  3  6  5        1 0.644179944628D-01 0.100000000000D+01
  </mgrwgt>
  </event>
  <event>
  5     66 -.46027262E-03 0.10073243E+03 0.75467711E-02 0.10903569E+00
       21 -1    0    0  501  502 0.00000000E+00 0.00000000E+00 0.19485832E+03 0.19485976E+03 0.75000000E+00 0.0000E+00 0.9000E+01
        4 -1    0    0  502    0 0.00000000E+00 0.00000000E+00 -.25621876E+03 0.25622345E+03 0.15500000E+01 0.0000E+00 0.9000E+01
       25  1    1    2    0    0 -.67772233E+02 0.75162572E+02 -.23419651E+02 0.16252990E+03 0.12500000E+03 0.0000E+00 0.9000E+01
       24  1    1    2    0    0 0.14889554E+03 -.15447622E+02 -.68607422E+02 0.18325584E+03 0.80419002E+02 0.0000E+00 0.9000E+01
        3  1    1    2  501    0 -.81123304E+02 -.59714950E+02 0.30666627E+02 0.10529747E+03 0.50000000E+00 0.0000E+00 0.9000E+01
#aMCatNLO 1  0  0  1  2 0.13097228D+03 0.00000000D+00  -5  6  0 0.00000000D+00 0.00000000D+00 0.00000000D+00 0.00000000D+00 0.00000000D+00
  <mgrwgt>
 -.5147396153D-02   12    2    0
 0.223445161843108D+03 0.000000000000000D+00 0.000000000000000D+00 0.223445161843108D+03
 0.223445161843108D+03 0.000000000000000D+00 0.000000000000000D+00 -.223445161843108D+03
 0.160839147764882D+03 -.677719339306153D+02 0.751627916356718D+02 -.132332103834047D+01
 0.175555350598488D+03 0.148895862911750D+03 -.154473813708852D+02 -.440892910572977D+02
 0.110495825322846D+03 -.811239289811347D+02 -.597154102647866D+02 0.454126120956381D+02
 0.000000000000000D+00 0.000000000000000D+00 -.000000000000000D+00 0.000000000000000D+00
 0.417660222316443D+03 0.000000000000000D+00 0.000000000000000D+00 0.417660222316443D+03
 0.256047407401798D+03 0.000000000000000D+00 0.000000000000000D+00 -.256047407401798D+03
 0.190236610410611D+03 -.693307904515247D+02 0.125524731656016D+03 -.132332103834047D+01
 0.177064384807198D+03 0.147330150779431D+03 0.351360427219106D+02 -.440892910572977D+02
 0.983863460868525D+02 -.820514135123821D+02 -.297511898853322D+02 0.454126120956381D+02
 0.208020288413579D+03 0.405205318447584D+01 -.130909584492595D+03 0.161612814914645D+03
0.241971328792D-04 0.000000000000D+00 0.000000000000D+00 0.143737721673D-06 0.000000000000D+00  6 21 4 25 24 3 21 2 0.29978674D-01 0.39418743D-01 0.46546981D+05 0.46546981D+05 0.46546981D+05 0.11953720D+01  1  2  2  1  6  1       21 0.973981005891D-02 0.100000000000D+01
-.108560098238D-05 0.127691778337D-05 -.488470397801D-07 0.143737721673D-06 0.000000000000D+00  6 21 4 25 24 3 21 4 0.29978674D-01 0.39418743D-01 0.46546981D+05 0.46546981D+05 0.46546981D+05 0.11953720D+01  1  2  3  1  6  1       21 -.624400058169D-03 0.100000000000D+01
0.267704337736D-05 0.000000000000D+00 0.000000000000D+00 0.143737721673D-06 0.000000000000D+00  6 21 4 25 24 3 21 4 0.29978674D-01 0.39418743D-01 0.46546981D+05 0.46546981D+05 0.46546981D+05 0.11953720D+01  1  2 15  1  6  1       21 0.153974256442D-02 0.100000000000D+01
-.977455311028D-04 0.000000000000D+00 -.350608739062D-04 0.143737721673D-06 0.000000000000D+00  6 21 4 25 24 3 21 4 0.62374904D-01 0.39418743D-01 0.46546981D+05 0.46546981D+05 0.46546981D+05 0.11953720D+01  1  2  5  1  6  1       21 -.125038305826D-01 0.100000000000D+01
-.239880731096D-04 0.000000000000D+00 -.912551339504D-05 0.143737721673D-06 0.000000000000D+00  6 -3 4 25 24 3 -3 4 0.62374904D-01 0.39418743D-01 0.46546981D+05 0.46546981D+05 0.46546981D+05 0.11953720D+01  1  2  5  4  6  1       21 -.163269399515D-03 0.100000000000D+01
-.239880731096D-04 0.000000000000D+00 -.912551339504D-05 0.143737721673D-06 0.000000000000D+00  6 3 4 25 24 3 3 4 0.62374904D-01 0.39418743D-01 0.46546981D+05 0.46546981D+05 0.46546981D+05 0.11953720D+01  1  2  5  5  6  1       21 -.163392255137D-03 0.100000000000D+01
-.239880731096D-04 0.000000000000D+00 -.912551339504D-05 0.143737721673D-06 0.000000000000D+00  6 -4 4 25 24 3 -4 4 0.62374904D-01 0.39418743D-01 0.46546981D+05 0.46546981D+05 0.46546981D+05 0.11953720D+01  1  2  5  6  6  1       21 -.134086012584D-03 0.100000000000D+01
-.239880731096D-04 0.000000000000D+00 -.912551339504D-05 0.143737721673D-06 0.000000000000D+00  6 4 4 25 24 3 4 4 0.62374904D-01 0.39418743D-01 0.46546981D+05 0.46546981D+05 0.46546981D+05 0.11953720D+01  1  2  5  7  6  1       21 -.134086012584D-03 0.100000000000D+01
-.239880731096D-04 0.000000000000D+00 -.912551339504D-05 0.143737721673D-06 0.000000000000D+00  6 -1 4 25 24 3 -1 4 0.62374904D-01 0.39418743D-01 0.46546981D+05 0.46546981D+05 0.46546981D+05 0.11953720D+01  1  2  5  8  6  1       21 -.324479388470D-03 0.100000000000D+01
-.239880731096D-04 0.000000000000D+00 -.912551339504D-05 0.143737721673D-06 0.000000000000D+00  6 -2 4 25 24 3 -2 4 0.62374904D-01 0.39418743D-01 0.46546981D+05 0.46546981D+05 0.46546981D+05 0.11953720D+01  1  2  5  8  6  1       21 -.257497804390D-03 0.100000000000D+01
-.239880731096D-04 0.000000000000D+00 -.912551339504D-05 0.143737721673D-06 0.000000000000D+00  6 1 4 25 24 3 1 4 0.62374904D-01 0.39418743D-01 0.46546981D+05 0.46546981D+05 0.46546981D+05 0.11953720D+01  1  2  5  9  6  1       21 -.849116590469D-03 0.100000000000D+01
-.239880731096D-04 0.000000000000D+00 -.912551339504D-05 0.143737721673D-06 0.000000000000D+00  6 2 4 25 24 3 2 4 0.62374904D-01 0.39418743D-01 0.46546981D+05 0.46546981D+05 0.46546981D+05 0.11953720D+01  1  2  5  9  6  1       21 -.127279067274D-02 0.100000000000D+01
  </mgrwgt>
  </event>
  <event>
  5     66 0.46027262E-03 0.82686860E+02 0.75467711E-02 0.11031785E+00
       21 -1    0    0  501  502 0.00000000E+00 0.00000000E+00 0.41159637E+03 0.41159705E+03 0.75000000E+00 0.0000E+00 0.9000E+01
        2 -1    0    0  502    0 0.00000000E+00 0.00000000E+00 -.18288621E+03 0.18288649E+03 0.32000000E+00 0.0000E+00 0.9000E+01
       25  1    1    2    0    0 0.58577865E+02 0.20467797E+03 0.18459040E+03 0.30825810E+03 0.12500000E+03 0.0000E+00 0.9000E+01
       24  1    1    2    0    0 -.20865958E+02 -.11731836E+03 -.50177532E+02 0.15226289E+03 0.80419002E+02 0.0000E+00 0.9000E+01
        1  1    1    2  501    0 -.37711907E+02 -.87359605E+02 0.94297284E+02 0.13396256E+03 0.32000000E+00 0.0000E+00 0.9000E+01
#aMCatNLO 1  0  0  1  2 0.48381463D+02 0.00000000D+00  -5  6  0 0.00000000D+00 0.00000000D+00 0.00000000D+00 0.00000000D+00 0.00000000D+00
  <mgrwgt>
 0.1550554666D+00   23    2    0
 0.274363970639579D+03 0.000000000000000D+00 0.000000000000000D+00 0.274363970639579D+03
 0.274363970639579D+03 0.000000000000000D+00 0.000000000000000D+00 -.274363970639579D+03
 0.257024898207771D+03 0.585779456464442D+02 0.204678154120792D+03 0.715001804771317D+02
 0.185873289464181D+03 -.208658994874860D+02 -.117318226927708D+03 -.117824919482178D+03
 0.105829753607206D+03 -.377120461589582D+02 -.873599271930835D+02 0.463247390050461D+02
 0.000000000000000D+00 0.000000000000000D+00 -.000000000000000D+00 0.000000000000000D+00
 0.348265402632935D+03 0.000000000000000D+00 0.000000000000000D+00 0.348265402632935D+03
 0.283462613327440D+03 0.000000000000000D+00 0.000000000000000D+00 -.283462613327440D+03
 0.274237696984914D+03 0.528138824378122D+02 0.227331767382326D+03 0.715001804771317D+02
 0.177023476460325D+03 -.248032365330921D+02 -.101843915234197D+03 -.117824919482178D+03
 0.995955406818563D+02 -.399408580340056D+02 -.786003698422155D+02 0.463247390050461D+02
 0.808713018332799D+02 0.119302121292854D+02 -.468874823059133D+02 0.648027893054950D+02
0.386271007255D-04 0.000000000000D+00 0.000000000000D+00 0.678015576459D-07 0.000000000000D+00  6 21 2 25 24 1 21 2 0.63322593D-01 0.28136415D-01 0.58997779D+05 0.58997779D+05 0.58997779D+05 0.11852294D+01  1  2  2  1  6  1       21 0.286053100332D-01 0.100000000000D+01
-.130628670205D-05 0.203840810739D-05 -.779769874038D-07 0.678015576459D-07 0.000000000000D+00  6 21 2 25 24 1 21 4 0.63322593D-01 0.28136415D-01 0.58997779D+05 0.58997779D+05 0.58997779D+05 0.11852294D+01  1  2  3  1  6  1       21 -.135893246056D-02 0.100000000000D+01
0.449124391125D-05 0.000000000000D+00 0.000000000000D+00 0.678015576459D-07 0.000000000000D+00  6 21 2 25 24 1 21 4 0.63322593D-01 0.28136415D-01 0.58997779D+05 0.58997779D+05 0.58997779D+05 0.11852294D+01  1  2 15  1  6  1       21 0.467224930768D-02 0.100000000000D+01
0.123034940775D-03 0.000000000000D+00 0.000000000000D+00 0.669099183248D-07 0.000000000000D+00  6 21 2 25 24 1 21 4 0.81228324D-01 0.28136415D-01 0.71133257D+05 0.71133257D+05 0.71133257D+05 0.11774103D+01  1  2 12  1  6  1       21 0.710605656286D-01 0.100000000000D+01
-.633711178819D-04 0.000000000000D+00 0.000000000000D+00 0.678015576459D-07 0.000000000000D+00  6 21 2 25 24 1 21 4 0.63322593D-01 0.28136415D-01 0.58997779D+05 0.58997779D+05 0.58997779D+05 0.11852294D+01  1  2  4  1  6  1       21 -.659250905765D-01 0.100000000000D+01
-.338316420962D-03 0.000000000000D+00 -.575092953876D-04 0.678015576459D-07 0.000000000000D+00  6 21 2 25 24 1 21 4 0.82041536D-01 0.28136415D-01 0.58997779D+05 0.58997779D+05 0.58997779D+05 0.11852294D+01  1  2  5  1  6  1       21 -.197495874337D+00 0.100000000000D+01
0.313327316825D-03 0.000000000000D+00 0.504712954304D-04 0.678015576459D-07 0.000000000000D+00  6 21 2 25 24 1 21 4 0.63322593D-01 0.28136415D-01 0.58997779D+05 0.58997779D+05 0.58997779D+05 0.11852294D+01  1  2  6  1  6  1       21 0.325954984419D+00 0.100000000000D+01
0.921474961063D-05 0.000000000000D+00 0.000000000000D+00 0.669099183248D-07 0.000000000000D+00  6 -1 2 25 24 1 -1 4 0.81228324D-01 0.28136415D-01 0.71133257D+05 0.71133257D+05 0.71133257D+05 0.11774103D+01  1  2 12  4  6  1       21 0.603075306190D-03 0.100000000000D+01
-.226334695403D-04 0.000000000000D+00 -.451928495307D-05 0.678015576459D-07 0.000000000000D+00  6 -1 2 25 24 1 -1 4 0.82041536D-01 0.28136415D-01 0.58997779D+05 0.58997779D+05 0.58997779D+05 0.11852294D+01  1  2  5  4  6  1       21 -.149184227147D-02 0.100000000000D+01
0.921474961063D-05 0.000000000000D+00 0.000000000000D+00 0.669099183248D-07 0.000000000000D+00  6 1 2 25 24 1 1 4 0.81228324D-01 0.28136415D-01 0.71133257D+05 0.71133257D+05 0.71133257D+05 0.11774103D+01  1  2 12  5  6  1       21 0.189923979541D-02 0.100000000000D+01
-.226334695403D-04 0.000000000000D+00 -.451928495307D-05 0.678015576459D-07 0.000000000000D+00  6 1 2 25 24 1 1 4 0.82041536D-01 0.28136415D-01 0.58997779D+05 0.58997779D+05 0.58997779D+05 0.11852294D+01  1  2  5  5  6  1       21 -.473060672829D-02 0.100000000000D+01
0.921474961063D-05 0.000000000000D+00 0.000000000000D+00 0.669099183248D-07 0.000000000000D+00  6 -2 2 25 24 1 -2 4 0.81228324D-01 0.28136415D-01 0.71133257D+05 0.71133257D+05 0.71133257D+05 0.11774103D+01  1  2 12  6  6  1       21 0.461584894457D-03 0.100000000000D+01
-.226334695403D-04 0.000000000000D+00 -.451928495307D-05 0.678015576459D-07 0.000000000000D+00  6 -2 2 25 24 1 -2 4 0.82041536D-01 0.28136415D-01 0.58997779D+05 0.58997779D+05 0.58997779D+05 0.11852294D+01  1  2  5  6  6  1       21 -.113931928988D-02 0.100000000000D+01
0.921474961063D-05 0.000000000000D+00 0.000000000000D+00 0.669099183248D-07 0.000000000000D+00  6 2 2 25 24 1 2 4 0.81228324D-01 0.28136415D-01 0.71133257D+05 0.71133257D+05 0.71133257D+05 0.11774103D+01  1  2 12  7  6  1       21 0.300914473375D-02 0.100000000000D+01
-.226334695403D-04 0.000000000000D+00 -.451928495307D-05 0.678015576459D-07 0.000000000000D+00  6 2 2 25 24 1 2 4 0.82041536D-01 0.28136415D-01 0.58997779D+05 0.58997779D+05 0.58997779D+05 0.11852294D+01  1  2  5  7  6  1       21 -.750519621991D-02 0.100000000000D+01
0.921474961063D-05 0.000000000000D+00 0.000000000000D+00 0.669099183248D-07 0.000000000000D+00  6 -3 2 25 24 1 -3 4 0.81228324D-01 0.28136415D-01 0.71133257D+05 0.71133257D+05 0.71133257D+05 0.11774103D+01  1  2 12  8  6  1       21 0.295126574939D-03 0.100000000000D+01
0.921474961063D-05 0.000000000000D+00 0.000000000000D+00 0.669099183248D-07 0.000000000000D+00  6 -4 2 25 24 1 -4 4 0.81228324D-01 0.28136415D-01 0.71133257D+05 0.71133257D+05 0.71133257D+05 0.11774103D+01  1  2 12  8  6  1       21 0.240690945689D-03 0.100000000000D+01
-.226334695403D-04 0.000000000000D+00 -.451928495307D-05 0.678015576459D-07 0.000000000000D+00  6 -3 2 25 24 1 -3 4 0.82041536D-01 0.28136415D-01 0.58997779D+05 0.58997779D+05 0.58997779D+05 0.11852294D+01  1  2  5  8  6  1       21 -.726308134184D-03 0.100000000000D+01
-.226334695403D-04 0.000000000000D+00 -.451928495307D-05 0.678015576459D-07 0.000000000000D+00  6 -4 2 25 24 1 -4 4 0.82041536D-01 0.28136415D-01 0.58997779D+05 0.58997779D+05 0.58997779D+05 0.11852294D+01  1  2  5  8  6  1       21 -.591126232354D-03 0.100000000000D+01
0.921474961063D-05 0.000000000000D+00 0.000000000000D+00 0.669099183248D-07 0.000000000000D+00  6 3 2 25 24 1 3 4 0.81228324D-01 0.28136415D-01 0.71133257D+05 0.71133257D+05 0.71133257D+05 0.11774103D+01  1  2 12  9  6  1       21 0.295519887765D-03 0.100000000000D+01
0.921474961063D-05 0.000000000000D+00 0.000000000000D+00 0.669099183248D-07 0.000000000000D+00  6 4 2 25 24 1 4 4 0.81228324D-01 0.28136415D-01 0.71133257D+05 0.71133257D+05 0.71133257D+05 0.11774103D+01  1  2 12  9  6  1       21 0.240690945689D-03 0.100000000000D+01
-.226334695403D-04 0.000000000000D+00 -.451928495307D-05 0.678015576459D-07 0.000000000000D+00  6 3 2 25 24 1 3 4 0.82041536D-01 0.28136415D-01 0.58997779D+05 0.58997779D+05 0.58997779D+05 0.11852294D+01  1  2  5  9  6  1       21 -.727293358263D-03 0.100000000000D+01
-.226334695403D-04 0.000000000000D+00 -.451928495307D-05 0.678015576459D-07 0.000000000000D+00  6 4 2 25 24 1 4 4 0.82041536D-01 0.28136415D-01 0.58997779D+05 0.58997779D+05 0.58997779D+05 0.11852294D+01  1  2  5  9  6  1       21 -.591126232354D-03 0.100000000000D+01
  </mgrwgt>
  </event>
  <event>
  5     66 0.46027262E-03 0.93107767E+02 0.75467711E-02 0.10949139E+00
       21 -1    0    0  501  502 0.00000000E+00 0.00000000E+00 0.54008281E+02 0.54013488E+02 0.75000000E+00 0.0000E+00 0.9000E+01
        2 -1    0    0  502    0 0.00000000E+00 0.00000000E+00 -.28462765E+04 0.28462766E+04 0.32000000E+00 0.0000E+00 0.9000E+01
       25  1    1    2    0    0 -.13827041E+03 -.45755288E+00 -.24583260E+03 0.30850864E+03 0.12500000E+03 0.0000E+00 0.9000E+01
       24  1    1    2    0    0 0.23030983E+03 0.14520411E+02 -.24320260E+04 0.24442731E+04 0.80419002E+02 0.0000E+00 0.9000E+01
        1  1    1    2  501    0 -.92039415E+02 -.14062859E+02 -.11440967E+03 0.14750828E+03 0.32000000E+00 0.0000E+00 0.9000E+01
#aMCatNLO 1  0  0  1  1 0.38803676D+02 0.00000000D+00  -5  6  0 0.00000000D+00 0.00000000D+00 0.00000000D+00 0.00000000D+00 0.00000000D+00
  <mgrwgt>
 0.1144482139D+00    4    2    0
 0.392084276166884D+03 0.000000000000000D+00 0.000000000000000D+00 0.392084276166884D+03
 0.392084276166884D+03 0.000000000000000D+00 0.000000000000000D+00 -.392084276166884D+03
 0.265674894872337D+03 -.138270328134869D+03 -.457540101602121D+00 0.189312590125323D+03
 0.380316402095860D+03 0.230309946791364D+03 0.145204297812181D+02 -.291410080945558D+03
 0.138177255365571D+03 -.920396186564948D+02 -.140628896796160D+02 0.102097490820236D+03
 0.000000000000000D+00 0.000000000000000D+00 -.000000000000000D+00 -.000000000000000D+00
 0.402107412465622D+03 0.000000000000000D+00 0.000000000000000D+00 0.402107412465622D+03
 0.432008211007331D+03 0.000000000000000D+00 0.000000000000000D+00 -.432008211007331D+03
 0.271352057448278D+03 -.148684700839152D+03 0.778087641764223D+01 0.189312590125323D+03
 0.372289428034979D+03 0.215714929575692D+03 0.260659961194376D+02 -.291410080945558D+03
 0.141486557427660D+03 -.974630395215816D+02 -.977262647179269D+01 0.102097490820236D+03
 0.489875805620365D+02 0.304328107850416D+02 -.240742460652872D+02 -.299007985417093D+02
0.264086212788D-03 0.000000000000D+00 0.000000000000D+00 0.452963041202D-07 0.000000000000D+00  6 21 2 25 24 1 21 2 0.83093682D-02 0.43788910D+00 0.68613391D+05 0.68613391D+05 0.68613391D+05 0.11789055D+01  1  2  2  1  6  1       21 0.133766430190D+00 0.100000000000D+01
-.413595595603D-05 0.139362123246D-04 -.533113977009D-06 0.452963041202D-07 0.000000000000D+00  6 21 2 25 24 1 21 4 0.83093682D-02 0.43788910D+00 0.68613391D+05 0.68613391D+05 0.68613391D+05 0.11789055D+01  1  2  3  1  6  1       21 -.291162431749D-02 0.100000000000D+01
0.319705475725D-04 0.000000000000D+00 0.000000000000D+00 0.452963041202D-07 0.000000000000D+00  6 21 2 25 24 1 21 4 0.83093682D-02 0.43788910D+00 0.68613391D+05 0.68613391D+05 0.68613391D+05 0.11789055D+01  1  2 15  1  6  1       21 0.225065800374D-01 0.100000000000D+01
-.552760754834D-04 0.000000000000D+00 0.000000000000D+00 0.452963041202D-07 0.000000000000D+00  6 21 2 25 24 1 21 4 0.83093682D-02 0.43788910D+00 0.68613391D+05 0.68613391D+05 0.68613391D+05 0.11789055D+01  1  2  4  1  6  1       21 -.389131720125D-01 0.100000000000D+01
  </mgrwgt>
  </event>
  <event>
  5     66 0.46027262E-03 0.21074463E+02 0.75467711E-02 0.12364431E+00
       21 -1    0    0  501  502 0.00000000E+00 0.00000000E+00 0.15155777E+02 0.15174323E+02 0.75000000E+00 0.0000E+00 0.9000E+01
        2 -1    0    0  502    0 0.00000000E+00 0.00000000E+00 -.11059789E+04 0.11059790E+04 0.32000000E+00 0.0000E+00 0.9000E+01
       25  1    1    2    0    0 -.44427463E+02 -.31927892E+02 -.71485929E+03 0.72776506E+03 0.12500000E+03 0.0000E+00 0.9000E+01
       24  1    1    2    0    0 0.23623758E+02 0.28566935E+02 -.34313056E+03 0.35437261E+03 0.80419002E+02 0.0000E+00 0.9000E+01
        1  1    1    2  501    0 0.20803704E+02 0.33609571E+01 -.32833296E+02 0.39015610E+02 0.32000000E+00 0.0000E+00 0.9000E+01
#aMCatNLO 1  0  0  2  1 0.22394475D+01 0.00000000D+00  -5  6  0 0.00000000D+00 0.00000000D+00 0.00000000D+00 0.00000000D+00 0.00000000D+00
  <mgrwgt>
 0.8788993020D+00   11    2    0
 0.129508270028245D+03 0.000000000000000D+00 0.000000000000000D+00 0.129508270028245D+03
 0.129508270028245D+03 0.000000000000000D+00 0.000000000000000D+00 -.129508270028245D+03
 0.139571141170823D+03 -.444280757379532D+02 -.319279913404577D+02 -.293573313315805D+02
 0.888407510711179D+02 0.236233683619125D+02 0.285668722385158D+02 0.716473127587557D+01
 0.306046478145493D+02 0.208047073760408D+02 0.336111910194184D+01 0.221926000557049D+02
 0.000000000000000D+00 0.000000000000000D+00 0.000000000000000D+00 -.000000000000000D+00
 0.130631148575205D+03 0.000000000000000D+00 0.000000000000000D+00 0.130631148575205D+03
 0.130634522432055D+03 0.000000000000000D+00 0.000000000000000D+00 -.130634522432055D+03
 0.139967165174211D+03 -.456361253783018D+02 -.319577609423523D+02 -.293573313315805D+02
 0.886338021562495D+02 0.228563963035903D+02 0.285479719780646D+02 0.716473127587557D+01
 0.304252536355641D+02 0.205409612316883D+02 0.335461968548048D+01 0.221926000557049D+02
 0.223945004123523D+01 0.223876784302310D+01 0.551692788072424D-01 -.337385685059133D-02
0.287341531046D-05 0.000000000000D+00 0.000000000000D+00 0.185822980921D-05 0.000000000000D+00  6 21 2 25 24 1 21 2 0.23330882D-02 0.17015203D+00 0.15138171D+05 0.15138171D+05 0.15138171D+05 0.12473688D+01  1  2  2  2  6  2        2 0.122270007710D+00 0.100000000000D+01
0.230664432145D-06 0.151634291850D-06 -.580059764418D-08 0.185822980921D-05 0.000000000000D+00  6 21 2 25 24 1 21 4 0.23330882D-02 0.17015203D+00 0.15138171D+05 0.15138171D+05 0.15138171D+05 0.12473688D+01  1  2  3  2  6  2        2 0.152718601983D-01 0.100000000000D+01
0.286151850398D-06 0.000000000000D+00 0.000000000000D+00 0.185822980921D-05 0.000000000000D+00  6 21 2 25 24 1 21 4 0.23330882D-02 0.17015203D+00 0.15138171D+05 0.15138171D+05 0.15138171D+05 0.12473688D+01  1  2 15  2  6  2        2 0.189455782764D-01 0.100000000000D+01
0.842158680980D-08 0.000000000000D+00 0.000000000000D+00 0.185563963482D-05 0.000000000000D+00  6 21 2 25 24 1 21 4 0.23330882D-02 0.17236300D+00 0.15407022D+05 0.15407022D+05 0.15407022D+05 0.12464992D+01  1  2 12  2  6  2        2 0.545845337362D-03 0.100000000000D+01
-.309759534538D-05 0.000000000000D+00 0.000000000000D+00 0.185822980921D-05 0.000000000000D+00  6 21 2 25 24 1 21 4 0.23330882D-02 0.17015203D+00 0.15138171D+05 0.15138171D+05 0.15138171D+05 0.12473688D+01  1  2  4  2  6  2        2 -.205085988445D+00 0.100000000000D+01
-.530405318173D-03 0.000000000000D+00 -.614080924308D-04 0.185822980921D-05 0.000000000000D+00  6 21 2 25 24 1 21 4 0.23330882D-02 0.17268209D+00 0.15138171D+05 0.15138171D+05 0.15138171D+05 0.12473688D+01  1  2  5  2  6  2        2 -.343714706946D+02 0.100000000000D+01
0.531260515898D-03 0.000000000000D+00 0.614014039880D-04 0.185822980921D-05 0.000000000000D+00  6 21 2 25 24 1 21 4 0.23330882D-02 0.17015203D+00 0.15138171D+05 0.15138171D+05 0.15138171D+05 0.12473688D+01  1  2  6  2  6  2        2 0.351737641224D+02 0.100000000000D+01
0.293866514982D-05 0.000000000000D+00 0.000000000000D+00 0.185822980921D-05 0.370658749587D-05  6 21 2 25 24 1 21 4 0.23533168D-02 0.17163174D+00 0.15407022D+05 0.15407022D+05 0.15407022D+05 0.12464992D+01  1  2 11  2  6  2        2 0.188988716886D+00 0.100000000000D+01
0.487132154811D-09 0.000000000000D+00 0.000000000000D+00 0.185563963482D-05 0.000000000000D+00  6 21 21 25 24 1 -2 4 0.23330882D-02 0.17236300D+00 0.15407022D+05 0.15407022D+05 0.15407022D+05 0.12464992D+01  1  2 12 10  6  2        2 0.238470494813D-04 0.100000000000D+01
-.143099765896D-05 0.000000000000D+00 -.166245042503D-06 0.185822980921D-05 0.000000000000D+00  6 21 21 25 24 1 -2 4 0.23330882D-02 0.17268209D+00 0.15138171D+05 0.15138171D+05 0.15138171D+05 0.12473688D+01  1  2  5 10  6  2        2 -.699354462840D-01 0.100000000000D+01
0.114298698526D-06 0.000000000000D+00 0.000000000000D+00 0.185822980921D-05 0.613932168856D-08  6 21 21 25 24 1 -2 4 0.23533168D-02 0.17163174D+00 0.15407022D+05 0.15407022D+05 0.15407022D+05 0.12464992D+01  1  2 11 10  6  2        2 0.558145345936D-02 0.100000000000D+01
  </mgrwgt>
  </event>
  <event>
  5     66 0.46027262E-03 0.21151279E+02 0.75467711E-02 0.12090389E+00
       21 -1    0    0  501  502 0.00000000E+00 0.00000000E+00 0.10970859E+03 0.10971115E+03 0.75000000E+00 0.0000E+00 0.9000E+01
        2 -1    0    0  502    0 0.00000000E+00 0.00000000E+00 -.77278026E+03 0.77278032E+03 0.32000000E+00 0.0000E+00 0.9000E+01
       25  1    1    2    0    0 0.19872123E+02 -.60921646E+02 -.61563555E+02 0.15336694E+03 0.12500000E+03 0.0000E+00 0.9000E+01
       24  1    1    2    0    0 0.12003212E+01 0.62745769E+02 -.65952725E+03 0.66736938E+03 0.80419002E+02 0.0000E+00 0.9000E+01
        1  1    1    2  501    0 -.21072444E+02 -.18241224E+01 0.58019142E+02 0.61755150E+02 0.32000000E+00 0.0000E+00 0.9000E+01
#aMCatNLO 1  0  0  1  1 0.28890588D+02 0.00000000D+00  -5  6  0 0.00000000D+00 0.00000000D+00 0.00000000D+00 0.00000000D+00 0.00000000D+00
  <mgrwgt>
 0.4935540019D+00   14    2    0
 0.291173128194263D+03 0.000000000000000D+00 0.000000000000000D+00 0.291173128194263D+03
 0.291173128194263D+03 0.000000000000000D+00 0.000000000000000D+00 -.291173128194263D+03
 0.162315709666604D+03 0.198721345624926D+02 -.609216451004907D+02 0.813329025103209D+02
 0.260384648822236D+03 0.120034017659254D+01 0.627457701408961D+02 -.239571444251595D+03
 0.159645897899687D+03 -.210724747390851D+02 -.182412504040535D+01 0.158238541741274D+03
 0.000000000000000D+00 -.000000000000000D+00 0.000000000000000D+00 0.000000000000000D+00
 0.317926008823837D+03 0.000000000000000D+00 0.000000000000000D+00 0.317926008823837D+03
 0.299436826116004D+03 0.000000000000000D+00 0.000000000000000D+00 -.299436826116004D+03
 0.164520357187909D+03 0.274344941774025D+02 -.638298944673558D+02 0.813329025103209D+02
 0.259643130759994D+03 0.132327854228955D+02 0.581184642401814D+02 -.239571444251595D+03
 0.158898968741476D+03 -.137019575920399D+02 -.465859773383566D+01 0.158238541741274D+03
 0.343003782504625D+02 -.269653220082580D+02 0.103700279610101D+02 0.184891827078329D+02
0.553200839534D-04 0.000000000000D+00 0.000000000000D+00 0.195850133787D-05 0.000000000000D+00  6 21 2 25 24 1 21 2 0.16878447D-01 0.11888947D+00 0.17374914D+05 0.17374914D+05 0.17374914D+05 0.12406107D+01  1  2  2  1  6  1       21 0.127893872941D+00 0.100000000000D+01
0.132931428148D-04 0.291932103404D-05 -.111675311079D-06 0.195850133787D-05 0.000000000000D+00  6 21 2 25 24 1 21 4 0.16878447D-01 0.11888947D+00 0.17374914D+05 0.17374914D+05 0.17374914D+05 0.12406107D+01  1  2  3  1  6  1       21 0.473004877944D-01 0.100000000000D+01
0.611931050504D-05 0.000000000000D+00 0.000000000000D+00 0.195850133787D-05 0.000000000000D+00  6 21 2 25 24 1 21 4 0.16878447D-01 0.11888947D+00 0.17374914D+05 0.17374914D+05 0.17374914D+05 0.12406107D+01  1  2 15  1  6  1       21 0.217741113510D-01 0.100000000000D+01
-.414918859259D-04 0.000000000000D+00 0.000000000000D+00 0.195850133787D-05 0.000000000000D+00  6 21 2 25 24 1 21 4 0.16878447D-01 0.11888947D+00 0.17374914D+05 0.17374914D+05 0.17374914D+05 0.12406107D+01  1  2  4  1  6  1       21 -.147639009913D+00 0.100000000000D+01
-.675668341833D-03 0.000000000000D+00 -.164399447250D-03 0.195850133787D-05 0.000000000000D+00  6 21 2 25 24 1 21 4 0.18923477D-01 0.11888947D+00 0.17374914D+05 0.17374914D+05 0.17374914D+05 0.12406107D+01  1  2  5  1  6  1       21 -.195009879902D+01 0.100000000000D+01
0.679803782184D-03 0.000000000000D+00 0.160177320918D-03 0.195850133787D-05 0.000000000000D+00  6 21 2 25 24 1 21 4 0.16878447D-01 0.11888947D+00 0.17374914D+05 0.17374914D+05 0.17374914D+05 0.12406107D+01  1  2  6  1  6  1       21 0.241892011165D+01 0.100000000000D+01
-.149092455783D-04 0.000000000000D+00 -.489178032685D-05 0.195850133787D-05 0.000000000000D+00  6 -1 2 25 24 1 -1 4 0.18923477D-01 0.11888947D+00 0.17374914D+05 0.17374914D+05 0.17374914D+05 0.12406107D+01  1  2  5  4  6  1       21 -.331086751032D-02 0.100000000000D+01
-.149092455783D-04 0.000000000000D+00 -.489178032685D-05 0.195850133787D-05 0.000000000000D+00  6 1 2 25 24 1 1 4 0.18923477D-01 0.11888947D+00 0.17374914D+05 0.17374914D+05 0.17374914D+05 0.12406107D+01  1  2  5  5  6  1       21 -.489073070626D-02 0.100000000000D+01
-.149092455783D-04 0.000000000000D+00 -.489178032685D-05 0.195850133787D-05 0.000000000000D+00  6 -2 2 25 24 1 -2 4 0.18923477D-01 0.11888947D+00 0.17374914D+05 0.17374914D+05 0.17374914D+05 0.12406107D+01  1  2  5  6  6  1       21 -.304167740176D-02 0.100000000000D+01
-.149092455783D-04 0.000000000000D+00 -.489178032685D-05 0.195850133787D-05 0.000000000000D+00  6 2 2 25 24 1 2 4 0.18923477D-01 0.11888947D+00 0.17374914D+05 0.17374914D+05 0.17374914D+05 0.12406107D+01  1  2  5  7  6  1       21 -.599422300066D-02 0.100000000000D+01
-.149092455783D-04 0.000000000000D+00 -.489178032685D-05 0.195850133787D-05 0.000000000000D+00  6 -3 2 25 24 1 -3 4 0.18923477D-01 0.11888947D+00 0.17374914D+05 0.17374914D+05 0.17374914D+05 0.12406107D+01  1  2  5  8  6  1       21 -.198595300437D-02 0.100000000000D+01
-.149092455783D-04 0.000000000000D+00 -.489178032685D-05 0.195850133787D-05 0.000000000000D+00  6 -4 2 25 24 1 -4 4 0.18923477D-01 0.11888947D+00 0.17374914D+05 0.17374914D+05 0.17374914D+05 0.12406107D+01  1  2  5  8  6  1       21 -.169378721377D-02 0.100000000000D+01
-.149092455783D-04 0.000000000000D+00 -.489178032685D-05 0.195850133787D-05 0.000000000000D+00  6 3 2 25 24 1 3 4 0.18923477D-01 0.11888947D+00 0.17374914D+05 0.17374914D+05 0.17374914D+05 0.12406107D+01  1  2  5  9  6  1       21 -.198574689661D-02 0.100000000000D+01
-.149092455783D-04 0.000000000000D+00 -.489178032685D-05 0.195850133787D-05 0.000000000000D+00  6 4 2 25 24 1 4 4 0.18923477D-01 0.11888947D+00 0.17374914D+05 0.17374914D+05 0.17374914D+05 0.12406107D+01  1  2  5  9  6  1       21 -.169378721377D-02 0.100000000000D+01
  </mgrwgt>
  </event>
  <event>
  5     66 0.46027262E-03 0.41615551E+02 0.75467711E-02 0.11980108E+00
       21 -1    0    0  501  502 0.00000000E+00 0.00000000E+00 0.24034214E+02 0.24045913E+02 0.75000000E+00 0.0000E+00 0.9000E+01
        2 -1    0    0  502    0 0.00000000E+00 0.00000000E+00 -.21967967E+04 0.21967967E+04 0.32000000E+00 0.0000E+00 0.9000E+01
       25  1    1    2    0    0 0.46214972E+02 0.33313719E+01 -.11350258E+04 0.11428279E+04 0.12500000E+03 0.0000E+00 0.9000E+01
       24  1    1    2    0    0 -.83602385E+01 -.25485615E+02 -.10299911E+04 0.10334739E+04 0.80419002E+02 0.0000E+00 0.9000E+01
        1  1    1    2  501    0 -.37854734E+02 0.22154243E+02 -.77455397E+01 0.44540848E+02 0.32000000E+00 0.0000E+00 0.9000E+01
#aMCatNLO 1  0  0  1  2 0.43822801D+02 0.00000000D+00  -5  6  0 0.00000000D+00 0.00000000D+00 0.00000000D+00 0.00000000D+00 0.00000000D+00
  <mgrwgt>
 0.2215576320D+00   23    2    0
 0.229807090033094D+03 0.000000000000000D+00 0.000000000000000D+00 0.229807090033094D+03
 0.229807090033094D+03 0.000000000000000D+00 0.000000000000000D+00 -.229807090033094D+03
 0.156434158253342D+03 0.462149929315939D+02 0.333135979433795D+01 -.818518316147240D+02
 0.124575992146825D+03 -.836022205569219D+01 -.254856248077400D+02 -.912828104318329D+02
 0.178604029666020D+03 -.378547708759017D+02 0.221542650134020D+02 0.173134642046557D+03
 0.000000000000000D+00 -.000000000000000D+00 0.000000000000000D+00 0.000000000000000D+00
 0.400932736795861D+03 0.000000000000000D+00 0.000000000000000D+00 0.400932736795861D+03
 0.233672107277769D+03 0.000000000000000D+00 0.000000000000000D+00 -.233672107277769D+03
 0.157131754395661D+03 0.472473676263060D+02 -.115478202773429D+02 -.818518316147240D+02
 0.127509946778915D+03 -.753026212145981D+01 -.374474865009573D+02 -.912828104318329D+02
 0.177056936903305D+03 -.366838037300116D+02 0.527761052839525D+01 0.173134642046557D+03
 0.172906205995750D+03 -.303330177483462D+01 0.437176962499049D+02 0.167260629518092D+03
0.544210797603D-05 0.000000000000D+00 0.000000000000D+00 0.545528828751D-05 0.000000000000D+00  6 21 2 25 24 1 21 2 0.36984731D-02 0.33796962D+00 0.17153984D+05 0.17153984D+05 0.17153984D+05 0.12412335D+01  1  2  2  1  6  1       21 0.290571982362D-01 0.100000000000D+01
0.644434334848D-06 0.287187927938D-06 -.109860480628D-07 0.545528828751D-05 0.000000000000D+00  6 21 2 25 24 1 21 4 0.36984731D-02 0.33796962D+00 0.17153984D+05 0.17153984D+05 0.17153984D+05 0.12412335D+01  1  2  3  1  6  1       21 0.530117602165D-02 0.100000000000D+01
0.547335185313D-06 0.000000000000D+00 0.000000000000D+00 0.545528828751D-05 0.000000000000D+00  6 21 2 25 24 1 21 4 0.36984731D-02 0.33796962D+00 0.17153984D+05 0.17153984D+05 0.17153984D+05 0.12412335D+01  1  2 15  1  6  1       21 0.450242950024D-02 0.100000000000D+01
0.571318843400D-04 0.000000000000D+00 0.000000000000D+00 0.533066411229D-05 0.000000000000D+00  6 21 2 25 24 1 21 4 0.64627939D-02 0.33796962D+00 0.23110535D+05 0.23110535D+05 0.23110535D+05 0.12269738D+01  1  2 12  1  6  1       21 0.174040972330D+00 0.100000000000D+01
-.169667348071D-04 0.000000000000D+00 0.000000000000D+00 0.545528828751D-05 0.000000000000D+00  6 21 2 25 24 1 21 4 0.36984731D-02 0.33796962D+00 0.17153984D+05 0.17153984D+05 0.17153984D+05 0.12412335D+01  1  2  4  1  6  1       21 -.139569918704D+00 0.100000000000D+01
-.131036723098D-03 0.000000000000D+00 -.707767718909D-05 0.545528828751D-05 0.000000000000D+00  6 21 2 25 24 1 21 4 0.65609233D-02 0.33796962D+00 0.17153984D+05 0.17153984D+05 0.17153984D+05 0.12412335D+01  1  2  5  1  6  1       21 -.411652627072D+00 0.100000000000D+01
0.708017067754D-04 0.000000000000D+00 0.395544006357D-05 0.545528828751D-05 0.000000000000D+00  6 21 2 25 24 1 21 4 0.36984731D-02 0.33796962D+00 0.17153984D+05 0.17153984D+05 0.17153984D+05 0.12412335D+01  1  2  6  1  6  1       21 0.582421342181D+00 0.100000000000D+01
0.116049247526D-04 0.000000000000D+00 0.000000000000D+00 0.533066411229D-05 0.000000000000D+00  6 -1 2 25 24 1 -1 4 0.64627939D-02 0.33796962D+00 0.23110535D+05 0.23110535D+05 0.23110535D+05 0.12269738D+01  1  2 12  4  6  1       21 0.213819859186D-02 0.100000000000D+01
-.282420033276D-04 0.000000000000D+00 -.143652713572D-05 0.545528828751D-05 0.000000000000D+00  6 -1 2 25 24 1 -1 4 0.65609233D-02 0.33796962D+00 0.17153984D+05 0.17153984D+05 0.17153984D+05 0.12412335D+01  1  2  5  4  6  1       21 -.535893437672D-02 0.100000000000D+01
0.116049247526D-04 0.000000000000D+00 0.000000000000D+00 0.533066411229D-05 0.000000000000D+00  6 1 2 25 24 1 1 4 0.64627939D-02 0.33796962D+00 0.23110535D+05 0.23110535D+05 0.23110535D+05 0.12269738D+01  1  2 12  5  6  1       21 0.248853748512D-02 0.100000000000D+01
-.282420033276D-04 0.000000000000D+00 -.143652713572D-05 0.545528828751D-05 0.000000000000D+00  6 1 2 25 24 1 1 4 0.65609233D-02 0.33796962D+00 0.17153984D+05 0.17153984D+05 0.17153984D+05 0.12412335D+01  1  2  5  5  6  1       21 -.625328187542D-02 0.100000000000D+01
0.116049247526D-04 0.000000000000D+00 0.000000000000D+00 0.533066411229D-05 0.000000000000D+00  6 -2 2 25 24 1 -2 4 0.64627939D-02 0.33796962D+00 0.23110535D+05 0.23110535D+05 0.23110535D+05 0.12269738D+01  1  2 12  6  6  1       21 0.207687705782D-02 0.100000000000D+01
-.282420033276D-04 0.000000000000D+00 -.143652713572D-05 0.545528828751D-05 0.000000000000D+00  6 -2 2 25 24 1 -2 4 0.65609233D-02 0.33796962D+00 0.17153984D+05 0.17153984D+05 0.17153984D+05 0.12412335D+01  1  2  5  6  6  1       21 -.520229494374D-02 0.100000000000D+01
0.116049247526D-04 0.000000000000D+00 0.000000000000D+00 0.533066411229D-05 0.000000000000D+00  6 2 2 25 24 1 2 4 0.64627939D-02 0.33796962D+00 0.23110535D+05 0.23110535D+05 0.23110535D+05 0.12269738D+01  1  2 12  7  6  1       21 0.272378872684D-02 0.100000000000D+01
-.282420033276D-04 0.000000000000D+00 -.143652713572D-05 0.545528828751D-05 0.000000000000D+00  6 2 2 25 24 1 2 4 0.65609233D-02 0.33796962D+00 0.17153984D+05 0.17153984D+05 0.17153984D+05 0.12412335D+01  1  2  5  7  6  1       21 -.685290654852D-02 0.100000000000D+01
0.116049247526D-04 0.000000000000D+00 0.000000000000D+00 0.533066411229D-05 0.000000000000D+00  6 -3 2 25 24 1 -3 4 0.64627939D-02 0.33796962D+00 0.23110535D+05 0.23110535D+05 0.23110535D+05 0.12269738D+01  1  2 12  8  6  1       21 0.148585661003D-02 0.100000000000D+01
0.116049247526D-04 0.000000000000D+00 0.000000000000D+00 0.533066411229D-05 0.000000000000D+00  6 -4 2 25 24 1 -4 4 0.64627939D-02 0.33796962D+00 0.23110535D+05 0.23110535D+05 0.23110535D+05 0.12269738D+01  1  2 12  8  6  1       21 0.131704825319D-02 0.100000000000D+01
-.282420033276D-04 0.000000000000D+00 -.143652713572D-05 0.545528828751D-05 0.000000000000D+00  6 -3 2 25 24 1 -3 4 0.65609233D-02 0.33796962D+00 0.17153984D+05 0.17153984D+05 0.17153984D+05 0.12412335D+01  1  2  5  8  6  1       21 -.369266042033D-02 0.100000000000D+01
-.282420033276D-04 0.000000000000D+00 -.143652713572D-05 0.545528828751D-05 0.000000000000D+00  6 -4 2 25 24 1 -4 4 0.65609233D-02 0.33796962D+00 0.17153984D+05 0.17153984D+05 0.17153984D+05 0.12412335D+01  1  2  5  8  6  1       21 -.326183437514D-02 0.100000000000D+01
0.116049247526D-04 0.000000000000D+00 0.000000000000D+00 0.533066411229D-05 0.000000000000D+00  6 3 2 25 24 1 3 4 0.64627939D-02 0.33796962D+00 0.23110535D+05 0.23110535D+05 0.23110535D+05 0.12269738D+01  1  2 12  9  6  1       21 0.148569357861D-02 0.100000000000D+01
0.116049247526D-04 0.000000000000D+00 0.000000000000D+00 0.533066411229D-05 0.000000000000D+00  6 4 2 25 24 1 4 4 0.64627939D-02 0.33796962D+00 0.23110535D+05 0.23110535D+05 0.23110535D+05 0.12269738D+01  1  2 12  9  6  1       21 0.131704825319D-02 0.100000000000D+01
-.282420033276D-04 0.000000000000D+00 -.143652713572D-05 0.545528828751D-05 0.000000000000D+00  6 3 2 25 24 1 3 4 0.65609233D-02 0.33796962D+00 0.17153984D+05 0.17153984D+05 0.17153984D+05 0.12412335D+01  1  2  5  9  6  1       21 -.369224211825D-02 0.100000000000D+01
-.282420033276D-04 0.000000000000D+00 -.143652713572D-05 0.545528828751D-05 0.000000000000D+00  6 4 2 25 24 1 4 4 0.65609233D-02 0.33796962D+00 0.17153984D+05 0.17153984D+05 0.17153984D+05 0.12412335D+01  1  2  5  9  6  1       21 -.326183437514D-02 0.100000000000D+01
  </mgrwgt>
  </event>
  <event>
  6     66 0.46027262E-03 0.26360098E+03 0.75467711E-02 0.10189050E+00
       -4 -1    0    0    0  502 0.00000000E+00 0.00000000E+00 0.23349610E+04 0.23349615E+04 0.15500000E+01 0.0000E+00 0.9000E+01
        2 -1    0    0  502    0 0.00000000E+00 0.00000000E+00 -.25969365E+04 0.25969365E+04 0.32000000E+00 0.0000E+00 0.9000E+01
       25  1    1    2    0    0 0.36685109E+02 -.33003725E+03 -.18293665E+04 0.18634584E+04 0.12500000E+03 0.0000E+00 0.9000E+01
       24  1    1    2    0    0 -.13242783E+03 -.11935615E+02 -.45299036E+03 0.47890194E+03 0.80419002E+02 0.0000E+00 0.9000E+01
        1  1    1    2  501    0 0.11505973E+03 0.62931026E+01 -.26005745E+03 0.28444388E+03 0.32000000E+00 0.0000E+00 0.9000E+01
       -4  1    1    2    0  501 -.19317007E+02 0.33567977E+03 0.22804388E+04 0.23050938E+04 0.15500000E+01 0.0000E+00 0.9000E+01
#aMCatNLO 2  0  0  1  5 0.33623511D+03 0.00000000D+00  -5  6  0 0.00000000D+00 0.00000000D+00 0.00000000D+00 0.00000000D+00 0.00000000D+00
  <mgrwgt>
 0.7118645182D-03    1    2    0
 0.284242783375259D+03 0.000000000000000D+00 0.000000000000000D+00 0.284242783375259D+03
 0.284242783375259D+03 0.000000000000000D+00 0.000000000000000D+00 -.284242783375259D+03
 0.232965218579993D+03 0.272180756067275D+02 -.165526465527727D+03 -.102508334481585D+03
 0.184426936468288D+03 -.137856325997854D+03 0.823961607685123D+02 0.418638867484886D+02
 0.151093411702237D+03 0.110638250391127D+03 0.831303047592147D+02 0.606444477330966D+02
 0.000000000000000D+00 -.000000000000000D+00 0.000000000000000D+00 0.000000000000000D+00
 0.182745548869503D+05 0.000000000000000D+00 0.000000000000000D+00 0.182745548869503D+05
 0.331813576961111D+03 0.000000000000000D+00 0.000000000000000D+00 -.331813576961111D+03
 0.369328338886220D+03 0.366850107415930D+02 -.330037381599653D+03 -.102508334481585D+03
 0.160932946792019D+03 -.132427910613893D+03 -.119356979494580D+02 0.418638867484886D+02
 0.130215732846887D+03 0.115059907224872D+03 0.629331307051909D+01 0.606444477330966D+02
 0.179458914453863D+05 -.193170073525713D+02 0.335679766478592D+03 0.179427413099892D+05
0.168875269147D+00 0.000000000000D+00 0.000000000000D+00 0.791366480996D-07 0.891166228182D-08  6 -4 2 25 24 1 -4 4 0.35922477D+00 0.39952869D+00 0.23120567D+06 0.23120567D+06 0.23120567D+06 0.11315448D+01  1  2  1  8  6  1       21 0.711864518249D-03 0.100000000000D+01
  </mgrwgt>
  </event>
  <event>
  5     66 0.46027262E-03 0.10495225E+03 0.75467711E-02 0.11305561E+00
       21 -1    0    0  501  502 0.00000000E+00 0.00000000E+00 0.13331468E+03 0.13331679E+03 0.75000000E+00 0.0000E+00 0.9000E+01
        2 -1    0    0  502    0 0.00000000E+00 0.00000000E+00 -.40995627E+03 0.40995639E+03 0.32000000E+00 0.0000E+00 0.9000E+01
       25  1    1    2    0    0 0.13734398E+02 0.56258181E+02 -.39517958E+02 0.14331882E+03 0.12500000E+03 0.0000E+00 0.9000E+01
       24  1    1    2    0    0 0.28980261E+02 0.99337616E+02 -.24965627E+02 0.13341033E+03 0.80419002E+02 0.0000E+00 0.9000E+01
        1  1    1    2  501    0 -.42714659E+02 -.15559580E+03 -.21215800E+03 0.26654402E+03 0.32000000E+00 0.0000E+00 0.9000E+01
#aMCatNLO 1  0  0  1  2 0.19021515D+02 0.00000000D+00  -5  6  0 0.00000000D+00 0.00000000D+00 0.00000000D+00 0.00000000D+00 0.00000000D+00
  <mgrwgt>
 0.1719359511D+00   32    2    0
 0.233781507938132D+03 0.000000000000000D+00 0.000000000000000D+00 0.233781507938132D+03
 0.233781507938132D+03 0.000000000000000D+00 0.000000000000000D+00 -.233781507938132D+03
 0.143144302302654D+03 0.137344177128923D+02 0.562582524900974D+02 0.388801501869743D+02
 0.140241533236363D+03 0.289802807181482D+02 0.993376861383877D+02 0.499263370605511D+02
 0.184177180337247D+03 -.427146984310405D+02 -.155595938628485D+03 -.888064872475255D+02
 0.000000000000000D+00 -.000000000000000D+00 -.000000000000000D+00 0.000000000000000D+00
 0.245210977744640D+03 0.000000000000000D+00 0.000000000000000D+00 0.245210977744640D+03
 0.242025242129899D+03 0.000000000000000D+00 0.000000000000000D+00 -.242025242129899D+03
 0.145508033555075D+03 0.167874964841050D+02 0.612707247574194D+02 0.388801501869743D+02
 0.144422282892308D+03 0.319911728745284D+02 0.104280897422700D+03 0.499263370605511D+02
 0.178019458488220D+03 -.388837407992004D+02 -.149306363309321D+03 -.888064872475255D+02
 0.192864449389348D+02 -.989492855943301D+01 -.162452588707984D+02 0.318573561474054D+01
0.608548785047D-05 0.000000000000D+00 0.000000000000D+00 0.192703748231D-06 0.000000000000D+00  6 21 2 25 24 1 21 2 0.20510122D-01 0.63070367D-01 0.46261359D+05 0.46261359D+05 0.46261359D+05 0.11956389D+01  1  2  2  1  6  1       21 0.185074168579D-01 0.100000000000D+01
-.765569589824D-06 0.321140016693D-06 -.122848466633D-07 0.192703748231D-06 0.000000000000D+00  6 21 2 25 24 1 21 4 0.20510122D-01 0.63070367D-01 0.46261359D+05 0.46261359D+05 0.46261359D+05 0.11956389D+01  1  2  3  1  6  1       21 -.332839731274D-02 0.100000000000D+01
0.628175946197D-06 0.000000000000D+00 0.000000000000D+00 0.192703748231D-06 0.000000000000D+00  6 21 2 25 24 1 21 4 0.20510122D-01 0.63070367D-01 0.46261359D+05 0.46261359D+05 0.46261359D+05 0.11956389D+01  1  2 15  1  6  1       21 0.273106345790D-02 0.100000000000D+01
0.169502174406D-04 0.000000000000D+00 0.000000000000D+00 0.191510261834D-06 0.000000000000D+00  6 21 2 25 24 1 21 4 0.21859302D-01 0.63070367D-01 0.50410031D+05 0.50410031D+05 0.50410031D+05 0.11919306D+01  1  2 12  1  6  1       21 0.644641443549D-01 0.100000000000D+01
0.141670850272D-04 0.000000000000D+00 0.000000000000D+00 0.191510261834D-06 0.000000000000D+00  6 21 2 25 24 1 21 4 0.22111797D-01 0.63070367D-01 0.50410031D+05 0.50410031D+05 0.50410031D+05 0.11919306D+01  1  2 12  1  6  1       21 0.527215784559D-01 0.100000000000D+01
-.962981728588D-05 0.000000000000D+00 0.000000000000D+00 0.192703748231D-06 0.000000000000D+00  6 21 2 25 24 1 21 4 0.20510122D-01 0.63070367D-01 0.46261359D+05 0.46261359D+05 0.46261359D+05 0.11956389D+01  1  2  4  1  6  1       21 -.418666812300D-01 0.100000000000D+01
-.132558239844D-03 0.000000000000D+00 -.247411781375D-04 0.192703748231D-06 0.000000000000D+00  6 21 2 25 24 1 21 4 0.22237710D-01 0.63070367D-01 0.46261359D+05 0.46261359D+05 0.46261359D+05 0.11956389D+01  1  2  5  1  6  1       21 -.494847716518D+00 0.100000000000D+01
0.132824852083D-03 0.000000000000D+00 0.244205322427D-04 0.192703748231D-06 0.000000000000D+00  6 21 2 25 24 1 21 4 0.20510122D-01 0.63070367D-01 0.46261359D+05 0.46261359D+05 0.46261359D+05 0.11956389D+01  1  2  6  1  6  1       21 0.577470535162D+00 0.100000000000D+01
0.281335962905D-06 0.000000000000D+00 0.000000000000D+00 0.191510261834D-06 0.000000000000D+00  6 -1 2 25 24 1 -1 4 0.21859302D-01 0.63070367D-01 0.50410031D+05 0.50410031D+05 0.50410031D+05 0.11919306D+01  1  2 12  4  6  1       21 0.872390769808D-04 0.100000000000D+01
0.281879873325D-06 0.000000000000D+00 0.000000000000D+00 0.191510261834D-06 0.000000000000D+00  6 -1 2 25 24 1 -1 4 0.22111797D-01 0.63070367D-01 0.50410031D+05 0.50410031D+05 0.50410031D+05 0.11919306D+01  1  2 12  4  6  1       21 0.857764273588D-04 0.100000000000D+01
-.224563815638D-05 0.000000000000D+00 -.498596849965D-06 0.192703748231D-06 0.000000000000D+00  6 -1 2 25 24 1 -1 4 0.22237710D-01 0.63070367D-01 0.46261359D+05 0.46261359D+05 0.46261359D+05 0.11956389D+01  1  2  5  4  6  1       21 -.685045694468D-03 0.100000000000D+01
0.281335962905D-06 0.000000000000D+00 0.000000000000D+00 0.191510261834D-06 0.000000000000D+00  6 1 2 25 24 1 1 4 0.21859302D-01 0.63070367D-01 0.50410031D+05 0.50410031D+05 0.50410031D+05 0.11919306D+01  1  2 12  5  6  1       21 0.135247718677D-03 0.100000000000D+01
0.281879873325D-06 0.000000000000D+00 0.000000000000D+00 0.191510261834D-06 0.000000000000D+00  6 1 2 25 24 1 1 4 0.22111797D-01 0.63070367D-01 0.50410031D+05 0.50410031D+05 0.50410031D+05 0.11919306D+01  1  2 12  5  6  1       21 0.133528790395D-03 0.100000000000D+01
-.224563815638D-05 0.000000000000D+00 -.498596849965D-06 0.192703748231D-06 0.000000000000D+00  6 1 2 25 24 1 1 4 0.22237710D-01 0.63070367D-01 0.46261359D+05 0.46261359D+05 0.46261359D+05 0.11956389D+01  1  2  5  5  6  1       21 -.106862671837D-02 0.100000000000D+01
0.281335962905D-06 0.000000000000D+00 0.000000000000D+00 0.191510261834D-06 0.000000000000D+00  6 -2 2 25 24 1 -2 4 0.21859302D-01 0.63070367D-01 0.50410031D+05 0.50410031D+05 0.50410031D+05 0.11919306D+01  1  2 12  6  6  1       21 0.792264725739D-04 0.100000000000D+01
0.281879873325D-06 0.000000000000D+00 0.000000000000D+00 0.191510261834D-06 0.000000000000D+00  6 -2 2 25 24 1 -2 4 0.22111797D-01 0.63070367D-01 0.50410031D+05 0.50410031D+05 0.50410031D+05 0.11919306D+01  1  2 12  6  6  1       21 0.778155336198D-04 0.100000000000D+01
-.224563815638D-05 0.000000000000D+00 -.498596849965D-06 0.192703748231D-06 0.000000000000D+00  6 -2 2 25 24 1 -2 4 0.22237710D-01 0.63070367D-01 0.46261359D+05 0.46261359D+05 0.46261359D+05 0.11956389D+01  1  2  5  6  6  1       21 -.621083678901D-03 0.100000000000D+01
0.281335962905D-06 0.000000000000D+00 0.000000000000D+00 0.191510261834D-06 0.000000000000D+00  6 2 2 25 24 1 2 4 0.21859302D-01 0.63070367D-01 0.50410031D+05 0.50410031D+05 0.50410031D+05 0.11919306D+01  1  2 12  7  6  1       21 0.169433786543D-03 0.100000000000D+01
0.281879873325D-06 0.000000000000D+00 0.000000000000D+00 0.191510261834D-06 0.000000000000D+00  6 2 2 25 24 1 2 4 0.22111797D-01 0.63070367D-01 0.50410031D+05 0.50410031D+05 0.50410031D+05 0.11919306D+01  1  2 12  7  6  1       21 0.167564119648D-03 0.100000000000D+01
-.224563815638D-05 0.000000000000D+00 -.498596849965D-06 0.192703748231D-06 0.000000000000D+00  6 2 2 25 24 1 2 4 0.22237710D-01 0.63070367D-01 0.46261359D+05 0.46261359D+05 0.46261359D+05 0.11956389D+01  1  2  5  7  6  1       21 -.134196887814D-02 0.100000000000D+01
0.281335962905D-06 0.000000000000D+00 0.000000000000D+00 0.191510261834D-06 0.000000000000D+00  6 -3 2 25 24 1 -3 4 0.21859302D-01 0.63070367D-01 0.50410031D+05 0.50410031D+05 0.50410031D+05 0.11919306D+01  1  2 12  8  6  1       21 0.524058119228D-04 0.100000000000D+01
0.281335962905D-06 0.000000000000D+00 0.000000000000D+00 0.191510261834D-06 0.000000000000D+00  6 -4 2 25 24 1 -4 4 0.21859302D-01 0.63070367D-01 0.50410031D+05 0.50410031D+05 0.50410031D+05 0.11919306D+01  1  2 12  8  6  1       21 0.449348044319D-04 0.100000000000D+01
0.281879873325D-06 0.000000000000D+00 0.000000000000D+00 0.191510261834D-06 0.000000000000D+00  6 -3 2 25 24 1 -3 4 0.22111797D-01 0.63070367D-01 0.50410031D+05 0.50410031D+05 0.50410031D+05 0.11919306D+01  1  2 12  8  6  1       21 0.514336455945D-04 0.100000000000D+01
0.281879873325D-06 0.000000000000D+00 0.000000000000D+00 0.191510261834D-06 0.000000000000D+00  6 -4 2 25 24 1 -4 4 0.22111797D-01 0.63070367D-01 0.50410031D+05 0.50410031D+05 0.50410031D+05 0.11919306D+01  1  2 12  8  6  1       21 0.440819129261D-04 0.100000000000D+01
-.224563815638D-05 0.000000000000D+00 -.498596849965D-06 0.192703748231D-06 0.000000000000D+00  6 -3 2 25 24 1 -3 4 0.22237710D-01 0.63070367D-01 0.46261359D+05 0.46261359D+05 0.46261359D+05 0.11956389D+01  1  2  5  8  6  1       21 -.409663136314D-03 0.100000000000D+01
-.224563815638D-05 0.000000000000D+00 -.498596849965D-06 0.192703748231D-06 0.000000000000D+00  6 -4 2 25 24 1 -4 4 0.22237710D-01 0.63070367D-01 0.46261359D+05 0.46261359D+05 0.46261359D+05 0.11956389D+01  1  2  5  8  6  1       21 -.350751674836D-03 0.100000000000D+01
0.281335962905D-06 0.000000000000D+00 0.000000000000D+00 0.191510261834D-06 0.000000000000D+00  6 3 2 25 24 1 3 4 0.21859302D-01 0.63070367D-01 0.50410031D+05 0.50410031D+05 0.50410031D+05 0.11919306D+01  1  2 12  9  6  1       21 0.524025464762D-04 0.100000000000D+01
0.281335962905D-06 0.000000000000D+00 0.000000000000D+00 0.191510261834D-06 0.000000000000D+00  6 4 2 25 24 1 4 4 0.21859302D-01 0.63070367D-01 0.50410031D+05 0.50410031D+05 0.50410031D+05 0.11919306D+01  1  2 12  9  6  1       21 0.449348044319D-04 0.100000000000D+01
0.281879873325D-06 0.000000000000D+00 0.000000000000D+00 0.191510261834D-06 0.000000000000D+00  6 3 2 25 24 1 3 4 0.22111797D-01 0.63070367D-01 0.50410031D+05 0.50410031D+05 0.50410031D+05 0.11919306D+01  1  2 12  9  6  1       21 0.514305652654D-04 0.100000000000D+01
0.281879873325D-06 0.000000000000D+00 0.000000000000D+00 0.191510261834D-06 0.000000000000D+00  6 4 2 25 24 1 4 4 0.22111797D-01 0.63070367D-01 0.50410031D+05 0.50410031D+05 0.50410031D+05 0.11919306D+01  1  2 12  9  6  1       21 0.440819129261D-04 0.100000000000D+01
-.224563815638D-05 0.000000000000D+00 -.498596849965D-06 0.192703748231D-06 0.000000000000D+00  6 3 2 25 24 1 3 4 0.22237710D-01 0.63070367D-01 0.46261359D+05 0.46261359D+05 0.46261359D+05 0.11956389D+01  1  2  5  9  6  1       21 -.409638553324D-03 0.100000000000D+01
-.224563815638D-05 0.000000000000D+00 -.498596849965D-06 0.192703748231D-06 0.000000000000D+00  6 4 2 25 24 1 4 4 0.22237710D-01 0.63070367D-01 0.46261359D+05 0.46261359D+05 0.46261359D+05 0.11956389D+01  1  2  5  9  6  1       21 -.350751674836D-03 0.100000000000D+01
  </mgrwgt>
  </event>
  <event>
  5     66 0.46027262E-03 0.21259924E+02 0.75467711E-02 0.12303170E+00
       21 -1    0    0  501  502 0.00000000E+00 0.00000000E+00 0.10172832E+03 0.10173108E+03 0.75000000E+00 0.0000E+00 0.9000E+01
        2 -1    0    0  502    0 0.00000000E+00 0.00000000E+00 -.25208910E+03 0.25208930E+03 0.32000000E+00 0.0000E+00 0.9000E+01
       25  1    1    2    0    0 -.35347631E+02 -.28039645E+02 -.58320008E+02 0.14512719E+03 0.12500000E+03 0.0000E+00 0.9000E+01
       24  1    1    2    0    0 0.24012521E+02 0.46025530E+02 -.13222247E+03 0.16323280E+03 0.80419002E+02 0.0000E+00 0.9000E+01
        1  1    1    2  501    0 0.11335109E+02 -.17985885E+02 0.40181692E+02 0.45460395E+02 0.32000000E+00 0.0000E+00 0.9000E+01
#aMCatNLO 1  0  0  2  1 0.70917026D+01 0.00000000D+00  -5  6  0 0.00000000D+00 0.00000000D+00 0.00000000D+00 0.00000000D+00 0.00000000D+00
  <mgrwgt>
 0.1942155163D+00   11    2    0
 0.160140952218990D+03 0.000000000000000D+00 0.000000000000000D+00 0.160140952218990D+03
 0.160140952218990D+03 0.000000000000000D+00 0.000000000000000D+00 -.160140952218990D+03
 0.132945102432152D+03 -.353476810096649D+02 -.280395647128903D+02 0.370466174515622D+01
 0.118252305248568D+03 0.240124762523378D+02 0.460256008010884D+02 -.694365667163905D+02
 0.690844967572601D+02 0.113352047573271D+02 -.179860360881981D+02 0.657319049712343D+02
 0.000000000000000D+00 0.000000000000000D+00 -.000000000000000D+00 -.000000000000000D+00
 0.161606362754800D+03 0.000000000000000D+00 0.000000000000000D+00 0.161606362754800D+03
 0.168996233612129D+03 0.000000000000000D+00 0.000000000000000D+00 -.168996233612129D+03
 0.133491542362349D+03 -.381080647310196D+02 -.270007919529999D+02 0.370466174515622D+01
 0.118142601614871D+03 0.215633362204915D+02 0.469472480092492D+02 -.694365667163905D+02
 0.687262633085517D+02 0.990743351735148D+01 -.174487448920619D+02 0.657319049712343D+02
 0.102421890811563D+02 0.663729499317661D+01 -.249771116418747D+01 -.738987085732921D+01
0.261894875148D-05 0.000000000000D+00 0.000000000000D+00 0.332001253492D-05 0.000000000000D+00  6 21 2 25 24 1 21 2 0.15650738D-01 0.38783167D-01 0.15609083D+05 0.15609083D+05 0.15609083D+05 0.12458567D+01  1  2  2  2  6  2        2 0.239878589362D-01 0.100000000000D+01
0.403929030396D-06 0.138205722603D-06 -.528690297665D-08 0.332001253492D-05 0.000000000000D+00  6 21 2 25 24 1 21 4 0.15650738D-01 0.38783167D-01 0.15609083D+05 0.15609083D+05 0.15609083D+05 0.12458567D+01  1  2  3  2  6  2        2 0.574256260377D-02 0.100000000000D+01
0.252082908700D-06 0.000000000000D+00 0.000000000000D+00 0.332001253492D-05 0.000000000000D+00  6 21 2 25 24 1 21 4 0.15650738D-01 0.38783167D-01 0.15609083D+05 0.15609083D+05 0.15609083D+05 0.12458567D+01  1  2 15  2  6  2        2 0.358380253861D-02 0.100000000000D+01
0.407888311850D-04 0.000000000000D+00 0.000000000000D+00 0.330697142104D-05 0.000000000000D+00  6 21 2 25 24 1 21 4 0.15650738D-01 0.41099162D-01 0.16407149D+05 0.16407149D+05 0.16407149D+05 0.12434074D+01  1  2 12  2  6  2        2 0.541277755723D+00 0.100000000000D+01
-.338911801745D-04 0.000000000000D+00 0.000000000000D+00 0.332001253492D-05 0.000000000000D+00  6 21 2 25 24 1 21 4 0.15650738D-01 0.38783167D-01 0.15609083D+05 0.15609083D+05 0.15609083D+05 0.12458567D+01  1  2  4  2  6  2        2 -.481822818421D+00 0.100000000000D+01
-.126477401317D-03 0.000000000000D+00 -.160926411770D-04 0.332001253492D-05 0.000000000000D+00  6 21 2 25 24 1 21 4 0.15650738D-01 0.41220441D-01 0.15609083D+05 0.15609083D+05 0.15609083D+05 0.12458567D+01  1  2  5  2  6  2        2 -.168561134928D+01 0.100000000000D+01
0.127251637145D-03 0.000000000000D+00 0.160627980592D-04 0.332001253492D-05 0.000000000000D+00  6 21 2 25 24 1 21 4 0.15650738D-01 0.38783167D-01 0.15609083D+05 0.15609083D+05 0.15609083D+05 0.12458567D+01  1  2  6  2  6  2        2 0.180910614921D+01 0.100000000000D+01
0.107809573661D-05 0.000000000000D+00 0.000000000000D+00 0.332001253492D-05 0.582661045365D-06  6 21 2 25 24 1 21 4 0.15793954D-01 0.40927752D-01 0.16407149D+05 0.16407149D+05 0.16407149D+05 0.12434074D+01  1  2 11  2  6  2        2 0.141351842460D-01 0.100000000000D+01
0.574111696170D-06 0.000000000000D+00 0.000000000000D+00 0.330697142104D-05 0.000000000000D+00  6 21 21 25 24 1 -2 4 0.15650738D-01 0.41099162D-01 0.16407149D+05 0.16407149D+05 0.16407149D+05 0.12434074D+01  1  2 12 10  6  2        2 0.289014164455D-01 0.100000000000D+01
-.130128606058D-05 0.000000000000D+00 -.168211894694D-06 0.332001253492D-05 0.000000000000D+00  6 21 21 25 24 1 -2 4 0.15650738D-01 0.41220441D-01 0.15609083D+05 0.15609083D+05 0.15609083D+05 0.12458567D+01  1  2  5 10  6  2        2 -.656890554425D-01 0.100000000000D+01
0.120958938206D-07 0.000000000000D+00 0.000000000000D+00 0.332001253492D-05 0.572085838280D-08  6 21 21 25 24 1 -2 4 0.15793954D-01 0.40927752D-01 0.16407149D+05 0.16407149D+05 0.16407149D+05 0.12434074D+01  1  2 11 10  6  2        2 0.604009703669D-03 0.100000000000D+01
  </mgrwgt>
  </event>
  <event>
  6     66 0.46027262E-03 0.26178383E+02 0.75467711E-02 0.11860649E+00
       21 -1    0    0  503  502 0.00000000E+00 0.00000000E+00 0.77151964E+02 0.77155610E+02 0.75000000E+00 0.0000E+00 0.9000E+01
        2 -1    0    0  502    0 0.00000000E+00 0.00000000E+00 -.24023795E+04 0.24023795E+04 0.32000000E+00 0.0000E+00 0.9000E+01
       25  1    1    2    0    0 0.34835121E+02 0.10260904E+03 -.11023107E+04 0.11146551E+04 0.12500000E+03 0.0000E+00 0.9000E+01
       24  1    1    2    0    0 -.39185191E+02 -.75925123E+02 -.12487969E+04 0.12542970E+04 0.80419002E+02 0.0000E+00 0.9000E+01
        1  1    1    2  501    0 -.52351473E+01 -.30993998E+02 -.36011250E+02 0.47801121E+02 0.32000000E+00 0.0000E+00 0.9000E+01
       21  1    1    2  503  501 0.95852173E+01 0.43100841E+01 0.61891378E+02 0.62781832E+02 0.75000000E+00 0.0000E+00 0.9000E+01
#aMCatNLO 2  0  0  1  5 0.10509673D+02 0.00000000D+00  -5  6  0 0.00000000D+00 0.00000000D+00 0.00000000D+00 0.00000000D+00 0.00000000D+00
  <mgrwgt>
 0.1094109735D+01    3    2    0
 0.188579790758242D+03 0.000000000000000D+00 0.000000000000000D+00 0.188579790758242D+03
 0.188579790758242D+03 0.000000000000000D+00 0.000000000000000D+00 -.188579790758242D+03
 0.167769422169937D+03 0.390710708704703D+02 0.104513879042770D+03 -.847817926813375D+01
 0.131501210013458D+03 -.358208120011691D+02 -.744122134235710D+02 -.632854185544741D+02
 0.778889493330891D+02 -.325025886930120D+01 -.301016656191987D+02 0.717635978226079D+02
 0.000000000000000D+00 0.000000000000000D+00 0.000000000000000D+00 0.000000000000000D+00
 0.982323780379809D+03 0.000000000000000D+00 0.000000000000000D+00 0.982323780379809D+03
 0.188687782285757D+03 0.000000000000000D+00 0.000000000000000D+00 -.188687782285757D+03
 0.165647225012824D+03 0.348351306381892D+02 0.102609148247935D+03 -.847817926813375D+01
 0.133312975861886D+03 -.391851822973326D+02 -.759250345109637D+02 -.632854185544741D+02
 0.783457799236063D+02 -.523516568463250D+01 -.309941978384276D+02 0.717635978226079D+02
 0.793705581867250D+03 0.958521734377589D+01 0.431008410145632D+01 0.793635998094051D+03
-.498188047740D-02 0.000000000000D+00 0.000000000000D+00 0.136720124749D-05 0.000000000000D+00  6 21 2 25 24 1 21 4 0.11866293D-01 0.36938525D+00 0.26358686D+05 0.26358686D+05 0.26358686D+05 0.12208411D+01  1  2 13  1  6  1       21 -.400445310356D+01 0.100000000000D+01
-.498474175613D-02 0.000000000000D+00 0.000000000000D+00 0.136720124749D-05 0.000000000000D+00  6 21 2 25 24 1 21 4 0.11932240D-01 0.36938525D+00 0.26358686D+05 0.26358686D+05 0.26358686D+05 0.12208411D+01  1  2 13  1  6  1       21 -.396740698371D+01 0.100000000000D+01
0.113037875167D-01 0.000000000000D+00 0.000000000000D+00 0.137478726739D-05 0.680620641297D-05  6 21 2 25 24 1 21 4 0.11869804D-01 0.36959678D+00 0.26358686D+05 0.26358686D+05 0.26358686D+05 0.12208411D+01  1  2  1  1  6  1       21 0.906596982182D+01 0.100000000000D+01
  </mgrwgt>
  </event>
  <event>
  6     66 -.46027262E-03 0.18512179E+02 0.75467711E-02 0.11121438E+00
       21 -1    0    0  501  502 0.00000000E+00 0.00000000E+00 0.26162012E+03 0.26162119E+03 0.75000000E+00 0.0000E+00 0.9000E+01
        2 -1    0    0  502    0 -.00000000E+00 -.00000000E+00 -.82983048E+03 0.82983054E+03 0.32000000E+00 0.0000E+00 0.9000E+01
       25  1    1    2    0    0 0.17933983E+03 0.81533255E+02 -.45631232E+03 0.51250013E+03 0.12500000E+03 0.0000E+00 0.9000E+01
       24  1    1    2    0    0 -.20339657E+03 -.99000134E+02 -.29720100E+03 0.38205607E+03 0.80419002E+02 0.0000E+00 0.9000E+01
        1  1    1    2  503    0 0.16558363E+02 0.15162411E+02 0.18740048E+03 0.18874088E+03 0.32000000E+00 0.0000E+00 0.9000E+01
       21  1    1    2  501  503 0.74983799E+01 0.23044687E+01 -.20975283E+01 0.81546553E+01 0.75000000E+00 0.0000E+00 0.9000E+01
#aMCatNLO 2  0  0  5  2 0.76248379D+01 0.00000000D+00  -5  6  0 0.00000000D+00 0.00000000D+00 0.00000000D+00 0.00000000D+00 0.00000000D+00
  <mgrwgt>
 -.2733948913D+01    2    2    0
 0.465940951773240D+03 0.000000000000000D+00 0.000000000000000D+00 0.465940951773240D+03
 0.465940951773240D+03 -.000000000000000D+00 -.000000000000000D+00 -.465940951773240D+03
 0.323170890823876D+03 0.179211485076722D+03 0.814400662590234D+02 -.223752505908245D+03
 0.267015769446130D+03 -.203502657258160D+03 -.990771577402920D+02 -.116621569538021D+03
 0.341695243276473D+03 0.242911721814383D+02 0.176370914812687D+02 0.340374075446267D+03
 0.000000000000000D+00 0.000000000000000D+00 0.000000000000000D+00 0.000000000000000D+00
 0.465940951773240D+03 0.000000000000000D+00 0.000000000000000D+00 0.465940951773240D+03
 0.465940951773240D+03 -.000000000000000D+00 -.000000000000000D+00 -.465940951773240D+03
 0.322021525266267D+03 0.179340040294745D+03 0.815334063466786D+02 -.221951157535616D+03
 0.266258991027970D+03 -.203396401742148D+03 -.990000087973633D+02 -.115132690254899D+03
 0.335365325296000D+03 0.165457001887914D+02 0.151598756275974D+02 0.334613686789872D+03
 0.823606195624261D+01 0.751066125861201D+01 0.230672682308753D+01 0.247016100064349D+01
-.721119771086D-02 0.000000000000D+00 0.000000000000D+00 0.530912690575D-05 0.000000000000D+00  6 21 2 25 24 1 21 4 0.40249337D-01 0.12766632D+00 0.63353718D+05 0.63353718D+05 0.63353718D+05 0.11822329D+01  1  2  8  3  6  5        1 -.350249033584D+01 0.100000000000D+01
0.158267228844D-02 0.000000000000D+00 0.000000000000D+00 0.530912690575D-05 0.999431780020D-06  6 21 2 25 24 1 21 4 0.40249337D-01 0.12766632D+00 0.63426311D+05 0.63426311D+05 0.63426311D+05 0.11821849D+01  1  2  1  3  6  5        1 0.768541422926D+00 0.100000000000D+01
  </mgrwgt>
  </event>
  <event>
  5     66 -.46027262E-03 0.43234480E+02 0.75467711E-02 0.12301952E+00
       21 -1    0    0  501  502 0.00000000E+00 0.00000000E+00 0.23151906E+02 0.23164050E+02 0.75000000E+00 0.0000E+00 0.9000E+01
        2 -1    0    0  502    0 0.00000000E+00 0.00000000E+00 -.90572080E+03 0.90572085E+03 0.32000000E+00 0.0000E+00 0.9000E+01
       25  1    1    2    0    0 -.21053998E+02 -.67790015E+01 -.36056298E+03 0.38225631E+03 0.12500000E+03 0.0000E+00 0.9000E+01
       24  1    1    2    0    0 -.69953786E+01 -.26121060E+02 -.47597220E+03 0.48347492E+03 0.80419002E+02 0.0000E+00 0.9000E+01
        1  1    1    2  501    0 0.28049376E+02 0.32900061E+02 -.46033711E+02 0.63153673E+02 0.32000000E+00 0.0000E+00 0.9000E+01
#aMCatNLO 1  0  0  1  2 0.13698168D+01 0.00000000D+00  -5  6  0 0.00000000D+00 0.00000000D+00 0.00000000D+00 0.00000000D+00 0.00000000D+00
  <mgrwgt>
 -.8996924175D-01   41    2    0
 0.144826893838901D+03 0.000000000000000D+00 0.000000000000000D+00 0.144826893838901D+03
 0.144826893838901D+03 0.000000000000000D+00 0.000000000000000D+00 -.144826893838901D+03
 0.127222413887273D+03 -.210541604254189D+02 -.677919234583079D+01 0.844437536018228D+01
 0.100169037747223D+03 -.699550674135150D+01 -.261212097810920D+02 -.532481497691508D+02
 0.622623360433060D+02 0.280496671667704D+02 0.329004021269227D+02 0.448037744089685D+02
 0.000000000000000D+00 0.000000000000000D+00 0.000000000000000D+00 0.000000000000000D+00
 0.164619169286011D+03 0.000000000000000D+00 0.000000000000000D+00 0.164619169286011D+03
 0.144852216429325D+03 0.000000000000000D+00 0.000000000000000D+00 -.144852216429325D+03
 0.127266377496776D+03 -.211186193824895D+02 -.737748475468799D+01 0.844437536018228D+01
 0.100296522061252D+03 -.704628226212612D+01 -.265924958523505D+02 -.532481497691508D+02
 0.620941271377116D+02 0.280181691668859D+02 0.326080453299538D+02 0.448037744089685D+02
 0.198143590195963D+02 0.146732477729776D+00 0.136193527708465D+01 0.197669528566865D+02
0.942845712051D-07 0.000000000000D+00 0.000000000000D+00 0.882005971276D-06 0.000000000000D+00  6 21 2 25 24 1 21 2 0.35627702D-02 0.13934260D+00 0.16258818D+05 0.16258818D+05 0.16258818D+05 0.12438524D+01  1  2  2  1  6  1       21 0.262835531025D-02 0.100000000000D+01
0.396573676959D-09 0.497553351756D-08 -.190333384674D-09 0.882005971276D-06 0.000000000000D+00  6 21 2 25 24 1 21 4 0.35627702D-02 0.13934260D+00 0.16258818D+05 0.16258818D+05 0.16258818D+05 0.12438524D+01  1  2  3  1  6  1       21 0.171042887179D-04 0.100000000000D+01
0.100802916208D-07 0.000000000000D+00 0.000000000000D+00 0.882005971276D-06 0.000000000000D+00  6 21 2 25 24 1 21 4 0.35627702D-02 0.13934260D+00 0.16258818D+05 0.16258818D+05 0.16258818D+05 0.12438524D+01  1  2 15  1  6  1       21 0.434764656002D-03 0.100000000000D+01
0.485561924564D-08 0.000000000000D+00 0.000000000000D+00 0.881287738038D-06 0.000000000000D+00  6 21 2 25 24 1 21 4 0.40499502D-02 0.13934260D+00 0.16427792D+05 0.16427792D+05 0.16427792D+05 0.12433458D+01  1  2 12  1  6  1       21 0.169106090978D-03 0.100000000000D+01
0.480132566517D-08 0.000000000000D+00 0.000000000000D+00 0.881287738038D-06 0.000000000000D+00  6 21 2 25 24 1 21 4 0.40551095D-02 0.13934260D+00 0.16427792D+05 0.16427792D+05 0.16427792D+05 0.12433458D+01  1  2 12  1  6  1       21 0.166861828759D-03 0.100000000000D+01
-.986850606092D-04 0.000000000000D+00 0.000000000000D+00 0.882005971276D-06 0.000000000000D+00  6 21 2 25 24 1 21 4 0.35627702D-02 0.13934260D+00 0.16258818D+05 0.16258818D+05 0.16258818D+05 0.12438524D+01  1  2  4  1  6  1       21 -.425630309541D+01 0.100000000000D+01
-.948772025301D-04 0.000000000000D+00 -.256787521427D-06 0.882005971276D-06 0.000000000000D+00  6 21 2 25 24 1 21 4 0.40500296D-02 0.13934260D+00 0.16258818D+05 0.16258818D+05 0.16258818D+05 0.12438524D+01  1  2  5  1  6  1       21 -.330914626441D+01 0.100000000000D+01
0.922408749328D-04 0.000000000000D+00 0.248541182159D-06 0.882005971276D-06 0.000000000000D+00  6 21 2 25 24 1 21 4 0.35627702D-02 0.13934260D+00 0.16258818D+05 0.16258818D+05 0.16258818D+05 0.12438524D+01  1  2  6  1  6  1       21 0.397836429421D+01 0.100000000000D+01
0.100363069601D-03 0.000000000000D+00 0.000000000000D+00 0.882005971276D-06 0.959541590704D-05  6 21 2 25 24 1 21 4 0.40496641D-02 0.13936696D+00 0.16427792D+05 0.16427792D+05 0.16427792D+05 0.12433458D+01  1  2 11  1  6  1       21 0.349494457470D+01 0.100000000000D+01
0.156401054124D-09 0.000000000000D+00 0.000000000000D+00 0.881287738038D-06 0.000000000000D+00  6 -1 2 25 24 1 -1 4 0.40499502D-02 0.13934260D+00 0.16427792D+05 0.16427792D+05 0.16427792D+05 0.12433458D+01  1  2 12  4  6  1       21 0.298092954235D-06 0.100000000000D+01
0.156361956950D-09 0.000000000000D+00 0.000000000000D+00 0.881287738038D-06 0.000000000000D+00  6 -1 2 25 24 1 -1 4 0.40551095D-02 0.13934260D+00 0.16427792D+05 0.16427792D+05 0.16427792D+05 0.12433458D+01  1  2 12  4  6  1       21 0.297462535292D-06 0.100000000000D+01
-.305128555324D-05 0.000000000000D+00 -.871103623552D-08 0.882005971276D-06 0.000000000000D+00  6 -1 2 25 24 1 -1 4 0.40500296D-02 0.13934260D+00 0.16258818D+05 0.16258818D+05 0.16258818D+05 0.12438524D+01  1  2  5  4  6  1       21 -.582333519341D-02 0.100000000000D+01
0.299551055788D-05 0.000000000000D+00 0.000000000000D+00 0.882005971276D-06 0.286336644288D-06  6 -1 2 25 24 1 -1 4 0.40496641D-02 0.13936696D+00 0.16427792D+05 0.16427792D+05 0.16427792D+05 0.12433458D+01  1  2 11  4  6  1       21 0.570858710541D-02 0.100000000000D+01
0.156401054124D-09 0.000000000000D+00 0.000000000000D+00 0.881287738038D-06 0.000000000000D+00  6 1 2 25 24 1 1 4 0.40499502D-02 0.13934260D+00 0.16427792D+05 0.16427792D+05 0.16427792D+05 0.12433458D+01  1  2 12  5  6  1       21 0.328888519908D-06 0.100000000000D+01
0.156361956950D-09 0.000000000000D+00 0.000000000000D+00 0.881287738038D-06 0.000000000000D+00  6 1 2 25 24 1 1 4 0.40551095D-02 0.13934260D+00 0.16427792D+05 0.16427792D+05 0.16427792D+05 0.12433458D+01  1  2 12  5  6  1       21 0.328231959449D-06 0.100000000000D+01
-.305128555324D-05 0.000000000000D+00 -.871103623552D-08 0.882005971276D-06 0.000000000000D+00  6 1 2 25 24 1 1 4 0.40500296D-02 0.13934260D+00 0.16258818D+05 0.16258818D+05 0.16258818D+05 0.12438524D+01  1  2  5  5  6  1       21 -.642505077805D-02 0.100000000000D+01
0.298296755786D-05 0.000000000000D+00 0.000000000000D+00 0.882005971276D-06 0.141982110152D-06  6 1 2 25 24 1 1 4 0.40496641D-02 0.13936696D+00 0.16427792D+05 0.16427792D+05 0.16427792D+05 0.12433458D+01  1  2 11  5  6  1       21 0.627191913475D-02 0.100000000000D+01
0.156401054124D-09 0.000000000000D+00 0.000000000000D+00 0.881287738038D-06 0.000000000000D+00  6 -2 2 25 24 1 -2 4 0.40499502D-02 0.13934260D+00 0.16427792D+05 0.16427792D+05 0.16427792D+05 0.12433458D+01  1  2 12  6  6  1       21 0.292620336538D-06 0.100000000000D+01
0.156361956950D-09 0.000000000000D+00 0.000000000000D+00 0.881287738038D-06 0.000000000000D+00  6 -2 2 25 24 1 -2 4 0.40551095D-02 0.13934260D+00 0.16427792D+05 0.16427792D+05 0.16427792D+05 0.12433458D+01  1  2 12  6  6  1       21 0.291994783020D-06 0.100000000000D+01
-.305128555324D-05 0.000000000000D+00 -.871103623552D-08 0.882005971276D-06 0.000000000000D+00  6 -2 2 25 24 1 -2 4 0.40500296D-02 0.13934260D+00 0.16258818D+05 0.16258818D+05 0.16258818D+05 0.12438524D+01  1  2  5  6  6  1       21 -.571640229792D-02 0.100000000000D+01
0.295097472747D-05 0.000000000000D+00 0.000000000000D+00 0.882005971276D-06 0.280878332027D-06  6 -2 2 25 24 1 -2 4 0.40496641D-02 0.13936696D+00 0.16427792D+05 0.16427792D+05 0.16427792D+05 0.12433458D+01  1  2 11  6  6  1       21 0.552047713351D-02 0.100000000000D+01
0.156401054124D-09 0.000000000000D+00 0.000000000000D+00 0.881287738038D-06 0.000000000000D+00  6 2 2 25 24 1 2 4 0.40499502D-02 0.13934260D+00 0.16427792D+05 0.16427792D+05 0.16427792D+05 0.12433458D+01  1  2 12  7  6  1       21 0.349644547933D-06 0.100000000000D+01
0.156361956950D-09 0.000000000000D+00 0.000000000000D+00 0.881287738038D-06 0.000000000000D+00  6 2 2 25 24 1 2 4 0.40551095D-02 0.13934260D+00 0.16427792D+05 0.16427792D+05 0.16427792D+05 0.12433458D+01  1  2 12  7  6  1       21 0.348969778926D-06 0.100000000000D+01
-.305128555324D-05 0.000000000000D+00 -.871103623552D-08 0.882005971276D-06 0.000000000000D+00  6 2 2 25 24 1 2 4 0.40500296D-02 0.13934260D+00 0.16258818D+05 0.16258818D+05 0.16258818D+05 0.12438524D+01  1  2  5  7  6  1       21 -.683058869366D-02 0.100000000000D+01
0.294532426398D-05 0.000000000000D+00 0.000000000000D+00 0.882005971276D-06 0.280354590015D-06  6 2 2 25 24 1 2 4 0.40496641D-02 0.13936696D+00 0.16427792D+05 0.16427792D+05 0.16427792D+05 0.12433458D+01  1  2 11  7  6  1       21 0.658357031658D-02 0.100000000000D+01
0.156401054124D-09 0.000000000000D+00 0.000000000000D+00 0.881287738038D-06 0.000000000000D+00  6 -3 2 25 24 1 -3 4 0.40499502D-02 0.13934260D+00 0.16427792D+05 0.16427792D+05 0.16427792D+05 0.12433458D+01  1  2 12  8  6  1       21 0.215730243879D-06 0.100000000000D+01
0.156401054124D-09 0.000000000000D+00 0.000000000000D+00 0.881287738038D-06 0.000000000000D+00  6 -4 2 25 24 1 -4 4 0.40499502D-02 0.13934260D+00 0.16427792D+05 0.16427792D+05 0.16427792D+05 0.12433458D+01  1  2 12  8  6  1       21 0.192893006901D-06 0.100000000000D+01
0.156361956950D-09 0.000000000000D+00 0.000000000000D+00 0.881287738038D-06 0.000000000000D+00  6 -3 2 25 24 1 -3 4 0.40551095D-02 0.13934260D+00 0.16427792D+05 0.16427792D+05 0.16427792D+05 0.12433458D+01  1  2 12  8  6  1       21 0.215247440994D-06 0.100000000000D+01
0.156361956950D-09 0.000000000000D+00 0.000000000000D+00 0.881287738038D-06 0.000000000000D+00  6 -4 2 25 24 1 -4 4 0.40551095D-02 0.13934260D+00 0.16427792D+05 0.16427792D+05 0.16427792D+05 0.12433458D+01  1  2 12  8  6  1       21 0.192455468829D-06 0.100000000000D+01
-.305128555324D-05 0.000000000000D+00 -.871103623552D-08 0.882005971276D-06 0.000000000000D+00  6 -3 2 25 24 1 -3 4 0.40500296D-02 0.13934260D+00 0.16258818D+05 0.16258818D+05 0.16258818D+05 0.12438524D+01  1  2  5  8  6  1       21 -.421334176964D-02 0.100000000000D+01
-.305128555324D-05 0.000000000000D+00 -.871103623552D-08 0.882005971276D-06 0.000000000000D+00  6 -4 2 25 24 1 -4 4 0.40500296D-02 0.13934260D+00 0.16258818D+05 0.16258818D+05 0.16258818D+05 0.12438524D+01  1  2  5  8  6  1       21 -.376690743146D-02 0.100000000000D+01
0.295177867702D-05 0.000000000000D+00 0.000000000000D+00 0.882005971276D-06 0.280954853187D-06  6 -3 2 25 24 1 -3 4 0.40496641D-02 0.13936696D+00 0.16427792D+05 0.16427792D+05 0.16427792D+05 0.12433458D+01  1  2 11  8  6  1       21 0.407102590306D-02 0.100000000000D+01
0.295177867702D-05 0.000000000000D+00 0.000000000000D+00 0.882005971276D-06 0.280954853187D-06  6 -4 2 25 24 1 -4 4 0.40496641D-02 0.13936696D+00 0.16427792D+05 0.16427792D+05 0.16427792D+05 0.12433458D+01  1  2 11  8  6  1       21 0.364007260359D-02 0.100000000000D+01
0.156401054124D-09 0.000000000000D+00 0.000000000000D+00 0.881287738038D-06 0.000000000000D+00  6 3 2 25 24 1 3 4 0.40499502D-02 0.13934260D+00 0.16427792D+05 0.16427792D+05 0.16427792D+05 0.12433458D+01  1  2 12  9  6  1       21 0.215710885806D-06 0.100000000000D+01
0.156401054124D-09 0.000000000000D+00 0.000000000000D+00 0.881287738038D-06 0.000000000000D+00  6 4 2 25 24 1 4 4 0.40499502D-02 0.13934260D+00 0.16427792D+05 0.16427792D+05 0.16427792D+05 0.12433458D+01  1  2 12  9  6  1       21 0.192893006901D-06 0.100000000000D+01
0.156361956950D-09 0.000000000000D+00 0.000000000000D+00 0.881287738038D-06 0.000000000000D+00  6 3 2 25 24 1 3 4 0.40551095D-02 0.13934260D+00 0.16427792D+05 0.16427792D+05 0.16427792D+05 0.12433458D+01  1  2 12  9  6  1       21 0.215228112570D-06 0.100000000000D+01
0.156361956950D-09 0.000000000000D+00 0.000000000000D+00 0.881287738038D-06 0.000000000000D+00  6 4 2 25 24 1 4 4 0.40551095D-02 0.13934260D+00 0.16427792D+05 0.16427792D+05 0.16427792D+05 0.12433458D+01  1  2 12  9  6  1       21 0.192455468829D-06 0.100000000000D+01
-.305128555324D-05 0.000000000000D+00 -.871103623552D-08 0.882005971276D-06 0.000000000000D+00  6 3 2 25 24 1 3 4 0.40500296D-02 0.13934260D+00 0.16258818D+05 0.16258818D+05 0.16258818D+05 0.12438524D+01  1  2  5  9  6  1       21 -.421296335683D-02 0.100000000000D+01
-.305128555324D-05 0.000000000000D+00 -.871103623552D-08 0.882005971276D-06 0.000000000000D+00  6 4 2 25 24 1 4 4 0.40500296D-02 0.13934260D+00 0.16258818D+05 0.16258818D+05 0.16258818D+05 0.12438524D+01  1  2  5  9  6  1       21 -.376690743146D-02 0.100000000000D+01
0.295177867702D-05 0.000000000000D+00 0.000000000000D+00 0.882005971276D-06 0.280954853187D-06  6 3 2 25 24 1 3 4 0.40496641D-02 0.13936696D+00 0.16427792D+05 0.16427792D+05 0.16427792D+05 0.12433458D+01  1  2 11  9  6  1       21 0.407066061296D-02 0.100000000000D+01
0.295177867702D-05 0.000000000000D+00 0.000000000000D+00 0.882005971276D-06 0.280954853187D-06  6 4 2 25 24 1 4 4 0.40496641D-02 0.13936696D+00 0.16427792D+05 0.16427792D+05 0.16427792D+05 0.12433458D+01  1  2 11  9  6  1       21 0.364007260359D-02 0.100000000000D+01
  </mgrwgt>
  </event>
  <event>
  5     66 0.46027262E-03 0.12689684E+03 0.75467711E-02 0.10506983E+00
       21 -1    0    0  501  502 0.00000000E+00 0.00000000E+00 0.84501011E+02 0.84504339E+02 0.75000000E+00 0.0000E+00 0.9000E+01
        4 -1    0    0  502    0 0.00000000E+00 0.00000000E+00 -.79675012E+03 0.79675163E+03 0.15500000E+01 0.0000E+00 0.9000E+01
       25  1    1    2    0    0 0.48720977E+02 -.95741668E+02 -.33591071E+03 0.37416735E+03 0.12500000E+03 0.0000E+00 0.9000E+01
       24  1    1    2    0    0 -.17546594E+03 0.89549427E+02 -.24388564E+03 0.32365849E+03 0.80419002E+02 0.0000E+00 0.9000E+01
        3  1    1    2  501    0 0.12674496E+03 0.61922406E+01 -.13245276E+03 0.18343013E+03 0.50000000E+00 0.0000E+00 0.9000E+01
#aMCatNLO 1  0  0  1  2 0.21445213D+03 0.00000000D+00  -5  6  0 0.00000000D+00 0.00000000D+00 0.00000000D+00 0.00000000D+00 0.00000000D+00
  <mgrwgt>
 0.6675070298D-02    3    2    0
 0.259477015775000D+03 0.000000000000000D+00 0.000000000000000D+00 0.259477015775000D+03
 0.259477015775000D+03 0.000000000000000D+00 0.000000000000000D+00 -.259477015775000D+03
 0.174360483345931D+03 0.487206600985725D+02 -.957416834674731D+02 -.568894144722931D+02
 0.214891478718465D+03 -.175466328162007D+03 0.895494083842218D+02 0.300599868731929D+02
 0.129702069485604D+03 0.126745668063434D+03 0.619227508325126D+01 0.268294275991002D+02
 0.000000000000000D+00 0.000000000000000D+00 0.000000000000000D+00 -.000000000000000D+00
 0.369288273088324D+03 0.000000000000000D+00 0.000000000000000D+00 0.369288273088324D+03
 0.410631078631687D+03 0.000000000000000D+00 0.000000000000000D+00 -.410631078631687D+03
 0.183453339770534D+03 -.179159342476298D+02 -.120302708589612D+03 -.568894144722931D+02
 0.287754261843133D+03 -.269075345337253D+03 0.550468434638855D+02 0.300599868731929D+02
 0.903108762568511D+02 0.857720877566139D+02 -.890983427773161D+01 0.268294275991002D+02
 0.218400873849493D+03 0.201219191828269D+03 0.741656994034581D+02 -.413428055433628D+02
0.396786734141D-04 0.000000000000D+00 0.000000000000D+00 0.689712111320D-07 0.000000000000D+00  6 21 4 25 24 3 21 2 0.13000528D-01 0.12257731D+00 0.63628568D+05 0.63628568D+05 0.63628568D+05 0.11820515D+01  1  2  2  1  6  1       21 0.624902623655D-02 0.100000000000D+01
-.251278057168D-05 0.209390112274D-05 -.800998096904D-07 0.689712111320D-07 0.000000000000D+00  6 21 4 25 24 3 21 4 0.13000528D-01 0.12257731D+00 0.63628568D+05 0.63628568D+05 0.63628568D+05 0.11820515D+01  1  2  3  1  6  1       21 -.552945838503D-03 0.100000000000D+01
0.444887478841D-05 0.000000000000D+00 0.000000000000D+00 0.689712111320D-07 0.000000000000D+00  6 21 4 25 24 3 21 4 0.13000528D-01 0.12257731D+00 0.63628568D+05 0.63628568D+05 0.63628568D+05 0.11820515D+01  1  2 15  1  6  1       21 0.978989899875D-03 0.100000000000D+01
  </mgrwgt>
  </event>
  <event>
  5     66 0.46027262E-03 0.10244404E+03 0.75467711E-02 0.11641106E+00
       21 -1    0    0  501  502 0.00000000E+00 0.00000000E+00 0.13590462E+03 0.13590669E+03 0.75000000E+00 0.0000E+00 0.9000E+01
        2 -1    0    0  502    0 0.00000000E+00 0.00000000E+00 -.28510055E+03 0.28510073E+03 0.32000000E+00 0.0000E+00 0.9000E+01
       25  1    1    2    0    0 -.86982289E+02 0.55087320E+01 0.72306062E+01 0.15255670E+03 0.12500000E+03 0.0000E+00 0.9000E+01
       24  1    1    2    0    0 -.23660405E+02 -.32013569E+02 -.11825247E+03 0.14844374E+03 0.80419002E+02 0.0000E+00 0.9000E+01
        1  1    1    2  501    0 0.11064269E+03 0.26504837E+02 -.38174064E+02 0.12000697E+03 0.32000000E+00 0.0000E+00 0.9000E+01
#aMCatNLO 1  0  0  1  5 0.12136204D+02 0.00000000D+00  -5  6  0 0.00000000D+00 0.00000000D+00 0.00000000D+00 0.00000000D+00 0.00000000D+00
  <mgrwgt>
 0.6853889598D-01   32    2    0
 0.196842463254397D+03 0.000000000000000D+00 0.000000000000000D+00 0.196842463254397D+03
 0.196842463254397D+03 0.000000000000000D+00 0.000000000000000D+00 -.196842463254397D+03
 0.165884723346483D+03 -.869824734760054D+02 0.550868789179845D+01 0.655472738216159D+02
 0.113931581362708D+03 -.236605312217763D+02 -.320135990341923D+02 -.702032621508293D+02
 0.113868621799604D+03 0.110643004697782D+03 0.265049111423939D+02 0.465598832921348D+01
 0.000000000000000D+00 -.000000000000000D+00 -.000000000000000D+00 0.000000000000000D+00
 0.225944621456474D+03 0.000000000000000D+00 0.000000000000000D+00 0.225944621456474D+03
 0.198205313072324D+03 0.000000000000000D+00 0.000000000000000D+00 -.198205313072324D+03
 0.163512803347416D+03 -.822302337022359D+02 0.729249054579157D+01 0.655472738216159D+02
 0.112956025789275D+03 -.203872087967267D+02 -.307849233976204D+02 -.702032621508293D+02
 0.117403115536099D+03 0.113979577257225D+03 0.277573283751328D+02 0.465598832921348D+01
 0.302779898560090D+02 -.113621347582628D+02 -.426489552330402D+01 0.277393083841497D+02
0.166120568394D-05 0.000000000000D+00 0.000000000000D+00 0.149103188312D-06 0.000000000000D+00  6 21 2 25 24 1 21 2 0.20908576D-01 0.43861796D-01 0.31664631D+05 0.31664631D+05 0.31664631D+05 0.12124446D+01  1  2  2  1  6  1       21 0.743546149552D-02 0.100000000000D+01
-.148565504345D-06 0.876642323803D-07 -.335349566130D-08 0.149103188312D-06 0.000000000000D+00  6 21 2 25 24 1 21 4 0.20908576D-01 0.43861796D-01 0.31664631D+05 0.31664631D+05 0.31664631D+05 0.12124446D+01  1  2  3  1  6  1       21 -.977521452122D-03 0.100000000000D+01
0.198372316413D-06 0.000000000000D+00 0.000000000000D+00 0.149103188312D-06 0.000000000000D+00  6 21 2 25 24 1 21 4 0.20908576D-01 0.43861796D-01 0.31664631D+05 0.31664631D+05 0.31664631D+05 0.12124446D+01  1  2 15  1  6  1       21 0.130523701081D-02 0.100000000000D+01
0.217486450992D-04 0.000000000000D+00 0.000000000000D+00 0.148377223834D-06 0.000000000000D+00  6 21 2 25 24 1 21 4 0.24065541D-01 0.43861796D-01 0.33807677D+05 0.33807677D+05 0.33807677D+05 0.12094894D+01  1  2 12  1  6  1       21 0.108654926216D+00 0.100000000000D+01
0.203912463242D-04 0.000000000000D+00 0.000000000000D+00 0.148377223834D-06 0.000000000000D+00  6 21 2 25 24 1 21 4 0.24264179D-01 0.43861796D-01 0.33807677D+05 0.33807677D+05 0.33807677D+05 0.12094894D+01  1  2 12  1  6  1       21 0.100294479235D+00 0.100000000000D+01
-.338457942125D-04 0.000000000000D+00 0.000000000000D+00 0.149103188312D-06 0.000000000000D+00  6 21 2 25 24 1 21 4 0.20908576D-01 0.43861796D-01 0.31664631D+05 0.31664631D+05 0.31664631D+05 0.12124446D+01  1  2  4  1  6  1       21 -.222696311992D+00 0.100000000000D+01
-.546067464671D-04 0.000000000000D+00 -.405312678470D-05 0.149103188312D-06 0.000000000000D+00  6 21 2 25 24 1 21 4 0.24115611D-01 0.43861796D-01 0.31664631D+05 0.31664631D+05 0.31664631D+05 0.12124446D+01  1  2  5  1  6  1       21 -.274557372278D+00 0.100000000000D+01
0.531892147897D-04 0.000000000000D+00 0.389270158973D-05 0.149103188312D-06 0.000000000000D+00  6 21 2 25 24 1 21 4 0.20908576D-01 0.43861796D-01 0.31664631D+05 0.31664631D+05 0.31664631D+05 0.12124446D+01  1  2  6  1  6  1       21 0.349970867784D+00 0.100000000000D+01
0.821397008365D-06 0.000000000000D+00 0.000000000000D+00 0.148377223834D-06 0.000000000000D+00  6 -1 2 25 24 1 -1 4 0.24065541D-01 0.43861796D-01 0.33807677D+05 0.33807677D+05 0.33807677D+05 0.12094894D+01  1  2 12  4  6  1       21 0.339552644825D-03 0.100000000000D+01
0.823036400164D-06 0.000000000000D+00 0.000000000000D+00 0.148377223834D-06 0.000000000000D+00  6 -1 2 25 24 1 -1 4 0.24264179D-01 0.43861796D-01 0.33807677D+05 0.33807677D+05 0.33807677D+05 0.12094894D+01  1  2 12  4  6  1       21 0.335650017115D-03 0.100000000000D+01
-.190360590824D-05 0.000000000000D+00 -.155741754272D-06 0.149103188312D-06 0.000000000000D+00  6 -1 2 25 24 1 -1 4 0.24115611D-01 0.43861796D-01 0.31664631D+05 0.31664631D+05 0.31664631D+05 0.12124446D+01  1  2  5  4  6  1       21 -.791234594242D-03 0.100000000000D+01
0.821397008365D-06 0.000000000000D+00 0.000000000000D+00 0.148377223834D-06 0.000000000000D+00  6 1 2 25 24 1 1 4 0.24065541D-01 0.43861796D-01 0.33807677D+05 0.33807677D+05 0.33807677D+05 0.12094894D+01  1  2 12  5  6  1       21 0.545438933758D-03 0.100000000000D+01
0.823036400164D-06 0.000000000000D+00 0.000000000000D+00 0.148377223834D-06 0.000000000000D+00  6 1 2 25 24 1 1 4 0.24264179D-01 0.43861796D-01 0.33807677D+05 0.33807677D+05 0.33807677D+05 0.12094894D+01  1  2 12  5  6  1       21 0.540858757772D-03 0.100000000000D+01
-.190360590824D-05 0.000000000000D+00 -.155741754272D-06 0.149103188312D-06 0.000000000000D+00  6 1 2 25 24 1 1 4 0.24115611D-01 0.43861796D-01 0.31664631D+05 0.31664631D+05 0.31664631D+05 0.12124446D+01  1  2  5  5  6  1       21 -.127202002722D-02 0.100000000000D+01
0.821397008365D-06 0.000000000000D+00 0.000000000000D+00 0.148377223834D-06 0.000000000000D+00  6 -2 2 25 24 1 -2 4 0.24065541D-01 0.43861796D-01 0.33807677D+05 0.33807677D+05 0.33807677D+05 0.12094894D+01  1  2 12  6  6  1       21 0.305405737532D-03 0.100000000000D+01
0.823036400164D-06 0.000000000000D+00 0.000000000000D+00 0.148377223834D-06 0.000000000000D+00  6 -2 2 25 24 1 -2 4 0.24264179D-01 0.43861796D-01 0.33807677D+05 0.33807677D+05 0.33807677D+05 0.12094894D+01  1  2 12  6  6  1       21 0.301647491174D-03 0.100000000000D+01
-.190360590824D-05 0.000000000000D+00 -.155741754272D-06 0.149103188312D-06 0.000000000000D+00  6 -2 2 25 24 1 -2 4 0.24115611D-01 0.43861796D-01 0.31664631D+05 0.31664631D+05 0.31664631D+05 0.12124446D+01  1  2  5  6  6  1       21 -.711461079230D-03 0.100000000000D+01
0.821397008365D-06 0.000000000000D+00 0.000000000000D+00 0.148377223834D-06 0.000000000000D+00  6 2 2 25 24 1 2 4 0.24065541D-01 0.43861796D-01 0.33807677D+05 0.33807677D+05 0.33807677D+05 0.12094894D+01  1  2 12  7  6  1       21 0.692768492349D-03 0.100000000000D+01
0.823036400164D-06 0.000000000000D+00 0.000000000000D+00 0.148377223834D-06 0.000000000000D+00  6 2 2 25 24 1 2 4 0.24264179D-01 0.43861796D-01 0.33807677D+05 0.33807677D+05 0.33807677D+05 0.12094894D+01  1  2 12  7  6  1       21 0.687807858820D-03 0.100000000000D+01
-.190360590824D-05 0.000000000000D+00 -.155741754272D-06 0.149103188312D-06 0.000000000000D+00  6 2 2 25 24 1 2 4 0.24115611D-01 0.43861796D-01 0.31664631D+05 0.31664631D+05 0.31664631D+05 0.12124446D+01  1  2  5  7  6  1       21 -.161594410817D-02 0.100000000000D+01
0.821397008365D-06 0.000000000000D+00 0.000000000000D+00 0.148377223834D-06 0.000000000000D+00  6 -3 2 25 24 1 -3 4 0.24065541D-01 0.43861796D-01 0.33807677D+05 0.33807677D+05 0.33807677D+05 0.12094894D+01  1  2 12  8  6  1       21 0.199154344101D-03 0.100000000000D+01
0.821397008365D-06 0.000000000000D+00 0.000000000000D+00 0.148377223834D-06 0.000000000000D+00  6 -4 2 25 24 1 -4 4 0.24065541D-01 0.43861796D-01 0.33807677D+05 0.33807677D+05 0.33807677D+05 0.12094894D+01  1  2 12  8  6  1       21 0.169484806141D-03 0.100000000000D+01
0.823036400164D-06 0.000000000000D+00 0.000000000000D+00 0.148377223834D-06 0.000000000000D+00  6 -3 2 25 24 1 -3 4 0.24264179D-01 0.43861796D-01 0.33807677D+05 0.33807677D+05 0.33807677D+05 0.12094894D+01  1  2 12  8  6  1       21 0.196603223224D-03 0.100000000000D+01
0.823036400164D-06 0.000000000000D+00 0.000000000000D+00 0.148377223834D-06 0.000000000000D+00  6 -4 2 25 24 1 -4 4 0.24264179D-01 0.43861796D-01 0.33807677D+05 0.33807677D+05 0.33807677D+05 0.12094894D+01  1  2 12  8  6  1       21 0.167260070244D-03 0.100000000000D+01
-.190360590824D-05 0.000000000000D+00 -.155741754272D-06 0.149103188312D-06 0.000000000000D+00  6 -3 2 25 24 1 -3 4 0.24115611D-01 0.43861796D-01 0.31664631D+05 0.31664631D+05 0.31664631D+05 0.12124446D+01  1  2  5  8  6  1       21 -.463239519440D-03 0.100000000000D+01
-.190360590824D-05 0.000000000000D+00 -.155741754272D-06 0.149103188312D-06 0.000000000000D+00  6 -4 2 25 24 1 -4 4 0.24115611D-01 0.43861796D-01 0.31664631D+05 0.31664631D+05 0.31664631D+05 0.12124446D+01  1  2  5  8  6  1       21 -.393934911720D-03 0.100000000000D+01
0.821397008365D-06 0.000000000000D+00 0.000000000000D+00 0.148377223834D-06 0.000000000000D+00  6 3 2 25 24 1 3 4 0.24065541D-01 0.43861796D-01 0.33807677D+05 0.33807677D+05 0.33807677D+05 0.12094894D+01  1  2 12  9  6  1       21 0.199145135798D-03 0.100000000000D+01
0.821397008365D-06 0.000000000000D+00 0.000000000000D+00 0.148377223834D-06 0.000000000000D+00  6 4 2 25 24 1 4 4 0.24065541D-01 0.43861796D-01 0.33807677D+05 0.33807677D+05 0.33807677D+05 0.12094894D+01  1  2 12  9  6  1       21 0.169484806141D-03 0.100000000000D+01
0.823036400164D-06 0.000000000000D+00 0.000000000000D+00 0.148377223834D-06 0.000000000000D+00  6 3 2 25 24 1 3 4 0.24264179D-01 0.43861796D-01 0.33807677D+05 0.33807677D+05 0.33807677D+05 0.12094894D+01  1  2 12  9  6  1       21 0.196594560721D-03 0.100000000000D+01
0.823036400164D-06 0.000000000000D+00 0.000000000000D+00 0.148377223834D-06 0.000000000000D+00  6 4 2 25 24 1 4 4 0.24264179D-01 0.43861796D-01 0.33807677D+05 0.33807677D+05 0.33807677D+05 0.12094894D+01  1  2 12  9  6  1       21 0.167260070244D-03 0.100000000000D+01
-.190360590824D-05 0.000000000000D+00 -.155741754272D-06 0.149103188312D-06 0.000000000000D+00  6 3 2 25 24 1 3 4 0.24115611D-01 0.43861796D-01 0.31664631D+05 0.31664631D+05 0.31664631D+05 0.12124446D+01  1  2  5  9  6  1       21 -.463217839045D-03 0.100000000000D+01
-.190360590824D-05 0.000000000000D+00 -.155741754272D-06 0.149103188312D-06 0.000000000000D+00  6 4 2 25 24 1 4 4 0.24115611D-01 0.43861796D-01 0.31664631D+05 0.31664631D+05 0.31664631D+05 0.12124446D+01  1  2  5  9  6  1       21 -.393934911720D-03 0.100000000000D+01
  </mgrwgt>
  </event>
  <event>
  5     66 0.46027262E-03 0.22236892E+02 0.75467711E-02 0.11423930E+00
       21 -1    0    0  501  502 0.00000000E+00 0.00000000E+00 0.16738278E+02 0.16755072E+02 0.75000000E+00 0.0000E+00 0.9000E+01
        2 -1    0    0  502    0 0.00000000E+00 0.00000000E+00 -.13187268E+04 0.13187268E+04 0.32000000E+00 0.0000E+00 0.9000E+01
       25  1    1    2    0    0 -.63541373E+02 0.58964350E+01 -.62768162E+03 0.64318076E+03 0.12500000E+03 0.0000E+00 0.9000E+01
       24  1    1    2    0    0 0.85569430E+02 -.28615111E+01 -.64447710E+03 0.65509409E+03 0.80419002E+02 0.0000E+00 0.9000E+01
        1  1    1    2  501    0 -.22028057E+02 -.30349240E+01 -.29829801E+02 0.37207062E+02 0.32000000E+00 0.0000E+00 0.9000E+01
#aMCatNLO 1  0  0  1  2 0.74940175D+01 0.00000000D+00  -5  6  0 0.00000000D+00 0.00000000D+00 0.00000000D+00 0.00000000D+00 0.00000000D+00
  <mgrwgt>
 0.5808464336D+00    3    2    0
 0.148608397825987D+03 0.000000000000000D+00 0.000000000000000D+00 0.148608397825987D+03
 0.148608397825987D+03 0.000000000000000D+00 0.000000000000000D+00 -.148608397825987D+03
 0.140375499338680D+03 -.635409738483682D+02 0.589649009702514D+01 -.283846111836701D+01
 0.120331755418620D+03 0.855697727883523D+02 -.286146385534091D+01 -.261178371483995D+02
 0.365095408946744D+02 -.220287989399841D+02 -.303502624168422D+01 0.289562982667665D+02
 0.000000000000000D+00 0.000000000000000D+00 0.000000000000000D+00 -.000000000000000D+00
 0.185860640795569D+03 0.000000000000000D+00 0.000000000000000D+00 0.185860640795569D+03
 0.279798963285084D+03 0.000000000000000D+00 0.000000000000000D+00 -.279798963285084D+03
 0.158933814871888D+03 -.878153151450909D+02 -.437649525782842D+02 -.283846111836701D+01
 0.115443236624380D+03 0.664481405692579D+02 -.419812830380396D+02 -.261178371483995D+02
 0.438299386109358D+02 -.285444262610512D+02 -.163649637565094D+02 0.289562982667665D+02
 0.147452613973449D+03 0.499116008368842D+02 0.102111199372833D+03 -.939383224895141D+02
0.164336033155D-04 0.000000000000D+00 0.000000000000D+00 0.155823727369D-05 0.000000000000D+00  6 21 2 25 24 1 21 2 0.25764145D-02 0.20288234D+00 0.19606557D+05 0.19606557D+05 0.19606557D+05 0.12347771D+01  1  2  2  1  6  1       21 0.446429102869D+00 0.100000000000D+01
0.162099307908D-05 0.867225072621D-06 -.331747103630D-07 0.155823727369D-05 0.000000000000D+00  6 21 2 25 24 1 21 4 0.25764145D-02 0.20288234D+00 0.19606557D+05 0.19606557D+05 0.19606557D+05 0.12347771D+01  1  2  3  1  6  1       21 0.671394848533D-01 0.100000000000D+01
0.162433362167D-05 0.000000000000D+00 0.000000000000D+00 0.155823727369D-05 0.000000000000D+00  6 21 2 25 24 1 21 4 0.25764145D-02 0.20288234D+00 0.19606557D+05 0.19606557D+05 0.19606557D+05 0.12347771D+01  1  2 15  1  6  1       21 0.672778459060D-01 0.100000000000D+01
  </mgrwgt>
  </event>
  <event>
  5     66 0.46027262E-03 0.13486101E+03 0.75467711E-02 0.11184748E+00
       21 -1    0    0  501  502 0.00000000E+00 0.00000000E+00 0.17537305E+02 0.17553335E+02 0.75000000E+00 0.0000E+00 0.9000E+01
        2 -1    0    0  502    0 0.00000000E+00 0.00000000E+00 -.21984429E+04 0.21984430E+04 0.32000000E+00 0.0000E+00 0.9000E+01
       25  1    1    2    0    0 0.87734473E+02 -.77157604E+01 -.10360936E+04 0.10473165E+04 0.12500000E+03 0.0000E+00 0.9000E+01
       24  1    1    2    0    0 0.44737293E+02 0.32987495E+02 -.56459177E+03 0.57299275E+03 0.80419002E+02 0.0000E+00 0.9000E+01
        1  1    1    2  501    0 -.13247177E+03 -.25271735E+02 -.58022028E+03 0.59568709E+03 0.32000000E+00 0.0000E+00 0.9000E+01
#aMCatNLO 1  0  0  2  1 0.88501687D+02 0.00000000D+00  -5  6  0 0.00000000D+00 0.00000000D+00 0.00000000D+00 0.00000000D+00 0.00000000D+00
  <mgrwgt>
 0.2968212257D-01    4    2    0
 0.196398960242107D+03 0.000000000000000D+00 0.000000000000000D+00 0.196398960242107D+03
 0.196398960242107D+03 0.000000000000000D+00 0.000000000000000D+00 -.196398960242107D+03
 0.155874336290799D+03 0.877346122137474D+02 -.771573387287375D+01 -.302475451004434D+02
 0.978326002044753D+02 0.447373798632785D+02 0.329875119577352D+02 -.379375884910614D+01
 0.139090983988941D+03 -.132471992077026D+03 -.252717780848614D+02 0.340413039495495D+02
 0.000000000000000D+00 0.000000000000000D+00 -.000000000000000D+00 0.000000000000000D+00
 0.320928129934120D+03 0.000000000000000D+00 0.000000000000000D+00 0.320928129934120D+03
 0.217693943359679D+03 0.000000000000000D+00 0.000000000000000D+00 -.217693943359679D+03
 0.153792022663503D+03 0.802523824958992D+02 0.259157742323071D+02 -.302475451004434D+02
 0.105351159859387D+03 0.398280071665874D+02 0.550544109793281D+02 -.379375884910614D+01
 0.143501518097979D+03 -.139300057044418D+03 0.541935690472295D+01 0.340413039495495D+02
 0.135977372672929D+03 0.192196673819317D+02 -.863895421163581D+02 0.103234186574442D+03
0.651810315187D-05 0.000000000000D+00 0.000000000000D+00 0.306557861804D-06 0.000000000000D+00  6 21 2 25 24 1 21 2 0.26992818D-02 0.33822323D+00 0.37158619D+05 0.37158619D+05 0.37158619D+05 0.12052635D+01  1  2  2  2  6  2        2 0.541436678903D-01 0.100000000000D+01
-.525212203330D-06 0.343969753360D-06 -.131581723149D-07 0.306557861804D-06 0.000000000000D+00  6 21 2 25 24 1 21 4 0.26992818D-02 0.33822323D+00 0.37158619D+05 0.37158619D+05 0.37158619D+05 0.12052635D+01  1  2  3  2  6  2        2 -.633760657207D-02 0.100000000000D+01
0.714882615759D-06 0.000000000000D+00 0.000000000000D+00 0.306557861804D-06 0.000000000000D+00  6 21 2 25 24 1 21 4 0.26992818D-02 0.33822323D+00 0.37158619D+05 0.37158619D+05 0.37158619D+05 0.12052635D+01  1  2 15  2  6  2        2 0.862631282208D-02 0.100000000000D+01
-.221685559198D-05 0.000000000000D+00 0.000000000000D+00 0.306557861804D-06 0.000000000000D+00  6 21 2 25 24 1 21 4 0.26992818D-02 0.33822323D+00 0.37158619D+05 0.37158619D+05 0.37158619D+05 0.12052635D+01  1  2  4  2  6  2        2 -.267502515746D-01 0.100000000000D+01
  </mgrwgt>
  </event>
  <event>
  5     66 0.46027262E-03 0.71653868E+02 0.75467711E-02 0.11752357E+00
       21 -1    0    0  501  502 0.00000000E+00 0.00000000E+00 0.17164623E+02 0.17181000E+02 0.75000000E+00 0.0000E+00 0.9000E+01
        2 -1    0    0  502    0 0.00000000E+00 0.00000000E+00 -.13851869E+04 0.13851869E+04 0.32000000E+00 0.0000E+00 0.9000E+01
       25  1    1    2    0    0 0.12708746E+02 -.12270279E+02 -.60924083E+03 0.62218282E+03 0.12500000E+03 0.0000E+00 0.9000E+01
       24  1    1    2    0    0 0.57020671E+02 0.28763290E+02 -.54850176E+03 0.55803233E+03 0.80419002E+02 0.0000E+00 0.9000E+01
        1  1    1    2  501    0 -.69729417E+02 -.16493011E+02 -.21027964E+03 0.22215274E+03 0.32000000E+00 0.0000E+00 0.9000E+01
#aMCatNLO 1  0  0  1  1 0.42116322D+02 0.00000000D+00  -5  6  0 0.00000000D+00 0.00000000D+00 0.00000000D+00 0.00000000D+00 0.00000000D+00
  <mgrwgt>
 0.7184419363D-01    4    2    0
 0.154232678715544D+03 0.000000000000000D+00 0.000000000000000D+00 0.154232678715544D+03
 0.154232678715544D+03 0.000000000000000D+00 0.000000000000000D+00 -.154232678715544D+03
 0.126672951696649D+03 0.127089905915559D+02 -.122702213197630D+02 -.104383867742793D+02
 0.104400903047043D+03 0.570208728225359D+02 0.287633379724088D+02 -.188048678248151D+02
 0.773915026873955D+02 -.697298634140918D+02 -.164931166526458D+02 0.292432545990944D+02
 0.000000000000000D+00 -.000000000000000D+00 -.000000000000000D+00 -.000000000000000D+00
 0.168660103828326D+03 0.000000000000000D+00 0.000000000000000D+00 0.168660103828326D+03
 0.189784122821089D+03 0.000000000000000D+00 0.000000000000000D+00 -.189784122821089D+03
 0.127740378716456D+03 0.241488384957117D+02 0.691401100772344D+00 -.104383867742793D+02
 0.113465677715330D+03 0.668173742215508D+02 0.398630093351853D+02 -.188048678248151D+02
 0.701212011742809D+02 -.630968662619056D+02 -.897777157783127D+01 0.292432545990944D+02
 0.471169690433482D+02 -.278693464553568D+02 -.315766388581264D+02 -.211240189927623D+02
0.315077434681D-05 0.000000000000D+00 0.000000000000D+00 0.410447870639D-06 0.000000000000D+00  6 21 2 25 24 1 21 2 0.26419738D-02 0.21310693D+00 0.22588491D+05 0.22588491D+05 0.22588491D+05 0.12280490D+01  1  2  2  1  6  1       21 0.749259346516D-01 0.100000000000D+01
-.152105374809D-06 0.166270930317D-06 -.636050562789D-08 0.410447870639D-06 0.000000000000D+00  6 21 2 25 24 1 21 4 0.26419738D-02 0.21310693D+00 0.22588491D+05 0.22588491D+05 0.22588491D+05 0.12280490D+01  1  2  3  1  6  1       21 -.545495078836D-02 0.100000000000D+01
0.319344199992D-06 0.000000000000D+00 0.000000000000D+00 0.410447870639D-06 0.000000000000D+00  6 21 2 25 24 1 21 4 0.26419738D-02 0.21310693D+00 0.22588491D+05 0.22588491D+05 0.22588491D+05 0.12280490D+01  1  2 15  1  6  1       21 0.114526320828D-01 0.100000000000D+01
-.253169824577D-06 0.000000000000D+00 0.000000000000D+00 0.410447870639D-06 0.000000000000D+00  6 21 2 25 24 1 21 4 0.26419738D-02 0.21310693D+00 0.22588491D+05 0.22588491D+05 0.22588491D+05 0.12280490D+01  1  2  4  1  6  1       21 -.907942231430D-02 0.100000000000D+01
  </mgrwgt>
  </event>
  <event>
  6     66 0.46027262E-03 0.16878741E+02 0.75467711E-02 0.12378686E+00
       21 -1    0    0  501  502 0.00000000E+00 0.00000000E+00 0.21236361E+03 0.21236494E+03 0.75000000E+00 0.0000E+00 0.9000E+01
        2 -1    0    0  502    0 -.00000000E+00 -.00000000E+00 -.35912404E+03 0.35912418E+03 0.32000000E+00 0.0000E+00 0.9000E+01
       25  1    1    2    0    0 -.12096826E+02 0.48104493E+02 -.17736408E+03 0.22258345E+03 0.12500000E+03 0.0000E+00 0.9000E+01
       24  1    1    2    0    0 0.72999193E+01 -.23504461E+02 -.14687442E+03 0.16924852E+03 0.80419002E+02 0.0000E+00 0.9000E+01
        1  1    1    2  503    0 0.88672324E+01 -.18511115E+02 0.13230261E+03 0.13388567E+03 0.32000000E+00 0.0000E+00 0.9000E+01
       21  1    1    2  501  503 -.40703259E+01 -.60889168E+01 0.45175473E+02 0.45771480E+02 0.75000000E+00 0.0000E+00 0.9000E+01
#aMCatNLO 2  0  0  5  1 0.53096055D+01 0.00000000D+00  -5  6  0 0.00000000D+00 0.00000000D+00 0.00000000D+00 0.00000000D+00 0.00000000D+00
  <mgrwgt>
 0.9508155809D+00    2    2    0
 0.276161723840815D+03 0.000000000000000D+00 0.000000000000000D+00 0.276161723840815D+03
 0.276161723840815D+03 -.000000000000000D+00 -.000000000000000D+00 -.276161723840815D+03
 0.183254169519055D+03 -.120990291621781D+02 0.481157919364929D+02 -.124481222301902D+03
 0.136155321791080D+03 0.729828238040570D+01 -.234960663792946D+02 -.107078128656872D+03
 0.232913956371496D+03 0.480074678177241D+01 -.246197255571984D+02 0.231559350958774D+03
 0.000000000000000D+00 0.000000000000000D+00 0.000000000000000D+00 0.000000000000000D+00
 0.276161723840815D+03 0.000000000000000D+00 0.000000000000000D+00 0.276161723840815D+03
 0.276161723840815D+03 -.000000000000000D+00 -.000000000000000D+00 -.276161723840815D+03
 0.183179522277617D+03 -.120968445751302D+02 0.481045886933269D+02 -.124375850870766D+03
 0.136095285681090D+03 0.729990547119722D+01 -.235043900946785D+02 -.106999840451449D+03
 0.173772699993236D+03 0.888571535356751D+01 -.185207411356924D+02 0.172554273993371D+03
 0.592759397296878D+02 -.408877624963449D+01 -.607945746295621D+01 0.588214173288447D+02
-.462809542379D-03 0.000000000000D+00 0.000000000000D+00 0.295398341893D-04 0.000000000000D+00  6 21 2 25 24 1 21 4 0.32671438D-01 0.55249965D-01 0.15184565D+05 0.15184565D+05 0.15184565D+05 0.12472175D+01  1  2 13  3  6  5        1 -.114664112436D+01 0.100000000000D+01
0.846579594328D-03 0.000000000000D+00 0.000000000000D+00 0.295931272419D-04 0.872637313298D-05  6 21 2 25 24 1 21 4 0.32671438D-01 0.55249965D-01 0.15184565D+05 0.15184565D+05 0.15184565D+05 0.12472175D+01  1  2  1  3  6  5        1 0.209745670522D+01 0.100000000000D+01
  </mgrwgt>
  </event>
  <event>
  5     66 0.46027262E-03 0.10836599E+03 0.75467711E-02 0.11496532E+00
       21 -1    0    0  501  502 0.00000000E+00 0.00000000E+00 0.23656727E+02 0.23668613E+02 0.75000000E+00 0.0000E+00 0.9000E+01
        2 -1    0    0  502    0 0.00000000E+00 0.00000000E+00 -.23249083E+04 0.23249083E+04 0.32000000E+00 0.0000E+00 0.9000E+01
       25  1    1    2    0    0 0.58957292E+02 0.67949096E+02 -.31534840E+03 0.35094538E+03 0.12500000E+03 0.0000E+00 0.9000E+01
       24  1    1    2    0    0 -.58975432E+02 0.40416665E+02 -.94893771E+03 0.95501916E+03 0.80419002E+02 0.0000E+00 0.9000E+01
        1  1    1    2  501    0 0.18139691E-01 -.10836576E+03 -.10369654E+04 0.10426124E+04 0.32000000E+00 0.0000E+00 0.9000E+01
#aMCatNLO 1  0  0  1  2 0.29010362D+02 0.00000000D+00  -5  6  0 0.00000000D+00 0.00000000D+00 0.00000000D+00 0.00000000D+00 0.00000000D+00
  <mgrwgt>
 0.5580857602D-01    4    2    0
 0.234550001038740D+03 0.000000000000000D+00 0.000000000000000D+00 0.234550001038740D+03
 0.234550001038740D+03 0.000000000000000D+00 0.000000000000000D+00 -.234550001038740D+03
 0.210032528849770D+03 0.589572923775697D+02 0.679492362676876D+02 0.142813172155699D+03
 0.126181151520556D+03 -.589754321058641D+02 0.404167496455428D+02 -.659003171517331D+02
 0.132886321707154D+03 0.181397282944454D-01 -.108365985913230D+03 -.769128550039654D+02
 0.000000000000000D+00 0.000000000000000D+00 -.000000000000000D+00 -.000000000000000D+00
 0.240513554551680D+03 0.000000000000000D+00 0.000000000000000D+00 0.240513554551680D+03
 0.273145442409601D+03 0.000000000000000D+00 0.000000000000000D+00 -.273145442409601D+03
 0.213397831520293D+03 0.551635023305397D+02 0.804675112515528D+02 0.142813172155699D+03
 0.129872060589179D+03 -.612695806094409D+02 0.479866945991599D+02 -.659003171517331D+02
 0.126726291992784D+03 -.230789978639100D+01 -.100690810980721D+03 -.769128550039654D+02
 0.436628128590248D+02 0.841397806529222D+01 -.277633948699919D+02 -.326318878579208D+02
0.130989925472D-04 0.000000000000D+00 0.000000000000D+00 0.639045470996D-07 0.000000000000D+00  6 21 2 25 24 1 21 2 0.36404124D-02 0.35767911D+00 0.34220867D+05 0.34220867D+05 0.34220867D+05 0.12089436D+01  1  2  2  1  6  1       21 0.573117036502D-01 0.100000000000D+01
-.148923864448D-05 0.691252827814D-06 -.264430919657D-07 0.639045470996D-07 0.000000000000D+00  6 21 2 25 24 1 21 4 0.36404124D-02 0.35767911D+00 0.34220867D+05 0.34220867D+05 0.34220867D+05 0.12089436D+01  1  2  3  1  6  1       21 -.952317616849D-02 0.100000000000D+01
0.156768438496D-05 0.000000000000D+00 0.000000000000D+00 0.639045470996D-07 0.000000000000D+00  6 21 2 25 24 1 21 4 0.36404124D-02 0.35767911D+00 0.34220867D+05 0.34220867D+05 0.34220867D+05 0.12089436D+01  1  2 15  1  6  1       21 0.100248100799D-01 0.100000000000D+01
-.313505526547D-06 0.000000000000D+00 0.000000000000D+00 0.639045470996D-07 0.000000000000D+00  6 21 2 25 24 1 21 4 0.36404124D-02 0.35767911D+00 0.34220867D+05 0.34220867D+05 0.34220867D+05 0.12089436D+01  1  2  4  1  6  1       21 -.200476154051D-02 0.100000000000D+01
  </mgrwgt>
  </event>
  <event>
  5     66 0.46027262E-03 0.96340899E+02 0.75467711E-02 0.11351928E+00
       21 -1    0    0  501  502 0.00000000E+00 0.00000000E+00 0.62037867E+03 0.62037912E+03 0.75000000E+00 0.0000E+00 0.9000E+01
        4 -1    0    0  502    0 0.00000000E+00 0.00000000E+00 -.26447285E+03 0.26447739E+03 0.15500000E+01 0.0000E+00 0.9000E+01
       25  1    1    2    0    0 0.14363250E+02 -.14183556E+03 0.32959113E+01 0.18962989E+03 0.12500000E+03 0.0000E+00 0.9000E+01
       24  1    1    2    0    0 -.44632792E+02 0.49896677E+02 -.15027206E+03 0.18311382E+03 0.80419002E+02 0.0000E+00 0.9000E+01
        3  1    1    2  501    0 0.30269542E+02 0.91938887E+02 0.50288197E+03 0.51211281E+03 0.50000000E+00 0.0000E+00 0.9000E+01
#aMCatNLO 1  0  0  1  5 0.34328792D+02 0.00000000D+00  -5  6  0 0.00000000D+00 0.00000000D+00 0.00000000D+00 0.00000000D+00 0.00000000D+00
  <mgrwgt>
 0.4222442941D-01   32    2    0
 0.405062371365937D+03 0.000000000000000D+00 0.000000000000000D+00 0.405062371365937D+03
 0.405062371365937D+03 0.000000000000000D+00 0.000000000000000D+00 -.405062371365937D+03
 0.205674803338735D+03 0.143632420548058D+02 -.141835589892105D+03 -.797087664316847D+02
 0.266023527963146D+03 -.446328030219738D+02 0.498966444615204D+02 -.244580332899991D+03
 0.338426411429993D+03 0.302695609671679D+02 0.919389454305845D+02 0.324289099331676D+03
 0.000000000000000D+00 -.000000000000000D+00 -.000000000000000D+00 0.000000000000000D+00
 0.594495275729794D+03 0.000000000000000D+00 0.000000000000000D+00 0.594495275729794D+03
 0.406984121582280D+03 0.000000000000000D+00 0.000000000000000D+00 -.406984121582280D+03
 0.201414288344282D+03 0.195324994438393D+02 -.134935946169466D+03 -.797087664316847D+02
 0.266820375299444D+03 -.378666986472431D+02 0.589276727238913D+02 -.244580332899991D+03
 0.342617089001523D+03 0.389175184260725D+02 0.103481768877830D+03 0.324289099331676D+03
 0.190627644666825D+03 -.205833192226687D+02 -.274734954322550D+02 0.187511154147514D+03
0.747280206984D-04 0.000000000000D+00 0.000000000000D+00 0.117777812459D-05 0.000000000000D+00  6 21 4 25 24 3 21 2 0.95443256D-01 0.40688515D-01 0.38226565D+05 0.38226565D+05 0.38226565D+05 0.12040054D+01  1  2  2  1  6  1       21 0.245272055016D-02 0.100000000000D+01
0.466123545131D-05 0.394350599397D-05 -.150854343693D-06 0.117777812459D-05 0.000000000000D+00  6 21 4 25 24 3 21 4 0.95443256D-01 0.40688515D-01 0.38226565D+05 0.38226565D+05 0.38226565D+05 0.12040054D+01  1  2  3  1  6  1       21 0.221780063167D-03 0.100000000000D+01
0.740238426086D-05 0.000000000000D+00 0.000000000000D+00 0.117777812459D-05 0.000000000000D+00  6 21 4 25 24 3 21 4 0.95443256D-01 0.40688515D-01 0.38226565D+05 0.38226565D+05 0.38226565D+05 0.12040054D+01  1  2 15  1  6  1       21 0.352203029885D-03 0.100000000000D+01
0.179976361395D-02 0.000000000000D+00 0.000000000000D+00 0.115900709637D-05 0.000000000000D+00  6 21 4 25 24 3 21 4 0.14022191D+00 0.40688515D-01 0.47634052D+05 0.47634052D+05 0.47634052D+05 0.11943724D+01  1  2 12  1  6  1       21 0.319829473809D-01 0.100000000000D+01
0.142996953313D-02 0.000000000000D+00 0.000000000000D+00 0.115900709637D-05 0.000000000000D+00  6 21 4 25 24 3 21 4 0.15398573D+00 0.40688515D-01 0.47634052D+05 0.47634052D+05 0.47634052D+05 0.11943724D+01  1  2 12  1  6  1       21 0.198639075129D-01 0.100000000000D+01
-.168988212405D-02 0.000000000000D+00 0.000000000000D+00 0.117777812459D-05 0.000000000000D+00  6 21 4 25 24 3 21 4 0.95443256D-01 0.40688515D-01 0.38226565D+05 0.38226565D+05 0.38226565D+05 0.12040054D+01  1  2  4  1  6  1       21 -.804040405450D-01 0.100000000000D+01
-.358347582720D-02 0.000000000000D+00 -.890237402979D-04 0.117777812459D-05 0.000000000000D+00  6 21 4 25 24 3 21 4 0.14032042D+00 0.40688515D-01 0.38226565D+05 0.38226565D+05 0.38226565D+05 0.12040054D+01  1  2  5  1  6  1       21 -.661603375785D-01 0.100000000000D+01
0.283627279192D-02 0.000000000000D+00 0.672704913836D-04 0.117777812459D-05 0.000000000000D+00  6 21 4 25 24 3 21 4 0.95443256D-01 0.40688515D-01 0.38226565D+05 0.38226565D+05 0.38226565D+05 0.12040054D+01  1  2  6  1  6  1       21 0.134948934788D+00 0.100000000000D+01
0.210371654843D-03 0.000000000000D+00 0.000000000000D+00 0.115900709637D-05 0.000000000000D+00  6 -3 4 25 24 3 -3 4 0.14022191D+00 0.40688515D-01 0.47634052D+05 0.47634052D+05 0.47634052D+05 0.11943724D+01  1  2 12  4  6  1       21 0.213415823407D-03 0.100000000000D+01
0.216154605648D-03 0.000000000000D+00 0.000000000000D+00 0.115900709637D-05 0.000000000000D+00  6 -3 4 25 24 3 -3 4 0.15398573D+00 0.40688515D-01 0.47634052D+05 0.47634052D+05 0.47634052D+05 0.11943724D+01  1  2 12  4  6  1       21 0.173360177368D-03 0.100000000000D+01
-.410808305901D-03 0.000000000000D+00 -.113909910121D-04 0.117777812459D-05 0.000000000000D+00  6 -3 4 25 24 3 -3 4 0.14032042D+00 0.40688515D-01 0.38226565D+05 0.38226565D+05 0.38226565D+05 0.12040054D+01  1  2  5  4  6  1       21 -.427431580161D-03 0.100000000000D+01
0.210371654843D-03 0.000000000000D+00 0.000000000000D+00 0.115900709637D-05 0.000000000000D+00  6 3 4 25 24 3 3 4 0.14022191D+00 0.40688515D-01 0.47634052D+05 0.47634052D+05 0.47634052D+05 0.11943724D+01  1  2 12  5  6  1       21 0.214165311808D-03 0.100000000000D+01
0.216154605648D-03 0.000000000000D+00 0.000000000000D+00 0.115900709637D-05 0.000000000000D+00  6 3 4 25 24 3 3 4 0.15398573D+00 0.40688515D-01 0.47634052D+05 0.47634052D+05 0.47634052D+05 0.11943724D+01  1  2 12  5  6  1       21 0.174070170044D-03 0.100000000000D+01
-.410808305901D-03 0.000000000000D+00 -.113909910121D-04 0.117777812459D-05 0.000000000000D+00  6 3 4 25 24 3 3 4 0.14032042D+00 0.40688515D-01 0.38226565D+05 0.38226565D+05 0.38226565D+05 0.12040054D+01  1  2  5  5  6  1       21 -.428932524646D-03 0.100000000000D+01
0.210371654843D-03 0.000000000000D+00 0.000000000000D+00 0.115900709637D-05 0.000000000000D+00  6 -4 4 25 24 3 -4 4 0.14022191D+00 0.40688515D-01 0.47634052D+05 0.47634052D+05 0.47634052D+05 0.11943724D+01  1  2 12  6  6  1       21 0.169193383903D-03 0.100000000000D+01
0.216154605648D-03 0.000000000000D+00 0.000000000000D+00 0.115900709637D-05 0.000000000000D+00  6 -4 4 25 24 3 -4 4 0.15398573D+00 0.40688515D-01 0.47634052D+05 0.47634052D+05 0.47634052D+05 0.11943724D+01  1  2 12  6  6  1       21 0.136683616931D-03 0.100000000000D+01
-.410808305901D-03 0.000000000000D+00 -.113909910121D-04 0.117777812459D-05 0.000000000000D+00  6 -4 4 25 24 3 -4 4 0.14032042D+00 0.40688515D-01 0.38226565D+05 0.38226565D+05 0.38226565D+05 0.12040054D+01  1  2  5  6  6  1       21 -.338233024135D-03 0.100000000000D+01
0.210371654843D-03 0.000000000000D+00 0.000000000000D+00 0.115900709637D-05 0.000000000000D+00  6 4 4 25 24 3 4 4 0.14022191D+00 0.40688515D-01 0.47634052D+05 0.47634052D+05 0.47634052D+05 0.11943724D+01  1  2 12  7  6  1       21 0.169193383903D-03 0.100000000000D+01
0.216154605648D-03 0.000000000000D+00 0.000000000000D+00 0.115900709637D-05 0.000000000000D+00  6 4 4 25 24 3 4 4 0.15398573D+00 0.40688515D-01 0.47634052D+05 0.47634052D+05 0.47634052D+05 0.11943724D+01  1  2 12  7  6  1       21 0.136683616931D-03 0.100000000000D+01
-.410808305901D-03 0.000000000000D+00 -.113909910121D-04 0.117777812459D-05 0.000000000000D+00  6 4 4 25 24 3 4 4 0.14032042D+00 0.40688515D-01 0.38226565D+05 0.38226565D+05 0.38226565D+05 0.12040054D+01  1  2  5  7  6  1       21 -.338233024135D-03 0.100000000000D+01
0.210371654843D-03 0.000000000000D+00 0.000000000000D+00 0.115900709637D-05 0.000000000000D+00  6 -1 4 25 24 3 -1 4 0.14022191D+00 0.40688515D-01 0.47634052D+05 0.47634052D+05 0.47634052D+05 0.11943724D+01  1  2 12  8  6  1       21 0.450599215092D-03 0.100000000000D+01
0.210371654843D-03 0.000000000000D+00 0.000000000000D+00 0.115900709637D-05 0.000000000000D+00  6 -2 4 25 24 3 -2 4 0.14022191D+00 0.40688515D-01 0.47634052D+05 0.47634052D+05 0.47634052D+05 0.11943724D+01  1  2 12  8  6  1       21 0.330276574383D-03 0.100000000000D+01
0.216154605648D-03 0.000000000000D+00 0.000000000000D+00 0.115900709637D-05 0.000000000000D+00  6 -1 4 25 24 3 -1 4 0.15398573D+00 0.40688515D-01 0.47634052D+05 0.47634052D+05 0.47634052D+05 0.11943724D+01  1  2 12  8  6  1       21 0.363195229233D-03 0.100000000000D+01
0.216154605648D-03 0.000000000000D+00 0.000000000000D+00 0.115900709637D-05 0.000000000000D+00  6 -2 4 25 24 3 -2 4 0.15398573D+00 0.40688515D-01 0.47634052D+05 0.47634052D+05 0.47634052D+05 0.11943724D+01  1  2 12  8  6  1       21 0.266893605784D-03 0.100000000000D+01
-.410808305901D-03 0.000000000000D+00 -.113909910121D-04 0.117777812459D-05 0.000000000000D+00  6 -1 4 25 24 3 -1 4 0.14032042D+00 0.40688515D-01 0.38226565D+05 0.38226565D+05 0.38226565D+05 0.12040054D+01  1  2  5  8  6  1       21 -.906835621656D-03 0.100000000000D+01
-.410808305901D-03 0.000000000000D+00 -.113909910121D-04 0.117777812459D-05 0.000000000000D+00  6 -2 4 25 24 3 -2 4 0.14032042D+00 0.40688515D-01 0.38226565D+05 0.38226565D+05 0.38226565D+05 0.12040054D+01  1  2  5  8  6  1       21 -.663625569614D-03 0.100000000000D+01
0.210371654843D-03 0.000000000000D+00 0.000000000000D+00 0.115900709637D-05 0.000000000000D+00  6 1 4 25 24 3 1 4 0.14022191D+00 0.40688515D-01 0.47634052D+05 0.47634052D+05 0.47634052D+05 0.11943724D+01  1  2 12  9  6  1       21 0.222187802078D-02 0.100000000000D+01
0.210371654843D-03 0.000000000000D+00 0.000000000000D+00 0.115900709637D-05 0.000000000000D+00  6 2 4 25 24 3 2 4 0.14022191D+00 0.40688515D-01 0.47634052D+05 0.47634052D+05 0.47634052D+05 0.11943724D+01  1  2 12  9  6  1       21 0.401978910284D-02 0.100000000000D+01
0.216154605648D-03 0.000000000000D+00 0.000000000000D+00 0.115900709637D-05 0.000000000000D+00  6 1 4 25 24 3 1 4 0.15398573D+00 0.40688515D-01 0.47634052D+05 0.47634052D+05 0.47634052D+05 0.11943724D+01  1  2 12  9  6  1       21 0.195199034343D-02 0.100000000000D+01
0.216154605648D-03 0.000000000000D+00 0.000000000000D+00 0.115900709637D-05 0.000000000000D+00  6 2 4 25 24 3 2 4 0.15398573D+00 0.40688515D-01 0.47634052D+05 0.47634052D+05 0.47634052D+05 0.11943724D+01  1  2 12  9  6  1       21 0.363247230051D-02 0.100000000000D+01
-.410808305901D-03 0.000000000000D+00 -.113909910121D-04 0.117777812459D-05 0.000000000000D+00  6 1 4 25 24 3 1 4 0.14032042D+00 0.40688515D-01 0.38226565D+05 0.38226565D+05 0.38226565D+05 0.12040054D+01  1  2  5  9  6  1       21 -.447194648376D-02 0.100000000000D+01
-.410808305901D-03 0.000000000000D+00 -.113909910121D-04 0.117777812459D-05 0.000000000000D+00  6 2 4 25 24 3 2 4 0.14032042D+00 0.40688515D-01 0.38226565D+05 0.38226565D+05 0.38226565D+05 0.12040054D+01  1  2  5  9  6  1       21 -.808230784144D-02 0.100000000000D+01
  </mgrwgt>
  </event>
  <event>
  5     66 0.46027262E-03 0.38005922E+02 0.75467711E-02 0.12094989E+00
       21 -1    0    0  501  502 0.00000000E+00 0.00000000E+00 0.14331134E+03 0.14331330E+03 0.75000000E+00 0.0000E+00 0.9000E+01
        2 -1    0    0  502    0 -.00000000E+00 -.00000000E+00 -.50159972E+03 0.50159983E+03 0.32000000E+00 0.0000E+00 0.9000E+01
       25  1    1    2    0    0 0.80480758E+02 -.35728654E+02 -.19744508E+03 0.24972634E+03 0.12500000E+03 0.0000E+00 0.9000E+01
       24  1    1    2    0    0 -.45878947E+02 0.20007247E+02 -.26653649E+03 0.28286761E+03 0.80419002E+02 0.0000E+00 0.9000E+01
        1  1    1    2  501    0 -.34601811E+02 0.15721407E+02 0.10569317E+03 0.11231918E+03 0.32000000E+00 0.0000E+00 0.9000E+01
#aMCatNLO 1  0  0  5  1 0.68351809D+01 0.00000000D+00  -5  6  0 0.00000000D+00 0.00000000D+00 0.00000000D+00 0.00000000D+00 0.00000000D+00
  <mgrwgt>
 0.3850512714D+00    8    2    0
 0.268114887811121D+03 0.000000000000000D+00 0.000000000000000D+00 0.268114887811121D+03
 0.268114887811121D+03 -.000000000000000D+00 -.000000000000000D+00 -.268114887811121D+03
 0.168415752519276D+03 0.804807714713929D+02 -.357286601233781D+02 -.706057643949245D+02
 0.162109859782921D+03 -.458789348363775D+02 0.200072411017282D+02 -.131556924280877D+03
 0.205704163320045D+03 -.346018366350154D+02 0.157214190216500D+02 0.202162688675802D+03
 0.000000000000000D+00 -.000000000000000D+00 0.000000000000000D+00 0.000000000000000D+00
 0.268114887811121D+03 0.000000000000000D+00 0.000000000000000D+00 0.268114887811121D+03
 0.268114887811121D+03 -.000000000000000D+00 -.000000000000000D+00 -.268114887811121D+03
 0.168306476033082D+03 0.804445972733319D+02 -.357122242985551D+02 -.703944151183575D+02
 0.161956654945876D+03 -.459137494262522D+02 0.200230591856426D+02 -.131353518572433D+03
 0.162491567372819D+03 -.206347060610246D+02 0.115611890640702D+02 0.160760869867251D+03
 0.434750772704646D+02 -.138961417860552D+02 0.412797604884226D+01 0.409870638235395D+02
0.748041587312D-05 0.000000000000D+00 0.000000000000D+00 0.560422231989D-05 0.000000000000D+00  6 21 2 25 24 1 21 2 0.22048057D-01 0.77169347D-01 0.20396053D+05 0.20396053D+05 0.20396053D+05 0.12328896D+01  1  2  2  3  6  5        1 0.171340904434D-01 0.100000000000D+01
0.133492826279D-05 0.394752390834D-06 -.151008044445D-07 0.560422231989D-05 0.000000000000D+00  6 21 2 25 24 1 21 4 0.22048057D-01 0.77169347D-01 0.20396053D+05 0.20396053D+05 0.20396053D+05 0.12328896D+01  1  2  3  3  6  5        1 0.464773773399D-02 0.100000000000D+01
0.771137519718D-06 0.000000000000D+00 0.000000000000D+00 0.560422231989D-05 0.000000000000D+00  6 21 2 25 24 1 21 4 0.22048057D-01 0.77169347D-01 0.20396053D+05 0.20396053D+05 0.20396053D+05 0.12328896D+01  1  2 15  3  6  5        1 0.268482213493D-02 0.100000000000D+01
0.176822548358D-03 0.000000000000D+00 0.000000000000D+00 0.560379596271D-05 0.000000000000D+00  6 21 2 25 24 1 21 4 0.22048057D-01 0.77169347D-01 0.20416118D+05 0.20416118D+05 0.20416118D+05 0.12328427D+01  1  2 12  3  6  5        1 0.615530991792D+00 0.100000000000D+01
-.147595560472D-03 0.000000000000D+00 0.000000000000D+00 0.560422231989D-05 0.000000000000D+00  6 21 2 25 24 1 21 4 0.22048057D-01 0.77169347D-01 0.20396053D+05 0.20396053D+05 0.20396053D+05 0.12328896D+01  1  2  4  3  6  5        1 -.513874396772D+00 0.100000000000D+01
-.283338271317D-03 0.000000000000D+00 0.000000000000D+00 0.560422231989D-05 0.000000000000D+00  6 21 2 25 24 1 21 4 0.22048057D-01 0.77169347D-01 0.20396053D+05 0.20396053D+05 0.20396053D+05 0.12328896D+01  1  2  5  3  6  5        1 -.986481455063D+00 0.100000000000D+01
0.349374908817D-03 0.000000000000D+00 -.000000000000D+00 0.560422231989D-05 0.000000000000D+00  6 21 2 25 24 1 21 4 0.22048057D-01 0.77169347D-01 0.20396053D+05 0.20396053D+05 0.20396053D+05 0.12328896D+01  1  2  6  3  6  5        1 0.121639715952D+01 0.100000000000D+01
0.833432062492D-05 0.000000000000D+00 0.000000000000D+00 0.560422231989D-05 0.392178058763D-06  6 21 2 25 24 1 21 4 0.22048057D-01 0.77169347D-01 0.20416118D+05 0.20416118D+05 0.20416118D+05 0.12328427D+01  1  2 11  3  6  5        1 0.290123216061D-01 0.100000000000D+01
  </mgrwgt>
  </event>
  <event>
  6     66 -.46027262E-03 0.28662377E+02 0.75467711E-02 0.12220164E+00
       21 -1    0    0  503  502 0.00000000E+00 0.00000000E+00 0.21937136E+02 0.21949953E+02 0.75000000E+00 0.0000E+00 0.9000E+01
        2 -1    0    0  502    0 0.00000000E+00 0.00000000E+00 -.16012510E+04 0.16012510E+04 0.32000000E+00 0.0000E+00 0.9000E+01
       25  1    1    2    0    0 -.36020022E+02 0.11378449E+02 -.90695550E+03 0.91630791E+03 0.12500000E+03 0.0000E+00 0.9000E+01
       24  1    1    2    0    0 0.35524590E+02 -.36036074E+02 -.64059098E+03 0.64759911E+03 0.80419002E+02 0.0000E+00 0.9000E+01
        1  1    1    2  501    0 0.37099045E+01 0.32856681E+02 -.36513970E+02 0.49261519E+02 0.32000000E+00 0.0000E+00 0.9000E+01
       21  1    1    2  503  501 -.32144722E+01 -.81990558E+01 0.47465822E+01 0.10032442E+02 0.75000000E+00 0.0000E+00 0.9000E+01
#aMCatNLO 2  0  0  1  2 0.88066649D+01 0.00000000D+00  -5  6  0 0.00000000D+00 0.00000000D+00 0.00000000D+00 0.00000000D+00 0.00000000D+00
  <mgrwgt>
 -.5104680475D-01    3    2    0
 0.152469419637563D+03 0.000000000000000D+00 0.000000000000000D+00 0.152469419637563D+03
 0.152469419637563D+03 0.000000000000000D+00 0.000000000000000D+00 -.152469419637563D+03
 0.136123305294548D+03 -.374539743675427D+02 0.772080170462032D+01 -.379755614761144D+02
 0.988164889328038D+02 0.344864852617232D+02 -.386840150599377D+02 -.247328090554197D+02
 0.699990450477736D+02 0.296748910581953D+01 0.309632133553174D+02 0.627083705315341D+02
 0.000000000000000D+00 -.000000000000000D+00 -.000000000000000D+00 0.000000000000000D+00
 0.229975687581300D+03 0.000000000000000D+00 0.000000000000000D+00 0.229975687581300D+03
 0.152783360842094D+03 0.000000000000000D+00 0.000000000000000D+00 -.152783360842094D+03
 0.135992838280153D+03 -.360200352569815D+02 0.113783062953788D+02 -.379755614761144D+02
 0.981811064241273D+02 0.355245808078306D+02 -.360361765306938D+02 -.247328090554197D+02
 0.708920367571227D+02 0.370992661752071D+01 0.328569259874637D+02 0.627083705315341D+02
 0.776930669619908D+02 -.321447216836976D+01 -.819905575214869D+01 0.771923267392059D+02
-.176260401815D-04 0.000000000000D+00 0.000000000000D+00 0.199362223774D-05 0.000000000000D+00  6 21 2 25 24 1 21 4 0.33772550D-02 0.24583819D+00 0.17885072D+05 0.17885072D+05 0.17885072D+05 0.12392059D+01  1  2 13  1  6  1       21 -.338942683350D+00 0.100000000000D+01
-.159467407851D-04 0.000000000000D+00 0.000000000000D+00 0.199362223774D-05 0.000000000000D+00  6 21 2 25 24 1 21 4 0.34866869D-02 0.24583819D+00 0.17885072D+05 0.17885072D+05 0.17885072D+05 0.12392059D+01  1  2 13  1  6  1       21 -.290922561159D+00 0.100000000000D+01
0.301979174309D-04 0.000000000000D+00 0.000000000000D+00 0.200554718013D-05 0.502435700917D-06  6 21 2 25 24 1 21 4 0.33758925D-02 0.24634438D+00 0.17885072D+05 0.17885072D+05 0.17885072D+05 0.12392059D+01  1  2  1  1  6  1       21 0.578818439763D+00 0.100000000000D+01
  </mgrwgt>
  </event>
  <event>
  6     66 -.46027262E-03 0.19853288E+03 0.75467711E-02 0.10812780E+00
       21 -1    0    0  501  502 0.00000000E+00 0.00000000E+00 0.16773647E+03 0.16773814E+03 0.75000000E+00 0.0000E+00 0.9000E+01
        2 -1    0    0  502    0 -.00000000E+00 -.00000000E+00 -.13489168E+04 0.13489169E+04 0.32000000E+00 0.0000E+00 0.9000E+01
       25  1    1    2    0    0 0.26918868E+03 0.22828967E+02 -.10306555E+04 0.10727812E+04 0.12500000E+03 0.0000E+00 0.9000E+01
       24  1    1    2    0    0 -.69535200E+02 0.31219479E+02 -.19932739E+03 0.22805356E+03 0.80419002E+02 0.0000E+00 0.9000E+01
        1  1    1    2  503    0 -.16553321E+03 -.51828784E+02 0.52973267E+02 0.18136630E+03 0.32000000E+00 0.0000E+00 0.9000E+01
       21  1    1    2  501  503 -.34120265E+02 -.22196618E+01 -.41707570E+01 0.34453985E+02 0.75000000E+00 0.0000E+00 0.9000E+01
#aMCatNLO 2  0  0  5  1 0.12275576D+02 0.00000000D+00  -5  6  0 0.00000000D+00 0.00000000D+00 0.00000000D+00 0.00000000D+00 0.00000000D+00
  <mgrwgt>
 -.5586827290D-01    2    2    0
 0.475671993804149D+03 0.000000000000000D+00 0.000000000000000D+00 0.475671993804149D+03
 0.475671993804149D+03 -.000000000000000D+00 -.000000000000000D+00 -.475671993804149D+03
 0.431344177459453D+03 0.269582085072776D+03 0.229354676453645D+02 -.311820883136257D+03
 0.116084384952441D+03 -.694292329771771D+02 0.312481652450194D+02 -.348066409243520D+02
 0.403915425196403D+03 -.200152852095599D+03 -.541836328903840D+02 0.346627524060609D+03
 0.000000000000000D+00 -.000000000000000D+00 0.000000000000000D+00 0.000000000000000D+00
 0.475671993804149D+03 0.000000000000000D+00 0.000000000000000D+00 0.475671993804149D+03
 0.475671993804149D+03 -.000000000000000D+00 -.000000000000000D+00 -.475671993804149D+03
 0.430599914005686D+03 0.269188521113535D+03 0.228289254459248D+02 -.311139303536851D+03
 0.116085213436013D+03 -.695352416931274D+02 0.312194674908376D+02 -.346230535392412D+02
 0.354940197380692D+03 -.165531602178338D+03 -.518396791971192D+02 0.309668338804045D+03
 0.497186627859055D+02 -.341216772420700D+02 -.220871373964319D+01 0.360940182720475D+02
-.296145468915D-03 0.000000000000D+00 0.000000000000D+00 0.161595038151D-06 0.000000000000D+00  6 21 2 25 24 1 21 4 0.25805742D-01 0.20752580D+00 0.94902787D+05 0.94902787D+05 0.94902787D+05 0.11656646D+01  1  2 13  3  6  5        1 -.157247773752D+00 0.100000000000D+01
0.190928488847D-03 0.000000000000D+00 0.000000000000D+00 0.161594648863D-06 0.363890373286D-08  6 21 2 25 24 1 21 4 0.25805742D-01 0.20752580D+00 0.94902787D+05 0.94902787D+05 0.94902787D+05 0.11656646D+01  1  2  1  3  6  5        1 0.101379500848D+00 0.100000000000D+01
  </mgrwgt>
  </event>
  <event>
  5     66 0.46027262E-03 0.56777848E+02 0.75467711E-02 0.12156915E+00
       21 -1    0    0  501  502 0.00000000E+00 0.00000000E+00 0.39203686E+02 0.39210859E+02 0.75000000E+00 0.0000E+00 0.9000E+01
        2 -1    0    0  502    0 0.00000000E+00 0.00000000E+00 -.65531154E+03 0.65531162E+03 0.32000000E+00 0.0000E+00 0.9000E+01
       25  1    1    2    0    0 -.11458470E+02 0.31836337E+02 -.37615969E+03 0.39782654E+03 0.12500000E+03 0.0000E+00 0.9000E+01
       24  1    1    2    0    0 -.11513371E+00 0.23749178E+02 -.22174657E+03 0.23707129E+03 0.80419002E+02 0.0000E+00 0.9000E+01
        1  1    1    2  501    0 0.11573604E+02 -.55585515E+02 -.18201591E+02 0.59624643E+02 0.32000000E+00 0.0000E+00 0.9000E+01
#aMCatNLO 1  0  0  2  1 0.70612763D+01 0.00000000D+00  -5  6  0 0.00000000D+00 0.00000000D+00 0.00000000D+00 0.00000000D+00 0.00000000D+00
  <mgrwgt>
 0.1113261392D+00   11    2    0
 0.160290816626318D+03 0.000000000000000D+00 0.000000000000000D+00 0.160290816626318D+03
 0.160290816626318D+03 0.000000000000000D+00 0.000000000000000D+00 -.160290816626318D+03
 0.138949233308449D+03 -.114584993699506D+02 0.318364763082562D+02 -.503689488223504D+02
 0.874396660186354D+02 -.115151929912061D+00 0.237492651423311D+02 -.247878676838542D+02
 0.941927339255511D+02 0.115736512998627D+02 -.555857414505872D+02 0.751568165062047D+02
 0.000000000000000D+00 0.000000000000000D+00 -.000000000000000D+00 -.000000000000000D+00
 0.162744423318539D+03 0.000000000000000D+00 0.000000000000000D+00 0.162744423318539D+03
 0.165491936446235D+03 0.000000000000000D+00 0.000000000000000D+00 -.165491936446235D+03
 0.139706536219518D+03 -.117760818022687D+02 0.348885246803772D+02 -.503689488223504D+02
 0.879814401291071D+02 -.315078389948030D+00 0.256706095392579D+02 -.247878676838542D+02
 0.929714149098958D+02 0.113603413593199D+02 -.535357783841834D+02 0.751568165062047D+02
 0.757696850625289D+01 0.730818832896768D+00 -.702335583545170D+01 -.274751312769534D+01
0.643461803757D-06 0.000000000000D+00 0.000000000000D+00 0.111827462298D-05 0.000000000000D+00  6 21 2 25 24 1 21 2 0.60318941D-02 0.10081772D+00 0.18242409D+05 0.18242409D+05 0.18242409D+05 0.12382483D+01  1  2  2  2  6  2        2 0.109717728303D-01 0.100000000000D+01
0.221164781395D-08 0.339564122840D-07 -.129896399222D-08 0.111827462298D-05 0.000000000000D+00  6 21 2 25 24 1 21 4 0.60318941D-02 0.10081772D+00 0.18242409D+05 0.18242409D+05 0.18242409D+05 0.12382483D+01  1  2  3  2  6  2        2 0.578209888275D-04 0.100000000000D+01
0.639853745797D-07 0.000000000000D+00 0.000000000000D+00 0.111827462298D-05 0.000000000000D+00  6 21 2 25 24 1 21 4 0.60318941D-02 0.10081772D+00 0.18242409D+05 0.18242409D+05 0.18242409D+05 0.12382483D+01  1  2 15  2  6  2        2 0.167282403887D-02 0.100000000000D+01
0.383498696875D-05 0.000000000000D+00 0.000000000000D+00 0.111420781334D-05 0.000000000000D+00  6 21 2 25 24 1 21 4 0.60318941D-02 0.10484203D+00 0.19115445D+05 0.19115445D+05 0.19115445D+05 0.12359947D+01  1  2 12  2  6  2        2 0.951184423114D-01 0.100000000000D+01
-.166569231751D-05 0.000000000000D+00 0.000000000000D+00 0.111827462298D-05 0.000000000000D+00  6 21 2 25 24 1 21 4 0.60318941D-02 0.10081772D+00 0.18242409D+05 0.18242409D+05 0.18242409D+05 0.12382483D+01  1  2  4  2  6  2        2 -.435476101905D-01 0.100000000000D+01
-.351493011975D-04 0.000000000000D+00 -.516973177557D-05 0.111827462298D-05 0.000000000000D+00  6 21 2 25 24 1 21 4 0.60318941D-02 0.10526672D+00 0.18242409D+05 0.18242409D+05 0.18242409D+05 0.12382483D+01  1  2  5  2  6  2        2 -.873614447715D+00 0.100000000000D+01
0.353444033969D-04 0.000000000000D+00 0.516491527785D-05 0.111827462298D-05 0.000000000000D+00  6 21 2 25 24 1 21 4 0.60318941D-02 0.10081772D+00 0.18242409D+05 0.18242409D+05 0.18242409D+05 0.12382483D+01  1  2  6  2  6  2        2 0.924038782772D+00 0.100000000000D+01
0.139062002087D-06 0.000000000000D+00 0.000000000000D+00 0.111827462298D-05 0.185031064859D-06  6 21 2 25 24 1 21 4 0.61242256D-02 0.10408905D+00 0.19115445D+05 0.19115445D+05 0.19115445D+05 0.12359947D+01  1  2 11  2  6  2        2 0.338986056464D-02 0.100000000000D+01
0.630785152947D-07 0.000000000000D+00 0.000000000000D+00 0.111420781334D-05 0.000000000000D+00  6 21 21 25 24 1 -2 4 0.60318941D-02 0.10484203D+00 0.19115445D+05 0.19115445D+05 0.19115445D+05 0.12359947D+01  1  2 12 10  6  2        2 0.215235306707D-02 0.100000000000D+01
-.263616561807D-06 0.000000000000D+00 -.392759859997D-07 0.111827462298D-05 0.000000000000D+00  6 21 21 25 24 1 -2 4 0.60318941D-02 0.10526672D+00 0.18242409D+05 0.18242409D+05 0.18242409D+05 0.12382483D+01  1  2  5 10  6  2        2 -.898507293547D-02 0.100000000000D+01
0.211120641378D-08 0.000000000000D+00 0.000000000000D+00 0.111827462298D-05 0.124189246120D-08  6 21 21 25 24 1 -2 4 0.61242256D-02 0.10408905D+00 0.19115445D+05 0.19115445D+05 0.19115445D+05 0.12359947D+01  1  2 11 10  6  2        2 0.714134214530D-04 0.100000000000D+01
  </mgrwgt>
  </event>
  <event>
  5     66 0.46027262E-03 0.44163004E+02 0.75467711E-02 0.11739689E+00
       21 -1    0    0  501  502 0.00000000E+00 0.00000000E+00 0.82018611E+03 0.82018645E+03 0.75000000E+00 0.0000E+00 0.9000E+01
        2 -1    0    0  502    0 0.00000000E+00 0.00000000E+00 -.20772773E+03 0.20772798E+03 0.32000000E+00 0.0000E+00 0.9000E+01
       25  1    1    2    0    0 -.68343802E+02 0.23998260E+02 0.70010139E+01 0.14464026E+03 0.12500000E+03 0.0000E+00 0.9000E+01
       24  1    1    2    0    0 0.11173512E+03 -.15778581E+02 -.10349268E+03 0.17294985E+03 0.80419002E+02 0.0000E+00 0.9000E+01
        1  1    1    2  501    0 -.43391323E+02 -.82196785E+01 0.70895004E+03 0.71032432E+03 0.32000000E+00 0.0000E+00 0.9000E+01
#aMCatNLO 1  0  0  1  2 0.21302726D+02 0.00000000D+00  -5  6  0 0.00000000D+00 0.00000000D+00 0.00000000D+00 0.00000000D+00 0.00000000D+00
  <mgrwgt>
 0.3238116287D+00   13    2    0
 0.412765920761300D+03 0.000000000000000D+00 0.000000000000000D+00 0.412765920761300D+03
 0.412765920761300D+03 0.000000000000000D+00 0.000000000000000D+00 -.412765920761300D+03
 0.174905425859214D+03 -.683437983521500D+02 0.239982604417014D+02 -.985906522828915D+02
 0.292130038215698D+03 0.111735130952479D+03 -.157785800518732D+02 -.257175115818217D+03
 0.358496377447688D+03 -.433913326003289D+02 -.821968038982814D+01 0.355765768101109D+03
 0.000000000000000D+00 -.000000000000000D+00 -.000000000000000D+00 -.000000000000000D+00
 0.422650702814580D+03 0.000000000000000D+00 0.000000000000000D+00 0.422650702814580D+03
 0.424542513345278D+03 0.000000000000000D+00 0.000000000000000D+00 -.424542513345278D+03
 0.175460595953964D+03 -.680340296468885D+02 0.285074520952050D+02 -.985906522828915D+02
 0.292018688171054D+03 0.112251593689694D+03 -.826061769982638D+01 -.257175115818217D+03
 0.358327368500416D+03 -.427575680516610D+02 0.100580225125370D+01 0.355765768101109D+03
 0.213865635344250D+02 -.145999599114476D+01 -.212526366466323D+02 -.189181053069806D+01
0.756682936472D-03 0.000000000000D+00 0.000000000000D+00 0.757722352310D-05 0.000000000000D+00  6 21 2 25 24 1 21 2 0.12618252D+00 0.31958158D-01 0.26765142D+05 0.26765142D+05 0.26765142D+05 0.12201337D+01  1  2  2  1  6  1       21 0.107604268911D+00 0.100000000000D+01
0.179671757222D-03 0.399312556069D-04 -.152752483872D-05 0.757722352310D-05 0.000000000000D+00  6 21 2 25 24 1 21 4 0.12618252D+00 0.31958158D-01 0.26765142D+05 0.26765142D+05 0.26765142D+05 0.12201337D+01  1  2  3  1  6  1       21 0.380373460521D-01 0.100000000000D+01
0.731566305182D-04 0.000000000000D+00 0.000000000000D+00 0.757722352310D-05 0.000000000000D+00  6 21 2 25 24 1 21 4 0.12618252D+00 0.31958158D-01 0.26765142D+05 0.26765142D+05 0.26765142D+05 0.12201337D+01  1  2 15  1  6  1       21 0.154875986858D-01 0.100000000000D+01
0.148922094472D-02 0.000000000000D+00 0.000000000000D+00 0.750864734826D-05 0.000000000000D+00  6 21 2 25 24 1 21 4 0.13095797D+00 0.31958158D-01 0.30197222D+05 0.30197222D+05 0.30197222D+05 0.12145998D+01  1  2 12  1  6  1       21 0.280289899588D+00 0.100000000000D+01
-.598962876525D-03 0.000000000000D+00 0.000000000000D+00 0.757722352310D-05 0.000000000000D+00  6 21 2 25 24 1 21 4 0.12618252D+00 0.31958158D-01 0.26765142D+05 0.26765142D+05 0.26765142D+05 0.12201337D+01  1  2  4  1  6  1       21 -.126803224720D+00 0.100000000000D+01
0.254725797466D-04 0.000000000000D+00 0.000000000000D+00 0.750864734826D-05 0.000000000000D+00  6 -1 2 25 24 1 -1 4 0.13095797D+00 0.31958158D-01 0.30197222D+05 0.30197222D+05 0.30197222D+05 0.12145998D+01  1  2 12  4  6  1       21 0.566192799411D-03 0.100000000000D+01
0.254725797466D-04 0.000000000000D+00 0.000000000000D+00 0.750864734826D-05 0.000000000000D+00  6 1 2 25 24 1 1 4 0.13095797D+00 0.31958158D-01 0.30197222D+05 0.30197222D+05 0.30197222D+05 0.12145998D+01  1  2 12  5  6  1       21 0.262326154456D-02 0.100000000000D+01
0.254725797466D-04 0.000000000000D+00 0.000000000000D+00 0.750864734826D-05 0.000000000000D+00  6 -2 2 25 24 1 -2 4 0.13095797D+00 0.31958158D-01 0.30197222D+05 0.30197222D+05 0.30197222D+05 0.12145998D+01  1  2 12  6  6  1       21 0.413758357462D-03 0.100000000000D+01
0.254725797466D-04 0.000000000000D+00 0.000000000000D+00 0.750864734826D-05 0.000000000000D+00  6 2 2 25 24 1 2 4 0.13095797D+00 0.31958158D-01 0.30197222D+05 0.30197222D+05 0.30197222D+05 0.12145998D+01  1  2 12  7  6  1       21 0.464323793179D-02 0.100000000000D+01
0.254725797466D-04 0.000000000000D+00 0.000000000000D+00 0.750864734826D-05 0.000000000000D+00  6 -3 2 25 24 1 -3 4 0.13095797D+00 0.31958158D-01 0.30197222D+05 0.30197222D+05 0.30197222D+05 0.12145998D+01  1  2 12  8  6  1       21 0.264571648296D-03 0.100000000000D+01
0.254725797466D-04 0.000000000000D+00 0.000000000000D+00 0.750864734826D-05 0.000000000000D+00  6 -4 2 25 24 1 -4 4 0.13095797D+00 0.31958158D-01 0.30197222D+05 0.30197222D+05 0.30197222D+05 0.12145998D+01  1  2 12  8  6  1       21 0.209659031669D-03 0.100000000000D+01
0.254725797466D-04 0.000000000000D+00 0.000000000000D+00 0.750864734826D-05 0.000000000000D+00  6 3 2 25 24 1 3 4 0.13095797D+00 0.31958158D-01 0.30197222D+05 0.30197222D+05 0.30197222D+05 0.12145998D+01  1  2 12  9  6  1       21 0.265399869011D-03 0.100000000000D+01
0.254725797466D-04 0.000000000000D+00 0.000000000000D+00 0.750864734826D-05 0.000000000000D+00  6 4 2 25 24 1 4 4 0.13095797D+00 0.31958158D-01 0.30197222D+05 0.30197222D+05 0.30197222D+05 0.12145998D+01  1  2 12  9  6  1       21 0.209659031669D-03 0.100000000000D+01
  </mgrwgt>
  </event>
  <event>
  5     66 0.46027262E-03 0.45233841E+02 0.75467711E-02 0.11211486E+00
       21 -1    0    0  501  502 0.00000000E+00 0.00000000E+00 0.13170916E+02 0.13192253E+02 0.75000000E+00 0.0000E+00 0.9000E+01
        2 -1    0    0  502    0 0.00000000E+00 0.00000000E+00 -.23542691E+04 0.23542691E+04 0.32000000E+00 0.0000E+00 0.9000E+01
       25  1    1    2    0    0 0.32773524E+02 -.49226374E+01 -.19002531E+04 0.19046483E+04 0.12500000E+03 0.0000E+00 0.9000E+01
       24  1    1    2    0    0 0.11161955E+02 0.15681609E+02 -.36711628E+03 0.37631381E+03 0.80419002E+02 0.0000E+00 0.9000E+01
        1  1    1    2  501    0 -.43935479E+02 -.10758972E+02 -.73728760E+02 0.86499215E+02 0.32000000E+00 0.0000E+00 0.9000E+01
#aMCatNLO 1  0  0  1  5 0.17253305D+03 0.00000000D+00  -5  6  0 0.00000000D+00 0.00000000D+00 0.00000000D+00 0.00000000D+00 0.00000000D+00
  <mgrwgt>
 0.1461236232D+00   12    2    0
 0.176162319985278D+03 0.000000000000000D+00 0.000000000000000D+00 0.176162319985278D+03
 0.176162319985278D+03 0.000000000000000D+00 0.000000000000000D+00 -.176162319985278D+03
 0.171723117578992D+03 0.327736549747549D+02 -.492260516567415D+01 -.112984444101951D+03
 0.892731572358701D+02 0.111620236630947D+02 0.156816260180097D+02 0.336448581757398D+02
 0.913283651556952D+02 -.439356786378496D+02 -.107590208523355D+02 0.793395859262109D+02
 0.000000000000000D+00 -.000000000000000D+00 -.000000000000000D+00 0.000000000000000D+00
 0.285553487084103D+03 0.000000000000000D+00 0.000000000000000D+00 0.285553487084103D+03
 0.279390879830634D+03 0.000000000000000D+00 0.000000000000000D+00 -.279390879830634D+03
 0.193617868244709D+03 0.576394279419238D+02 0.759940171403420D+02 -.112984444101951D+03
 0.108348685912347D+03 0.246125262777899D+02 0.594513990846418D+02 0.336448581757398D+02
 0.903347394478525D+02 -.315713568374955D+02 0.294761714543853D+02 0.793395859262109D+02
 0.172643073309829D+03 -.506805973822182D+02 -.164921587679369D+03 0.616260725346898D+01
0.795318886763D-05 0.000000000000D+00 0.000000000000D+00 0.884694146760D-06 0.000000000000D+00  6 21 2 25 24 1 21 2 0.20279377D-02 0.36219689D+00 0.16543506D+05 0.16543506D+05 0.16543506D+05 0.12430023D+01  1  2  2  1  6  1       21 0.942228696949D-01 0.100000000000D+01
0.184596893201D-06 0.419701307187D-06 -.160551969085D-07 0.884694146760D-06 0.000000000000D+00  6 21 2 25 24 1 21 4 0.20279377D-02 0.36219689D+00 0.16543506D+05 0.16543506D+05 0.16543506D+05 0.12430023D+01  1  2  3  1  6  1       21 0.337896190979D-02 0.100000000000D+01
0.687779966967D-06 0.000000000000D+00 0.000000000000D+00 0.884694146760D-06 0.000000000000D+00  6 21 2 25 24 1 21 4 0.20279377D-02 0.36219689D+00 0.16543506D+05 0.16543506D+05 0.16543506D+05 0.12430023D+01  1  2 15  1  6  1       21 0.125894985035D-01 0.100000000000D+01
0.122989531871D-04 0.000000000000D+00 -.246973403448D-04 0.884694146760D-06 0.000000000000D+00  6 21 2 25 24 1 21 4 0.67123097D-02 0.36219689D+00 0.16543506D+05 0.16543506D+05 0.16543506D+05 0.12430023D+01  1  2  5  1  6  1       21 0.309916685819D-01 0.100000000000D+01
0.460987587073D-05 0.000000000000D+00 -.914560581935D-05 0.884694146760D-06 0.000000000000D+00  6 -1 2 25 24 1 -1 4 0.67123097D-02 0.36219689D+00 0.16543506D+05 0.16543506D+05 0.16543506D+05 0.12430023D+01  1  2  5  4  6  1       21 0.704649049805D-03 0.100000000000D+01
0.460987587073D-05 0.000000000000D+00 -.914560581935D-05 0.884694146760D-06 0.000000000000D+00  6 1 2 25 24 1 1 4 0.67123097D-02 0.36219689D+00 0.16543506D+05 0.16543506D+05 0.16543506D+05 0.12430023D+01  1  2  5  5  6  1       21 0.824994956354D-03 0.100000000000D+01
0.460987587073D-05 0.000000000000D+00 -.914560581935D-05 0.884694146760D-06 0.000000000000D+00  6 -2 2 25 24 1 -2 4 0.67123097D-02 0.36219689D+00 0.16543506D+05 0.16543506D+05 0.16543506D+05 0.12430023D+01  1  2  5  6  6  1       21 0.683579033444D-03 0.100000000000D+01
0.460987587073D-05 0.000000000000D+00 -.914560581935D-05 0.884694146760D-06 0.000000000000D+00  6 2 2 25 24 1 2 4 0.67123097D-02 0.36219689D+00 0.16543506D+05 0.16543506D+05 0.16543506D+05 0.12430023D+01  1  2  5  7  6  1       21 0.905673320027D-03 0.100000000000D+01
0.460987587073D-05 0.000000000000D+00 -.914560581935D-05 0.884694146760D-06 0.000000000000D+00  6 -3 2 25 24 1 -3 4 0.67123097D-02 0.36219689D+00 0.16543506D+05 0.16543506D+05 0.16543506D+05 0.12430023D+01  1  2  5  8  6  1       21 0.483896646520D-03 0.100000000000D+01
0.460987587073D-05 0.000000000000D+00 -.914560581935D-05 0.884694146760D-06 0.000000000000D+00  6 -4 2 25 24 1 -4 4 0.67123097D-02 0.36219689D+00 0.16543506D+05 0.16543506D+05 0.16543506D+05 0.12430023D+01  1  2  5  8  6  1       21 0.426995158505D-03 0.100000000000D+01
0.460987587073D-05 0.000000000000D+00 -.914560581935D-05 0.884694146760D-06 0.000000000000D+00  6 3 2 25 24 1 3 4 0.67123097D-02 0.36219689D+00 0.16543506D+05 0.16543506D+05 0.16543506D+05 0.12430023D+01  1  2  5  9  6  1       21 0.483841142150D-03 0.100000000000D+01
0.460987587073D-05 0.000000000000D+00 -.914560581935D-05 0.884694146760D-06 0.000000000000D+00  6 4 2 25 24 1 4 4 0.67123097D-02 0.36219689D+00 0.16543506D+05 0.16543506D+05 0.16543506D+05 0.12430023D+01  1  2  5  9  6  1       21 0.426995158505D-03 0.100000000000D+01
  </mgrwgt>
  </event>
  <event>
  5     66 0.46027262E-03 0.56886935E+02 0.75467711E-02 0.11905401E+00
       21 -1    0    0  501  502 0.00000000E+00 0.00000000E+00 0.13046995E+02 0.13068534E+02 0.75000000E+00 0.0000E+00 0.9000E+01
        2 -1    0    0  502    0 0.00000000E+00 0.00000000E+00 -.19249948E+04 0.19249949E+04 0.32000000E+00 0.0000E+00 0.9000E+01
       25  1    1    2    0    0 0.71177531E+02 0.44779873E+01 -.69617116E+03 0.71089070E+03 0.12500000E+03 0.0000E+00 0.9000E+01
       24  1    1    2    0    0 -.45844188E+02 0.46455934E+02 -.93297036E+03 0.93870163E+03 0.80419002E+02 0.0000E+00 0.9000E+01
        1  1    1    2  501    0 -.25333343E+02 -.50933922E+02 -.28280632E+03 0.28847108E+03 0.32000000E+00 0.0000E+00 0.9000E+01
#aMCatNLO 1  0  0  1  2 0.12137095D+02 0.00000000D+00  -5  6  0 0.00000000D+00 0.00000000D+00 0.00000000D+00 0.00000000D+00 0.00000000D+00
  <mgrwgt>
 0.1814563349D+00   23    2    0
 0.158544304233067D+03 0.000000000000000D+00 0.000000000000000D+00 0.158544304233067D+03
 0.158544304233067D+03 0.000000000000000D+00 0.000000000000000D+00 -.158544304233067D+03
 0.147303655041222D+03 0.711777108170362D+02 0.447834847440754D+01 0.314172670086274D+02
 0.111869776955624D+03 -.458440515430645D+02 0.464562087493571D+02 -.422820842495211D+02
 0.579151764692871D+02 -.253336592739717D+02 -.509345572237647D+02 0.108648172408937D+02
 0.000000000000000D+00 -.000000000000000D+00 -.000000000000000D+00 0.000000000000000D+00
 0.166273643056930D+03 0.000000000000000D+00 0.000000000000000D+00 0.166273643056930D+03
 0.163497670217198D+03 0.000000000000000D+00 0.000000000000000D+00 -.163497670217198D+03
 0.149531199859633D+03 0.753538489633054D+02 0.832661465336229D+01 0.314172670086274D+02
 0.111866263468434D+03 -.426963328783470D+02 0.493567974880507D+02 -.422820842495211D+02
 0.559233438919826D+02 -.237320771836396D+02 -.494587166324876D+02 0.108648172408937D+02
 0.124505060540783D+02 -.892543890131880D+01 -.822469550892539D+01 0.277597283973189D+01
0.106464001035D-05 0.000000000000D+00 0.000000000000D+00 0.297378953083D-06 0.000000000000D+00  6 21 2 25 24 1 21 2 0.20088890D-02 0.29615471D+00 0.23160701D+05 0.23160701D+05 0.23160701D+05 0.12268719D+01  1  2  2  1  6  1       21 0.207278915449D-01 0.100000000000D+01
-.429964005979D-07 0.561825968759D-07 -.214920144452D-08 0.297378953083D-06 0.000000000000D+00  6 21 2 25 24 1 21 4 0.20088890D-02 0.29615471D+00 0.23160701D+05 0.23160701D+05 0.23160701D+05 0.12268719D+01  1  2  3  1  6  1       21 -.126003583767D-02 0.100000000000D+01
0.112336519829D-06 0.000000000000D+00 0.000000000000D+00 0.297378953083D-06 0.000000000000D+00  6 21 2 25 24 1 21 4 0.20088890D-02 0.29615471D+00 0.23160701D+05 0.23160701D+05 0.23160701D+05 0.12268719D+01  1  2 15  1  6  1       21 0.329209047489D-02 0.100000000000D+01
0.299341530323D-05 0.000000000000D+00 0.000000000000D+00 0.295573625749D-06 0.000000000000D+00  6 21 2 25 24 1 21 4 0.21369484D-02 0.29615471D+00 0.25083614D+05 0.25083614D+05 0.25083614D+05 0.12231422D+01  1  2 12  1  6  1       21 0.783544096408D-01 0.100000000000D+01
-.160561202328D-06 0.000000000000D+00 0.000000000000D+00 0.297378953083D-06 0.000000000000D+00  6 21 2 25 24 1 21 4 0.20088890D-02 0.29615471D+00 0.23160701D+05 0.23160701D+05 0.23160701D+05 0.12268719D+01  1  2  4  1  6  1       21 -.470534431392D-02 0.100000000000D+01
-.234193030817D-04 0.000000000000D+00 -.428670397521D-05 0.297378953083D-06 0.000000000000D+00  6 21 2 25 24 1 21 4 0.21835512D-02 0.29615471D+00 0.23160701D+05 0.23160701D+05 0.23160701D+05 0.12268719D+01  1  2  5  1  6  1       21 -.599476357196D+00 0.100000000000D+01
0.234658294725D-04 0.000000000000D+00 0.422769474006D-05 0.297378953083D-06 0.000000000000D+00  6 21 2 25 24 1 21 4 0.20088890D-02 0.29615471D+00 0.23160701D+05 0.23160701D+05 0.23160701D+05 0.12268719D+01  1  2  6  1  6  1       21 0.687680496150D+00 0.100000000000D+01
0.497213168161D-07 0.000000000000D+00 0.000000000000D+00 0.295573625749D-06 0.000000000000D+00  6 -1 2 25 24 1 -1 4 0.21369484D-02 0.29615471D+00 0.25083614D+05 0.25083614D+05 0.25083614D+05 0.12231422D+01  1  2 12  4  6  1       21 0.636621031004D-04 0.100000000000D+01
-.405948164783D-06 0.000000000000D+00 -.893535098251D-07 0.297378953083D-06 0.000000000000D+00  6 -1 2 25 24 1 -1 4 0.21835512D-02 0.29615471D+00 0.23160701D+05 0.23160701D+05 0.23160701D+05 0.12268719D+01  1  2  5  4  6  1       21 -.509634138747D-03 0.100000000000D+01
0.497213168161D-07 0.000000000000D+00 0.000000000000D+00 0.295573625749D-06 0.000000000000D+00  6 1 2 25 24 1 1 4 0.21369484D-02 0.29615471D+00 0.25083614D+05 0.25083614D+05 0.25083614D+05 0.12231422D+01  1  2 12  5  6  1       21 0.671102909274D-04 0.100000000000D+01
-.405948164783D-06 0.000000000000D+00 -.893535098251D-07 0.297378953083D-06 0.000000000000D+00  6 1 2 25 24 1 1 4 0.21835512D-02 0.29615471D+00 0.23160701D+05 0.23160701D+05 0.23160701D+05 0.12268719D+01  1  2  5  5  6  1       21 -.537888044871D-03 0.100000000000D+01
0.497213168161D-07 0.000000000000D+00 0.000000000000D+00 0.295573625749D-06 0.000000000000D+00  6 -2 2 25 24 1 -2 4 0.21369484D-02 0.29615471D+00 0.25083614D+05 0.25083614D+05 0.25083614D+05 0.12231422D+01  1  2 12  6  6  1       21 0.630435472156D-04 0.100000000000D+01
-.405948164783D-06 0.000000000000D+00 -.893535098251D-07 0.297378953083D-06 0.000000000000D+00  6 -2 2 25 24 1 -2 4 0.21835512D-02 0.29615471D+00 0.23160701D+05 0.23160701D+05 0.23160701D+05 0.12268719D+01  1  2  5  6  6  1       21 -.504564221162D-03 0.100000000000D+01
0.497213168161D-07 0.000000000000D+00 0.000000000000D+00 0.295573625749D-06 0.000000000000D+00  6 2 2 25 24 1 2 4 0.21369484D-02 0.29615471D+00 0.25083614D+05 0.25083614D+05 0.25083614D+05 0.12231422D+01  1  2 12  7  6  1       21 0.694786418621D-04 0.100000000000D+01
-.405948164783D-06 0.000000000000D+00 -.893535098251D-07 0.297378953083D-06 0.000000000000D+00  6 2 2 25 24 1 2 4 0.21835512D-02 0.29615471D+00 0.23160701D+05 0.23160701D+05 0.23160701D+05 0.12268719D+01  1  2  5  7  6  1       21 -.557279355822D-03 0.100000000000D+01
0.497213168161D-07 0.000000000000D+00 0.000000000000D+00 0.295573625749D-06 0.000000000000D+00  6 -3 2 25 24 1 -3 4 0.21369484D-02 0.29615471D+00 0.25083614D+05 0.25083614D+05 0.25083614D+05 0.12231422D+01  1  2 12  8  6  1       21 0.492034853343D-04 0.100000000000D+01
0.497213168161D-07 0.000000000000D+00 0.000000000000D+00 0.295573625749D-06 0.000000000000D+00  6 -4 2 25 24 1 -4 4 0.21369484D-02 0.29615471D+00 0.25083614D+05 0.25083614D+05 0.25083614D+05 0.12231422D+01  1  2 12  8  6  1       21 0.447686635106D-04 0.100000000000D+01
-.405948164783D-06 0.000000000000D+00 -.893535098251D-07 0.297378953083D-06 0.000000000000D+00  6 -3 2 25 24 1 -3 4 0.21835512D-02 0.29615471D+00 0.23160701D+05 0.23160701D+05 0.23160701D+05 0.12268719D+01  1  2  5  8  6  1       21 -.392570874020D-03 0.100000000000D+01
-.405948164783D-06 0.000000000000D+00 -.893535098251D-07 0.297378953083D-06 0.000000000000D+00  6 -4 2 25 24 1 -4 4 0.21835512D-02 0.29615471D+00 0.23160701D+05 0.23160701D+05 0.23160701D+05 0.12268719D+01  1  2  5  8  6  1       21 -.356783762213D-03 0.100000000000D+01
0.497213168161D-07 0.000000000000D+00 0.000000000000D+00 0.295573625749D-06 0.000000000000D+00  6 3 2 25 24 1 3 4 0.21369484D-02 0.29615471D+00 0.25083614D+05 0.25083614D+05 0.25083614D+05 0.12231422D+01  1  2 12  9  6  1       21 0.492006054955D-04 0.100000000000D+01
0.497213168161D-07 0.000000000000D+00 0.000000000000D+00 0.295573625749D-06 0.000000000000D+00  6 4 2 25 24 1 4 4 0.21369484D-02 0.29615471D+00 0.25083614D+05 0.25083614D+05 0.25083614D+05 0.12231422D+01  1  2 12  9  6  1       21 0.447686635106D-04 0.100000000000D+01
-.405948164783D-06 0.000000000000D+00 -.893535098251D-07 0.297378953083D-06 0.000000000000D+00  6 3 2 25 24 1 3 4 0.21835512D-02 0.29615471D+00 0.23160701D+05 0.23160701D+05 0.23160701D+05 0.12268719D+01  1  2  5  9  6  1       21 -.392547415876D-03 0.100000000000D+01
-.405948164783D-06 0.000000000000D+00 -.893535098251D-07 0.297378953083D-06 0.000000000000D+00  6 4 2 25 24 1 4 4 0.21835512D-02 0.29615471D+00 0.23160701D+05 0.23160701D+05 0.23160701D+05 0.12268719D+01  1  2  5  9  6  1       21 -.356783762213D-03 0.100000000000D+01
  </mgrwgt>
  </event>
  <event>
  5     66 0.46027262E-03 0.32990414E+02 0.75467711E-02 0.12201018E+00
       21 -1    0    0  501  502 0.00000000E+00 0.00000000E+00 0.59443322E+01 0.59914594E+01 0.75000000E+00 0.0000E+00 0.9000E+01
        2 -1    0    0  502    0 0.00000000E+00 0.00000000E+00 -.30688558E+04 0.30688558E+04 0.32000000E+00 0.0000E+00 0.9000E+01
       25  1    1    2    0    0 -.38145425E+02 -.38175262E+02 -.15712016E+04 0.15770896E+04 0.12500000E+03 0.0000E+00 0.9000E+01
       24  1    1    2    0    0 0.76535083E+01 0.50766659E+02 -.12733634E+04 0.12769328E+04 0.80419002E+02 0.0000E+00 0.9000E+01
        1  1    1    2  501    0 0.30491916E+02 -.12591397E+02 -.21834646E+03 0.22082477E+03 0.32000000E+00 0.0000E+00 0.9000E+01
#aMCatNLO 1  0  0  1  5 0.56277182D+01 0.00000000D+00  -5  6  0 0.00000000D+00 0.00000000D+00 0.00000000D+00 0.00000000D+00 0.00000000D+00
  <mgrwgt>
 0.3217668111D+00   41    2    0
 0.135332101644538D+03 0.000000000000000D+00 0.000000000000000D+00 0.135332101644538D+03
 0.135332101644538D+03 0.000000000000000D+00 0.000000000000000D+00 -.135332101644538D+03
 0.136178207946421D+03 -.381459748582052D+02 -.381750348212505D+02 -.265624509641068D+01
 0.967029560663241D+02 0.765311758334400D+01 0.507668207435404D+02 -.157608838725376D+02
 0.377830392763302D+02 0.304928572748612D+02 -.125917859222899D+02 0.184171289689482D+02
 0.000000000000000D+00 0.000000000000000D+00 0.000000000000000D+00 0.000000000000000D+00
 0.146556099481387D+03 0.000000000000000D+00 0.000000000000000D+00 0.146556099481387D+03
 0.136068630095099D+03 0.000000000000000D+00 0.000000000000000D+00 -.136068630095099D+03
 0.137278257732258D+03 -.406651041630737D+02 -.394919448925792D+02 -.265624509641068D+01
 0.960938200595256D+02 0.587703959806983D+01 0.498383511402720D+02 -.157608838725376D+02
 0.373506256416225D+02 0.298007126711225D+02 -.129536141927633D+02 0.184171289689482D+02
 0.119020261430798D+02 0.498735189388137D+01 0.260720794507051D+01 0.104874693862873D+02
0.117677484254D-05 0.000000000000D+00 0.000000000000D+00 0.826996076278D-06 0.000000000000D+00  6 21 2 25 24 1 21 2 0.91813910D-03 0.47213528D+00 0.17497026D+05 0.17497026D+05 0.17497026D+05 0.12402703D+01  1  2  2  1  6  1       21 0.197808088163D-01 0.100000000000D+01
0.224862421009D-07 0.621001145454D-07 -.237556936324D-08 0.826996076278D-06 0.000000000000D+00  6 21 2 25 24 1 21 4 0.91813910D-03 0.47213528D+00 0.17497026D+05 0.17497026D+05 0.17497026D+05 0.12402703D+01  1  2  3  1  6  1       21 0.581433714901D-03 0.100000000000D+01
0.114362620700D-06 0.000000000000D+00 0.000000000000D+00 0.826996076278D-06 0.000000000000D+00  6 21 2 25 24 1 21 4 0.91813910D-03 0.47213528D+00 0.17497026D+05 0.17497026D+05 0.17497026D+05 0.12402703D+01  1  2 15  1  6  1       21 0.295710964514D-02 0.100000000000D+01
0.114789975560D-04 0.000000000000D+00 0.000000000000D+00 0.824283728957D-06 0.000000000000D+00  6 21 2 25 24 1 21 4 0.99666311D-03 0.47213528D+00 0.18247559D+05 0.18247559D+05 0.18247559D+05 0.12382347D+01  1  2 12  1  6  1       21 0.258916109393D+00 0.100000000000D+01
0.797160334332D-05 0.000000000000D+00 0.000000000000D+00 0.824283728957D-06 0.000000000000D+00  6 21 2 25 24 1 21 4 0.10291472D-02 0.47213528D+00 0.18247559D+05 0.18247559D+05 0.18247559D+05 0.12382347D+01  1  2 12  1  6  1       21 0.170930115226D+00 0.100000000000D+01
-.161993547771D-04 0.000000000000D+00 0.000000000000D+00 0.826996076278D-06 0.000000000000D+00  6 21 2 25 24 1 21 4 0.91813910D-03 0.47213528D+00 0.17497026D+05 0.17497026D+05 0.17497026D+05 0.12402703D+01  1  2  4  1  6  1       21 -.418871725422D+00 0.100000000000D+01
-.548390511147D-04 0.000000000000D+00 -.456958607683D-05 0.826996076278D-06 0.000000000000D+00  6 21 2 25 24 1 21 4 0.10013824D-02 0.47213528D+00 0.17497026D+05 0.17497026D+05 0.17497026D+05 0.12402703D+01  1  2  5  1  6  1       21 -.123686958215D+01 0.100000000000D+01
0.543938463951D-04 0.000000000000D+00 0.450147643664D-05 0.826996076278D-06 0.000000000000D+00  6 21 2 25 24 1 21 4 0.91813910D-03 0.47213528D+00 0.17497026D+05 0.17497026D+05 0.17497026D+05 0.12402703D+01  1  2  6  1  6  1       21 0.140647850518D+01 0.100000000000D+01
0.543650136614D-05 0.000000000000D+00 0.000000000000D+00 0.826996076278D-06 0.580403973027D-06  6 21 2 25 24 1 21 4 0.99428653D-03 0.47470482D+00 0.18247559D+05 0.18247559D+05 0.18247559D+05 0.12382347D+01  1  2 11  1  6  1       21 0.120337909522D+00 0.100000000000D+01
0.247095750830D-06 0.000000000000D+00 0.000000000000D+00 0.824283728957D-06 0.000000000000D+00  6 -1 2 25 24 1 -1 4 0.99666311D-03 0.47213528D+00 0.18247559D+05 0.18247559D+05 0.18247559D+05 0.12382347D+01  1  2 12  4  6  1       21 0.239597471736D-03 0.100000000000D+01
0.248715767108D-06 0.000000000000D+00 0.000000000000D+00 0.824283728957D-06 0.000000000000D+00  6 -1 2 25 24 1 -1 4 0.10291472D-02 0.47213528D+00 0.18247559D+05 0.18247559D+05 0.18247559D+05 0.12382347D+01  1  2 12  4  6  1       21 0.230387611768D-03 0.100000000000D+01
-.112008724076D-05 0.000000000000D+00 -.996014141596D-07 0.826996076278D-06 0.000000000000D+00  6 -1 2 25 24 1 -1 4 0.10013824D-02 0.47213528D+00 0.17497026D+05 0.17497026D+05 0.17497026D+05 0.12402703D+01  1  2  5  4  6  1       21 -.108613113504D-02 0.100000000000D+01
0.692553344517D-06 0.000000000000D+00 0.000000000000D+00 0.826996076278D-06 0.729671431390D-07  6 -1 2 25 24 1 -1 4 0.99428653D-03 0.47470482D+00 0.18247559D+05 0.18247559D+05 0.18247559D+05 0.12382347D+01  1  2 11  4  6  1       21 0.658780404192D-03 0.100000000000D+01
0.247095750830D-06 0.000000000000D+00 0.000000000000D+00 0.824283728957D-06 0.000000000000D+00  6 1 2 25 24 1 1 4 0.99666311D-03 0.47213528D+00 0.18247559D+05 0.18247559D+05 0.18247559D+05 0.12382347D+01  1  2 12  5  6  1       21 0.245751905172D-03 0.100000000000D+01
0.248715767108D-06 0.000000000000D+00 0.000000000000D+00 0.824283728957D-06 0.000000000000D+00  6 1 2 25 24 1 1 4 0.10291472D-02 0.47213528D+00 0.18247559D+05 0.18247559D+05 0.18247559D+05 0.12382347D+01  1  2 12  5  6  1       21 0.236494876344D-03 0.100000000000D+01
-.112008724076D-05 0.000000000000D+00 -.996014141596D-07 0.826996076278D-06 0.000000000000D+00  6 1 2 25 24 1 1 4 0.10013824D-02 0.47213528D+00 0.17497026D+05 0.17497026D+05 0.17497026D+05 0.12402703D+01  1  2  5  5  6  1       21 -.111419843640D-02 0.100000000000D+01
0.220448223293D-06 0.000000000000D+00 0.000000000000D+00 0.826996076278D-06 0.412791627622D-08  6 1 2 25 24 1 1 4 0.99428653D-03 0.47470482D+00 0.18247559D+05 0.18247559D+05 0.18247559D+05 0.12382347D+01  1  2 11  5  6  1       21 0.215071684888D-03 0.100000000000D+01
0.247095750830D-06 0.000000000000D+00 0.000000000000D+00 0.824283728957D-06 0.000000000000D+00  6 -2 2 25 24 1 -2 4 0.99666311D-03 0.47213528D+00 0.18247559D+05 0.18247559D+05 0.18247559D+05 0.12382347D+01  1  2 12  6  6  1       21 0.238540316981D-03 0.100000000000D+01
0.248715767108D-06 0.000000000000D+00 0.000000000000D+00 0.824283728957D-06 0.000000000000D+00  6 -2 2 25 24 1 -2 4 0.10291472D-02 0.47213528D+00 0.18247559D+05 0.18247559D+05 0.18247559D+05 0.12382347D+01  1  2 12  6  6  1       21 0.229335032710D-03 0.100000000000D+01
-.112008724076D-05 0.000000000000D+00 -.996014141596D-07 0.826996076278D-06 0.000000000000D+00  6 -2 2 25 24 1 -2 4 0.10013824D-02 0.47213528D+00 0.17497026D+05 0.17497026D+05 0.17497026D+05 0.12402703D+01  1  2  5  6  6  1       21 -.108130817863D-02 0.100000000000D+01
0.219242510488D-06 0.000000000000D+00 0.000000000000D+00 0.826996076278D-06 0.804636084886D-08  6 -2 2 25 24 1 -2 4 0.99428653D-03 0.47470482D+00 0.18247559D+05 0.18247559D+05 0.18247559D+05 0.12382347D+01  1  2 11  6  6  1       21 0.207633184784D-03 0.100000000000D+01
0.247095750830D-06 0.000000000000D+00 0.000000000000D+00 0.824283728957D-06 0.000000000000D+00  6 2 2 25 24 1 2 4 0.99666311D-03 0.47213528D+00 0.18247559D+05 0.18247559D+05 0.18247559D+05 0.12382347D+01  1  2 12  7  6  1       21 0.250048864796D-03 0.100000000000D+01
0.248715767108D-06 0.000000000000D+00 0.000000000000D+00 0.824283728957D-06 0.000000000000D+00  6 2 2 25 24 1 2 4 0.10291472D-02 0.47213528D+00 0.18247559D+05 0.18247559D+05 0.18247559D+05 0.12382347D+01  1  2 12  7  6  1       21 0.240756793308D-03 0.100000000000D+01
-.112008724076D-05 0.000000000000D+00 -.996014141596D-07 0.826996076278D-06 0.000000000000D+00  6 2 2 25 24 1 2 4 0.10013824D-02 0.47213528D+00 0.17497026D+05 0.17497026D+05 0.17497026D+05 0.12402703D+01  1  2  5  7  6  1       21 -.113379243061D-02 0.100000000000D+01
0.217826830348D-06 0.000000000000D+00 0.000000000000D+00 0.826996076278D-06 0.813631632446D-08  6 2 2 25 24 1 2 4 0.99428653D-03 0.47470482D+00 0.18247559D+05 0.18247559D+05 0.18247559D+05 0.12382347D+01  1  2 11  7  6  1       21 0.216221676267D-03 0.100000000000D+01
0.247095750830D-06 0.000000000000D+00 0.000000000000D+00 0.824283728957D-06 0.000000000000D+00  6 -3 2 25 24 1 -3 4 0.99666311D-03 0.47213528D+00 0.18247559D+05 0.18247559D+05 0.18247559D+05 0.12382347D+01  1  2 12  8  6  1       21 0.194704819003D-03 0.100000000000D+01
0.247095750830D-06 0.000000000000D+00 0.000000000000D+00 0.824283728957D-06 0.000000000000D+00  6 -4 2 25 24 1 -4 4 0.99666311D-03 0.47213528D+00 0.18247559D+05 0.18247559D+05 0.18247559D+05 0.12382347D+01  1  2 12  8  6  1       21 0.178694805256D-03 0.100000000000D+01
0.248715767108D-06 0.000000000000D+00 0.000000000000D+00 0.824283728957D-06 0.000000000000D+00  6 -3 2 25 24 1 -3 4 0.10291472D-02 0.47213528D+00 0.18247559D+05 0.18247559D+05 0.18247559D+05 0.12382347D+01  1  2 12  8  6  1       21 0.186816017605D-03 0.100000000000D+01
0.248715767108D-06 0.000000000000D+00 0.000000000000D+00 0.824283728957D-06 0.000000000000D+00  6 -4 2 25 24 1 -4 4 0.10291472D-02 0.47213528D+00 0.18247559D+05 0.18247559D+05 0.18247559D+05 0.12382347D+01  1  2 12  8  6  1       21 0.171384379663D-03 0.100000000000D+01
-.112008724076D-05 0.000000000000D+00 -.996014141596D-07 0.826996076278D-06 0.000000000000D+00  6 -3 2 25 24 1 -3 4 0.10013824D-02 0.47213528D+00 0.17497026D+05 0.17497026D+05 0.17497026D+05 0.12402703D+01  1  2  5  8  6  1       21 -.881650147790D-03 0.100000000000D+01
-.112008724076D-05 0.000000000000D+00 -.996014141596D-07 0.826996076278D-06 0.000000000000D+00  6 -4 2 25 24 1 -4 4 0.10013824D-02 0.47213528D+00 0.17497026D+05 0.17497026D+05 0.17497026D+05 0.12402703D+01  1  2  5  8  6  1       21 -.808779225953D-03 0.100000000000D+01
0.219390948889D-06 0.000000000000D+00 0.000000000000D+00 0.826996076278D-06 0.805180864698D-08  6 -3 2 25 24 1 -3 4 0.99428653D-03 0.47470482D+00 0.18247559D+05 0.18247559D+05 0.18247559D+05 0.12382347D+01  1  2 11  8  6  1       21 0.169617337267D-03 0.100000000000D+01
0.219390948889D-06 0.000000000000D+00 0.000000000000D+00 0.826996076278D-06 0.805180864698D-08  6 -4 2 25 24 1 -4 4 0.99428653D-03 0.47470482D+00 0.18247559D+05 0.18247559D+05 0.18247559D+05 0.12382347D+01  1  2 11  8  6  1       21 0.155674905750D-03 0.100000000000D+01
0.247095750830D-06 0.000000000000D+00 0.000000000000D+00 0.824283728957D-06 0.000000000000D+00  6 3 2 25 24 1 3 4 0.99666311D-03 0.47213528D+00 0.18247559D+05 0.18247559D+05 0.18247559D+05 0.12382347D+01  1  2 12  9  6  1       21 0.194697939154D-03 0.100000000000D+01
0.247095750830D-06 0.000000000000D+00 0.000000000000D+00 0.824283728957D-06 0.000000000000D+00  6 4 2 25 24 1 4 4 0.99666311D-03 0.47213528D+00 0.18247559D+05 0.18247559D+05 0.18247559D+05 0.12382347D+01  1  2 12  9  6  1       21 0.178694805256D-03 0.100000000000D+01
0.248715767108D-06 0.000000000000D+00 0.000000000000D+00 0.824283728957D-06 0.000000000000D+00  6 3 2 25 24 1 3 4 0.10291472D-02 0.47213528D+00 0.18247559D+05 0.18247559D+05 0.18247559D+05 0.12382347D+01  1  2 12  9  6  1       21 0.186809261595D-03 0.100000000000D+01
0.248715767108D-06 0.000000000000D+00 0.000000000000D+00 0.824283728957D-06 0.000000000000D+00  6 4 2 25 24 1 4 4 0.10291472D-02 0.47213528D+00 0.18247559D+05 0.18247559D+05 0.18247559D+05 0.12382347D+01  1  2 12  9  6  1       21 0.171384379663D-03 0.100000000000D+01
-.112008724076D-05 0.000000000000D+00 -.996014141596D-07 0.826996076278D-06 0.000000000000D+00  6 3 2 25 24 1 3 4 0.10013824D-02 0.47213528D+00 0.17497026D+05 0.17497026D+05 0.17497026D+05 0.12402703D+01  1  2  5  9  6  1       21 -.881618774752D-03 0.100000000000D+01
-.112008724076D-05 0.000000000000D+00 -.996014141596D-07 0.826996076278D-06 0.000000000000D+00  6 4 2 25 24 1 4 4 0.10013824D-02 0.47213528D+00 0.17497026D+05 0.17497026D+05 0.17497026D+05 0.12402703D+01  1  2  5  9  6  1       21 -.808779225953D-03 0.100000000000D+01
0.219390948889D-06 0.000000000000D+00 0.000000000000D+00 0.826996076278D-06 0.805180864698D-08  6 3 2 25 24 1 3 4 0.99428653D-03 0.47470482D+00 0.18247559D+05 0.18247559D+05 0.18247559D+05 0.12382347D+01  1  2 11  9  6  1       21 0.169611354234D-03 0.100000000000D+01
0.219390948889D-06 0.000000000000D+00 0.000000000000D+00 0.826996076278D-06 0.805180864698D-08  6 4 2 25 24 1 4 4 0.99428653D-03 0.47470482D+00 0.18247559D+05 0.18247559D+05 0.18247559D+05 0.12382347D+01  1  2 11  9  6  1       21 0.155674905750D-03 0.100000000000D+01
  </mgrwgt>
  </event>
  <event>
  5     66 -.46027262E-03 0.25133420E+02 0.75467711E-02 0.11541996E+00
       21 -1    0    0  501  502 0.00000000E+00 0.00000000E+00 0.17809653E+02 0.17825438E+02 0.75000000E+00 0.0000E+00 0.9000E+01
        2 -1    0    0  502    0 0.00000000E+00 0.00000000E+00 -.96139244E+03 0.96139249E+03 0.32000000E+00 0.0000E+00 0.9000E+01
       25  1    1    2    0    0 0.26609054E+02 0.30490211E+02 -.52395591E+03 0.54017820E+03 0.12500000E+03 0.0000E+00 0.9000E+01
       24  1    1    2    0    0 -.47680347E+02 -.16791988E+02 -.38310322E+03 0.39470328E+03 0.80419002E+02 0.0000E+00 0.9000E+01
        1  1    1    2  501    0 0.21071293E+02 -.13698224E+02 -.36523659E+02 0.44336450E+02 0.32000000E+00 0.0000E+00 0.9000E+01
#aMCatNLO 1  0  0  1  2 0.49612960D+02 0.00000000D+00  -5  6  0 0.00000000D+00 0.00000000D+00 0.00000000D+00 0.00000000D+00 0.00000000D+00
  <mgrwgt>
 -.2976298638D+00   12    2    0
 0.130880937640148D+03 0.000000000000000D+00 0.000000000000000D+00 0.130880937640148D+03
 0.130880937640148D+03 0.000000000000000D+00 0.000000000000000D+00 -.130880937640148D+03
 0.132014680716399D+03 0.266085885459544D+02 0.304905137037114D+02 -.128525294914479D+02
 0.955485574012248D+02 -.476806833619030D+02 -.167917687643075D+02 -.103392360932801D+02
 0.341986371626728D+02 0.210720948159486D+02 -.136987449394040D+02 0.231917655847280D+02
 0.000000000000000D+00 -.000000000000000D+00 0.000000000000000D+00 0.000000000000000D+00
 0.113105211228813D+04 0.000000000000000D+00 0.000000000000000D+00 0.113105211228813D+04
 0.145542351055799D+03 0.000000000000000D+00 0.000000000000000D+00 -.145542351055799D+03
 0.141491952463690D+03 0.640562520256686D+02 -.112508521491788D+02 -.128525294914479D+02
 0.956551187073932D+02 -.215016805503505D+02 -.459724233761181D+02 -.103392360932801D+02
 0.475883066567961D+02 0.322701045811053D+02 -.261807045330873D+02 0.231917655847280D+02
 0.991859085516053D+03 -.748246760564234D+02 0.834039800583842D+02 0.985509761232334D+03
0.915063838405D-06 0.000000000000D+00 0.000000000000D+00 0.145260148680D-05 0.000000000000D+00  6 21 2 25 24 1 21 2 0.27411649D-02 0.14790775D+00 0.15814129D+05 0.15814129D+05 0.15814129D+05 0.12452142D+01  1  2  2  1  6  1       21 0.363161330854D-01 0.100000000000D+01
0.530563510613D-07 0.482892454247D-07 -.184725024816D-08 0.145260148680D-05 0.000000000000D+00  6 21 2 25 24 1 21 4 0.27411649D-02 0.14790775D+00 0.15814129D+05 0.15814129D+05 0.15814129D+05 0.12452142D+01  1  2  3  1  6  1       21 0.326492886029D-02 0.100000000000D+01
0.877168407376D-07 0.000000000000D+00 0.000000000000D+00 0.145260148680D-05 0.000000000000D+00  6 21 2 25 24 1 21 4 0.27411649D-02 0.14790775D+00 0.15814129D+05 0.15814129D+05 0.15814129D+05 0.12452142D+01  1  2 15  1  6  1       21 0.539783153437D-02 0.100000000000D+01
-.216716886055D-03 0.000000000000D+00 -.236867722337D-04 0.145260148680D-05 0.000000000000D+00  6 21 2 25 24 1 21 4 0.25856080D-01 0.14790775D+00 0.15814129D+05 0.15814129D+05 0.15814129D+05 0.12452142D+01  1  2  5  1  6  1       21 -.268575024257D+00 0.100000000000D+01
-.927894420525D-04 0.000000000000D+00 -.103321990617D-04 0.145260148680D-05 0.000000000000D+00  6 -1 2 25 24 1 -1 4 0.25856080D-01 0.14790775D+00 0.15814129D+05 0.15814129D+05 0.15814129D+05 0.12452142D+01  1  2  5  4  6  1       21 -.954097931524D-02 0.100000000000D+01
-.927894420525D-04 0.000000000000D+00 -.103321990617D-04 0.145260148680D-05 0.000000000000D+00  6 1 2 25 24 1 1 4 0.25856080D-01 0.14790775D+00 0.15814129D+05 0.15814129D+05 0.15814129D+05 0.12452142D+01  1  2  5  5  6  1       21 -.157613754261D-01 0.100000000000D+01
-.927894420525D-04 0.000000000000D+00 -.103321990617D-04 0.145260148680D-05 0.000000000000D+00  6 -2 2 25 24 1 -2 4 0.25856080D-01 0.14790775D+00 0.15814129D+05 0.15814129D+05 0.15814129D+05 0.12452142D+01  1  2  5  6  6  1       21 -.850981377911D-02 0.100000000000D+01
-.927894420525D-04 0.000000000000D+00 -.103321990617D-04 0.145260148680D-05 0.000000000000D+00  6 2 2 25 24 1 2 4 0.25856080D-01 0.14790775D+00 0.15814129D+05 0.15814129D+05 0.15814129D+05 0.12452142D+01  1  2  5  7  6  1       21 -.202125236376D-01 0.100000000000D+01
-.927894420525D-04 0.000000000000D+00 -.103321990617D-04 0.145260148680D-05 0.000000000000D+00  6 -3 2 25 24 1 -3 4 0.25856080D-01 0.14790775D+00 0.15814129D+05 0.15814129D+05 0.15814129D+05 0.12452142D+01  1  2  5  8  6  1       21 -.543236504092D-02 0.100000000000D+01
-.927894420525D-04 0.000000000000D+00 -.103321990617D-04 0.145260148680D-05 0.000000000000D+00  6 -4 2 25 24 1 -4 4 0.25856080D-01 0.14790775D+00 0.15814129D+05 0.15814129D+05 0.15814129D+05 0.12452142D+01  1  2  5  8  6  1       21 -.457226314028D-02 0.100000000000D+01
-.927894420525D-04 0.000000000000D+00 -.103321990617D-04 0.145260148680D-05 0.000000000000D+00  6 3 2 25 24 1 3 4 0.25856080D-01 0.14790775D+00 0.15814129D+05 0.15814129D+05 0.15814129D+05 0.12452142D+01  1  2  5  9  6  1       21 -.543214954421D-02 0.100000000000D+01
-.927894420525D-04 0.000000000000D+00 -.103321990617D-04 0.145260148680D-05 0.000000000000D+00  6 4 2 25 24 1 4 4 0.25856080D-01 0.14790775D+00 0.15814129D+05 0.15814129D+05 0.15814129D+05 0.12452142D+01  1  2  5  9  6  1       21 -.457226314028D-02 0.100000000000D+01
  </mgrwgt>
  </event>
  <event>
  5     66 -.46027262E-03 0.48758166E+02 0.75467711E-02 0.10616169E+00
       21 -1    0    0  501  502 0.00000000E+00 0.00000000E+00 0.13798088E+02 0.13818456E+02 0.75000000E+00 0.0000E+00 0.9000E+01
        2 -1    0    0  502    0 0.00000000E+00 0.00000000E+00 -.15621777E+04 0.15621778E+04 0.32000000E+00 0.0000E+00 0.9000E+01
       25  1    1    2    0    0 0.53387090E+02 0.39799197E+02 -.58464257E+03 0.60155307E+03 0.12500000E+03 0.0000E+00 0.9000E+01
       24  1    1    2    0    0 -.55695751E+01 -.30272174E+02 -.76416697E+03 0.76900312E+03 0.80419002E+02 0.0000E+00 0.9000E+01
        1  1    1    2  501    0 -.47817514E+02 -.95270233E+01 -.19957011E+03 0.20544004E+03 0.32000000E+00 0.0000E+00 0.9000E+01
#aMCatNLO 1  0  0  1  2 0.49612960D+02 0.00000000D+00  -5  6  0 0.00000000D+00 0.00000000D+00 0.00000000D+00 0.00000000D+00 0.00000000D+00
  <mgrwgt>
 -.1083345432D+01   12    2    0
 0.146871173308582D+03 0.000000000000000D+00 0.000000000000000D+00 0.146871173308582D+03
 0.146871173308582D+03 0.000000000000000D+00 0.000000000000000D+00 -.146871173308582D+03
 0.145694881567114D+03 0.533875703018701D+02 0.397992926483973D+02 0.341728277554761D+02
 0.977912462559388D+02 -.556925236010549D+01 -.302721092252465D+02 -.463518577958138D+02
 0.502562187941103D+02 -.478183179417646D+02 -.952718342315080D+01 0.121790300403376D+02
 0.000000000000000D+00 0.000000000000000D+00 -.000000000000000D+00 0.000000000000000D+00
 0.591877362542952D+04 0.000000000000000D+00 0.000000000000000D+00 0.591877362542952D+04
 0.213571886632550D+03 0.000000000000000D+00 0.000000000000000D+00 -.213571886632550D+03
 0.233289260265475D+03 0.127943845891765D+02 0.193564977517606D+03 0.341728277554761D+02
 0.111225468353561D+03 -.279571398114714D+02 0.545324900269269D+02 -.463518577958138D+02
 0.747880613996206D+02 -.612118748955446D+02 0.412071805267258D+02 0.121790300403376D+02
 0.571304272204341D+04 0.763746301178394D+02 -.289304648071258D+03 0.570520173879697D+04
0.874364104996D-06 0.000000000000D+00 0.000000000000D+00 0.378619440506D-06 0.000000000000D+00  6 21 2 25 24 1 21 2 0.21243521D-02 0.24033661D+00 0.19112647D+05 0.19112647D+05 0.19112647D+05 0.12360018D+01  1  2  2  1  6  1       21 0.242462991000D-01 0.100000000000D+01
-.285719496581D-07 0.461414614857D-07 -.176508921252D-08 0.378619440506D-06 0.000000000000D+00  6 21 2 25 24 1 21 4 0.21243521D-02 0.24033661D+00 0.19112647D+05 0.19112647D+05 0.19112647D+05 0.12360018D+01  1  2  3  1  6  1       21 -.121040636678D-02 0.100000000000D+01
0.989035040686D-07 0.000000000000D+00 0.000000000000D+00 0.378619440506D-06 0.000000000000D+00  6 21 2 25 24 1 21 4 0.21243521D-02 0.24033661D+00 0.19112647D+05 0.19112647D+05 0.19112647D+05 0.12360018D+01  1  2 15  1  6  1       21 0.418989367033D-02 0.100000000000D+01
-.282558271464D-01 0.000000000000D+00 -.841558269378D-03 0.378619440506D-06 0.000000000000D+00  6 21 2 25 24 1 21 4 0.11797276D+00 0.24033661D+00 0.19112647D+05 0.19112647D+05 0.19112647D+05 0.12360018D+01  1  2  5  1  6  1       21 -.630189111750D+00 0.100000000000D+01
-.125540138512D-01 0.000000000000D+00 -.373840722262D-03 0.378619440506D-06 0.000000000000D+00  6 -1 2 25 24 1 -1 4 0.11797276D+00 0.24033661D+00 0.19112647D+05 0.19112647D+05 0.19112647D+05 0.12360018D+01  1  2  5  4  6  1       21 -.323068384534D-01 0.100000000000D+01
-.125540138512D-01 0.000000000000D+00 -.373840722262D-03 0.378619440506D-06 0.000000000000D+00  6 1 2 25 24 1 1 4 0.11797276D+00 0.24033661D+00 0.19112647D+05 0.19112647D+05 0.19112647D+05 0.12360018D+01  1  2  5  5  6  1       21 -.136507699638D+00 0.100000000000D+01
-.125540138512D-01 0.000000000000D+00 -.373840722262D-03 0.378619440506D-06 0.000000000000D+00  6 -2 2 25 24 1 -2 4 0.11797276D+00 0.24033661D+00 0.19112647D+05 0.19112647D+05 0.19112647D+05 0.12360018D+01  1  2  5  6  6  1       21 -.236265819024D-01 0.100000000000D+01
-.125540138512D-01 0.000000000000D+00 -.373840722262D-03 0.378619440506D-06 0.000000000000D+00  6 2 2 25 24 1 2 4 0.11797276D+00 0.24033661D+00 0.19112647D+05 0.19112647D+05 0.19112647D+05 0.12360018D+01  1  2  5  7  6  1       21 -.234414141951D+00 0.100000000000D+01
-.125540138512D-01 0.000000000000D+00 -.373840722262D-03 0.378619440506D-06 0.000000000000D+00  6 -3 2 25 24 1 -3 4 0.11797276D+00 0.24033661D+00 0.19112647D+05 0.19112647D+05 0.19112647D+05 0.12360018D+01  1  2  5  8  6  1       21 -.149180239670D-01 0.100000000000D+01
-.125540138512D-01 0.000000000000D+00 -.373840722262D-03 0.378619440506D-06 0.000000000000D+00  6 -4 2 25 24 1 -4 4 0.11797276D+00 0.24033661D+00 0.19112647D+05 0.19112647D+05 0.19112647D+05 0.12360018D+01  1  2  5  8  6  1       21 -.118258483146D-01 0.100000000000D+01
-.125540138512D-01 0.000000000000D+00 -.373840722262D-03 0.378619440506D-06 0.000000000000D+00  6 3 2 25 24 1 3 4 0.11797276D+00 0.24033661D+00 0.19112647D+05 0.19112647D+05 0.19112647D+05 0.12360018D+01  1  2  5  9  6  1       21 -.149571244476D-01 0.100000000000D+01
-.125540138512D-01 0.000000000000D+00 -.373840722262D-03 0.378619440506D-06 0.000000000000D+00  6 4 2 25 24 1 4 4 0.11797276D+00 0.24033661D+00 0.19112647D+05 0.19112647D+05 0.19112647D+05 0.12360018D+01  1  2  5  9  6  1       21 -.118258483146D-01 0.100000000000D+01
  </mgrwgt>
  </event>
  <event>
  6     66 -.46027262E-03 0.10667244E+02 0.75467711E-02 0.12408089E+00
       21 -1    0    0  501  502 0.00000000E+00 0.00000000E+00 0.46923598E+01 0.47519196E+01 0.75000000E+00 0.0000E+00 0.9000E+01
        2 -1    0    0  502    0 -.00000000E+00 -.00000000E+00 -.34095776E+04 0.34095776E+04 0.32000000E+00 0.0000E+00 0.9000E+01
       25  1    1    2    0    0 -.12866525E+02 0.25946398E+02 -.21416678E+04 0.21455080E+04 0.12500000E+03 0.0000E+00 0.9000E+01
       24  1    1    2    0    0 0.14813512E+02 -.42694845E+02 -.10614838E+04 0.10654846E+04 0.80419002E+02 0.0000E+00 0.9000E+01
        1  1    1    2  503    0 -.48089368E+01 0.12657454E+02 -.59844371E+02 0.61357870E+02 0.32000000E+00 0.0000E+00 0.9000E+01
       21  1    1    2  501  503 0.28619504E+01 0.40909933E+01 -.14188925E+03 0.14197904E+03 0.75000000E+00 0.0000E+00 0.9000E+01
#aMCatNLO 2  0  0  5  1 0.66638373D+01 0.00000000D+00  -5  6  0 0.00000000D+00 0.00000000D+00 0.00000000D+00 0.00000000D+00 0.00000000D+00
  <mgrwgt>
 -.1898735719D+01    2    2    0
 0.126888407291266D+03 0.000000000000000D+00 0.000000000000000D+00 0.126888407291266D+03
 0.126888407291266D+03 -.000000000000000D+00 -.000000000000000D+00 -.126888407291266D+03
 0.131337752290987D+03 -.125326025655115D+02 0.230739157410538D+02 -.305799519646183D+02
 0.940801828824308D+02 0.150517254083026D+02 -.447440187250089D+02 0.124612682897932D+02
 0.283588794091138D+02 -.251912284279106D+01 0.216701029839551D+02 0.181186836748250D+02
 0.000000000000000D+00 0.000000000000000D+00 0.000000000000000D+00 -.000000000000000D+00
 0.126888407291266D+03 0.000000000000000D+00 0.000000000000000D+00 0.126888407291266D+03
 0.126888407291266D+03 -.000000000000000D+00 -.000000000000000D+00 -.126888407291266D+03
 0.131371058609973D+03 -.128750629710064D+02 0.260198428427186D+02 -.281168200947015D+02
 0.933114790351511D+02 0.148074464885870D+02 -.426426724718102D+02 0.142182340080077D+02
 0.224214962838630D+02 -.488801888280652D+01 0.123372026394792D+02 0.180727473849727D+02
 0.667278065354453D+01 0.295563536522593D+01 0.428562698961237D+01 -.417416129827897D+01
-.277995236842D-04 0.000000000000D+00 0.000000000000D+00 0.158701785450D-05 0.000000000000D+00  6 21 2 25 24 1 21 4 0.72648419D-03 0.52455498D+00 0.14283242D+05 0.14283242D+05 0.14283242D+05 0.12502540D+01  1  2 13  3  6  5        1 -.668135417436D+00 0.100000000000D+01
-.514949347278D-04 0.000000000000D+00 0.000000000000D+00 0.158306979235D-05 0.000000000000D+00  6 21 2 25 24 1 21 4 0.72648419D-03 0.52455498D+00 0.14737403D+05 0.14737403D+05 0.14737403D+05 0.12486979D+01  1  2  8  3  6  5        1 -.123060030180D+01 0.100000000000D+01
  </mgrwgt>
  </event>
  <event>
  5     66 0.46027262E-03 0.36733077E+02 0.75467711E-02 0.10159737E+00
       21 -1    0    0  501  502 0.00000000E+00 0.00000000E+00 0.11576266E+03 0.11576509E+03 0.75000000E+00 0.0000E+00 0.9000E+01
        4 -1    0    0  502    0 0.00000000E+00 0.00000000E+00 -.31890491E+03 0.31890867E+03 0.15500000E+01 0.0000E+00 0.9000E+01
       25  1    1    2    0    0 -.38438584E+02 0.72457043E+02 -.20701974E+03 0.25536194E+03 0.12500000E+03 0.0000E+00 0.9000E+01
       24  1    1    2    0    0 0.74106436E+02 -.63677940E+02 -.29208451E+02 0.12987299E+03 0.80419002E+02 0.0000E+00 0.9000E+01
        3  1    1    2  501    0 -.35667852E+02 -.87791023E+01 0.33085942E+02 0.49438830E+02 0.50000000E+00 0.0000E+00 0.9000E+01
#aMCatNLO 1  0  0  2  1 0.12399131D+02 0.00000000D+00  -5  6  0 0.00000000D+00 0.00000000D+00 0.00000000D+00 0.00000000D+00 0.00000000D+00
  <mgrwgt>
 0.1179809780D-01    5    2    0
 0.192142203014161D+03 0.000000000000000D+00 0.000000000000000D+00 0.192142203014161D+03
 0.192142203014161D+03 0.000000000000000D+00 0.000000000000000D+00 -.192142203014161D+03
 0.179410893273556D+03 -.384381979983745D+02 0.724571376629189D+02 -.991752830172405D+02
 0.131462285816667D+03 0.741067192792325D+02 -.636778706361067D+02 0.356151595067720D+02
 0.734112269380992D+02 -.356685212808580D+02 -.877926702681219D+01 0.635601235104686D+02
 0.000000000000000D+00 -.000000000000000D+00 -.000000000000000D+00 -.000000000000000D+00
 0.370820625422997D+03 0.000000000000000D+00 0.000000000000000D+00 0.370820625422997D+03
 0.927912133957847D+03 0.000000000000000D+00 0.000000000000000D+00 -.927912133957847D+03
 0.333219199801027D+03 0.540047616843555D+02 0.287502667935279D+03 -.991752830172405D+02
 0.166990567120567D+03 0.127926940573300D+03 0.615214746388660D+02 0.356151595067720D+02
 0.865276989333711D+02 -.682661778011213D+01 0.583142407283362D+02 0.635601235104686D+02
 0.711995293525879D+03 -.175105084477543D+03 -.407338383302481D+03 -.557091508534850D+03
0.125596350710D-04 0.000000000000D+00 0.000000000000D+00 0.732268554832D-06 0.000000000000D+00  6 21 4 25 24 3 21 2 0.17810116D-01 0.49062770D-01 0.24458883D+05 0.24458883D+05 0.24458883D+05 0.12243178D+01  1  2  2  2  6  2        4 0.903972995075D-02 0.100000000000D+01
0.771625029459D-06 0.662790151825D-06 -.253542846170D-07 0.732268554832D-06 0.000000000000D+00  6 21 4 25 24 3 21 4 0.17810116D-01 0.49062770D-01 0.24458883D+05 0.24458883D+05 0.24458883D+05 0.12243178D+01  1  2  3  2  6  2        4 0.832478634507D-03 0.100000000000D+01
0.113490044471D-05 0.000000000000D+00 0.000000000000D+00 0.732268554832D-06 0.000000000000D+00  6 21 4 25 24 3 21 4 0.17810116D-01 0.49062770D-01 0.24458883D+05 0.24458883D+05 0.24458883D+05 0.12243178D+01  1  2 15  2  6  2        4 0.122440348154D-02 0.100000000000D+01
0.243193667997D-04 0.000000000000D+00 -.186058317450D-04 0.732268554832D-06 0.000000000000D+00  6 21 4 25 24 3 21 4 0.17810116D-01 0.33953339D+00 0.24458883D+05 0.24458883D+05 0.24458883D+05 0.12243178D+01  1  2  5  2  6  2        4 0.144968284748D-03 0.100000000000D+01
0.404312040216D-05 0.000000000000D+00 -.440130590195D-05 0.732268554832D-06 0.000000000000D+00  6 21 21 25 24 3 -4 4 0.17810116D-01 0.33953339D+00 0.24458883D+05 0.24458883D+05 0.24458883D+05 0.12243178D+01  1  2  5 10  6  2        4 0.556517452915D-03 0.100000000000D+01
  </mgrwgt>
  </event>
  <event>
  5     66 0.46027262E-03 0.22660694E+02 0.75467711E-02 0.12295263E+00
       21 -1    0    0  501  502 0.00000000E+00 0.00000000E+00 0.67166216E+01 0.67583656E+01 0.75000000E+00 0.0000E+00 0.9000E+01
        2 -1    0    0  502    0 0.00000000E+00 0.00000000E+00 -.31052439E+04 0.31052439E+04 0.32000000E+00 0.0000E+00 0.9000E+01
       25  1    1    2    0    0 0.42952507E+01 0.41677149E+02 -.17162269E+04 0.17212830E+04 0.12500000E+03 0.0000E+00 0.9000E+01
       24  1    1    2    0    0 0.38849746E+01 -.62809453E+02 -.13274462E+04 0.13313680E+04 0.80419002E+02 0.0000E+00 0.9000E+01
        1  1    1    2  501    0 -.81802253E+01 0.21132304E+02 -.54854215E+02 0.59351307E+02 0.32000000E+00 0.0000E+00 0.9000E+01
#aMCatNLO 1  0  0  1  2 0.57771475D+00 0.00000000D+00  -5  6  0 0.00000000D+00 0.00000000D+00 0.00000000D+00 0.00000000D+00 0.00000000D+00
  <mgrwgt>
 0.3628539258D+00   31    2    0
 0.144643447443745D+03 0.000000000000000D+00 0.000000000000000D+00 0.144643447443745D+03
 0.144643447443745D+03 0.000000000000000D+00 0.000000000000000D+00 -.144643447443745D+03
 0.134333084580031D+03 0.429532569292138D+01 0.416769555764781D+02 -.257868021253852D+02
 0.104021428555508D+03 0.388503262145285D+01 -.628096033891572D+02 -.198267972195483D+02
 0.509323817519503D+02 -.818035831437424D+01 0.211326478126791D+02 0.456135993449335D+02
 0.000000000000000D+00 0.000000000000000D+00 -.000000000000000D+00 0.000000000000000D+00
 0.145177506789918D+03 0.000000000000000D+00 0.000000000000000D+00 0.145177506789918D+03
 0.144800054962203D+03 0.000000000000000D+00 0.000000000000000D+00 -.144800054962203D+03
 0.134361614594488D+03 0.405342023870575D+01 0.417929910027089D+02 -.257868021253852D+02
 0.103960392064149D+03 0.369778688515750D+01 -.627197867337561D+02 -.198267972195483D+02
 0.509654650852709D+02 -.827209680046451D+01 0.211766522538760D+02 0.456135993449335D+02
 0.690090008212910D+00 0.520889676601262D+00 -.249856522828860D+00 0.377451827715005D+00
0.278074989901D-05 0.000000000000D+00 0.000000000000D+00 0.249352150500D-05 0.000000000000D+00  6 21 2 25 24 1 21 2 0.10365387D-02 0.47773304D+00 0.16462165D+05 0.16462165D+05 0.16462165D+05 0.12432435D+01  1  2  2  1  6  1       21 0.369837146206D-01 0.100000000000D+01
0.318212067026D-06 0.146744203740D-06 -.561353287654D-08 0.249352150500D-05 0.000000000000D+00  6 21 2 25 24 1 21 4 0.10365387D-02 0.47773304D+00 0.16462165D+05 0.16462165D+05 0.16462165D+05 0.12432435D+01  1  2  3  1  6  1       21 0.654150458665D-02 0.100000000000D+01
0.258251484376D-06 0.000000000000D+00 0.000000000000D+00 0.249352150500D-05 0.000000000000D+00  6 21 2 25 24 1 21 4 0.10365387D-02 0.47773304D+00 0.16462165D+05 0.16462165D+05 0.16462165D+05 0.12432435D+01  1  2 15  1  6  1       21 0.530889128543D-02 0.100000000000D+01
-.773067609516D-04 0.000000000000D+00 0.000000000000D+00 0.249352150500D-05 0.000000000000D+00  6 21 2 25 24 1 21 4 0.10365387D-02 0.47773304D+00 0.16462165D+05 0.16462165D+05 0.16462165D+05 0.12432435D+01  1  2  4  1  6  1       21 -.158919973108D+01 0.100000000000D+01
-.200905599679D-02 0.000000000000D+00 -.170436700604D-03 0.249352150500D-05 0.000000000000D+00  6 21 2 25 24 1 21 4 0.10419441D-02 0.47773304D+00 0.16462165D+05 0.16462165D+05 0.16462165D+05 0.12432435D+01  1  2  5  1  6  1       21 -.409627774931D+02 0.100000000000D+01
0.200983427922D-02 0.000000000000D+00 0.170427479182D-03 0.249352150500D-05 0.000000000000D+00  6 21 2 25 24 1 21 4 0.10365387D-02 0.47773304D+00 0.16462165D+05 0.16462165D+05 0.16462165D+05 0.12432435D+01  1  2  6  1  6  1       21 0.413162840706D+02 0.100000000000D+01
0.767301305006D-04 0.000000000000D+00 0.000000000000D+00 0.249352150500D-05 0.719170180870D-04  6 21 2 25 24 1 21 4 0.10403659D-02 0.47825029D+00 0.16541664D+05 0.16541664D+05 0.16541664D+05 0.12430078D+01  1  2 11  1  6  1       21 0.155970563479D+01 0.100000000000D+01
0.925008083919D-15 0.000000000000D+00 0.000000000000D+00 0.249257591537D-05 0.000000000000D+00  6 -1 2 25 24 1 -1 4 0.10409257D-02 0.47773304D+00 0.16541664D+05 0.16541664D+05 0.16541664D+05 0.12430078D+01  1  2 12  4  6  1       21 0.815545964191D-12 0.100000000000D+01
-.214356193025D-05 0.000000000000D+00 -.198535568440D-06 0.249352150500D-05 0.000000000000D+00  6 -1 2 25 24 1 -1 4 0.10419441D-02 0.47773304D+00 0.16462165D+05 0.16462165D+05 0.16462165D+05 0.12432435D+01  1  2  5  4  6  1       21 -.188877587034D-02 0.100000000000D+01
0.175549747848D-05 0.000000000000D+00 0.000000000000D+00 0.249352150500D-05 0.155867871659D-05  6 -1 2 25 24 1 -1 4 0.10403659D-02 0.47825029D+00 0.16541664D+05 0.16541664D+05 0.16541664D+05 0.12430078D+01  1  2 11  4  6  1       21 0.154188961368D-02 0.100000000000D+01
0.925008083919D-15 0.000000000000D+00 0.000000000000D+00 0.249257591537D-05 0.000000000000D+00  6 1 2 25 24 1 1 4 0.10409257D-02 0.47773304D+00 0.16541664D+05 0.16541664D+05 0.16541664D+05 0.12430078D+01  1  2 12  5  6  1       21 0.837477953160D-12 0.100000000000D+01
-.214356193025D-05 0.000000000000D+00 -.198535568440D-06 0.249352150500D-05 0.000000000000D+00  6 1 2 25 24 1 1 4 0.10419441D-02 0.47773304D+00 0.16462165D+05 0.16462165D+05 0.16462165D+05 0.12432435D+01  1  2  5  5  6  1       21 -.193962639362D-02 0.100000000000D+01
0.370754208861D-06 0.000000000000D+00 0.000000000000D+00 0.249352150500D-05 0.535993031035D-07  6 1 2 25 24 1 1 4 0.10403659D-02 0.47825029D+00 0.16541664D+05 0.16541664D+05 0.16541664D+05 0.12430078D+01  1  2 11  5  6  1       21 0.334393710871D-03 0.100000000000D+01
0.925008083919D-15 0.000000000000D+00 0.000000000000D+00 0.249257591537D-05 0.000000000000D+00  6 -2 2 25 24 1 -2 4 0.10409257D-02 0.47773304D+00 0.16541664D+05 0.16541664D+05 0.16541664D+05 0.12430078D+01  1  2 12  6  6  1       21 0.811762732691D-12 0.100000000000D+01
-.214356193025D-05 0.000000000000D+00 -.198535568440D-06 0.249352150500D-05 0.000000000000D+00  6 -2 2 25 24 1 -2 4 0.10419441D-02 0.47773304D+00 0.16462165D+05 0.16462165D+05 0.16462165D+05 0.12432435D+01  1  2  5  6  6  1       21 -.188000349799D-02 0.100000000000D+01
0.376980831022D-06 0.000000000000D+00 0.000000000000D+00 0.249352150500D-05 0.107481415937D-06  6 -2 2 25 24 1 -2 4 0.10403659D-02 0.47825029D+00 0.16541664D+05 0.16541664D+05 0.16541664D+05 0.12430078D+01  1  2 11  6  6  1       21 0.329574943335D-03 0.100000000000D+01
0.925008083919D-15 0.000000000000D+00 0.000000000000D+00 0.249257591537D-05 0.000000000000D+00  6 2 2 25 24 1 2 4 0.10409257D-02 0.47773304D+00 0.16541664D+05 0.16541664D+05 0.16541664D+05 0.12430078D+01  1  2 12  7  6  1       21 0.852778810591D-12 0.100000000000D+01
-.214356193025D-05 0.000000000000D+00 -.198535568440D-06 0.249352150500D-05 0.000000000000D+00  6 2 2 25 24 1 2 4 0.10419441D-02 0.47773304D+00 0.16462165D+05 0.16462165D+05 0.16462165D+05 0.12432435D+01  1  2  5  7  6  1       21 -.197510156173D-02 0.100000000000D+01
0.339885480133D-06 0.000000000000D+00 0.000000000000D+00 0.249352150500D-05 0.112323129185D-06  6 2 2 25 24 1 2 4 0.10403659D-02 0.47825029D+00 0.16541664D+05 0.16541664D+05 0.16541664D+05 0.12430078D+01  1  2 11  7  6  1       21 0.312150261046D-03 0.100000000000D+01
0.925008083919D-15 0.000000000000D+00 0.000000000000D+00 0.249257591537D-05 0.000000000000D+00  6 -3 2 25 24 1 -3 4 0.10409257D-02 0.47773304D+00 0.16541664D+05 0.16541664D+05 0.16541664D+05 0.12430078D+01  1  2 12  8  6  1       21 0.659556391257D-12 0.100000000000D+01
0.925008083919D-15 0.000000000000D+00 0.000000000000D+00 0.249257591537D-05 0.000000000000D+00  6 -4 2 25 24 1 -4 4 0.10409257D-02 0.47773304D+00 0.16541664D+05 0.16541664D+05 0.16541664D+05 0.12430078D+01  1  2 12  8  6  1       21 0.604405867514D-12 0.100000000000D+01
-.214356193025D-05 0.000000000000D+00 -.198535568440D-06 0.249352150500D-05 0.000000000000D+00  6 -3 2 25 24 1 -3 4 0.10419441D-02 0.47773304D+00 0.16462165D+05 0.16462165D+05 0.16462165D+05 0.12432435D+01  1  2  5  8  6  1       21 -.152726450519D-02 0.100000000000D+01
-.214356193025D-05 0.000000000000D+00 -.198535568440D-06 0.249352150500D-05 0.000000000000D+00  6 -4 2 25 24 1 -4 4 0.10419441D-02 0.47773304D+00 0.16462165D+05 0.16462165D+05 0.16462165D+05 0.12432435D+01  1  2  5  8  6  1       21 -.139947352102D-02 0.100000000000D+01
0.376940096210D-06 0.000000000000D+00 0.000000000000D+00 0.249352150500D-05 0.107469801990D-06  6 -3 2 25 24 1 -3 4 0.10403659D-02 0.47825029D+00 0.16541664D+05 0.16541664D+05 0.16541664D+05 0.12430078D+01  1  2 11  8  6  1       21 0.267759468912D-03 0.100000000000D+01
0.376940096210D-06 0.000000000000D+00 0.000000000000D+00 0.249352150500D-05 0.107469801990D-06  6 -4 2 25 24 1 -4 4 0.10403659D-02 0.47825029D+00 0.16541664D+05 0.16541664D+05 0.16541664D+05 0.12430078D+01  1  2 11  8  6  1       21 0.245371776744D-03 0.100000000000D+01
0.925008083919D-15 0.000000000000D+00 0.000000000000D+00 0.249257591537D-05 0.000000000000D+00  6 3 2 25 24 1 3 4 0.10409257D-02 0.47773304D+00 0.16541664D+05 0.16541664D+05 0.16541664D+05 0.12430078D+01  1  2 12  9  6  1       21 0.659532135404D-12 0.100000000000D+01
0.925008083919D-15 0.000000000000D+00 0.000000000000D+00 0.249257591537D-05 0.000000000000D+00  6 4 2 25 24 1 4 4 0.10409257D-02 0.47773304D+00 0.16541664D+05 0.16541664D+05 0.16541664D+05 0.12430078D+01  1  2 12  9  6  1       21 0.604405867514D-12 0.100000000000D+01
-.214356193025D-05 0.000000000000D+00 -.198535568440D-06 0.249352150500D-05 0.000000000000D+00  6 3 2 25 24 1 3 4 0.10419441D-02 0.47773304D+00 0.16462165D+05 0.16462165D+05 0.16462165D+05 0.12432435D+01  1  2  5  9  6  1       21 -.152720827484D-02 0.100000000000D+01
-.214356193025D-05 0.000000000000D+00 -.198535568440D-06 0.249352150500D-05 0.000000000000D+00  6 4 2 25 24 1 4 4 0.10419441D-02 0.47773304D+00 0.16462165D+05 0.16462165D+05 0.16462165D+05 0.12432435D+01  1  2  5  9  6  1       21 -.139947352102D-02 0.100000000000D+01
0.376940096210D-06 0.000000000000D+00 0.000000000000D+00 0.249352150500D-05 0.107469801990D-06  6 3 2 25 24 1 3 4 0.10403659D-02 0.47825029D+00 0.16541664D+05 0.16541664D+05 0.16541664D+05 0.12430078D+01  1  2 11  9  6  1       21 0.267749625605D-03 0.100000000000D+01
0.376940096210D-06 0.000000000000D+00 0.000000000000D+00 0.249352150500D-05 0.107469801990D-06  6 4 2 25 24 1 4 4 0.10403659D-02 0.47825029D+00 0.16541664D+05 0.16541664D+05 0.16541664D+05 0.12430078D+01  1  2 11  9  6  1       21 0.245371776744D-03 0.100000000000D+01
  </mgrwgt>
  </event>
  <event>
  5     66 0.46027262E-03 0.27672635E+02 0.75467711E-02 0.12054278E+00
       21 -1    0    0  501  502 0.00000000E+00 0.00000000E+00 0.22521865E+02 0.22534349E+02 0.75000000E+00 0.0000E+00 0.9000E+01
        2 -1    0    0  502    0 0.00000000E+00 0.00000000E+00 -.17332144E+04 0.17332144E+04 0.32000000E+00 0.0000E+00 0.9000E+01
       25  1    1    2    0    0 0.25078273E+02 0.26041433E+02 -.14176517E+04 0.14236111E+04 0.12500000E+03 0.0000E+00 0.9000E+01
       24  1    1    2    0    0 -.56251887E+02 -.24654295E+02 -.28104292E+03 0.29870462E+03 0.80419002E+02 0.0000E+00 0.9000E+01
        1  1    1    2  501    0 0.31173614E+02 -.13871383E+01 -.11997861E+02 0.33433059E+02 0.32000000E+00 0.0000E+00 0.9000E+01
#aMCatNLO 1  0  0  1  2 0.30132860D+02 0.00000000D+00  -5  6  0 0.00000000D+00 0.00000000D+00 0.00000000D+00 0.00000000D+00 0.00000000D+00
  <mgrwgt>
 0.1711041640D+00   13    2    0
 0.197601127187471D+03 0.000000000000000D+00 0.000000000000000D+00 0.197601127187471D+03
 0.197601127187471D+03 0.000000000000000D+00 0.000000000000000D+00 -.197601127187471D+03
 0.188099242514931D+03 0.250781914886905D+02 0.260414365710502D+02 -.135828027032948D+03
 0.110506016479373D+03 -.562519352026110D+02 -.246542925062976D+02 0.444100143069563D+02
 0.965969953806386D+02 0.311737437139205D+02 -.138714406475261D+01 0.914180127259915D+02
 0.000000000000000D+00 0.000000000000000D+00 0.000000000000000D+00 -.000000000000000D+00
 0.211080237574157D+03 0.000000000000000D+00 0.000000000000000D+00 0.211080237574157D+03
 0.215763787524053D+03 0.000000000000000D+00 0.000000000000000D+00 -.215763787524053D+03
 0.186083469623727D+03 0.196846899633492D+02 0.128575938879735D+02 -.135828027032948D+03
 0.114190606706615D+03 -.594907314927067D+02 -.325711866743127D+02 0.444100143069563D+02
 0.960752785740563D+02 0.283965491248757D+02 -.817570181155750D+01 0.914180127259915D+02
 0.304946701938121D+02 0.114094924044819D+02 0.278892945978967D+02 -.468354994989644D+01
0.727364935293D-05 0.000000000000D+00 0.000000000000D+00 0.138451663932D-05 0.000000000000D+00  6 21 2 25 24 1 21 2 0.34658649D-02 0.26664933D+00 0.17228855D+05 0.17228855D+05 0.17228855D+05 0.12410214D+01  1  2  2  1  6  1       21 0.746274319070D-01 0.100000000000D+01
0.702320612785D-06 0.383841021791D-06 -.146834024123D-07 0.138451663932D-05 0.000000000000D+00  6 21 2 25 24 1 21 4 0.34658649D-02 0.26664933D+00 0.17228855D+05 0.17228855D+05 0.17228855D+05 0.12410214D+01  1  2  3  1  6  1       21 0.110978822869D-01 0.100000000000D+01
0.744611630687D-06 0.000000000000D+00 0.000000000000D+00 0.138451663932D-05 0.000000000000D+00  6 21 2 25 24 1 21 4 0.34658649D-02 0.26664933D+00 0.17228855D+05 0.17228855D+05 0.17228855D+05 0.12410214D+01  1  2 15  1  6  1       21 0.117661536289D-01 0.100000000000D+01
0.846386696196D-05 0.000000000000D+00 0.000000000000D+00 0.136172897524D-05 0.000000000000D+00  6 21 2 25 24 1 21 4 0.38495820D-02 0.26664933D+00 0.21327082D+05 0.21327082D+05 0.21327082D+05 0.12307661D+01  1  2 12  1  6  1       21 0.108462290308D+00 0.100000000000D+01
-.227619692867D-05 0.000000000000D+00 0.000000000000D+00 0.138451663932D-05 0.000000000000D+00  6 21 2 25 24 1 21 4 0.34658649D-02 0.26664933D+00 0.17228855D+05 0.17228855D+05 0.17228855D+05 0.12410214D+01  1  2  4  1  6  1       21 -.359678544475D-01 0.100000000000D+01
0.228517054072D-06 0.000000000000D+00 0.000000000000D+00 0.136172897524D-05 0.000000000000D+00  6 -1 2 25 24 1 -1 4 0.38495820D-02 0.26664933D+00 0.21327082D+05 0.21327082D+05 0.21327082D+05 0.12307661D+01  1  2 12  4  6  1       21 0.159293087772D-03 0.100000000000D+01
0.228517054072D-06 0.000000000000D+00 0.000000000000D+00 0.136172897524D-05 0.000000000000D+00  6 1 2 25 24 1 1 4 0.38495820D-02 0.26664933D+00 0.21327082D+05 0.21327082D+05 0.21327082D+05 0.12307661D+01  1  2 12  5  6  1       21 0.174870992462D-03 0.100000000000D+01
0.228517054072D-06 0.000000000000D+00 0.000000000000D+00 0.136172897524D-05 0.000000000000D+00  6 -2 2 25 24 1 -2 4 0.38495820D-02 0.26664933D+00 0.21327082D+05 0.21327082D+05 0.21327082D+05 0.12307661D+01  1  2 12  6  6  1       21 0.156522524065D-03 0.100000000000D+01
0.228517054072D-06 0.000000000000D+00 0.000000000000D+00 0.136172897524D-05 0.000000000000D+00  6 2 2 25 24 1 2 4 0.38495820D-02 0.26664933D+00 0.21327082D+05 0.21327082D+05 0.21327082D+05 0.12307661D+01  1  2 12  7  6  1       21 0.185391974161D-03 0.100000000000D+01
0.228517054072D-06 0.000000000000D+00 0.000000000000D+00 0.136172897524D-05 0.000000000000D+00  6 -3 2 25 24 1 -3 4 0.38495820D-02 0.26664933D+00 0.21327082D+05 0.21327082D+05 0.21327082D+05 0.12307661D+01  1  2 12  8  6  1       21 0.116516352579D-03 0.100000000000D+01
0.228517054072D-06 0.000000000000D+00 0.000000000000D+00 0.136172897524D-05 0.000000000000D+00  6 -4 2 25 24 1 -4 4 0.38495820D-02 0.26664933D+00 0.21327082D+05 0.21327082D+05 0.21327082D+05 0.12307661D+01  1  2 12  8  6  1       21 0.104579484616D-03 0.100000000000D+01
0.228517054072D-06 0.000000000000D+00 0.000000000000D+00 0.136172897524D-05 0.000000000000D+00  6 3 2 25 24 1 3 4 0.38495820D-02 0.26664933D+00 0.21327082D+05 0.21327082D+05 0.21327082D+05 0.12307661D+01  1  2 12  9  6  1       21 0.116506409051D-03 0.100000000000D+01
0.228517054072D-06 0.000000000000D+00 0.000000000000D+00 0.136172897524D-05 0.000000000000D+00  6 4 2 25 24 1 4 4 0.38495820D-02 0.26664933D+00 0.21327082D+05 0.21327082D+05 0.21327082D+05 0.12307661D+01  1  2 12  9  6  1       21 0.104579484616D-03 0.100000000000D+01
  </mgrwgt>
  </event>
  <event>
  5     66 0.46027262E-03 0.77727848E+02 0.75467711E-02 0.10701514E+00
       21 -1    0    0  501  502 0.00000000E+00 0.00000000E+00 0.10550144E+03 0.10550411E+03 0.75000000E+00 0.0000E+00 0.9000E+01
        2 -1    0    0  502    0 0.00000000E+00 0.00000000E+00 -.45260420E+03 0.45260431E+03 0.32000000E+00 0.0000E+00 0.9000E+01
       25  1    1    2    0    0 -.70441929E+02 0.21113744E+02 -.20799433E+03 0.25356360E+03 0.12500000E+03 0.0000E+00 0.9000E+01
       24  1    1    2    0    0 0.41436083E+02 -.93226555E+02 -.17580233E+03 0.21859052E+03 0.80419002E+02 0.0000E+00 0.9000E+01
        1  1    1    2  501    0 0.29005846E+02 0.72112810E+02 0.36693912E+02 0.85954302E+02 0.32000000E+00 0.0000E+00 0.9000E+01
#aMCatNLO 1  0  0  1  2 0.30132860D+02 0.00000000D+00  -5  6  0 0.00000000D+00 0.00000000D+00 0.00000000D+00 0.00000000D+00 0.00000000D+00
  <mgrwgt>
 0.4064183755D-01   12    2    0
 0.218520415210482D+03 0.000000000000000D+00 0.000000000000000D+00 0.218520415210482D+03
 0.218520415210482D+03 0.000000000000000D+00 0.000000000000000D+00 -.218520415210482D+03
 0.158613542864970D+03 -.704419570487725D+02 0.211136748432305D+02 -.642292721578790D+02
 0.139519610391333D+03 0.414360587750541D+02 -.932266156966502D+02 -.508955488065319D+02
 0.138907677164661D+03 0.290058982737184D+02 0.721129408534197D+02 0.115124820964411D+03
 0.000000000000000D+00 -.000000000000000D+00 -.000000000000000D+00 0.000000000000000D+00
 0.418473213173230D+03 0.000000000000000D+00 0.000000000000000D+00 0.418473213173230D+03
 0.327775858178727D+03 0.000000000000000D+00 0.000000000000000D+00 -.327775858178727D+03
 0.144331085989403D+03 0.459489533913471D+01 0.325568720514097D+02 -.642292721578790D+02
 0.172597476290023D+03 0.118744852298212D+03 -.814369451273330D+02 -.508955488065319D+02
 0.178660901172551D+03 0.107664980713440D+03 0.841085318720699D+02 0.115124820964411D+03
 0.250659607899980D+03 -.231004728350787D+03 -.352284587961466D+02 0.906973549945035D+02
0.103643983593D-04 0.000000000000D+00 0.000000000000D+00 0.575395076251D-06 0.000000000000D+00  6 21 2 25 24 1 21 2 0.16231205D-01 0.69631629D-01 0.31092296D+05 0.31092296D+05 0.31092296D+05 0.12132717D+01  1  2  2  1  6  1       21 0.451516499446D-01 0.100000000000D+01
0.708736544101D-07 0.546944327868D-06 -.209227341719D-07 0.575395076251D-06 0.000000000000D+00  6 21 2 25 24 1 21 4 0.16231205D-01 0.69631629D-01 0.31092296D+05 0.31092296D+05 0.31092296D+05 0.12132717D+01  1  2  3  1  6  1       21 0.454496429425D-03 0.100000000000D+01
0.970677929302D-06 0.000000000000D+00 0.000000000000D+00 0.575395076251D-06 0.000000000000D+00  6 21 2 25 24 1 21 4 0.16231205D-01 0.69631629D-01 0.31092296D+05 0.31092296D+05 0.31092296D+05 0.12132717D+01  1  2 15  1  6  1       21 0.622473409423D-02 0.100000000000D+01
-.973515583613D-05 0.000000000000D+00 -.235247710320D-04 0.575395076251D-06 0.000000000000D+00  6 21 2 25 24 1 21 4 0.45486259D-01 0.69631629D-01 0.31092296D+05 0.31092296D+05 0.31092296D+05 0.12132717D+01  1  2  5  1  6  1       21 -.855758283799D-02 0.100000000000D+01
-.344445027201D-05 0.000000000000D+00 -.800640791019D-05 0.575395076251D-06 0.000000000000D+00  6 -1 2 25 24 1 -1 4 0.45486259D-01 0.69631629D-01 0.31092296D+05 0.31092296D+05 0.31092296D+05 0.12132717D+01  1  2  5  4  6  1       21 -.293645997430D-03 0.100000000000D+01
-.344445027201D-05 0.000000000000D+00 -.800640791019D-05 0.575395076251D-06 0.000000000000D+00  6 1 2 25 24 1 1 4 0.45486259D-01 0.69631629D-01 0.31092296D+05 0.31092296D+05 0.31092296D+05 0.12132717D+01  1  2  5  5  6  1       21 -.634289208816D-03 0.100000000000D+01
-.344445027201D-05 0.000000000000D+00 -.800640791019D-05 0.575395076251D-06 0.000000000000D+00  6 -2 2 25 24 1 -2 4 0.45486259D-01 0.69631629D-01 0.31092296D+05 0.31092296D+05 0.31092296D+05 0.12132717D+01  1  2  5  6  6  1       21 -.244027314503D-03 0.100000000000D+01
-.344445027201D-05 0.000000000000D+00 -.800640791019D-05 0.575395076251D-06 0.000000000000D+00  6 2 2 25 24 1 2 4 0.45486259D-01 0.69631629D-01 0.31092296D+05 0.31092296D+05 0.31092296D+05 0.12132717D+01  1  2  5  7  6  1       21 -.895181108553D-03 0.100000000000D+01
-.344445027201D-05 0.000000000000D+00 -.800640791019D-05 0.575395076251D-06 0.000000000000D+00  6 -3 2 25 24 1 -3 4 0.45486259D-01 0.69631629D-01 0.31092296D+05 0.31092296D+05 0.31092296D+05 0.12132717D+01  1  2  5  8  6  1       21 -.154284844159D-03 0.100000000000D+01
-.344445027201D-05 0.000000000000D+00 -.800640791019D-05 0.575395076251D-06 0.000000000000D+00  6 -4 2 25 24 1 -4 4 0.45486259D-01 0.69631629D-01 0.31092296D+05 0.31092296D+05 0.31092296D+05 0.12132717D+01  1  2  5  8  6  1       21 -.127848878311D-03 0.100000000000D+01
-.344445027201D-05 0.000000000000D+00 -.800640791019D-05 0.575395076251D-06 0.000000000000D+00  6 3 2 25 24 1 3 4 0.45486259D-01 0.69631629D-01 0.31092296D+05 0.31092296D+05 0.31092296D+05 0.12132717D+01  1  2  5  9  6  1       21 -.154333852292D-03 0.100000000000D+01
-.344445027201D-05 0.000000000000D+00 -.800640791019D-05 0.575395076251D-06 0.000000000000D+00  6 4 2 25 24 1 4 4 0.45486259D-01 0.69631629D-01 0.31092296D+05 0.31092296D+05 0.31092296D+05 0.12132717D+01  1  2  5  9  6  1       21 -.127848878311D-03 0.100000000000D+01
  </mgrwgt>
  </event>
  <event>
  6     66 0.46027262E-03 0.22968423E+02 0.75467711E-02 0.12365542E+00
       21 -1    0    0  501  502 0.00000000E+00 0.00000000E+00 0.13913148E+03 0.13913350E+03 0.75000000E+00 0.0000E+00 0.9000E+01
        2 -1    0    0  502    0 -.00000000E+00 -.00000000E+00 -.87842200E+03 0.87842205E+03 0.32000000E+00 0.0000E+00 0.9000E+01
       25  1    1    2    0    0 -.15280674E+02 0.20489061E+01 -.66805486E+03 0.67982350E+03 0.12500000E+03 0.0000E+00 0.9000E+01
       24  1    1    2    0    0 0.34348238E+02 -.26204383E+02 -.19128145E+03 0.21194877E+03 0.80419002E+02 0.0000E+00 0.9000E+01
        1  1    1    2  503    0 -.15142829E+02 0.20677146E+02 0.56791139E+02 0.62307186E+02 0.32000000E+00 0.0000E+00 0.9000E+01
       21  1    1    2  501  503 -.39247341E+01 0.34783310E+01 0.63254650E+02 0.63476103E+02 0.75000000E+00 0.0000E+00 0.9000E+01
#aMCatNLO 2  0  0  5  1 0.10730992D+02 0.00000000D+00  -5  6  0 0.00000000D+00 0.00000000D+00 0.00000000D+00 0.00000000D+00 0.00000000D+00
  <mgrwgt>
 0.2523618858D+01    1    2    0
 0.349595779901225D+03 0.000000000000000D+00 0.000000000000000D+00 0.349595779901225D+03
 0.349595779901225D+03 -.000000000000000D+00 -.000000000000000D+00 -.349595779901225D+03
 0.283269512894352D+03 -.152619794715775D+02 0.202522258045950D+01 -.253731329148595D+03
 0.106266556830510D+03 0.343552523033546D+02 -.262132688604820D+02 -.543870050753160D+02
 0.309655490077587D+03 -.190932728317772D+02 0.241880462800225D+02 0.308118334223911D+03
 0.000000000000000D+00 0.000000000000000D+00 0.000000000000000D+00 0.000000000000000D+00
 0.349595779901225D+03 0.000000000000000D+00 0.000000000000000D+00 0.349595779901225D+03
 0.349595779901225D+03 -.000000000000000D+00 -.000000000000000D+00 -.349595779901225D+03
 0.283001883092495D+03 -.152805777823451D+02 0.204878359095460D+01 -.253431198281375D+03
 0.106204527522184D+03 0.343482740182357D+02 -.262044285173465D+02 -.542743927638733D+02
 0.150594480402670D+03 -.151277214384484D+02 0.206562081660967D+02 0.148402057384761D+03
 0.159390668785101D+03 -.393997479744232D+01 0.349943676029523D+01 0.159303533660487D+03
0.126222933199D-02 0.000000000000D+00 0.000000000000D+00 0.251812446117D-04 0.168450221856D-04  6 21 2 25 24 1 21 4 0.21405003D-01 0.13514201D+00 0.15389541D+05 0.15389541D+05 0.15389541D+05 0.12465552D+01  1  2  1  3  6  5        1 0.252361885762D+01 0.100000000000D+01
  </mgrwgt>
  </event>
  <event>
  5     66 -.46027262E-03 0.10294130E+03 0.75467711E-02 0.11155580E+00
       21 -1    0    0  501  502 0.00000000E+00 0.00000000E+00 0.60520596E+02 0.60525243E+02 0.75000000E+00 0.0000E+00 0.9000E+01
        2 -1    0    0  502    0 0.00000000E+00 0.00000000E+00 -.98905620E+03 0.98905626E+03 0.32000000E+00 0.0000E+00 0.9000E+01
       25  1    1    2    0    0 -.56855955E+02 -.38808727E+02 -.67086038E+03 0.68586979E+03 0.12500000E+03 0.0000E+00 0.9000E+01
       24  1    1    2    0    0 -.33615924E+02 0.87918053E+02 -.22304755E+03 0.25510202E+03 0.80419002E+02 0.0000E+00 0.9000E+01
        1  1    1    2  501    0 0.90471879E+02 -.49109326E+02 -.34627678E+02 0.10860969E+03 0.32000000E+00 0.0000E+00 0.9000E+01
#aMCatNLO 1  0  0  1  1 0.26569361D+02 0.00000000D+00  -5  6  0 0.00000000D+00 0.00000000D+00 0.00000000D+00 0.00000000D+00 0.00000000D+00
  <mgrwgt>
 -.1374342686D+00   12    2    0
 0.244664539810211D+03 0.000000000000000D+00 0.000000000000000D+00 0.244664539810211D+03
 0.244664539810211D+03 0.000000000000000D+00 0.000000000000000D+00 -.244664539810211D+03
 0.198145855662826D+03 -.568560219667901D+02 -.388086909730077D+02 -.137470209090650D+03
 0.123930462109388D+03 -.336159657159020D+02 0.879180761513040D+02 0.564997514302928D+01
 0.167252761848207D+03 0.904719876826921D+02 -.491093851782963D+02 0.131820233947621D+03
 0.000000000000000D+00 -.000000000000000D+00 -.000000000000000D+00 0.000000000000000D+00
 0.510847629299263D+03 0.000000000000000D+00 0.000000000000000D+00 0.510847629299263D+03
 0.262623567501219D+03 0.000000000000000D+00 0.000000000000000D+00 -.262623567501219D+03
 0.188305492080813D+03 -.302037472702756D+02 -.486144126811820D+01 -.137470209090650D+03
 0.138006881509966D+03 -.155510111590622D+02 0.110927576474694D+03 0.564997514302928D+01
 0.175377578664038D+03 0.114102072059446D+03 -.190115273399109D+02 0.131820233947621D+03
 0.271781244545665D+03 -.683473136301087D+02 -.870546078666646D+02 0.248224061798044D+03
0.809936812232D-05 0.000000000000D+00 0.000000000000D+00 0.382516128985D-06 0.000000000000D+00  6 21 2 25 24 1 21 2 0.93112224D-02 0.15216285D+00 0.34122295D+05 0.34122295D+05 0.34122295D+05 0.12090731D+01  1  2  2  1  6  1       21 0.369867096126D-01 0.100000000000D+01
-.180392592381D-06 0.427415398390D-06 -.163502907076D-07 0.382516128985D-06 0.000000000000D+00  6 21 2 25 24 1 21 4 0.93112224D-02 0.15216285D+00 0.34122295D+05 0.34122295D+05 0.34122295D+05 0.12090731D+01  1  2  3  1  6  1       21 -.120425486596D-02 0.100000000000D+01
0.762433305594D-06 0.000000000000D+00 0.000000000000D+00 0.382516128985D-06 0.000000000000D+00  6 21 2 25 24 1 21 4 0.93112224D-02 0.15216285D+00 0.34122295D+05 0.34122295D+05 0.34122295D+05 0.12090731D+01  1  2 15  1  6  1       21 0.508980998671D-02 0.100000000000D+01
-.949440840975D-04 0.000000000000D+00 -.129771094892D-04 0.382516128985D-06 0.000000000000D+00  6 21 2 25 24 1 21 4 0.20682615D-01 0.15216285D+00 0.34122295D+05 0.34122295D+05 0.34122295D+05 0.12090731D+01  1  2  5  1  6  1       21 -.149536277452D+00 0.100000000000D+01
-.303521043140D-04 0.000000000000D+00 -.364660876548D-05 0.382516128985D-06 0.000000000000D+00  6 -1 2 25 24 1 -1 4 0.20682615D-01 0.15216285D+00 0.34122295D+05 0.34122295D+05 0.34122295D+05 0.12090731D+01  1  2  5  4  6  1       21 -.380920828299D-02 0.100000000000D+01
-.303521043140D-04 0.000000000000D+00 -.364660876548D-05 0.382516128985D-06 0.000000000000D+00  6 1 2 25 24 1 1 4 0.20682615D-01 0.15216285D+00 0.34122295D+05 0.34122295D+05 0.34122295D+05 0.12090731D+01  1  2  5  5  6  1       21 -.579300236299D-02 0.100000000000D+01
-.303521043140D-04 0.000000000000D+00 -.364660876548D-05 0.382516128985D-06 0.000000000000D+00  6 -2 2 25 24 1 -2 4 0.20682615D-01 0.15216285D+00 0.34122295D+05 0.34122295D+05 0.34122295D+05 0.12090731D+01  1  2  5  6  6  1       21 -.347530859041D-02 0.100000000000D+01
-.303521043140D-04 0.000000000000D+00 -.364660876548D-05 0.382516128985D-06 0.000000000000D+00  6 2 2 25 24 1 2 4 0.20682615D-01 0.15216285D+00 0.34122295D+05 0.34122295D+05 0.34122295D+05 0.12090731D+01  1  2  5  7  6  1       21 -.719524265001D-02 0.100000000000D+01
-.303521043140D-04 0.000000000000D+00 -.364660876548D-05 0.382516128985D-06 0.000000000000D+00  6 -3 2 25 24 1 -3 4 0.20682615D-01 0.15216285D+00 0.34122295D+05 0.34122295D+05 0.34122295D+05 0.12090731D+01  1  2  5  8  6  1       21 -.228914863347D-02 0.100000000000D+01
-.303521043140D-04 0.000000000000D+00 -.364660876548D-05 0.382516128985D-06 0.000000000000D+00  6 -4 2 25 24 1 -4 4 0.20682615D-01 0.15216285D+00 0.34122295D+05 0.34122295D+05 0.34122295D+05 0.12090731D+01  1  2  5  8  6  1       21 -.195968880312D-02 0.100000000000D+01
-.303521043140D-04 0.000000000000D+00 -.364660876548D-05 0.382516128985D-06 0.000000000000D+00  6 3 2 25 24 1 3 4 0.20682615D-01 0.15216285D+00 0.34122295D+05 0.34122295D+05 0.34122295D+05 0.12090731D+01  1  2  5  9  6  1       21 -.228896775624D-02 0.100000000000D+01
-.303521043140D-04 0.000000000000D+00 -.364660876548D-05 0.382516128985D-06 0.000000000000D+00  6 4 2 25 24 1 4 4 0.20682615D-01 0.15216285D+00 0.34122295D+05 0.34122295D+05 0.34122295D+05 0.12090731D+01  1  2  5  9  6  1       21 -.195968880312D-02 0.100000000000D+01
  </mgrwgt>
  </event>
  <event>
  5     66 -.46027262E-03 0.45342774E+02 0.75467711E-02 0.10412367E+00
       21 -1    0    0  501  502 0.00000000E+00 0.00000000E+00 0.34307543E+02 0.34315740E+02 0.75000000E+00 0.0000E+00 0.9000E+01
        2 -1    0    0  502    0 0.00000000E+00 0.00000000E+00 -.91017374E+03 0.91017380E+03 0.32000000E+00 0.0000E+00 0.9000E+01
       25  1    1    2    0    0 -.85669225E+02 -.11533446E+02 -.35333862E+03 0.38463674E+03 0.12500000E+03 0.0000E+00 0.9000E+01
       24  1    1    2    0    0 0.13027662E+03 0.34051942E+01 -.36234026E+03 0.39337168E+03 0.80419002E+02 0.0000E+00 0.9000E+01
        1  1    1    2  501    0 -.44607392E+02 0.81282521E+01 -.16018731E+03 0.16648112E+03 0.32000000E+00 0.0000E+00 0.9000E+01
#aMCatNLO 1  0  0  1  1 0.33336467D+03 0.00000000D+00  -5  6  0 0.00000000D+00 0.00000000D+00 0.00000000D+00 0.00000000D+00 0.00000000D+00
  <mgrwgt>
 -.2141448063D+00   12    2    0
 0.176719331369991D+03 0.000000000000000D+00 0.000000000000000D+00 0.176719331369991D+03
 0.176719331369991D+03 0.000000000000000D+00 0.000000000000000D+00 -.176719331369991D+03
 0.152241229555012D+03 -.856687962611862D+02 -.115335242802609D+02 0.895696049215299D+01
 0.153276874335743D+03 0.130277048427903D+03 0.340511556793927D+01 0.654828929165315D+01
 0.479205588492266D+02 -.446082521667172D+02 0.812840871232163D+01 -.155052497838061D+02
 0.000000000000000D+00 -.000000000000000D+00 -.000000000000000D+00 0.000000000000000D+00
 0.289139691434325D+04 0.000000000000000D+00 0.000000000000000D+00 0.289139691434325D+04
 0.253415545267727D+03 0.000000000000000D+00 0.000000000000000D+00 -.253415545267727D+03
 0.132651179057269D+03 0.145708548687602D+02 0.409731418421756D+02 0.895696049215299D+01
 0.321039632058234D+03 0.297165739347054D+03 0.908233046271037D+02 0.654828929165315D+01
 0.321598763420744D+02 -.164318787596082D+02 0.228875126632150D+02 -.155052497838061D+02
 0.265896177215340D+04 -.295304715456206D+03 -.154683959132494D+03 0.263798136907552D+04
0.227121465554D-05 0.000000000000D+00 0.000000000000D+00 0.186745832356D-06 0.000000000000D+00  6 21 2 25 24 1 21 2 0.52787184D-02 0.14002736D+00 0.30705066D+05 0.30705066D+05 0.30705066D+05 0.12138410D+01  1  2  2  1  6  1       21 0.311702931920D-01 0.100000000000D+01
-.759081173872D-07 0.119855290211D-06 -.458492802360D-08 0.186745832356D-06 0.000000000000D+00  6 21 2 25 24 1 21 4 0.52787184D-02 0.14002736D+00 0.30705066D+05 0.30705066D+05 0.30705066D+05 0.12138410D+01  1  2  3  1  6  1       21 -.153495097430D-02 0.100000000000D+01
0.229342026721D-06 0.000000000000D+00 0.000000000000D+00 0.186745832356D-06 0.000000000000D+00  6 21 2 25 24 1 21 4 0.52787184D-02 0.14002736D+00 0.30705066D+05 0.30705066D+05 0.30705066D+05 0.12138410D+01  1  2 15  1  6  1       21 0.463756419578D-02 0.100000000000D+01
-.276888281618D-02 0.000000000000D+00 -.314194138620D-03 0.186745832356D-06 0.000000000000D+00  6 21 2 25 24 1 21 4 0.11276038D+00 0.14002736D+00 0.30705066D+05 0.30705066D+05 0.30705066D+05 0.12138410D+01  1  2  5  1  6  1       21 -.142422155184D+00 0.100000000000D+01
-.122666762029D-02 0.000000000000D+00 -.139161726537D-03 0.186745832356D-06 0.000000000000D+00  6 -1 2 25 24 1 -1 4 0.11276038D+00 0.14002736D+00 0.30705066D+05 0.30705066D+05 0.30705066D+05 0.12138410D+01  1  2  5  4  6  1       21 -.734970712971D-02 0.100000000000D+01
-.122666762029D-02 0.000000000000D+00 -.139161726537D-03 0.186745832356D-06 0.000000000000D+00  6 1 2 25 24 1 1 4 0.11276038D+00 0.14002736D+00 0.30705066D+05 0.30705066D+05 0.30705066D+05 0.12138410D+01  1  2  5  5  6  1       21 -.299282650510D-01 0.100000000000D+01
-.122666762029D-02 0.000000000000D+00 -.139161726537D-03 0.186745832356D-06 0.000000000000D+00  6 -2 2 25 24 1 -2 4 0.11276038D+00 0.14002736D+00 0.30705066D+05 0.30705066D+05 0.30705066D+05 0.12138410D+01  1  2  5  6  6  1       21 -.540816299472D-02 0.100000000000D+01
-.122666762029D-02 0.000000000000D+00 -.139161726537D-03 0.186745832356D-06 0.000000000000D+00  6 2 2 25 24 1 2 4 0.11276038D+00 0.14002736D+00 0.30705066D+05 0.30705066D+05 0.30705066D+05 0.12138410D+01  1  2  5  7  6  1       21 -.509405647084D-01 0.100000000000D+01
-.122666762029D-02 0.000000000000D+00 -.139161726537D-03 0.186745832356D-06 0.000000000000D+00  6 -3 2 25 24 1 -3 4 0.11276038D+00 0.14002736D+00 0.30705066D+05 0.30705066D+05 0.30705066D+05 0.12138410D+01  1  2  5  8  6  1       21 -.343708646963D-02 0.100000000000D+01
-.122666762029D-02 0.000000000000D+00 -.139161726537D-03 0.186745832356D-06 0.000000000000D+00  6 -4 2 25 24 1 -4 4 0.11276038D+00 0.14002736D+00 0.30705066D+05 0.30705066D+05 0.30705066D+05 0.12138410D+01  1  2  5  8  6  1       21 -.274316737082D-02 0.100000000000D+01
-.122666762029D-02 0.000000000000D+00 -.139161726537D-03 0.186745832356D-06 0.000000000000D+00  6 3 2 25 24 1 3 4 0.11276038D+00 0.14002736D+00 0.30705066D+05 0.30705066D+05 0.30705066D+05 0.12138410D+01  1  2  5  9  6  1       21 -.344543640952D-02 0.100000000000D+01
-.122666762029D-02 0.000000000000D+00 -.139161726537D-03 0.186745832356D-06 0.000000000000D+00  6 4 2 25 24 1 4 4 0.11276038D+00 0.14002736D+00 0.30705066D+05 0.30705066D+05 0.30705066D+05 0.12138410D+01  1  2  5  9  6  1       21 -.274316737082D-02 0.100000000000D+01
  </mgrwgt>
  </event>
  <event>
  5     66 0.46027262E-03 0.36682261E+02 0.75467711E-02 0.11835692E+00
       21 -1    0    0  501  502 0.00000000E+00 0.00000000E+00 0.11832071E+02 0.11855817E+02 0.75000000E+00 0.0000E+00 0.9000E+01
        2 -1    0    0  502    0 0.00000000E+00 0.00000000E+00 -.19253737E+04 0.19253738E+04 0.32000000E+00 0.0000E+00 0.9000E+01
       25  1    1    2    0    0 -.24610092E+02 -.55846226E+02 -.13787125E+04 0.13857119E+04 0.12500000E+03 0.0000E+00 0.9000E+01
       24  1    1    2    0    0 0.39674457E+02 0.22400553E+02 -.44480208E+03 0.45430382E+03 0.80419002E+02 0.0000E+00 0.9000E+01
        1  1    1    2  501    0 -.15064365E+02 0.33445673E+02 -.90027135E+02 0.97213865E+02 0.32000000E+00 0.0000E+00 0.9000E+01
#aMCatNLO 1  0  0  1  2 0.44642624D+02 0.00000000D+00  -5  6  0 0.00000000D+00 0.00000000D+00 0.00000000D+00 0.00000000D+00 0.00000000D+00
  <mgrwgt>
 0.1354925667D+00   14    2    0
 0.151010547081569D+03 0.000000000000000D+00 0.000000000000000D+00 0.151010547081569D+03
 0.151010547081569D+03 0.000000000000000D+00 0.000000000000000D+00 -.151010547081569D+03
 0.153030508241459D+03 -.246099532142446D+02 -.558465330477752D+02 -.637875489572669D+02
 0.958325437032753D+02 0.396745432527138D+02 0.224003608861405D+02 0.253143225887806D+02
 0.531580422184042D+02 -.150645900384692D+02 0.334461721616347D+02 0.384732263684863D+02
 0.000000000000000D+00 -.000000000000000D+00 -.000000000000000D+00 0.000000000000000D+00
 0.197121005797396D+03 0.000000000000000D+00 0.000000000000000D+00 0.197121005797396D+03
 0.170991449408704D+03 0.000000000000000D+00 0.000000000000000D+00 -.170991449408704D+03
 0.145129792852187D+03 -.567079471409690D+01 -.365601895325152D+02 -.637875489572669D+02
 0.105424823247184D+03 0.524584221192702D+02 0.354185886641041D+02 0.253143225887806D+02
 0.564721688999803D+02 -.810087308098061D+01 0.405375451697924D+02 0.384732263684863D+02
 0.610856702067495D+02 -.386867543241927D+02 -.393959443013812D+02 0.261295563886911D+02
0.287245639205D-05 0.000000000000D+00 0.000000000000D+00 0.818457749275D-06 0.000000000000D+00  6 21 2 25 24 1 21 2 0.18221473D-02 0.29621317D+00 0.17984603D+05 0.17984603D+05 0.17984603D+05 0.12389370D+01  1  2  2  1  6  1       21 0.667970970433D-01 0.100000000000D+01
0.674162927615D-07 0.151583688335D-06 -.579866186418D-08 0.818457749275D-06 0.000000000000D+00  6 21 2 25 24 1 21 4 0.18221473D-02 0.29621317D+00 0.17984603D+05 0.17984603D+05 0.17984603D+05 0.12389370D+01  1  2  3  1  6  1       21 0.240639805749D-02 0.100000000000D+01
0.272631400048D-06 0.000000000000D+00 0.000000000000D+00 0.818457749275D-06 0.000000000000D+00  6 21 2 25 24 1 21 4 0.18221473D-02 0.29621317D+00 0.17984603D+05 0.17984603D+05 0.17984603D+05 0.12389370D+01  1  2 15  1  6  1       21 0.973147060768D-02 0.100000000000D+01
-.921051361112D-06 0.000000000000D+00 0.000000000000D+00 0.818457749275D-06 0.000000000000D+00  6 21 2 25 24 1 21 4 0.18221473D-02 0.29621317D+00 0.17984603D+05 0.17984603D+05 0.17984603D+05 0.12389370D+01  1  2  4  1  6  1       21 -.328765661155D-01 0.100000000000D+01
-.953847085432D-05 0.000000000000D+00 -.371359858602D-05 0.818457749275D-06 0.000000000000D+00  6 21 2 25 24 1 21 4 0.27505182D-02 0.29621317D+00 0.17984603D+05 0.17984603D+05 0.17984603D+05 0.12389370D+01  1  2  5  1  6  1       21 -.174580158229D+00 0.100000000000D+01
0.763476632911D-05 0.000000000000D+00 0.270373559836D-05 0.818457749275D-06 0.000000000000D+00  6 21 2 25 24 1 21 4 0.18221473D-02 0.29621317D+00 0.17984603D+05 0.17984603D+05 0.17984603D+05 0.12389370D+01  1  2  6  1  6  1       21 0.272519981613D+00 0.100000000000D+01
-.129705428090D-05 0.000000000000D+00 -.514726120837D-06 0.818457749275D-06 0.000000000000D+00  6 -1 2 25 24 1 -1 4 0.27505182D-02 0.29621317D+00 0.17984603D+05 0.17984603D+05 0.17984603D+05 0.12389370D+01  1  2  5  4  6  1       21 -.120905836068D-02 0.100000000000D+01
-.129705428090D-05 0.000000000000D+00 -.514726120837D-06 0.818457749275D-06 0.000000000000D+00  6 1 2 25 24 1 1 4 0.27505182D-02 0.29621317D+00 0.17984603D+05 0.17984603D+05 0.17984603D+05 0.12389370D+01  1  2  5  5  6  1       21 -.129386561527D-02 0.100000000000D+01
-.129705428090D-05 0.000000000000D+00 -.514726120837D-06 0.818457749275D-06 0.000000000000D+00  6 -2 2 25 24 1 -2 4 0.27505182D-02 0.29621317D+00 0.17984603D+05 0.17984603D+05 0.17984603D+05 0.12389370D+01  1  2  5  6  6  1       21 -.119384338544D-02 0.100000000000D+01
-.129705428090D-05 0.000000000000D+00 -.514726120837D-06 0.818457749275D-06 0.000000000000D+00  6 2 2 25 24 1 2 4 0.27505182D-02 0.29621317D+00 0.17984603D+05 0.17984603D+05 0.17984603D+05 0.12389370D+01  1  2  5  7  6  1       21 -.135165143283D-02 0.100000000000D+01
-.129705428090D-05 0.000000000000D+00 -.514726120837D-06 0.818457749275D-06 0.000000000000D+00  6 -3 2 25 24 1 -3 4 0.27505182D-02 0.29621317D+00 0.17984603D+05 0.17984603D+05 0.17984603D+05 0.12389370D+01  1  2  5  8  6  1       21 -.908560685544D-03 0.100000000000D+01
-.129705428090D-05 0.000000000000D+00 -.514726120837D-06 0.818457749275D-06 0.000000000000D+00  6 -4 2 25 24 1 -4 4 0.27505182D-02 0.29621317D+00 0.17984603D+05 0.17984603D+05 0.17984603D+05 0.12389370D+01  1  2  5  8  6  1       21 -.820090188962D-03 0.100000000000D+01
-.129705428090D-05 0.000000000000D+00 -.514726120837D-06 0.818457749275D-06 0.000000000000D+00  6 3 2 25 24 1 3 4 0.27505182D-02 0.29621317D+00 0.17984603D+05 0.17984603D+05 0.17984603D+05 0.12389370D+01  1  2  5  9  6  1       21 -.908496389191D-03 0.100000000000D+01
-.129705428090D-05 0.000000000000D+00 -.514726120837D-06 0.818457749275D-06 0.000000000000D+00  6 4 2 25 24 1 4 4 0.27505182D-02 0.29621317D+00 0.17984603D+05 0.17984603D+05 0.17984603D+05 0.12389370D+01  1  2  5  9  6  1       21 -.820090188962D-03 0.100000000000D+01
  </mgrwgt>
  </event>
  <event>
  6     66 0.46027262E-03 0.37179226E+02 0.75467711E-02 0.11708587E+00
       21 -1    0    0  501  502 0.00000000E+00 0.00000000E+00 0.63848478E+02 0.63852883E+02 0.75000000E+00 0.0000E+00 0.9000E+01
        2 -1    0    0  502    0 -.00000000E+00 -.00000000E+00 -.63363055E+03 0.63363063E+03 0.32000000E+00 0.0000E+00 0.9000E+01
       25  1    1    2    0    0 -.26376194E+02 0.95852761E+01 -.67309098E+02 0.14471730E+03 0.12500000E+03 0.0000E+00 0.9000E+01
       24  1    1    2    0    0 0.12064158E+02 -.26711302E+02 -.14831321E+03 0.17123978E+03 0.80419002E+02 0.0000E+00 0.9000E+01
        1  1    1    2  503    0 0.65566750E+02 -.28201876E+02 -.21331661E+03 0.22494094E+03 0.32000000E+00 0.0000E+00 0.9000E+01
       21  1    1    2  501  503 -.51254715E+02 0.45327902E+02 -.14084315E+03 0.15658551E+03 0.75000000E+00 0.0000E+00 0.9000E+01
#aMCatNLO 2  0  0  5  1 0.30695836D+02 0.00000000D+00  -5  6  0 0.00000000D+00 0.00000000D+00 0.00000000D+00 0.00000000D+00 0.00000000D+00
  <mgrwgt>
 0.1027251860D+00    1    2    0
 0.201141519419316D+03 0.000000000000000D+00 0.000000000000000D+00 0.201141519419316D+03
 0.201141519419316D+03 -.000000000000000D+00 -.000000000000000D+00 -.201141519419316D+03
 0.180053852464579D+03 -.335454832251619D+02 0.100638273655343D+01 0.125172191545544D+03
 0.867600329279251D+02 0.835615056243689D+01 -.311483667959049D+02 0.447675697461463D+01
 0.135469153446128D+03 0.251893326627250D+02 0.301419840593515D+02 -.129648948520159D+03
 0.000000000000000D+00 -.000000000000000D+00 0.000000000000000D+00 0.000000000000000D+00
 0.201141519419316D+03 0.000000000000000D+00 0.000000000000000D+00 0.201141519419316D+03
 0.201141519419316D+03 -.000000000000000D+00 -.000000000000000D+00 -.201141519419316D+03
 0.155547778204058D+03 -.263661549446868D+02 0.959728911285280D+01 0.882203447019791D+02
 0.868347617610626D+02 0.120697618949291D+02 -.267045962885485D+02 -.146371199556236D+02
 0.875671932212486D+02 0.655662139487194D+02 -.284457925063159D+02 -.505956698321690D+02
 0.723333056522625D+02 -.512698208989616D+02 0.455530996820116D+02 -.229875549141864D+02
0.951157610261D-05 0.000000000000D+00 0.000000000000D+00 0.162587119785D-06 0.462953237880D-09  6 21 2 25 24 1 21 4 0.98231879D-02 0.97481968D-01 0.31285995D+05 0.31285995D+05 0.31285995D+05 0.12129899D+01  1  2  1  3  6  5        1 0.102725185964D+00 0.100000000000D+01
  </mgrwgt>
  </event>
  <event>
  5     66 0.46027262E-03 0.11287937E+03 0.75467711E-02 0.11547473E+00
       21 -1    0    0  501  502 0.00000000E+00 0.00000000E+00 0.61033383E+02 0.61037991E+02 0.75000000E+00 0.0000E+00 0.9000E+01
        2 -1    0    0  502    0 0.00000000E+00 0.00000000E+00 -.81523820E+03 0.81523826E+03 0.32000000E+00 0.0000E+00 0.9000E+01
       25  1    1    2    0    0 -.77118065E+02 0.69897566E+00 -.54204585E+03 0.56159272E+03 0.12500000E+03 0.0000E+00 0.9000E+01
       24  1    1    2    0    0 -.37865656E+02 -.23349519E+02 -.16396970E+03 0.18796885E+03 0.80419002E+02 0.0000E+00 0.9000E+01
        1  1    1    2  501    0 0.11498372E+03 0.22650544E+02 -.48189263E+02 0.12671468E+03 0.32000000E+00 0.0000E+00 0.9000E+01
#aMCatNLO 1  0  0  1  2 0.29461241D+02 0.00000000D+00  -5  6  0 0.00000000D+00 0.00000000D+00 0.00000000D+00 0.00000000D+00 0.00000000D+00
  <mgrwgt>
 0.6557965883D-01   32    2    0
 0.223066788029468D+03 0.000000000000000D+00 0.000000000000000D+00 0.223066788029468D+03
 0.223066788029468D+03 0.000000000000000D+00 0.000000000000000D+00 -.223066788029468D+03
 0.186708249731684D+03 -.771181524900245D+02 0.698958348250557D+00 -.115270432165502D+03
 0.920036269641350D+02 -.378656993853554D+02 -.233495277851929D+02 -.429415678004002D+01
 0.167421699363116D+03 0.114983851875380D+03 0.226505694369424D+02 0.119564588945542D+03
 0.000000000000000D+00 -.000000000000000D+00 -.000000000000000D+00 0.000000000000000D+00
 0.342332014323056D+03 0.000000000000000D+00 0.000000000000000D+00 0.342332014323056D+03
 0.225379482887794D+03 0.000000000000000D+00 0.000000000000000D+00 -.225379482887794D+03
 0.182549597351990D+03 -.661521785893248D+02 0.599768535670527D+01 -.115270432165502D+03
 0.892817006519250D+02 -.324820083225435D+02 -.207481437678667D+02 -.429415678004002D+01
 0.175273983144600D+03 0.125161000282494D+03 0.275681382385960D+02 0.119564588945542D+03
 0.120606216062335D+03 -.265268133706260D+02 -.128176798274346D+02 0.116952531435262D+03
0.136223402905D-05 0.000000000000D+00 0.000000000000D+00 0.533536161543D-06 0.000000000000D+00  6 21 2 25 24 1 21 2 0.93901106D-02 0.12542162D+00 0.31679267D+05 0.31679267D+05 0.31679267D+05 0.12124237D+01  1  2  2  1  6  1       21 0.796629749493D-02 0.100000000000D+01
-.554170144356D-07 0.718870646984D-07 -.274995802762D-08 0.533536161543D-06 0.000000000000D+00  6 21 2 25 24 1 21 4 0.93901106D-02 0.12542162D+00 0.31679267D+05 0.31679267D+05 0.31679267D+05 0.12124237D+01  1  2  3  1  6  1       21 -.476383509522D-03 0.100000000000D+01
0.139542676271D-06 0.000000000000D+00 0.000000000000D+00 0.533536161543D-06 0.000000000000D+00  6 21 2 25 24 1 21 4 0.93901106D-02 0.12542162D+00 0.31679267D+05 0.31679267D+05 0.31679267D+05 0.12124237D+01  1  2 15  1  6  1       21 0.119955631906D-02 0.100000000000D+01
0.179692004949D-04 0.000000000000D+00 0.000000000000D+00 0.526686149563D-06 0.000000000000D+00  6 21 2 25 24 1 21 4 0.14438091D-01 0.12542162D+00 0.37704544D+05 0.37704544D+05 0.37704544D+05 0.12046154D+01  1  2 12  1  6  1       21 0.696874011275D-01 0.100000000000D+01
0.166280428358D-04 0.000000000000D+00 0.000000000000D+00 0.526686149563D-06 0.000000000000D+00  6 21 2 25 24 1 21 4 0.14909844D-01 0.12542162D+00 0.37704544D+05 0.37704544D+05 0.37704544D+05 0.12046154D+01  1  2 12  1  6  1       21 0.608248745923D-01 0.100000000000D+01
-.199732279939D-04 0.000000000000D+00 0.000000000000D+00 0.533536161543D-06 0.000000000000D+00  6 21 2 25 24 1 21 4 0.93901106D-02 0.12542162D+00 0.31679267D+05 0.31679267D+05 0.31679267D+05 0.12124237D+01  1  2  4  1  6  1       21 -.171696662932D+00 0.100000000000D+01
-.357517551870D-04 0.000000000000D+00 -.173059451320D-05 0.533536161543D-06 0.000000000000D+00  6 21 2 25 24 1 21 4 0.14511282D-01 0.12542162D+00 0.31679267D+05 0.31679267D+05 0.31679267D+05 0.12124237D+01  1  2  5  1  6  1       21 -.141438999412D+00 0.100000000000D+01
0.277987806137D-04 0.000000000000D+00 0.121702837300D-05 0.533536161543D-06 0.000000000000D+00  6 21 2 25 24 1 21 4 0.93901106D-02 0.12542162D+00 0.31679267D+05 0.31679267D+05 0.31679267D+05 0.12124237D+01  1  2  6  1  6  1       21 0.238967775584D+00 0.100000000000D+01
0.236744530649D-05 0.000000000000D+00 0.000000000000D+00 0.526686149563D-06 0.000000000000D+00  6 -1 2 25 24 1 -1 4 0.14438091D-01 0.12542162D+00 0.37704544D+05 0.37704544D+05 0.37704544D+05 0.12046154D+01  1  2 12  4  6  1       21 0.671590048887D-03 0.100000000000D+01
0.238417399552D-05 0.000000000000D+00 0.000000000000D+00 0.526686149563D-06 0.000000000000D+00  6 -1 2 25 24 1 -1 4 0.14909844D-01 0.12542162D+00 0.37704544D+05 0.37704544D+05 0.37704544D+05 0.12046154D+01  1  2 12  4  6  1       21 0.642868817353D-03 0.100000000000D+01
-.430377093436D-05 0.000000000000D+00 -.256329601941D-06 0.533536161543D-06 0.000000000000D+00  6 -1 2 25 24 1 -1 4 0.14511282D-01 0.12542162D+00 0.31679267D+05 0.31679267D+05 0.31679267D+05 0.12124237D+01  1  2  5  4  6  1       21 -.124252141845D-02 0.100000000000D+01
0.236744530649D-05 0.000000000000D+00 0.000000000000D+00 0.526686149563D-06 0.000000000000D+00  6 1 2 25 24 1 1 4 0.14438091D-01 0.12542162D+00 0.37704544D+05 0.37704544D+05 0.37704544D+05 0.12046154D+01  1  2 12  5  6  1       21 0.915737091172D-03 0.100000000000D+01
0.238417399552D-05 0.000000000000D+00 0.000000000000D+00 0.526686149563D-06 0.000000000000D+00  6 1 2 25 24 1 1 4 0.14909844D-01 0.12542162D+00 0.37704544D+05 0.37704544D+05 0.37704544D+05 0.12046154D+01  1  2 12  5  6  1       21 0.884195556072D-03 0.100000000000D+01
-.430377093436D-05 0.000000000000D+00 -.256329601941D-06 0.533536161543D-06 0.000000000000D+00  6 1 2 25 24 1 1 4 0.14511282D-01 0.12542162D+00 0.31679267D+05 0.31679267D+05 0.31679267D+05 0.12124237D+01  1  2  5  5  6  1       21 -.169682728996D-02 0.100000000000D+01
0.236744530649D-05 0.000000000000D+00 0.000000000000D+00 0.526686149563D-06 0.000000000000D+00  6 -2 2 25 24 1 -2 4 0.14438091D-01 0.12542162D+00 0.37704544D+05 0.37704544D+05 0.37704544D+05 0.12046154D+01  1  2 12  6  6  1       21 0.629670534862D-03 0.100000000000D+01
0.238417399552D-05 0.000000000000D+00 0.000000000000D+00 0.526686149563D-06 0.000000000000D+00  6 -2 2 25 24 1 -2 4 0.14909844D-01 0.12542162D+00 0.37704544D+05 0.37704544D+05 0.37704544D+05 0.12046154D+01  1  2 12  6  6  1       21 0.601483120908D-03 0.100000000000D+01
-.430377093436D-05 0.000000000000D+00 -.256329601941D-06 0.533536161543D-06 0.000000000000D+00  6 -2 2 25 24 1 -2 4 0.14511282D-01 0.12542162D+00 0.31679267D+05 0.31679267D+05 0.31679267D+05 0.12124237D+01  1  2  5  6  6  1       21 -.116444710360D-02 0.100000000000D+01
0.236744530649D-05 0.000000000000D+00 0.000000000000D+00 0.526686149563D-06 0.000000000000D+00  6 2 2 25 24 1 2 4 0.14438091D-01 0.12542162D+00 0.37704544D+05 0.37704544D+05 0.37704544D+05 0.12046154D+01  1  2 12  7  6  1       21 0.108432084752D-02 0.100000000000D+01
0.238417399552D-05 0.000000000000D+00 0.000000000000D+00 0.526686149563D-06 0.000000000000D+00  6 2 2 25 24 1 2 4 0.14909844D-01 0.12542162D+00 0.37704544D+05 0.37704544D+05 0.37704544D+05 0.12046154D+01  1  2 12  7  6  1       21 0.105114227394D-02 0.100000000000D+01
-.430377093436D-05 0.000000000000D+00 -.256329601941D-06 0.533536161543D-06 0.000000000000D+00  6 2 2 25 24 1 2 4 0.14511282D-01 0.12542162D+00 0.31679267D+05 0.31679267D+05 0.31679267D+05 0.12124237D+01  1  2  5  7  6  1       21 -.201022160291D-02 0.100000000000D+01
0.236744530649D-05 0.000000000000D+00 0.000000000000D+00 0.526686149563D-06 0.000000000000D+00  6 -3 2 25 24 1 -3 4 0.14438091D-01 0.12542162D+00 0.37704544D+05 0.37704544D+05 0.37704544D+05 0.12046154D+01  1  2 12  8  6  1       21 0.426653201429D-03 0.100000000000D+01
0.236744530649D-05 0.000000000000D+00 0.000000000000D+00 0.526686149563D-06 0.000000000000D+00  6 -4 2 25 24 1 -4 4 0.14438091D-01 0.12542162D+00 0.37704544D+05 0.37704544D+05 0.37704544D+05 0.12046154D+01  1  2 12  8  6  1       21 0.370432911080D-03 0.100000000000D+01
0.238417399552D-05 0.000000000000D+00 0.000000000000D+00 0.526686149563D-06 0.000000000000D+00  6 -3 2 25 24 1 -3 4 0.14909844D-01 0.12542162D+00 0.37704544D+05 0.37704544D+05 0.37704544D+05 0.12046154D+01  1  2 12  8  6  1       21 0.406551964264D-03 0.100000000000D+01
0.238417399552D-05 0.000000000000D+00 0.000000000000D+00 0.526686149563D-06 0.000000000000D+00  6 -4 2 25 24 1 -4 4 0.14909844D-01 0.12542162D+00 0.37704544D+05 0.37704544D+05 0.37704544D+05 0.12046154D+01  1  2 12  8  6  1       21 0.352581811303D-03 0.100000000000D+01
-.430377093436D-05 0.000000000000D+00 -.256329601941D-06 0.533536161543D-06 0.000000000000D+00  6 -3 2 25 24 1 -3 4 0.14511282D-01 0.12542162D+00 0.31679267D+05 0.31679267D+05 0.31679267D+05 0.12124237D+01  1  2  5  8  6  1       21 -.785814837831D-03 0.100000000000D+01
-.430377093436D-05 0.000000000000D+00 -.256329601941D-06 0.533536161543D-06 0.000000000000D+00  6 -4 2 25 24 1 -4 4 0.14511282D-01 0.12542162D+00 0.31679267D+05 0.31679267D+05 0.31679267D+05 0.12124237D+01  1  2  5  8  6  1       21 -.680999154906D-03 0.100000000000D+01
0.236744530649D-05 0.000000000000D+00 0.000000000000D+00 0.526686149563D-06 0.000000000000D+00  6 3 2 25 24 1 3 4 0.14438091D-01 0.12542162D+00 0.37704544D+05 0.37704544D+05 0.37704544D+05 0.12046154D+01  1  2 12  9  6  1       21 0.426604170487D-03 0.100000000000D+01
0.236744530649D-05 0.000000000000D+00 0.000000000000D+00 0.526686149563D-06 0.000000000000D+00  6 4 2 25 24 1 4 4 0.14438091D-01 0.12542162D+00 0.37704544D+05 0.37704544D+05 0.37704544D+05 0.12046154D+01  1  2 12  9  6  1       21 0.370432911080D-03 0.100000000000D+01
0.238417399552D-05 0.000000000000D+00 0.000000000000D+00 0.526686149563D-06 0.000000000000D+00  6 3 2 25 24 1 3 4 0.14909844D-01 0.12542162D+00 0.37704544D+05 0.37704544D+05 0.37704544D+05 0.12046154D+01  1  2 12  9  6  1       21 0.406505913490D-03 0.100000000000D+01
0.238417399552D-05 0.000000000000D+00 0.000000000000D+00 0.526686149563D-06 0.000000000000D+00  6 4 2 25 24 1 4 4 0.14909844D-01 0.12542162D+00 0.37704544D+05 0.37704544D+05 0.37704544D+05 0.12046154D+01  1  2 12  9  6  1       21 0.352581811303D-03 0.100000000000D+01
-.430377093436D-05 0.000000000000D+00 -.256329601941D-06 0.533536161543D-06 0.000000000000D+00  6 3 2 25 24 1 3 4 0.14511282D-01 0.12542162D+00 0.31679267D+05 0.31679267D+05 0.31679267D+05 0.12124237D+01  1  2  5  9  6  1       21 -.785722859224D-03 0.100000000000D+01
-.430377093436D-05 0.000000000000D+00 -.256329601941D-06 0.533536161543D-06 0.000000000000D+00  6 4 2 25 24 1 4 4 0.14511282D-01 0.12542162D+00 0.31679267D+05 0.31679267D+05 0.31679267D+05 0.12124237D+01  1  2  5  9  6  1       21 -.680999154906D-03 0.100000000000D+01
  </mgrwgt>
  </event>
  <event>
  5     66 0.46027262E-03 0.25431621E+02 0.75467711E-02 0.11018568E+00
       21 -1    0    0  501  502 0.00000000E+00 0.00000000E+00 0.44672314E+02 0.44678609E+02 0.75000000E+00 0.0000E+00 0.9000E+01
        2 -1    0    0  502    0 0.00000000E+00 0.00000000E+00 -.31433954E+04 0.31433954E+04 0.32000000E+00 0.0000E+00 0.9000E+01
       25  1    1    2    0    0 -.10851860E+03 0.46122392E+01 -.19956628E+04 0.20025216E+04 0.12500000E+03 0.0000E+00 0.9000E+01
       24  1    1    2    0    0 0.83107520E+02 -.35905084E+01 -.11371496E+04 0.11430206E+04 0.80419002E+02 0.0000E+00 0.9000E+01
        1  1    1    2  501    0 0.25411081E+02 -.10217308E+01 0.34089354E+02 0.42531793E+02 0.32000000E+00 0.0000E+00 0.9000E+01
#aMCatNLO 1  0  0  1  2 0.31787895D+01 0.00000000D+00  -5  6  0 0.00000000D+00 0.00000000D+00 0.00000000D+00 0.00000000D+00 0.00000000D+00
  <mgrwgt>
 0.1271950079D+01   14    2    0
 0.374743651871030D+03 0.000000000000000D+00 0.000000000000000D+00 0.374743651871030D+03
 0.374743651871030D+03 0.000000000000000D+00 0.000000000000000D+00 -.374743651871030D+03
 0.267090037545448D+03 -.108518605368855D+03 0.461223938752663D+01 -.209557933976883D+03
 0.160540020328612D+03 0.831075172501395D+02 -.359050832500941D+01 -.111292996182268D+03
 0.321857245868000D+03 0.254110881187153D+02 -.102173106251722D+01 0.320850930159152D+03
 0.000000000000000D+00 -.000000000000000D+00 0.000000000000000D+00 0.000000000000000D+00
 0.575133568365760D+03 0.000000000000000D+00 0.000000000000000D+00 0.575133568365760D+03
 0.417678471589598D+03 0.000000000000000D+00 0.000000000000000D+00 -.417678471589598D+03
 0.250076812164659D+03 -.543675415341911D+02 -.656160935339571D+01 -.209557933976883D+03
 0.182014610715930D+03 0.118975434350686D+03 -.109917051243397D+02 -.111292996182268D+03
 0.334727872400386D+03 0.941602406836399D+02 -.152078352205544D+02 0.320850930159152D+03
 0.225992744674383D+03 -.158768133500134D+03 0.327611496982898D+02 0.157455096776162D+03
0.106049534692D-02 0.000000000000D+00 0.000000000000D+00 0.259488083061D-04 0.000000000000D+00  6 21 2 25 24 1 21 2 0.68731491D-02 0.48359977D+00 0.23521018D+05 0.23521018D+05 0.23521018D+05 0.12261473D+01  1  2  2  1  6  1       21 0.578049349918D+00 0.100000000000D+01
0.409759619489D-03 0.559638769777D-04 -.214083456318D-05 0.259488083061D-04 0.000000000000D+00  6 21 2 25 24 1 21 4 0.68731491D-02 0.48359977D+00 0.23521018D+05 0.23521018D+05 0.23521018D+05 0.12261473D+01  1  2  3  1  6  1       21 0.335792181937D+00 0.100000000000D+01
0.101241635673D-03 0.000000000000D+00 0.000000000000D+00 0.259488083061D-04 0.000000000000D+00  6 21 2 25 24 1 21 4 0.68731491D-02 0.48359977D+00 0.23521018D+05 0.23521018D+05 0.23521018D+05 0.12261473D+01  1  2 15  1  6  1       21 0.829660809129D-01 0.100000000000D+01
-.508507058662D-03 0.000000000000D+00 0.000000000000D+00 0.259488083061D-04 0.000000000000D+00  6 21 2 25 24 1 21 4 0.68731491D-02 0.48359977D+00 0.23521018D+05 0.23521018D+05 0.23521018D+05 0.12261473D+01  1  2  4  1  6  1       21 -.416714304283D+00 0.100000000000D+01
-.112122248545D-02 0.000000000000D+00 -.138707757984D-02 0.259488083061D-04 0.000000000000D+00  6 21 2 25 24 1 21 4 0.12389096D-01 0.48359977D+00 0.23521018D+05 0.23521018D+05 0.23521018D+05 0.12261473D+01  1  2  5  1  6  1       21 -.328022150742D+00 0.100000000000D+01
0.125727032579D-02 0.000000000000D+00 0.752909673259D-03 0.259488083061D-04 0.000000000000D+00  6 21 2 25 24 1 21 4 0.68731491D-02 0.48359977D+00 0.23521018D+05 0.23521018D+05 0.23521018D+05 0.12261473D+01  1  2  6  1  6  1       21 0.103031515528D+01 0.100000000000D+01
-.710210728658D-04 0.000000000000D+00 -.290012884968D-03 0.259488083061D-04 0.000000000000D+00  6 -1 2 25 24 1 -1 4 0.12389096D-01 0.48359977D+00 0.23521018D+05 0.23521018D+05 0.23521018D+05 0.12261473D+01  1  2  5  4  6  1       21 -.145249402448D-02 0.100000000000D+01
-.710210728658D-04 0.000000000000D+00 -.290012884968D-03 0.259488083061D-04 0.000000000000D+00  6 1 2 25 24 1 1 4 0.12389096D-01 0.48359977D+00 0.23521018D+05 0.23521018D+05 0.23521018D+05 0.12261473D+01  1  2  5  5  6  1       21 -.190691009220D-02 0.100000000000D+01
-.710210728658D-04 0.000000000000D+00 -.290012884968D-03 0.259488083061D-04 0.000000000000D+00  6 -2 2 25 24 1 -2 4 0.12389096D-01 0.48359977D+00 0.23521018D+05 0.23521018D+05 0.23521018D+05 0.12261473D+01  1  2  5  6  6  1       21 -.137391589527D-02 0.100000000000D+01
-.710210728658D-04 0.000000000000D+00 -.290012884968D-03 0.259488083061D-04 0.000000000000D+00  6 2 2 25 24 1 2 4 0.12389096D-01 0.48359977D+00 0.23521018D+05 0.23521018D+05 0.23521018D+05 0.12261473D+01  1  2  5  7  6  1       21 -.221715408166D-02 0.100000000000D+01
-.710210728658D-04 0.000000000000D+00 -.290012884968D-03 0.259488083061D-04 0.000000000000D+00  6 -3 2 25 24 1 -3 4 0.12389096D-01 0.48359977D+00 0.23521018D+05 0.23521018D+05 0.23521018D+05 0.12261473D+01  1  2  5  8  6  1       21 -.932660907094D-03 0.100000000000D+01
-.710210728658D-04 0.000000000000D+00 -.290012884968D-03 0.259488083061D-04 0.000000000000D+00  6 -4 2 25 24 1 -4 4 0.12389096D-01 0.48359977D+00 0.23521018D+05 0.23521018D+05 0.23521018D+05 0.12261473D+01  1  2  5  8  6  1       21 -.810277387427D-03 0.100000000000D+01
-.710210728658D-04 0.000000000000D+00 -.290012884968D-03 0.259488083061D-04 0.000000000000D+00  6 3 2 25 24 1 3 4 0.12389096D-01 0.48359977D+00 0.23521018D+05 0.23521018D+05 0.23521018D+05 0.12261473D+01  1  2  5  9  6  1       21 -.932543764376D-03 0.100000000000D+01
-.710210728658D-04 0.000000000000D+00 -.290012884968D-03 0.259488083061D-04 0.000000000000D+00  6 4 2 25 24 1 4 4 0.12389096D-01 0.48359977D+00 0.23521018D+05 0.23521018D+05 0.23521018D+05 0.12261473D+01  1  2  5  9  6  1       21 -.810277387427D-03 0.100000000000D+01
  </mgrwgt>
  </event>
  <event>
  5     66 0.46027262E-03 0.57964945E+02 0.75467711E-02 0.11883654E+00
       21 -1    0    0  501  502 0.00000000E+00 0.00000000E+00 0.81123819E+02 0.81127286E+02 0.75000000E+00 0.0000E+00 0.9000E+01
        2 -1    0    0  502    0 0.00000000E+00 0.00000000E+00 -.79273047E+03 0.79273053E+03 0.32000000E+00 0.0000E+00 0.9000E+01
       25  1    1    2    0    0 -.76780848E+02 -.43987840E+02 -.58023078E+03 0.60010248E+03 0.12500000E+03 0.0000E+00 0.9000E+01
       24  1    1    2    0    0 0.41915812E+02 -.48489957E+01 -.17662205E+03 0.19860265E+03 0.80419002E+02 0.0000E+00 0.9000E+01
        1  1    1    2  501    0 0.34865036E+02 0.48836836E+02 0.45246181E+02 0.75152688E+02 0.32000000E+00 0.0000E+00 0.9000E+01
#aMCatNLO 1  0  0  1  5 0.15028638D+02 0.00000000D+00  -5  6  0 0.00000000D+00 0.00000000D+00 0.00000000D+00 0.00000000D+00 0.00000000D+00
  <mgrwgt>
 0.2155160844D+00   32    2    0
 0.253595871468443D+03 0.000000000000000D+00 0.000000000000000D+00 0.253595871468443D+03
 0.253595871468443D+03 0.000000000000000D+00 0.000000000000000D+00 -.253595871468443D+03
 0.219854150788311D+03 -.767808683554829D+02 -.439878694823333D+02 -.157735897029917D+03
 0.943727073149140D+02 0.419158030607258D+02 -.484900820429835D+01 -.256621219852333D+02
 0.192964884833661D+03 0.348650652947572D+02 0.488368776866316D+02 0.183398019015151D+03
 0.000000000000000D+00 -.000000000000000D+00 0.000000000000000D+00 0.000000000000000D+00
 0.314698312229583D+03 0.000000000000000D+00 0.000000000000000D+00 0.314698312229583D+03
 0.254632965756123D+03 0.000000000000000D+00 0.000000000000000D+00 -.254632965756123D+03
 0.217734490844869D+03 -.703053335978492D+02 -.442702536624412D+02 -.157735897029917D+03
 0.956612186956005D+02 0.447279676736323D+02 -.497164067069165D+01 -.256621219852333D+02
 0.194018641901261D+03 0.405917342243961D+02 0.485871499388901D+02 0.183398019015151D+03
 0.619169265439750D+02 -.150143683001792D+02 0.654744394242706D+00 0.600653464734599D+02
0.270099208833D-05 0.000000000000D+00 0.000000000000D+00 0.196786853897D-05 0.000000000000D+00  6 21 2 25 24 1 21 2 0.12480859D-01 0.12195881D+00 0.23099862D+05 0.23099862D+05 0.23099862D+05 0.12269955D+01  1  2  2  1  6  1       21 0.101603557645D-01 0.100000000000D+01
0.197461876453D-06 0.142535268437D-06 -.545252483603D-08 0.196786853897D-05 0.000000000000D+00  6 21 2 25 24 1 21 4 0.12480859D-01 0.12195881D+00 0.23099862D+05 0.23099862D+05 0.23099862D+05 0.12269955D+01  1  2  3  1  6  1       21 0.111829096190D-02 0.100000000000D+01
0.290435592852D-06 0.000000000000D+00 0.000000000000D+00 0.196786853897D-05 0.000000000000D+00  6 21 2 25 24 1 21 4 0.12480859D-01 0.12195881D+00 0.23099862D+05 0.23099862D+05 0.23099862D+05 0.12269955D+01  1  2 15  1  6  1       21 0.164483141928D-02 0.100000000000D+01
0.656170661869D-04 0.000000000000D+00 0.000000000000D+00 0.195195578403D-05 0.000000000000D+00  6 21 2 25 24 1 21 4 0.15509474D-01 0.12195881D+00 0.25694126D+05 0.25694126D+05 0.25694126D+05 0.12220245D+01  1  2 12  1  6  1       21 0.246913293932D+00 0.100000000000D+01
0.460804340869D-04 0.000000000000D+00 0.000000000000D+00 0.195195578403D-05 0.000000000000D+00  6 21 2 25 24 1 21 4 0.16857666D-01 0.12195881D+00 0.25694126D+05 0.25694126D+05 0.25694126D+05 0.12220245D+01  1  2 12  1  6  1       21 0.148942547826D+00 0.100000000000D+01
-.653905301586D-04 0.000000000000D+00 0.000000000000D+00 0.196786853897D-05 0.000000000000D+00  6 21 2 25 24 1 21 4 0.12480859D-01 0.12195881D+00 0.23099862D+05 0.23099862D+05 0.23099862D+05 0.12269955D+01  1  2  4  1  6  1       21 -.370327883963D+00 0.100000000000D+01
-.137161496321D-03 0.000000000000D+00 -.475123635220D-05 0.196786853897D-05 0.000000000000D+00  6 21 2 25 24 1 21 4 0.15527373D-01 0.12195881D+00 0.23099862D+05 0.23099862D+05 0.23099862D+05 0.12269955D+01  1  2  5  1  6  1       21 -.524321622802D+00 0.100000000000D+01
0.124151053449D-03 0.000000000000D+00 0.432686661540D-05 0.196786853897D-05 0.000000000000D+00  6 21 2 25 24 1 21 4 0.12480859D-01 0.12195881D+00 0.23099862D+05 0.23099862D+05 0.23099862D+05 0.12269955D+01  1  2  6  1  6  1       21 0.703107878223D+00 0.100000000000D+01
0.442595235852D-05 0.000000000000D+00 0.000000000000D+00 0.195195578403D-05 0.000000000000D+00  6 -1 2 25 24 1 -1 4 0.15509474D-01 0.12195881D+00 0.25694126D+05 0.25694126D+05 0.25694126D+05 0.12220245D+01  1  2 12  4  6  1       21 0.122965022158D-02 0.100000000000D+01
0.467506700952D-05 0.000000000000D+00 0.000000000000D+00 0.195195578403D-05 0.000000000000D+00  6 -1 2 25 24 1 -1 4 0.16857666D-01 0.12195881D+00 0.25694126D+05 0.25694126D+05 0.25694126D+05 0.12220245D+01  1  2 12  4  6  1       21 0.113832489153D-02 0.100000000000D+01
-.927768708931D-05 0.000000000000D+00 -.303233928949D-06 0.196786853897D-05 0.000000000000D+00  6 -1 2 25 24 1 -1 4 0.15527373D-01 0.12195881D+00 0.23099862D+05 0.23099862D+05 0.23099862D+05 0.12269955D+01  1  2  5  4  6  1       21 -.261440080238D-02 0.100000000000D+01
0.442595235852D-05 0.000000000000D+00 0.000000000000D+00 0.195195578403D-05 0.000000000000D+00  6 1 2 25 24 1 1 4 0.15509474D-01 0.12195881D+00 0.25694126D+05 0.25694126D+05 0.25694126D+05 0.12220245D+01  1  2 12  5  6  1       21 0.171043713598D-02 0.100000000000D+01
0.467506700952D-05 0.000000000000D+00 0.000000000000D+00 0.195195578403D-05 0.000000000000D+00  6 1 2 25 24 1 1 4 0.16857666D-01 0.12195881D+00 0.25694126D+05 0.25694126D+05 0.25694126D+05 0.12220245D+01  1  2 12  5  6  1       21 0.162191100887D-02 0.100000000000D+01
-.927768708931D-05 0.000000000000D+00 -.303233928949D-06 0.196786853897D-05 0.000000000000D+00  6 1 2 25 24 1 1 4 0.15527373D-01 0.12195881D+00 0.23099862D+05 0.23099862D+05 0.23099862D+05 0.12269955D+01  1  2  5  5  6  1       21 -.363822789357D-02 0.100000000000D+01
0.442595235852D-05 0.000000000000D+00 0.000000000000D+00 0.195195578403D-05 0.000000000000D+00  6 -2 2 25 24 1 -2 4 0.15509474D-01 0.12195881D+00 0.25694126D+05 0.25694126D+05 0.25694126D+05 0.12220245D+01  1  2 12  6  6  1       21 0.114712006677D-02 0.100000000000D+01
0.467506700952D-05 0.000000000000D+00 0.000000000000D+00 0.195195578403D-05 0.000000000000D+00  6 -2 2 25 24 1 -2 4 0.16857666D-01 0.12195881D+00 0.25694126D+05 0.25694126D+05 0.25694126D+05 0.12220245D+01  1  2 12  6  6  1       21 0.105563122511D-02 0.100000000000D+01
-.927768708931D-05 0.000000000000D+00 -.303233928949D-06 0.196786853897D-05 0.000000000000D+00  6 -2 2 25 24 1 -2 4 0.15527373D-01 0.12195881D+00 0.23099862D+05 0.23099862D+05 0.23099862D+05 0.12269955D+01  1  2  5  6  6  1       21 -.243853467594D-02 0.100000000000D+01
0.442595235852D-05 0.000000000000D+00 0.000000000000D+00 0.195195578403D-05 0.000000000000D+00  6 2 2 25 24 1 2 4 0.15509474D-01 0.12195881D+00 0.25694126D+05 0.25694126D+05 0.25694126D+05 0.12220245D+01  1  2 12  7  6  1       21 0.204288479449D-02 0.100000000000D+01
0.467506700952D-05 0.000000000000D+00 0.000000000000D+00 0.195195578403D-05 0.000000000000D+00  6 2 2 25 24 1 2 4 0.16857666D-01 0.12195881D+00 0.25694126D+05 0.25694126D+05 0.25694126D+05 0.12220245D+01  1  2 12  7  6  1       21 0.195805418569D-02 0.100000000000D+01
-.927768708931D-05 0.000000000000D+00 -.303233928949D-06 0.196786853897D-05 0.000000000000D+00  6 2 2 25 24 1 2 4 0.15527373D-01 0.12195881D+00 0.23099862D+05 0.23099862D+05 0.23099862D+05 0.12269955D+01  1  2  5  7  6  1       21 -.434564875738D-02 0.100000000000D+01
0.442595235852D-05 0.000000000000D+00 0.000000000000D+00 0.195195578403D-05 0.000000000000D+00  6 -3 2 25 24 1 -3 4 0.15509474D-01 0.12195881D+00 0.25694126D+05 0.25694126D+05 0.25694126D+05 0.12220245D+01  1  2 12  8  6  1       21 0.766765412774D-03 0.100000000000D+01
0.442595235852D-05 0.000000000000D+00 0.000000000000D+00 0.195195578403D-05 0.000000000000D+00  6 -4 2 25 24 1 -4 4 0.15509474D-01 0.12195881D+00 0.25694126D+05 0.25694126D+05 0.25694126D+05 0.12220245D+01  1  2 12  8  6  1       21 0.661549672378D-03 0.100000000000D+01
0.467506700952D-05 0.000000000000D+00 0.000000000000D+00 0.195195578403D-05 0.000000000000D+00  6 -3 2 25 24 1 -3 4 0.16857666D-01 0.12195881D+00 0.25694126D+05 0.25694126D+05 0.25694126D+05 0.12220245D+01  1  2 12  8  6  1       21 0.701231098174D-03 0.100000000000D+01
0.467506700952D-05 0.000000000000D+00 0.000000000000D+00 0.195195578403D-05 0.000000000000D+00  6 -4 2 25 24 1 -4 4 0.16857666D-01 0.12195881D+00 0.25694126D+05 0.25694126D+05 0.25694126D+05 0.12220245D+01  1  2 12  8  6  1       21 0.603184524732D-03 0.100000000000D+01
-.927768708931D-05 0.000000000000D+00 -.303233928949D-06 0.196786853897D-05 0.000000000000D+00  6 -3 2 25 24 1 -3 4 0.15527373D-01 0.12195881D+00 0.23099862D+05 0.23099862D+05 0.23099862D+05 0.12269955D+01  1  2  5  8  6  1       21 -.162594384010D-02 0.100000000000D+01
-.927768708931D-05 0.000000000000D+00 -.303233928949D-06 0.196786853897D-05 0.000000000000D+00  6 -4 2 25 24 1 -4 4 0.15527373D-01 0.12195881D+00 0.23099862D+05 0.23099862D+05 0.23099862D+05 0.12269955D+01  1  2  5  8  6  1       21 -.140120368397D-02 0.100000000000D+01
0.442595235852D-05 0.000000000000D+00 0.000000000000D+00 0.195195578403D-05 0.000000000000D+00  6 3 2 25 24 1 3 4 0.15509474D-01 0.12195881D+00 0.25694126D+05 0.25694126D+05 0.25694126D+05 0.12220245D+01  1  2 12  9  6  1       21 0.766676216582D-03 0.100000000000D+01
0.442595235852D-05 0.000000000000D+00 0.000000000000D+00 0.195195578403D-05 0.000000000000D+00  6 4 2 25 24 1 4 4 0.15509474D-01 0.12195881D+00 0.25694126D+05 0.25694126D+05 0.25694126D+05 0.12220245D+01  1  2 12  9  6  1       21 0.661549672378D-03 0.100000000000D+01
0.467506700952D-05 0.000000000000D+00 0.000000000000D+00 0.195195578403D-05 0.000000000000D+00  6 3 2 25 24 1 3 4 0.16857666D-01 0.12195881D+00 0.25694126D+05 0.25694126D+05 0.25694126D+05 0.12220245D+01  1  2 12  9  6  1       21 0.701153960386D-03 0.100000000000D+01
0.467506700952D-05 0.000000000000D+00 0.000000000000D+00 0.195195578403D-05 0.000000000000D+00  6 4 2 25 24 1 4 4 0.16857666D-01 0.12195881D+00 0.25694126D+05 0.25694126D+05 0.25694126D+05 0.12220245D+01  1  2 12  9  6  1       21 0.603184524732D-03 0.100000000000D+01
-.927768708931D-05 0.000000000000D+00 -.303233928949D-06 0.196786853897D-05 0.000000000000D+00  6 3 2 25 24 1 3 4 0.15527373D-01 0.12195881D+00 0.23099862D+05 0.23099862D+05 0.23099862D+05 0.12269955D+01  1  2  5  9  6  1       21 -.162575222399D-02 0.100000000000D+01
-.927768708931D-05 0.000000000000D+00 -.303233928949D-06 0.196786853897D-05 0.000000000000D+00  6 4 2 25 24 1 4 4 0.15527373D-01 0.12195881D+00 0.23099862D+05 0.23099862D+05 0.23099862D+05 0.12269955D+01  1  2  5  9  6  1       21 -.140120368397D-02 0.100000000000D+01
  </mgrwgt>
  </event>
  <event>
  5     66 0.46027262E-03 0.68483091E+02 0.75467711E-02 0.11988067E+00
       21 -1    0    0  501  502 0.00000000E+00 0.00000000E+00 0.28504540E+02 0.28514405E+02 0.75000000E+00 0.0000E+00 0.9000E+01
        2 -1    0    0  502    0 0.00000000E+00 0.00000000E+00 -.17401074E+04 0.17401074E+04 0.32000000E+00 0.0000E+00 0.9000E+01
       25  1    1    2    0    0 0.49525285E+02 0.36113164E+02 -.97622088E+03 0.98609793E+03 0.12500000E+03 0.0000E+00 0.9000E+01
       24  1    1    2    0    0 0.15691663E+02 -.15216429E+02 -.70092225E+03 0.70585904E+03 0.80419002E+02 0.0000E+00 0.9000E+01
        1  1    1    2  501    0 -.65216948E+02 -.20896735E+02 -.34459698E+02 0.76664835E+02 0.32000000E+00 0.0000E+00 0.9000E+01
#aMCatNLO 1  0  0  1  5 0.96691898D+01 0.00000000D+00  -5  6  0 0.00000000D+00 0.00000000D+00 0.00000000D+00 0.00000000D+00 0.00000000D+00
  <mgrwgt>
 0.2581981356D+00   41    2    0
 0.222732372877584D+03 0.000000000000000D+00 0.000000000000000D+00 0.222732372877584D+03
 0.222732372877584D+03 0.000000000000000D+00 0.000000000000000D+00 -.222732372877584D+03
 0.164169903347302D+03 0.495253264385485D+02 0.361131774289266D+02 -.870048137875399D+02
 0.109317748853892D+03 0.156916906319402D+02 -.152164205338093D+02 -.707487501752640D+02
 0.171977093553975D+03 -.652170170704887D+02 -.208967568951173D+02 0.157753563962804D+03
 0.000000000000000D+00 0.000000000000000D+00 0.000000000000000D+00 0.000000000000000D+00
 0.307391886795592D+03 0.000000000000000D+00 0.000000000000000D+00 0.307391886795592D+03
 0.223061093398380D+03 0.000000000000000D+00 0.000000000000000D+00 -.223061093398380D+03
 0.162888548249491D+03 0.464190237109328D+02 0.343964499090537D+02 -.870048137875399D+02
 0.109205153581220D+03 0.136162258807112D+02 -.163634457169266D+02 -.707487501752640D+02
 0.173475970545835D+03 -.684980262908202D+02 -.227100376070791D+02 0.157753563962804D+03
 0.848833078174268D+02 0.846277669917624D+01 0.467703341495196D+01 0.843307933972125D+02
0.976048456772D-06 0.000000000000D+00 0.000000000000D+00 0.217035632366D-05 0.000000000000D+00  6 21 2 25 24 1 21 2 0.43860750D-02 0.26770959D+00 0.21175871D+05 0.21175871D+05 0.21175871D+05 0.12311039D+01  1  2  2  1  6  1       21 0.659256886747D-02 0.100000000000D+01
0.339698623976D-07 0.515074921523D-07 -.197036062220D-08 0.217035632366D-05 0.000000000000D+00  6 21 2 25 24 1 21 4 0.43860750D-02 0.26770959D+00 0.21175871D+05 0.21175871D+05 0.21175871D+05 0.12311039D+01  1  2  3  1  6  1       21 0.347749462526D-03 0.100000000000D+01
0.103134549774D-06 0.000000000000D+00 0.000000000000D+00 0.217035632366D-05 0.000000000000D+00  6 21 2 25 24 1 21 4 0.43860750D-02 0.26770959D+00 0.21175871D+05 0.21175871D+05 0.21175871D+05 0.12311039D+01  1  2 15  1  6  1       21 0.105578832884D-02 0.100000000000D+01
0.721877461277D-04 0.000000000000D+00 0.000000000000D+00 0.215725107776D-05 0.000000000000D+00  6 21 2 25 24 1 21 4 0.60555273D-02 0.26770959D+00 0.22911093D+05 0.22911093D+05 0.22911093D+05 0.12273813D+01  1  2 12  1  6  1       21 0.422965196594D+00 0.100000000000D+01
0.674978789205D-04 0.000000000000D+00 0.000000000000D+00 0.215725107776D-05 0.000000000000D+00  6 21 2 25 24 1 21 4 0.61671449D-02 0.26770959D+00 0.22911093D+05 0.22911093D+05 0.22911093D+05 0.12273813D+01  1  2 12  1  6  1       21 0.383367847689D+00 0.100000000000D+01
-.962970509728D-04 0.000000000000D+00 0.000000000000D+00 0.217035632366D-05 0.000000000000D+00  6 21 2 25 24 1 21 4 0.43860750D-02 0.26770959D+00 0.21175871D+05 0.21175871D+05 0.21175871D+05 0.12311039D+01  1  2  4  1  6  1       21 -.985792857406D+00 0.100000000000D+01
-.145162174216D-03 0.000000000000D+00 -.136883443783D-05 0.217035632366D-05 0.000000000000D+00  6 21 2 25 24 1 21 4 0.60581738D-02 0.26770959D+00 0.21175871D+05 0.21175871D+05 0.21175871D+05 0.12311039D+01  1  2  5  1  6  1       21 -.861735707194D+00 0.100000000000D+01
0.126236801976D-03 0.000000000000D+00 0.112060348064D-05 0.217035632366D-05 0.000000000000D+00  6 21 2 25 24 1 21 4 0.43860750D-02 0.26770959D+00 0.21175871D+05 0.21175871D+05 0.21175871D+05 0.12311039D+01  1  2  6  1  6  1       21 0.129228607182D+01 0.100000000000D+01
0.193822058613D-09 0.000000000000D+00 0.000000000000D+00 0.217035632366D-05 0.391079473964D-06  6 21 2 25 24 1 21 4 0.60532011D-02 0.26810469D+00 0.22911093D+05 0.22911093D+05 0.22911093D+05 0.12273813D+01  1  2 11  1  6  1       21 0.113294475514D-05 0.100000000000D+01
0.596402274877D-05 0.000000000000D+00 0.000000000000D+00 0.215725107776D-05 0.000000000000D+00  6 -1 2 25 24 1 -1 4 0.60555273D-02 0.26770959D+00 0.22911093D+05 0.22911093D+05 0.22911093D+05 0.12273813D+01  1  2 12  4  6  1       21 0.208456945780D-02 0.100000000000D+01
0.592953851093D-05 0.000000000000D+00 0.000000000000D+00 0.215725107776D-05 0.000000000000D+00  6 -1 2 25 24 1 -1 4 0.61671449D-02 0.26770959D+00 0.22911093D+05 0.22911093D+05 0.22911093D+05 0.12273813D+01  1  2 12  4  6  1       21 0.201669912517D-02 0.100000000000D+01
-.119620855420D-04 0.000000000000D+00 -.141115882044D-06 0.217035632366D-05 0.000000000000D+00  6 -1 2 25 24 1 -1 4 0.60581738D-02 0.26770959D+00 0.21175871D+05 0.21175871D+05 0.21175871D+05 0.12311039D+01  1  2  5  4  6  1       21 -.423143677769D-02 0.100000000000D+01
0.210219510943D-10 0.000000000000D+00 0.000000000000D+00 0.217035632366D-05 0.421327161606D-07  6 -1 2 25 24 1 -1 4 0.60532011D-02 0.26810469D+00 0.22911093D+05 0.22911093D+05 0.22911093D+05 0.12273813D+01  1  2 11  4  6  1       21 0.732958963365D-08 0.100000000000D+01
0.596402274877D-05 0.000000000000D+00 0.000000000000D+00 0.215725107776D-05 0.000000000000D+00  6 1 2 25 24 1 1 4 0.60555273D-02 0.26770959D+00 0.22911093D+05 0.22911093D+05 0.22911093D+05 0.12273813D+01  1  2 12  5  6  1       21 0.240469012117D-02 0.100000000000D+01
0.592953851093D-05 0.000000000000D+00 0.000000000000D+00 0.215725107776D-05 0.000000000000D+00  6 1 2 25 24 1 1 4 0.61671449D-02 0.26770959D+00 0.22911093D+05 0.22911093D+05 0.22911093D+05 0.12273813D+01  1  2 12  5  6  1       21 0.233208736135D-02 0.100000000000D+01
-.119620855420D-04 0.000000000000D+00 -.141115882044D-06 0.217035632366D-05 0.000000000000D+00  6 1 2 25 24 1 1 4 0.60581738D-02 0.26770959D+00 0.21175871D+05 0.21175871D+05 0.21175871D+05 0.12311039D+01  1  2  5  5  6  1       21 -.488213830981D-02 0.100000000000D+01
0.185935982192D-10 0.000000000000D+00 0.000000000000D+00 0.217035632366D-05 0.183361827225D-07  6 1 2 25 24 1 1 4 0.60532011D-02 0.26810469D+00 0.22911093D+05 0.22911093D+05 0.22911093D+05 0.12273813D+01  1  2 11  5  6  1       21 0.747809012459D-08 0.100000000000D+01
0.596402274877D-05 0.000000000000D+00 0.000000000000D+00 0.215725107776D-05 0.000000000000D+00  6 -2 2 25 24 1 -2 4 0.60555273D-02 0.26770959D+00 0.22911093D+05 0.22911093D+05 0.22911093D+05 0.12273813D+01  1  2 12  6  6  1       21 0.202844826247D-02 0.100000000000D+01
0.592953851093D-05 0.000000000000D+00 0.000000000000D+00 0.215725107776D-05 0.000000000000D+00  6 -2 2 25 24 1 -2 4 0.61671449D-02 0.26770959D+00 0.22911093D+05 0.22911093D+05 0.22911093D+05 0.12273813D+01  1  2 12  6  6  1       21 0.196143415054D-02 0.100000000000D+01
-.119620855420D-04 0.000000000000D+00 -.141115882044D-06 0.217035632366D-05 0.000000000000D+00  6 -2 2 25 24 1 -2 4 0.60581738D-02 0.26770959D+00 0.21175871D+05 0.21175871D+05 0.21175871D+05 0.12311039D+01  1  2  5  6  6  1       21 -.411733401480D-02 0.100000000000D+01
0.198749392822D-10 0.000000000000D+00 0.000000000000D+00 0.217035632366D-05 0.389430222448D-07  6 -2 2 25 24 1 -2 4 0.60532011D-02 0.26810469D+00 0.22911093D+05 0.22911093D+05 0.22911093D+05 0.12273813D+01  1  2 11  6  6  1       21 0.674317587710D-08 0.100000000000D+01
0.596402274877D-05 0.000000000000D+00 0.000000000000D+00 0.215725107776D-05 0.000000000000D+00  6 2 2 25 24 1 2 4 0.60555273D-02 0.26770959D+00 0.22911093D+05 0.22911093D+05 0.22911093D+05 0.12273813D+01  1  2 12  7  6  1       21 0.261962465111D-02 0.100000000000D+01
0.592953851093D-05 0.000000000000D+00 0.000000000000D+00 0.215725107776D-05 0.000000000000D+00  6 2 2 25 24 1 2 4 0.61671449D-02 0.26770959D+00 0.22911093D+05 0.22911093D+05 0.22911093D+05 0.12273813D+01  1  2 12  7  6  1       21 0.254384301321D-02 0.100000000000D+01
-.119620855420D-04 0.000000000000D+00 -.141115882044D-06 0.217035632366D-05 0.000000000000D+00  6 2 2 25 24 1 2 4 0.60581738D-02 0.26770959D+00 0.21175871D+05 0.21175871D+05 0.21175871D+05 0.12311039D+01  1  2  5  7  6  1       21 -.531885671450D-02 0.100000000000D+01
0.200247153933D-10 0.000000000000D+00 0.000000000000D+00 0.217035632366D-05 0.392483368357D-07  6 2 2 25 24 1 2 4 0.60532011D-02 0.26810469D+00 0.22911093D+05 0.22911093D+05 0.22911093D+05 0.12273813D+01  1  2 11  7  6  1       21 0.877327495632D-08 0.100000000000D+01
0.596402274877D-05 0.000000000000D+00 0.000000000000D+00 0.215725107776D-05 0.000000000000D+00  6 -3 2 25 24 1 -3 4 0.60555273D-02 0.26770959D+00 0.22911093D+05 0.22911093D+05 0.22911093D+05 0.12273813D+01  1  2 12  8  6  1       21 0.145864007235D-02 0.100000000000D+01
0.596402274877D-05 0.000000000000D+00 0.000000000000D+00 0.215725107776D-05 0.000000000000D+00  6 -4 2 25 24 1 -4 4 0.60555273D-02 0.26770959D+00 0.22911093D+05 0.22911093D+05 0.22911093D+05 0.12273813D+01  1  2 12  8  6  1       21 0.129515439024D-02 0.100000000000D+01
0.592953851093D-05 0.000000000000D+00 0.000000000000D+00 0.215725107776D-05 0.000000000000D+00  6 -3 2 25 24 1 -3 4 0.61671449D-02 0.26770959D+00 0.22911093D+05 0.22911093D+05 0.22911093D+05 0.12273813D+01  1  2 12  8  6  1       21 0.140835947946D-02 0.100000000000D+01
0.592953851093D-05 0.000000000000D+00 0.000000000000D+00 0.215725107776D-05 0.000000000000D+00  6 -4 2 25 24 1 -4 4 0.61671449D-02 0.26770959D+00 0.22911093D+05 0.22911093D+05 0.22911093D+05 0.12273813D+01  1  2 12  8  6  1       21 0.124987914405D-02 0.100000000000D+01
-.119620855420D-04 0.000000000000D+00 -.141115882044D-06 0.217035632366D-05 0.000000000000D+00  6 -3 2 25 24 1 -3 4 0.60581738D-02 0.26770959D+00 0.21175871D+05 0.21175871D+05 0.21175871D+05 0.12311039D+01  1  2  5  8  6  1       21 -.295552690224D-02 0.100000000000D+01
-.119620855420D-04 0.000000000000D+00 -.141115882044D-06 0.217035632366D-05 0.000000000000D+00  6 -4 2 25 24 1 -4 4 0.60581738D-02 0.26770959D+00 0.21175871D+05 0.21175871D+05 0.21175871D+05 0.12311039D+01  1  2  5  8  6  1       21 -.262217861242D-02 0.100000000000D+01
0.198705266088D-10 0.000000000000D+00 0.000000000000D+00 0.217035632366D-05 0.389343760379D-07  6 -3 2 25 24 1 -3 4 0.60532011D-02 0.26810469D+00 0.22911093D+05 0.22911093D+05 0.22911093D+05 0.12273813D+01  1  2 11  8  6  1       21 0.484803564062D-08 0.100000000000D+01
0.198705266088D-10 0.000000000000D+00 0.000000000000D+00 0.217035632366D-05 0.389343760379D-07  6 -4 2 25 24 1 -4 4 0.60532011D-02 0.26810469D+00 0.22911093D+05 0.22911093D+05 0.22911093D+05 0.12273813D+01  1  2 11  8  6  1       21 0.430470898140D-08 0.100000000000D+01
0.596402274877D-05 0.000000000000D+00 0.000000000000D+00 0.215725107776D-05 0.000000000000D+00  6 3 2 25 24 1 3 4 0.60555273D-02 0.26770959D+00 0.22911093D+05 0.22911093D+05 0.22911093D+05 0.12273813D+01  1  2 12  9  6  1       21 0.145848427939D-02 0.100000000000D+01
0.596402274877D-05 0.000000000000D+00 0.000000000000D+00 0.215725107776D-05 0.000000000000D+00  6 4 2 25 24 1 4 4 0.60555273D-02 0.26770959D+00 0.22911093D+05 0.22911093D+05 0.22911093D+05 0.12273813D+01  1  2 12  9  6  1       21 0.129515439024D-02 0.100000000000D+01
0.592953851093D-05 0.000000000000D+00 0.000000000000D+00 0.215725107776D-05 0.000000000000D+00  6 3 2 25 24 1 3 4 0.61671449D-02 0.26770959D+00 0.22911093D+05 0.22911093D+05 0.22911093D+05 0.12273813D+01  1  2 12  9  6  1       21 0.140820786051D-02 0.100000000000D+01
0.592953851093D-05 0.000000000000D+00 0.000000000000D+00 0.215725107776D-05 0.000000000000D+00  6 4 2 25 24 1 4 4 0.61671449D-02 0.26770959D+00 0.22911093D+05 0.22911093D+05 0.22911093D+05 0.12273813D+01  1  2 12  9  6  1       21 0.124987914405D-02 0.100000000000D+01
-.119620855420D-04 0.000000000000D+00 -.141115882044D-06 0.217035632366D-05 0.000000000000D+00  6 3 2 25 24 1 3 4 0.60581738D-02 0.26770959D+00 0.21175871D+05 0.21175871D+05 0.21175871D+05 0.12311039D+01  1  2  5  9  6  1       21 -.295520905319D-02 0.100000000000D+01
-.119620855420D-04 0.000000000000D+00 -.141115882044D-06 0.217035632366D-05 0.000000000000D+00  6 4 2 25 24 1 4 4 0.60581738D-02 0.26770959D+00 0.21175871D+05 0.21175871D+05 0.21175871D+05 0.12311039D+01  1  2  5  9  6  1       21 -.262217861242D-02 0.100000000000D+01
0.198705266088D-10 0.000000000000D+00 0.000000000000D+00 0.217035632366D-05 0.389343760379D-07  6 3 2 25 24 1 3 4 0.60532011D-02 0.26810469D+00 0.22911093D+05 0.22911093D+05 0.22911093D+05 0.12273813D+01  1  2 11  9  6  1       21 0.484751792344D-08 0.100000000000D+01
0.198705266088D-10 0.000000000000D+00 0.000000000000D+00 0.217035632366D-05 0.389343760379D-07  6 4 2 25 24 1 4 4 0.60532011D-02 0.26810469D+00 0.22911093D+05 0.22911093D+05 0.22911093D+05 0.12273813D+01  1  2 11  9  6  1       21 0.430470898140D-08 0.100000000000D+01
  </mgrwgt>
  </event>
  <event>
  5     66 0.46027262E-03 0.22217163E+02 0.75467711E-02 0.11617790E+00
       21 -1    0    0  501  502 0.00000000E+00 0.00000000E+00 0.52744653E+03 0.52744707E+03 0.75000000E+00 0.0000E+00 0.9000E+01
        2 -1    0    0  502    0 0.00000000E+00 0.00000000E+00 -.33693320E+02 0.33694839E+02 0.32000000E+00 0.0000E+00 0.9000E+01
       25  1    1    2    0    0 0.20266393E+02 -.14990175E+02 0.27391754E+03 0.30214442E+03 0.12500000E+03 0.0000E+00 0.9000E+01
       24  1    1    2    0    0 -.59637776E+01 -.20102121E+01 0.67878360E+02 0.10542436E+03 0.80419002E+02 0.0000E+00 0.9000E+01
        1  1    1    2  501    0 -.14302615E+02 0.17000387E+02 0.15195731E+03 0.15357313E+03 0.32000000E+00 0.0000E+00 0.9000E+01
#aMCatNLO 1  0  0  1  5 0.52528814D+03 0.00000000D+00  -5  6  0 0.00000000D+00 0.00000000D+00 0.00000000D+00 0.00000000D+00 0.00000000D+00
  <mgrwgt>
 0.3304930378D+00    3    2    0
 0.133311667748866D+03 0.000000000000000D+00 0.000000000000000D+00 0.133311667748866D+03
 0.133311667748866D+03 0.000000000000000D+00 0.000000000000000D+00 -.133311667748866D+03
 0.128639260527512D+03 0.202665952579231D+02 -.149904148788194D+02 0.169591251978805D+02
 0.961765772646884D+02 -.596362649801971D+01 -.201039173478635D+01 -.523747223767808D+02
 0.418074977055327D+02 -.143029687599033D+02 0.170008066136058D+02 0.354155971789003D+02
 0.000000000000000D+00 0.000000000000000D+00 0.000000000000000D+00 -.000000000000000D+00
 0.163708163807859D+03 0.000000000000000D+00 0.000000000000000D+00 0.163708163807859D+03
 0.327407105640556D+03 0.000000000000000D+00 0.000000000000000D+00 -.327407105640556D+03
 0.141061945220565D+03 -.952055757776305D+01 -.624116931779686D+02 0.169591251978805D+02
 0.106958815710017D+03 -.283989173603330D+02 -.377274734435664D+02 -.523747223767808D+02
 0.426287923614754D+02 -.236285358078075D+02 0.215446286549729D+01 0.354155971789003D+02
 0.200465716156357D+03 0.615480107459036D+02 0.979847037560378D+02 -.163698941832697D+03
0.683633372767D-04 0.000000000000D+00 0.000000000000D+00 0.220382325305D-05 0.000000000000D+00  6 21 2 25 24 1 21 2 0.81145779D-01 0.51837456D-02 0.13270867D+05 0.13270867D+05 0.13270867D+05 0.12539325D+01  1  2  2  1  6  1       21 0.257780506200D+00 0.100000000000D+01
0.544890965595D-05 0.360763242219D-05 -.138005881611D-06 0.220382325305D-05 0.000000000000D+00  6 21 2 25 24 1 21 4 0.81145779D-01 0.51837456D-02 0.13270867D+05 0.13270867D+05 0.13270867D+05 0.12539325D+01  1  2  3  1  6  1       21 0.323061133055D-01 0.100000000000D+01
0.681514736721D-05 0.000000000000D+00 0.000000000000D+00 0.220382325305D-05 0.000000000000D+00  6 21 2 25 24 1 21 4 0.81145779D-01 0.51837456D-02 0.13270867D+05 0.13270867D+05 0.13270867D+05 0.12539325D+01  1  2 15  1  6  1       21 0.404064183369D-01 0.100000000000D+01
  </mgrwgt>
  </event>
  <event>
  5     66 -.46027262E-03 0.25442677E+02 0.75467711E-02 0.12328758E+00
       21 -1    0    0  501  502 0.00000000E+00 0.00000000E+00 0.91293188E+02 0.91296268E+02 0.75000000E+00 0.0000E+00 0.9000E+01
        2 -1    0    0  502    0 0.00000000E+00 0.00000000E+00 -.28508836E+03 0.28508854E+03 0.32000000E+00 0.0000E+00 0.9000E+01
       25  1    1    2    0    0 -.24143681E+02 -.51155840E+02 -.16436906E+03 0.21410750E+03 0.12500000E+03 0.0000E+00 0.9000E+01
       24  1    1    2    0    0 0.29709198E+02 0.26329498E+02 -.70421442E+02 0.11402752E+03 0.80419002E+02 0.0000E+00 0.9000E+01
        1  1    1    2  501    0 -.55655168E+01 0.24826342E+02 0.40995329E+02 0.48249784E+02 0.32000000E+00 0.0000E+00 0.9000E+01
#aMCatNLO 1  0  0  1  2 0.55129684D+00 0.00000000D+00  -5  6  0 0.00000000D+00 0.00000000D+00 0.00000000D+00 0.00000000D+00 0.00000000D+00
  <mgrwgt>
 -.1066267812D+00   41    2    0
 0.161329595591465D+03 0.000000000000000D+00 0.000000000000000D+00 0.161329595591465D+03
 0.161329595591465D+03 0.000000000000000D+00 0.000000000000000D+00 -.161329595591465D+03
 0.151035305015745D+03 -.241436605330904D+02 -.511559305027783D+02 -.631412526931235D+02
 0.907176802837219D+02 0.297092099258429D+02 0.263294430824936D+02 -.136603379986360D+02
 0.809062058834628D+02 -.556554939275247D+01 0.248264874202847D+02 0.768015906917594D+02
 0.000000000000000D+00 -.000000000000000D+00 0.000000000000000D+00 0.000000000000000D+00
 0.169562076499702D+03 0.000000000000000D+00 0.000000000000000D+00 0.169562076499702D+03
 0.161339060887056D+03 0.000000000000000D+00 0.000000000000000D+00 -.161339060887056D+03
 0.151029275941286D+03 -.239036584741768D+02 -.512507513236844D+02 -.631412526931235D+02
 0.907484928655251D+02 0.298533918588620D+02 0.262724791993062D+02 -.136603379986360D+02
 0.808818933498108D+02 -.543700245487355D+01 0.247757006635801D+02 0.768015906917594D+02
 0.824147523013618D+01 -.512730929811666D+00 0.202571460798070D+00 0.822301561264679D+01
0.238506610337D-06 0.000000000000D+00 0.000000000000D+00 0.341783249846D-05 0.000000000000D+00  6 21 2 25 24 1 21 2 0.14045357D-01 0.43859998D-01 0.15917561D+05 0.15917561D+05 0.15917561D+05 0.12448937D+01  1  2  2  1  6  1       21 0.232705507583D-02 0.100000000000D+01
0.333733627419D-07 0.125863396176D-07 -.481476129469D-09 0.341783249846D-05 0.000000000000D+00  6 21 2 25 24 1 21 4 0.14045357D-01 0.43859998D-01 0.15917561D+05 0.15917561D+05 0.15917561D+05 0.12448937D+01  1  2  3  1  6  1       21 0.504627276101D-03 0.100000000000D+01
0.215991818690D-07 0.000000000000D+00 0.000000000000D+00 0.341783249846D-05 0.000000000000D+00  6 21 2 25 24 1 21 4 0.14045357D-01 0.43859998D-01 0.15917561D+05 0.15917561D+05 0.15917561D+05 0.12448937D+01  1  2 15  1  6  1       21 0.326593888571D-03 0.100000000000D+01
0.135097183188D-12 0.000000000000D+00 0.000000000000D+00 0.341676770870D-05 0.000000000000D+00  6 21 2 25 24 1 21 4 0.14762477D-01 0.43859998D-01 0.15980505D+05 0.15980505D+05 0.15980505D+05 0.12446997D+01  1  2 12  1  6  1       21 0.186691267603D-08 0.100000000000D+01
0.128989253326D-12 0.000000000000D+00 0.000000000000D+00 0.341676770870D-05 0.000000000000D+00  6 21 2 25 24 1 21 4 0.14795175D-01 0.43859998D-01 0.15980505D+05 0.15980505D+05 0.15980505D+05 0.12446997D+01  1  2 12  1  6  1       21 0.177542363289D-08 0.100000000000D+01
-.704602998358D-03 0.000000000000D+00 0.000000000000D+00 0.341783249846D-05 0.000000000000D+00  6 21 2 25 24 1 21 4 0.14045357D-01 0.43859998D-01 0.15917561D+05 0.15917561D+05 0.15917561D+05 0.12448937D+01  1  2  4  1  6  1       21 -.106540624792D+02 0.100000000000D+01
-.665816150458D-03 0.000000000000D+00 -.154835985415D-05 0.341783249846D-05 0.000000000000D+00  6 21 2 25 24 1 21 4 0.14762502D-01 0.43859998D-01 0.15917561D+05 0.15917561D+05 0.15917561D+05 0.12448937D+01  1  2  5  1  6  1       21 -.920630258115D+01 0.100000000000D+01
0.662037091711D-03 0.000000000000D+00 0.154070724158D-05 0.341783249846D-05 0.000000000000D+00  6 21 2 25 24 1 21 4 0.14045357D-01 0.43859998D-01 0.15917561D+05 0.15917561D+05 0.15917561D+05 0.12448937D+01  1  2  6  1  6  1       21 0.100104378708D+02 0.100000000000D+01
0.704735347982D-03 0.000000000000D+00 0.000000000000D+00 0.341783249846D-05 0.233599341746D-03  6 21 2 25 24 1 21 4 0.14762076D-01 0.43862571D-01 0.15980505D+05 0.15980505D+05 0.15980505D+05 0.12446997D+01  1  2 11  1  6  1       21 0.973863394439D+01 0.100000000000D+01
0.351001252488D-14 0.000000000000D+00 0.000000000000D+00 0.341676770870D-05 0.000000000000D+00  6 -1 2 25 24 1 -1 4 0.14762477D-01 0.43859998D-01 0.15980505D+05 0.15980505D+05 0.15980505D+05 0.12446997D+01  1  2 12  4  6  1       21 0.351053420310D-11 0.100000000000D+01
0.351548554260D-14 0.000000000000D+00 0.000000000000D+00 0.341676770870D-05 0.000000000000D+00  6 -1 2 25 24 1 -1 4 0.14795175D-01 0.43859998D-01 0.15980505D+05 0.15980505D+05 0.15980505D+05 0.12446997D+01  1  2 12  4  6  1       21 0.350387469988D-11 0.100000000000D+01
-.814881300202D-05 0.000000000000D+00 -.184175876621D-07 0.341783249846D-05 0.000000000000D+00  6 -1 2 25 24 1 -1 4 0.14762502D-01 0.43859998D-01 0.15917561D+05 0.15917561D+05 0.15917561D+05 0.12448937D+01  1  2  5  4  6  1       21 -.815423183850D-02 0.100000000000D+01
0.105801443326D-04 0.000000000000D+00 0.000000000000D+00 0.341783249846D-05 0.350584788724D-05  6 -1 2 25 24 1 -1 4 0.14762076D-01 0.43862571D-01 0.15980505D+05 0.15980505D+05 0.15980505D+05 0.12446997D+01  1  2 11  4  6  1       21 0.105815092172D-01 0.100000000000D+01
0.351001252488D-14 0.000000000000D+00 0.000000000000D+00 0.341676770870D-05 0.000000000000D+00  6 1 2 25 24 1 1 4 0.14762477D-01 0.43859998D-01 0.15980505D+05 0.15980505D+05 0.15980505D+05 0.12446997D+01  1  2 12  5  6  1       21 0.482013285485D-11 0.100000000000D+01
0.351548554260D-14 0.000000000000D+00 0.000000000000D+00 0.341676770870D-05 0.000000000000D+00  6 1 2 25 24 1 1 4 0.14795175D-01 0.43859998D-01 0.15980505D+05 0.15980505D+05 0.15980505D+05 0.12446997D+01  1  2 12  5  6  1       21 0.481385969891D-11 0.100000000000D+01
-.814881300202D-05 0.000000000000D+00 -.184175876621D-07 0.341783249846D-05 0.000000000000D+00  6 1 2 25 24 1 1 4 0.14762502D-01 0.43859998D-01 0.15917561D+05 0.15917561D+05 0.15917561D+05 0.12448937D+01  1  2  5  5  6  1       21 -.111962175984D-01 0.100000000000D+01
0.807253426254D-05 0.000000000000D+00 0.000000000000D+00 0.341783249846D-05 0.128770835862D-05  6 1 2 25 24 1 1 4 0.14762076D-01 0.43862571D-01 0.15980505D+05 0.15980505D+05 0.15980505D+05 0.12446997D+01  1  2 11  5  6  1       21 0.110853278864D-01 0.100000000000D+01
0.351001252488D-14 0.000000000000D+00 0.000000000000D+00 0.341676770870D-05 0.000000000000D+00  6 -2 2 25 24 1 -2 4 0.14762477D-01 0.43859998D-01 0.15980505D+05 0.15980505D+05 0.15980505D+05 0.12446997D+01  1  2 12  6  6  1       21 0.328461032981D-11 0.100000000000D+01
0.351548554260D-14 0.000000000000D+00 0.000000000000D+00 0.341676770870D-05 0.000000000000D+00  6 -2 2 25 24 1 -2 4 0.14795175D-01 0.43859998D-01 0.15980505D+05 0.15980505D+05 0.15980505D+05 0.12446997D+01  1  2 12  6  6  1       21 0.327790030304D-11 0.100000000000D+01
-.814881300202D-05 0.000000000000D+00 -.184175876621D-07 0.341783249846D-05 0.000000000000D+00  6 -2 2 25 24 1 -2 4 0.14762502D-01 0.43859998D-01 0.15917561D+05 0.15917561D+05 0.15917561D+05 0.12448937D+01  1  2  5  6  6  1       21 -.762943354502D-02 0.100000000000D+01
0.798915935604D-05 0.000000000000D+00 0.000000000000D+00 0.341783249846D-05 0.254804189026D-05  6 -2 2 25 24 1 -2 4 0.14762076D-01 0.43862571D-01 0.15980505D+05 0.15980505D+05 0.15980505D+05 0.12446997D+01  1  2 11  6  6  1       21 0.747598686648D-02 0.100000000000D+01
0.351001252488D-14 0.000000000000D+00 0.000000000000D+00 0.341676770870D-05 0.000000000000D+00  6 2 2 25 24 1 2 4 0.14762477D-01 0.43859998D-01 0.15980505D+05 0.15980505D+05 0.15980505D+05 0.12446997D+01  1  2 12  7  6  1       21 0.571980494179D-11 0.100000000000D+01
0.351548554260D-14 0.000000000000D+00 0.000000000000D+00 0.341676770870D-05 0.000000000000D+00  6 2 2 25 24 1 2 4 0.14795175D-01 0.43859998D-01 0.15980505D+05 0.15980505D+05 0.15980505D+05 0.12446997D+01  1  2 12  7  6  1       21 0.571391020675D-11 0.100000000000D+01
-.814881300202D-05 0.000000000000D+00 -.184175876621D-07 0.341783249846D-05 0.000000000000D+00  6 2 2 25 24 1 2 4 0.14762502D-01 0.43859998D-01 0.15917561D+05 0.15917561D+05 0.15917561D+05 0.12448937D+01  1  2  5  7  6  1       21 -.132859467454D-01 0.100000000000D+01
0.798209197699D-05 0.000000000000D+00 0.000000000000D+00 0.341783249846D-05 0.254589081024D-05  6 2 2 25 24 1 2 4 0.14762076D-01 0.43862571D-01 0.15980505D+05 0.15980505D+05 0.15980505D+05 0.12446997D+01  1  2 11  7  6  1       21 0.130069700448D-01 0.100000000000D+01
0.351001252488D-14 0.000000000000D+00 0.000000000000D+00 0.341676770870D-05 0.000000000000D+00  6 -3 2 25 24 1 -3 4 0.14762477D-01 0.43859998D-01 0.15980505D+05 0.15980505D+05 0.15980505D+05 0.12446997D+01  1  2 12  8  6  1       21 0.217987105816D-11 0.100000000000D+01
0.351001252488D-14 0.000000000000D+00 0.000000000000D+00 0.341676770870D-05 0.000000000000D+00  6 -4 2 25 24 1 -4 4 0.14762477D-01 0.43859998D-01 0.15980505D+05 0.15980505D+05 0.15980505D+05 0.12446997D+01  1  2 12  8  6  1       21 0.187443479973D-11 0.100000000000D+01
0.351548554260D-14 0.000000000000D+00 0.000000000000D+00 0.341676770870D-05 0.000000000000D+00  6 -3 2 25 24 1 -3 4 0.14795175D-01 0.43859998D-01 0.15980505D+05 0.15980505D+05 0.15980505D+05 0.12446997D+01  1  2 12  8  6  1       21 0.217504900695D-11 0.100000000000D+01
0.351548554260D-14 0.000000000000D+00 0.000000000000D+00 0.341676770870D-05 0.000000000000D+00  6 -4 2 25 24 1 -4 4 0.14795175D-01 0.43859998D-01 0.15980505D+05 0.15980505D+05 0.15980505D+05 0.12446997D+01  1  2 12  8  6  1       21 0.187014022019D-11 0.100000000000D+01
-.814881300202D-05 0.000000000000D+00 -.184175876621D-07 0.341783249846D-05 0.000000000000D+00  6 -3 2 25 24 1 -3 4 0.14762502D-01 0.43859998D-01 0.15917561D+05 0.15917561D+05 0.15917561D+05 0.12448937D+01  1  2  5  8  6  1       21 -.506288186969D-02 0.100000000000D+01
-.814881300202D-05 0.000000000000D+00 -.184175876621D-07 0.341783249846D-05 0.000000000000D+00  6 -4 2 25 24 1 -4 4 0.14762502D-01 0.43859998D-01 0.15917561D+05 0.15917561D+05 0.15917561D+05 0.12448937D+01  1  2  5  8  6  1       21 -.435329089578D-02 0.100000000000D+01
0.798949594089D-05 0.000000000000D+00 0.000000000000D+00 0.341783249846D-05 0.254814923977D-05  6 -3 2 25 24 1 -3 4 0.14762076D-01 0.43862571D-01 0.15980505D+05 0.15980505D+05 0.15980505D+05 0.12446997D+01  1  2 11  8  6  1       21 0.496174774573D-02 0.100000000000D+01
0.798949594089D-05 0.000000000000D+00 0.000000000000D+00 0.341783249846D-05 0.254814923977D-05  6 -4 2 25 24 1 -4 4 0.14762076D-01 0.43862571D-01 0.15980505D+05 0.15980505D+05 0.15980505D+05 0.12446997D+01  1  2 11  8  6  1       21 0.426652835520D-02 0.100000000000D+01
0.351001252488D-14 0.000000000000D+00 0.000000000000D+00 0.341676770870D-05 0.000000000000D+00  6 3 2 25 24 1 3 4 0.14762477D-01 0.43859998D-01 0.15980505D+05 0.15980505D+05 0.15980505D+05 0.12446997D+01  1  2 12  9  6  1       21 0.217959586860D-11 0.100000000000D+01
0.351001252488D-14 0.000000000000D+00 0.000000000000D+00 0.341676770870D-05 0.000000000000D+00  6 4 2 25 24 1 4 4 0.14762477D-01 0.43859998D-01 0.15980505D+05 0.15980505D+05 0.15980505D+05 0.12446997D+01  1  2 12  9  6  1       21 0.187443479973D-11 0.100000000000D+01
0.351548554260D-14 0.000000000000D+00 0.000000000000D+00 0.341676770870D-05 0.000000000000D+00  6 3 2 25 24 1 3 4 0.14795175D-01 0.43859998D-01 0.15980505D+05 0.15980505D+05 0.15980505D+05 0.12446997D+01  1  2 12  9  6  1       21 0.217477465294D-11 0.100000000000D+01
0.351548554260D-14 0.000000000000D+00 0.000000000000D+00 0.341676770870D-05 0.000000000000D+00  6 4 2 25 24 1 4 4 0.14795175D-01 0.43859998D-01 0.15980505D+05 0.15980505D+05 0.15980505D+05 0.12446997D+01  1  2 12  9  6  1       21 0.187014022019D-11 0.100000000000D+01
-.814881300202D-05 0.000000000000D+00 -.184175876621D-07 0.341783249846D-05 0.000000000000D+00  6 3 2 25 24 1 3 4 0.14762502D-01 0.43859998D-01 0.15917561D+05 0.15917561D+05 0.15917561D+05 0.12448937D+01  1  2  5  9  6  1       21 -.506224241224D-02 0.100000000000D+01
-.814881300202D-05 0.000000000000D+00 -.184175876621D-07 0.341783249846D-05 0.000000000000D+00  6 4 2 25 24 1 4 4 0.14762502D-01 0.43859998D-01 0.15917561D+05 0.15917561D+05 0.15917561D+05 0.12448937D+01  1  2  5  9  6  1       21 -.435329089578D-02 0.100000000000D+01
0.798949594089D-05 0.000000000000D+00 0.000000000000D+00 0.341783249846D-05 0.254814923977D-05  6 3 2 25 24 1 3 4 0.14762076D-01 0.43862571D-01 0.15980505D+05 0.15980505D+05 0.15980505D+05 0.12446997D+01  1  2 11  9  6  1       21 0.496112136237D-02 0.100000000000D+01
0.798949594089D-05 0.000000000000D+00 0.000000000000D+00 0.341783249846D-05 0.254814923977D-05  6 4 2 25 24 1 4 4 0.14762076D-01 0.43862571D-01 0.15980505D+05 0.15980505D+05 0.15980505D+05 0.12446997D+01  1  2 11  9  6  1       21 0.426652835520D-02 0.100000000000D+01
  </mgrwgt>
  </event>
  <event>
  5     66 -.46027262E-03 0.48961101E+02 0.75467711E-02 0.11824942E+00
       21 -1    0    0  501  502 0.00000000E+00 0.00000000E+00 0.18592202E+03 0.18592353E+03 0.75000000E+00 0.0000E+00 0.9000E+01
        2 -1    0    0  502    0 0.00000000E+00 0.00000000E+00 -.15987356E+03 0.15987388E+03 0.32000000E+00 0.0000E+00 0.9000E+01
       25  1    1    2    0    0 0.71066627E+01 -.10030877E+03 0.30586719E+01 0.16045781E+03 0.12500000E+03 0.0000E+00 0.9000E+01
       24  1    1    2    0    0 0.19513817E+02 0.52398277E+02 -.36428812E+02 0.10450188E+03 0.80419002E+02 0.0000E+00 0.9000E+01
        1  1    1    2  501    0 -.26620479E+02 0.47910497E+02 0.59418595E+02 0.80837723E+02 0.32000000E+00 0.0000E+00 0.9000E+01
#aMCatNLO 1  0  0  1  2 0.17729013D+02 0.00000000D+00  -5  6  0 0.00000000D+00 0.00000000D+00 0.00000000D+00 0.00000000D+00 0.00000000D+00
  <mgrwgt>
 -.1868189047D-01   30    2    0
 0.172407461569121D+03 0.000000000000000D+00 0.000000000000000D+00 0.172407461569121D+03
 0.172407461569121D+03 0.000000000000000D+00 0.000000000000000D+00 -.172407461569121D+03
 0.160684089072965D+03 0.710677100105792D+01 -.100308968586778D+03 -.905434195310841D+01
 0.107551602404539D+03 0.195138890853278D+02 0.523981465763377D+02 -.444271717932126D+02
 0.765792316607374D+02 -.266206600863857D+02 0.479108220104402D+02 0.534815137463210D+02
 0.000000000000000D+00 0.000000000000000D+00 0.000000000000000D+00 0.000000000000000D+00
 0.559225214490846D+03 0.000000000000000D+00 0.000000000000000D+00 0.559225214490846D+03
 0.172838463098563D+03 0.000000000000000D+00 0.000000000000000D+00 -.172838463098563D+03
 0.162970014834882D+03 -.255467357869965D+00 -.104173794034329D+03 -.905434195310841D+01
 0.105553087740723D+03 0.146663450396586D+02 0.498534162005399D+02 -.444271717932126D+02
 0.767472974514061D+02 -.301084158121469D+02 0.460799159154999D+02 0.534815137463210D+02
 0.386793277562398D+03 0.156975381303583D+02 0.824046191828917D+01 0.386386751392282D+03
0.717193052460D-06 0.000000000000D+00 0.000000000000D+00 0.493666179652D-06 0.000000000000D+00  6 21 2 25 24 1 21 2 0.28603529D-01 0.24596074D-01 0.24521259D+05 0.24521259D+05 0.24521259D+05 0.12241990D+01  1  2  2  1  6  1       21 0.338340589217D-02 0.100000000000D+01
0.103337984836D-08 0.378473171746D-07 -.144780614044D-08 0.493666179652D-06 0.000000000000D+00  6 21 2 25 24 1 21 4 0.28603529D-01 0.24596074D-01 0.24521259D+05 0.24521259D+05 0.24521259D+05 0.12241990D+01  1  2  3  1  6  1       21 0.730603967313D-05 0.100000000000D+01
0.721367594325D-07 0.000000000000D+00 0.000000000000D+00 0.493666179652D-06 0.000000000000D+00  6 21 2 25 24 1 21 4 0.28603529D-01 0.24596074D-01 0.24521259D+05 0.24521259D+05 0.24521259D+05 0.12241990D+01  1  2 15  1  6  1       21 0.510009970815D-03 0.100000000000D+01
0.491917775230D-03 0.000000000000D+00 0.000000000000D+00 0.489483713984D-06 0.000000000000D+00  6 21 2 25 24 1 21 4 0.92711397D-01 0.24596074D-01 0.27429922D+05 0.27429922D+05 0.27429922D+05 0.12190021D+01  1  2 12  1  6  1       21 0.289617783844D+00 0.100000000000D+01
0.492267184932D-03 0.000000000000D+00 0.000000000000D+00 0.489483713984D-06 0.000000000000D+00  6 21 2 25 24 1 21 4 0.93466136D-01 0.24596074D-01 0.27429922D+05 0.27429922D+05 0.27429922D+05 0.12190021D+01  1  2 12  1  6  1       21 0.284421946604D+00 0.100000000000D+01
-.984236239871D-03 0.000000000000D+00 -.208981782020D-05 0.493666179652D-06 0.000000000000D+00  6 21 2 25 24 1 21 4 0.92831054D-01 0.24596074D-01 0.24521259D+05 0.24521259D+05 0.24521259D+05 0.12241990D+01  1  2  5  1  6  1       21 -.589952885545D+00 0.100000000000D+01
0.194885124061D-03 0.000000000000D+00 0.000000000000D+00 0.489483713984D-06 0.000000000000D+00  6 -1 2 25 24 1 -1 4 0.92711397D-01 0.24596074D-01 0.27429922D+05 0.27429922D+05 0.27429922D+05 0.12190021D+01  1  2 12  4  6  1       21 0.129468564116D-01 0.100000000000D+01
0.195459133744D-03 0.000000000000D+00 0.000000000000D+00 0.489483713984D-06 0.000000000000D+00  6 -1 2 25 24 1 -1 4 0.93466136D-01 0.24596074D-01 0.27429922D+05 0.27429922D+05 0.27429922D+05 0.12190021D+01  1  2 12  4  6  1       21 0.127600997862D-01 0.100000000000D+01
-.390099968487D-03 0.000000000000D+00 -.767458440101D-06 0.493666179652D-06 0.000000000000D+00  6 -1 2 25 24 1 -1 4 0.92831054D-01 0.24596074D-01 0.24521259D+05 0.24521259D+05 0.24521259D+05 0.12241990D+01  1  2  5  4  6  1       21 -.263072213916D-01 0.100000000000D+01
0.194885124061D-03 0.000000000000D+00 0.000000000000D+00 0.489483713984D-06 0.000000000000D+00  6 1 2 25 24 1 1 4 0.92711397D-01 0.24596074D-01 0.27429922D+05 0.27429922D+05 0.27429922D+05 0.12190021D+01  1  2 12  5  6  1       21 0.449637183826D-01 0.100000000000D+01
0.195459133744D-03 0.000000000000D+00 0.000000000000D+00 0.489483713984D-06 0.000000000000D+00  6 1 2 25 24 1 1 4 0.93466136D-01 0.24596074D-01 0.27429922D+05 0.27429922D+05 0.27429922D+05 0.12190021D+01  1  2 12  5  6  1       21 0.445964091371D-01 0.100000000000D+01
-.390099968487D-03 0.000000000000D+00 -.767458440101D-06 0.493666179652D-06 0.000000000000D+00  6 1 2 25 24 1 1 4 0.92831054D-01 0.24596074D-01 0.24521259D+05 0.24521259D+05 0.24521259D+05 0.12241990D+01  1  2  5  5  6  1       21 -.914295549881D-01 0.100000000000D+01
0.194885124061D-03 0.000000000000D+00 0.000000000000D+00 0.489483713984D-06 0.000000000000D+00  6 -2 2 25 24 1 -2 4 0.92711397D-01 0.24596074D-01 0.27429922D+05 0.27429922D+05 0.27429922D+05 0.12190021D+01  1  2 12  6  6  1       21 0.969935521275D-02 0.100000000000D+01
0.195459133744D-03 0.000000000000D+00 0.000000000000D+00 0.489483713984D-06 0.000000000000D+00  6 -2 2 25 24 1 -2 4 0.93466136D-01 0.24596074D-01 0.27429922D+05 0.27429922D+05 0.27429922D+05 0.12190021D+01  1  2 12  6  6  1       21 0.955051474649D-02 0.100000000000D+01
-.390099968487D-03 0.000000000000D+00 -.767458440101D-06 0.493666179652D-06 0.000000000000D+00  6 -2 2 25 24 1 -2 4 0.92831054D-01 0.24596074D-01 0.24521259D+05 0.24521259D+05 0.24521259D+05 0.12241990D+01  1  2  5  6  6  1       21 -.196923517709D-01 0.100000000000D+01
0.194885124061D-03 0.000000000000D+00 0.000000000000D+00 0.489483713984D-06 0.000000000000D+00  6 2 2 25 24 1 2 4 0.92711397D-01 0.24596074D-01 0.27429922D+05 0.27429922D+05 0.27429922D+05 0.12190021D+01  1  2 12  7  6  1       21 0.730255734355D-01 0.100000000000D+01
0.195459133744D-03 0.000000000000D+00 0.000000000000D+00 0.489483713984D-06 0.000000000000D+00  6 2 2 25 24 1 2 4 0.93466136D-01 0.24596074D-01 0.27429922D+05 0.27429922D+05 0.27429922D+05 0.12190021D+01  1  2 12  7  6  1       21 0.725614080198D-01 0.100000000000D+01
-.390099968487D-03 0.000000000000D+00 -.767458440101D-06 0.493666179652D-06 0.000000000000D+00  6 2 2 25 24 1 2 4 0.92831054D-01 0.24596074D-01 0.24521259D+05 0.24521259D+05 0.24521259D+05 0.12241990D+01  1  2  5  7  6  1       21 -.148454049604D+00 0.100000000000D+01
0.194885124061D-03 0.000000000000D+00 0.000000000000D+00 0.489483713984D-06 0.000000000000D+00  6 -3 2 25 24 1 -3 4 0.92711397D-01 0.24596074D-01 0.27429922D+05 0.27429922D+05 0.27429922D+05 0.12190021D+01  1  2 12  8  6  1       21 0.611489939955D-02 0.100000000000D+01
0.194885124061D-03 0.000000000000D+00 0.000000000000D+00 0.489483713984D-06 0.000000000000D+00  6 -4 2 25 24 1 -4 4 0.92711397D-01 0.24596074D-01 0.27429922D+05 0.27429922D+05 0.27429922D+05 0.12190021D+01  1  2 12  8  6  1       21 0.491560880120D-02 0.100000000000D+01
0.195459133744D-03 0.000000000000D+00 0.000000000000D+00 0.489483713984D-06 0.000000000000D+00  6 -3 2 25 24 1 -3 4 0.93466136D-01 0.24596074D-01 0.27429922D+05 0.27429922D+05 0.27429922D+05 0.12190021D+01  1  2 12  8  6  1       21 0.602229400964D-02 0.100000000000D+01
0.195459133744D-03 0.000000000000D+00 0.000000000000D+00 0.489483713984D-06 0.000000000000D+00  6 -4 2 25 24 1 -4 4 0.93466136D-01 0.24596074D-01 0.27429922D+05 0.27429922D+05 0.27429922D+05 0.12190021D+01  1  2 12  8  6  1       21 0.483956400290D-02 0.100000000000D+01
-.390099968487D-03 0.000000000000D+00 -.767458440101D-06 0.493666179652D-06 0.000000000000D+00  6 -3 2 25 24 1 -3 4 0.92831054D-01 0.24596074D-01 0.24521259D+05 0.24521259D+05 0.24521259D+05 0.12241990D+01  1  2  5  8  6  1       21 -.123896857575D-01 0.100000000000D+01
-.390099968487D-03 0.000000000000D+00 -.767458440101D-06 0.493666179652D-06 0.000000000000D+00  6 -4 2 25 24 1 -4 4 0.92831054D-01 0.24596074D-01 0.24521259D+05 0.24521259D+05 0.24521259D+05 0.12241990D+01  1  2  5  8  6  1       21 -.994763315005D-02 0.100000000000D+01
0.194885124061D-03 0.000000000000D+00 0.000000000000D+00 0.489483713984D-06 0.000000000000D+00  6 3 2 25 24 1 3 4 0.92711397D-01 0.24596074D-01 0.27429922D+05 0.27429922D+05 0.27429922D+05 0.12190021D+01  1  2 12  9  6  1       21 0.612532302744D-02 0.100000000000D+01
0.194885124061D-03 0.000000000000D+00 0.000000000000D+00 0.489483713984D-06 0.000000000000D+00  6 4 2 25 24 1 4 4 0.92711397D-01 0.24596074D-01 0.27429922D+05 0.27429922D+05 0.27429922D+05 0.12190021D+01  1  2 12  9  6  1       21 0.491560880120D-02 0.100000000000D+01
0.195459133744D-03 0.000000000000D+00 0.000000000000D+00 0.489483713984D-06 0.000000000000D+00  6 3 2 25 24 1 3 4 0.93466136D-01 0.24596074D-01 0.27429922D+05 0.27429922D+05 0.27429922D+05 0.12190021D+01  1  2 12  9  6  1       21 0.603271696322D-02 0.100000000000D+01
0.195459133744D-03 0.000000000000D+00 0.000000000000D+00 0.489483713984D-06 0.000000000000D+00  6 4 2 25 24 1 4 4 0.93466136D-01 0.24596074D-01 0.27429922D+05 0.27429922D+05 0.27429922D+05 0.12190021D+01  1  2 12  9  6  1       21 0.483956400290D-02 0.100000000000D+01
-.390099968487D-03 0.000000000000D+00 -.767458440101D-06 0.493666179652D-06 0.000000000000D+00  6 3 2 25 24 1 3 4 0.92831054D-01 0.24596074D-01 0.24521259D+05 0.24521259D+05 0.24521259D+05 0.12241990D+01  1  2  5  9  6  1       21 -.124108416010D-01 0.100000000000D+01
-.390099968487D-03 0.000000000000D+00 -.767458440101D-06 0.493666179652D-06 0.000000000000D+00  6 4 2 25 24 1 4 4 0.92831054D-01 0.24596074D-01 0.24521259D+05 0.24521259D+05 0.24521259D+05 0.12241990D+01  1  2  5  9  6  1       21 -.994763315005D-02 0.100000000000D+01
  </mgrwgt>
  </event>
  <event>
  5     66 -.46027262E-03 0.45086370E+02 0.75467711E-02 0.12183428E+00
       21 -1    0    0  501  502 0.00000000E+00 0.00000000E+00 0.12463497E+03 0.12463723E+03 0.75000000E+00 0.0000E+00 0.9000E+01
        2 -1    0    0  502    0 -.00000000E+00 -.00000000E+00 -.59337225E+03 0.59337233E+03 0.32000000E+00 0.0000E+00 0.9000E+01
       25  1    1    2    0    0 -.24972369E+02 -.32711399E+02 -.29989113E+03 0.32749556E+03 0.12500000E+03 0.0000E+00 0.9000E+01
       24  1    1    2    0    0 0.82768212E+01 -.91698288E+01 -.26880951E+03 0.28085291E+03 0.80419002E+02 0.0000E+00 0.9000E+01
        1  1    1    2  501    0 0.16695548E+02 0.41881227E+02 0.99963357E+02 0.10966109E+03 0.32000000E+00 0.0000E+00 0.9000E+01
#aMCatNLO 1  0  0  5  5 0.15187541D+02 0.00000000D+00  -5  6  0 0.00000000D+00 0.00000000D+00 0.00000000D+00 0.00000000D+00 0.00000000D+00
  <mgrwgt>
 -.2169743087D+00    6    2    0
 0.271948107542732D+03 0.000000000000000D+00 0.000000000000000D+00 0.271948107542732D+03
 0.271948107542732D+03 -.000000000000000D+00 -.000000000000000D+00 -.271948107542732D+03
 0.173883946483277D+03 -.249723746015715D+02 -.327114114264887D+02 -.113652852642796D+03
 0.139096508037163D+03 0.827681713473277D+01 -.916983905595268D+01 -.112818575348070D+03
 0.230915760565024D+03 0.166955574668387D+02 0.418812504824413D+02 0.226471427990866D+03
 0.000000000000000D+00 0.000000000000000D+00 0.000000000000000D+00 0.000000000000000D+00
 0.271948107542732D+03 0.000000000000000D+00 0.000000000000000D+00 0.271948107542732D+03
 0.271948107542732D+03 -.000000000000000D+00 -.000000000000000D+00 -.271948107542732D+03
 0.172838560090712D+03 -.248617421973447D+02 -.324338870945158D+02 -.112152149319946D+03
 0.138115894502087D+03 0.836527021750913D+01 -.894795214243940D+01 -.111618729460543D+03
 0.203453633515696D+03 0.294851120758888D+02 0.334942451074086D+02 0.198499734763793D+03
 0.294881269769693D+02 -.129886400960533D+02 0.788759412954655D+01 0.252711440166962D+02
0.147836168353D-04 0.000000000000D+00 0.000000000000D+00 0.979028719976D-05 0.000000000000D+00  6 21 2 25 24 1 21 2 0.19174791D-01 0.91288218D-01 0.16647313D+05 0.16647313D+05 0.16647313D+05 0.12426964D+01  1  2  2  3  6  5        1 0.370557980388D-01 0.100000000000D+01
0.213010873818D-05 0.780152893890D-06 -.298438630417D-07 0.979028719976D-05 0.000000000000D+00  6 21 2 25 24 1 21 4 0.19174791D-01 0.91288218D-01 0.16647313D+05 0.16647313D+05 0.16647313D+05 0.12426964D+01  1  2  3  3  6  5        1 0.824531678058D-02 0.100000000000D+01
0.155254563203D-05 0.000000000000D+00 0.000000000000D+00 0.979028719976D-05 0.000000000000D+00  6 21 2 25 24 1 21 4 0.19174791D-01 0.91288218D-01 0.16647313D+05 0.16647313D+05 0.16647313D+05 0.12426964D+01  1  2 15  3  6  5        1 0.600966059760D-02 0.100000000000D+01
-.841284030922D-04 0.000000000000D+00 0.000000000000D+00 0.979028719976D-05 0.000000000000D+00  6 21 2 25 24 1 21 4 0.19174791D-01 0.91288218D-01 0.16647313D+05 0.16647313D+05 0.16647313D+05 0.12426964D+01  1  2  4  3  6  5        1 -.325647851355D+00 0.100000000000D+01
-.109141974344D-03 0.000000000000D+00 0.000000000000D+00 0.979028719976D-05 0.000000000000D+00  6 21 2 25 24 1 21 4 0.19174791D-01 0.91288218D-01 0.16647313D+05 0.16647313D+05 0.16647313D+05 0.12426964D+01  1  2  5  3  6  5        1 -.422471461856D+00 0.100000000000D+01
0.123961166260D-03 0.000000000000D+00 -.000000000000D+00 0.979028719976D-05 0.000000000000D+00  6 21 2 25 24 1 21 4 0.19174791D-01 0.91288218D-01 0.16647313D+05 0.16647313D+05 0.16647313D+05 0.12426964D+01  1  2  6  3  6  5        1 0.479834229109D+00 0.100000000000D+01
  </mgrwgt>
  </event>
  <event>
  5     66 0.46027262E-03 0.24701442E+02 0.75467711E-02 0.11800117E+00
       21 -1    0    0  501  502 0.00000000E+00 0.00000000E+00 0.30548389E+02 0.30557594E+02 0.75000000E+00 0.0000E+00 0.9000E+01
        2 -1    0    0  502    0 0.00000000E+00 0.00000000E+00 -.15110545E+04 0.15110546E+04 0.32000000E+00 0.0000E+00 0.9000E+01
       25  1    1    2    0    0 -.55277634E+01 -.47200524E+02 -.11269754E+04 0.11348819E+04 0.12500000E+03 0.0000E+00 0.9000E+01
       24  1    1    2    0    0 -.22468252E+01 0.23754515E+02 -.36844532E+03 0.37787365E+03 0.80419002E+02 0.0000E+00 0.9000E+01
        1  1    1    2  501    0 0.77745887E+01 0.23446009E+02 0.14914527E+02 0.28856630E+02 0.32000000E+00 0.0000E+00 0.9000E+01
#aMCatNLO 1  0  0  1  2 0.51053080D+01 0.00000000D+00  -5  6  0 0.00000000D+00 0.00000000D+00 0.00000000D+00 0.00000000D+00 0.00000000D+00
  <mgrwgt>
 0.8372308638D+00    4    2    0
 0.214866013748147D+03 0.000000000000000D+00 0.000000000000000D+00 0.214866013748147D+03
 0.214866013748147D+03 0.000000000000000D+00 0.000000000000000D+00 -.214866013748147D+03
 0.188614816410122D+03 -.552777072870098D+01 -.472005461877189D+02 -.133011657984464D+03
 0.862143303737986D+02 -.224682856034710D+01 0.237545052415334D+02 -.199090444166045D+02
 0.154902880712373D+03 0.777459928904808D+01 0.234460409461855D+02 0.152920702401069D+03
 0.000000000000000D+00 0.000000000000000D+00 -.000000000000000D+00 -.000000000000000D+00
 0.245981616489999D+03 0.000000000000000D+00 0.000000000000000D+00 0.245981616489999D+03
 0.266189413758331D+03 0.000000000000000D+00 0.000000000000000D+00 -.266189413758331D+03
 0.186454408461925D+03 -.285246437362593D+02 -.251890844380960D+02 -.133011657984464D+03
 0.905513099533458D+02 -.130849797952021D+02 0.341282439347996D+02 -.199090444166045D+02
 0.158962345216468D+03 -.114696315449707D+02 0.418656604642259D+02 0.152920702401069D+03
 0.762029666165919D+02 0.530792550764321D+02 -.508048199609294D+02 -.202077972683325D+02
0.858591368850D-04 0.000000000000D+00 0.000000000000D+00 0.104034006895D-04 0.000000000000D+00  6 21 2 25 24 1 21 2 0.47004629D-02 0.23247064D+00 0.14679084D+05 0.14679084D+05 0.14679084D+05 0.12488947D+01  1  2  2  1  6  1       21 0.700291938608D+00 0.100000000000D+01
0.200687523276D-04 0.453091113317D-05 -.173324860257D-06 0.104034006895D-04 0.000000000000D+00  6 21 2 25 24 1 21 4 0.47004629D-02 0.23247064D+00 0.14679084D+05 0.14679084D+05 0.14679084D+05 0.12488947D+01  1  2  3  1  6  1       21 0.255308114748D+00 0.100000000000D+01
0.857186450600D-05 0.000000000000D+00 0.000000000000D+00 0.104034006895D-04 0.000000000000D+00  6 21 2 25 24 1 21 4 0.47004629D-02 0.23247064D+00 0.14679084D+05 0.14679084D+05 0.14679084D+05 0.12488947D+01  1  2 15  1  6  1       21 0.109048461568D+00 0.100000000000D+01
-.178763942515D-04 0.000000000000D+00 0.000000000000D+00 0.104034006895D-04 0.000000000000D+00  6 21 2 25 24 1 21 4 0.47004629D-02 0.23247064D+00 0.14679084D+05 0.14679084D+05 0.14679084D+05 0.12488947D+01  1  2  4  1  6  1       21 -.227417651101D+00 0.100000000000D+01
  </mgrwgt>
  </event>
  <event>
  5     66 -.46027262E-03 0.64102402E+02 0.75467711E-02 0.11858075E+00
       21 -1    0    0  501  502 0.00000000E+00 0.00000000E+00 0.20386710E+02 0.20400501E+02 0.75000000E+00 0.0000E+00 0.9000E+01
        2 -1    0    0  502    0 -.00000000E+00 -.00000000E+00 -.18244870E+04 0.18244870E+04 0.32000000E+00 0.0000E+00 0.9000E+01
       25  1    1    2    0    0 0.83466303E+02 -.11444486E+02 -.11957782E+04 0.12052419E+04 0.12500000E+03 0.0000E+00 0.9000E+01
       24  1    1    2    0    0 -.59667983E+02 -.48075913E+02 -.22416955E+03 0.25018146E+03 0.80419002E+02 0.0000E+00 0.9000E+01
        1  1    1    2  501    0 -.23798320E+02 0.59520399E+02 -.38415250E+03 0.38946410E+03 0.32000000E+00 0.0000E+00 0.9000E+01
#aMCatNLO 1  0  0  5  1 0.11293851D+02 0.00000000D+00  -5  6  0 0.00000000D+00 0.00000000D+00 0.00000000D+00 0.00000000D+00 0.00000000D+00
  <mgrwgt>
 -.7109023286D-01    7    2    0
 0.192893840336382D+03 0.000000000000000D+00 0.000000000000000D+00 0.192893840336382D+03
 0.192893840336382D+03 -.000000000000000D+00 -.000000000000000D+00 -.192893840336382D+03
 0.171679975186287D+03 0.834664276525503D+02 -.114447976555648D+02 -.821668177642832D+02
 0.148092717074621D+03 -.596678760058889D+02 -.480761812223608D+02 0.979421373474858D+02
 0.660149884118557D+02 -.237985516466613D+02 0.595209788779256D+02 -.157753195832025D+02
 0.000000000000000D+00 -.000000000000000D+00 0.000000000000000D+00 0.000000000000000D+00
 0.192893840336382D+03 0.000000000000000D+00 0.000000000000000D+00 0.192893840336382D+03
 0.192893840336382D+03 -.000000000000000D+00 -.000000000000000D+00 -.192893840336382D+03
 0.171444292767675D+03 0.827283746604549D+02 -.959890227480711D+01 -.826560501340723D+02
 0.147563368146863D+03 -.603038259479612D+02 -.464856490071446D+02 0.975205859134296D+02
 0.448452870641140D+02 -.569064663341257D+01 0.419033985811113D+02 -.149272067081869D+02
 0.219347326941122D+02 -.167339020790812D+02 0.141811527008405D+02 0.626709288295064D-01
0.314105907043D-05 0.000000000000D+00 0.000000000000D+00 0.110864046709D-06 0.000000000000D+00  6 21 2 25 24 1 21 2 0.31374799D-02 0.28069136D+00 0.26556414D+05 0.26556414D+05 0.26556414D+05 0.12204955D+01  1  2  2  3  6  5        1 0.328325775068D-01 0.100000000000D+01
-.210858534357D-06 0.165758241097D-06 -.634089328397D-08 0.110864046709D-06 0.000000000000D+00  6 21 2 25 24 1 21 4 0.31374799D-02 0.28069136D+00 0.26556414D+05 0.26556414D+05 0.26556414D+05 0.12204955D+01  1  2  3  3  6  5        1 -.328316270226D-02 0.100000000000D+01
0.321147998103D-06 0.000000000000D+00 0.000000000000D+00 0.110864046709D-06 0.000000000000D+00  6 21 2 25 24 1 21 4 0.31374799D-02 0.28069136D+00 0.26556414D+05 0.26556414D+05 0.26556414D+05 0.12204955D+01  1  2 15  3  6  5        1 0.500041951110D-02 0.100000000000D+01
0.499738342396D-05 0.000000000000D+00 0.000000000000D+00 0.110902784468D-06 0.000000000000D+00  6 21 2 25 24 1 21 4 0.31374799D-02 0.28069136D+00 0.26434259D+05 0.26434259D+05 0.26434259D+05 0.12207087D+01  1  2 12  3  6  5        1 0.778712926727D-01 0.100000000000D+01
-.142832915491D-04 0.000000000000D+00 0.000000000000D+00 0.110864046709D-06 0.000000000000D+00  6 21 2 25 24 1 21 4 0.31374799D-02 0.28069136D+00 0.26556414D+05 0.26556414D+05 0.26556414D+05 0.12204955D+01  1  2  4  3  6  5        1 -.222397306434D+00 0.100000000000D+01
-.447967940816D-05 0.000000000000D+00 0.000000000000D+00 0.110864046709D-06 0.000000000000D+00  6 21 2 25 24 1 21 4 0.31374799D-02 0.28069136D+00 0.26556414D+05 0.26556414D+05 0.26556414D+05 0.12204955D+01  1  2  5  3  6  5        1 -.697506335034D-01 0.100000000000D+01
0.697709864954D-05 0.000000000000D+00 -.000000000000D+00 0.110864046709D-06 0.000000000000D+00  6 21 2 25 24 1 21 4 0.31374799D-02 0.28069136D+00 0.26556414D+05 0.26556414D+05 0.26556414D+05 0.12204955D+01  1  2  6  3  6  5        1 0.108636580094D+00 0.100000000000D+01
  </mgrwgt>
  </event>
  <event>
  6     66 0.46027262E-03 0.21018942E+02 0.75467711E-02 0.12399184E+00
       21 -1    0    0  501  502 0.00000000E+00 0.00000000E+00 0.44049274E+02 0.44055658E+02 0.75000000E+00 0.0000E+00 0.9000E+01
        2 -1    0    0  502    0 -.00000000E+00 -.00000000E+00 -.34457573E+03 0.34457588E+03 0.32000000E+00 0.0000E+00 0.9000E+01
       25  1    1    2    0    0 -.39266082E+01 -.19492437E+02 -.14696801E+03 0.19395868E+03 0.12500000E+03 0.0000E+00 0.9000E+01
       24  1    1    2    0    0 -.16598689E+02 0.23075483E+02 -.97049316E+02 0.12920441E+03 0.80419002E+02 0.0000E+00 0.9000E+01
        1  1    1    2  503    0 0.24724160E+02 0.21906354E+01 -.49796191E+02 0.55640327E+02 0.32000000E+00 0.0000E+00 0.9000E+01
       21  1    1    2  501  503 -.41988626E+01 -.57736821E+01 -.67129394E+01 0.98281182E+01 0.75000000E+00 0.0000E+00 0.9000E+01
#aMCatNLO 2  0  0  5  1 0.66296117D+01 0.00000000D+00  -5  6  0 0.00000000D+00 0.00000000D+00 0.00000000D+00 0.00000000D+00 0.00000000D+00
  <mgrwgt>
 0.2153688137D+00    3    2    0
 0.123205438431126D+03 0.000000000000000D+00 0.000000000000000D+00 0.123205438431126D+03
 0.123205438431126D+03 -.000000000000000D+00 -.000000000000000D+00 -.123205438431126D+03
 0.126921975986495D+03 -.939219566429173D+01 -.185383234743254D+02 0.723223421090036D+01
 0.864901180315441D+02 -.203038202783677D+02 0.237222783307625D+02 0.619136137222478D+01
 0.329987828442134D+02 0.296960159426594D+02 -.518395485643704D+01 -.134235955831251D+02
 0.000000000000000D+00 -.000000000000000D+00 0.000000000000000D+00 0.000000000000000D+00
 0.123205438431126D+03 0.000000000000000D+00 0.000000000000000D+00 0.123205438431126D+03
 0.123205438431126D+03 -.000000000000000D+00 -.000000000000000D+00 -.123205438431126D+03
 0.126658373233589D+03 -.379108557409030D+01 -.195160944288402D+02 0.470034451860609D+01
 0.853901444804658D+02 -.165073105108583D+02 0.230595316752922D+02 0.447521157472886D+01
 0.268722588602388D+02 0.245755199960505D+02 0.243978472614570D+01 -.105929015697058D+02
 0.749010028795906D+01 -.427712391110190D+01 -.598322197259770D+01 0.141734547637083D+01
-.156321820308D-04 0.000000000000D+00 0.000000000000D+00 0.537861903929D-06 0.000000000000D+00  6 21 2 25 24 1 21 4 0.67773139D-02 0.53012153D-01 0.14871196D+05 0.14871196D+05 0.14871196D+05 0.12482497D+01  1  2 13  3  6  5        1 -.697110038279D+00 0.100000000000D+01
-.766911806484D-05 0.000000000000D+00 0.000000000000D+00 0.538130736812D-06 0.000000000000D+00  6 21 2 25 24 1 21 4 0.67773139D-02 0.53012153D-01 0.14777938D+05 0.14777938D+05 0.14777938D+05 0.12485616D+01  1  2  8  3  6  5        1 -.342291981621D+00 0.100000000000D+01
0.281373169228D-04 0.000000000000D+00 0.000000000000D+00 0.538130736812D-06 0.163163157891D-06  6 21 2 25 24 1 21 4 0.67773139D-02 0.53012153D-01 0.14871196D+05 0.14871196D+05 0.14871196D+05 0.12482497D+01  1  2  1  3  6  5        1 0.125477083355D+01 0.100000000000D+01
  </mgrwgt>
  </event>
  <event>
  5     66 0.46027262E-03 0.69135693E+02 0.75467711E-02 0.11782491E+00
       21 -1    0    0  501  502 0.00000000E+00 0.00000000E+00 0.12575505E+02 0.12597850E+02 0.75000000E+00 0.0000E+00 0.9000E+01
        2 -1    0    0  502    0 0.00000000E+00 0.00000000E+00 -.18259613E+04 0.18259613E+04 0.32000000E+00 0.0000E+00 0.9000E+01
       25  1    1    2    0    0 0.70395166E+02 0.44537710E+02 -.99584687E+03 0.10071122E+04 0.12500000E+03 0.0000E+00 0.9000E+01
       24  1    1    2    0    0 -.17507187E+02 -.12124526E-01 -.44623614E+03 0.45376251E+03 0.80419002E+02 0.0000E+00 0.9000E+01
        1  1    1    2  501    0 -.52887979E+02 -.44525585E+02 -.37130274E+03 0.37768438E+03 0.32000000E+00 0.0000E+00 0.9000E+01
#aMCatNLO 1  0  0  1  2 0.35497338D+02 0.00000000D+00  -5  6  0 0.00000000D+00 0.00000000D+00 0.00000000D+00 0.00000000D+00 0.00000000D+00
  <mgrwgt>
 0.8069468370D-01    3    2    0
 0.151601292248278D+03 0.000000000000000D+00 0.000000000000000D+00 0.151601292248278D+03
 0.151601292248278D+03 0.000000000000000D+00 0.000000000000000D+00 -.151601292248278D+03
 0.150991310712039D+03 0.703954446996852D+02 0.445379444234426D+02 -.153045347073140D+02
 0.826870546560679D+02 -.175070339970219D+02 -.119959032168104D-01 0.796471405955356D+01
 0.695242191284496D+02 -.528884107026633D+02 -.445259485202258D+02 0.733982064776043D+01
 0.000000000000000D+00 -.000000000000000D+00 0.000000000000000D+00 -.000000000000000D+00
 0.153741148069722D+03 0.000000000000000D+00 0.000000000000000D+00 0.153741148069722D+03
 0.437864982525798D+03 0.000000000000000D+00 0.000000000000000D+00 -.437864982525798D+03
 0.151690249745168D+03 0.793224320795734D+02 0.293028130752899D+02 -.153045347073140D+02
 0.822168153743675D+02 -.126435240942952D+02 -.831224424321301D+01 0.796471405955356D+01
 0.713663668291662D+02 -.487331245964041D+02 -.516175155768386D+02 0.733982064776043D+01
 0.286332698646819D+03 -.179457833888740D+02 0.306269467447617D+02 -.284123834456075D+03
0.325698266368D-05 0.000000000000D+00 0.000000000000D+00 0.326320373384D-06 0.000000000000D+00  6 21 2 25 24 1 21 2 0.19364141D-02 0.28091884D+00 0.22748472D+05 0.22748472D+05 0.22748472D+05 0.12277166D+01  1  2  2  1  6  1       21 0.757582318207D-01 0.100000000000D+01
-.199940803448D-06 0.171875697180D-06 -.657490961967D-08 0.326320373384D-06 0.000000000000D+00  6 21 2 25 24 1 21 4 0.19364141D-02 0.28091884D+00 0.22748472D+05 0.22748472D+05 0.22748472D+05 0.12277166D+01  1  2  3  1  6  1       21 -.700990394686D-02 0.100000000000D+01
0.340741328445D-06 0.000000000000D+00 0.000000000000D+00 0.326320373384D-06 0.000000000000D+00  6 21 2 25 24 1 21 4 0.19364141D-02 0.28091884D+00 0.22748472D+05 0.22748472D+05 0.22748472D+05 0.12277166D+01  1  2 15  1  6  1       21 0.119463558310D-01 0.100000000000D+01
  </mgrwgt>
  </event>
  <event>
  5     66 0.46027262E-03 0.20972964E+02 0.75467711E-02 0.11652331E+00
       21 -1    0    0  501  502 0.00000000E+00 0.00000000E+00 0.22498421E+02 0.22510918E+02 0.75000000E+00 0.0000E+00 0.9000E+01
        2 -1    0    0  502    0 0.00000000E+00 0.00000000E+00 -.89005938E+03 0.89005944E+03 0.32000000E+00 0.0000E+00 0.9000E+01
       25  1    1    2    0    0 -.50779400E+02 -.42540179E+02 -.60937542E+03 0.62558102E+03 0.12500000E+03 0.0000E+00 0.9000E+01
       24  1    1    2    0    0 0.31411693E+02 0.34494497E+02 -.24540857E+03 0.26242932E+03 0.80419002E+02 0.0000E+00 0.9000E+01
        1  1    1    2  501    0 0.19367707E+02 0.80456816E+01 -.12776973E+02 0.24560018E+02 0.32000000E+00 0.0000E+00 0.9000E+01
#aMCatNLO 1  0  0  1  1 0.94847700D+02 0.00000000D+00  -5  6  0 0.00000000D+00 0.00000000D+00 0.00000000D+00 0.00000000D+00 0.00000000D+00
  <mgrwgt>
 0.5412538033D+00    3    2    0
 0.141529711561474D+03 0.000000000000000D+00 0.000000000000000D+00 0.141529711561474D+03
 0.141529711561474D+03 0.000000000000000D+00 0.000000000000000D+00 -.141529711561474D+03
 0.149143479305910D+03 -.507797258298057D+02 -.425403143646810D+02 -.472283656066578D+02
 0.938964651116314D+02 0.314114873665470D+02 0.344944118992557D+02 0.131447409725345D+02
 0.400194787054080D+02 0.193682384632587D+02 0.804590246542535D+01 0.340836246341233D+02
 0.000000000000000D+00 0.000000000000000D+00 0.000000000000000D+00 -.000000000000000D+00
 0.169452829141895D+03 0.000000000000000D+00 0.000000000000000D+00 0.169452829141895D+03
 0.260661975852876D+03 0.000000000000000D+00 0.000000000000000D+00 -.260661975852876D+03
 0.173821344796171D+03 -.582644176629168D+02 -.946762854323846D+02 -.472283656066578D+02
 0.860907587687454D+02 0.272402934652075D+02 0.543920837090592D+01 0.131447409725345D+02
 0.386154884506195D+02 0.175458774736184D+02 -.464808172915266D+01 0.340836246341233D+02
 0.131587212979235D+03 0.134782467240910D+02 0.938851587906314D+02 -.912091467109802D+02
0.137055289363D-04 0.000000000000D+00 0.000000000000D+00 0.213549269764D-05 0.000000000000D+00  6 21 2 25 24 1 21 2 0.34622613D-02 0.13693318D+00 0.16308953D+05 0.16308953D+05 0.16308953D+05 0.12437015D+01  1  2  2  1  6  1       21 0.409667881540D+00 0.100000000000D+01
0.142130798433D-05 0.723260632435D-06 -.276675141846D-07 0.213549269764D-05 0.000000000000D+00  6 21 2 25 24 1 21 4 0.34622613D-02 0.13693318D+00 0.16308953D+05 0.16308953D+05 0.16308953D+05 0.12437015D+01  1  2  3  1  6  1       21 0.657138050098D-01 0.100000000000D+01
0.142473207149D-05 0.000000000000D+00 0.000000000000D+00 0.213549269764D-05 0.000000000000D+00  6 21 2 25 24 1 21 4 0.34622613D-02 0.13693318D+00 0.16308953D+05 0.16308953D+05 0.16308953D+05 0.12437015D+01  1  2 15  1  6  1       21 0.658721167893D-01 0.100000000000D+01
  </mgrwgt>
  </event>
  <event>
  5     66 0.46027262E-03 0.77883287E+02 0.75467711E-02 0.11715293E+00
       21 -1    0    0  501  502 0.00000000E+00 0.00000000E+00 0.74812398E+03 0.74812436E+03 0.75000000E+00 0.0000E+00 0.9000E+01
        2 -1    0    0  502    0 0.00000000E+00 0.00000000E+00 -.50808926E+02 0.50809934E+02 0.32000000E+00 0.0000E+00 0.9000E+01
       25  1    1    2    0    0 0.10211245E+03 0.69992076E+02 0.22745542E+03 0.28755315E+03 0.12500000E+03 0.0000E+00 0.9000E+01
       24  1    1    2    0    0 -.26737704E+02 -.50385617E+02 0.13255666E+03 0.16520321E+03 0.80419002E+02 0.0000E+00 0.9000E+01
        1  1    1    2  501    0 -.75374750E+02 -.19606459E+02 0.33730297E+03 0.34617794E+03 0.32000000E+00 0.0000E+00 0.9000E+01
#aMCatNLO 1  0  0  5  1 0.33219853D+00 0.00000000D+00  -5  6  0 0.00000000D+00 0.00000000D+00 0.00000000D+00 0.00000000D+00 0.00000000D+00
  <mgrwgt>
 0.3689221992D-01    7    2    0
 0.194966481727408D+03 0.000000000000000D+00 0.000000000000000D+00 0.194966481727408D+03
 0.194966481727408D+03 -.000000000000000D+00 -.000000000000000D+00 -.194966481727408D+03
 0.182410938320627D+03 0.102112614814780D+03 0.699921178332788D+02 -.481961383921196D+02
 0.101434732278554D+03 -.267376148716332D+02 -.503855940280296D+02 -.238365438658821D+02
 0.106087292855636D+03 -.753749999431471D+02 -.196065238052492D+02 0.720326822580018D+02
 0.000000000000000D+00 0.000000000000000D+00 -.000000000000000D+00 0.000000000000000D+00
 0.194966481727408D+03 0.000000000000000D+00 0.000000000000000D+00 0.194966481727408D+03
 0.194966481727408D+03 -.000000000000000D+00 -.000000000000000D+00 -.194966481727408D+03
 0.182410269474760D+03 0.102111881513794D+03 0.699919270872323D+02 -.481954376075492D+02
 0.101434800879753D+03 -.267380226451552D+02 -.503857000979635D+02 -.238361541740670D+02
 0.403790432075114D+02 -.285733052086562D+02 -.721385409053797D+01 0.276042328088915D+02
 0.657088498927918D+02 -.468005536599825D+02 -.123923728987307D+02 0.444273589727248D+02
0.439728199504D-06 0.000000000000D+00 0.000000000000D+00 0.342697510549D-06 0.000000000000D+00  6 21 2 25 24 1 21 2 0.11509610D+00 0.78168643D-02 0.31047525D+05 0.31047525D+05 0.31047525D+05 0.12133371D+01  1  2  2  3  6  5        1 0.401823099949D-03 0.100000000000D+01
-.794873340087D-08 0.232050946118D-07 -.887684543488D-09 0.342697510549D-06 0.000000000000D+00  6 21 2 25 24 1 21 4 0.11509610D+00 0.78168643D-02 0.31047525D+05 0.31047525D+05 0.31047525D+05 0.12133371D+01  1  2  3  3  6  5        1 -.106932929289D-04 0.100000000000D+01
0.440298009469D-07 0.000000000000D+00 0.000000000000D+00 0.342697510549D-06 0.000000000000D+00  6 21 2 25 24 1 21 4 0.11509610D+00 0.78168643D-02 0.31047525D+05 0.31047525D+05 0.31047525D+05 0.12133371D+01  1  2 15  3  6  5        1 0.592325261623D-04 0.100000000000D+01
-.154141210601D-02 0.000000000000D+00 0.000000000000D+00 0.342697510549D-06 0.000000000000D+00  6 21 2 25 24 1 21 4 0.11509610D+00 0.78168643D-02 0.31047525D+05 0.31047525D+05 0.31047525D+05 0.12133371D+01  1  2  4  3  6  5        1 -.207363492300D+01 0.100000000000D+01
-.906050184078D-03 0.000000000000D+00 0.000000000000D+00 0.342697510549D-06 0.000000000000D+00  6 21 2 25 24 1 21 4 0.11509610D+00 0.78168643D-02 0.31047525D+05 0.31047525D+05 0.31047525D+05 0.12133371D+01  1  2  5  3  6  5        1 -.121889356932D+01 0.100000000000D+01
0.158280290938D-02 0.000000000000D+00 -.000000000000D+00 0.342697510549D-06 0.000000000000D+00  6 21 2 25 24 1 21 4 0.11509610D+00 0.78168643D-02 0.31047525D+05 0.31047525D+05 0.31047525D+05 0.12133371D+01  1  2  6  3  6  5        1 0.212931725158D+01 0.100000000000D+01
0.891747746065D-03 0.000000000000D+00 0.000000000000D+00 0.342697510549D-06 0.522845411990D-05  6 21 2 25 24 1 21 4 0.11509610D+00 0.78168643D-02 0.31047473D+05 0.31047473D+05 0.31047473D+05 0.12133372D+01  1  2 11  3  6  5        1 0.119965309833D+01 0.100000000000D+01
  </mgrwgt>
  </event>
  <event>
  5     66 0.46027262E-03 0.22996340E+02 0.75467711E-02 0.12313344E+00
       21 -1    0    0  501  502 0.00000000E+00 0.00000000E+00 0.31211762E+02 0.31220772E+02 0.75000000E+00 0.0000E+00 0.9000E+01
        2 -1    0    0  502    0 0.00000000E+00 0.00000000E+00 -.81194041E+03 0.81194047E+03 0.32000000E+00 0.0000E+00 0.9000E+01
       25  1    1    2    0    0 0.24213888E+02 0.11748961E+01 -.30780052E+03 0.33309736E+03 0.12500000E+03 0.0000E+00 0.9000E+01
       24  1    1    2    0    0 -.34489248E+02 -.21747724E+02 -.47806948E+03 0.48649780E+03 0.80419002E+02 0.0000E+00 0.9000E+01
        1  1    1    2  501    0 0.10275360E+02 0.20572828E+02 0.51413485E+01 0.23566081E+02 0.32000000E+00 0.0000E+00 0.9000E+01
#aMCatNLO 1  0  0  1  2 0.14592050D+02 0.00000000D+00  -5  6  0 0.00000000D+00 0.00000000D+00 0.00000000D+00 0.00000000D+00 0.00000000D+00
  <mgrwgt>
 0.2377339087D+00   32    2    0
 0.159204007984457D+03 0.000000000000000D+00 0.000000000000000D+00 0.159204007984457D+03
 0.159204007984457D+03 0.000000000000000D+00 0.000000000000000D+00 -.159204007984457D+03
 0.127340072096972D+03 0.242138510095170D+02 0.117482119814870D+01 0.167426882649284D+01
 0.116057417740154D+03 -.344892825586290D+02 -.217477927342637D+02 -.730727798699398D+02
 0.750105261317870D+02 0.102754315491120D+02 0.205729715361150D+02 0.713985110434470D+02
 0.000000000000000D+00 0.000000000000000D+00 0.000000000000000D+00 0.000000000000000D+00
 0.281790013104817D+03 0.000000000000000D+00 0.000000000000000D+00 0.281790013104817D+03
 0.159805936565683D+03 0.000000000000000D+00 0.000000000000000D+00 -.159805936565683D+03
 0.126362911122941D+03 0.184161606855679D+02 0.791932424019582D+00 0.167426882649284D+01
 0.117822049204715D+03 -.398339604385153D+02 -.221007638395142D+02 -.730727798699398D+02
 0.745572435802333D+02 0.685746775448697D+01 0.203472437213789D+02 0.713985110434470D+02
 0.122853745762611D+03 0.145603319984605D+02 0.961587694115760D+00 0.121984076539134D+03
0.645641776919D-06 0.000000000000D+00 0.000000000000D+00 0.335842915009D-05 0.000000000000D+00  6 21 2 25 24 1 21 2 0.48025075D-02 0.12491461D+00 0.14458886D+05 0.14458886D+05 0.14458886D+05 0.12496457D+01  1  2  2  1  6  1       21 0.126919067429D-01 0.100000000000D+01
0.910763506112D-07 0.340714526283D-07 -.130336472996D-08 0.335842915009D-05 0.000000000000D+00  6 21 2 25 24 1 21 4 0.48025075D-02 0.12491461D+00 0.14458886D+05 0.14458886D+05 0.14458886D+05 0.12496457D+01  1  2  3  1  6  1       21 0.279585512537D-02 0.100000000000D+01
0.713223396669D-07 0.000000000000D+00 0.000000000000D+00 0.335842915009D-05 0.000000000000D+00  6 21 2 25 24 1 21 4 0.48025075D-02 0.12491461D+00 0.14458886D+05 0.14458886D+05 0.14458886D+05 0.12496457D+01  1  2 15  1  6  1       21 0.218944794750D-02 0.100000000000D+01
0.389073895577D-04 0.000000000000D+00 0.000000000000D+00 0.332773147968D-05 0.000000000000D+00  6 21 2 25 24 1 21 4 0.85030861D-02 0.12491461D+00 0.16235949D+05 0.16235949D+05 0.16235949D+05 0.12439214D+01  1  2 12  1  6  1       21 0.444170140971D+00 0.100000000000D+01
0.358406880892D-04 0.000000000000D+00 0.000000000000D+00 0.332773147968D-05 0.000000000000D+00  6 21 2 25 24 1 21 4 0.94144926D-02 0.12491461D+00 0.16235949D+05 0.16235949D+05 0.16235949D+05 0.12439214D+01  1  2 12  1  6  1       21 0.342871753015D+00 0.100000000000D+01
-.266504599086D-04 0.000000000000D+00 0.000000000000D+00 0.335842915009D-05 0.000000000000D+00  6 21 2 25 24 1 21 4 0.48025075D-02 0.12491461D+00 0.14458886D+05 0.14458886D+05 0.14458886D+05 0.12496457D+01  1  2  4  1  6  1       21 -.818113861928D+00 0.100000000000D+01
-.780967675832D-04 0.000000000000D+00 -.838676735274D-06 0.335842915009D-05 0.000000000000D+00  6 21 2 25 24 1 21 4 0.85179467D-02 0.12491461D+00 0.14458886D+05 0.14458886D+05 0.14458886D+05 0.12496457D+01  1  2  5  1  6  1       21 -.905399618638D+00 0.100000000000D+01
0.378523160555D-04 0.000000000000D+00 0.468851701725D-06 0.335842915009D-05 0.000000000000D+00  6 21 2 25 24 1 21 4 0.48025075D-02 0.12491461D+00 0.14458886D+05 0.14458886D+05 0.14458886D+05 0.12496457D+01  1  2  6  1  6  1       21 0.116198761963D+01 0.100000000000D+01
0.914936042892D-05 0.000000000000D+00 0.000000000000D+00 0.332773147968D-05 0.000000000000D+00  6 -1 2 25 24 1 -1 4 0.85030861D-02 0.12491461D+00 0.16235949D+05 0.16235949D+05 0.16235949D+05 0.12439214D+01  1  2 12  4  6  1       21 0.666570006981D-02 0.100000000000D+01
0.982828842811D-05 0.000000000000D+00 0.000000000000D+00 0.332773147968D-05 0.000000000000D+00  6 -1 2 25 24 1 -1 4 0.94144926D-02 0.12491461D+00 0.16235949D+05 0.16235949D+05 0.16235949D+05 0.12439214D+01  1  2 12  4  6  1       21 0.613703439583D-02 0.100000000000D+01
-.184253109962D-04 0.000000000000D+00 -.170166576932D-06 0.335842915009D-05 0.000000000000D+00  6 -1 2 25 24 1 -1 4 0.85179467D-02 0.12491461D+00 0.14458886D+05 0.14458886D+05 0.14458886D+05 0.12496457D+01  1  2  5  4  6  1       21 -.136126960642D-01 0.100000000000D+01
0.914936042892D-05 0.000000000000D+00 0.000000000000D+00 0.332773147968D-05 0.000000000000D+00  6 1 2 25 24 1 1 4 0.85030861D-02 0.12491461D+00 0.16235949D+05 0.16235949D+05 0.16235949D+05 0.12439214D+01  1  2 12  5  6  1       21 0.810538251103D-02 0.100000000000D+01
0.982828842811D-05 0.000000000000D+00 0.000000000000D+00 0.332773147968D-05 0.000000000000D+00  6 1 2 25 24 1 1 4 0.94144926D-02 0.12491461D+00 0.16235949D+05 0.16235949D+05 0.16235949D+05 0.12439214D+01  1  2 12  5  6  1       21 0.760324009317D-02 0.100000000000D+01
-.184253109962D-04 0.000000000000D+00 -.170166576932D-06 0.335842915009D-05 0.000000000000D+00  6 1 2 25 24 1 1 4 0.85179467D-02 0.12491461D+00 0.14458886D+05 0.14458886D+05 0.14458886D+05 0.12496457D+01  1  2  5  5  6  1       21 -.165611798769D-01 0.100000000000D+01
0.914936042892D-05 0.000000000000D+00 0.000000000000D+00 0.332773147968D-05 0.000000000000D+00  6 -2 2 25 24 1 -2 4 0.85030861D-02 0.12491461D+00 0.16235949D+05 0.16235949D+05 0.16235949D+05 0.12439214D+01  1  2 12  6  6  1       21 0.641475547073D-02 0.100000000000D+01
0.982828842811D-05 0.000000000000D+00 0.000000000000D+00 0.332773147968D-05 0.000000000000D+00  6 -2 2 25 24 1 -2 4 0.94144926D-02 0.12491461D+00 0.16235949D+05 0.16235949D+05 0.16235949D+05 0.12439214D+01  1  2 12  6  6  1       21 0.588184349739D-02 0.100000000000D+01
-.184253109962D-04 0.000000000000D+00 -.170166576932D-06 0.335842915009D-05 0.000000000000D+00  6 -2 2 25 24 1 -2 4 0.85179467D-02 0.12491461D+00 0.14458886D+05 0.14458886D+05 0.14458886D+05 0.12496457D+01  1  2  5  6  6  1       21 -.130985489500D-01 0.100000000000D+01
0.914936042892D-05 0.000000000000D+00 0.000000000000D+00 0.332773147968D-05 0.000000000000D+00  6 2 2 25 24 1 2 4 0.85030861D-02 0.12491461D+00 0.16235949D+05 0.16235949D+05 0.16235949D+05 0.12439214D+01  1  2 12  7  6  1       21 0.907331257286D-02 0.100000000000D+01
0.982828842811D-05 0.000000000000D+00 0.000000000000D+00 0.332773147968D-05 0.000000000000D+00  6 2 2 25 24 1 2 4 0.94144926D-02 0.12491461D+00 0.16235949D+05 0.16235949D+05 0.16235949D+05 0.12439214D+01  1  2 12  7  6  1       21 0.859145609967D-02 0.100000000000D+01
-.184253109962D-04 0.000000000000D+00 -.170166576932D-06 0.335842915009D-05 0.000000000000D+00  6 2 2 25 24 1 2 4 0.85179467D-02 0.12491461D+00 0.14458886D+05 0.14458886D+05 0.14458886D+05 0.12496457D+01  1  2  5  7  6  1       21 -.185421227610D-01 0.100000000000D+01
0.914936042892D-05 0.000000000000D+00 0.000000000000D+00 0.332773147968D-05 0.000000000000D+00  6 -3 2 25 24 1 -3 4 0.85030861D-02 0.12491461D+00 0.16235949D+05 0.16235949D+05 0.16235949D+05 0.12439214D+01  1  2 12  8  6  1       21 0.445155158682D-02 0.100000000000D+01
0.914936042892D-05 0.000000000000D+00 0.000000000000D+00 0.332773147968D-05 0.000000000000D+00  6 -4 2 25 24 1 -4 4 0.85030861D-02 0.12491461D+00 0.16235949D+05 0.16235949D+05 0.16235949D+05 0.12439214D+01  1  2 12  8  6  1       21 0.389969102636D-02 0.100000000000D+01
0.982828842811D-05 0.000000000000D+00 0.000000000000D+00 0.332773147968D-05 0.000000000000D+00  6 -3 2 25 24 1 -3 4 0.94144926D-02 0.12491461D+00 0.16235949D+05 0.16235949D+05 0.16235949D+05 0.12439214D+01  1  2 12  8  6  1       21 0.404779743219D-02 0.100000000000D+01
0.982828842811D-05 0.000000000000D+00 0.000000000000D+00 0.332773147968D-05 0.000000000000D+00  6 -4 2 25 24 1 -4 4 0.94144926D-02 0.12491461D+00 0.16235949D+05 0.16235949D+05 0.16235949D+05 0.12439214D+01  1  2 12  8  6  1       21 0.353467532214D-02 0.100000000000D+01
-.184253109962D-04 0.000000000000D+00 -.170166576932D-06 0.335842915009D-05 0.000000000000D+00  6 -3 2 25 24 1 -3 4 0.85179467D-02 0.12491461D+00 0.14458886D+05 0.14458886D+05 0.14458886D+05 0.12496457D+01  1  2  5  8  6  1       21 -.906335306154D-02 0.100000000000D+01
-.184253109962D-04 0.000000000000D+00 -.170166576932D-06 0.335842915009D-05 0.000000000000D+00  6 -4 2 25 24 1 -4 4 0.85179467D-02 0.12491461D+00 0.14458886D+05 0.14458886D+05 0.14458886D+05 0.12496457D+01  1  2  5  8  6  1       21 -.792915322095D-02 0.100000000000D+01
0.914936042892D-05 0.000000000000D+00 0.000000000000D+00 0.332773147968D-05 0.000000000000D+00  6 3 2 25 24 1 3 4 0.85030861D-02 0.12491461D+00 0.16235949D+05 0.16235949D+05 0.16235949D+05 0.12439214D+01  1  2 12  9  6  1       21 0.445099689597D-02 0.100000000000D+01
0.914936042892D-05 0.000000000000D+00 0.000000000000D+00 0.332773147968D-05 0.000000000000D+00  6 4 2 25 24 1 4 4 0.85030861D-02 0.12491461D+00 0.16235949D+05 0.16235949D+05 0.16235949D+05 0.12439214D+01  1  2 12  9  6  1       21 0.389969102636D-02 0.100000000000D+01
0.982828842811D-05 0.000000000000D+00 0.000000000000D+00 0.332773147968D-05 0.000000000000D+00  6 3 2 25 24 1 3 4 0.94144926D-02 0.12491461D+00 0.16235949D+05 0.16235949D+05 0.16235949D+05 0.12439214D+01  1  2 12  9  6  1       21 0.404728035618D-02 0.100000000000D+01
0.982828842811D-05 0.000000000000D+00 0.000000000000D+00 0.332773147968D-05 0.000000000000D+00  6 4 2 25 24 1 4 4 0.94144926D-02 0.12491461D+00 0.16235949D+05 0.16235949D+05 0.16235949D+05 0.12439214D+01  1  2 12  9  6  1       21 0.353467532214D-02 0.100000000000D+01
-.184253109962D-04 0.000000000000D+00 -.170166576932D-06 0.335842915009D-05 0.000000000000D+00  6 3 2 25 24 1 3 4 0.85179467D-02 0.12491461D+00 0.14458886D+05 0.14458886D+05 0.14458886D+05 0.12496457D+01  1  2  5  9  6  1       21 -.906221064210D-02 0.100000000000D+01
-.184253109962D-04 0.000000000000D+00 -.170166576932D-06 0.335842915009D-05 0.000000000000D+00  6 4 2 25 24 1 4 4 0.85179467D-02 0.12491461D+00 0.14458886D+05 0.14458886D+05 0.14458886D+05 0.12496457D+01  1  2  5  9  6  1       21 -.792915322095D-02 0.100000000000D+01
  </mgrwgt>
  </event>
  <event>
  6     66 0.46027262E-03 0.17772034E+02 0.75467711E-02 0.12226289E+00
       21 -1    0    0  501  502 0.00000000E+00 0.00000000E+00 0.56238718E+02 0.56243719E+02 0.75000000E+00 0.0000E+00 0.9000E+01
        4 -1    0    0  502    0 -.00000000E+00 -.00000000E+00 -.64348391E+03 0.64348577E+03 0.15500000E+01 0.0000E+00 0.9000E+01
       25  1    1    2    0    0 -.13452594E+01 -.36124825E+02 -.38867836E+03 0.40988130E+03 0.12500000E+03 0.0000E+00 0.9000E+01
       24  1    1    2    0    0 -.48247516E+01 0.55430796E+02 -.22340504E+03 0.24387062E+03 0.80419002E+02 0.0000E+00 0.9000E+01
        3  1    1    2  503    0 0.19483154E+02 -.15269438E+02 0.15788922E+02 0.29364759E+02 0.50000000E+00 0.0000E+00 0.9000E+01
       21  1    1    2  501  503 -.13313143E+02 -.40365326E+01 0.90492899E+01 0.16612812E+02 0.75000000E+00 0.0000E+00 0.9000E+01
#aMCatNLO 2  0  0  5  2 0.15824067D+02 0.00000000D+00  -5  6  0 0.00000000D+00 0.00000000D+00 0.00000000D+00 0.00000000D+00 0.00000000D+00
  <mgrwgt>
 0.1804648077D-01    1    2    0
 0.190239618476566D+03 0.000000000000000D+00 0.000000000000000D+00 0.190239618476566D+03
 0.190239618476566D+03 -.000000000000000D+00 -.000000000000000D+00 -.190239618476566D+03
 0.154807439036687D+03 -.144100583149734D+01 -.358252340752732D+02 -.839929716508643D+02
 0.104206884507705D+03 -.488922934468791D+01 0.556325466728345D+02 -.356787613509996D+02
 0.121464913408740D+03 0.633023517618525D+01 -.198073125975612D+02 0.119671733001864D+03
 0.000000000000000D+00 0.000000000000000D+00 0.000000000000000D+00 0.000000000000000D+00
 0.190239618476566D+03 0.000000000000000D+00 0.000000000000000D+00 0.190239618476566D+03
 0.190239618476566D+03 -.000000000000000D+00 -.000000000000000D+00 -.190239618476566D+03
 0.153901238014882D+03 -.134517213606017D+01 -.361250978102012D+02 -.821812562731979D+02
 0.103684372878538D+03 -.482469281259336D+01 0.554306117952855D+02 -.344587121075307D+02
 0.780551751199771D+02 0.195125581188409D+02 -.152234647362200D+02 0.740278093698187D+02
 0.448384509397346D+02 -.133426931701874D+02 -.408204924886420D+01 0.426121590109098D+02
0.202641036139D-04 0.000000000000D+00 0.000000000000D+00 0.983422176056D-05 0.301111665256D-06  6 21 4 25 24 3 21 4 0.86526387D-02 0.98998052D-01 0.17770886D+05 0.17770886D+05 0.17770886D+05 0.12395164D+01  1  2  1  3  6  5        3 0.180464807731D-01 0.100000000000D+01
  </mgrwgt>
  </event>
  <event>
  5     66 -.46027262E-03 0.23320888E+02 0.75467711E-02 0.12385193E+00
       21 -1    0    0  501  502 0.00000000E+00 0.00000000E+00 0.31515225E+03 0.31515315E+03 0.75000000E+00 0.0000E+00 0.9000E+01
        2 -1    0    0  502    0 0.00000000E+00 0.00000000E+00 -.53199961E+02 0.53200924E+02 0.32000000E+00 0.0000E+00 0.9000E+01
       25  1    1    2    0    0 0.14386477E+01 0.25239613E+02 0.90659846E+02 0.15647145E+03 0.12500000E+03 0.0000E+00 0.9000E+01
       24  1    1    2    0    0 0.37945636E+01 -.48164047E+02 0.10141166E+03 0.13815106E+03 0.80419002E+02 0.0000E+00 0.9000E+01
        1  1    1    2  501    0 -.52332114E+01 0.22924434E+02 0.69880786E+02 0.73731559E+02 0.32000000E+00 0.0000E+00 0.9000E+01
#aMCatNLO 1  0  0  1  2 0.78820202D+00 0.00000000D+00  -5  6  0 0.00000000D+00 0.00000000D+00 0.00000000D+00 0.00000000D+00 0.00000000D+00
  <mgrwgt>
 -.3472776090D-01   41    2    0
 0.129485247599555D+03 0.000000000000000D+00 0.000000000000000D+00 0.129485247599555D+03
 0.129485247599555D+03 0.000000000000000D+00 0.000000000000000D+00 -.129485247599555D+03
 0.130857952403237D+03 0.143876358467412D+01 0.252391052062059D+02 -.293210033065923D+02
 0.939239507685971D+02 0.379464675633842D+01 -.481644108353390D+02 0.450363836143695D+01
 0.341885920272772D+02 -.523341034101254D+01 0.229253056291330D+02 0.248173649451553D+02
 0.000000000000000D+00 0.000000000000000D+00 0.000000000000000D+00 0.000000000000000D+00
 0.137753921003289D+03 0.000000000000000D+00 0.000000000000000D+00 0.137753921003289D+03
 0.129504632321736D+03 0.000000000000000D+00 0.000000000000000D+00 -.129504632321736D+03
 0.130807662465962D+03 0.112562106743473D+01 0.249931250970407D+02 -.293210033065923D+02
 0.940058580743868D+02 0.356974592848289D+01 -.483410752202171D+02 0.450363836143695D+01
 0.341581741409472D+02 -.531520281654965D+01 0.228610558995247D+02 0.248173649451553D+02
 0.828685864372920D+01 0.619835820632031D+00 0.486894223651740D+00 0.824928868155221D+01
0.508528284340D-06 0.000000000000D+00 0.000000000000D+00 0.169093016799D-05 0.000000000000D+00  6 21 2 25 24 1 21 2 0.48485105D-01 0.81847521D-02 0.14989312D+05 0.14989312D+05 0.14989312D+05 0.12478578D+01  1  2  2  1  6  1       21 0.319191105057D-02 0.100000000000D+01
0.337610968768D-07 0.268357748359D-07 -.102657209259D-08 0.169093016799D-05 0.000000000000D+00  6 21 2 25 24 1 21 4 0.48485105D-01 0.81847521D-02 0.14989312D+05 0.14989312D+05 0.14989312D+05 0.12478578D+01  1  2  3  1  6  1       21 0.329976057230D-03 0.100000000000D+01
0.509637290183D-07 0.000000000000D+00 0.000000000000D+00 0.169093016799D-05 0.000000000000D+00  6 21 2 25 24 1 21 4 0.48485105D-01 0.81847521D-02 0.14989312D+05 0.14989312D+05 0.14989312D+05 0.12478578D+01  1  2 15  1  6  1       21 0.498112085178D-03 0.100000000000D+01
0.178831160626D-09 0.000000000000D+00 0.000000000000D+00 0.169008321008D-05 0.000000000000D+00  6 21 2 25 24 1 21 4 0.51584771D-01 0.81847521D-02 0.15084267D+05 0.15084267D+05 0.15084267D+05 0.12475453D+01  1  2 12  1  6  1       21 0.153690603594D-05 0.100000000000D+01
0.173037658811D-09 0.000000000000D+00 0.000000000000D+00 0.169008321008D-05 0.000000000000D+00  6 21 2 25 24 1 21 4 0.51684220D-01 0.81847521D-02 0.15084267D+05 0.15084267D+05 0.15084267D+05 0.12475453D+01  1  2 12  1  6  1       21 0.148119844208D-05 0.100000000000D+01
-.547767850886D-03 0.000000000000D+00 0.000000000000D+00 0.169093016799D-05 0.000000000000D+00  6 21 2 25 24 1 21 4 0.48485105D-01 0.81847521D-02 0.14989312D+05 0.14989312D+05 0.14989312D+05 0.12478578D+01  1  2  4  1  6  1       21 -.535380341380D+01 0.100000000000D+01
-.548617830220D-03 0.000000000000D+00 -.258264908201D-05 0.169093016799D-05 0.000000000000D+00  6 21 2 25 24 1 21 4 0.51584864D-01 0.81847521D-02 0.14989312D+05 0.14989312D+05 0.14989312D+05 0.12478578D+01  1  2  5  1  6  1       21 -.471944598543D+01 0.100000000000D+01
0.543880009206D-03 0.000000000000D+00 0.256291924391D-05 0.169093016799D-05 0.000000000000D+00  6 21 2 25 24 1 21 4 0.48485105D-01 0.81847521D-02 0.14989312D+05 0.14989312D+05 0.14989312D+05 0.12478578D+01  1  2  6  1  6  1       21 0.531580421391D+01 0.100000000000D+01
0.549102778959D-03 0.000000000000D+00 0.000000000000D+00 0.169093016799D-05 0.534215675226D-04  6 21 2 25 24 1 21 4 0.51581268D-01 0.81859774D-02 0.15084267D+05 0.15084267D+05 0.15084267D+05 0.12475453D+01  1  2 11  1  6  1       21 0.471886562039D+01 0.100000000000D+01
0.401852726683D-11 0.000000000000D+00 0.000000000000D+00 0.169008321008D-05 0.000000000000D+00  6 -1 2 25 24 1 -1 4 0.51584771D-01 0.81847521D-02 0.15084267D+05 0.15084267D+05 0.15084267D+05 0.12475453D+01  1  2 12  4  6  1       21 0.339703415021D-08 0.100000000000D+01
0.402395429401D-11 0.000000000000D+00 0.000000000000D+00 0.169008321008D-05 0.000000000000D+00  6 -1 2 25 24 1 -1 4 0.51684220D-01 0.81847521D-02 0.15084267D+05 0.15084267D+05 0.15084267D+05 0.12475453D+01  1  2 12  4  6  1       21 0.338963751019D-08 0.100000000000D+01
-.853003509733D-05 0.000000000000D+00 -.388795543010D-07 0.169093016799D-05 0.000000000000D+00  6 -1 2 25 24 1 -1 4 0.51584864D-01 0.81847521D-02 0.14989312D+05 0.14989312D+05 0.14989312D+05 0.12478578D+01  1  2  5  4  6  1       21 -.721670790451D-02 0.100000000000D+01
0.107802557750D-04 0.000000000000D+00 0.000000000000D+00 0.169093016799D-05 0.104841413565D-05  6 -1 2 25 24 1 -1 4 0.51581268D-01 0.81859774D-02 0.15084267D+05 0.15084267D+05 0.15084267D+05 0.12475453D+01  1  2 11  4  6  1       21 0.911244454262D-02 0.100000000000D+01
0.401852726683D-11 0.000000000000D+00 0.000000000000D+00 0.169008321008D-05 0.000000000000D+00  6 1 2 25 24 1 1 4 0.51584771D-01 0.81847521D-02 0.15084267D+05 0.15084267D+05 0.15084267D+05 0.12475453D+01  1  2 12  5  6  1       21 0.787981563126D-08 0.100000000000D+01
0.402395429401D-11 0.000000000000D+00 0.000000000000D+00 0.169008321008D-05 0.000000000000D+00  6 1 2 25 24 1 1 4 0.51684220D-01 0.81847521D-02 0.15084267D+05 0.15084267D+05 0.15084267D+05 0.12475453D+01  1  2 12  5  6  1       21 0.787163684374D-08 0.100000000000D+01
-.853003509733D-05 0.000000000000D+00 -.388795543010D-07 0.169093016799D-05 0.000000000000D+00  6 1 2 25 24 1 1 4 0.51584864D-01 0.81847521D-02 0.14989312D+05 0.14989312D+05 0.14989312D+05 0.12478578D+01  1  2  5  5  6  1       21 -.167398564407D-01 0.100000000000D+01
0.825412316077D-05 0.000000000000D+00 0.000000000000D+00 0.169093016799D-05 0.393643034695D-06  6 1 2 25 24 1 1 4 0.51581268D-01 0.81859774D-02 0.15084267D+05 0.15084267D+05 0.15084267D+05 0.12475453D+01  1  2 11  5  6  1       21 0.161836119681D-01 0.100000000000D+01
0.401852726683D-11 0.000000000000D+00 0.000000000000D+00 0.169008321008D-05 0.000000000000D+00  6 -2 2 25 24 1 -2 4 0.51584771D-01 0.81847521D-02 0.15084267D+05 0.15084267D+05 0.15084267D+05 0.12475453D+01  1  2 12  6  6  1       21 0.276416510354D-08 0.100000000000D+01
0.402395429401D-11 0.000000000000D+00 0.000000000000D+00 0.169008321008D-05 0.000000000000D+00  6 -2 2 25 24 1 -2 4 0.51684220D-01 0.81847521D-02 0.15084267D+05 0.15084267D+05 0.15084267D+05 0.12475453D+01  1  2 12  6  6  1       21 0.275732641082D-08 0.100000000000D+01
-.853003509733D-05 0.000000000000D+00 -.388795543010D-07 0.169093016799D-05 0.000000000000D+00  6 -2 2 25 24 1 -2 4 0.51584864D-01 0.81847521D-02 0.14989312D+05 0.14989312D+05 0.14989312D+05 0.12478578D+01  1  2  5  6  6  1       21 -.587210228452D-02 0.100000000000D+01
0.823958790574D-05 0.000000000000D+00 0.000000000000D+00 0.169093016799D-05 0.785699263176D-06  6 -2 2 25 24 1 -2 4 0.51581268D-01 0.81859774D-02 0.15084267D+05 0.15084267D+05 0.15084267D+05 0.12475453D+01  1  2 11  6  6  1       21 0.566734881020D-02 0.100000000000D+01
0.401852726683D-11 0.000000000000D+00 0.000000000000D+00 0.169008321008D-05 0.000000000000D+00  6 2 2 25 24 1 2 4 0.51584771D-01 0.81847521D-02 0.15084267D+05 0.15084267D+05 0.15084267D+05 0.12475453D+01  1  2 12  7  6  1       21 0.113502219702D-07 0.100000000000D+01
0.402395429401D-11 0.000000000000D+00 0.000000000000D+00 0.169008321008D-05 0.000000000000D+00  6 2 2 25 24 1 2 4 0.51684220D-01 0.81847521D-02 0.15084267D+05 0.15084267D+05 0.15084267D+05 0.12475453D+01  1  2 12  7  6  1       21 0.113424295451D-07 0.100000000000D+01
-.853003509733D-05 0.000000000000D+00 -.388795543010D-07 0.169093016799D-05 0.000000000000D+00  6 2 2 25 24 1 2 4 0.51584864D-01 0.81847521D-02 0.14989312D+05 0.14989312D+05 0.14989312D+05 0.12478578D+01  1  2  5  7  6  1       21 -.241118577179D-01 0.100000000000D+01
0.823776177747D-05 0.000000000000D+00 0.000000000000D+00 0.169093016799D-05 0.785618454695D-06  6 2 2 25 24 1 2 4 0.51581268D-01 0.81859774D-02 0.15084267D+05 0.15084267D+05 0.15084267D+05 0.12475453D+01  1  2 11  7  6  1       21 0.232646571218D-01 0.100000000000D+01
0.401852726683D-11 0.000000000000D+00 0.000000000000D+00 0.169008321008D-05 0.000000000000D+00  6 -3 2 25 24 1 -3 4 0.51584771D-01 0.81847521D-02 0.15084267D+05 0.15084267D+05 0.15084267D+05 0.12475453D+01  1  2 12  8  6  1       21 0.171610787210D-08 0.100000000000D+01
0.401852726683D-11 0.000000000000D+00 0.000000000000D+00 0.169008321008D-05 0.000000000000D+00  6 -4 2 25 24 1 -4 4 0.51584771D-01 0.81847521D-02 0.15084267D+05 0.15084267D+05 0.15084267D+05 0.12475453D+01  1  2 12  8  6  1       21 0.140322731902D-08 0.100000000000D+01
0.402395429401D-11 0.000000000000D+00 0.000000000000D+00 0.169008321008D-05 0.000000000000D+00  6 -3 2 25 24 1 -3 4 0.51684220D-01 0.81847521D-02 0.15084267D+05 0.15084267D+05 0.15084267D+05 0.12475453D+01  1  2 12  8  6  1       21 0.171181209621D-08 0.100000000000D+01
0.402395429401D-11 0.000000000000D+00 0.000000000000D+00 0.169008321008D-05 0.000000000000D+00  6 -4 2 25 24 1 -4 4 0.51684220D-01 0.81847521D-02 0.15084267D+05 0.15084267D+05 0.15084267D+05 0.12475453D+01  1  2 12  8  6  1       21 0.139960351972D-08 0.100000000000D+01
-.853003509733D-05 0.000000000000D+00 -.388795543010D-07 0.169093016799D-05 0.000000000000D+00  6 -3 2 25 24 1 -3 4 0.51584864D-01 0.81847521D-02 0.14989312D+05 0.14989312D+05 0.14989312D+05 0.12478578D+01  1  2  5  8  6  1       21 -.364511773954D-02 0.100000000000D+01
-.853003509733D-05 0.000000000000D+00 -.388795543010D-07 0.169093016799D-05 0.000000000000D+00  6 -4 2 25 24 1 -4 4 0.51584864D-01 0.81847521D-02 0.14989312D+05 0.14989312D+05 0.14989312D+05 0.12478578D+01  1  2  5  8  6  1       21 -.298031027677D-02 0.100000000000D+01
0.824020962432D-05 0.000000000000D+00 0.000000000000D+00 0.169093016799D-05 0.785758548159D-06  6 -3 2 25 24 1 -3 4 0.51581268D-01 0.81859774D-02 0.15084267D+05 0.15084267D+05 0.15084267D+05 0.12475453D+01  1  2 11  8  6  1       21 0.351879336970D-02 0.100000000000D+01
0.824020962432D-05 0.000000000000D+00 0.000000000000D+00 0.169093016799D-05 0.785758548159D-06  6 -4 2 25 24 1 -4 4 0.51581268D-01 0.81859774D-02 0.15084267D+05 0.15084267D+05 0.15084267D+05 0.12475453D+01  1  2 11  8  6  1       21 0.287725550364D-02 0.100000000000D+01
0.401852726683D-11 0.000000000000D+00 0.000000000000D+00 0.169008321008D-05 0.000000000000D+00  6 3 2 25 24 1 3 4 0.51584771D-01 0.81847521D-02 0.15084267D+05 0.15084267D+05 0.15084267D+05 0.12475453D+01  1  2 12  9  6  1       21 0.171687448078D-08 0.100000000000D+01
0.401852726683D-11 0.000000000000D+00 0.000000000000D+00 0.169008321008D-05 0.000000000000D+00  6 4 2 25 24 1 4 4 0.51584771D-01 0.81847521D-02 0.15084267D+05 0.15084267D+05 0.15084267D+05 0.12475453D+01  1  2 12  9  6  1       21 0.140322731902D-08 0.100000000000D+01
0.402395429401D-11 0.000000000000D+00 0.000000000000D+00 0.169008321008D-05 0.000000000000D+00  6 3 2 25 24 1 3 4 0.51684220D-01 0.81847521D-02 0.15084267D+05 0.15084267D+05 0.15084267D+05 0.12475453D+01  1  2 12  9  6  1       21 0.171258098369D-08 0.100000000000D+01
0.402395429401D-11 0.000000000000D+00 0.000000000000D+00 0.169008321008D-05 0.000000000000D+00  6 4 2 25 24 1 4 4 0.51684220D-01 0.81847521D-02 0.15084267D+05 0.15084267D+05 0.15084267D+05 0.12475453D+01  1  2 12  9  6  1       21 0.139960351972D-08 0.100000000000D+01
-.853003509733D-05 0.000000000000D+00 -.388795543010D-07 0.169093016799D-05 0.000000000000D+00  6 3 2 25 24 1 3 4 0.51584864D-01 0.81847521D-02 0.14989312D+05 0.14989312D+05 0.14989312D+05 0.12478578D+01  1  2  5  9  6  1       21 -.364674561111D-02 0.100000000000D+01
-.853003509733D-05 0.000000000000D+00 -.388795543010D-07 0.169093016799D-05 0.000000000000D+00  6 4 2 25 24 1 4 4 0.51584864D-01 0.81847521D-02 0.14989312D+05 0.14989312D+05 0.14989312D+05 0.12478578D+01  1  2  5  9  6  1       21 -.298031027677D-02 0.100000000000D+01
0.824020962432D-05 0.000000000000D+00 0.000000000000D+00 0.169093016799D-05 0.785758548159D-06  6 3 2 25 24 1 3 4 0.51581268D-01 0.81859774D-02 0.15084267D+05 0.15084267D+05 0.15084267D+05 0.12475453D+01  1  2 11  9  6  1       21 0.352036495880D-02 0.100000000000D+01
0.824020962432D-05 0.000000000000D+00 0.000000000000D+00 0.169093016799D-05 0.785758548159D-06  6 4 2 25 24 1 4 4 0.51581268D-01 0.81859774D-02 0.15084267D+05 0.15084267D+05 0.15084267D+05 0.12475453D+01  1  2 11  9  6  1       21 0.287725550364D-02 0.100000000000D+01
  </mgrwgt>
  </event>
  <event>
  5     66 0.46027262E-03 0.98366255E+02 0.75467711E-02 0.11742670E+00
       21 -1    0    0  501  502 0.00000000E+00 0.00000000E+00 0.15651741E+02 0.15669700E+02 0.75000000E+00 0.0000E+00 0.9000E+01
        2 -1    0    0  502    0 0.00000000E+00 0.00000000E+00 -.21470832E+04 0.21470833E+04 0.32000000E+00 0.0000E+00 0.9000E+01
       25  1    1    2    0    0 0.77032929E+02 0.43449245E+02 -.81734902E+03 0.83156859E+03 0.12500000E+03 0.0000E+00 0.9000E+01
       24  1    1    2    0    0 0.22637326E+02 -.43384975E+02 -.36736697E+03 0.37923661E+03 0.80419002E+02 0.0000E+00 0.9000E+01
        1  1    1    2  501    0 -.99670255E+02 -.64269950E-01 -.94671552E+03 0.95194776E+03 0.32000000E+00 0.0000E+00 0.9000E+01
#aMCatNLO 1  0  0  2  2 0.26674084D-01 0.00000000D+00  -5  6  0 0.00000000D+00 0.00000000D+00 0.00000000D+00 0.00000000D+00 0.00000000D+00
  <mgrwgt>
 0.4652106531D-01    9    2    0
 0.183371308613037D+03 0.000000000000000D+00 0.000000000000000D+00 0.183371308613037D+03
 0.183371308613037D+03 0.000000000000000D+00 0.000000000000000D+00 -.183371308613037D+03
 0.153660986787096D+03 0.770331002610058D+02 0.434492454065921D+02 0.128360195605869D+02
 0.101372461231031D+03 0.226374395116404D+02 -.433849752737136D+02 0.376091769987395D+02
 0.111709169207947D+03 -.996705397726463D+02 -.642701328784680D-01 -.504451965593264D+02
 0.000000000000000D+00 0.000000000000000D+00 0.000000000000000D+00 -.000000000000000D+00
 0.183375592924769D+03 0.000000000000000D+00 0.000000000000000D+00 0.183375592924769D+03
 0.183412831946962D+03 0.000000000000000D+00 0.000000000000000D+00 -.183412831946962D+03
 0.153657448037329D+03 0.770323292721661D+02 0.434380960228379D+02 0.128360195605869D+02
 0.101375495892632D+03 0.226369308652512D+02 -.433923308844521D+02 0.376091769987395D+02
 0.111709674266150D+03 -.996711002773716D+02 -.723756746928517D-01 -.504451965593264D+02
 0.458066756212875D-01 0.184013995433963D-02 0.266105363070516D-01 -.372390221927669D-01
0.280258083341D-06 0.000000000000D+00 0.000000000000D+00 0.194726105011D-06 0.000000000000D+00  6 21 2 25 24 1 21 2 0.24093434D-02 0.33032188D+00 0.30090502D+05 0.30090502D+05 0.30090502D+05 0.12147611D+01  1  2  2  2  6  2        2 0.304495307782D-02 0.100000000000D+01
-.313397518484D-07 0.147896253799D-07 -.565760324333D-09 0.194726105011D-06 0.000000000000D+00  6 21 2 25 24 1 21 4 0.24093434D-02 0.33032188D+00 0.30090502D+05 0.30090502D+05 0.30090502D+05 0.12147611D+01  1  2  3  2  6  2        2 -.502458016807D-03 0.100000000000D+01
0.275855631205D-07 0.000000000000D+00 0.000000000000D+00 0.194726105011D-06 0.000000000000D+00  6 21 2 25 24 1 21 4 0.24093434D-02 0.33032188D+00 0.30090502D+05 0.30090502D+05 0.30090502D+05 0.12147611D+01  1  2 15  2  6  2        2 0.442268573314D-03 0.100000000000D+01
-.166802892734D-02 0.000000000000D+00 0.000000000000D+00 0.194726105011D-06 0.000000000000D+00  6 21 2 25 24 1 21 4 0.24093434D-02 0.33032188D+00 0.30090502D+05 0.30090502D+05 0.30090502D+05 0.12147611D+01  1  2  4  2  6  2        2 -.267428571502D+02 0.100000000000D+01
-.641116489030D-02 0.000000000000D+00 -.301631111930D-03 0.194726105011D-06 0.000000000000D+00  6 21 2 25 24 1 21 4 0.24093434D-02 0.33039945D+00 0.30090502D+05 0.30090502D+05 0.30090502D+05 0.12147611D+01  1  2  5  2  6  2        2 -.102725545536D+03 0.100000000000D+01
0.641123553930D-02 0.000000000000D+00 0.301631103617D-03 0.194726105011D-06 0.000000000000D+00  6 21 2 25 24 1 21 4 0.24093434D-02 0.33032188D+00 0.30090502D+05 0.30090502D+05 0.30090502D+05 0.12147611D+01  1  2  6  2  6  2        2 0.102788838595D+03 0.100000000000D+01
0.166793322832D-02 0.000000000000D+00 0.000000000000D+00 0.194726105011D-06 0.271460153395D-02  6 21 2 25 24 1 21 4 0.24093997D-02 0.33039668D+00 0.30095179D+05 0.30095179D+05 0.30095179D+05 0.12147540D+01  1  2 11  2  6  2        2 0.267240053295D+02 0.100000000000D+01
-.282123618491D-06 0.000000000000D+00 -.132735848032D-07 0.194726105011D-06 0.000000000000D+00  6 21 21 25 24 1 -2 4 0.24093434D-02 0.33039945D+00 0.30090502D+05 0.30090502D+05 0.30090502D+05 0.12147611D+01  1  2  5 10  6  2        2 -.129811115272D-02 0.100000000000D+01
0.854537153123D-07 0.000000000000D+00 0.000000000000D+00 0.194726105011D-06 0.106904666332D-06  6 21 21 25 24 1 -2 4 0.24093997D-02 0.33039668D+00 0.30095179D+05 0.30095179D+05 0.30095179D+05 0.12147540D+01  1  2 11 10  6  2        2 0.393174970677D-03 0.100000000000D+01
  </mgrwgt>
  </event>
  <event>
  5     66 0.46027262E-03 0.41595789E+02 0.75467711E-02 0.12257423E+00
       21 -1    0    0  501  502 0.00000000E+00 0.00000000E+00 0.71747613E+01 0.72138547E+01 0.75000000E+00 0.0000E+00 0.9000E+01
        2 -1    0    0  502    0 0.00000000E+00 0.00000000E+00 -.25833763E+04 0.25833763E+04 0.32000000E+00 0.0000E+00 0.9000E+01
       25  1    1    2    0    0 -.23841261E+02 0.43479479E+02 -.13517940E+04 0.13584664E+04 0.12500000E+03 0.0000E+00 0.9000E+01
       24  1    1    2    0    0 0.21938641E+02 -.19278748E+01 -.10271225E+04 0.10305013E+04 0.80419002E+02 0.0000E+00 0.9000E+01
        1  1    1    2  501    0 0.19026209E+01 -.41551604E+02 -.19728499E+03 0.20162249E+03 0.32000000E+00 0.0000E+00 0.9000E+01
#aMCatNLO 1  0  0  1  5 0.27679284D+01 0.00000000D+00  -5  6  0 0.00000000D+00 0.00000000D+00 0.00000000D+00 0.00000000D+00 0.00000000D+00
  <mgrwgt>
 0.5091206186D-01   13    2    0
 0.136329640836171D+03 0.000000000000000D+00 0.000000000000000D+00 0.136329640836171D+03
 0.136329640836171D+03 0.000000000000000D+00 0.000000000000000D+00 -.136329640836171D+03
 0.134731882798699D+03 -.238412795450854D+02 0.434798730071584D+02 -.829302570940978D+01
 0.863051852151273D+02 0.219386289924448D+02 -.192762210701976D+01 -.222789109157354D+02
 0.516222136585155D+02 0.190265055264054D+01 -.415522509001386D+02 0.305719366251452D+02
 0.000000000000000D+00 -.000000000000000D+00 0.000000000000000D+00 -.000000000000000D+00
 0.136877427856911D+03 0.000000000000000D+00 0.000000000000000D+00 0.136877427856911D+03
 0.139878621335480D+03 0.000000000000000D+00 0.000000000000000D+00 -.139878621335480D+03
 0.134240003843812D+03 -.230299197672557D+02 0.423819201085020D+02 -.829302570940978D+01
 0.864577299930415D+02 0.224597722325441D+02 -.263284652991735D+01 -.222789109157354D+02
 0.519755969264485D+02 0.221515569073911D+01 -.419751408826051D+02 0.305719366251452D+02
 0.408271842908980D+01 -.164500815602752D+01 0.222606730402046D+01 -.300119347856874D+01
0.208771820299D-05 0.000000000000D+00 0.000000000000D+00 0.832266238302D-06 0.000000000000D+00  6 21 2 25 24 1 21 2 0.11068181D-02 0.39744551D+00 0.16828870D+05 0.16828870D+05 0.16828870D+05 0.12421665D+01  1  2  2  1  6  1       21 0.490861477312D-01 0.100000000000D+01
-.169034379918D-09 0.110171916375D-06 -.421450155357D-08 0.832266238302D-06 0.000000000000D+00  6 21 2 25 24 1 21 4 0.11068181D-02 0.39744551D+00 0.16828870D+05 0.16828870D+05 0.16828870D+05 0.12421665D+01  1  2  3  1  6  1       21 -.613227706545D-05 0.100000000000D+01
0.189665574986D-06 0.000000000000D+00 0.000000000000D+00 0.832266238302D-06 0.000000000000D+00  6 21 2 25 24 1 21 4 0.11068181D-02 0.39744551D+00 0.16828870D+05 0.16828870D+05 0.16828870D+05 0.12421665D+01  1  2 15  1  6  1       21 0.688074139804D-02 0.100000000000D+01
-.144378945377D-05 0.000000000000D+00 0.000000000000D+00 0.832266238302D-06 0.000000000000D+00  6 21 2 25 24 1 21 4 0.11068181D-02 0.39744551D+00 0.16828870D+05 0.16828870D+05 0.16828870D+05 0.12421665D+01  1  2  4  1  6  1       21 -.523782023456D-01 0.100000000000D+01
0.141583787013D-05 0.000000000000D+00 0.000000000000D+00 0.832266238302D-06 0.941629768749D-06  6 21 2 25 24 1 21 4 0.11112655D-02 0.40779195D+00 0.17203343D+05 0.17203343D+05 0.17203343D+05 0.12410936D+01  1  2 11  1  6  1       21 0.467604227506D-01 0.100000000000D+01
0.169990749712D-06 0.000000000000D+00 0.000000000000D+00 0.830829063343D-06 0.254097517720D-07  6 -1 2 25 24 1 -1 4 0.11112655D-02 0.40779195D+00 0.17203343D+05 0.17203343D+05 0.17203343D+05 0.12410936D+01  1  2 11  4  6  1       21 0.245201210916D-03 0.100000000000D+01
0.414405606680D-07 0.000000000000D+00 0.000000000000D+00 0.830829063343D-06 0.774647418983D-09  6 1 2 25 24 1 1 4 0.11112655D-02 0.40779195D+00 0.17203343D+05 0.17203343D+05 0.17203343D+05 0.12410936D+01  1  2 11  5  6  1       21 0.614874075311D-04 0.100000000000D+01
0.416239043705D-07 0.000000000000D+00 0.000000000000D+00 0.830829063343D-06 0.130724393419D-08  6 -2 2 25 24 1 -2 4 0.11112655D-02 0.40779195D+00 0.17203343D+05 0.17203343D+05 0.17203343D+05 0.12410936D+01  1  2 11  6  6  1       21 0.597413776952D-04 0.100000000000D+01
0.117977592510D-07 0.000000000000D+00 0.000000000000D+00 0.830829063343D-06 0.638279872618D-08  6 2 2 25 24 1 2 4 0.11112655D-02 0.40779195D+00 0.17203343D+05 0.17203343D+05 0.17203343D+05 0.12410936D+01  1  2 11  7  6  1       21 0.178445839198D-04 0.100000000000D+01
0.414987918602D-07 0.000000000000D+00 0.000000000000D+00 0.830829063343D-06 0.130331463989D-08  6 -3 2 25 24 1 -3 4 0.11112655D-02 0.40779195D+00 0.17203343D+05 0.17203343D+05 0.17203343D+05 0.12410936D+01  1  2 11  8  6  1       21 0.482298687984D-04 0.100000000000D+01
0.414987918602D-07 0.000000000000D+00 0.000000000000D+00 0.830829063343D-06 0.130331463989D-08  6 -4 2 25 24 1 -4 4 0.11112655D-02 0.40779195D+00 0.17203343D+05 0.17203343D+05 0.17203343D+05 0.12410936D+01  1  2 11  8  6  1       21 0.441760703890D-04 0.100000000000D+01
0.414987918602D-07 0.000000000000D+00 0.000000000000D+00 0.830829063343D-06 0.130331463989D-08  6 3 2 25 24 1 3 4 0.11112655D-02 0.40779195D+00 0.17203343D+05 0.17203343D+05 0.17203343D+05 0.12410936D+01  1  2 11  9  6  1       21 0.482280162255D-04 0.100000000000D+01
0.414987918602D-07 0.000000000000D+00 0.000000000000D+00 0.830829063343D-06 0.130331463989D-08  6 4 2 25 24 1 4 4 0.11112655D-02 0.40779195D+00 0.17203343D+05 0.17203343D+05 0.17203343D+05 0.12410936D+01  1  2 11  9  6  1       21 0.441760703890D-04 0.100000000000D+01
  </mgrwgt>
  </event>
  <event>
  5     66 0.46027262E-03 0.21536395E+02 0.75467711E-02 0.12155195E+00
       21 -1    0    0  501  502 0.00000000E+00 0.00000000E+00 0.12758218E+02 0.12780244E+02 0.75000000E+00 0.0000E+00 0.9000E+01
        2 -1    0    0  502    0 -.00000000E+00 -.00000000E+00 -.20754524E+04 0.20754524E+04 0.32000000E+00 0.0000E+00 0.9000E+01
       25  1    1    2    0    0 -.47252635E+02 -.28247508E+02 -.13499039E+04 0.13567964E+04 0.12500000E+03 0.0000E+00 0.9000E+01
       24  1    1    2    0    0 0.31315299E+02 0.13762590E+02 -.70186577E+03 0.70728554E+03 0.80419002E+02 0.0000E+00 0.9000E+01
        1  1    1    2  501    0 0.15937336E+02 0.14484918E+02 -.10924418E+02 0.24150711E+02 0.32000000E+00 0.0000E+00 0.9000E+01
#aMCatNLO 1  0  0  5  1 0.20610036D+02 0.00000000D+00  -5  6  0 0.00000000D+00 0.00000000D+00 0.00000000D+00 0.00000000D+00 0.00000000D+00
  <mgrwgt>
 0.2677930987D+00    4    2    0
 0.162794647946478D+03 0.000000000000000D+00 0.000000000000000D+00 0.162794647946478D+03
 0.162794647946478D+03 -.000000000000000D+00 -.000000000000000D+00 -.162794647946478D+03
 0.150089512518622D+03 -.472526862904215D+02 -.282475546840484D+02 -.622183337995191D+02
 0.898135572114744D+02 0.313152682556376D+02 0.137625626305718D+02 -.207172620904718D+02
 0.856862261628589D+02 0.159374180347839D+02 0.144849920534766D+02 0.829355958899908D+02
 0.000000000000000D+00 0.000000000000000D+00 0.000000000000000D+00 -.000000000000000D+00
 0.162794647946478D+03 0.000000000000000D+00 0.000000000000000D+00 0.162794647946478D+03
 0.162794647946478D+03 -.000000000000000D+00 -.000000000000000D+00 -.162794647946478D+03
 0.145044636965423D+03 -.452264824262019D+02 -.264060050172274D+02 -.516743156588838D+02
 0.891788539841396D+02 0.325441166144756D+02 0.148794222544989D+02 -.143225455387545D+02
 0.206162119436172D+02 -.196167198388346D+02 0.538379350102276D+01 0.335071114946756D+01
 0.707495929997757D+02 0.322990856505609D+02 0.614278926170580D+01 0.626461500481707D+02
0.138509347184D-04 0.000000000000D+00 0.000000000000D+00 0.542676285279D-05 0.000000000000D+00  6 21 2 25 24 1 21 2 0.19644990D-02 0.31930206D+00 0.15069268D+05 0.15069268D+05 0.15069268D+05 0.12475945D+01  1  2  2  3  6  5        1 0.242739856191D+00 0.100000000000D+01
0.259838910859D-05 0.730933906365D-06 -.279610465652D-07 0.542676285279D-05 0.000000000000D+00  6 21 2 25 24 1 21 4 0.19644990D-02 0.31930206D+00 0.15069268D+05 0.15069268D+05 0.15069268D+05 0.12475945D+01  1  2  3  3  6  5        1 0.708782677139D-01 0.100000000000D+01
0.145664015304D-05 0.000000000000D+00 0.000000000000D+00 0.542676285279D-05 0.000000000000D+00  6 21 2 25 24 1 21 4 0.19644990D-02 0.31930206D+00 0.15069268D+05 0.15069268D+05 0.15069268D+05 0.12475945D+01  1  2 15  3  6  5        1 0.397338991257D-01 0.100000000000D+01
-.313658028458D-05 0.000000000000D+00 0.000000000000D+00 0.542676285279D-05 0.000000000000D+00  6 21 2 25 24 1 21 4 0.19644990D-02 0.31930206D+00 0.15069268D+05 0.15069268D+05 0.15069268D+05 0.12475945D+01  1  2  4  3  6  5        1 -.855589243281D-01 0.100000000000D+01
  </mgrwgt>
  </event>
  <event>
  6     66 0.46027262E-03 0.78565270E+02 0.75467711E-02 0.11794707E+00
       21 -1    0    0  501  502 0.00000000E+00 0.00000000E+00 0.35597680E+03 0.35597759E+03 0.75000000E+00 0.0000E+00 0.9000E+01
        4 -1    0    0  502    0 0.00000000E+00 0.00000000E+00 -.89907117E+02 0.89920477E+02 0.15500000E+01 0.0000E+00 0.9000E+01
       25  1    1    2    0    0 -.52654085E+02 -.54579903E+01 0.16168602E+03 0.21111516E+03 0.12500000E+03 0.0000E+00 0.9000E+01
       24  1    1    2    0    0 -.25181483E+02 -.52943410E+02 0.24533738E+02 0.10249991E+03 0.80419002E+02 0.0000E+00 0.9000E+01
        3  1    1    2  503    0 0.74659090E+02 0.43475152E+02 0.52905363E+02 0.10130793E+03 0.50000000E+00 0.0000E+00 0.9000E+01
       21  1    1    2  501  503 0.31764777E+01 0.14926249E+02 0.26944565E+02 0.30975070E+02 0.75000000E+00 0.0000E+00 0.9000E+01
#aMCatNLO 2  0  0  5  1 0.14567356D+02 0.00000000D+00  -5  6  0 0.00000000D+00 0.00000000D+00 0.00000000D+00 0.00000000D+00 0.00000000D+00
  <mgrwgt>
 0.2047012964D-01    2    2    0
 0.178907805586356D+03 0.000000000000000D+00 0.000000000000000D+00 0.178907805586356D+03
 0.178907805586356D+03 -.000000000000000D+00 -.000000000000000D+00 -.178907805586356D+03
 0.143928402603385D+03 -.552980123343888D+02 -.744177584955536D+01 0.444649848761108D+02
 0.110727239388559D+03 -.272117037377746D+02 -.544667200983442D+02 -.456749950154007D+02
 0.103159969180769D+03 0.825097160721634D+02 0.619084959478995D+02 0.121001013928990D+01
 0.000000000000000D+00 0.000000000000000D+00 0.000000000000000D+00 0.000000000000000D+00
 0.178907805586356D+03 0.000000000000000D+00 0.000000000000000D+00 0.178907805586356D+03
 0.178907805586356D+03 -.000000000000000D+00 -.000000000000000D+00 -.178907805586356D+03
 0.142849633610272D+03 -.526379574025347D+02 -.544588969445274D+01 0.445039947478184D+02
 0.109481474037974D+03 -.251691230648563D+02 -.529341357757654D+02 -.456450404422642D+02
 0.867811576132718D+02 0.745903611648436D+02 0.433277716316238D+02 -.948427875146900D+01
 0.187033459111950D+02 0.321671930254742D+01 0.150522538385944D+02 0.106253244459148D+02
-.951119228956D-05 0.000000000000D+00 0.000000000000D+00 0.216029288423D-06 0.000000000000D+00  6 21 4 25 24 3 21 4 0.54766750D-01 0.13832953D-01 0.28376435D+05 0.28376435D+05 0.28376435D+05 0.12174426D+01  1  2 13  3  6  5        3 -.119465424004D-01 0.100000000000D+01
0.258084047123D-04 0.000000000000D+00 0.000000000000D+00 0.215645443408D-06 0.216551303961D-07  6 21 4 25 24 3 21 4 0.54766750D-01 0.13832953D-01 0.28376435D+05 0.28376435D+05 0.28376435D+05 0.12174426D+01  1  2  1  3  6  5        3 0.324166720423D-01 0.100000000000D+01
  </mgrwgt>
  </event>
  <event>
  5     66 0.46027262E-03 0.22422611E+02 0.75467711E-02 0.12259307E+00
       21 -1    0    0  501  502 0.00000000E+00 0.00000000E+00 0.45000149E+02 0.45006398E+02 0.75000000E+00 0.0000E+00 0.9000E+01
        2 -1    0    0  502    0 0.00000000E+00 0.00000000E+00 -.15884480E+04 0.15884480E+04 0.32000000E+00 0.0000E+00 0.9000E+01
       25  1    1    2    0    0 0.20797338E+02 0.36483830E+02 -.83916392E+03 0.84946141E+03 0.12500000E+03 0.0000E+00 0.9000E+01
       24  1    1    2    0    0 -.32972935E+02 -.17654924E+02 -.73810413E+03 0.74341364E+03 0.80419002E+02 0.0000E+00 0.9000E+01
        1  1    1    2  501    0 0.12175597E+02 -.18828906E+02 0.33820236E+02 0.40579350E+02 0.32000000E+00 0.0000E+00 0.9000E+01
#aMCatNLO 1  0  0  1  2 0.20591092D+02 0.00000000D+00  -5  6  0 0.00000000D+00 0.00000000D+00 0.00000000D+00 0.00000000D+00 0.00000000D+00
  <mgrwgt>
 0.2845860764D+01   23    2    0
 0.267367771396027D+03 0.000000000000000D+00 0.000000000000000D+00 0.267367771396027D+03
 0.267367771396027D+03 0.000000000000000D+00 0.000000000000000D+00 -.267367771396027D+03
 0.172703644623584D+03 0.207973339866453D+02 0.364838367441131D+02 -.111525555016535D+03
 0.140456510268733D+03 -.329729386944799D+02 -.176549192212475D+02 -.108912370572132D+03
 0.221575387899737D+03 0.121756047078346D+02 -.188289175228656D+02 0.220437925588667D+03
 0.000000000000000D+00 0.000000000000000D+00 0.000000000000000D+00 0.000000000000000D+00
 0.355185198802663D+03 0.000000000000000D+00 0.000000000000000D+00 0.355185198802663D+03
 0.268775683213243D+03 0.000000000000000D+00 0.000000000000000D+00 -.268775683213243D+03
 0.171947136546885D+03 0.141762378796078D+02 0.360818877625282D+02 -.111525555016535D+03
 0.141869158661468D+03 -.383967052709611D+02 -.179841815392274D+02 -.108912370572132D+03
 0.221315551894971D+03 0.366721407730085D+01 -.193454390917391D+02 0.220437925588667D+03
 0.888290349125829D+02 0.205532533140525D+02 0.124773286843827D+01 0.864095155894204D+02
0.283587343892D-04 0.000000000000D+00 0.000000000000D+00 0.317369793061D-04 0.000000000000D+00  6 21 2 25 24 1 21 2 0.69235830D-02 0.24437709D+00 0.14759776D+05 0.14759776D+05 0.14759776D+05 0.12486226D+01  1  2  2  1  6  1       21 0.109657683965D+00 0.100000000000D+01
0.924153124118D-05 0.149653152860D-05 -.572481142183D-07 0.317369793061D-04 0.000000000000D+00  6 21 2 25 24 1 21 4 0.69235830D-02 0.24437709D+00 0.14759776D+05 0.14759776D+05 0.14759776D+05 0.12486226D+01  1  2  3  1  6  1       21 0.557132601816D-01 0.100000000000D+01
0.291157035060D-05 0.000000000000D+00 0.000000000000D+00 0.317369793061D-04 0.000000000000D+00  6 21 2 25 24 1 21 4 0.69235830D-02 0.24437709D+00 0.14759776D+05 0.14759776D+05 0.14759776D+05 0.12486226D+01  1  2 15  1  6  1       21 0.175526189596D-01 0.100000000000D+01
0.594126360700D-03 0.000000000000D+00 0.000000000000D+00 0.313602097344D-04 0.000000000000D+00  6 21 2 25 24 1 21 4 0.92115962D-02 0.24437709D+00 0.17169689D+05 0.17169689D+05 0.17169689D+05 0.12411889D+01  1  2 12  1  6  1       21 0.213090361872D+01 0.100000000000D+01
-.178512072573D-03 0.000000000000D+00 0.000000000000D+00 0.317369793061D-04 0.000000000000D+00  6 21 2 25 24 1 21 4 0.69235830D-02 0.24437709D+00 0.14759776D+05 0.14759776D+05 0.14759776D+05 0.12486226D+01  1  2  4  1  6  1       21 -.107617334025D+01 0.100000000000D+01
-.120611396627D-02 0.000000000000D+00 -.420755209285D-04 0.317369793061D-04 0.000000000000D+00  6 21 2 25 24 1 21 4 0.92318204D-02 0.24437709D+00 0.14759776D+05 0.14759776D+05 0.14759776D+05 0.12486226D+01  1  2  5  1  6  1       21 -.443071175032D+01 0.100000000000D+01
0.101831539090D-02 0.000000000000D+00 0.358497569375D-04 0.317369793061D-04 0.000000000000D+00  6 21 2 25 24 1 21 4 0.69235830D-02 0.24437709D+00 0.14759776D+05 0.14759776D+05 0.14759776D+05 0.12486226D+01  1  2  6  1  6  1       21 0.613899026465D+01 0.100000000000D+01
0.557073741202D-04 0.000000000000D+00 0.000000000000D+00 0.313602097344D-04 0.000000000000D+00  6 -1 2 25 24 1 -1 4 0.92115962D-02 0.24437709D+00 0.17169689D+05 0.17169689D+05 0.17169689D+05 0.12411889D+01  1  2 12  4  6  1       21 0.129895558123D-01 0.100000000000D+01
-.114058505858D-03 0.000000000000D+00 -.376283278492D-05 0.317369793061D-04 0.000000000000D+00  6 -1 2 25 24 1 -1 4 0.92318204D-02 0.24437709D+00 0.14759776D+05 0.14759776D+05 0.14759776D+05 0.12486226D+01  1  2  5  4  6  1       21 -.271888440887D-01 0.100000000000D+01
0.557073741202D-04 0.000000000000D+00 0.000000000000D+00 0.313602097344D-04 0.000000000000D+00  6 1 2 25 24 1 1 4 0.92115962D-02 0.24437709D+00 0.17169689D+05 0.17169689D+05 0.17169689D+05 0.12411889D+01  1  2 12  5  6  1       21 0.160251101491D-01 0.100000000000D+01
-.114058505858D-03 0.000000000000D+00 -.376283278492D-05 0.317369793061D-04 0.000000000000D+00  6 1 2 25 24 1 1 4 0.92318204D-02 0.24437709D+00 0.14759776D+05 0.14759776D+05 0.14759776D+05 0.12486226D+01  1  2  5  5  6  1       21 -.335650201366D-01 0.100000000000D+01
0.557073741202D-04 0.000000000000D+00 0.000000000000D+00 0.313602097344D-04 0.000000000000D+00  6 -2 2 25 24 1 -2 4 0.92115962D-02 0.24437709D+00 0.17169689D+05 0.17169689D+05 0.17169689D+05 0.12411889D+01  1  2 12  6  6  1       21 0.124611994462D-01 0.100000000000D+01
-.114058505858D-03 0.000000000000D+00 -.376283278492D-05 0.317369793061D-04 0.000000000000D+00  6 -2 2 25 24 1 -2 4 0.92318204D-02 0.24437709D+00 0.14759776D+05 0.14759776D+05 0.14759776D+05 0.12486226D+01  1  2  5  6  6  1       21 -.260783813188D-01 0.100000000000D+01
0.557073741202D-04 0.000000000000D+00 0.000000000000D+00 0.313602097344D-04 0.000000000000D+00  6 2 2 25 24 1 2 4 0.92115962D-02 0.24437709D+00 0.17169689D+05 0.17169689D+05 0.17169689D+05 0.12411889D+01  1  2 12  7  6  1       21 0.180705972123D-01 0.100000000000D+01
-.114058505858D-03 0.000000000000D+00 -.376283278492D-05 0.317369793061D-04 0.000000000000D+00  6 2 2 25 24 1 2 4 0.92318204D-02 0.24437709D+00 0.14759776D+05 0.14759776D+05 0.14759776D+05 0.12486226D+01  1  2  5  7  6  1       21 -.378575340517D-01 0.100000000000D+01
0.557073741202D-04 0.000000000000D+00 0.000000000000D+00 0.313602097344D-04 0.000000000000D+00  6 -3 2 25 24 1 -3 4 0.92115962D-02 0.24437709D+00 0.17169689D+05 0.17169689D+05 0.17169689D+05 0.12411889D+01  1  2 12  8  6  1       21 0.860235787286D-02 0.100000000000D+01
0.557073741202D-04 0.000000000000D+00 0.000000000000D+00 0.313602097344D-04 0.000000000000D+00  6 -4 2 25 24 1 -4 4 0.92115962D-02 0.24437709D+00 0.17169689D+05 0.17169689D+05 0.17169689D+05 0.12411889D+01  1  2 12  8  6  1       21 0.752169996480D-02 0.100000000000D+01
-.114058505858D-03 0.000000000000D+00 -.376283278492D-05 0.317369793061D-04 0.000000000000D+00  6 -3 2 25 24 1 -3 4 0.92318204D-02 0.24437709D+00 0.14759776D+05 0.14759776D+05 0.14759776D+05 0.12486226D+01  1  2  5  8  6  1       21 -.179345736192D-01 0.100000000000D+01
-.114058505858D-03 0.000000000000D+00 -.376283278492D-05 0.317369793061D-04 0.000000000000D+00  6 -4 2 25 24 1 -4 4 0.92318204D-02 0.24437709D+00 0.14759776D+05 0.14759776D+05 0.14759776D+05 0.12486226D+01  1  2  5  8  6  1       21 -.156542290432D-01 0.100000000000D+01
0.557073741202D-04 0.000000000000D+00 0.000000000000D+00 0.313602097344D-04 0.000000000000D+00  6 3 2 25 24 1 3 4 0.92115962D-02 0.24437709D+00 0.17169689D+05 0.17169689D+05 0.17169689D+05 0.12411889D+01  1  2 12  9  6  1       21 0.860127008326D-02 0.100000000000D+01
0.557073741202D-04 0.000000000000D+00 0.000000000000D+00 0.313602097344D-04 0.000000000000D+00  6 4 2 25 24 1 4 4 0.92115962D-02 0.24437709D+00 0.17169689D+05 0.17169689D+05 0.17169689D+05 0.12411889D+01  1  2 12  9  6  1       21 0.752169996480D-02 0.100000000000D+01
-.114058505858D-03 0.000000000000D+00 -.376283278492D-05 0.317369793061D-04 0.000000000000D+00  6 3 2 25 24 1 3 4 0.92318204D-02 0.24437709D+00 0.14759776D+05 0.14759776D+05 0.14759776D+05 0.12486226D+01  1  2  5  9  6  1       21 -.179322710031D-01 0.100000000000D+01
-.114058505858D-03 0.000000000000D+00 -.376283278492D-05 0.317369793061D-04 0.000000000000D+00  6 4 2 25 24 1 4 4 0.92318204D-02 0.24437709D+00 0.14759776D+05 0.14759776D+05 0.14759776D+05 0.12486226D+01  1  2  5  9  6  1       21 -.156542290432D-01 0.100000000000D+01
  </mgrwgt>
  </event>
  <event>
  6     66 0.46027262E-03 0.11630931E+03 0.75467711E-02 0.11310593E+00
       21 -1    0    0  501  502 0.00000000E+00 0.00000000E+00 0.19563224E+04 0.19563226E+04 0.75000000E+00 0.0000E+00 0.9000E+01
        2 -1    0    0  502    0 0.00000000E+00 0.00000000E+00 -.83175013E+02 0.83175628E+02 0.32000000E+00 0.0000E+00 0.9000E+01
       25  1    1    2    0    0 0.64715714E+02 0.24480935E+02 0.45712330E+02 0.15000686E+03 0.12500000E+03 0.0000E+00 0.9000E+01
       24  1    1    2    0    0 -.24546005E+02 -.11817026E+03 0.16858215E+03 0.22238227E+03 0.80419002E+02 0.0000E+00 0.9000E+01
        1  1    1    2  503    0 -.48945567E+02 0.12124472E+03 0.14963105E+04 0.15020124E+04 0.32000000E+00 0.0000E+00 0.9000E+01
       21  1    1    2  501  503 0.87758580E+01 -.27555392E+02 0.16254240E+03 0.16509667E+03 0.75000000E+00 0.0000E+00 0.9000E+01
#aMCatNLO 2  0  0  5  2 0.35921150D+02 0.00000000D+00  -5  6  0 0.00000000D+00 0.00000000D+00 0.00000000D+00 0.00000000D+00 0.00000000D+00
  <mgrwgt>
 0.1503706800D-01    2    2    0
 0.403383089369427D+03 0.000000000000000D+00 0.000000000000000D+00 0.403383089369427D+03
 0.403383089369427D+03 -.000000000000000D+00 -.000000000000000D+00 -.403383089369427D+03
 0.280034157221540D+03 0.657203879766741D+02 0.221376947816673D+02 -.240800503082380D+03
 0.174392371925127D+03 -.239190604801686D+02 -.119632506175374D+03 -.951915198074199D+02
 0.352339649592186D+03 -.418013274965055D+02 0.974948113937067D+02 0.335992022889800D+03
 0.000000000000000D+00 0.000000000000000D+00 0.000000000000000D+00 0.000000000000000D+00
 0.403383089369427D+03 0.000000000000000D+00 0.000000000000000D+00 0.403383089369427D+03
 0.403383089369427D+03 -.000000000000000D+00 -.000000000000000D+00 -.403383089369427D+03
 0.273071025591056D+03 0.647142156465134D+02 0.244844284246787D+02 -.232713059528950D+03
 0.170761623416661D+03 -.245469417775222D+02 -.118168074963991D+03 -.901447157974247D+02
 0.322902337131152D+03 -.489575102828879D+02 0.121284207103346D+03 0.295227408312599D+03
 0.400311925999837D+02 0.879023641389668D+01 -.276005605640334D+02 0.276303670137753D+02
-.370260952665D-07 0.000000000000D+00 0.000000000000D+00 0.163337496815D-05 0.000000000000D+00  6 21 2 25 24 1 21 4 0.30097274D+00 0.12796214D-01 0.39035363D+05 0.39035363D+05 0.39035363D+05 0.12030784D+01  1  2  8  3  6  5        1 -.149146175939D-05 0.100000000000D+01
0.397330876200D-03 0.000000000000D+00 0.000000000000D+00 0.163337496815D-05 0.121616255094D-07  6 21 2 25 24 1 21 4 0.30097274D+00 0.12796214D-01 0.50099935D+05 0.50099935D+05 0.50099935D+05 0.11921959D+01  1  2  1  3  6  5        1 0.150385594631D-01 0.100000000000D+01
  </mgrwgt>
  </event>
  <event>
  5     66 0.46027262E-03 0.73768061E+02 0.75467711E-02 0.11861553E+00
       21 -1    0    0  501  502 0.00000000E+00 0.00000000E+00 0.30611393E+02 0.30620579E+02 0.75000000E+00 0.0000E+00 0.9000E+01
        2 -1    0    0  502    0 0.00000000E+00 0.00000000E+00 -.24524508E+04 0.24524508E+04 0.32000000E+00 0.0000E+00 0.9000E+01
       25  1    1    2    0    0 -.89386315E+02 -.13570721E+01 -.15183939E+04 0.15261510E+04 0.12500000E+03 0.0000E+00 0.9000E+01
       24  1    1    2    0    0 0.28731586E+01 0.43245631E+01 -.85286054E+03 0.85665937E+03 0.80419002E+02 0.0000E+00 0.9000E+01
        1  1    1    2  501    0 0.86513156E+02 -.29674910E+01 -.50584902E+02 0.10026099E+03 0.32000000E+00 0.0000E+00 0.9000E+01
#aMCatNLO 1  0  0  1  5 0.31693428D+01 0.00000000D+00  -5  6  0 0.00000000D+00 0.00000000D+00 0.00000000D+00 0.00000000D+00 0.00000000D+00
  <mgrwgt>
 0.5516387946D-01   41    2    0
 0.274015263482772D+03 0.000000000000000D+00 0.000000000000000D+00 0.274015263482772D+03
 0.274015263482772D+03 0.000000000000000D+00 0.000000000000000D+00 -.274015263482772D+03
 0.204798236093005D+03 -.893863457971397D+02 -.135707106722225D+01 -.135371921202142D+03
 0.112503091282328D+03 0.287314154068148D+01 0.432456367609872D+01 -.785033298682798D+02
 0.230729199590211D+03 0.865132042564583D+02 -.296749260887647D+01 0.213875251070422D+03
 0.000000000000000D+00 -.000000000000000D+00 -.000000000000000D+00 0.000000000000000D+00
 0.283094221000442D+03 0.000000000000000D+00 0.000000000000000D+00 0.283094221000442D+03
 0.274296579122609D+03 0.000000000000000D+00 0.000000000000000D+00 -.274296579122609D+03
 0.204373348391828D+03 -.884163250797495D+02 -.679663387544168D+00 -.135371921202142D+03
 0.112532914643767D+03 0.340663310310732D+01 0.469712405027611D+01 -.785033298682798D+02
 0.231133428246055D+03 0.876081393266772D+02 -.220285180067735D+01 0.213875251070422D+03
 0.935110884140207D+01 -.259844735003499D+01 -.181460886205459D+01 0.879764187783277D+01
0.213141708964D-05 0.000000000000D+00 0.000000000000D+00 0.228272259693D-05 0.000000000000D+00  6 21 2 25 24 1 21 2 0.47101533D-02 0.37730083D+00 0.25732647D+05 0.25732647D+05 0.25732647D+05 0.12219550D+01  1  2  2  1  6  1       21 0.534452156005D-02 0.100000000000D+01
0.670931632907D-07 0.112477969978D-06 -.430271701551D-08 0.228272259693D-05 0.000000000000D+00  6 21 2 25 24 1 21 4 0.47101533D-02 0.37730083D+00 0.25732647D+05 0.25732647D+05 0.25732647D+05 0.12219550D+01  1  2  3  1  6  1       21 0.251205466896D-03 0.100000000000D+01
0.187577062690D-06 0.000000000000D+00 0.000000000000D+00 0.228272259693D-05 0.000000000000D+00  6 21 2 25 24 1 21 4 0.47101533D-02 0.37730083D+00 0.25732647D+05 0.25732647D+05 0.25732647D+05 0.12219550D+01  1  2 15  1  6  1       21 0.702312743966D-03 0.100000000000D+01
0.760312413996D-06 0.000000000000D+00 0.000000000000D+00 0.227873656184D-05 0.000000000000D+00  6 21 2 25 24 1 21 4 0.48685896D-02 0.37730083D+00 0.26332203D+05 0.26332203D+05 0.26332203D+05 0.12208877D+01  1  2 12  1  6  1       21 0.268062011605D-02 0.100000000000D+01
0.506932427329D-06 0.000000000000D+00 0.000000000000D+00 0.227873656184D-05 0.000000000000D+00  6 21 2 25 24 1 21 4 0.49447639D-02 0.37730083D+00 0.26332203D+05 0.26332203D+05 0.26332203D+05 0.12208877D+01  1  2 12  1  6  1       21 0.174107545905D-02 0.100000000000D+01
-.183233835232D-03 0.000000000000D+00 0.000000000000D+00 0.228272259693D-05 0.000000000000D+00  6 21 2 25 24 1 21 4 0.47101533D-02 0.37730083D+00 0.25732647D+05 0.25732647D+05 0.25732647D+05 0.12219550D+01  1  2  4  1  6  1       21 -.686051139536D+00 0.100000000000D+01
-.436085745844D-03 0.000000000000D+00 -.204570135726D-04 0.228272259693D-05 0.000000000000D+00  6 21 2 25 24 1 21 4 0.48712967D-02 0.37730083D+00 0.25732647D+05 0.25732647D+05 0.25732647D+05 0.12219550D+01  1  2  5  1  6  1       21 -.154279977576D+01 0.100000000000D+01
0.435824934756D-03 0.000000000000D+00 0.204107881215D-04 0.228272259693D-05 0.000000000000D+00  6 21 2 25 24 1 21 4 0.47101533D-02 0.37730083D+00 0.25732647D+05 0.25732647D+05 0.25732647D+05 0.12219550D+01  1  2  6  1  6  1       21 0.163178483247D+01 0.100000000000D+01
0.182604460869D-03 0.000000000000D+00 0.000000000000D+00 0.228272259693D-05 0.260452606658D-05  6 21 2 25 24 1 21 4 0.48662149D-02 0.37768818D+00 0.26332203D+05 0.26332203D+05 0.26332203D+05 0.12208877D+01  1  2 11  1  6  1       21 0.642340978786D+00 0.100000000000D+01
0.298639273049D-07 0.000000000000D+00 0.000000000000D+00 0.227873656184D-05 0.000000000000D+00  6 -1 2 25 24 1 -1 4 0.48685896D-02 0.37730083D+00 0.26332203D+05 0.26332203D+05 0.26332203D+05 0.12208877D+01  1  2 12  4  6  1       21 0.601891250506D-05 0.100000000000D+01
0.298818827038D-07 0.000000000000D+00 0.000000000000D+00 0.227873656184D-05 0.000000000000D+00  6 -1 2 25 24 1 -1 4 0.49447639D-02 0.37730083D+00 0.26332203D+05 0.26332203D+05 0.26332203D+05 0.12208877D+01  1  2 12  4  6  1       21 0.588526556440D-05 0.100000000000D+01
-.327205296653D-05 0.000000000000D+00 -.160660612403D-06 0.228272259693D-05 0.000000000000D+00  6 -1 2 25 24 1 -1 4 0.48712967D-02 0.37730083D+00 0.25732647D+05 0.25732647D+05 0.25732647D+05 0.12219550D+01  1  2  5  4  6  1       21 -.661531915206D-03 0.100000000000D+01
0.322945857572D-05 0.000000000000D+00 0.000000000000D+00 0.228272259693D-05 0.456221480996D-07  6 -1 2 25 24 1 -1 4 0.48662149D-02 0.37768818D+00 0.26332203D+05 0.26332203D+05 0.26332203D+05 0.12208877D+01  1  2 11  4  6  1       21 0.649335455996D-03 0.100000000000D+01
0.298639273049D-07 0.000000000000D+00 0.000000000000D+00 0.227873656184D-05 0.000000000000D+00  6 1 2 25 24 1 1 4 0.48685896D-02 0.37730083D+00 0.26332203D+05 0.26332203D+05 0.26332203D+05 0.12208877D+01  1  2 12  5  6  1       21 0.676096714247D-05 0.100000000000D+01
0.298818827038D-07 0.000000000000D+00 0.000000000000D+00 0.227873656184D-05 0.000000000000D+00  6 1 2 25 24 1 1 4 0.49447639D-02 0.37730083D+00 0.26332203D+05 0.26332203D+05 0.26332203D+05 0.12208877D+01  1  2 12  5  6  1       21 0.662219944122D-05 0.100000000000D+01
-.327205296653D-05 0.000000000000D+00 -.160660612403D-06 0.228272259693D-05 0.000000000000D+00  6 1 2 25 24 1 1 4 0.48712967D-02 0.37730083D+00 0.25732647D+05 0.25732647D+05 0.25732647D+05 0.12219550D+01  1  2  5  5  6  1       21 -.743160638479D-03 0.100000000000D+01
0.246242855138D-05 0.000000000000D+00 0.000000000000D+00 0.228272259693D-05 0.149049455538D-07  6 1 2 25 24 1 1 4 0.48662149D-02 0.37768818D+00 0.26332203D+05 0.26332203D+05 0.26332203D+05 0.12208877D+01  1  2 11  5  6  1       21 0.556122636869D-03 0.100000000000D+01
0.298639273049D-07 0.000000000000D+00 0.000000000000D+00 0.227873656184D-05 0.000000000000D+00  6 -2 2 25 24 1 -2 4 0.48685896D-02 0.37730083D+00 0.26332203D+05 0.26332203D+05 0.26332203D+05 0.12208877D+01  1  2 12  6  6  1       21 0.588801524334D-05 0.100000000000D+01
0.298818827038D-07 0.000000000000D+00 0.000000000000D+00 0.227873656184D-05 0.000000000000D+00  6 -2 2 25 24 1 -2 4 0.49447639D-02 0.37730083D+00 0.26332203D+05 0.26332203D+05 0.26332203D+05 0.12208877D+01  1  2 12  6  6  1       21 0.575533649259D-05 0.100000000000D+01
-.327205296653D-05 0.000000000000D+00 -.160660612403D-06 0.228272259693D-05 0.000000000000D+00  6 -2 2 25 24 1 -2 4 0.48712967D-02 0.37730083D+00 0.25732647D+05 0.25732647D+05 0.25732647D+05 0.12219550D+01  1  2  5  6  6  1       21 -.647131998389D-03 0.100000000000D+01
0.255538091136D-05 0.000000000000D+00 0.000000000000D+00 0.228272259693D-05 0.307585134985D-07  6 -2 2 25 24 1 -2 4 0.48662149D-02 0.37768818D+00 0.26332203D+05 0.26332203D+05 0.26332203D+05 0.12208877D+01  1  2 11  6  6  1       21 0.502632423364D-03 0.100000000000D+01
0.298639273049D-07 0.000000000000D+00 0.000000000000D+00 0.227873656184D-05 0.000000000000D+00  6 2 2 25 24 1 2 4 0.48685896D-02 0.37730083D+00 0.26332203D+05 0.26332203D+05 0.26332203D+05 0.12208877D+01  1  2 12  7  6  1       21 0.726031686801D-05 0.100000000000D+01
0.298818827038D-07 0.000000000000D+00 0.000000000000D+00 0.227873656184D-05 0.000000000000D+00  6 2 2 25 24 1 2 4 0.49447639D-02 0.37730083D+00 0.26332203D+05 0.26332203D+05 0.26332203D+05 0.12208877D+01  1  2 12  7  6  1       21 0.711800329759D-05 0.100000000000D+01
-.327205296653D-05 0.000000000000D+00 -.160660612403D-06 0.228272259693D-05 0.000000000000D+00  6 2 2 25 24 1 2 4 0.48712967D-02 0.37730083D+00 0.25732647D+05 0.25732647D+05 0.25732647D+05 0.12219550D+01  1  2  5  7  6  1       21 -.798085174855D-03 0.100000000000D+01
0.259036951599D-05 0.000000000000D+00 0.000000000000D+00 0.228272259693D-05 0.313537654396D-07  6 2 2 25 24 1 2 4 0.48662149D-02 0.37768818D+00 0.26332203D+05 0.26332203D+05 0.26332203D+05 0.12208877D+01  1  2 11  7  6  1       21 0.628206788602D-03 0.100000000000D+01
0.298639273049D-07 0.000000000000D+00 0.000000000000D+00 0.227873656184D-05 0.000000000000D+00  6 -3 2 25 24 1 -3 4 0.48685896D-02 0.37730083D+00 0.26332203D+05 0.26332203D+05 0.26332203D+05 0.12208877D+01  1  2 12  8  6  1       21 0.432187263468D-05 0.100000000000D+01
0.298639273049D-07 0.000000000000D+00 0.000000000000D+00 0.227873656184D-05 0.000000000000D+00  6 -4 2 25 24 1 -4 4 0.48685896D-02 0.37730083D+00 0.26332203D+05 0.26332203D+05 0.26332203D+05 0.12208877D+01  1  2 12  8  6  1       21 0.386486900956D-05 0.100000000000D+01
0.298818827038D-07 0.000000000000D+00 0.000000000000D+00 0.227873656184D-05 0.000000000000D+00  6 -3 2 25 24 1 -3 4 0.49447639D-02 0.37730083D+00 0.26332203D+05 0.26332203D+05 0.26332203D+05 0.12208877D+01  1  2 12  8  6  1       21 0.421925839770D-05 0.100000000000D+01
0.298818827038D-07 0.000000000000D+00 0.000000000000D+00 0.227873656184D-05 0.000000000000D+00  6 -4 2 25 24 1 -4 4 0.49447639D-02 0.37730083D+00 0.26332203D+05 0.26332203D+05 0.26332203D+05 0.12208877D+01  1  2 12  8  6  1       21 0.377161673886D-05 0.100000000000D+01
-.327205296653D-05 0.000000000000D+00 -.160660612403D-06 0.228272259693D-05 0.000000000000D+00  6 -3 2 25 24 1 -3 4 0.48712967D-02 0.37730083D+00 0.25732647D+05 0.25732647D+05 0.25732647D+05 0.12219550D+01  1  2  5  8  6  1       21 -.474756172272D-03 0.100000000000D+01
-.327205296653D-05 0.000000000000D+00 -.160660612403D-06 0.228272259693D-05 0.000000000000D+00  6 -4 2 25 24 1 -4 4 0.48712967D-02 0.37730083D+00 0.25732647D+05 0.25732647D+05 0.25732647D+05 0.12219550D+01  1  2  5  8  6  1       21 -.424457701552D-03 0.100000000000D+01
0.255505959625D-05 0.000000000000D+00 0.000000000000D+00 0.228272259693D-05 0.307546459048D-07  6 -3 2 25 24 1 -3 4 0.48662149D-02 0.37768818D+00 0.26332203D+05 0.26332203D+05 0.26332203D+05 0.12208877D+01  1  2 11  8  6  1       21 0.368906077051D-03 0.100000000000D+01
0.255505959625D-05 0.000000000000D+00 0.000000000000D+00 0.228272259693D-05 0.307546459048D-07  6 -4 2 25 24 1 -4 4 0.48662149D-02 0.37768818D+00 0.26332203D+05 0.26332203D+05 0.26332203D+05 0.12208877D+01  1  2 11  8  6  1       21 0.329901275015D-03 0.100000000000D+01
0.298639273049D-07 0.000000000000D+00 0.000000000000D+00 0.227873656184D-05 0.000000000000D+00  6 3 2 25 24 1 3 4 0.48685896D-02 0.37730083D+00 0.26332203D+05 0.26332203D+05 0.26332203D+05 0.12208877D+01  1  2 12  9  6  1       21 0.432146118803D-05 0.100000000000D+01
0.298639273049D-07 0.000000000000D+00 0.000000000000D+00 0.227873656184D-05 0.000000000000D+00  6 4 2 25 24 1 4 4 0.48685896D-02 0.37730083D+00 0.26332203D+05 0.26332203D+05 0.26332203D+05 0.12208877D+01  1  2 12  9  6  1       21 0.386486900956D-05 0.100000000000D+01
0.298818827038D-07 0.000000000000D+00 0.000000000000D+00 0.227873656184D-05 0.000000000000D+00  6 3 2 25 24 1 3 4 0.49447639D-02 0.37730083D+00 0.26332203D+05 0.26332203D+05 0.26332203D+05 0.12208877D+01  1  2 12  9  6  1       21 0.421885355155D-05 0.100000000000D+01
0.298818827038D-07 0.000000000000D+00 0.000000000000D+00 0.227873656184D-05 0.000000000000D+00  6 4 2 25 24 1 4 4 0.49447639D-02 0.37730083D+00 0.26332203D+05 0.26332203D+05 0.26332203D+05 0.12208877D+01  1  2 12  9  6  1       21 0.377161673886D-05 0.100000000000D+01
-.327205296653D-05 0.000000000000D+00 -.160660612403D-06 0.228272259693D-05 0.000000000000D+00  6 3 2 25 24 1 3 4 0.48712967D-02 0.37730083D+00 0.25732647D+05 0.25732647D+05 0.25732647D+05 0.12219550D+01  1  2  5  9  6  1       21 -.474710877872D-03 0.100000000000D+01
-.327205296653D-05 0.000000000000D+00 -.160660612403D-06 0.228272259693D-05 0.000000000000D+00  6 4 2 25 24 1 4 4 0.48712967D-02 0.37730083D+00 0.25732647D+05 0.25732647D+05 0.25732647D+05 0.12219550D+01  1  2  5  9  6  1       21 -.424457701552D-03 0.100000000000D+01
0.255505959625D-05 0.000000000000D+00 0.000000000000D+00 0.228272259693D-05 0.307546459048D-07  6 3 2 25 24 1 3 4 0.48662149D-02 0.37768818D+00 0.26332203D+05 0.26332203D+05 0.26332203D+05 0.12208877D+01  1  2 11  9  6  1       21 0.368870965530D-03 0.100000000000D+01
0.255505959625D-05 0.000000000000D+00 0.000000000000D+00 0.228272259693D-05 0.307546459048D-07  6 4 2 25 24 1 4 4 0.48662149D-02 0.37768818D+00 0.26332203D+05 0.26332203D+05 0.26332203D+05 0.12208877D+01  1  2 11  9  6  1       21 0.329901275015D-03 0.100000000000D+01
  </mgrwgt>
  </event>
  <event>
  5     66 0.46027262E-03 0.20861757E+02 0.75467711E-02 0.12210749E+00
       21 -1    0    0  501  502 0.00000000E+00 0.00000000E+00 0.10189003E+03 0.10189279E+03 0.75000000E+00 0.0000E+00 0.9000E+01
        2 -1    0    0  502    0 0.00000000E+00 0.00000000E+00 -.33415226E+03 0.33415242E+03 0.32000000E+00 0.0000E+00 0.9000E+01
       25  1    1    2    0    0 -.48187186E+02 0.30663988E+02 -.22939877E+03 0.26741556E+03 0.12500000E+03 0.0000E+00 0.9000E+01
       24  1    1    2    0    0 0.69040744E+02 -.31244761E+02 -.46791939E+02 0.11999817E+03 0.80419002E+02 0.0000E+00 0.9000E+01
        1  1    1    2  501    0 -.20853558E+02 0.58077259E+00 0.43928474E+02 0.48631486E+02 0.32000000E+00 0.0000E+00 0.9000E+01
#aMCatNLO 1  0  0  1  2 0.80238845D+01 0.00000000D+00  -5  6  0 0.00000000D+00 0.00000000D+00 0.00000000D+00 0.00000000D+00 0.00000000D+00
  <mgrwgt>
 0.1666349762D+00   13    2    0
 0.184519431495063D+03 0.000000000000000D+00 0.000000000000000D+00 0.184519431495063D+03
 0.184519431495063D+03 0.000000000000000D+00 0.000000000000000D+00 -.184519431495063D+03
 0.171593460691719D+03 -.481871178876913D+02 0.306639862060373D+02 -.102747444599825D+03
 0.112336748731047D+03 0.690407891672583D+02 -.312447619581103D+02 0.202352030490200D+02
 0.851086535673595D+02 -.208536712795670D+02 0.580775752073058D+00 0.825122415508049D+02
 0.000000000000000D+00 -.000000000000000D+00 0.000000000000000D+00 -.000000000000000D+00
 0.188507187322668D+03 0.000000000000000D+00 0.000000000000000D+00 0.188507187322668D+03
 0.188643945463363D+03 0.000000000000000D+00 0.000000000000000D+00 -.188643945463363D+03
 0.170519044787550D+03 -.444911129157252D+02 0.302530681912504D+02 -.102747444599825D+03
 0.113930302654617D+03 0.714852603091185D+02 -.315165357345083D+02 0.202352030490200D+02
 0.846767355146158D+02 -.190193985413194D+02 0.376843203849967D+00 0.825122415508049D+02
 0.802504982924905D+01 -.797474885207388D+01 0.886624339407862D+00 -.136758140694358D+00
0.729943583649D-05 0.000000000000D+00 0.000000000000D+00 0.336654280970D-05 0.000000000000D+00  6 21 2 25 24 1 21 2 0.15675614D-01 0.51408265D-01 0.18062284D+05 0.18062284D+05 0.18062284D+05 0.12387283D+01  1  2  2  1  6  1       21 0.489539886059D-01 0.100000000000D+01
0.140214959688D-05 0.385201811914D-06 -.147354578932D-07 0.336654280970D-05 0.000000000000D+00  6 21 2 25 24 1 21 4 0.15675614D-01 0.51408265D-01 0.18062284D+05 0.18062284D+05 0.18062284D+05 0.12387283D+01  1  2  3  1  6  1       21 0.144293009851D-01 0.100000000000D+01
0.666272762387D-06 0.000000000000D+00 0.000000000000D+00 0.336654280970D-05 0.000000000000D+00  6 21 2 25 24 1 21 4 0.15675614D-01 0.51408265D-01 0.18062284D+05 0.18062284D+05 0.18062284D+05 0.12387283D+01  1  2 15  1  6  1       21 0.685650821281D-02 0.100000000000D+01
0.125019175677D-04 0.000000000000D+00 0.000000000000D+00 0.335409179099D-05 0.000000000000D+00  6 21 2 25 24 1 21 4 0.16185778D-01 0.51408265D-01 0.18941062D+05 0.18941062D+05 0.18941062D+05 0.12364355D+01  1  2 12  1  6  1       21 0.120514509061D+00 0.100000000000D+01
-.247760465808D-05 0.000000000000D+00 0.000000000000D+00 0.336654280970D-05 0.000000000000D+00  6 21 2 25 24 1 21 4 0.15675614D-01 0.51408265D-01 0.18062284D+05 0.18062284D+05 0.18062284D+05 0.12387283D+01  1  2  4  1  6  1       21 -.254966398827D-01 0.100000000000D+01
0.263191242603D-06 0.000000000000D+00 0.000000000000D+00 0.335409179099D-05 0.000000000000D+00  6 -1 2 25 24 1 -1 4 0.16185778D-01 0.51408265D-01 0.18941062D+05 0.18941062D+05 0.18941062D+05 0.12364355D+01  1  2 12  4  6  1       21 0.188250130123D-03 0.100000000000D+01
0.263191242603D-06 0.000000000000D+00 0.000000000000D+00 0.335409179099D-05 0.000000000000D+00  6 1 2 25 24 1 1 4 0.16185778D-01 0.51408265D-01 0.18941062D+05 0.18941062D+05 0.18941062D+05 0.12364355D+01  1  2 12  5  6  1       21 0.265136377639D-03 0.100000000000D+01
0.263191242603D-06 0.000000000000D+00 0.000000000000D+00 0.335409179099D-05 0.000000000000D+00  6 -2 2 25 24 1 -2 4 0.16185778D-01 0.51408265D-01 0.18941062D+05 0.18941062D+05 0.18941062D+05 0.12364355D+01  1  2 12  6  6  1       21 0.175047770474D-03 0.100000000000D+01
0.263191242603D-06 0.000000000000D+00 0.000000000000D+00 0.335409179099D-05 0.000000000000D+00  6 2 2 25 24 1 2 4 0.16185778D-01 0.51408265D-01 0.18941062D+05 0.18941062D+05 0.18941062D+05 0.12364355D+01  1  2 12  7  6  1       21 0.318316399381D-03 0.100000000000D+01
0.263191242603D-06 0.000000000000D+00 0.000000000000D+00 0.335409179099D-05 0.000000000000D+00  6 -3 2 25 24 1 -3 4 0.16185778D-01 0.51408265D-01 0.18941062D+05 0.18941062D+05 0.18941062D+05 0.12364355D+01  1  2 12  8  6  1       21 0.115828862060D-03 0.100000000000D+01
0.263191242603D-06 0.000000000000D+00 0.000000000000D+00 0.335409179099D-05 0.000000000000D+00  6 -4 2 25 24 1 -4 4 0.16185778D-01 0.51408265D-01 0.18941062D+05 0.18941062D+05 0.18941062D+05 0.12364355D+01  1  2 12  8  6  1       21 0.994572239320D-04 0.100000000000D+01
0.263191242603D-06 0.000000000000D+00 0.000000000000D+00 0.335409179099D-05 0.000000000000D+00  6 3 2 25 24 1 3 4 0.16185778D-01 0.51408265D-01 0.18941062D+05 0.18941062D+05 0.18941062D+05 0.12364355D+01  1  2 12  9  6  1       21 0.115815187614D-03 0.100000000000D+01
0.263191242603D-06 0.000000000000D+00 0.000000000000D+00 0.335409179099D-05 0.000000000000D+00  6 4 2 25 24 1 4 4 0.16185778D-01 0.51408265D-01 0.18941062D+05 0.18941062D+05 0.18941062D+05 0.12364355D+01  1  2 12  9  6  1       21 0.994572239320D-04 0.100000000000D+01
  </mgrwgt>
  </event>
  <event>
  5     66 0.46027262E-03 0.21074703E+02 0.75467711E-02 0.12293927E+00
       21 -1    0    0  501  502 0.00000000E+00 0.00000000E+00 0.26895848E+02 0.26906303E+02 0.75000000E+00 0.0000E+00 0.9000E+01
        2 -1    0    0  502    0 -.00000000E+00 -.00000000E+00 -.97714007E+03 0.97714012E+03 0.32000000E+00 0.0000E+00 0.9000E+01
       25  1    1    2    0    0 -.55792198E+02 -.33328947E+02 -.44607756E+03 0.46779673E+03 0.12500000E+03 0.0000E+00 0.9000E+01
       24  1    1    2    0    0 0.41692258E+02 0.17665990E+02 -.50668610E+03 0.51502267E+03 0.80419002E+02 0.0000E+00 0.9000E+01
        1  1    1    2  501    0 0.14099940E+02 0.15662957E+02 0.25194423E+01 0.21227023E+02 0.32000000E+00 0.0000E+00 0.9000E+01
#aMCatNLO 1  0  0  5  2 0.35035129D+01 0.00000000D+00  -5  6  0 0.00000000D+00 0.00000000D+00 0.00000000D+00 0.00000000D+00 0.00000000D+00
  <mgrwgt>
 0.2780708227D+00    7    2    0
 0.162130458359140D+03 0.000000000000000D+00 0.000000000000000D+00 0.162130458359140D+03
 0.162130458359140D+03 -.000000000000000D+00 -.000000000000000D+00 -.162130458359140D+03
 0.141265950891220D+03 -.557922572558410D+02 -.333290118638770D+02 -.103667680439080D+02
 0.109884239748571D+03 0.416922124641773D+02 0.176659389660810D+02 -.596406255084527D+02
 0.731107260784881D+02 0.141000447916638D+02 0.156630728977961D+02 0.700073935523607D+02
 0.000000000000000D+00 0.000000000000000D+00 0.000000000000000D+00 0.000000000000000D+00
 0.162130458359140D+03 0.000000000000000D+00 0.000000000000000D+00 0.162130458359140D+03
 0.162130458359140D+03 -.000000000000000D+00 -.000000000000000D+00 -.162130458359140D+03
 0.141165644322070D+03 -.556931712878870D+02 -.332189419483452D+02 -.987480149652673D+01
 0.109720214415143D+03 0.417692566769234D+02 0.177515237382165D+02 -.592580973248659D+02
 0.619346414724663D+01 0.220807351134551D+01 -.215359056681799D+01 0.537079669902296D+01
 0.671815938338191D+02 0.117158410996181D+02 0.176210087769467D+02 0.637621021223697D+02
0.409903793606D-05 0.000000000000D+00 0.000000000000D+00 0.382408555947D-05 0.000000000000D+00  6 21 2 25 24 1 21 2 0.41386310D-02 0.15033005D+00 0.16160802D+05 0.16160802D+05 0.16160802D+05 0.12441489D+01  1  2  2  3  6  5        1 0.806121696233D-01 0.100000000000D+01
0.696477047561D-06 0.216312174727D-06 -.827477660772D-08 0.382408555947D-05 0.000000000000D+00  6 21 2 25 24 1 21 4 0.41386310D-02 0.15033005D+00 0.16160802D+05 0.16160802D+05 0.16160802D+05 0.12441489D+01  1  2  3  3  6  5        1 0.212016775468D-01 0.100000000000D+01
0.404356242664D-06 0.000000000000D+00 0.000000000000D+00 0.382408555947D-05 0.000000000000D+00  6 21 2 25 24 1 21 4 0.41386310D-02 0.15033005D+00 0.16160802D+05 0.16160802D+05 0.16160802D+05 0.12441489D+01  1  2 15  3  6  5        1 0.123091359594D-01 0.100000000000D+01
-.342565542946D-05 0.000000000000D+00 0.000000000000D+00 0.382408555947D-05 0.000000000000D+00  6 21 2 25 24 1 21 4 0.41386310D-02 0.15033005D+00 0.16160802D+05 0.16160802D+05 0.16160802D+05 0.12441489D+01  1  2  4  3  6  5        1 -.104281457740D+00 0.100000000000D+01
-.214343749041D-05 0.000000000000D+00 0.000000000000D+00 0.382408555947D-05 0.000000000000D+00  6 21 2 25 24 1 21 4 0.41386310D-02 0.15033005D+00 0.16160802D+05 0.16160802D+05 0.16160802D+05 0.12441489D+01  1  2  5  3  6  5        1 -.652490569107D-01 0.100000000000D+01
0.466304534705D-05 0.000000000000D+00 -.000000000000D+00 0.382408555947D-05 0.000000000000D+00  6 21 2 25 24 1 21 4 0.41386310D-02 0.15033005D+00 0.16160802D+05 0.16160802D+05 0.16160802D+05 0.12441489D+01  1  2  6  3  6  5        1 0.141949234624D+00 0.100000000000D+01
0.631481173046D-05 0.000000000000D+00 0.000000000000D+00 0.382408555947D-05 0.467062875502D-06  6 21 2 25 24 1 21 4 0.41386310D-02 0.15033005D+00 0.16564511D+05 0.16564511D+05 0.16564511D+05 0.12429402D+01  1  2 11  3  6  5        1 0.191529119579D+00 0.100000000000D+01
  </mgrwgt>
  </event>
  <event>
  5     66 -.46027262E-03 0.24003791E+02 0.75467711E-02 0.11948457E+00
       21 -1    0    0  501  502 0.00000000E+00 0.00000000E+00 0.20772852E+02 0.20786386E+02 0.75000000E+00 0.0000E+00 0.9000E+01
        2 -1    0    0  502    0 0.00000000E+00 0.00000000E+00 -.93183931E+03 0.93183936E+03 0.32000000E+00 0.0000E+00 0.9000E+01
       25  1    1    2    0    0 0.72440094E+02 0.43493216E+02 -.44414832E+03 0.46907564E+03 0.12500000E+03 0.0000E+00 0.9000E+01
       24  1    1    2    0    0 -.48962552E+02 -.38503787E+02 -.37959502E+03 0.39298788E+03 0.80419002E+02 0.0000E+00 0.9000E+01
        1  1    1    2  501    0 -.23477542E+02 -.49894289E+01 -.87323114E+02 0.90562233E+02 0.32000000E+00 0.0000E+00 0.9000E+01
#aMCatNLO 1  0  0  1  1 0.31032694D+02 0.00000000D+00  -5  6  0 0.00000000D+00 0.00000000D+00 0.00000000D+00 0.00000000D+00 0.00000000D+00
  <mgrwgt>
 -.5354857067D+00   14    2    0
 0.139152551569521D+03 0.000000000000000D+00 0.000000000000000D+00 0.139152551569521D+03
 0.139152551569521D+03 0.000000000000000D+00 0.000000000000000D+00 -.139152551569521D+03
 0.151650364078046D+03 0.724412194963812D+02 0.434934548563609D+02 0.152781552400423D+02
 0.102527607695995D+03 -.489617909673951D+02 -.385036251288857D+02 -.128416612123484D+02
 0.241271313649996D+02 -.234794285289861D+02 -.498982972747511D+01 -.243649402769388D+01
 0.000000000000000D+00 -.000000000000000D+00 -.000000000000000D+00 0.000000000000000D+00
 0.272313077307508D+03 0.000000000000000D+00 0.000000000000000D+00 0.272313077307508D+03
 0.141834769076200D+03 0.000000000000000D+00 0.000000000000000D+00 -.141834769076200D+03
 0.161046007150641D+03 0.818683196642139D+02 0.580945146032192D+02 0.152781552400423D+02
 0.965947825401031D+02 -.429586937423200D+02 -.292057944398042D+02 -.128416612123484D+02
 0.223891346514097D+02 -.220770665589793D+02 -.281779691290294D+01 -.243649402769388D+01
 0.134117922041554D+03 -.168325593629146D+02 -.260709232505120D+02 0.130478308231308D+03
0.139563993646D-05 0.000000000000D+00 0.000000000000D+00 0.570524290782D-06 0.000000000000D+00  6 21 2 25 24 1 21 2 0.31968687D-02 0.14336094D+00 0.19127277D+05 0.19127277D+05 0.19127277D+05 0.12359650D+01  1  2  2  1  6  1       21 0.443466152223D-01 0.100000000000D+01
0.498019769111D-07 0.736499428649D-07 -.281739493002D-08 0.570524290782D-06 0.000000000000D+00  6 21 2 25 24 1 21 4 0.31968687D-02 0.14336094D+00 0.19127277D+05 0.19127277D+05 0.19127277D+05 0.12359650D+01  1  2  3  1  6  1       21 0.241738602584D-02 0.100000000000D+01
0.152102294476D-06 0.000000000000D+00 0.000000000000D+00 0.570524290782D-06 0.000000000000D+00  6 21 2 25 24 1 21 4 0.31968687D-02 0.14336094D+00 0.19127277D+05 0.19127277D+05 0.19127277D+05 0.12359650D+01  1  2 15  1  6  1       21 0.738303946890D-02 0.100000000000D+01
-.164306064636D-04 0.000000000000D+00 0.000000000000D+00 0.570524290782D-06 0.000000000000D+00  6 21 2 25 24 1 21 4 0.31968687D-02 0.14336094D+00 0.19127277D+05 0.19127277D+05 0.19127277D+05 0.12359650D+01  1  2  4  1  6  1       21 -.797540999869D+00 0.100000000000D+01
-.390832287533D-04 0.000000000000D+00 -.198209156719D-05 0.570524290782D-06 0.000000000000D+00  6 21 2 25 24 1 21 4 0.63599387D-02 0.14336094D+00 0.19127277D+05 0.19127277D+05 0.19127277D+05 0.12359650D+01  1  2  5  1  6  1       21 -.599696367956D+00 0.100000000000D+01
0.179166202306D-04 0.000000000000D+00 0.890300751850D-06 0.570524290782D-06 0.000000000000D+00  6 21 2 25 24 1 21 4 0.31968687D-02 0.14336094D+00 0.19127277D+05 0.19127277D+05 0.19127277D+05 0.12359650D+01  1  2  6  1  6  1       21 0.869672050431D+00 0.100000000000D+01
-.959132205291D-05 0.000000000000D+00 -.485763271539D-06 0.570524290782D-06 0.000000000000D+00  6 -1 2 25 24 1 -1 4 0.63599387D-02 0.14336094D+00 0.19127277D+05 0.19127277D+05 0.19127277D+05 0.12359650D+01  1  2  5  4  6  1       21 -.884575157156D-02 0.100000000000D+01
-.959132205291D-05 0.000000000000D+00 -.485763271539D-06 0.570524290782D-06 0.000000000000D+00  6 1 2 25 24 1 1 4 0.63599387D-02 0.14336094D+00 0.19127277D+05 0.19127277D+05 0.19127277D+05 0.12359650D+01  1  2  5  5  6  1       21 -.102752168298D-01 0.100000000000D+01
-.959132205291D-05 0.000000000000D+00 -.485763271539D-06 0.570524290782D-06 0.000000000000D+00  6 -2 2 25 24 1 -2 4 0.63599387D-02 0.14336094D+00 0.19127277D+05 0.19127277D+05 0.19127277D+05 0.12359650D+01  1  2  5  6  6  1       21 -.859530437227D-02 0.100000000000D+01
-.959132205291D-05 0.000000000000D+00 -.485763271539D-06 0.570524290782D-06 0.000000000000D+00  6 2 2 25 24 1 2 4 0.63599387D-02 0.14336094D+00 0.19127277D+05 0.19127277D+05 0.19127277D+05 0.12359650D+01  1  2  5  7  6  1       21 -.112341044372D-01 0.100000000000D+01
-.959132205291D-05 0.000000000000D+00 -.485763271539D-06 0.570524290782D-06 0.000000000000D+00  6 -3 2 25 24 1 -3 4 0.63599387D-02 0.14336094D+00 0.19127277D+05 0.19127277D+05 0.19127277D+05 0.12359650D+01  1  2  5  8  6  1       21 -.613168994329D-02 0.100000000000D+01
-.959132205291D-05 0.000000000000D+00 -.485763271539D-06 0.570524290782D-06 0.000000000000D+00  6 -4 2 25 24 1 -4 4 0.63599387D-02 0.14336094D+00 0.19127277D+05 0.19127277D+05 0.19127277D+05 0.12359650D+01  1  2  5  8  6  1       21 -.542717606754D-02 0.100000000000D+01
-.959132205291D-05 0.000000000000D+00 -.485763271539D-06 0.570524290782D-06 0.000000000000D+00  6 3 2 25 24 1 3 4 0.63599387D-02 0.14336094D+00 0.19127277D+05 0.19127277D+05 0.19127277D+05 0.12359650D+01  1  2  5  9  6  1       21 -.613101072041D-02 0.100000000000D+01
-.959132205291D-05 0.000000000000D+00 -.485763271539D-06 0.570524290782D-06 0.000000000000D+00  6 4 2 25 24 1 4 4 0.63599387D-02 0.14336094D+00 0.19127277D+05 0.19127277D+05 0.19127277D+05 0.12359650D+01  1  2  5  9  6  1       21 -.542717606754D-02 0.100000000000D+01
  </mgrwgt>
  </event>
  <event>
  5     66 0.46027262E-03 0.18214173E+03 0.75467711E-02 0.11070631E+00
       21 -1    0    0  501  502 0.00000000E+00 0.00000000E+00 0.39360790E+02 0.39367935E+02 0.75000000E+00 0.0000E+00 0.9000E+01
        2 -1    0    0  502    0 0.00000000E+00 0.00000000E+00 -.14299091E+04 0.14299092E+04 0.32000000E+00 0.0000E+00 0.9000E+01
       25  1    1    2    0    0 -.36455058E+02 -.57281242E+02 -.57839716E+03 0.59563276E+03 0.12500000E+03 0.0000E+00 0.9000E+01
       24  1    1    2    0    0 -.66807258E+02 -.92760229E+02 -.34419762E+03 0.37149278E+03 0.80419002E+02 0.0000E+00 0.9000E+01
        1  1    1    2  501    0 0.10326232E+03 0.15004147E+03 -.46795355E+03 0.50215155E+03 0.32000000E+00 0.0000E+00 0.9000E+01
#aMCatNLO 1  0  0  1  1 0.53189667D+02 0.00000000D+00  -5  6  0 0.00000000D+00 0.00000000D+00 0.00000000D+00 0.00000000D+00 0.00000000D+00
  <mgrwgt>
 0.2835830080D-01    4    2    0
 0.237250138453019D+03 0.000000000000000D+00 0.000000000000000D+00 0.237250138453019D+03
 0.237250138453019D+03 0.000000000000000D+00 0.000000000000000D+00 -.237250138453019D+03
 0.149336871497682D+03 -.364551073362083D+02 -.572813139495704D+02 -.454574241464641D+02
 0.141627820359782D+03 -.668073048299460D+02 -.927602970950616D+02 0.228808839358669D+02
 0.183535585048573D+03 0.103262412166154D+03 0.150041611044632D+03 0.225765402105971D+02
 0.000000000000000D+00 0.000000000000000D+00 -.000000000000000D+00 -.000000000000000D+00
 0.253626671126980D+03 0.000000000000000D+00 0.000000000000000D+00 0.253626671126980D+03
 0.286234855900338D+03 0.000000000000000D+00 0.000000000000000D+00 -.286234855900338D+03
 0.147913083798407D+03 -.470125171658936D+02 -.444603888697525D+02 -.454574241464641D+02
 0.139248406948155D+03 -.767831698898818D+02 -.806456003462263D+02 0.228808839358669D+02
 0.190310658706934D+03 0.899845362967234D+02 0.166166271779354D+03 0.225765402105971D+02
 0.623893775738226D+02 0.338111507590520D+02 -.410602825633753D+02 -.326081847733577D+02
0.798271428346D-05 0.000000000000D+00 0.000000000000D+00 0.202665620367D-06 0.000000000000D+00  6 21 2 25 24 1 21 2 0.60560586D-02 0.21998657D+00 0.53860957D+05 0.53860957D+05 0.53860957D+05 0.11890957D+01  1  2  2  1  6  1       21 0.415492471888D-01 0.100000000000D+01
-.749196321377D-06 0.421259406187D-06 -.161148002164D-07 0.202665620367D-06 0.000000000000D+00  6 21 2 25 24 1 21 4 0.60560586D-02 0.21998657D+00 0.53860957D+05 0.53860957D+05 0.53860957D+05 0.11890957D+01  1  2  3  1  6  1       21 -.551368331422D-02 0.100000000000D+01
0.872318035874D-06 0.000000000000D+00 0.000000000000D+00 0.202665620367D-06 0.000000000000D+00  6 21 2 25 24 1 21 4 0.60560586D-02 0.21998657D+00 0.53860957D+05 0.53860957D+05 0.53860957D+05 0.11890957D+01  1  2 15  1  6  1       21 0.641979313279D-02 0.100000000000D+01
-.191550041107D-05 0.000000000000D+00 0.000000000000D+00 0.202665620367D-06 0.000000000000D+00  6 21 2 25 24 1 21 4 0.60560586D-02 0.21998657D+00 0.53860957D+05 0.53860957D+05 0.53860957D+05 0.11890957D+01  1  2  4  1  6  1       21 -.140970562101D-01 0.100000000000D+01
  </mgrwgt>
  </event>
  <event>
  5     66 -.46027262E-03 0.20731002E+02 0.75467711E-02 0.11112758E+00
       21 -1    0    0  501  502 0.00000000E+00 0.00000000E+00 0.15013007E+02 0.15031729E+02 0.75000000E+00 0.0000E+00 0.9000E+01
        2 -1    0    0  502    0 0.00000000E+00 0.00000000E+00 -.25612235E+04 0.25612236E+04 0.32000000E+00 0.0000E+00 0.9000E+01
       25  1    1    2    0    0 -.44758656E+02 -.13270460E+03 -.13001008E+04 0.13135832E+04 0.12500000E+03 0.0000E+00 0.9000E+01
       24  1    1    2    0    0 0.61453352E+02 0.12041470E+03 -.12158963E+04 0.12260291E+04 0.80419002E+02 0.0000E+00 0.9000E+01
        1  1    1    2  501    0 -.16694696E+02 0.12289910E+02 -.30213424E+02 0.36642983E+02 0.32000000E+00 0.0000E+00 0.9000E+01
#aMCatNLO 1  0  0  1  1 0.75487110D+02 0.00000000D+00  -5  6  0 0.00000000D+00 0.00000000D+00 0.00000000D+00 0.00000000D+00 0.00000000D+00
  <mgrwgt>
 -.8659263359D+00   12    2    0
 0.196152516643675D+03 0.000000000000000D+00 0.000000000000000D+00 0.196152516643675D+03
 0.196152516643675D+03 0.000000000000000D+00 0.000000000000000D+00 -.196152516643675D+03
 0.188107363561493D+03 -.447584490643831D+02 -.132704757004144D+03 -.120627083143780D+02
 0.159661184277612D+03 0.614535273993337D+02 0.120414565999925D+03 -.273545988051020D+02
 0.445364854482448D+02 -.166950783349506D+02 0.122901910042187D+02 0.394173071194800D+02
 0.000000000000000D+00 -.000000000000000D+00 -.000000000000000D+00 0.000000000000000D+00
 0.707548847780938D+03 0.000000000000000D+00 0.000000000000000D+00 0.707548847780938D+03
 0.211857915478447D+03 0.000000000000000D+00 0.000000000000000D+00 -.211857915478447D+03
 0.155433084873422D+03 -.404249075503568D+02 -.821873578534789D+02 -.120627083143780D+02
 0.204559019591547D+03 0.660479307102240D+02 0.173972909715834D+03 -.273545988051020D+02
 0.497843759861510D+02 -.155052814113953D+02 0.261600122349452D+02 0.394173071194800D+02
 0.509630282808265D+03 -.101177417484719D+02 -.117945564097300D+03 0.495690932302491D+03
0.166472292246D-04 0.000000000000D+00 0.000000000000D+00 0.142661391460D-05 0.000000000000D+00  6 21 2 25 24 1 21 2 0.23111351D-02 0.39403583D+00 0.33443560D+05 0.33443560D+05 0.33443560D+05 0.12099765D+01  1  2  2  1  6  1       21 0.115430053911D+00 0.100000000000D+01
0.273902127190D-05 0.878498421566D-06 -.336059595252D-07 0.142661391460D-05 0.000000000000D+00  6 21 2 25 24 1 21 4 0.23111351D-02 0.39403583D+00 0.33443560D+05 0.33443560D+05 0.33443560D+05 0.12099765D+01  1  2  3  1  6  1       21 0.278052116370D-01 0.100000000000D+01
0.160364850988D-05 0.000000000000D+00 0.000000000000D+00 0.142661391460D-05 0.000000000000D+00  6 21 2 25 24 1 21 4 0.23111351D-02 0.39403583D+00 0.33443560D+05 0.33443560D+05 0.33443560D+05 0.12099765D+01  1  2 15  1  6  1       21 0.162794596253D-01 0.100000000000D+01
-.872256282849D-03 0.000000000000D+00 -.732687367727D-04 0.142661391460D-05 0.000000000000D+00  6 21 2 25 24 1 21 4 0.91700263D-02 0.39403583D+00 0.33443560D+05 0.33443560D+05 0.33443560D+05 0.12099765D+01  1  2  5  1  6  1       21 -.863416119514D+00 0.100000000000D+01
-.350499003736D-03 0.000000000000D+00 -.288402007413D-04 0.142661391460D-05 0.000000000000D+00  6 -1 2 25 24 1 -1 4 0.91700263D-02 0.39403583D+00 0.33443560D+05 0.33443560D+05 0.33443560D+05 0.12099765D+01  1  2  5  4  6  1       21 -.227926618361D-01 0.100000000000D+01
-.350499003736D-03 0.000000000000D+00 -.288402007413D-04 0.142661391460D-05 0.000000000000D+00  6 1 2 25 24 1 1 4 0.91700263D-02 0.39403583D+00 0.33443560D+05 0.33443560D+05 0.33443560D+05 0.12099765D+01  1  2  5  5  6  1       21 -.280668302217D-01 0.100000000000D+01
-.350499003736D-03 0.000000000000D+00 -.288402007413D-04 0.142661391460D-05 0.000000000000D+00  6 -2 2 25 24 1 -2 4 0.91700263D-02 0.39403583D+00 0.33443560D+05 0.33443560D+05 0.33443560D+05 0.12099765D+01  1  2  5  6  6  1       21 -.218770518350D-01 0.100000000000D+01
-.350499003736D-03 0.000000000000D+00 -.288402007413D-04 0.142661391460D-05 0.000000000000D+00  6 2 2 25 24 1 2 4 0.91700263D-02 0.39403583D+00 0.33443560D+05 0.33443560D+05 0.33443560D+05 0.12099765D+01  1  2  5  7  6  1       21 -.316355035025D-01 0.100000000000D+01
-.350499003736D-03 0.000000000000D+00 -.288402007413D-04 0.142661391460D-05 0.000000000000D+00  6 -3 2 25 24 1 -3 4 0.91700263D-02 0.39403583D+00 0.33443560D+05 0.33443560D+05 0.33443560D+05 0.12099765D+01  1  2  5  8  6  1       21 -.153307359073D-01 0.100000000000D+01
-.350499003736D-03 0.000000000000D+00 -.288402007413D-04 0.142661391460D-05 0.000000000000D+00  6 -4 2 25 24 1 -4 4 0.91700263D-02 0.39403583D+00 0.33443560D+05 0.33443560D+05 0.33443560D+05 0.12099765D+01  1  2  5  8  6  1       21 -.134966219011D-01 0.100000000000D+01
-.350499003736D-03 0.000000000000D+00 -.288402007413D-04 0.142661391460D-05 0.000000000000D+00  6 3 2 25 24 1 3 4 0.91700263D-02 0.39403583D+00 0.33443560D+05 0.33443560D+05 0.33443560D+05 0.12099765D+01  1  2  5  9  6  1       21 -.153289144202D-01 0.100000000000D+01
-.350499003736D-03 0.000000000000D+00 -.288402007413D-04 0.142661391460D-05 0.000000000000D+00  6 4 2 25 24 1 4 4 0.91700263D-02 0.39403583D+00 0.33443560D+05 0.33443560D+05 0.33443560D+05 0.12099765D+01  1  2  5  9  6  1       21 -.134966219011D-01 0.100000000000D+01
  </mgrwgt>
  </event>
  <event>
  6     66 0.46027262E-03 0.27759098E+02 0.75467711E-02 0.11802956E+00
       21 -1    0    0  501  502 0.00000000E+00 0.00000000E+00 0.49658891E+02 0.49664554E+02 0.75000000E+00 0.0000E+00 0.9000E+01
        2 -1    0    0  503    0 0.00000000E+00 0.00000000E+00 -.20741202E+04 0.20741202E+04 0.32000000E+00 0.0000E+00 0.9000E+01
       25  1    1    2    0    0 -.31629200E+02 0.56190264E+02 -.11214612E+03 0.17988748E+03 0.12500000E+03 0.0000E+00 0.9000E+01
       24  1    1    2    0    0 0.24641499E+02 -.29344835E+02 -.15995898E+03 0.18309127E+03 0.80419002E+02 0.0000E+00 0.9000E+01
        1  1    1    2  501    0 -.44845053E+02 -.29559193E+02 -.18625857E+03 0.19384834E+03 0.32000000E+00 0.0000E+00 0.9000E+01
       21  1    1    2  503  502 0.51832754E+02 0.27137633E+01 -.15660976E+04 0.15669577E+04 0.75000000E+00 0.0000E+00 0.9000E+01
#aMCatNLO 2  0  0  2  1 0.67484227D+01 0.00000000D+00  -5  6  0 0.00000000D+00 0.00000000D+00 0.00000000D+00 0.00000000D+00 0.00000000D+00
  <mgrwgt>
 0.7072087783D-01    1    2    0
 0.155936815890468D+03 0.000000000000000D+00 0.000000000000000D+00 0.155936815890468D+03
 0.155936815890468D+03 0.000000000000000D+00 0.000000000000000D+00 -.155936815890468D+03
 0.151585840608852D+03 -.638943332457307D+01 0.575118831876758D+02 0.632836906879672D+02
 0.956425685741842D+02 0.400089380706093D+02 -.285401525351140D+02 -.162797277873917D+02
 0.646452225978998D+02 -.336195047460362D+02 -.289717306525618D+02 -.470039629005755D+02
 0.000000000000000D+00 0.000000000000000D+00 0.000000000000000D+00 -.000000000000000D+00
 0.159462094723688D+03 0.000000000000000D+00 0.000000000000000D+00 0.159462094723688D+03
 0.645947743790882D+03 0.000000000000000D+00 0.000000000000000D+00 -.645947743790882D+03
 0.154232246395820D+03 -.316290261457754D+02 0.561904353629738D+02 0.632836906879672D+02
 0.905569892327955D+02 0.246416291302970D+02 -.293447256165641D+02 -.162797277873917D+02
 0.713739517787080D+02 -.448453567247952D+02 -.295594730057306D+02 -.470039629005755D+02
 0.489246651107247D+03 0.518327537402735D+02 0.271376325932089D+01 -.486485649067194D+03
0.277449493420D-04 0.000000000000D+00 0.000000000000D+00 0.206152997061D-06 0.122934173489D-08  6 21 2 25 24 1 21 4 0.76402533D-02 0.31909528D+00 0.28114496D+05 0.28114496D+05 0.28114496D+05 0.12178683D+01  1  2  1  2  6  2        2 0.707208778303D-01 0.100000000000D+01
  </mgrwgt>
  </event>
  <event>
  5     66 0.46027262E-03 0.23261946E+02 0.75467711E-02 0.12475557E+00
       21 -1    0    0  501  502 0.00000000E+00 0.00000000E+00 0.32239504E+02 0.32248227E+02 0.75000000E+00 0.0000E+00 0.9000E+01
        2 -1    0    0  502    0 0.00000000E+00 0.00000000E+00 -.59069705E+03 0.59069714E+03 0.32000000E+00 0.0000E+00 0.9000E+01
       25  1    1    2    0    0 -.76557024E+01 0.26026266E+02 -.21731602E+03 0.25216508E+03 0.12500000E+03 0.0000E+00 0.9000E+01
       24  1    1    2    0    0 0.51377121E+01 -.29012728E+01 -.99728780E+02 0.12824921E+03 0.80419002E+02 0.0000E+00 0.9000E+01
        1  1    1    2  501    0 0.25179903E+01 -.23124993E+02 -.24141275E+03 0.24253108E+03 0.32000000E+00 0.0000E+00 0.9000E+01
#aMCatNLO 1  0  0  1  2 0.27258703D+01 0.00000000D+00  -5  6  0 0.00000000D+00 0.00000000D+00 0.00000000D+00 0.00000000D+00 0.00000000D+00
  <mgrwgt>
 0.7095409453D-01   13    2    0
 0.138009144311461D+03 0.000000000000000D+00 0.000000000000000D+00 0.138009144311461D+03
 0.138009144311461D+03 0.000000000000000D+00 0.000000000000000D+00 -.138009144311461D+03
 0.129423753171201D+03 -.765571983592973D+01 0.260264258371950D+02 0.197363369664850D+02
 0.876680502908326D+02 0.513770029562381D+01 -.290116451061207D+01 0.344043364647559D+02
 0.589264851608884D+02 0.251801954030592D+01 -.231252613265829D+02 -.541406734312410D+02
 0.000000000000000D+00 0.000000000000000D+00 0.000000000000000D+00 -.000000000000000D+00
 0.138421008911617D+03 0.000000000000000D+00 0.000000000000000D+00 0.138421008911617D+03
 0.142600995540059D+03 0.000000000000000D+00 0.000000000000000D+00 -.142600995540059D+03
 0.129379051233545D+03 -.879058647793989D+01 0.254389758168715D+02 0.197363369664850D+02
 0.876404367877541D+02 0.436896150817383D+01 -.329909286588651D+01 0.344043364647559D+02
 0.590122601951089D+02 0.200085069349648D+01 -.233929675383284D+02 -.541406734312410D+02
 0.499025623526876D+01 0.242077427626958D+01 0.125308458734340D+01 -.417998662844184D+01
0.261001802625D-05 0.000000000000D+00 0.000000000000D+00 0.317883389724D-06 0.000000000000D+00  6 21 2 25 24 1 21 2 0.49606014D-02 0.90877147D-01 0.13433641D+05 0.13433641D+05 0.13433641D+05 0.12533202D+01  1  2  2  1  6  1       21 0.710582816801D-01 0.100000000000D+01
-.307335964482D-06 0.137734435285D-06 -.526887441548D-08 0.317883389724D-06 0.000000000000D+00  6 21 2 25 24 1 21 4 0.49606014D-02 0.90877147D-01 0.13433641D+05 0.13433641D+05 0.13433641D+05 0.12533202D+01  1  2  3  1  6  1       21 -.131434272797D-01 0.100000000000D+01
0.264603162335D-06 0.000000000000D+00 0.000000000000D+00 0.317883389724D-06 0.000000000000D+00  6 21 2 25 24 1 21 4 0.49606014D-02 0.90877147D-01 0.13433641D+05 0.13433641D+05 0.13433641D+05 0.12533202D+01  1  2 15  1  6  1       21 0.113159305258D-01 0.100000000000D+01
-.122225219157D-05 0.000000000000D+00 0.000000000000D+00 0.317883389724D-06 0.000000000000D+00  6 21 2 25 24 1 21 4 0.49606014D-02 0.90877147D-01 0.13433641D+05 0.13433641D+05 0.13433641D+05 0.12533202D+01  1  2  4  1  6  1       21 -.522704292827D-01 0.100000000000D+01
0.119504994703D-05 0.000000000000D+00 0.000000000000D+00 0.317883389724D-06 0.584200364532D-06  6 21 2 25 24 1 21 4 0.49754054D-02 0.93900819D-01 0.13767997D+05 0.13767997D+05 0.13767997D+05 0.12520882D+01  1  2 11  1  6  1       21 0.488346659675D-01 0.100000000000D+01
0.145096201896D-05 0.000000000000D+00 0.000000000000D+00 0.317258749795D-06 0.416117761169D-06  6 -1 2 25 24 1 -1 4 0.49754054D-02 0.93900819D-01 0.13767997D+05 0.13767997D+05 0.13767997D+05 0.12520882D+01  1  2 11  4  6  1       21 0.337158738952D-02 0.100000000000D+01
0.864486118225D-07 0.000000000000D+00 0.000000000000D+00 0.317258749795D-06 0.245244247804D-09  6 1 2 25 24 1 1 4 0.49754054D-02 0.93900819D-01 0.13767997D+05 0.13767997D+05 0.13767997D+05 0.12520882D+01  1  2 11  5  6  1       21 0.226420947158D-03 0.100000000000D+01
0.875930265216D-07 0.000000000000D+00 0.000000000000D+00 0.317258749795D-06 0.485774173920D-09  6 -2 2 25 24 1 -2 4 0.49754054D-02 0.93900819D-01 0.13767997D+05 0.13767997D+05 0.13767997D+05 0.12520882D+01  1  2 11  6  6  1       21 0.198968316932D-03 0.100000000000D+01
0.293457962898D-06 0.000000000000D+00 0.000000000000D+00 0.317258749795D-06 0.608868140625D-07  6 2 2 25 24 1 2 4 0.49754054D-02 0.93900819D-01 0.13767997D+05 0.13767997D+05 0.13767997D+05 0.12520882D+01  1  2 11  7  6  1       21 0.826771882245D-03 0.100000000000D+01
0.864204541866D-07 0.000000000000D+00 0.000000000000D+00 0.317258749795D-06 0.479271311991D-09  6 -3 2 25 24 1 -3 4 0.49754054D-02 0.93900819D-01 0.13767997D+05 0.13767997D+05 0.13767997D+05 0.12520882D+01  1  2 11  8  6  1       21 0.141781849466D-03 0.100000000000D+01
0.864204541866D-07 0.000000000000D+00 0.000000000000D+00 0.317258749795D-06 0.479271311991D-09  6 -4 2 25 24 1 -4 4 0.49754054D-02 0.93900819D-01 0.13767997D+05 0.13767997D+05 0.13767997D+05 0.12520882D+01  1  2 11  8  6  1       21 0.125887548041D-03 0.100000000000D+01
0.864204541866D-07 0.000000000000D+00 0.000000000000D+00 0.317258749795D-06 0.479271311991D-09  6 3 2 25 24 1 3 4 0.49754054D-02 0.93900819D-01 0.13767997D+05 0.13767997D+05 0.13767997D+05 0.12520882D+01  1  2 11  9  6  1       21 0.141767434454D-03 0.100000000000D+01
0.864204541866D-07 0.000000000000D+00 0.000000000000D+00 0.317258749795D-06 0.479271311991D-09  6 4 2 25 24 1 4 4 0.49754054D-02 0.93900819D-01 0.13767997D+05 0.13767997D+05 0.13767997D+05 0.12520882D+01  1  2 11  9  6  1       21 0.125887548041D-03 0.100000000000D+01
  </mgrwgt>
  </event>
  <event>
  5     66 0.46027262E-03 0.60644565E+02 0.75467711E-02 0.10489824E+00
       21 -1    0    0  501  502 0.00000000E+00 0.00000000E+00 0.44499281E+02 0.44505601E+02 0.75000000E+00 0.0000E+00 0.9000E+01
        2 -1    0    0  502    0 0.00000000E+00 0.00000000E+00 -.52233655E+03 0.52233665E+03 0.32000000E+00 0.0000E+00 0.9000E+01
       25  1    1    2    0    0 0.72172699E+01 0.19869566E+02 -.15234697E+03 0.19819558E+03 0.12500000E+03 0.0000E+00 0.9000E+01
       24  1    1    2    0    0 -.61145087E+02 0.78702994E+01 -.13541006E+03 0.16912647E+03 0.80419002E+02 0.0000E+00 0.9000E+01
        1  1    1    2  501    0 0.53927817E+02 -.27739865E+02 -.19008024E+03 0.19952019E+03 0.32000000E+00 0.0000E+00 0.9000E+01
#aMCatNLO 1  0  0  1  2 0.51134524D+02 0.00000000D+00  -5  6  0 0.00000000D+00 0.00000000D+00 0.00000000D+00 0.00000000D+00 0.00000000D+00
  <mgrwgt>
 0.8006430235D-01   12    2    0
 0.152464487259277D+03 0.000000000000000D+00 0.000000000000000D+00 0.152464487259277D+03
 0.152464487259277D+03 0.000000000000000D+00 0.000000000000000D+00 -.152464487259277D+03
 0.129697679029381D+03 0.721704974523740D+01 0.198696788640913D+02 0.273787874169223D+02
 0.102201162009433D+03 -.611452608324455D+02 0.787038868072339D+01 0.133107333176763D+02
 0.730301334797403D+02 0.539282110872081D+02 -.277400675448147D+02 -.406895207345986D+02
 0.000000000000000D+00 -.000000000000000D+00 -.000000000000000D+00 0.000000000000000D+00
 0.630879446917676D+03 0.000000000000000D+00 0.000000000000000D+00 0.630879446917676D+03
 0.293038467841589D+03 0.000000000000000D+00 0.000000000000000D+00 -.293038467841589D+03
 0.214565307947669D+03 0.498818340536614D+02 0.164849858979922D+03 0.273787874169223D+02
 0.140432790981416D+03 -.310754431005006D+02 0.110051324585907D+03 0.133107333176763D+02
 0.955124130290383D+02 0.748158222031510D+02 0.432386018863328D+02 -.406895207345986D+02
 0.473407402801142D+03 -.936222131563118D+02 -.318139785452162D+03 0.337840979076087D+03
0.310630637472D-05 0.000000000000D+00 0.000000000000D+00 0.257402985148D-06 0.000000000000D+00  6 21 2 25 24 1 21 2 0.68465369D-02 0.80359963D-01 0.20844167D+05 0.20844167D+05 0.20844167D+05 0.12318543D+01  1  2  2  1  6  1       21 0.547024733517D-01 0.100000000000D+01
-.312109122263D-06 0.163924290960D-06 -.627073760403D-08 0.257402985148D-06 0.000000000000D+00  6 21 2 25 24 1 21 4 0.68465369D-02 0.80359963D-01 0.20844167D+05 0.20844167D+05 0.20844167D+05 0.12318543D+01  1  2  3  1  6  1       21 -.834041805032D-02 0.100000000000D+01
0.299554872475D-06 0.000000000000D+00 0.000000000000D+00 0.257402985148D-06 0.000000000000D+00  6 21 2 25 24 1 21 4 0.68465369D-02 0.80359963D-01 0.20844167D+05 0.20844167D+05 0.20844167D+05 0.12318543D+01  1  2 15  1  6  1       21 0.800493381076D-02 0.100000000000D+01
0.306626436004D-04 0.000000000000D+00 -.527905217142D-04 0.257402985148D-06 0.000000000000D+00  6 21 2 25 24 1 21 4 0.52791461D-01 0.80359963D-01 0.20844167D+05 0.20844167D+05 0.20844167D+05 0.12318543D+01  1  2  5  1  6  1       21 0.182250671929D-01 0.100000000000D+01
0.133970446353D-04 0.000000000000D+00 -.227994153291D-04 0.257402985148D-06 0.000000000000D+00  6 -1 2 25 24 1 -1 4 0.52791461D-01 0.80359963D-01 0.20844167D+05 0.20844167D+05 0.20844167D+05 0.12318543D+01  1  2  5  4  6  1       21 0.793295875467D-03 0.100000000000D+01
0.133970446353D-04 0.000000000000D+00 -.227994153291D-04 0.257402985148D-06 0.000000000000D+00  6 1 2 25 24 1 1 4 0.52791461D-01 0.80359963D-01 0.20844167D+05 0.20844167D+05 0.20844167D+05 0.12318543D+01  1  2  5  5  6  1       21 0.186661136379D-02 0.100000000000D+01
0.133970446353D-04 0.000000000000D+00 -.227994153291D-04 0.257402985148D-06 0.000000000000D+00  6 -2 2 25 24 1 -2 4 0.52791461D-01 0.80359963D-01 0.20844167D+05 0.20844167D+05 0.20844167D+05 0.12318543D+01  1  2  5  6  6  1       21 0.643915756820D-03 0.100000000000D+01
0.133970446353D-04 0.000000000000D+00 -.227994153291D-04 0.257402985148D-06 0.000000000000D+00  6 2 2 25 24 1 2 4 0.52791461D-01 0.80359963D-01 0.20844167D+05 0.20844167D+05 0.20844167D+05 0.12318543D+01  1  2  5  7  6  1       21 0.270314544810D-02 0.100000000000D+01
0.133970446353D-04 0.000000000000D+00 -.227994153291D-04 0.257402985148D-06 0.000000000000D+00  6 -3 2 25 24 1 -3 4 0.52791461D-01 0.80359963D-01 0.20844167D+05 0.20844167D+05 0.20844167D+05 0.12318543D+01  1  2  5  8  6  1       21 0.402493701501D-03 0.100000000000D+01
0.133970446353D-04 0.000000000000D+00 -.227994153291D-04 0.257402985148D-06 0.000000000000D+00  6 -4 2 25 24 1 -4 4 0.52791461D-01 0.80359963D-01 0.20844167D+05 0.20844167D+05 0.20844167D+05 0.12318543D+01  1  2  5  8  6  1       21 0.330047898561D-03 0.100000000000D+01
0.133970446353D-04 0.000000000000D+00 -.227994153291D-04 0.257402985148D-06 0.000000000000D+00  6 3 2 25 24 1 3 4 0.52791461D-01 0.80359963D-01 0.20844167D+05 0.20844167D+05 0.20844167D+05 0.12318543D+01  1  2  5  9  6  1       21 0.402688102414D-03 0.100000000000D+01
0.133970446353D-04 0.000000000000D+00 -.227994153291D-04 0.257402985148D-06 0.000000000000D+00  6 4 2 25 24 1 4 4 0.52791461D-01 0.80359963D-01 0.20844167D+05 0.20844167D+05 0.20844167D+05 0.12318543D+01  1  2  5  9  6  1       21 0.330047898561D-03 0.100000000000D+01
  </mgrwgt>
  </event>
  <event>
  5     66 0.46027262E-03 0.23332436E+03 0.75467711E-02 0.10174742E+00
       21 -1    0    0  501  502 0.00000000E+00 0.00000000E+00 0.23886978E+03 0.23887096E+03 0.75000000E+00 0.0000E+00 0.9000E+01
        2 -1    0    0  502    0 0.00000000E+00 0.00000000E+00 -.39507949E+03 0.39507962E+03 0.32000000E+00 0.0000E+00 0.9000E+01
       25  1    1    2    0    0 0.83147658E+02 -.10085285E+03 0.61414566E+02 0.19100152E+03 0.12500000E+03 0.0000E+00 0.9000E+01
       24  1    1    2    0    0 0.11207396E+03 -.26931069E+02 -.30402288E+02 0.14379628E+03 0.80419002E+02 0.0000E+00 0.9000E+01
        1  1    1    2  501    0 -.19522162E+03 0.12778392E+03 -.18722199E+03 0.29915278E+03 0.32000000E+00 0.0000E+00 0.9000E+01
#aMCatNLO 1  0  0  1  1 0.59933381D+02 0.00000000D+00  -5  6  0 0.00000000D+00 0.00000000D+00 0.00000000D+00 0.00000000D+00 0.00000000D+00
  <mgrwgt>
 0.7675018037D-01    3    2    0
 0.307201829996928D+03 0.000000000000000D+00 0.000000000000000D+00 0.307201829996928D+03
 0.307201829996928D+03 0.000000000000000D+00 0.000000000000000D+00 -.307201829996928D+03
 0.212692588020336D+03 0.831477087546794D+02 -.100852883328957D+03 0.111929850584512D+03
 0.140641448131806D+03 0.112073992342802D+03 -.269310914606594D+02 0.519013789066775D+01
 0.261069623841714D+03 -.195221701097481D+03 0.127783974789617D+03 -.117119988475180D+03
 0.000000000000000D+00 0.000000000000000D+00 -.000000000000000D+00 -.000000000000000D+00
 0.401443996279903D+03 0.000000000000000D+00 0.000000000000000D+00 0.401443996279903D+03
 0.864692949464275D+03 0.000000000000000D+00 0.000000000000000D+00 -.864692949464275D+03
 0.183005977852343D+03 -.121214283027842D+02 -.720483688484428D+02 0.111929850584512D+03
 0.978420273519556D+02 0.546562585643243D+02 -.957090541149956D+01 0.519013789066775D+01
 0.416546947253965D+03 -.358365951675570D+03 0.177110452107814D+03 -.117119988475180D+03
 0.568741993285914D+03 0.315831121414030D+03 -.954911778478720D+02 -.463248953184372D+03
0.807118265318D-04 0.000000000000D+00 0.000000000000D+00 0.141955185756D-06 0.000000000000D+00  6 21 2 25 24 1 21 2 0.36749297D-01 0.60781560D-01 0.76930967D+05 0.76930967D+05 0.76930967D+05 0.11741820D+01  1  2  2  1  6  1       21 0.785418925330D-01 0.100000000000D+01
-.102666195181D-04 0.425928010320D-05 -.162933923660D-06 0.141955185756D-06 0.000000000000D+00  6 21 2 25 24 1 21 4 0.36749297D-01 0.60781560D-01 0.76930967D+05 0.76930967D+05 0.76930967D+05 0.11741820D+01  1  2  3  1  6  1       21 -.137740759707D-01 0.100000000000D+01
0.893115228987D-05 0.000000000000D+00 0.000000000000D+00 0.141955185756D-06 0.000000000000D+00  6 21 2 25 24 1 21 4 0.36749297D-01 0.60781560D-01 0.76930967D+05 0.76930967D+05 0.76930967D+05 0.11741820D+01  1  2 15  1  6  1       21 0.119823638082D-01 0.100000000000D+01
  </mgrwgt>
  </event>
  <event>
  5     66 0.46027262E-03 0.29262706E+02 0.75467711E-02 0.12230219E+00
       21 -1    0    0  501  502 0.00000000E+00 0.00000000E+00 0.19752077E+03 0.19752219E+03 0.75000000E+00 0.0000E+00 0.9000E+01
        2 -1    0    0  502    0 0.00000000E+00 0.00000000E+00 -.14488341E+03 0.14488377E+03 0.32000000E+00 0.0000E+00 0.9000E+01
       25  1    1    2    0    0 0.22098753E+02 0.48723950E+02 -.70251004E+02 0.15304438E+03 0.12500000E+03 0.0000E+00 0.9000E+01
       24  1    1    2    0    0 -.34672796E+02 -.22300685E+02 0.35310215E+02 0.97023454E+02 0.80419002E+02 0.0000E+00 0.9000E+01
        1  1    1    2  501    0 0.12574043E+02 -.26423265E+02 0.87578143E+02 0.92338123E+02 0.32000000E+00 0.0000E+00 0.9000E+01
#aMCatNLO 1  0  0  1  2 0.11764708D+02 0.00000000D+00  -5  6  0 0.00000000D+00 0.00000000D+00 0.00000000D+00 0.00000000D+00 0.00000000D+00
  <mgrwgt>
 0.3088332427D+00   23    2    0
 0.169167925042425D+03 0.000000000000000D+00 0.000000000000000D+00 0.169167925042425D+03
 0.169167925042425D+03 0.000000000000000D+00 0.000000000000000D+00 -.169167925042425D+03
 0.165815116396012D+03 0.220987038569142D+02 0.487240538124359D+02 -.949066209141923D+02
 0.926971191762323D+02 -.346728241468763D+02 -.223006269376887D+02 0.206401853932544D+02
 0.798236145126064D+02 0.125741202899621D+02 -.264234268747473D+02 0.742664355209379D+02
 0.000000000000000D+00 0.000000000000000D+00 -.000000000000000D+00 0.000000000000000D+00
 0.203201120051146D+03 0.000000000000000D+00 0.000000000000000D+00 0.203201120051146D+03
 0.170289944905242D+03 0.000000000000000D+00 0.000000000000000D+00 -.170289944905242D+03
 0.166584604045854D+03 0.180479541123014D+02 0.528434950029244D+02 -.949066209141923D+02
 0.930455587831724D+02 -.369363552482490D+02 -.199987115287332D+02 0.206401853932544D+02
 0.789101682963508D+02 0.106397298839772D+02 -.244562336341632D+02 0.742664355209379D+02
 0.349507338310100D+02 0.824867125197031D+01 -.838854984002792D+01 0.329111751459043D+02
0.236621638545D-05 0.000000000000D+00 0.000000000000D+00 0.189829273276D-05 0.000000000000D+00  6 21 2 25 24 1 21 2 0.30387947D-01 0.22289892D-01 0.16332973D+05 0.16332973D+05 0.16332973D+05 0.12436294D+01  1  2  2  1  6  1       21 0.114287543423D-01 0.100000000000D+01
0.231351625011D-06 0.124868669233D-06 -.477670914507D-08 0.189829273276D-05 0.000000000000D+00  6 21 2 25 24 1 21 4 0.30387947D-01 0.22289892D-01 0.16332973D+05 0.16332973D+05 0.16332973D+05 0.12436294D+01  1  2  3  1  6  1       21 0.172821961911D-02 0.100000000000D+01
0.240227127310D-06 0.000000000000D+00 0.000000000000D+00 0.189829273276D-05 0.000000000000D+00  6 21 2 25 24 1 21 4 0.30387947D-01 0.22289892D-01 0.16332973D+05 0.16332973D+05 0.16332973D+05 0.12436294D+01  1  2 15  1  6  1       21 0.179452050289D-02 0.100000000000D+01
0.333845483200D-04 0.000000000000D+00 0.000000000000D+00 0.188636328301D-05 0.000000000000D+00  6 21 2 25 24 1 21 4 0.36589035D-01 0.22289892D-01 0.17698070D+05 0.17698070D+05 0.17698070D+05 0.12397155D+01  1  2 12  1  6  1       21 0.171335091459D+00 0.100000000000D+01
-.324168598244D-05 0.000000000000D+00 0.000000000000D+00 0.189829273276D-05 0.000000000000D+00  6 21 2 25 24 1 21 4 0.30387947D-01 0.22289892D-01 0.16332973D+05 0.16332973D+05 0.16332973D+05 0.12436294D+01  1  2  4  1  6  1       21 -.242157162872D-01 0.100000000000D+01
-.738222436157D-04 0.000000000000D+00 -.458429491681D-05 0.189829273276D-05 0.000000000000D+00  6 21 2 25 24 1 21 4 0.36641892D-01 0.22289892D-01 0.16332973D+05 0.16332973D+05 0.16332973D+05 0.12436294D+01  1  2  5  1  6  1       21 -.382649695128D+00 0.100000000000D+01
0.715522920581D-04 0.000000000000D+00 0.427844642388D-05 0.189829273276D-05 0.000000000000D+00  6 21 2 25 24 1 21 4 0.30387947D-01 0.22289892D-01 0.16332973D+05 0.16332973D+05 0.16332973D+05 0.12436294D+01  1  2  6  1  6  1       21 0.534502729001D+00 0.100000000000D+01
0.168791439357D-05 0.000000000000D+00 0.000000000000D+00 0.188636328301D-05 0.000000000000D+00  6 -1 2 25 24 1 -1 4 0.36589035D-01 0.22289892D-01 0.17698070D+05 0.17698070D+05 0.17698070D+05 0.12397155D+01  1  2 12  4  6  1       21 0.785911684079D-03 0.100000000000D+01
-.296992461545D-05 0.000000000000D+00 -.242813839109D-06 0.189829273276D-05 0.000000000000D+00  6 -1 2 25 24 1 -1 4 0.36641892D-01 0.22289892D-01 0.16332973D+05 0.16332973D+05 0.16332973D+05 0.12436294D+01  1  2  5  4  6  1       21 -.139481020939D-02 0.100000000000D+01
0.168791439357D-05 0.000000000000D+00 0.000000000000D+00 0.188636328301D-05 0.000000000000D+00  6 1 2 25 24 1 1 4 0.36589035D-01 0.22289892D-01 0.17698070D+05 0.17698070D+05 0.17698070D+05 0.12397155D+01  1  2 12  5  6  1       21 0.151393520183D-02 0.100000000000D+01
-.296992461545D-05 0.000000000000D+00 -.242813839109D-06 0.189829273276D-05 0.000000000000D+00  6 1 2 25 24 1 1 4 0.36641892D-01 0.22289892D-01 0.16332973D+05 0.16332973D+05 0.16332973D+05 0.12436294D+01  1  2  5  5  6  1       21 -.268866162800D-02 0.100000000000D+01
0.168791439357D-05 0.000000000000D+00 0.000000000000D+00 0.188636328301D-05 0.000000000000D+00  6 -2 2 25 24 1 -2 4 0.36589035D-01 0.22289892D-01 0.17698070D+05 0.17698070D+05 0.17698070D+05 0.12397155D+01  1  2 12  6  6  1       21 0.672403558376D-03 0.100000000000D+01
-.296992461545D-05 0.000000000000D+00 -.242813839109D-06 0.189829273276D-05 0.000000000000D+00  6 -2 2 25 24 1 -2 4 0.36641892D-01 0.22289892D-01 0.16332973D+05 0.16332973D+05 0.16332973D+05 0.12436294D+01  1  2  5  6  6  1       21 -.119291443025D-02 0.100000000000D+01
0.168791439357D-05 0.000000000000D+00 0.000000000000D+00 0.188636328301D-05 0.000000000000D+00  6 2 2 25 24 1 2 4 0.36589035D-01 0.22289892D-01 0.17698070D+05 0.17698070D+05 0.17698070D+05 0.12397155D+01  1  2 12  7  6  1       21 0.205392808395D-02 0.100000000000D+01
-.296992461545D-05 0.000000000000D+00 -.242813839109D-06 0.189829273276D-05 0.000000000000D+00  6 2 2 25 24 1 2 4 0.36641892D-01 0.22289892D-01 0.16332973D+05 0.16332973D+05 0.16332973D+05 0.12436294D+01  1  2  5  7  6  1       21 -.364778260148D-02 0.100000000000D+01
0.168791439357D-05 0.000000000000D+00 0.000000000000D+00 0.188636328301D-05 0.000000000000D+00  6 -3 2 25 24 1 -3 4 0.36589035D-01 0.22289892D-01 0.17698070D+05 0.17698070D+05 0.17698070D+05 0.12397155D+01  1  2 12  8  6  1       21 0.423043588351D-03 0.100000000000D+01
0.168791439357D-05 0.000000000000D+00 0.000000000000D+00 0.188636328301D-05 0.000000000000D+00  6 -4 2 25 24 1 -4 4 0.36589035D-01 0.22289892D-01 0.17698070D+05 0.17698070D+05 0.17698070D+05 0.12397155D+01  1  2 12  8  6  1       21 0.351540766390D-03 0.100000000000D+01
-.296992461545D-05 0.000000000000D+00 -.242813839109D-06 0.189829273276D-05 0.000000000000D+00  6 -3 2 25 24 1 -3 4 0.36641892D-01 0.22289892D-01 0.16332973D+05 0.16332973D+05 0.16332973D+05 0.12436294D+01  1  2  5  8  6  1       21 -.749070758829D-03 0.100000000000D+01
-.296992461545D-05 0.000000000000D+00 -.242813839109D-06 0.189829273276D-05 0.000000000000D+00  6 -4 2 25 24 1 -4 4 0.36641892D-01 0.22289892D-01 0.16332973D+05 0.16332973D+05 0.16332973D+05 0.12436294D+01  1  2  5  8  6  1       21 -.621828576510D-03 0.100000000000D+01
0.168791439357D-05 0.000000000000D+00 0.000000000000D+00 0.188636328301D-05 0.000000000000D+00  6 3 2 25 24 1 3 4 0.36589035D-01 0.22289892D-01 0.17698070D+05 0.17698070D+05 0.17698070D+05 0.12397155D+01  1  2 12  9  6  1       21 0.423096813645D-03 0.100000000000D+01
0.168791439357D-05 0.000000000000D+00 0.000000000000D+00 0.188636328301D-05 0.000000000000D+00  6 4 2 25 24 1 4 4 0.36589035D-01 0.22289892D-01 0.17698070D+05 0.17698070D+05 0.17698070D+05 0.12397155D+01  1  2 12  9  6  1       21 0.351540766390D-03 0.100000000000D+01
-.296992461545D-05 0.000000000000D+00 -.242813839109D-06 0.189829273276D-05 0.000000000000D+00  6 3 2 25 24 1 3 4 0.36641892D-01 0.22289892D-01 0.16332973D+05 0.16332973D+05 0.16332973D+05 0.12436294D+01  1  2  5  9  6  1       21 -.749164465231D-03 0.100000000000D+01
-.296992461545D-05 0.000000000000D+00 -.242813839109D-06 0.189829273276D-05 0.000000000000D+00  6 4 2 25 24 1 4 4 0.36641892D-01 0.22289892D-01 0.16332973D+05 0.16332973D+05 0.16332973D+05 0.12436294D+01  1  2  5  9  6  1       21 -.621828576510D-03 0.100000000000D+01
  </mgrwgt>
  </event>
  <event>
  6     66 0.46027262E-03 0.16535219E+02 0.75467711E-02 0.12110225E+00
       21 -1    0    0  501  502 0.00000000E+00 0.00000000E+00 0.10459142E+02 0.10485997E+02 0.75000000E+00 0.0000E+00 0.9000E+01
        2 -1    0    0  502    0 -.00000000E+00 -.00000000E+00 -.21889174E+04 0.21889175E+04 0.32000000E+00 0.0000E+00 0.9000E+01
       25  1    1    2    0    0 -.68729726E+02 -.31492911E+02 -.82700658E+03 0.83980978E+03 0.12500000E+03 0.0000E+00 0.9000E+01
       24  1    1    2    0    0 0.61318153E+02 -.36234788E+01 -.78613091E+03 0.79261722E+03 0.80419002E+02 0.0000E+00 0.9000E+01
        1  1    1    2  503    0 0.70799883E+01 0.22261423E+02 -.49041675E+03 0.49097290E+03 0.32000000E+00 0.0000E+00 0.9000E+01
       21  1    1    2  501  503 0.33158501E+00 0.12854966E+02 -.74904058E+02 0.76003556E+02 0.75000000E+00 0.0000E+00 0.9000E+01
#aMCatNLO 2  0  0  5  1 0.10225674D+02 0.00000000D+00  -5  6  0 0.00000000D+00 0.00000000D+00 0.00000000D+00 0.00000000D+00 0.00000000D+00
  <mgrwgt>
 0.1573057114D+00    3    2    0
 0.151405931903109D+03 0.000000000000000D+00 0.000000000000000D+00 0.151405931903109D+03
 0.151405931903109D+03 -.000000000000000D+00 -.000000000000000D+00 -.151405931903109D+03
 0.151386436977123D+03 -.692348460829836D+02 -.338861932006203D+02 0.367575203035283D+02
 0.101265976412594D+03 0.609785612996496D+02 -.523247986223573D+01 -.646670246274860D+01
 0.501594504165010D+02 0.825628478333398D+01 0.391186730628560D+02 -.302908178407796D+02
 0.000000000000000D+00 0.000000000000000D+00 0.000000000000000D+00 0.000000000000000D+00
 0.151405931903109D+03 0.000000000000000D+00 0.000000000000000D+00 0.151405931903109D+03
 0.151405931903109D+03 -.000000000000000D+00 -.000000000000000D+00 -.151405931903109D+03
 0.150184224221406D+03 -.687245376294169D+02 -.314683272863311D+02 0.348852907456524D+02
 0.101490167576657D+03 0.613216589135856D+02 -.360686692125543D+01 -.772546564716765D+01
 0.377588251456808D+02 0.705395341130220D+01 0.219806717251053D+02 -.298801052234833D+02
 0.133786468624749D+02 0.348925304529128D+00 0.130945224824812D+02 0.272028012499864D+01
-.266986323433D-05 0.000000000000D+00 0.000000000000D+00 0.241504750733D-06 0.000000000000D+00  6 21 2 25 24 1 21 4 0.16111663D-02 0.33675860D+00 0.20086839D+05 0.20086839D+05 0.20086839D+05 0.12336190D+01  1  2 13  3  6  5        1 -.835303374011D-01 0.100000000000D+01
-.181351737930D-06 0.000000000000D+00 0.000000000000D+00 0.240924589271D-06 0.000000000000D+00  6 21 2 25 24 1 21 4 0.16111663D-02 0.33675860D+00 0.20721016D+05 0.20721016D+05 0.20721016D+05 0.12321363D+01  1  2  8  3  6  5        1 -.564529183387D-02 0.100000000000D+01
0.787823310492D-05 0.000000000000D+00 0.000000000000D+00 0.240924589271D-06 0.395211968174D-07  6 21 2 25 24 1 21 4 0.16111663D-02 0.33675860D+00 0.20086839D+05 0.20086839D+05 0.20086839D+05 0.12336190D+01  1  2  1  3  6  5        1 0.246481340660D+00 0.100000000000D+01
  </mgrwgt>
  </event>
  <event>
  5     66 0.46027262E-03 0.99157861E+02 0.75467711E-02 0.11292646E+00
       21 -1    0    0  501  502 0.00000000E+00 0.00000000E+00 0.20914386E+03 0.20914521E+03 0.75000000E+00 0.0000E+00 0.9000E+01
        2 -1    0    0  502    0 0.00000000E+00 0.00000000E+00 -.37440582E+03 0.37440596E+03 0.32000000E+00 0.0000E+00 0.9000E+01
       25  1    1    2    0    0 -.20350946E+02 -.48408566E+02 -.21201573E+03 0.25166093E+03 0.12500000E+03 0.0000E+00 0.9000E+01
       24  1    1    2    0    0 -.28814371E+02 0.14239599E+03 -.64530975E+02 0.17815260E+03 0.80419002E+02 0.0000E+00 0.9000E+01
        1  1    1    2  501    0 0.49165318E+02 -.93987421E+02 0.11128475E+03 0.15373764E+03 0.32000000E+00 0.0000E+00 0.9000E+01
#aMCatNLO 1  0  0  1  2 0.38870524D+02 0.00000000D+00  -5  6  0 0.00000000D+00 0.00000000D+00 0.00000000D+00 0.00000000D+00 0.00000000D+00
  <mgrwgt>
 0.1044323567D+00   23    2    0
 0.279830506845196D+03 0.000000000000000D+00 0.000000000000000D+00 0.279830506845196D+03
 0.279830506845196D+03 0.000000000000000D+00 0.000000000000000D+00 -.279830506845196D+03
 0.199797587174551D+03 -.203509704996215D+02 -.484085202987494D+02 -.146753292988544D+03
 0.166702096981865D+03 -.288143914104174D+02 0.142396026167481D+03 -.146790927218925D+02
 0.193161329533976D+03 0.491653619100389D+02 -.939875058687316D+02 0.161432385710436D+03
 0.000000000000000D+00 0.000000000000000D+00 0.000000000000000D+00 0.000000000000000D+00
 0.303020844883493D+03 0.000000000000000D+00 0.000000000000000D+00 0.303020844883493D+03
 0.297280496801165D+03 0.000000000000000D+00 0.000000000000000D+00 -.297280496801165D+03
 0.203821715549722D+03 -.286863621061469D+02 -.596561426490638D+02 -.146753292988544D+03
 0.160349411000898D+03 -.355685341784686D+02 0.133282111579992D+03 -.146790927218925D+02
 0.196838113897714D+03 0.411112424331247D+02 -.104855584840537D+03 0.161432385710436D+03
 0.392921012363251D+02 0.231436538514909D+02 0.312296159096090D+02 0.574034808232803D+01
0.150405925995D-04 0.000000000000D+00 0.000000000000D+00 0.353070443301D-06 0.000000000000D+00  6 21 2 25 24 1 21 2 0.32176093D-01 0.57601009D-01 0.41556246D+05 0.41556246D+05 0.41556246D+05 0.12003206D+01  1  2  2  1  6  1       21 0.214677907156D-01 0.100000000000D+01
-.111510578066D-06 0.793713877533D-06 -.303626230716D-07 0.353070443301D-06 0.000000000000D+00  6 21 2 25 24 1 21 4 0.32176093D-01 0.57601009D-01 0.41556246D+05 0.41556246D+05 0.41556246D+05 0.12003206D+01  1  2  3  1  6  1       21 -.229315268614D-03 0.100000000000D+01
0.155405505407D-05 0.000000000000D+00 0.000000000000D+00 0.353070443301D-06 0.000000000000D+00  6 21 2 25 24 1 21 4 0.32176093D-01 0.57601009D-01 0.41556246D+05 0.41556246D+05 0.41556246D+05 0.12003206D+01  1  2 15  1  6  1       21 0.319582732281D-02 0.100000000000D+01
0.262421533333D-04 0.000000000000D+00 0.000000000000D+00 0.347754255761D-06 0.000000000000D+00  6 21 2 25 24 1 21 4 0.35773665D-01 0.57601009D-01 0.51215952D+05 0.51215952D+05 0.51215952D+05 0.11912497D+01  1  2 12  1  6  1       21 0.422083439930D-01 0.100000000000D+01
-.131803930200D-04 0.000000000000D+00 0.000000000000D+00 0.353070443301D-06 0.000000000000D+00  6 21 2 25 24 1 21 4 0.32176093D-01 0.57601009D-01 0.41556246D+05 0.41556246D+05 0.41556246D+05 0.12003206D+01  1  2  4  1  6  1       21 -.271047412564D-01 0.100000000000D+01
-.145215904934D-03 0.000000000000D+00 -.378826485439D-04 0.353070443301D-06 0.000000000000D+00  6 21 2 25 24 1 21 4 0.36850610D-01 0.57601009D-01 0.41556246D+05 0.41556246D+05 0.41556246D+05 0.12003206D+01  1  2  5  1  6  1       21 -.228173748180D+00 0.100000000000D+01
0.144677525930D-03 0.000000000000D+00 0.365240598025D-04 0.353070443301D-06 0.000000000000D+00  6 21 2 25 24 1 21 4 0.32176093D-01 0.57601009D-01 0.41556246D+05 0.41556246D+05 0.41556246D+05 0.12003206D+01  1  2  6  1  6  1       21 0.297521242349D+00 0.100000000000D+01
0.716063245324D-06 0.000000000000D+00 0.000000000000D+00 0.347754255761D-06 0.000000000000D+00  6 -1 2 25 24 1 -1 4 0.35773665D-01 0.57601009D-01 0.51215952D+05 0.51215952D+05 0.51215952D+05 0.11912497D+01  1  2 12  4  6  1       21 0.106484911750D-03 0.100000000000D+01
-.435108630667D-05 0.000000000000D+00 -.137218918110D-05 0.353070443301D-06 0.000000000000D+00  6 -1 2 25 24 1 -1 4 0.36850610D-01 0.57601009D-01 0.41556246D+05 0.41556246D+05 0.41556246D+05 0.12003206D+01  1  2  5  4  6  1       21 -.633443623230D-03 0.100000000000D+01
0.716063245324D-06 0.000000000000D+00 0.000000000000D+00 0.347754255761D-06 0.000000000000D+00  6 1 2 25 24 1 1 4 0.35773665D-01 0.57601009D-01 0.51215952D+05 0.51215952D+05 0.51215952D+05 0.11912497D+01  1  2 12  5  6  1       21 0.203040384935D-03 0.100000000000D+01
-.435108630667D-05 0.000000000000D+00 -.137218918110D-05 0.353070443301D-06 0.000000000000D+00  6 1 2 25 24 1 1 4 0.36850610D-01 0.57601009D-01 0.41556246D+05 0.41556246D+05 0.41556246D+05 0.12003206D+01  1  2  5  5  6  1       21 -.122528974044D-02 0.100000000000D+01
0.716063245324D-06 0.000000000000D+00 0.000000000000D+00 0.347754255761D-06 0.000000000000D+00  6 -2 2 25 24 1 -2 4 0.35773665D-01 0.57601009D-01 0.51215952D+05 0.51215952D+05 0.51215952D+05 0.11912497D+01  1  2 12  6  6  1       21 0.915703121554D-04 0.100000000000D+01
-.435108630667D-05 0.000000000000D+00 -.137218918110D-05 0.353070443301D-06 0.000000000000D+00  6 -2 2 25 24 1 -2 4 0.36850610D-01 0.57601009D-01 0.41556246D+05 0.41556246D+05 0.41556246D+05 0.12003206D+01  1  2  5  6  6  1       21 -.542396568970D-03 0.100000000000D+01
0.716063245324D-06 0.000000000000D+00 0.000000000000D+00 0.347754255761D-06 0.000000000000D+00  6 2 2 25 24 1 2 4 0.35773665D-01 0.57601009D-01 0.51215952D+05 0.51215952D+05 0.51215952D+05 0.11912497D+01  1  2 12  7  6  1       21 0.275143382026D-03 0.100000000000D+01
-.435108630667D-05 0.000000000000D+00 -.137218918110D-05 0.353070443301D-06 0.000000000000D+00  6 2 2 25 24 1 2 4 0.36850610D-01 0.57601009D-01 0.41556246D+05 0.41556246D+05 0.41556246D+05 0.12003206D+01  1  2  5  7  6  1       21 -.166797455505D-02 0.100000000000D+01
0.716063245324D-06 0.000000000000D+00 0.000000000000D+00 0.347754255761D-06 0.000000000000D+00  6 -3 2 25 24 1 -3 4 0.35773665D-01 0.57601009D-01 0.51215952D+05 0.51215952D+05 0.51215952D+05 0.11912497D+01  1  2 12  8  6  1       21 0.589619172096D-04 0.100000000000D+01
0.716063245324D-06 0.000000000000D+00 0.000000000000D+00 0.347754255761D-06 0.000000000000D+00  6 -4 2 25 24 1 -4 4 0.35773665D-01 0.57601009D-01 0.51215952D+05 0.51215952D+05 0.51215952D+05 0.11912497D+01  1  2 12  8  6  1       21 0.495872931284D-04 0.100000000000D+01
-.435108630667D-05 0.000000000000D+00 -.137218918110D-05 0.353070443301D-06 0.000000000000D+00  6 -3 2 25 24 1 -3 4 0.36850610D-01 0.57601009D-01 0.41556246D+05 0.41556246D+05 0.41556246D+05 0.12003206D+01  1  2  5  8  6  1       21 -.347393068445D-03 0.100000000000D+01
-.435108630667D-05 0.000000000000D+00 -.137218918110D-05 0.353070443301D-06 0.000000000000D+00  6 -4 2 25 24 1 -4 4 0.36850610D-01 0.57601009D-01 0.41556246D+05 0.41556246D+05 0.41556246D+05 0.12003206D+01  1  2  5  8  6  1       21 -.291223190914D-03 0.100000000000D+01
0.716063245324D-06 0.000000000000D+00 0.000000000000D+00 0.347754255761D-06 0.000000000000D+00  6 3 2 25 24 1 3 4 0.35773665D-01 0.57601009D-01 0.51215952D+05 0.51215952D+05 0.51215952D+05 0.11912497D+01  1  2 12  9  6  1       21 0.589696665060D-04 0.100000000000D+01
0.716063245324D-06 0.000000000000D+00 0.000000000000D+00 0.347754255761D-06 0.000000000000D+00  6 4 2 25 24 1 4 4 0.35773665D-01 0.57601009D-01 0.51215952D+05 0.51215952D+05 0.51215952D+05 0.11912497D+01  1  2 12  9  6  1       21 0.495872931284D-04 0.100000000000D+01
-.435108630667D-05 0.000000000000D+00 -.137218918110D-05 0.353070443301D-06 0.000000000000D+00  6 3 2 25 24 1 3 4 0.36850610D-01 0.57601009D-01 0.41556246D+05 0.41556246D+05 0.41556246D+05 0.12003206D+01  1  2  5  9  6  1       21 -.347444161641D-03 0.100000000000D+01
-.435108630667D-05 0.000000000000D+00 -.137218918110D-05 0.353070443301D-06 0.000000000000D+00  6 4 2 25 24 1 4 4 0.36850610D-01 0.57601009D-01 0.41556246D+05 0.41556246D+05 0.41556246D+05 0.12003206D+01  1  2  5  9  6  1       21 -.291223190914D-03 0.100000000000D+01
  </mgrwgt>
  </event>
  <event>
  5     66 0.46027262E-03 0.27962864E+02 0.75467711E-02 0.12043753E+00
       21 -1    0    0  501  502 0.00000000E+00 0.00000000E+00 0.20782438E+02 0.20795967E+02 0.75000000E+00 0.0000E+00 0.9000E+01
        2 -1    0    0  502    0 -.00000000E+00 -.00000000E+00 -.12596239E+04 0.12596239E+04 0.32000000E+00 0.0000E+00 0.9000E+01
       25  1    1    2    0    0 -.25959622E+01 0.90074712E+02 -.75410170E+03 0.76968472E+03 0.12500000E+03 0.0000E+00 0.9000E+01
       24  1    1    2    0    0 -.21211875E+02 -.75408956E+02 -.45966258E+03 0.47317371E+03 0.80419002E+02 0.0000E+00 0.9000E+01
        1  1    1    2  501    0 0.23807838E+02 -.14665756E+02 -.25077190E+02 0.37561488E+02 0.32000000E+00 0.0000E+00 0.9000E+01
#aMCatNLO 1  0  0  5  2 0.14565407D+01 0.00000000D+00  -5  6  0 0.00000000D+00 0.00000000D+00 0.00000000D+00 0.00000000D+00 0.00000000D+00
  <mgrwgt>
 0.1505413834D+00    5    2    0
 0.161823183392479D+03 0.000000000000000D+00 0.000000000000000D+00 0.161823183392479D+03
 0.161823183392479D+03 -.000000000000000D+00 -.000000000000000D+00 -.161823183392479D+03
 0.158528707449869D+03 -.259617793510911D+01 0.900748450552573D+02 -.372308102802867D+02
 0.112505410444696D+03 -.212120284187481D+02 -.754088621586459D+02 -.733517438507362D+01
 0.526122488903932D+02 0.238082063538572D+02 -.146659828966114D+02 0.445659846653604D+02
 0.000000000000000D+00 0.000000000000000D+00 0.000000000000000D+00 -.000000000000000D+00
 0.161823183392479D+03 0.000000000000000D+00 0.000000000000000D+00 0.161823183392479D+03
 0.161823183392479D+03 -.000000000000000D+00 -.000000000000000D+00 -.161823183392479D+03
 0.157550083504588D+03 -.135637932600253D+01 0.893111224578406D+02 -.349100623423545D+02
 0.112612616442146D+03 -.203290175220779D+02 -.759528016102623D+02 -.568228842233187D+01
 0.505215059435362D+02 0.229374745066308D+02 -.126832657816156D+02 0.431906192960153D+02
 0.296216089468767D+01 -.125207765855039D+01 -.675055065962751D+00 -.259826853132886D+01
0.437452344438D-05 0.000000000000D+00 0.000000000000D+00 0.131104483311D-05 0.000000000000D+00  6 21 2 25 24 1 21 2 0.31983419D-02 0.19378934D+00 0.21656615D+05 0.21656615D+05 0.21656615D+05 0.12300393D+01  1  2  2  3  6  5        1 0.890763153891D-01 0.100000000000D+01
0.387205213377D-06 0.230849944404D-06 -.883090247814D-08 0.131104483311D-05 0.000000000000D+00  6 21 2 25 24 1 21 4 0.31983419D-02 0.19378934D+00 0.21656615D+05 0.21656615D+05 0.21656615D+05 0.12300393D+01  1  2  3  3  6  5        1 0.119291816028D-01 0.100000000000D+01
0.380796783339D-06 0.000000000000D+00 0.000000000000D+00 0.131104483311D-05 0.000000000000D+00  6 21 2 25 24 1 21 4 0.31983419D-02 0.19378934D+00 0.21656615D+05 0.21656615D+05 0.21656615D+05 0.12300393D+01  1  2 15  3  6  5        1 0.117317479860D-01 0.100000000000D+01
-.110029607941D-04 0.000000000000D+00 0.000000000000D+00 0.131104483311D-05 0.000000000000D+00  6 21 2 25 24 1 21 4 0.31983419D-02 0.19378934D+00 0.21656615D+05 0.21656615D+05 0.21656615D+05 0.12300393D+01  1  2  4  3  6  5        1 -.338983859066D+00 0.100000000000D+01
0.122226966792D-04 0.000000000000D+00 0.000000000000D+00 0.131104483311D-05 0.581431607537D-05  6 21 2 25 24 1 21 4 0.31983419D-02 0.19378934D+00 0.21570193D+05 0.21570193D+05 0.21570193D+05 0.12302287D+01  1  2 11  3  6  5        1 0.376787997514D+00 0.100000000000D+01
  </mgrwgt>
  </event>
  <event>
  5     66 0.46027262E-03 0.23232996E+02 0.75467711E-02 0.11557717E+00
       21 -1    0    0  501  502 0.00000000E+00 0.00000000E+00 0.16521387E+02 0.16538402E+02 0.75000000E+00 0.0000E+00 0.9000E+01
        4 -1    0    0  502    0 0.00000000E+00 0.00000000E+00 -.20383736E+04 0.20383742E+04 0.15500000E+01 0.0000E+00 0.9000E+01
       25  1    1    2    0    0 0.72473336E+01 -.36948754E+02 -.11852451E+04 0.11924130E+04 0.12500000E+03 0.0000E+00 0.9000E+01
       24  1    1    2    0    0 0.15982509E+02 0.37322857E+02 -.83429719E+03 0.83914686E+03 0.80419002E+02 0.0000E+00 0.9000E+01
        3  1    1    2  501    0 -.23229843E+02 -.37410291E+00 -.23099147E+01 0.23352757E+02 0.50000000E+00 0.0000E+00 0.9000E+01
#aMCatNLO 1  0  0  2  1 0.31914751D+02 0.00000000D+00  -5  6  0 0.00000000D+00 0.00000000D+00 0.00000000D+00 0.00000000D+00 0.00000000D+00
  <mgrwgt>
 0.2402907402D-02    5    2    0
 0.183561562377911D+03 0.000000000000000D+00 0.000000000000000D+00 0.183561562377911D+03
 0.183561562377911D+03 0.000000000000000D+00 0.000000000000000D+00 -.183561562377911D+03
 0.146855531612909D+03 0.724741700795880D+01 -.369487522877441D+02 -.672592879563979D+02
 0.102275996633010D+03 0.159825671888442D+02 0.373228574790524D+02 -.484223645494245D+02
 0.117991596509903D+03 -.232299841968030D+02 -.374105191308229D+00 0.115681652505822D+03
 0.000000000000000D+00 0.000000000000000D+00 -.000000000000000D+00 -.000000000000000D+00
 0.200970264406173D+03 0.000000000000000D+00 0.000000000000000D+00 0.200970264406173D+03
 0.465542672558228D+03 0.000000000000000D+00 0.000000000000000D+00 -.465542672558228D+03
 0.145183005651933D+03 -.269013662772000D+02 -.143391006045557D+02 -.672592879563979D+02
 0.108461910695466D+03 -.865953379799143D+01 0.536382065619712D+02 -.484223645494245D+02
 0.128208380480056D+03 -.520187520689578D+02 0.186867207403868D+02 0.115681652505822D+03
 0.284659640136946D+03 0.875796521441492D+02 -.579858266978023D+02 -.264572408152055D+03
0.968875595255D-05 0.000000000000D+00 0.000000000000D+00 0.846676760280D-05 0.000000000000D+00  6 21 4 25 24 3 21 2 0.25431060D-02 0.31359730D+00 0.14867870D+05 0.14867870D+05 0.14867870D+05 0.12482608D+01  1  2  2  2  6  2        4 0.163243890613D-02 0.100000000000D+01
0.208435503946D-05 0.511289698507D-06 -.195588068139D-07 0.846676760280D-05 0.000000000000D+00  6 21 4 25 24 3 21 4 0.25431060D-02 0.31359730D+00 0.14867870D+05 0.14867870D+05 0.14867870D+05 0.12482608D+01  1  2  3  2  6  2        4 0.547206561278D-03 0.100000000000D+01
0.862172806827D-06 0.000000000000D+00 0.000000000000D+00 0.846676760280D-05 0.000000000000D+00  6 21 4 25 24 3 21 4 0.25431060D-02 0.31359730D+00 0.14867870D+05 0.14867870D+05 0.14867870D+05 0.12482608D+01  1  2 15  2  6  2        4 0.226346571443D-03 0.100000000000D+01
-.281050149282D-04 0.000000000000D+00 -.607265825340D-05 0.846676760280D-05 0.000000000000D+00  6 21 4 25 24 3 21 4 0.25431060D-02 0.80014831D+00 0.14867870D+05 0.14867870D+05 0.14867870D+05 0.12482608D+01  1  2  5  2  6  2        4 -.468322532651D-06 0.100000000000D+01
-.253670495356D-05 0.000000000000D+00 -.628220837025D-06 0.846676760280D-05 0.000000000000D+00  6 21 21 25 24 3 -4 4 0.25431060D-02 0.80014831D+00 0.14867870D+05 0.14867870D+05 0.14867870D+05 0.12482608D+01  1  2  5 10  6  2        4 -.261631466231D-05 0.100000000000D+01
  </mgrwgt>
  </event>
  <event>
  5     66 0.46027262E-03 0.21999236E+02 0.75467711E-02 0.12102714E+00
       21 -1    0    0  501  502 0.00000000E+00 0.00000000E+00 0.12579118E+03 0.12579341E+03 0.75000000E+00 0.0000E+00 0.9000E+01
        2 -1    0    0  502    0 0.00000000E+00 0.00000000E+00 -.57171947E+03 0.57171956E+03 0.32000000E+00 0.0000E+00 0.9000E+01
       25  1    1    2    0    0 -.28446461E+01 -.30348498E+02 -.26802567E+03 0.29730773E+03 0.12500000E+03 0.0000E+00 0.9000E+01
       24  1    1    2    0    0 -.77603310E+01 0.11074156E+02 -.28213099E+03 0.29368005E+03 0.80419002E+02 0.0000E+00 0.9000E+01
        1  1    1    2  501    0 0.10604977E+02 0.19274342E+02 0.10422836E+03 0.10652521E+03 0.32000000E+00 0.0000E+00 0.9000E+01
#aMCatNLO 1  0  0  1  1 0.58553530D+02 0.00000000D+00  -5  6  0 0.00000000D+00 0.00000000D+00 0.00000000D+00 0.00000000D+00 0.00000000D+00
  <mgrwgt>
 0.2779164590D+01    4    2    0
 0.268175459604323D+03 0.000000000000000D+00 0.000000000000000D+00 0.268175459604323D+03
 0.268175459604323D+03 0.000000000000000D+00 0.000000000000000D+00 -.268175459604323D+03
 0.163802813610227D+03 -.284464933138052D+01 -.303485040231604D+02 -.101376713402854D+03
 0.147357779755102D+03 -.776033396572542D+01 0.110741506459856D+02 -.122736464443918D+03
 0.225190325843316D+03 0.106049832971059D+02 0.192743533771748D+02 0.224113177846772D+03
 0.000000000000000D+00 0.000000000000000D+00 0.000000000000000D+00 -.000000000000000D+00
 0.274725765045406D+03 0.000000000000000D+00 0.000000000000000D+00 0.274725765045406D+03
 0.442682907012552D+03 0.000000000000000D+00 0.000000000000000D+00 -.442682907012552D+03
 0.166988844218049D+03 -.173489122925428D+02 -.410128189128861D+02 -.101376713402854D+03
 0.148199696666106D+03 -.207196793926774D+02 0.154574228991785D+01 -.122736464443918D+03
 0.224349061526935D+03 -.910602612986930D+01 0.478175820798381D+01 0.224113177846772D+03
 0.177871069646867D+03 0.471746178150895D+02 0.346853184149845D+02 -.167957141967146D+03
0.653005769188D-03 0.000000000000D+00 0.000000000000D+00 0.369901670261D-04 0.000000000000D+00  6 21 2 25 24 1 21 2 0.19352668D-01 0.87957021D-01 0.13480378D+05 0.13480378D+05 0.13480378D+05 0.12531459D+01  1  2  2  1  6  1       21 0.171034276444D+01 0.100000000000D+01
0.213094116366D-03 0.344600611768D-04 -.131823050869D-05 0.369901670261D-04 0.000000000000D+00  6 21 2 25 24 1 21 4 0.19352668D-01 0.87957021D-01 0.13480378D+05 0.13480378D+05 0.13480378D+05 0.12531459D+01  1  2  3  1  6  1       21 0.876477678686D+00 0.100000000000D+01
0.709253212664D-04 0.000000000000D+00 0.000000000000D+00 0.369901670261D-04 0.000000000000D+00  6 21 2 25 24 1 21 4 0.19352668D-01 0.87957021D-01 0.13480378D+05 0.13480378D+05 0.13480378D+05 0.12531459D+01  1  2 15  1  6  1       21 0.291723028321D+00 0.100000000000D+01
-.241615449768D-04 0.000000000000D+00 0.000000000000D+00 0.369901670261D-04 0.000000000000D+00  6 21 2 25 24 1 21 4 0.19352668D-01 0.87957021D-01 0.13480378D+05 0.13480378D+05 0.13480378D+05 0.12531459D+01  1  2  4  1  6  1       21 -.993788811061D-01 0.100000000000D+01
  </mgrwgt>
  </event>
  <event>
  5     66 0.46027262E-03 0.41939610E+02 0.75467711E-02 0.12112310E+00
       21 -1    0    0  501  502 0.00000000E+00 0.00000000E+00 0.18783739E+02 0.18798706E+02 0.75000000E+00 0.0000E+00 0.9000E+01
        2 -1    0    0  502    0 -.00000000E+00 -.00000000E+00 -.15690601E+04 0.15690601E+04 0.32000000E+00 0.0000E+00 0.9000E+01
       25  1    1    2    0    0 -.17924881E+02 -.40293928E+02 -.97133975E+03 0.98034219E+03 0.12500000E+03 0.0000E+00 0.9000E+01
       24  1    1    2    0    0 -.22876384E+02 0.49998234E+02 -.54479485E+03 0.55343635E+03 0.80419002E+02 0.0000E+00 0.9000E+01
        1  1    1    2  501    0 0.40801265E+02 -.97043060E+01 -.34141781E+02 0.54080314E+02 0.32000000E+00 0.0000E+00 0.9000E+01
#aMCatNLO 1  0  0  5  2 0.20920639D+02 0.00000000D+00  -5  6  0 0.00000000D+00 0.00000000D+00 0.00000000D+00 0.00000000D+00 0.00000000D+00
  <mgrwgt>
 0.6153024648D-01    6    2    0
 0.171711164967780D+03 0.000000000000000D+00 0.000000000000000D+00 0.171711164967780D+03
 0.171711164967780D+03 -.000000000000000D+00 -.000000000000000D+00 -.171711164967780D+03
 0.147922802990201D+03 -.179249784202895D+02 -.402939050664588D+02 -.656601249435703D+02
 0.995749029873889D+02 -.228764501321541D+02 0.499982499765525D+02 -.206103949309717D+02
 0.959246239579701D+02 0.408014285524436D+02 -.970434491009367D+01 0.862705198745420D+02
 0.000000000000000D+00 0.000000000000000D+00 0.000000000000000D+00 0.000000000000000D+00
 0.171711164967780D+03 0.000000000000000D+00 0.000000000000000D+00 0.171711164967780D+03
 0.171711164967780D+03 -.000000000000000D+00 -.000000000000000D+00 -.171711164967780D+03
 0.145828987900935D+03 -.157462548820128D+02 -.408120997824110D+02 -.610534329972714D+02
 0.984729418496130D+02 -.214075518492113D+02 0.496488824156300D+02 -.175045571451840D+02
 0.299106175183481D+02 0.125443309099543D+02 -.224224256631764D+02 0.153140337510992D+02
 0.692097826666640D+02 0.246094758212698D+02 0.135856430299574D+02 0.632439563913563D+02
0.539583247670D-05 0.000000000000D+00 0.000000000000D+00 0.160523082330D-05 0.000000000000D+00  6 21 2 25 24 1 21 2 0.28909598D-02 0.24139502D+00 0.18483717D+05 0.18483717D+05 0.18483717D+05 0.12376135D+01  1  2  2  3  6  5        1 0.900600709369D-01 0.100000000000D+01
0.320551977497D-06 0.284745902748D-06 -.108926311622D-07 0.160523082330D-05 0.000000000000D+00  6 21 2 25 24 1 21 4 0.28909598D-02 0.24139502D+00 0.18483717D+05 0.18483717D+05 0.18483717D+05 0.12376135D+01  1  2  3  3  6  5        1 0.819487621642D-02 0.100000000000D+01
0.481522649866D-06 0.000000000000D+00 0.000000000000D+00 0.160523082330D-05 0.000000000000D+00  6 21 2 25 24 1 21 4 0.28909598D-02 0.24139502D+00 0.18483717D+05 0.18483717D+05 0.18483717D+05 0.12376135D+01  1  2 15  3  6  5        1 0.123100738353D-01 0.100000000000D+01
-.319760350301D-05 0.000000000000D+00 0.000000000000D+00 0.160523082330D-05 0.000000000000D+00  6 21 2 25 24 1 21 4 0.28909598D-02 0.24139502D+00 0.18483717D+05 0.18483717D+05 0.18483717D+05 0.12376135D+01  1  2  4  3  6  5        1 -.817463835380D-01 0.100000000000D+01
-.149472887857D-05 0.000000000000D+00 0.000000000000D+00 0.160523082330D-05 0.000000000000D+00  6 21 2 25 24 1 21 4 0.28909598D-02 0.24139502D+00 0.18483717D+05 0.18483717D+05 0.18483717D+05 0.12376135D+01  1  2  5  3  6  5        1 -.382125801644D-01 0.100000000000D+01
0.277428096522D-05 0.000000000000D+00 -.000000000000D+00 0.160523082330D-05 0.000000000000D+00  6 21 2 25 24 1 21 4 0.28909598D-02 0.24139502D+00 0.18483717D+05 0.18483717D+05 0.18483717D+05 0.12376135D+01  1  2  6  3  6  5        1 0.709241891971D-01 0.100000000000D+01
  </mgrwgt>
  </event>
  <event>
  5     66 0.46027262E-03 0.37558855E+02 0.75467711E-02 0.11938132E+00
       21 -1    0    0  501  502 0.00000000E+00 0.00000000E+00 0.12574502E+02 0.12596849E+02 0.75000000E+00 0.0000E+00 0.9000E+01
        2 -1    0    0  502    0 0.00000000E+00 0.00000000E+00 -.20509603E+04 0.20509603E+04 0.32000000E+00 0.0000E+00 0.9000E+01
       25  1    1    2    0    0 0.57664400E+02 0.19342507E+02 -.71614269E+03 0.72950989E+03 0.12500000E+03 0.0000E+00 0.9000E+01
       24  1    1    2    0    0 -.96429881E+02 -.99650044E+01 -.11664016E+04 0.11731828E+04 0.80419002E+02 0.0000E+00 0.9000E+01
        1  1    1    2  501    0 0.38765481E+02 -.93775023E+01 -.15584150E+03 0.16086446E+03 0.32000000E+00 0.0000E+00 0.9000E+01
#aMCatNLO 1  0  0  1  2 0.61779820D+01 0.00000000D+00  -5  6  0 0.00000000D+00 0.00000000D+00 0.00000000D+00 0.00000000D+00 0.00000000D+00
  <mgrwgt>
 0.3062205456D+00   41    2    0
 0.160663896727112D+03 0.000000000000000D+00 0.000000000000000D+00 0.160663896727112D+03
 0.160663896727112D+03 0.000000000000000D+00 0.000000000000000D+00 -.160663896727112D+03
 0.141942886361070D+03 0.576639563387479D+02 0.193426139790797D+02 0.286969408183330D+02
 0.134919826882861D+03 -.964303022155854D+02 -.996490244501386D+01 -.483532963261345D+02
 0.444650802102934D+02 0.387663458768375D+02 -.937771153406580D+01 0.196563555078016D+02
 0.000000000000000D+00 0.000000000000000D+00 -.000000000000000D+00 0.000000000000000D+00
 0.171015116851743D+03 0.000000000000000D+00 0.000000000000000D+00 0.171015116851743D+03
 0.161618051596933D+03 0.000000000000000D+00 0.000000000000000D+00 -.161618051596933D+03
 0.141089778420912D+03 0.551540125132822D+02 0.203923040928626D+02 0.286969408183330D+02
 0.136581293297424D+03 -.988379838898136D+02 -.895797965059446D+01 -.483532963261345D+02
 0.437161064757604D+02 0.379843519496863D+02 -.905067182662673D+01 0.196563555078016D+02
 0.112459902545791D+02 0.569961942684506D+01 -.238365261564142D+01 0.939706525481039D+01
0.759227302306D-06 0.000000000000D+00 0.000000000000D+00 0.442567903889D-06 0.000000000000D+00  6 21 2 25 24 1 21 2 0.19362597D-02 0.31553408D+00 0.23233965D+05 0.23233965D+05 0.23233965D+05 0.12267236D+01  1  2  2  1  6  1       21 0.135117043164D-01 0.100000000000D+01
0.690992411916D-08 0.400655254808D-07 -.153266118027D-08 0.442567903889D-06 0.000000000000D+00  6 21 2 25 24 1 21 4 0.19362597D-02 0.31553408D+00 0.23233965D+05 0.23233965D+05 0.23233965D+05 0.12267236D+01  1  2  3  1  6  1       21 0.185056781686D-03 0.100000000000D+01
0.755821288658D-07 0.000000000000D+00 0.000000000000D+00 0.442567903889D-06 0.000000000000D+00  6 21 2 25 24 1 21 4 0.19362597D-02 0.31553408D+00 0.23233965D+05 0.23233965D+05 0.23233965D+05 0.12267236D+01  1  2 15  1  6  1       21 0.202418800549D-02 0.100000000000D+01
0.721153582011D-05 0.000000000000D+00 0.000000000000D+00 0.441197197039D-06 0.000000000000D+00  6 21 2 25 24 1 21 4 0.20665404D-02 0.31553408D+00 0.24196108D+05 0.24196108D+05 0.24196108D+05 0.12248224D+01  1  2 12  1  6  1       21 0.172662139709D+00 0.100000000000D+01
0.463578021858D-05 0.000000000000D+00 0.000000000000D+00 0.441197197039D-06 0.000000000000D+00  6 21 2 25 24 1 21 4 0.21347614D-02 0.31553408D+00 0.24196108D+05 0.24196108D+05 0.24196108D+05 0.12248224D+01  1  2 12  1  6  1       21 0.105290721364D+00 0.100000000000D+01
-.403985642100D-05 0.000000000000D+00 0.000000000000D+00 0.442567903889D-06 0.000000000000D+00  6 21 2 25 24 1 21 4 0.19362597D-02 0.31553408D+00 0.23233965D+05 0.23233965D+05 0.23233965D+05 0.12267236D+01  1  2  4  1  6  1       21 -.108192624818D+00 0.100000000000D+01
-.376895086111D-04 0.000000000000D+00 -.365343229814D-05 0.442567903889D-06 0.000000000000D+00  6 21 2 25 24 1 21 4 0.20745140D-02 0.31553408D+00 0.23233965D+05 0.23233965D+05 0.23233965D+05 0.12267236D+01  1  2  5  1  6  1       21 -.902682867159D+00 0.100000000000D+01
0.376151837852D-04 0.000000000000D+00 0.361890861725D-05 0.442567903889D-06 0.000000000000D+00  6 21 2 25 24 1 21 4 0.19362597D-02 0.31553408D+00 0.23233965D+05 0.23233965D+05 0.23233965D+05 0.12267236D+01  1  2  6  1  6  1       21 0.100738368957D+01 0.100000000000D+01
0.758769995545D-06 0.000000000000D+00 0.000000000000D+00 0.442567903889D-06 0.441266065003D-06  6 21 2 25 24 1 21 4 0.20610087D-02 0.31740798D+00 0.24196108D+05 0.24196108D+05 0.24196108D+05 0.12248224D+01  1  2 11  1  6  1       21 0.179838030981D-01 0.100000000000D+01
0.144769026761D-06 0.000000000000D+00 0.000000000000D+00 0.441197197039D-06 0.000000000000D+00  6 -1 2 25 24 1 -1 4 0.20665404D-02 0.31553408D+00 0.24196108D+05 0.24196108D+05 0.24196108D+05 0.12248224D+01  1  2 12  4  6  1       21 0.168470355584D-03 0.100000000000D+01
0.145617110184D-06 0.000000000000D+00 0.000000000000D+00 0.441197197039D-06 0.000000000000D+00  6 -1 2 25 24 1 -1 4 0.21347614D-02 0.31553408D+00 0.24196108D+05 0.24196108D+05 0.24196108D+05 0.12248224D+01  1  2 12  4  6  1       21 0.161666594138D-03 0.100000000000D+01
-.569986434755D-06 0.000000000000D+00 -.617956032293D-07 0.442567903889D-06 0.000000000000D+00  6 -1 2 25 24 1 -1 4 0.20745140D-02 0.31553408D+00 0.23233965D+05 0.23233965D+05 0.23233965D+05 0.12267236D+01  1  2  5  4  6  1       21 -.663584444903D-03 0.100000000000D+01
0.850119123022D-07 0.000000000000D+00 0.000000000000D+00 0.442567903889D-06 0.492099382932D-07  6 -1 2 25 24 1 -1 4 0.20610087D-02 0.31740798D+00 0.24196108D+05 0.24196108D+05 0.24196108D+05 0.12248224D+01  1  2 11  4  6  1       21 0.978874710048D-04 0.100000000000D+01
0.144769026761D-06 0.000000000000D+00 0.000000000000D+00 0.441197197039D-06 0.000000000000D+00  6 1 2 25 24 1 1 4 0.20665404D-02 0.31553408D+00 0.24196108D+05 0.24196108D+05 0.24196108D+05 0.12248224D+01  1  2 12  5  6  1       21 0.177302849133D-03 0.100000000000D+01
0.145617110184D-06 0.000000000000D+00 0.000000000000D+00 0.441197197039D-06 0.000000000000D+00  6 1 2 25 24 1 1 4 0.21347614D-02 0.31553408D+00 0.24196108D+05 0.24196108D+05 0.24196108D+05 0.12248224D+01  1  2 12  5  6  1       21 0.170421197539D-03 0.100000000000D+01
-.569986434755D-06 0.000000000000D+00 -.617956032293D-07 0.442567903889D-06 0.000000000000D+00  6 1 2 25 24 1 1 4 0.20745140D-02 0.31553408D+00 0.23233965D+05 0.23233965D+05 0.23233965D+05 0.12267236D+01  1  2  5  5  6  1       21 -.698540589470D-03 0.100000000000D+01
0.456493191381D-07 0.000000000000D+00 0.000000000000D+00 0.442567903889D-06 0.124457319522D-08  6 1 2 25 24 1 1 4 0.20610087D-02 0.31740798D+00 0.24196108D+05 0.24196108D+05 0.24196108D+05 0.12248224D+01  1  2 11  5  6  1       21 0.553115902781D-04 0.100000000000D+01
0.144769026761D-06 0.000000000000D+00 0.000000000000D+00 0.441197197039D-06 0.000000000000D+00  6 -2 2 25 24 1 -2 4 0.20665404D-02 0.31553408D+00 0.24196108D+05 0.24196108D+05 0.24196108D+05 0.12248224D+01  1  2 12  6  6  1       21 0.166886381859D-03 0.100000000000D+01
0.145617110184D-06 0.000000000000D+00 0.000000000000D+00 0.441197197039D-06 0.000000000000D+00  6 -2 2 25 24 1 -2 4 0.21347614D-02 0.31553408D+00 0.24196108D+05 0.24196108D+05 0.24196108D+05 0.12248224D+01  1  2 12  6  6  1       21 0.160096056237D-03 0.100000000000D+01
-.569986434755D-06 0.000000000000D+00 -.617956032293D-07 0.442567903889D-06 0.000000000000D+00  6 -2 2 25 24 1 -2 4 0.20745140D-02 0.31553408D+00 0.23233965D+05 0.23233965D+05 0.23233965D+05 0.12267236D+01  1  2  5  6  6  1       21 -.657314879273D-03 0.100000000000D+01
0.455829726137D-07 0.000000000000D+00 0.000000000000D+00 0.442567903889D-06 0.243368373414D-08  6 -2 2 25 24 1 -2 4 0.20610087D-02 0.31740798D+00 0.24196108D+05 0.24196108D+05 0.24196108D+05 0.12248224D+01  1  2 11  6  6  1       21 0.519946311317D-04 0.100000000000D+01
0.144769026761D-06 0.000000000000D+00 0.000000000000D+00 0.441197197039D-06 0.000000000000D+00  6 2 2 25 24 1 2 4 0.20665404D-02 0.31553408D+00 0.24196108D+05 0.24196108D+05 0.24196108D+05 0.12248224D+01  1  2 12  7  6  1       21 0.183374806700D-03 0.100000000000D+01
0.145617110184D-06 0.000000000000D+00 0.000000000000D+00 0.441197197039D-06 0.000000000000D+00  6 2 2 25 24 1 2 4 0.21347614D-02 0.31553408D+00 0.24196108D+05 0.24196108D+05 0.24196108D+05 0.12248224D+01  1  2 12  7  6  1       21 0.176434027263D-03 0.100000000000D+01
-.569986434755D-06 0.000000000000D+00 -.617956032293D-07 0.442567903889D-06 0.000000000000D+00  6 2 2 25 24 1 2 4 0.20745140D-02 0.31553408D+00 0.23233965D+05 0.23233965D+05 0.23233965D+05 0.12267236D+01  1  2  5  7  6  1       21 -.722567256009D-03 0.100000000000D+01
0.452350445872D-07 0.000000000000D+00 0.000000000000D+00 0.442567903889D-06 0.248557246265D-08  6 2 2 25 24 1 2 4 0.20610087D-02 0.31740798D+00 0.24196108D+05 0.24196108D+05 0.24196108D+05 0.12248224D+01  1  2 11  7  6  1       21 0.566820388072D-04 0.100000000000D+01
0.144769026761D-06 0.000000000000D+00 0.000000000000D+00 0.441197197039D-06 0.000000000000D+00  6 -3 2 25 24 1 -3 4 0.20665404D-02 0.31553408D+00 0.24196108D+05 0.24196108D+05 0.24196108D+05 0.12248224D+01  1  2 12  8  6  1       21 0.130467326891D-03 0.100000000000D+01
0.144769026761D-06 0.000000000000D+00 0.000000000000D+00 0.441197197039D-06 0.000000000000D+00  6 -4 2 25 24 1 -4 4 0.20665404D-02 0.31553408D+00 0.24196108D+05 0.24196108D+05 0.24196108D+05 0.12248224D+01  1  2 12  8  6  1       21 0.118739599706D-03 0.100000000000D+01
0.145617110184D-06 0.000000000000D+00 0.000000000000D+00 0.441197197039D-06 0.000000000000D+00  6 -3 2 25 24 1 -3 4 0.21347614D-02 0.31553408D+00 0.24196108D+05 0.24196108D+05 0.24196108D+05 0.12248224D+01  1  2 12  8  6  1       21 0.124870418401D-03 0.100000000000D+01
0.145617110184D-06 0.000000000000D+00 0.000000000000D+00 0.441197197039D-06 0.000000000000D+00  6 -4 2 25 24 1 -4 4 0.21347614D-02 0.31553408D+00 0.24196108D+05 0.24196108D+05 0.24196108D+05 0.12248224D+01  1  2 12  8  6  1       21 0.113579817647D-03 0.100000000000D+01
-.569986434755D-06 0.000000000000D+00 -.617956032293D-07 0.442567903889D-06 0.000000000000D+00  6 -3 2 25 24 1 -3 4 0.20745140D-02 0.31553408D+00 0.23233965D+05 0.23233965D+05 0.23233965D+05 0.12267236D+01  1  2  5  8  6  1       21 -.513320202184D-03 0.100000000000D+01
-.569986434755D-06 0.000000000000D+00 -.617956032293D-07 0.442567903889D-06 0.000000000000D+00  6 -4 2 25 24 1 -4 4 0.20745140D-02 0.31553408D+00 0.23233965D+05 0.23233965D+05 0.23233965D+05 0.12267236D+01  1  2  5  8  6  1       21 -.466969654918D-03 0.100000000000D+01
0.456268273117D-07 0.000000000000D+00 0.000000000000D+00 0.442567903889D-06 0.243602514496D-08  6 -3 2 25 24 1 -3 4 0.20610087D-02 0.31740798D+00 0.24196108D+05 0.24196108D+05 0.24196108D+05 0.12248224D+01  1  2 11  8  6  1       21 0.406948479302D-04 0.100000000000D+01
0.456268273117D-07 0.000000000000D+00 0.000000000000D+00 0.442567903889D-06 0.243602514496D-08  6 -4 2 25 24 1 -4 4 0.20610087D-02 0.31740798D+00 0.24196108D+05 0.24196108D+05 0.24196108D+05 0.12248224D+01  1  2 11  8  6  1       21 0.370385434084D-04 0.100000000000D+01
0.144769026761D-06 0.000000000000D+00 0.000000000000D+00 0.441197197039D-06 0.000000000000D+00  6 3 2 25 24 1 3 4 0.20665404D-02 0.31553408D+00 0.24196108D+05 0.24196108D+05 0.24196108D+05 0.12248224D+01  1  2 12  9  6  1       21 0.130459836494D-03 0.100000000000D+01
0.144769026761D-06 0.000000000000D+00 0.000000000000D+00 0.441197197039D-06 0.000000000000D+00  6 4 2 25 24 1 4 4 0.20665404D-02 0.31553408D+00 0.24196108D+05 0.24196108D+05 0.24196108D+05 0.12248224D+01  1  2 12  9  6  1       21 0.118739599706D-03 0.100000000000D+01
0.145617110184D-06 0.000000000000D+00 0.000000000000D+00 0.441197197039D-06 0.000000000000D+00  6 3 2 25 24 1 3 4 0.21347614D-02 0.31553408D+00 0.24196108D+05 0.24196108D+05 0.24196108D+05 0.12248224D+01  1  2 12  9  6  1       21 0.124863093332D-03 0.100000000000D+01
0.145617110184D-06 0.000000000000D+00 0.000000000000D+00 0.441197197039D-06 0.000000000000D+00  6 4 2 25 24 1 4 4 0.21347614D-02 0.31553408D+00 0.24196108D+05 0.24196108D+05 0.24196108D+05 0.12248224D+01  1  2 12  9  6  1       21 0.113579817647D-03 0.100000000000D+01
-.569986434755D-06 0.000000000000D+00 -.617956032293D-07 0.442567903889D-06 0.000000000000D+00  6 3 2 25 24 1 3 4 0.20745140D-02 0.31553408D+00 0.23233965D+05 0.23233965D+05 0.23233965D+05 0.12267236D+01  1  2  5  9  6  1       21 -.513290557849D-03 0.100000000000D+01
-.569986434755D-06 0.000000000000D+00 -.617956032293D-07 0.442567903889D-06 0.000000000000D+00  6 4 2 25 24 1 4 4 0.20745140D-02 0.31553408D+00 0.23233965D+05 0.23233965D+05 0.23233965D+05 0.12267236D+01  1  2  5  9  6  1       21 -.466969654918D-03 0.100000000000D+01
0.456268273117D-07 0.000000000000D+00 0.000000000000D+00 0.442567903889D-06 0.243602514496D-08  6 3 2 25 24 1 3 4 0.20610087D-02 0.31740798D+00 0.24196108D+05 0.24196108D+05 0.24196108D+05 0.12248224D+01  1  2 11  9  6  1       21 0.406925157150D-04 0.100000000000D+01
0.456268273117D-07 0.000000000000D+00 0.000000000000D+00 0.442567903889D-06 0.243602514496D-08  6 4 2 25 24 1 4 4 0.20610087D-02 0.31740798D+00 0.24196108D+05 0.24196108D+05 0.24196108D+05 0.12248224D+01  1  2 11  9  6  1       21 0.370385434084D-04 0.100000000000D+01
  </mgrwgt>
  </event>
  <event>
  5     66 -.46027262E-03 0.99390431E+02 0.75467711E-02 0.11432425E+00
       21 -1    0    0  501  502 0.00000000E+00 0.00000000E+00 0.50597324E+03 0.50597379E+03 0.75000000E+00 0.0000E+00 0.9000E+01
        2 -1    0    0  502    0 0.00000000E+00 0.00000000E+00 -.17260807E+03 0.17260837E+03 0.32000000E+00 0.0000E+00 0.9000E+01
       25  1    1    2    0    0 0.10009008E+03 0.44998561E+02 0.22599129E+03 0.28060641E+03 0.12500000E+03 0.0000E+00 0.9000E+01
       24  1    1    2    0    0 -.18317799E+02 0.39147864E+02 -.11482631E+03 0.14669831E+03 0.80419002E+02 0.0000E+00 0.9000E+01
        1  1    1    2  501    0 -.81772280E+02 -.84146425E+02 0.22220019E+03 0.25127744E+03 0.32000000E+00 0.0000E+00 0.9000E+01
#aMCatNLO 1  0  0  2  1 0.41321409D+02 0.00000000D+00  -5  6  0 0.00000000D+00 0.00000000D+00 0.00000000D+00 0.00000000D+00 0.00000000D+00
  <mgrwgt>
 -.1804962496D-01    7    2    0
 0.295525554480543D+03 0.000000000000000D+00 0.000000000000000D+00 0.295525554480543D+03
 0.295525554480543D+03 0.000000000000000D+00 0.000000000000000D+00 -.295525554480543D+03
 0.194698695561457D+03 0.100090130487367D+03 0.449986147913628D+02 0.101191266911792D+03
 0.233187952295894D+03 -.183177365204495D+02 0.391479274896702D+02 -.214572378100287D+03
 0.163164461103735D+03 -.817723939669172D+02 -.841465422810330D+02 0.113381111188496D+03
 0.000000000000000D+00 -.000000000000000D+00 0.000000000000000D+00 -.000000000000000D+00
 0.296377290476337D+03 0.000000000000000D+00 0.000000000000000D+00 0.296377290476337D+03
 0.356966179265155D+04 0.000000000000000D+00 0.000000000000000D+00 -.356966179265155D+04
 0.192702879416465D+03 0.101367443327830D+03 0.315336117398950D+02 0.101191266911792D+03
 0.230911521295720D+03 -.167875408393792D+02 0.230171184488143D+02 -.214572378100287D+03
 0.168879373275933D+03 -.806776027202008D+02 -.956874639806882D+02 0.113381111188496D+03
 0.327354530913976D+04 -.390229976825034D+01 0.411367337919789D+02 -.327328450217521D+04
0.424401542240D-05 0.000000000000D+00 0.000000000000D+00 0.868767079260D-07 0.000000000000D+00  6 21 2 25 24 1 21 2 0.77842102D-01 0.26555153D-01 0.35150457D+05 0.35150457D+05 0.35150457D+05 0.12077422D+01  1  2  2  2  6  2        2 0.224029312717D-02 0.100000000000D+01
-.222588051195D-06 0.223962846872D-06 -.856744438277D-08 0.868767079260D-07 0.000000000000D+00  6 21 2 25 24 1 21 4 0.77842102D-01 0.26555153D-01 0.35150457D+05 0.35150457D+05 0.35150457D+05 0.12077422D+01  1  2  3  2  6  2        2 -.171387142083D-03 0.100000000000D+01
0.465963230976D-06 0.000000000000D+00 0.000000000000D+00 0.868767079260D-07 0.000000000000D+00  6 21 2 25 24 1 21 4 0.77842102D-01 0.26555153D-01 0.35150457D+05 0.35150457D+05 0.35150457D+05 0.12077422D+01  1  2 15  2  6  2        2 0.358779844849D-03 0.100000000000D+01
0.104996547058D-01 0.000000000000D+00 0.000000000000D+00 0.855663645482D-07 0.000000000000D+00  6 21 2 25 24 1 21 4 0.77842102D-01 0.32005020D+00 0.43221022D+05 0.43221022D+05 0.43221022D+05 0.11985996D+01  1  2 12  2  6  2        2 0.273400675724D+00 0.100000000000D+01
-.107259250722D-01 0.000000000000D+00 -.103350620523D-04 0.868767079260D-07 0.000000000000D+00  6 21 2 25 24 1 21 4 0.77842102D-01 0.32081103D+00 0.35150457D+05 0.35150457D+05 0.35150457D+05 0.12077422D+01  1  2  5  2  6  2        2 -.291950941519D+00 0.100000000000D+01
0.304029402106D-02 0.000000000000D+00 0.000000000000D+00 0.855663645482D-07 0.000000000000D+00  6 21 21 25 24 1 -2 4 0.77842102D-01 0.32005020D+00 0.43221022D+05 0.43221022D+05 0.43221022D+05 0.11985996D+01  1  2 12 10  6  2        2 0.233756334197D-01 0.100000000000D+01
-.310974929412D-02 0.000000000000D+00 -.299453264176D-05 0.868767079260D-07 0.000000000000D+00  6 21 21 25 24 1 -2 4 0.77842102D-01 0.32081103D+00 0.35150457D+05 0.35150457D+05 0.35150457D+05 0.12077422D+01  1  2  5 10  6  2        2 -.253026784115D-01 0.100000000000D+01
  </mgrwgt>
  </event>
  <event>
  6     66 -.46027262E-03 0.13319334E+02 0.75467711E-02 0.12127329E+00
       21 -1    0    0  501  502 0.00000000E+00 0.00000000E+00 0.48796221E+02 0.48801984E+02 0.75000000E+00 0.0000E+00 0.9000E+01
        2 -1    0    0  503    0 0.00000000E+00 0.00000000E+00 -.87468004E+03 0.87468010E+03 0.32000000E+00 0.0000E+00 0.9000E+01
       25  1    1    2    0    0 0.89597675E+02 0.28888707E+02 -.50390133E+03 0.52763988E+03 0.12500000E+03 0.0000E+00 0.9000E+01
       24  1    1    2    0    0 -.62080134E+02 -.13549593E+02 -.27969577E+03 0.29788333E+03 0.80419002E+02 0.0000E+00 0.9000E+01
        1  1    1    2  501    0 -.18632314E+02 -.62824554E+01 0.23678767E+02 0.30780168E+02 0.32000000E+00 0.0000E+00 0.9000E+01
       21  1    1    2  503  502 -.88852280E+01 -.90566587E+01 -.65965486E+02 0.67178704E+02 0.75000000E+00 0.0000E+00 0.9000E+01
#aMCatNLO 2  0  0  2  1 0.12687409D+02 0.00000000D+00  -5  6  0 0.00000000D+00 0.00000000D+00 0.00000000D+00 0.00000000D+00 0.00000000D+00
  <mgrwgt>
 -.1101056683D+01    2    2    0
 0.197242639014810D+03 0.000000000000000D+00 0.000000000000000D+00 0.197242639014810D+03
 0.197242639014810D+03 0.000000000000000D+00 0.000000000000000D+00 -.197242639014810D+03
 0.171966548656695D+03 0.856962381309681D+02 0.249119740238417D+02 -.773501271966078D+02
 0.109527210393030D+03 -.645265462740892D+02 -.160432208555477D+02 -.332856388345846D+02
 0.112991518979895D+03 -.211696918568789D+02 -.886875316829403D+01 0.110635766031192D+03
 0.000000000000000D+00 -.000000000000000D+00 -.000000000000000D+00 -.000000000000000D+00
 0.199821202100784D+03 0.000000000000000D+00 0.000000000000000D+00 0.199821202100784D+03
 0.213593905507060D+03 0.000000000000000D+00 0.000000000000000D+00 -.213593905507060D+03
 0.174557586804220D+03 0.895977147240128D+02 0.288887253061782D+02 -.773501271966078D+02
 0.107762149717406D+03 -.620801096030593D+02 -.135495828862677D+02 -.332856388345846D+02
 0.112369514567566D+03 -.186323771148616D+02 -.628248373584458D+01 0.110635766031192D+03
 0.187258565186525D+02 -.888522800609199D+01 -.905665868406589D+01 -.137727034062763D+02
-.864093631324D-04 0.000000000000D+00 0.000000000000D+00 0.506120827646D-05 0.000000000000D+00  6 21 2 25 24 1 21 4 0.74104027D-02 0.13533159D+00 0.21217903D+05 0.21217903D+05 0.21217903D+05 0.12310097D+01  1  2 13  2  6  2        2 -.108303884285D+01 0.100000000000D+01
-.127502489375D-05 0.000000000000D+00 0.000000000000D+00 0.508986505348D-05 0.000000000000D+00  6 21 2 25 24 1 21 4 0.74104027D-02 0.12426050D+00 0.19724494D+05 0.19724494D+05 0.19724494D+05 0.12344898D+01  1  2  8  2  6  2        2 -.180178396717D-01 0.100000000000D+01
  </mgrwgt>
  </event>
  <event>
  5     66 0.46027262E-03 0.43824184E+02 0.75467711E-02 0.11952392E+00
       21 -1    0    0  501  502 0.00000000E+00 0.00000000E+00 0.14074712E+03 0.14074912E+03 0.75000000E+00 0.0000E+00 0.9000E+01
        2 -1    0    0  502    0 0.00000000E+00 0.00000000E+00 -.29729735E+03 0.29729752E+03 0.32000000E+00 0.0000E+00 0.9000E+01
       25  1    1    2    0    0 -.28785587E+02 0.14577663E+02 -.12739522E+03 0.18137161E+03 0.12500000E+03 0.0000E+00 0.9000E+01
       24  1    1    2    0    0 0.60169907E+02 0.16009543E+02 -.11910283E+03 0.15661872E+03 0.80419002E+02 0.0000E+00 0.9000E+01
        1  1    1    2  501    0 -.31384320E+02 -.30587206E+02 0.89947825E+02 0.10005632E+03 0.32000000E+00 0.0000E+00 0.9000E+01
#aMCatNLO 1  0  0  1  2 0.32344980D+02 0.00000000D+00  -5  6  0 0.00000000D+00 0.00000000D+00 0.00000000D+00 0.00000000D+00 0.00000000D+00
  <mgrwgt>
 0.8007889363D-01   23    2    0
 0.204558603027706D+03 0.000000000000000D+00 0.000000000000000D+00 0.204558603027706D+03
 0.204558603027706D+03 0.000000000000000D+00 0.000000000000000D+00 -.204558603027706D+03
 0.145448530152254D+03 -.287855580846305D+02 0.145776906563650D+02 -.670011753951735D+02
 0.122118447152500D+03 0.601699309736832D+02 0.160095661959611D+02 -.675941741380632D+02
 0.141550228750657D+03 -.313843728890527D+02 -.305872568523261D+02 0.134595349533237D+03
 0.000000000000000D+00 -.000000000000000D+00 0.000000000000000D+00 0.000000000000000D+00
 0.318661074029467D+03 0.000000000000000D+00 0.000000000000000D+00 0.318661074029467D+03
 0.207502037093403D+03 0.000000000000000D+00 0.000000000000000D+00 -.207502037093403D+03
 0.143406926604586D+03 -.199049491665088D+02 0.742846501755423D+01 -.670011753951735D+02
 0.125411306926892D+03 0.677800172301751D+02 0.988315929300064D+01 -.675941741380632D+02
 0.141575584635376D+03 -.226799168557951D+02 -.375946727647508D+02 0.134595349533237D+03
 0.115769292956016D+03 -.251951512078713D+02 0.202830484541959D+02 0.111159036936063D+03
0.387395156149D-05 0.000000000000D+00 0.000000000000D+00 0.291884824787D-05 0.000000000000D+00  6 21 2 25 24 1 21 2 0.21653571D-01 0.45738221D-01 0.18854953D+05 0.18854953D+05 0.18854953D+05 0.12366549D+01  1  2  2  1  6  1       21 0.161873232819D-01 0.100000000000D+01
0.370970230285D-06 0.204434040408D-06 -.782039206772D-08 0.291884824787D-05 0.000000000000D+00  6 21 2 25 24 1 21 4 0.21653571D-01 0.45738221D-01 0.18854953D+05 0.18854953D+05 0.18854953D+05 0.12366549D+01  1  2  3  1  6  1       21 0.237059270792D-02 0.100000000000D+01
0.396822225604D-06 0.000000000000D+00 0.000000000000D+00 0.291884824787D-05 0.000000000000D+00  6 21 2 25 24 1 21 4 0.21653571D-01 0.45738221D-01 0.18854953D+05 0.18854953D+05 0.18854953D+05 0.12366549D+01  1  2 15  1  6  1       21 0.253579343451D-02 0.100000000000D+01
0.405903821653D-04 0.000000000000D+00 0.000000000000D+00 0.286667976147D-05 0.000000000000D+00  6 21 2 25 24 1 21 4 0.33815965D-01 0.45738221D-01 0.23820832D+05 0.23820832D+05 0.23820832D+05 0.12255537D+01  1  2 12  1  6  1       21 0.106429793587D+00 0.100000000000D+01
-.213648362390D-04 0.000000000000D+00 0.000000000000D+00 0.291884824787D-05 0.000000000000D+00  6 21 2 25 24 1 21 4 0.21653571D-01 0.45738221D-01 0.18854953D+05 0.18854953D+05 0.18854953D+05 0.12366549D+01  1  2  4  1  6  1       21 -.136526655939D+00 0.100000000000D+01
-.929905297220D-04 0.000000000000D+00 -.483979767033D-05 0.291884824787D-05 0.000000000000D+00  6 21 2 25 24 1 21 4 0.34006525D-01 0.45738221D-01 0.18854953D+05 0.18854953D+05 0.18854953D+05 0.12366549D+01  1  2  5  1  6  1       21 -.250790270887D+00 0.100000000000D+01
0.566570656829D-04 0.000000000000D+00 0.332084113946D-05 0.291884824787D-05 0.000000000000D+00  6 21 2 25 24 1 21 4 0.21653571D-01 0.45738221D-01 0.18854953D+05 0.18854953D+05 0.18854953D+05 0.12366549D+01  1  2  6  1  6  1       21 0.362052843584D+00 0.100000000000D+01
0.670608092596D-05 0.000000000000D+00 0.000000000000D+00 0.286667976147D-05 0.000000000000D+00  6 -1 2 25 24 1 -1 4 0.33815965D-01 0.45738221D-01 0.23820832D+05 0.23820832D+05 0.23820832D+05 0.12255537D+01  1  2 12  4  6  1       21 0.157342737015D-02 0.100000000000D+01
-.177640874499D-04 0.000000000000D+00 -.748406925378D-06 0.291884824787D-05 0.000000000000D+00  6 -1 2 25 24 1 -1 4 0.34006525D-01 0.45738221D-01 0.18854953D+05 0.18854953D+05 0.18854953D+05 0.12366549D+01  1  2  5  4  6  1       21 -.427285831404D-02 0.100000000000D+01
0.670608092596D-05 0.000000000000D+00 0.000000000000D+00 0.286667976147D-05 0.000000000000D+00  6 1 2 25 24 1 1 4 0.33815965D-01 0.45738221D-01 0.23820832D+05 0.23820832D+05 0.23820832D+05 0.12255537D+01  1  2 12  5  6  1       21 0.291908539396D-02 0.100000000000D+01
-.177640874499D-04 0.000000000000D+00 -.748406925378D-06 0.291884824787D-05 0.000000000000D+00  6 1 2 25 24 1 1 4 0.34006525D-01 0.45738221D-01 0.18854953D+05 0.18854953D+05 0.18854953D+05 0.12366549D+01  1  2  5  5  6  1       21 -.794725034946D-02 0.100000000000D+01
0.670608092596D-05 0.000000000000D+00 0.000000000000D+00 0.286667976147D-05 0.000000000000D+00  6 -2 2 25 24 1 -2 4 0.33815965D-01 0.45738221D-01 0.23820832D+05 0.23820832D+05 0.23820832D+05 0.12255537D+01  1  2 12  6  6  1       21 0.136092020832D-02 0.100000000000D+01
-.177640874499D-04 0.000000000000D+00 -.748406925378D-06 0.291884824787D-05 0.000000000000D+00  6 -2 2 25 24 1 -2 4 0.34006525D-01 0.45738221D-01 0.18854953D+05 0.18854953D+05 0.18854953D+05 0.12366549D+01  1  2  5  6  6  1       21 -.369144457873D-02 0.100000000000D+01
0.670608092596D-05 0.000000000000D+00 0.000000000000D+00 0.286667976147D-05 0.000000000000D+00  6 2 2 25 24 1 2 4 0.33815965D-01 0.45738221D-01 0.23820832D+05 0.23820832D+05 0.23820832D+05 0.12255537D+01  1  2 12  7  6  1       21 0.391116418757D-02 0.100000000000D+01
-.177640874499D-04 0.000000000000D+00 -.748406925378D-06 0.291884824787D-05 0.000000000000D+00  6 2 2 25 24 1 2 4 0.34006525D-01 0.45738221D-01 0.18854953D+05 0.18854953D+05 0.18854953D+05 0.12366549D+01  1  2  5  7  6  1       21 -.106521751285D-01 0.100000000000D+01
0.670608092596D-05 0.000000000000D+00 0.000000000000D+00 0.286667976147D-05 0.000000000000D+00  6 -3 2 25 24 1 -3 4 0.33815965D-01 0.45738221D-01 0.23820832D+05 0.23820832D+05 0.23820832D+05 0.12255537D+01  1  2 12  8  6  1       21 0.864782331518D-03 0.100000000000D+01
0.670608092596D-05 0.000000000000D+00 0.000000000000D+00 0.286667976147D-05 0.000000000000D+00  6 -4 2 25 24 1 -4 4 0.33815965D-01 0.45738221D-01 0.23820832D+05 0.23820832D+05 0.23820832D+05 0.12255537D+01  1  2 12  8  6  1       21 0.723355235643D-03 0.100000000000D+01
-.177640874499D-04 0.000000000000D+00 -.748406925378D-06 0.291884824787D-05 0.000000000000D+00  6 -3 2 25 24 1 -3 4 0.34006525D-01 0.45738221D-01 0.18854953D+05 0.18854953D+05 0.18854953D+05 0.12366549D+01  1  2  5  8  6  1       21 -.233292155122D-02 0.100000000000D+01
-.177640874499D-04 0.000000000000D+00 -.748406925378D-06 0.291884824787D-05 0.000000000000D+00  6 -4 2 25 24 1 -4 4 0.34006525D-01 0.45738221D-01 0.18854953D+05 0.18854953D+05 0.18854953D+05 0.12366549D+01  1  2  5  8  6  1       21 -.194585390780D-02 0.100000000000D+01
0.670608092596D-05 0.000000000000D+00 0.000000000000D+00 0.286667976147D-05 0.000000000000D+00  6 3 2 25 24 1 3 4 0.33815965D-01 0.45738221D-01 0.23820832D+05 0.23820832D+05 0.23820832D+05 0.12255537D+01  1  2 12  9  6  1       21 0.864854512554D-03 0.100000000000D+01
0.670608092596D-05 0.000000000000D+00 0.000000000000D+00 0.286667976147D-05 0.000000000000D+00  6 4 2 25 24 1 4 4 0.33815965D-01 0.45738221D-01 0.23820832D+05 0.23820832D+05 0.23820832D+05 0.12255537D+01  1  2 12  9  6  1       21 0.723355235643D-03 0.100000000000D+01
-.177640874499D-04 0.000000000000D+00 -.748406925378D-06 0.291884824787D-05 0.000000000000D+00  6 3 2 25 24 1 3 4 0.34006525D-01 0.45738221D-01 0.18854953D+05 0.18854953D+05 0.18854953D+05 0.12366549D+01  1  2  5  9  6  1       21 -.233311287163D-02 0.100000000000D+01
-.177640874499D-04 0.000000000000D+00 -.748406925378D-06 0.291884824787D-05 0.000000000000D+00  6 4 2 25 24 1 4 4 0.34006525D-01 0.45738221D-01 0.18854953D+05 0.18854953D+05 0.18854953D+05 0.12366549D+01  1  2  5  9  6  1       21 -.194585390780D-02 0.100000000000D+01
  </mgrwgt>
  </event>
  <event>
  5     66 0.46027262E-03 0.28619430E+02 0.75467711E-02 0.12362507E+00
       21 -1    0    0  501  502 0.00000000E+00 0.00000000E+00 0.38435292E+02 0.38442609E+02 0.75000000E+00 0.0000E+00 0.9000E+01
        2 -1    0    0  502    0 -.00000000E+00 -.00000000E+00 -.60388313E+03 0.60388322E+03 0.32000000E+00 0.0000E+00 0.9000E+01
       25  1    1    2    0    0 0.20044896E+02 0.49161336E+02 -.28050577E+03 0.31165224E+03 0.12500000E+03 0.0000E+00 0.9000E+01
       24  1    1    2    0    0 -.99120172E+01 -.22395996E+02 -.28970812E+03 0.30165848E+03 0.80419002E+02 0.0000E+00 0.9000E+01
        1  1    1    2  501    0 -.10132879E+02 -.26765339E+02 0.47660465E+01 0.29015103E+02 0.32000000E+00 0.0000E+00 0.9000E+01
#aMCatNLO 1  0  0  5  1 0.17400150D+00 0.00000000D+00  -5  6  0 0.00000000D+00 0.00000000D+00 0.00000000D+00 0.00000000D+00 0.00000000D+00
  <mgrwgt>
 0.1585530232D+00    7    2    0
 0.152357480412686D+03 0.000000000000000D+00 0.000000000000000D+00 0.152357480412686D+03
 0.152357480412686D+03 -.000000000000000D+00 -.000000000000000D+00 -.152357480412686D+03
 0.136425623399788D+03 0.200449433882246D+02 0.491614607130330D+02 -.129731162464728D+02
 0.982827663825411D+02 -.991198303962712D+01 -.223959062838118D+02 -.509162271518960D+02
 0.700065710430424D+02 -.101329603485975D+02 -.267655544292212D+02 0.638893433983688D+02
 0.000000000000000D+00 0.000000000000000D+00 -.000000000000000D+00 0.000000000000000D+00
 0.152357480412686D+03 0.000000000000000D+00 0.000000000000000D+00 0.152357480412686D+03
 0.152357480412686D+03 -.000000000000000D+00 -.000000000000000D+00 -.152357480412686D+03
 0.136425508187257D+03 0.200448755498874D+02 0.491612815224861D+02 -.129726885188718D+02
 0.982826410933453D+02 -.991203191122357D+01 -.223960353749490D+02 -.509159190115204D+02
 0.495927711633990D+02 -.729497638799925D+01 -.188361479353616D+02 0.452926683042737D+02
 0.204140403813702D+02 -.283786725066458D+01 -.792909821217551D+01 0.185959392261185D+02
0.528033306593D-07 0.000000000000D+00 0.000000000000D+00 0.230947971981D-05 0.000000000000D+00  6 21 2 25 24 1 21 2 0.59136913D-02 0.92905667D-01 0.15437133D+05 0.15437133D+05 0.15437133D+05 0.12464028D+01  1  2  2  3  6  5        1 0.103402001678D-02 0.100000000000D+01
0.486814171773D-08 0.278650831388D-08 -.106594711287D-09 0.230947971981D-05 0.000000000000D+00  6 21 2 25 24 1 21 4 0.59136913D-02 0.92905667D-01 0.15437133D+05 0.15437133D+05 0.15437133D+05 0.12464028D+01  1  2  3  3  6  5        1 0.148097489161D-03 0.100000000000D+01
0.537417000153D-08 0.000000000000D+00 0.000000000000D+00 0.230947971981D-05 0.000000000000D+00  6 21 2 25 24 1 21 4 0.59136913D-02 0.92905667D-01 0.15437133D+05 0.15437133D+05 0.15437133D+05 0.12464028D+01  1  2 15  3  6  5        1 0.163491765380D-03 0.100000000000D+01
-.489390518441D-03 0.000000000000D+00 0.000000000000D+00 0.230947971981D-05 0.000000000000D+00  6 21 2 25 24 1 21 4 0.59136913D-02 0.92905667D-01 0.15437133D+05 0.15437133D+05 0.15437133D+05 0.12464028D+01  1  2  4  3  6  5        1 -.148881259427D+02 0.100000000000D+01
-.369435078326D-03 0.000000000000D+00 0.000000000000D+00 0.230947971981D-05 0.000000000000D+00  6 21 2 25 24 1 21 4 0.59136913D-02 0.92905667D-01 0.15437133D+05 0.15437133D+05 0.15437133D+05 0.12464028D+01  1  2  5  3  6  5        1 -.112388690964D+02 0.100000000000D+01
0.504102142633D-03 0.000000000000D+00 -.000000000000D+00 0.230947971981D-05 0.000000000000D+00  6 21 2 25 24 1 21 4 0.59136913D-02 0.92905667D-01 0.15437133D+05 0.15437133D+05 0.15437133D+05 0.12464028D+01  1  2  6  3  6  5        1 0.153356795947D+02 0.100000000000D+01
0.359891720414D-03 0.000000000000D+00 0.000000000000D+00 0.230947971981D-05 0.327507267896D-03  6 21 2 25 24 1 21 4 0.59136913D-02 0.92905667D-01 0.15437333D+05 0.15437333D+05 0.15437333D+05 0.12464022D+01  1  2 11  3  6  5        1 0.109485228583D+02 0.100000000000D+01
  </mgrwgt>
  </event>
  <event>
  6     66 -.46027262E-03 0.28175412E+02 0.75467711E-02 0.11519988E+00
       21 -1    0    0  501  503 0.00000000E+00 0.00000000E+00 0.27096844E+03 0.27096948E+03 0.75000000E+00 0.0000E+00 0.9000E+01
        2 -1    0    0  502    0 0.00000000E+00 0.00000000E+00 -.35920282E+03 0.35920297E+03 0.32000000E+00 0.0000E+00 0.9000E+01
       25  1    1    2    0    0 0.79775758E+02 0.85725000E+02 -.11303970E+03 0.20522164E+03 0.12500000E+03 0.0000E+00 0.9000E+01
       24  1    1    2    0    0 -.94448616E+02 -.12711231E+03 -.11775391E+03 0.21309922E+03 0.80419002E+02 0.0000E+00 0.9000E+01
        1  1    1    2  501    0 0.16498821E+02 0.29783031E+02 -.26025530E+02 0.42856396E+02 0.32000000E+00 0.0000E+00 0.9000E+01
       21  1    1    2  502  503 -.18259636E+01 0.11604282E+02 0.16858475E+03 0.16899519E+03 0.75000000E+00 0.0000E+00 0.9000E+01
#aMCatNLO 2  0  0  1  5 0.11747063D+02 0.00000000D+00  -5  6  0 0.00000000D+00 0.00000000D+00 0.00000000D+00 0.00000000D+00 0.00000000D+00
  <mgrwgt>
 -.2078460530D+00    3    2    0
 0.191435629920691D+03 0.000000000000000D+00 0.000000000000000D+00 0.191435629920691D+03
 0.191435629920691D+03 0.000000000000000D+00 0.000000000000000D+00 -.191435629920691D+03
 0.173587678016175D+03 0.789532579796501D+02 0.909495643122559D+02 0.149725243587424D+01
 0.174295387240900D+03 -.952878780946990D+02 -.121781236087870D+03 0.110312474583695D+01
 0.349881945843070D+02 0.163346201150490D+02 0.308316717756141D+02 -.260037718171120D+01
 0.000000000000000D+00 -.000000000000000D+00 0.000000000000000D+00 0.000000000000000D+00
 0.507906572326672D+03 0.000000000000000D+00 0.000000000000000D+00 0.507906572326672D+03
 0.191634753740565D+03 0.000000000000000D+00 0.000000000000000D+00 -.191634753740565D+03
 0.171289349546098D+03 0.797754465763768D+02 0.857244284122574D+02 0.149725243587424D+01
 0.177613979805223D+03 -.944489243646933D+02 -.127112917006996D+03 0.110312474583695D+01
 0.341480968378732D+02 0.164994413872255D+02 0.297842070579545D+02 -.260037718171120D+01
 0.316489899878042D+03 -.182596359890903D+01 0.116042815367836D+02 0.316271818586107D+03
-.758546995150D-03 0.000000000000D+00 0.000000000000D+00 0.236356116404D-06 0.000000000000D+00  6 21 2 25 24 1 21 4 0.41679709D-01 0.55204514D-01 0.38944924D+05 0.38944924D+05 0.38944924D+05 0.12031810D+01  1  2 13  1  6  1       21 -.984526606812D+00 0.100000000000D+01
-.757757706305D-03 0.000000000000D+00 0.000000000000D+00 0.236356116404D-06 0.000000000000D+00  6 21 2 25 24 1 21 4 0.41788422D-01 0.55204514D-01 0.38944924D+05 0.38944924D+05 0.38944924D+05 0.12031810D+01  1  2 13  1  6  1       21 -.978306277451D+00 0.100000000000D+01
0.135418839687D-02 0.000000000000D+00 0.000000000000D+00 0.237427447389D-06 0.104918562383D-06  6 21 2 25 24 1 21 4 0.41687447D-01 0.55261936D-01 0.38944924D+05 0.38944924D+05 0.38944924D+05 0.12031810D+01  1  2  1  1  6  1       21 0.175498683122D+01 0.100000000000D+01
  </mgrwgt>
  </event>
  <event>
  5     66 0.46027262E-03 0.79716998E+02 0.75467711E-02 0.10269562E+00
       21 -1    0    0  501  502 0.00000000E+00 0.00000000E+00 0.68164257E+02 0.68168383E+02 0.75000000E+00 0.0000E+00 0.9000E+01
        2 -1    0    0  502    0 0.00000000E+00 0.00000000E+00 -.77200300E+03 0.77200307E+03 0.32000000E+00 0.0000E+00 0.9000E+01
       25  1    1    2    0    0 -.83926284E+02 0.71604574E+02 -.28139029E+03 0.32707236E+03 0.12500000E+03 0.0000E+00 0.9000E+01
       24  1    1    2    0    0 0.11780977E+03 0.55275115E+00 -.40782587E+03 0.43205162E+03 0.80419002E+02 0.0000E+00 0.9000E+01
        1  1    1    2  501    0 -.33883483E+02 -.72157325E+02 -.14622589E+02 0.81047471E+02 0.32000000E+00 0.0000E+00 0.9000E+01
#aMCatNLO 1  0  0  1  5 0.10101841D+03 0.00000000D+00  -5  6  0 0.00000000D+00 0.00000000D+00 0.00000000D+00 0.00000000D+00 0.00000000D+00
  <mgrwgt>
 0.1105994348D+00   12    2    0
 0.229400898662633D+03 0.000000000000000D+00 0.000000000000000D+00 0.229400898662633D+03
 0.229400898662633D+03 0.000000000000000D+00 0.000000000000000D+00 -.229400898662633D+03
 0.167269367002880D+03 -.839262441116232D+02 0.716046588522661D+02 -.135351216289644D+02
 0.165548235656023D+03 0.117809806340856D+03 0.552835138761473D+00 -.840211061441756D+02
 0.125984194666364D+03 -.338835622292326D+02 -.721574939910276D+02 0.975562277731400D+02
 0.000000000000000D+00 0.000000000000000D+00 0.000000000000000D+00 0.000000000000000D+00
 0.521001171781964D+03 0.000000000000000D+00 0.000000000000000D+00 0.521001171781964D+03
 0.451925089141369D+03 0.000000000000000D+00 0.000000000000000D+00 -.451925089141369D+03
 0.278006702110002D+03 -.241713254928951D+03 0.552650820339609D+02 -.135351216289644D+02
 0.118000946468568D+03 0.173319658041459D+02 -.985211128542610D+01 -.840211061441756D+02
 0.196181677330161D+03 -.148045524786450D+03 -.839794947201731D+02 0.975562277731400D+02
 0.380736935014602D+03 0.372426813911254D+03 0.385665239716383D+02 0.690760826405943D+02
0.158997406952D-04 0.000000000000D+00 0.000000000000D+00 0.315553888133D-06 0.000000000000D+00  6 21 2 25 24 1 21 2 0.10487131D-01 0.11877002D+00 0.37845735D+05 0.37845735D+05 0.37845735D+05 0.12044495D+01  1  2  2  1  6  1       21 0.807175304375D-01 0.100000000000D+01
-.156114697863D-07 0.839052368149D-06 -.320969955453D-07 0.315553888133D-06 0.000000000000D+00  6 21 2 25 24 1 21 4 0.10487131D-01 0.11877002D+00 0.37845735D+05 0.37845735D+05 0.37845735D+05 0.12044495D+01  1  2  3  1  6  1       21 -.114973780679D-03 0.100000000000D+01
0.162251609055D-05 0.000000000000D+00 0.000000000000D+00 0.315553888133D-06 0.000000000000D+00  6 21 2 25 24 1 21 4 0.10487131D-01 0.11877002D+00 0.37845735D+05 0.37845735D+05 0.37845735D+05 0.12044495D+01  1  2 15  1  6  1       21 0.119493431238D-01 0.100000000000D+01
0.315875439432D-04 0.000000000000D+00 -.886995266387D-04 0.315553888133D-06 0.000000000000D+00  6 21 2 25 24 1 21 4 0.47060034D-01 0.11877002D+00 0.37845735D+05 0.37845735D+05 0.37845735D+05 0.12044495D+01  1  2  5  1  6  1       21 0.134672246903D-01 0.100000000000D+01
0.120404354826D-04 0.000000000000D+00 -.359414622760D-04 0.315553888133D-06 0.000000000000D+00  6 -1 2 25 24 1 -1 4 0.47060034D-01 0.11877002D+00 0.37845735D+05 0.37845735D+05 0.37845735D+05 0.12044495D+01  1  2  5  4  6  1       21 0.504515967562D-03 0.100000000000D+01
0.120404354826D-04 0.000000000000D+00 -.359414622760D-04 0.315553888133D-06 0.000000000000D+00  6 1 2 25 24 1 1 4 0.47060034D-01 0.11877002D+00 0.37845735D+05 0.37845735D+05 0.37845735D+05 0.12044495D+01  1  2  5  5  6  1       21 0.111111294979D-02 0.100000000000D+01
0.120404354826D-04 0.000000000000D+00 -.359414622760D-04 0.315553888133D-06 0.000000000000D+00  6 -2 2 25 24 1 -2 4 0.47060034D-01 0.11877002D+00 0.37845735D+05 0.37845735D+05 0.37845735D+05 0.12044495D+01  1  2  5  6  6  1       21 0.417408634193D-03 0.100000000000D+01
0.120404354826D-04 0.000000000000D+00 -.359414622760D-04 0.315553888133D-06 0.000000000000D+00  6 2 2 25 24 1 2 4 0.47060034D-01 0.11877002D+00 0.37845735D+05 0.37845735D+05 0.37845735D+05 0.12044495D+01  1  2  5  7  6  1       21 0.157871183900D-02 0.100000000000D+01
0.120404354826D-04 0.000000000000D+00 -.359414622760D-04 0.315553888133D-06 0.000000000000D+00  6 -3 2 25 24 1 -3 4 0.47060034D-01 0.11877002D+00 0.37845735D+05 0.37845735D+05 0.37845735D+05 0.12044495D+01  1  2  5  8  6  1       21 0.264728017468D-03 0.100000000000D+01
0.120404354826D-04 0.000000000000D+00 -.359414622760D-04 0.315553888133D-06 0.000000000000D+00  6 -4 2 25 24 1 -4 4 0.47060034D-01 0.11877002D+00 0.37845735D+05 0.37845735D+05 0.37845735D+05 0.12044495D+01  1  2  5  8  6  1       21 0.219505231405D-03 0.100000000000D+01
0.120404354826D-04 0.000000000000D+00 -.359414622760D-04 0.315553888133D-06 0.000000000000D+00  6 3 2 25 24 1 3 4 0.47060034D-01 0.11877002D+00 0.37845735D+05 0.37845735D+05 0.37845735D+05 0.12044495D+01  1  2  5  9  6  1       21 0.264822502688D-03 0.100000000000D+01
0.120404354826D-04 0.000000000000D+00 -.359414622760D-04 0.315553888133D-06 0.000000000000D+00  6 4 2 25 24 1 4 4 0.47060034D-01 0.11877002D+00 0.37845735D+05 0.37845735D+05 0.37845735D+05 0.12044495D+01  1  2  5  9  6  1       21 0.219505231405D-03 0.100000000000D+01
  </mgrwgt>
  </event>
  <event>
  5     66 0.46027262E-03 0.69727123E+02 0.75467711E-02 0.11781380E+00
       21 -1    0    0  501  502 0.00000000E+00 0.00000000E+00 0.13020983E+02 0.13042565E+02 0.75000000E+00 0.0000E+00 0.9000E+01
        2 -1    0    0  502    0 0.00000000E+00 0.00000000E+00 -.28504506E+04 0.28504506E+04 0.32000000E+00 0.0000E+00 0.9000E+01
       25  1    1    2    0    0 -.19601677E+02 0.92688715E+02 -.15942336E+04 0.16019304E+04 0.12500000E+03 0.0000E+00 0.9000E+01
       24  1    1    2    0    0 -.31308270E+02 -.28066848E+02 -.10139415E+04 0.10179943E+04 0.80419002E+02 0.0000E+00 0.9000E+01
        1  1    1    2  501    0 0.50909947E+02 -.64621868E+02 -.22925455E+03 0.24356839E+03 0.32000000E+00 0.0000E+00 0.9000E+01
#aMCatNLO 1  0  0  2  1 0.94205967D+01 0.00000000D+00  -5  6  0 0.00000000D+00 0.00000000D+00 0.00000000D+00 0.00000000D+00 0.00000000D+00
  <mgrwgt>
 0.8881908922D-01   11    2    0
 0.192734520376039D+03 0.000000000000000D+00 0.000000000000000D+00 0.192734520376039D+03
 0.192734520376039D+03 0.000000000000000D+00 0.000000000000000D+00 -.192734520376039D+03
 0.164971371963021D+03 -.196017523621401D+02 0.926888106520883D+02 -.511381389140830D+02
 0.986650128766248D+02 -.313083146155048D+02 -.280667905130670D+02 -.387248436769754D+02
 0.121832655912433D+03 0.509100669776449D+02 -.646220201390213D+02 0.898629825910584D+02
 0.000000000000000D+00 -.000000000000000D+00 -.000000000000000D+00 -.000000000000000D+00
 0.194421685221596D+03 0.000000000000000D+00 0.000000000000000D+00 0.194421685221596D+03
 0.206406885499273D+03 0.000000000000000D+00 0.000000000000000D+00 -.206406885499273D+03
 0.165890995244129D+03 -.162512822590167D+02 0.949505601691181D+02 -.511381389140830D+02
 0.976765111714871D+02 -.293200667169065D+02 -.267246150612705D+02 -.387248436769754D+02
 0.122016633585750D+03 0.533794011634214D+02 -.629550852820713D+02 0.898629825910584D+02
 0.152444307195027D+02 -.780805218749819D+01 -.527085982577627D+01 -.119852002776775D+02
0.201677981180D-05 0.000000000000D+00 0.000000000000D+00 0.548739496090D-06 0.000000000000D+00  6 21 2 25 24 1 21 2 0.20048898D-02 0.43853252D+00 0.27201908D+05 0.27201908D+05 0.27201908D+05 0.12193867D+01  1  2  2  2  6  2        2 0.124471964151D-01 0.100000000000D+01
-.381545511954D-07 0.106428394624D-06 -.407129738001D-08 0.548739496090D-06 0.000000000000D+00  6 21 2 25 24 1 21 4 0.20048898D-02 0.43853252D+00 0.27201908D+05 0.27201908D+05 0.27201908D+05 0.12193867D+01  1  2  3  2  6  2        2 -.350140481889D-03 0.100000000000D+01
0.185141684044D-06 0.000000000000D+00 0.000000000000D+00 0.548739496090D-06 0.000000000000D+00  6 21 2 25 24 1 21 4 0.20048898D-02 0.43853252D+00 0.27201908D+05 0.27201908D+05 0.27201908D+05 0.12193867D+01  1  2 15  2  6  2        2 0.169902662823D-02 0.100000000000D+01
0.261608243568D-04 0.000000000000D+00 0.000000000000D+00 0.546373130246D-06 0.000000000000D+00  6 21 2 25 24 1 21 4 0.20048898D-02 0.47147846D+00 0.28805571D+05 0.28805571D+05 0.28805571D+05 0.12167547D+01  1  2 12  2  6  2        2 0.178596470858D+00 0.100000000000D+01
-.248511310868D-04 0.000000000000D+00 0.000000000000D+00 0.548739496090D-06 0.000000000000D+00  6 21 2 25 24 1 21 4 0.20048898D-02 0.43853252D+00 0.27201908D+05 0.27201908D+05 0.27201908D+05 0.12193867D+01  1  2  4  2  6  2        2 -.228056332511D+00 0.100000000000D+01
-.545590180890D-04 0.000000000000D+00 -.625686326971D-05 0.548739496090D-06 0.000000000000D+00  6 21 2 25 24 1 21 4 0.20048898D-02 0.47075643D+00 0.27201908D+05 0.27201908D+05 0.27201908D+05 0.12193867D+01  1  2  5  2  6  2        2 -.378899445104D+00 0.100000000000D+01
0.548803477235D-04 0.000000000000D+00 0.624116708448D-05 0.548739496090D-06 0.000000000000D+00  6 21 2 25 24 1 21 4 0.20048898D-02 0.43853252D+00 0.27201908D+05 0.27201908D+05 0.27201908D+05 0.12193867D+01  1  2  6  2  6  2        2 0.503631435729D+00 0.100000000000D+01
0.477572649342D-09 0.000000000000D+00 0.000000000000D+00 0.548739496090D-06 0.495789672562D-07  6 21 2 25 24 1 21 4 0.20224402D-02 0.46964151D+00 0.28805571D+05 0.28805571D+05 0.28805571D+05 0.12167547D+01  1  2 11  2  6  2        2 0.326706036236D-05 0.100000000000D+01
0.357857381845D-06 0.000000000000D+00 0.000000000000D+00 0.546373130246D-06 0.000000000000D+00  6 21 21 25 24 1 -2 4 0.20048898D-02 0.47147846D+00 0.28805571D+05 0.28805571D+05 0.28805571D+05 0.12167547D+01  1  2 12 10  6  2        2 0.297448498286D-03 0.100000000000D+01
-.643410670738D-06 0.000000000000D+00 -.750227905758D-07 0.548739496090D-06 0.000000000000D+00  6 21 21 25 24 1 -2 4 0.20048898D-02 0.47075643D+00 0.27201908D+05 0.27201908D+05 0.27201908D+05 0.12193867D+01  1  2  5 10  6  2        2 -.549843053234D-03 0.100000000000D+01
0.614077830319D-11 0.000000000000D+00 0.000000000000D+00 0.548739496090D-06 0.582055161789D-09  6 21 21 25 24 1 -2 4 0.20224402D-02 0.46964151D+00 0.28805571D+05 0.28805571D+05 0.28805571D+05 0.12167547D+01  1  2 11 10  6  2        2 0.517886941034D-08 0.100000000000D+01
  </mgrwgt>
  </event>
  <event>
  5     66 0.46027262E-03 0.40182798E+02 0.75467711E-02 0.12117402E+00
       21 -1    0    0  501  502 0.00000000E+00 0.00000000E+00 0.69273393E+03 0.69273434E+03 0.75000000E+00 0.0000E+00 0.9000E+01
        2 -1    0    0  502    0 0.00000000E+00 0.00000000E+00 -.49180793E+02 0.49181834E+02 0.32000000E+00 0.0000E+00 0.9000E+01
       25  1    1    2    0    0 -.41140344E+02 -.28694359E+02 0.24115658E+03 0.27621983E+03 0.12500000E+03 0.0000E+00 0.9000E+01
       24  1    1    2    0    0 0.23535753E+02 -.74266137E+01 0.27279989E+02 0.88433591E+02 0.80419002E+02 0.0000E+00 0.9000E+01
        1  1    1    2  501    0 0.17604592E+02 0.36120973E+02 0.37511657E+03 0.37726276E+03 0.32000000E+00 0.0000E+00 0.9000E+01
#aMCatNLO 1  0  0  1  2 0.20447748D+02 0.00000000D+00  -5  6  0 0.00000000D+00 0.00000000D+00 0.00000000D+00 0.00000000D+00 0.00000000D+00
  <mgrwgt>
 0.1119263895D+00   13    2    0
 0.184579904304490D+03 0.000000000000000D+00 0.000000000000000D+00 0.184579904304490D+03
 0.184579904304490D+03 0.000000000000000D+00 0.000000000000000D+00 -.184579904304490D+03
 0.134724542165723D+03 -.411403743679294D+02 -.286944215661089D+02 0.313081932036950D+01
 0.130171898261107D+03 0.235357233477104D+02 -.742667373705020D+01 -.993399284589684D+02
 0.104263368182149D+03 0.176046510202191D+02 0.361210953031591D+02 0.962091091385989D+02
 0.000000000000000D+00 0.000000000000000D+00 -.000000000000000D+00 -.000000000000000D+00
 0.194364147236067D+03 0.000000000000000D+00 0.000000000000000D+00 0.194364147236067D+03
 0.195864225399029D+03 0.000000000000000D+00 0.000000000000000D+00 -.195864225399029D+03
 0.134037821453503D+03 -.432080507319983D+02 -.215499397290436D+02 0.313081932036950D+01
 0.129613871020743D+03 0.215371068463816D+02 -.520815769556696D+00 -.993399284589684D+02
 0.106073982415350D+03 0.159864573027108D+02 0.417124711221682D+02 0.962091091385989D+02
 0.205026977455003D+02 0.568448658290592D+01 -.196417156235679D+02 -.150007816296123D+01
0.366568196907D-04 0.000000000000D+00 0.000000000000D+00 0.148454182055D-05 0.000000000000D+00  6 21 2 25 24 1 21 2 0.10657456D+00 0.75663872D-02 0.16769177D+05 0.16769177D+05 0.16769177D+05 0.12423400D+01  1  2  2  1  6  1       21 0.445900744255D-01 0.100000000000D+01
0.228076821960D-05 0.193443352064D-05 -.739995576576D-07 0.148454182055D-05 0.000000000000D+00  6 21 2 25 24 1 21 4 0.10657456D+00 0.75663872D-02 0.16769177D+05 0.16769177D+05 0.16769177D+05 0.12423400D+01  1  2  3  1  6  1       21 0.428198888874D-02 0.100000000000D+01
0.390989105915D-05 0.000000000000D+00 0.000000000000D+00 0.148454182055D-05 0.000000000000D+00  6 21 2 25 24 1 21 4 0.10657456D+00 0.75663872D-02 0.16769177D+05 0.16769177D+05 0.16769177D+05 0.12423400D+01  1  2 15  1  6  1       21 0.734055741728D-02 0.100000000000D+01
0.679609816901D-04 0.000000000000D+00 0.000000000000D+00 0.146463985986D-05 0.000000000000D+00  6 21 2 25 24 1 21 4 0.11530226D+00 0.75663872D-02 0.19933857D+05 0.19933857D+05 0.19933857D+05 0.12339845D+01  1  2 12  1  6  1       21 0.102519016777D+00 0.100000000000D+01
-.267296551493D-04 0.000000000000D+00 0.000000000000D+00 0.148454182055D-05 0.000000000000D+00  6 21 2 25 24 1 21 4 0.10657456D+00 0.75663872D-02 0.16769177D+05 0.16769177D+05 0.16769177D+05 0.12423400D+01  1  2  4  1  6  1       21 -.501831292482D-01 0.100000000000D+01
0.132920178273D-05 0.000000000000D+00 0.000000000000D+00 0.146463985986D-05 0.000000000000D+00  6 -1 2 25 24 1 -1 4 0.11530226D+00 0.75663872D-02 0.19933857D+05 0.19933857D+05 0.19933857D+05 0.12339845D+01  1  2 12  4  6  1       21 0.231123388399D-03 0.100000000000D+01
0.132920178273D-05 0.000000000000D+00 0.000000000000D+00 0.146463985986D-05 0.000000000000D+00  6 1 2 25 24 1 1 4 0.11530226D+00 0.75663872D-02 0.19933857D+05 0.19933857D+05 0.19933857D+05 0.12339845D+01  1  2 12  5  6  1       21 0.957923458764D-03 0.100000000000D+01
0.132920178273D-05 0.000000000000D+00 0.000000000000D+00 0.146463985986D-05 0.000000000000D+00  6 -2 2 25 24 1 -2 4 0.11530226D+00 0.75663872D-02 0.19933857D+05 0.19933857D+05 0.19933857D+05 0.12339845D+01  1  2 12  6  6  1       21 0.169302094478D-03 0.100000000000D+01
0.132920178273D-05 0.000000000000D+00 0.000000000000D+00 0.146463985986D-05 0.000000000000D+00  6 2 2 25 24 1 2 4 0.11530226D+00 0.75663872D-02 0.19933857D+05 0.19933857D+05 0.19933857D+05 0.12339845D+01  1  2 12  7  6  1       21 0.163582364762D-02 0.100000000000D+01
0.132920178273D-05 0.000000000000D+00 0.000000000000D+00 0.146463985986D-05 0.000000000000D+00  6 -3 2 25 24 1 -3 4 0.11530226D+00 0.75663872D-02 0.19933857D+05 0.19933857D+05 0.19933857D+05 0.12339845D+01  1  2 12  8  6  1       21 0.106875893610D-03 0.100000000000D+01
0.132920178273D-05 0.000000000000D+00 0.000000000000D+00 0.146463985986D-05 0.000000000000D+00  6 -4 2 25 24 1 -4 4 0.11530226D+00 0.75663872D-02 0.19933857D+05 0.19933857D+05 0.19933857D+05 0.12339845D+01  1  2 12  8  6  1       21 0.848437380264D-04 0.100000000000D+01
0.132920178273D-05 0.000000000000D+00 0.000000000000D+00 0.146463985986D-05 0.000000000000D+00  6 3 2 25 24 1 3 4 0.11530226D+00 0.75663872D-02 0.19933857D+05 0.19933857D+05 0.19933857D+05 0.12339845D+01  1  2 12  9  6  1       21 0.107145303829D-03 0.100000000000D+01
0.132920178273D-05 0.000000000000D+00 0.000000000000D+00 0.146463985986D-05 0.000000000000D+00  6 4 2 25 24 1 4 4 0.11530226D+00 0.75663872D-02 0.19933857D+05 0.19933857D+05 0.19933857D+05 0.12339845D+01  1  2 12  9  6  1       21 0.848437380264D-04 0.100000000000D+01
  </mgrwgt>
  </event>
  <event>
  5     66 0.46027262E-03 0.54488055E+02 0.75467711E-02 0.11866382E+00
       21 -1    0    0  501  502 0.00000000E+00 0.00000000E+00 0.11587260E+03 0.11587503E+03 0.75000000E+00 0.0000E+00 0.9000E+01
        2 -1    0    0  502    0 0.00000000E+00 0.00000000E+00 -.56222366E+03 0.56222375E+03 0.32000000E+00 0.0000E+00 0.9000E+01
       25  1    1    2    0    0 0.93825107E+01 0.18529856E+02 -.26798129E+03 0.29642935E+03 0.12500000E+03 0.0000E+00 0.9000E+01
       24  1    1    2    0    0 0.34467825E+02 0.13813493E+02 -.26495300E+03 0.27936741E+03 0.80419002E+02 0.0000E+00 0.9000E+01
        1  1    1    2  501    0 -.43850336E+02 -.32343348E+02 0.86583235E+02 0.10230202E+03 0.32000000E+00 0.0000E+00 0.9000E+01
#aMCatNLO 1  0  0  1  1 0.52291221D+02 0.00000000D+00  -5  6  0 0.00000000D+00 0.00000000D+00 0.00000000D+00 0.00000000D+00 0.00000000D+00
  <mgrwgt>
 0.4062779306D+00    4    2    0
 0.255239443431058D+03 0.000000000000000D+00 0.000000000000000D+00 0.255239443431058D+03
 0.255239443431058D+03 0.000000000000000D+00 0.000000000000000D+00 -.255239443431058D+03
 0.159447677912186D+03 0.938252633638111D+01 0.185298672534848D+02 -.967841630159793D+02
 0.139431190090754D+03 0.344678386314341D+02 0.138135026805417D+02 -.107680063426456D+03
 0.211600018859175D+03 -.438503649678152D+02 -.323433699340264D+02 0.204464226442435D+03
 0.000000000000000D+00 -.000000000000000D+00 0.000000000000000D+00 -.000000000000000D+00
 0.261838747612264D+03 0.000000000000000D+00 0.000000000000000D+00 0.261838747612264D+03
 0.386444899908996D+03 0.000000000000000D+00 0.000000000000000D+00 -.386444899908996D+03
 0.160093918598777D+03 0.232365099656439D+02 0.989712919106773D+01 -.967841630159793D+02
 0.142409068290005D+03 0.466872503396693D+02 0.619930423936457D+01 -.107680063426456D+03
 0.210647152659847D+03 -.255434983013143D+02 -.437508025472484D+02 0.204464226442435D+03
 0.135133507972631D+03 -.443802620039989D+02 0.276543691168161D+02 -.124606152296732D+03
0.108524446176D-03 0.000000000000D+00 0.000000000000D+00 0.541606589383D-05 0.000000000000D+00  6 21 2 25 24 1 21 2 0.17826748D-01 0.86496141D-01 0.18195292D+05 0.18195292D+05 0.18195292D+05 0.12383734D+01  1  2  2  1  6  1       21 0.327856713952D+00 0.100000000000D+01
0.103352839635D-04 0.572699236492D-05 -.219079589550D-06 0.541606589383D-05 0.000000000000D+00  6 21 2 25 24 1 21 4 0.17826748D-01 0.86496141D-01 0.18195292D+05 0.18195292D+05 0.18195292D+05 0.12383734D+01  1  2  3  1  6  1       21 0.478830865642D-01 0.100000000000D+01
0.119481377377D-04 0.000000000000D+00 0.000000000000D+00 0.541606589383D-05 0.000000000000D+00  6 21 2 25 24 1 21 4 0.17826748D-01 0.86496141D-01 0.18195292D+05 0.18195292D+05 0.18195292D+05 0.12383734D+01  1  2 15  1  6  1       21 0.553553937748D-01 0.100000000000D+01
-.535666111232D-05 0.000000000000D+00 0.000000000000D+00 0.541606589383D-05 0.000000000000D+00  6 21 2 25 24 1 21 4 0.17826748D-01 0.86496141D-01 0.18195292D+05 0.18195292D+05 0.18195292D+05 0.12383734D+01  1  2  4  1  6  1       21 -.248172637193D-01 0.100000000000D+01
  </mgrwgt>
  </event>
  <event>
  5     66 0.46027262E-03 0.28472257E+02 0.75467711E-02 0.12241079E+00
       21 -1    0    0  501  502 0.00000000E+00 0.00000000E+00 0.12200786E+02 0.12223816E+02 0.75000000E+00 0.0000E+00 0.9000E+01
        2 -1    0    0  502    0 0.00000000E+00 0.00000000E+00 -.15158244E+04 0.15158244E+04 0.32000000E+00 0.0000E+00 0.9000E+01
       25  1    1    2    0    0 -.28501881E+02 0.30595476E+02 -.79413303E+03 0.80499734E+03 0.12500000E+03 0.0000E+00 0.9000E+01
       24  1    1    2    0    0 0.14671694E+00 -.28021249E+02 -.66361677E+03 0.66905878E+03 0.80419002E+02 0.0000E+00 0.9000E+01
        1  1    1    2  501    0 0.28355164E+02 -.25742277E+01 -.45873821E+02 0.53992146E+02 0.32000000E+00 0.0000E+00 0.9000E+01
#aMCatNLO 1  0  0  1  2 0.19093583D+02 0.00000000D+00  -5  6  0 0.00000000D+00 0.00000000D+00 0.00000000D+00 0.00000000D+00 0.00000000D+00
  <mgrwgt>
 0.3046413263D+00   23    2    0
 0.136058334270557D+03 0.000000000000000D+00 0.000000000000000D+00 0.136058334270557D+03
 0.136058334270557D+03 0.000000000000000D+00 0.000000000000000D+00 -.136058334270557D+03
 0.132287451240668D+03 -.285021663928446D+02 0.305955022479686D+02 -.112477334988496D+02
 0.901240948327928D+02 0.146522320556334D+00 -.280212309118429D+02 -.294945022750759D+02
 0.497051224676535D+02 0.283556440722883D+02 -.257427133612571D+01 0.407422357739255D+02
 0.000000000000000D+00 0.000000000000000D+00 0.000000000000000D+00 0.000000000000000D+00
 0.149117193917454D+03 0.000000000000000D+00 0.000000000000000D+00 0.149117193917454D+03
 0.143555606508373D+03 0.000000000000000D+00 0.000000000000000D+00 -.143555606508373D+03
 0.132129301203166D+03 -.341483289014216D+02 0.232493518364714D+02 -.112477334988496D+02
 0.918983275578839D+02 -.374025174925574D+01 -.330782633456371D+02 -.294945022750759D+02
 0.487580860716622D+02 0.262531325203889D+02 -.530982244339557D+01 0.407422357739255D+02
 0.198870855931158D+02 0.116354481302885D+02 0.151387339525613D+02 0.556158740908106D+01
0.133952662543D-05 0.000000000000D+00 0.000000000000D+00 0.175852586580D-05 0.000000000000D+00  6 21 2 25 24 1 21 2 0.18788181D-02 0.23320553D+00 0.15060426D+05 0.15060426D+05 0.15060426D+05 0.12476235D+01  1  2  2  1  6  1       21 0.486896784637D-01 0.100000000000D+01
0.803663466853D-07 0.706887620882D-07 -.270411832202D-08 0.175852586580D-05 0.000000000000D+00  6 21 2 25 24 1 21 4 0.18788181D-02 0.23320553D+00 0.15060426D+05 0.15060426D+05 0.15060426D+05 0.12476235D+01  1  2  3  1  6  1       21 0.454702039110D-02 0.100000000000D+01
0.120922642576D-06 0.000000000000D+00 0.000000000000D+00 0.175852586580D-05 0.000000000000D+00  6 21 2 25 24 1 21 4 0.18788181D-02 0.23320553D+00 0.15060426D+05 0.15060426D+05 0.15060426D+05 0.12476235D+01  1  2 15  1  6  1       21 0.684164136130D-02 0.100000000000D+01
0.250791936389D-05 0.000000000000D+00 0.000000000000D+00 0.173784571769D-05 0.000000000000D+00  6 21 2 25 24 1 21 4 0.21069387D-02 0.23320553D+00 0.17498611D+05 0.17498611D+05 0.17498611D+05 0.12402659D+01  1  2 12  1  6  1       21 0.115325913266D+00 0.100000000000D+01
-.359545578611D-06 0.000000000000D+00 0.000000000000D+00 0.175852586580D-05 0.000000000000D+00  6 21 2 25 24 1 21 4 0.18788181D-02 0.23320553D+00 0.15060426D+05 0.15060426D+05 0.15060426D+05 0.12476235D+01  1  2  4  1  6  1       21 -.203426078813D-01 0.100000000000D+01
-.135664086243D-04 0.000000000000D+00 -.318853464347D-05 0.175852586580D-05 0.000000000000D+00  6 21 2 25 24 1 21 4 0.21835863D-02 0.23320553D+00 0.15060426D+05 0.15060426D+05 0.15060426D+05 0.12476235D+01  1  2  5  1  6  1       21 -.602345380725D+00 0.100000000000D+01
0.133968030362D-04 0.000000000000D+00 0.304891453995D-05 0.175852586580D-05 0.000000000000D+00  6 21 2 25 24 1 21 4 0.18788181D-02 0.23320553D+00 0.15060426D+05 0.15060426D+05 0.15060426D+05 0.12476235D+01  1  2  6  1  6  1       21 0.757973195170D+00 0.100000000000D+01
0.747937462203D-07 0.000000000000D+00 0.000000000000D+00 0.173784571769D-05 0.000000000000D+00  6 -1 2 25 24 1 -1 4 0.21069387D-02 0.23320553D+00 0.17498611D+05 0.17498611D+05 0.17498611D+05 0.12402659D+01  1  2 12  4  6  1       21 0.166946316560D-03 0.100000000000D+01
-.473796865279D-06 0.000000000000D+00 -.130221310250D-06 0.175852586580D-05 0.000000000000D+00  6 -1 2 25 24 1 -1 4 0.21835863D-02 0.23320553D+00 0.15060426D+05 0.15060426D+05 0.15060426D+05 0.12476235D+01  1  2  5  4  6  1       21 -.102535391268D-02 0.100000000000D+01
0.747937462203D-07 0.000000000000D+00 0.000000000000D+00 0.173784571769D-05 0.000000000000D+00  6 1 2 25 24 1 1 4 0.21069387D-02 0.23320553D+00 0.17498611D+05 0.17498611D+05 0.17498611D+05 0.12402659D+01  1  2 12  5  6  1       21 0.175935843399D-03 0.100000000000D+01
-.473796865279D-06 0.000000000000D+00 -.130221310250D-06 0.175852586580D-05 0.000000000000D+00  6 1 2 25 24 1 1 4 0.21835863D-02 0.23320553D+00 0.15060426D+05 0.15060426D+05 0.15060426D+05 0.12476235D+01  1  2  5  5  6  1       21 -.108276158021D-02 0.100000000000D+01
0.747937462203D-07 0.000000000000D+00 0.000000000000D+00 0.173784571769D-05 0.000000000000D+00  6 -2 2 25 24 1 -2 4 0.21069387D-02 0.23320553D+00 0.17498611D+05 0.17498611D+05 0.17498611D+05 0.12402659D+01  1  2 12  6  6  1       21 0.165332923894D-03 0.100000000000D+01
-.473796865279D-06 0.000000000000D+00 -.130221310250D-06 0.175852586580D-05 0.000000000000D+00  6 -2 2 25 24 1 -2 4 0.21835863D-02 0.23320553D+00 0.15060426D+05 0.15060426D+05 0.15060426D+05 0.12476235D+01  1  2  5  6  6  1       21 -.101504444797D-02 0.100000000000D+01
0.747937462203D-07 0.000000000000D+00 0.000000000000D+00 0.173784571769D-05 0.000000000000D+00  6 2 2 25 24 1 2 4 0.21069387D-02 0.23320553D+00 0.17498611D+05 0.17498611D+05 0.17498611D+05 0.12402659D+01  1  2 12  7  6  1       21 0.182109099891D-03 0.100000000000D+01
-.473796865279D-06 0.000000000000D+00 -.130221310250D-06 0.175852586580D-05 0.000000000000D+00  6 2 2 25 24 1 2 4 0.21835863D-02 0.23320553D+00 0.15060426D+05 0.15060426D+05 0.15060426D+05 0.12476235D+01  1  2  5  7  6  1       21 -.112213372650D-02 0.100000000000D+01
0.747937462203D-07 0.000000000000D+00 0.000000000000D+00 0.173784571769D-05 0.000000000000D+00  6 -3 2 25 24 1 -3 4 0.21069387D-02 0.23320553D+00 0.17498611D+05 0.17498611D+05 0.17498611D+05 0.12402659D+01  1  2 12  8  6  1       21 0.128235228147D-03 0.100000000000D+01
0.747937462203D-07 0.000000000000D+00 0.000000000000D+00 0.173784571769D-05 0.000000000000D+00  6 -4 2 25 24 1 -4 4 0.21069387D-02 0.23320553D+00 0.17498611D+05 0.17498611D+05 0.17498611D+05 0.12402659D+01  1  2 12  8  6  1       21 0.116308168336D-03 0.100000000000D+01
-.473796865279D-06 0.000000000000D+00 -.130221310250D-06 0.175852586580D-05 0.000000000000D+00  6 -3 2 25 24 1 -3 4 0.21835863D-02 0.23320553D+00 0.15060426D+05 0.15060426D+05 0.15060426D+05 0.12476235D+01  1  2  5  8  6  1       21 -.782745737232D-03 0.100000000000D+01
-.473796865279D-06 0.000000000000D+00 -.130221310250D-06 0.175852586580D-05 0.000000000000D+00  6 -4 2 25 24 1 -4 4 0.21835863D-02 0.23320553D+00 0.15060426D+05 0.15060426D+05 0.15060426D+05 0.12476235D+01  1  2  5  8  6  1       21 -.708400197037D-03 0.100000000000D+01
0.747937462203D-07 0.000000000000D+00 0.000000000000D+00 0.173784571769D-05 0.000000000000D+00  6 3 2 25 24 1 3 4 0.21069387D-02 0.23320553D+00 0.17498611D+05 0.17498611D+05 0.17498611D+05 0.12402659D+01  1  2 12  9  6  1       21 0.128227568515D-03 0.100000000000D+01
0.747937462203D-07 0.000000000000D+00 0.000000000000D+00 0.173784571769D-05 0.000000000000D+00  6 4 2 25 24 1 4 4 0.21069387D-02 0.23320553D+00 0.17498611D+05 0.17498611D+05 0.17498611D+05 0.12402659D+01  1  2 12  9  6  1       21 0.116308168336D-03 0.100000000000D+01
-.473796865279D-06 0.000000000000D+00 -.130221310250D-06 0.175852586580D-05 0.000000000000D+00  6 3 2 25 24 1 3 4 0.21835863D-02 0.23320553D+00 0.15060426D+05 0.15060426D+05 0.15060426D+05 0.12476235D+01  1  2  5  9  6  1       21 -.782697252700D-03 0.100000000000D+01
-.473796865279D-06 0.000000000000D+00 -.130221310250D-06 0.175852586580D-05 0.000000000000D+00  6 4 2 25 24 1 4 4 0.21835863D-02 0.23320553D+00 0.15060426D+05 0.15060426D+05 0.15060426D+05 0.12476235D+01  1  2  5  9  6  1       21 -.708400197037D-03 0.100000000000D+01
  </mgrwgt>
  </event>
  <event>
  5     66 -.46027262E-03 0.20367316E+02 0.75467711E-02 0.12384309E+00
       21 -1    0    0  501  502 0.00000000E+00 0.00000000E+00 0.12085815E+02 0.12109063E+02 0.75000000E+00 0.0000E+00 0.9000E+01
        2 -1    0    0  502    0 -.00000000E+00 -.00000000E+00 -.21376602E+04 0.21376603E+04 0.32000000E+00 0.0000E+00 0.9000E+01
       25  1    1    2    0    0 -.32341305E+02 0.27105485E+02 -.17600782E+04 0.17650158E+04 0.12500000E+03 0.0000E+00 0.9000E+01
       24  1    1    2    0    0 0.19906578E+02 -.43233397E+02 -.23884916E+03 0.25647912E+03 0.80419002E+02 0.0000E+00 0.9000E+01
        1  1    1    2  501    0 0.12434727E+02 0.16127913E+02 -.12664710E+03 0.12827441E+03 0.32000000E+00 0.0000E+00 0.9000E+01
#aMCatNLO 1  0  0  5  1 0.60622637D+01 0.00000000D+00  -5  6  0 0.00000000D+00 0.00000000D+00 0.00000000D+00 0.00000000D+00 0.00000000D+00
  <mgrwgt>
 -.7742367557D+00    7    2    0
 0.160811631728372D+03 0.000000000000000D+00 0.000000000000000D+00 0.160811631728372D+03
 0.160811631728372D+03 -.000000000000000D+00 -.000000000000000D+00 -.160811631728372D+03
 0.165410081309463D+03 -.323420916597683D+02 0.271044644940098D+02 -.997739049569943D+02
 0.135808911589966D+03 0.199059320226624D+02 -.432342351382478D+02 0.985464321789501D+02
 0.204042705573156D+02 0.124361596371058D+02 0.161297706442379D+02 0.122747277804418D+01
 0.000000000000000D+00 0.000000000000000D+00 0.000000000000000D+00 0.000000000000000D+00
 0.160811631728372D+03 0.000000000000000D+00 0.000000000000000D+00 0.160811631728372D+03
 0.160811631728372D+03 -.000000000000000D+00 -.000000000000000D+00 -.160811631728372D+03
 0.165369011940260D+03 -.310641815082948D+02 0.287619213173935D+02 -.996477727771660D+02
 0.135615505387967D+03 0.209545352291293D+02 -.418741907426566D+02 0.986499313240614D+02
 0.116395015247662D+02 0.651059822995618D+01 0.796405107818254D+01 -.544646645608187D+01
 0.899924460375079D+01 0.359904804920930D+01 0.514821834708051D+01 0.644430790918654D+01
0.467160785964D-05 0.000000000000D+00 0.000000000000D+00 0.372617700941D-06 0.000000000000D+00  6 21 2 25 24 1 21 2 0.18611463D-02 0.32887260D+00 0.15097841D+05 0.15097841D+05 0.15097841D+05 0.12475008D+01  1  2  2  3  6  5        1 0.829757758428D-01 0.100000000000D+01
0.245309159769D-06 0.246527519714D-06 -.943063031872D-08 0.372617700941D-06 0.000000000000D+00  6 21 2 25 24 1 21 4 0.18611463D-02 0.32887260D+00 0.15097841D+05 0.15097841D+05 0.15097841D+05 0.12475008D+01  1  2  3  3  6  5        1 0.678079086705D-02 0.100000000000D+01
0.497754720957D-06 0.000000000000D+00 0.000000000000D+00 0.372617700941D-06 0.000000000000D+00  6 21 2 25 24 1 21 4 0.18611463D-02 0.32887260D+00 0.15097841D+05 0.15097841D+05 0.15097841D+05 0.12475008D+01  1  2 15  3  6  5        1 0.137588448351D-01 0.100000000000D+01
0.121748496526D-05 0.000000000000D+00 0.000000000000D+00 0.373626236986D-06 0.000000000000D+00  6 21 2 25 24 1 21 4 0.18611463D-02 0.32887260D+00 0.14592672D+05 0.14592672D+05 0.14592672D+05 0.12491879D+01  1  2 12  3  6  5        1 0.338443531044D-01 0.100000000000D+01
-.357236693539D-04 0.000000000000D+00 0.000000000000D+00 0.372617700941D-06 0.000000000000D+00  6 21 2 25 24 1 21 4 0.18611463D-02 0.32887260D+00 0.15097841D+05 0.15097841D+05 0.15097841D+05 0.12475008D+01  1  2  4  3  6  5        1 -.987467125649D+00 0.100000000000D+01
-.189873244518D-05 0.000000000000D+00 0.000000000000D+00 0.372617700941D-06 0.000000000000D+00  6 21 2 25 24 1 21 4 0.18611463D-02 0.32887260D+00 0.15097841D+05 0.15097841D+05 0.15097841D+05 0.12475008D+01  1  2  5  3  6  5        1 -.524844145054D-01 0.100000000000D+01
0.464350880050D-05 0.000000000000D+00 -.000000000000D+00 0.372617700941D-06 0.000000000000D+00  6 21 2 25 24 1 21 4 0.18611463D-02 0.32887260D+00 0.15097841D+05 0.15097841D+05 0.15097841D+05 0.12475008D+01  1  2  6  3  6  5        1 0.128355019826D+00 0.100000000000D+01
  </mgrwgt>
  </event>
  <event>
  5     66 0.46027262E-03 0.55110270E+02 0.75467711E-02 0.12267218E+00
       21 -1    0    0  501  502 0.00000000E+00 0.00000000E+00 0.92079737E+02 0.92082791E+02 0.75000000E+00 0.0000E+00 0.9000E+01
        2 -1    0    0  502    0 -.00000000E+00 -.00000000E+00 -.50075193E+03 0.50075203E+03 0.32000000E+00 0.0000E+00 0.9000E+01
       25  1    1    2    0    0 0.35746841E+02 0.30164296E+01 -.20214800E+03 0.24036587E+03 0.12500000E+03 0.0000E+00 0.9000E+01
       24  1    1    2    0    0 0.10301290E+02 -.33293544E+02 -.26079089E+03 0.27512485E+03 0.80419002E+02 0.0000E+00 0.9000E+01
        1  1    1    2  501    0 -.46048131E+02 0.30277115E+02 0.54266700E+02 0.77344109E+02 0.32000000E+00 0.0000E+00 0.9000E+01
#aMCatNLO 1  0  0  5  1 0.46618278D+02 0.00000000D+00  -5  6  0 0.00000000D+00 0.00000000D+00 0.00000000D+00 0.00000000D+00 0.00000000D+00
  <mgrwgt>
 0.1020645653D+00    4    2    0
 0.214732488788062D+03 0.000000000000000D+00 0.000000000000000D+00 0.214732488788062D+03
 0.214732488788062D+03 -.000000000000000D+00 -.000000000000000D+00 -.214732488788062D+03
 0.139440957634278D+03 0.357468718530466D+02 0.301640957248187D+01 -.503174233439819D+02
 0.131618736592335D+03 0.103013188645146D+02 -.332935633916779D+02 -.981921449716210D+02
 0.158405283349511D+03 -.460481907175612D+02 0.302771538191961D+02 0.148509568315603D+03
 0.000000000000000D+00 0.000000000000000D+00 0.000000000000000D+00 -.000000000000000D+00
 0.214732488788062D+03 0.000000000000000D+00 0.000000000000000D+00 0.214732488788062D+03
 0.214732488788062D+03 -.000000000000000D+00 -.000000000000000D+00 -.214732488788062D+03
 0.130589863047150D+03 0.276937071886205D+02 0.831144725966631D+01 -.243452409574048D+02
 0.113388596795881D+03 0.299443295131353D+01 -.284892115748989D+02 -.746267788673017D+02
 0.134514940964601D+03 0.460345809743879D+01 0.932576816520588D+01 0.134112294605618D+03
 0.509715767684921D+02 -.352915982373729D+02 0.108519961500267D+02 -.351402747809113D+02
0.191483036693D-04 0.000000000000D+00 0.000000000000D+00 0.242568175485D-05 0.000000000000D+00  6 21 2 25 24 1 21 2 0.14166356D-01 0.77039002D-01 0.18605236D+05 0.18605236D+05 0.18605236D+05 0.12372974D+01  1  2  2  3  6  5        1 0.996081800812D-01 0.100000000000D+01
0.112550650048D-05 0.101048374610D-05 -.386549082375D-07 0.242568175485D-05 0.000000000000D+00  6 21 2 25 24 1 21 4 0.14166356D-01 0.77039002D-01 0.18605236D+05 0.18605236D+05 0.18605236D+05 0.12372974D+01  1  2  3  3  6  5        1 0.896315478213D-02 0.100000000000D+01
0.189968118050D-05 0.000000000000D+00 0.000000000000D+00 0.242568175485D-05 0.000000000000D+00  6 21 2 25 24 1 21 4 0.14166356D-01 0.77039002D-01 0.18605236D+05 0.18605236D+05 0.18605236D+05 0.12372974D+01  1  2 15  3  6  5        1 0.151284212488D-01 0.100000000000D+01
-.271673852289D-05 0.000000000000D+00 0.000000000000D+00 0.242568175485D-05 0.000000000000D+00  6 21 2 25 24 1 21 4 0.14166356D-01 0.77039002D-01 0.18605236D+05 0.18605236D+05 0.18605236D+05 0.12372974D+01  1  2  4  3  6  5        1 -.216351907990D-01 0.100000000000D+01
  </mgrwgt>
  </event>
  <event>
  5     66 0.46027262E-03 0.10586025E+03 0.75467711E-02 0.11464060E+00
       21 -1    0    0  501  502 0.00000000E+00 0.00000000E+00 0.19540784E+03 0.19540928E+03 0.75000000E+00 0.0000E+00 0.9000E+01
        2 -1    0    0  502    0 0.00000000E+00 0.00000000E+00 -.36463845E+03 0.36463859E+03 0.32000000E+00 0.0000E+00 0.9000E+01
       25  1    1    2    0    0 -.12637635E+02 0.11538050E+03 0.10185811E+03 0.19867673E+03 0.12500000E+03 0.0000E+00 0.9000E+01
       24  1    1    2    0    0 -.69412779E+02 -.30229660E+02 -.78970025E+02 0.13577720E+03 0.80419002E+02 0.0000E+00 0.9000E+01
        1  1    1    2  501    0 0.82050415E+02 -.85150837E+02 -.19211869E+03 0.22559395E+03 0.32000000E+00 0.0000E+00 0.9000E+01
#aMCatNLO 1  0  0  1  2 0.87752706D+01 0.00000000D+00  -5  6  0 0.00000000D+00 0.00000000D+00 0.00000000D+00 0.00000000D+00 0.00000000D+00
  <mgrwgt>
 0.4912112229D-01   41    2    0
 0.266933804562186D+03 0.000000000000000D+00 0.000000000000000D+00 0.266933804562186D+03
 0.266933804562186D+03 0.000000000000000D+00 0.000000000000000D+00 -.266933804562186D+03
 0.240707701509309D+03 -.126376968029334D+02 0.115380560952683D+03 0.169831717708019D+03
 0.117402855260243D+03 -.694128089213188D+02 -.302296289992825D+02 -.398025873167212D+02
 0.175757052354821D+03 0.820505057242522D+02 -.851509319534005D+02 -.130029130391297D+03
 0.000000000000000D+00 0.000000000000000D+00 0.000000000000000D+00 0.000000000000000D+00
 0.291398370442411D+03 0.000000000000000D+00 0.000000000000000D+00 0.291398370442411D+03
 0.267757931000269D+03 0.000000000000000D+00 0.000000000000000D+00 -.267757931000269D+03
 0.238886153258868D+03 -.131445897967486D+02 0.111471976919039D+03 0.169831717708019D+03
 0.118058214722229D+03 -.696616727578832D+02 -.321485847355338D+02 -.398025873167212D+02
 0.176995356562474D+03 0.816776741651029D+02 -.880257862068816D+02 -.130029130391297D+03
 0.252165768991080D+02 0.112858838952887D+01 0.870239402337696D+01 0.236404394421411D+02
0.442871754879D-05 0.000000000000D+00 0.000000000000D+00 0.551355525949D-07 0.000000000000D+00  6 21 2 25 24 1 21 2 0.30062867D-01 0.56098345D-01 0.39855944D+05 0.39855944D+05 0.39855944D+05 0.12021594D+01  1  2  2  1  6  1       21 0.745991155021D-02 0.100000000000D+01
-.546615037918D-06 0.233709845865D-06 -.894030476093D-08 0.551355525949D-07 0.000000000000D+00  6 21 2 25 24 1 21 4 0.30062867D-01 0.56098345D-01 0.39855944D+05 0.39855944D+05 0.39855944D+05 0.12021594D+01  1  2  3  1  6  1       21 -.133064250206D-02 0.100000000000D+01
0.523245553445D-06 0.000000000000D+00 0.000000000000D+00 0.551355525949D-07 0.000000000000D+00  6 21 2 25 24 1 21 4 0.30062867D-01 0.56098345D-01 0.39855944D+05 0.39855944D+05 0.39855944D+05 0.12021594D+01  1  2 15  1  6  1       21 0.127375341717D-02 0.100000000000D+01
0.118580042662D-03 0.000000000000D+00 0.000000000000D+00 0.549611665339D-07 0.000000000000D+00  6 21 2 25 24 1 21 4 0.32862079D-01 0.56098345D-01 0.41616673D+05 0.41616673D+05 0.41616673D+05 0.12002568D+01  1  2 12  1  6  1       21 0.240637085700D+00 0.100000000000D+01
0.116992257438D-03 0.000000000000D+00 0.000000000000D+00 0.549611665339D-07 0.000000000000D+00  6 21 2 25 24 1 21 4 0.32898067D-01 0.56098345D-01 0.41616673D+05 0.41616673D+05 0.41616673D+05 0.12002568D+01  1  2 12  1  6  1       21 0.236902896503D+00 0.100000000000D+01
-.223171709599D-03 0.000000000000D+00 0.000000000000D+00 0.551355525949D-07 0.000000000000D+00  6 21 2 25 24 1 21 4 0.30062867D-01 0.56098345D-01 0.39855944D+05 0.39855944D+05 0.39855944D+05 0.12021594D+01  1  2  4  1  6  1       21 -.543274043795D+00 0.100000000000D+01
-.295461164664D-03 0.000000000000D+00 -.162206449588D-04 0.551355525949D-07 0.000000000000D+00  6 21 2 25 24 1 21 4 0.32878779D-01 0.56098345D-01 0.39855944D+05 0.39855944D+05 0.39855944D+05 0.12021594D+01  1  2  5  1  6  1       21 -.603413417750D+00 0.100000000000D+01
0.292469467599D-03 0.000000000000D+00 0.159634936952D-04 0.551355525949D-07 0.000000000000D+00  6 21 2 25 24 1 21 4 0.30062867D-01 0.56098345D-01 0.39855944D+05 0.39855944D+05 0.39855944D+05 0.12021594D+01  1  2  6  1  6  1       21 0.711967796611D+00 0.100000000000D+01
0.111407528632D-06 0.000000000000D+00 0.000000000000D+00 0.551355525949D-07 0.120052862050D-07  6 21 2 25 24 1 21 4 0.32818138D-01 0.56271542D-01 0.41616673D+05 0.41616673D+05 0.41616673D+05 0.12002568D+01  1  2 11  1  6  1       21 0.225926397828D-03 0.100000000000D+01
0.271051007523D-05 0.000000000000D+00 0.000000000000D+00 0.549611665339D-07 0.000000000000D+00  6 -1 2 25 24 1 -1 4 0.32862079D-01 0.56098345D-01 0.41616673D+05 0.41616673D+05 0.41616673D+05 0.12002568D+01  1  2 12  4  6  1       21 0.495009229654D-03 0.100000000000D+01
0.271085634483D-05 0.000000000000D+00 0.000000000000D+00 0.549611665339D-07 0.000000000000D+00  6 -1 2 25 24 1 -1 4 0.32898067D-01 0.56098345D-01 0.41616673D+05 0.41616673D+05 0.41616673D+05 0.12002568D+01  1  2 12  4  6  1       21 0.494142578471D-03 0.100000000000D+01
-.627340495730D-05 0.000000000000D+00 -.366069417566D-06 0.551355525949D-07 0.000000000000D+00  6 -1 2 25 24 1 -1 4 0.32878779D-01 0.56098345D-01 0.39855944D+05 0.39855944D+05 0.39855944D+05 0.12021594D+01  1  2  5  4  6  1       21 -.115187757530D-02 0.100000000000D+01
0.354370531910D-08 0.000000000000D+00 0.000000000000D+00 0.551355525949D-07 0.379269951357D-09  6 -1 2 25 24 1 -1 4 0.32818138D-01 0.56271542D-01 0.41616673D+05 0.41616673D+05 0.41616673D+05 0.12002568D+01  1  2 11  4  6  1       21 0.646506916454D-06 0.100000000000D+01
0.271051007523D-05 0.000000000000D+00 0.000000000000D+00 0.549611665339D-07 0.000000000000D+00  6 1 2 25 24 1 1 4 0.32862079D-01 0.56098345D-01 0.41616673D+05 0.41616673D+05 0.41616673D+05 0.12002568D+01  1  2 12  5  6  1       21 0.906474177158D-03 0.100000000000D+01
0.271085634483D-05 0.000000000000D+00 0.000000000000D+00 0.549611665339D-07 0.000000000000D+00  6 1 2 25 24 1 1 4 0.32898067D-01 0.56098345D-01 0.41616673D+05 0.41616673D+05 0.41616673D+05 0.12002568D+01  1  2 12  5  6  1       21 0.905345457112D-03 0.100000000000D+01
-.627340495730D-05 0.000000000000D+00 -.366069417566D-06 0.551355525949D-07 0.000000000000D+00  6 1 2 25 24 1 1 4 0.32878779D-01 0.56098345D-01 0.39855944D+05 0.39855944D+05 0.39855944D+05 0.12021594D+01  1  2  5  5  6  1       21 -.210978967930D-02 0.100000000000D+01
0.258205167287D-08 0.000000000000D+00 0.000000000000D+00 0.551355525949D-07 0.136419947418D-09  6 1 2 25 24 1 1 4 0.32818138D-01 0.56271542D-01 0.41616673D+05 0.41616673D+05 0.41616673D+05 0.12002568D+01  1  2 11  5  6  1       21 0.862092779064D-06 0.100000000000D+01
0.271051007523D-05 0.000000000000D+00 0.000000000000D+00 0.549611665339D-07 0.000000000000D+00  6 -2 2 25 24 1 -2 4 0.32862079D-01 0.56098345D-01 0.41616673D+05 0.41616673D+05 0.41616673D+05 0.12002568D+01  1  2 12  6  6  1       21 0.430122001458D-03 0.100000000000D+01
0.271085634483D-05 0.000000000000D+00 0.000000000000D+00 0.549611665339D-07 0.000000000000D+00  6 -2 2 25 24 1 -2 4 0.32898067D-01 0.56098345D-01 0.41616673D+05 0.41616673D+05 0.41616673D+05 0.12002568D+01  1  2 12  6  6  1       21 0.429310790196D-03 0.100000000000D+01
-.627340495730D-05 0.000000000000D+00 -.366069417566D-06 0.551355525949D-07 0.000000000000D+00  6 -2 2 25 24 1 -2 4 0.32878779D-01 0.56098345D-01 0.39855944D+05 0.39855944D+05 0.39855944D+05 0.12021594D+01  1  2  5  6  6  1       21 -.100075097215D-02 0.100000000000D+01
0.259050230550D-08 0.000000000000D+00 0.000000000000D+00 0.551355525949D-07 0.273632208632D-09  6 -2 2 25 24 1 -2 4 0.32818138D-01 0.56271542D-01 0.41616673D+05 0.41616673D+05 0.41616673D+05 0.12002568D+01  1  2 11  6  6  1       21 0.410723722970D-06 0.100000000000D+01
0.271051007523D-05 0.000000000000D+00 0.000000000000D+00 0.549611665339D-07 0.000000000000D+00  6 2 2 25 24 1 2 4 0.32862079D-01 0.56098345D-01 0.41616673D+05 0.41616673D+05 0.41616673D+05 0.12002568D+01  1  2 12  7  6  1       21 0.121034739564D-02 0.100000000000D+01
0.271085634483D-05 0.000000000000D+00 0.000000000000D+00 0.549611665339D-07 0.000000000000D+00  6 2 2 25 24 1 2 4 0.32898067D-01 0.56098345D-01 0.41616673D+05 0.41616673D+05 0.41616673D+05 0.12002568D+01  1  2 12  7  6  1       21 0.120906056393D-02 0.100000000000D+01
-.627340495730D-05 0.000000000000D+00 -.366069417566D-06 0.551355525949D-07 0.000000000000D+00  6 2 2 25 24 1 2 4 0.32878779D-01 0.56098345D-01 0.39855944D+05 0.39855944D+05 0.39855944D+05 0.12021594D+01  1  2  5  7  6  1       21 -.281700597412D-02 0.100000000000D+01
0.287984478790D-08 0.000000000000D+00 0.000000000000D+00 0.551355525949D-07 0.306196276731D-09  6 2 2 25 24 1 2 4 0.32818138D-01 0.56271542D-01 0.41616673D+05 0.41616673D+05 0.41616673D+05 0.12002568D+01  1  2 11  7  6  1       21 0.128355967586D-05 0.100000000000D+01
0.271051007523D-05 0.000000000000D+00 0.000000000000D+00 0.549611665339D-07 0.000000000000D+00  6 -3 2 25 24 1 -3 4 0.32862079D-01 0.56098345D-01 0.41616673D+05 0.41616673D+05 0.41616673D+05 0.12002568D+01  1  2 12  8  6  1       21 0.276881672383D-03 0.100000000000D+01
0.271051007523D-05 0.000000000000D+00 0.000000000000D+00 0.549611665339D-07 0.000000000000D+00  6 -4 2 25 24 1 -4 4 0.32862079D-01 0.56098345D-01 0.41616673D+05 0.41616673D+05 0.41616673D+05 0.12002568D+01  1  2 12  8  6  1       21 0.233202169076D-03 0.100000000000D+01
0.271085634483D-05 0.000000000000D+00 0.000000000000D+00 0.549611665339D-07 0.000000000000D+00  6 -3 2 25 24 1 -3 4 0.32898067D-01 0.56098345D-01 0.41616673D+05 0.41616673D+05 0.41616673D+05 0.12002568D+01  1  2 12  8  6  1       21 0.276345200738D-03 0.100000000000D+01
0.271085634483D-05 0.000000000000D+00 0.000000000000D+00 0.549611665339D-07 0.000000000000D+00  6 -4 2 25 24 1 -4 4 0.32898067D-01 0.56098345D-01 0.41616673D+05 0.41616673D+05 0.41616673D+05 0.12002568D+01  1  2 12  8  6  1       21 0.232740001675D-03 0.100000000000D+01
-.627340495730D-05 0.000000000000D+00 -.366069417566D-06 0.551355525949D-07 0.000000000000D+00  6 -3 2 25 24 1 -3 4 0.32878779D-01 0.56098345D-01 0.39855944D+05 0.39855944D+05 0.39855944D+05 0.12021594D+01  1  2  5  8  6  1       21 -.643645861454D-03 0.100000000000D+01
-.627340495730D-05 0.000000000000D+00 -.366069417566D-06 0.551355525949D-07 0.000000000000D+00  6 -4 2 25 24 1 -4 4 0.32878779D-01 0.56098345D-01 0.39855944D+05 0.39855944D+05 0.39855944D+05 0.12021594D+01  1  2  5  8  6  1       21 -.541871618997D-03 0.100000000000D+01
0.257581198595D-08 0.000000000000D+00 0.000000000000D+00 0.551355525949D-07 0.272080484639D-09  6 -3 2 25 24 1 -3 4 0.32818138D-01 0.56271542D-01 0.41616673D+05 0.41616673D+05 0.41616673D+05 0.12002568D+01  1  2 11  8  6  1       21 0.262911736360D-06 0.100000000000D+01
0.257581198595D-08 0.000000000000D+00 0.000000000000D+00 0.551355525949D-07 0.272080484639D-09  6 -4 2 25 24 1 -4 4 0.32818138D-01 0.56271542D-01 0.41616673D+05 0.41616673D+05 0.41616673D+05 0.12002568D+01  1  2 11  8  6  1       21 0.221448071630D-06 0.100000000000D+01
0.271051007523D-05 0.000000000000D+00 0.000000000000D+00 0.549611665339D-07 0.000000000000D+00  6 3 2 25 24 1 3 4 0.32862079D-01 0.56098345D-01 0.41616673D+05 0.41616673D+05 0.41616673D+05 0.12002568D+01  1  2 12  9  6  1       21 0.276903303544D-03 0.100000000000D+01
0.271051007523D-05 0.000000000000D+00 0.000000000000D+00 0.549611665339D-07 0.000000000000D+00  6 4 2 25 24 1 4 4 0.32862079D-01 0.56098345D-01 0.41616673D+05 0.41616673D+05 0.41616673D+05 0.12002568D+01  1  2 12  9  6  1       21 0.233202169076D-03 0.100000000000D+01
0.271085634483D-05 0.000000000000D+00 0.000000000000D+00 0.549611665339D-07 0.000000000000D+00  6 3 2 25 24 1 3 4 0.32898067D-01 0.56098345D-01 0.41616673D+05 0.41616673D+05 0.41616673D+05 0.12002568D+01  1  2 12  9  6  1       21 0.276366952084D-03 0.100000000000D+01
0.271085634483D-05 0.000000000000D+00 0.000000000000D+00 0.549611665339D-07 0.000000000000D+00  6 4 2 25 24 1 4 4 0.32898067D-01 0.56098345D-01 0.41616673D+05 0.41616673D+05 0.41616673D+05 0.12002568D+01  1  2 12  9  6  1       21 0.232740001675D-03 0.100000000000D+01
-.627340495730D-05 0.000000000000D+00 -.366069417566D-06 0.551355525949D-07 0.000000000000D+00  6 3 2 25 24 1 3 4 0.32878779D-01 0.56098345D-01 0.39855944D+05 0.39855944D+05 0.39855944D+05 0.12021594D+01  1  2  5  9  6  1       21 -.643695824847D-03 0.100000000000D+01
-.627340495730D-05 0.000000000000D+00 -.366069417566D-06 0.551355525949D-07 0.000000000000D+00  6 4 2 25 24 1 4 4 0.32878779D-01 0.56098345D-01 0.39855944D+05 0.39855944D+05 0.39855944D+05 0.12021594D+01  1  2  5  9  6  1       21 -.541871618997D-03 0.100000000000D+01
0.257581198595D-08 0.000000000000D+00 0.000000000000D+00 0.551355525949D-07 0.272080484639D-09  6 3 2 25 24 1 3 4 0.32818138D-01 0.56271542D-01 0.41616673D+05 0.41616673D+05 0.41616673D+05 0.12002568D+01  1  2 11  9  6  1       21 0.262932088075D-06 0.100000000000D+01
0.257581198595D-08 0.000000000000D+00 0.000000000000D+00 0.551355525949D-07 0.272080484639D-09  6 4 2 25 24 1 4 4 0.32818138D-01 0.56271542D-01 0.41616673D+05 0.41616673D+05 0.41616673D+05 0.12002568D+01  1  2 11  9  6  1       21 0.221448071630D-06 0.100000000000D+01
  </mgrwgt>
  </event>
  <event>
  5     66 0.46027262E-03 0.41774510E+02 0.75467711E-02 0.12192085E+00
       21 -1    0    0  501  502 0.00000000E+00 0.00000000E+00 0.14317696E+02 0.14337326E+02 0.75000000E+00 0.0000E+00 0.9000E+01
        2 -1    0    0  502    0 -.00000000E+00 -.00000000E+00 -.14962420E+04 0.14962420E+04 0.32000000E+00 0.0000E+00 0.9000E+01
       25  1    1    2    0    0 0.37651187E+02 -.28509154E+02 -.49100469E+03 0.50886245E+03 0.12500000E+03 0.0000E+00 0.9000E+01
       24  1    1    2    0    0 -.33960813E+01 0.52417630E+02 -.82693352E+03 0.83249348E+03 0.80419002E+02 0.0000E+00 0.9000E+01
        1  1    1    2  501    0 -.34255105E+02 -.23908476E+02 -.16398611E+03 0.16922344E+03 0.32000000E+00 0.0000E+00 0.9000E+01
#aMCatNLO 1  0  0  5  1 0.27709716D+00 0.00000000D+00  -5  6  0 0.00000000D+00 0.00000000D+00 0.00000000D+00 0.00000000D+00 0.00000000D+00
  <mgrwgt>
 0.1163957194D+00    7    2    0
 0.146415814150782D+03 0.000000000000000D+00 0.000000000000000D+00 0.146415814150782D+03
 0.146415814150782D+03 -.000000000000000D+00 -.000000000000000D+00 -.146415814150782D+03
 0.140166997651489D+03 0.376516393431095D+02 -.285088382856967D+02 0.423247849966055D+02
 0.109601012499446D+03 -.339572726818172D+01 0.524178769980779D+02 -.527825841908827D+02
 0.430636181506285D+02 -.342559120749277D+02 -.239090387123811D+02 0.104577991942771D+02
 0.000000000000000D+00 -.000000000000000D+00 0.000000000000000D+00 0.000000000000000D+00
 0.146415814150782D+03 0.000000000000000D+00 0.000000000000000D+00 0.146415814150782D+03
 0.146415814150782D+03 -.000000000000000D+00 -.000000000000000D+00 -.146415814150782D+03
 0.140166793397301D+03 0.376457094247795D+02 -.285129770938126D+02 0.423265953087933D+02
 0.109598926825952D+03 -.340036401829760D+01 0.524146407614313D+02 -.527811686629143D+02
 0.263255753108534D+01 -.201091013866242D+01 -.143912611056990D+01 0.903059027182006D+00
 0.404333505472251D+02 -.322344352678195D+02 -.224625375570487D+02 0.955151432693893D+01
0.354175611443D-06 0.000000000000D+00 0.000000000000D+00 0.416166994214D-06 0.000000000000D+00  6 21 2 25 24 1 21 2 0.22042351D-02 0.23019259D+00 0.18421637D+05 0.18421637D+05 0.18421637D+05 0.12377760D+01  1  2  2  3  6  5        1 0.100370029092D-01 0.100000000000D+01
-.690237067827D-08 0.186903605045D-07 -.714978516986D-09 0.416166994214D-06 0.000000000000D+00  6 21 2 25 24 1 21 4 0.22042351D-02 0.23019259D+00 0.18421637D+05 0.18421637D+05 0.18421637D+05 0.12377760D+01  1  2  3  3  6  5        1 -.299686906818D-03 0.100000000000D+01
0.392454229720D-07 0.000000000000D+00 0.000000000000D+00 0.416166994214D-06 0.000000000000D+00  6 21 2 25 24 1 21 4 0.22042351D-02 0.23019259D+00 0.18421637D+05 0.18421637D+05 0.18421637D+05 0.12377760D+01  1  2 15  3  6  5        1 0.170395650501D-02 0.100000000000D+01
-.151714744823D-04 0.000000000000D+00 0.000000000000D+00 0.416166994214D-06 0.000000000000D+00  6 21 2 25 24 1 21 4 0.22042351D-02 0.23019259D+00 0.18421637D+05 0.18421637D+05 0.18421637D+05 0.12377760D+01  1  2  4  3  6  5        1 -.658714588277D+00 0.100000000000D+01
-.591011389933D-05 0.000000000000D+00 0.000000000000D+00 0.416166994214D-06 0.000000000000D+00  6 21 2 25 24 1 21 4 0.22042351D-02 0.23019259D+00 0.18421637D+05 0.18421637D+05 0.18421637D+05 0.12377760D+01  1  2  5  3  6  5        1 -.256605134089D+00 0.100000000000D+01
0.176434228182D-04 0.000000000000D+00 -.000000000000D+00 0.416166994214D-06 0.000000000000D+00  6 21 2 25 24 1 21 4 0.22042351D-02 0.23019259D+00 0.18421637D+05 0.18421637D+05 0.18421637D+05 0.12377760D+01  1  2  6  3  6  5        1 0.766041561155D+00 0.100000000000D+01
0.585537164325D-05 0.000000000000D+00 0.000000000000D+00 0.416166994214D-06 0.134179824981D-05  6 21 2 25 24 1 21 4 0.22042351D-02 0.23019259D+00 0.18419588D+05 0.18419588D+05 0.18419588D+05 0.12377813D+01  1  2 11  3  6  5        1 0.254232608061D+00 0.100000000000D+01
  </mgrwgt>
  </event>
  <event>
  5     66 -.46027262E-03 0.36308319E+02 0.75467711E-02 0.12353130E+00
       21 -1    0    0  501  502 0.00000000E+00 0.00000000E+00 0.10158226E+03 0.10158503E+03 0.75000000E+00 0.0000E+00 0.9000E+01
        2 -1    0    0  502    0 -.00000000E+00 -.00000000E+00 -.24266966E+03 0.24266987E+03 0.32000000E+00 0.0000E+00 0.9000E+01
       25  1    1    2    0    0 0.13830718E+02 -.41811654E+02 -.12117867E+03 0.17957944E+03 0.12500000E+03 0.0000E+00 0.9000E+01
       24  1    1    2    0    0 -.20141986E+01 0.74801688E+01 -.67176907E+02 0.10507123E+03 0.80419002E+02 0.0000E+00 0.9000E+01
        1  1    1    2  501    0 -.11816520E+02 0.34331485E+02 0.47268181E+02 0.59604231E+02 0.32000000E+00 0.0000E+00 0.9000E+01
#aMCatNLO 1  0  0  5  1 0.11529624D+01 0.00000000D+00  -5  6  0 0.00000000D+00 0.00000000D+00 0.00000000D+00 0.00000000D+00 0.00000000D+00
  <mgrwgt>
 -.1126241488D+00    8    2    0
 0.157007785072197D+03 0.000000000000000D+00 0.000000000000000D+00 0.157007785072197D+03
 0.157007785072197D+03 -.000000000000000D+00 -.000000000000000D+00 -.157007785072197D+03
 0.142427189456617D+03 0.138307547621436D+02 -.418117601842084D+02 -.521631213552143D+02
 0.850068717909441D+02 -.201417677640903D+01 0.748010535231390D+01 -.264375379553983D+02
 0.865815088968325D+02 -.118165779857346D+02 0.343316548318945D+02 0.786006593106126D+02
 0.000000000000000D+00 0.000000000000000D+00 0.000000000000000D+00 0.000000000000000D+00
 0.157007785072197D+03 0.000000000000000D+00 0.000000000000000D+00 0.157007785072197D+03
 0.157007785072197D+03 -.000000000000000D+00 -.000000000000000D+00 -.157007785072197D+03
 0.142419836912059D+03 0.138285832194926D+02 -.418054510266132D+02 -.521486768447733D+02
 0.850045531098470D+02 -.201547286527835D+01 0.748387098359451D+01 -.264289167251423D+02
 0.280215905330541D+02 -.495871287257816D+01 0.111336996557691D+02 0.252321508124972D+02
 0.585695895894332D+02 -.685439748163605D+01 0.231878803872496D+02 0.533454427574183D+02
0.628135570763D-06 0.000000000000D+00 0.000000000000D+00 0.229021376559D-05 0.000000000000D+00  6 21 2 25 24 1 21 2 0.15628269D-01 0.37334023D-01 0.15578876D+05 0.15578876D+05 0.15578876D+05 0.12459521D+01  1  2  2  3  6  5        1 0.600747991000D-02 0.100000000000D+01
0.439770965047D-07 0.331476247487D-07 -.126802474349D-08 0.229021376559D-05 0.000000000000D+00  6 21 2 25 24 1 21 4 0.15628269D-01 0.37334023D-01 0.15578876D+05 0.15578876D+05 0.15578876D+05 0.12459521D+01  1  2  3  3  6  5        1 0.652932398342D-03 0.100000000000D+01
0.564360558998D-07 0.000000000000D+00 0.000000000000D+00 0.229021376559D-05 0.000000000000D+00  6 21 2 25 24 1 21 4 0.15628269D-01 0.37334023D-01 0.15578876D+05 0.15578876D+05 0.15578876D+05 0.12459521D+01  1  2 15  3  6  5        1 0.837911828208D-03 0.100000000000D+01
0.161600253119D-08 0.000000000000D+00 0.000000000000D+00 0.229013012729D-05 0.000000000000D+00  6 21 2 25 24 1 21 4 0.15628269D-01 0.37334023D-01 0.15586071D+05 0.15586071D+05 0.15586071D+05 0.12459294D+01  1  2 12  3  6  5        1 0.239913211297D-04 0.100000000000D+01
-.111801409682D-03 0.000000000000D+00 0.000000000000D+00 0.229021376559D-05 0.000000000000D+00  6 21 2 25 24 1 21 4 0.15628269D-01 0.37334023D-01 0.15578876D+05 0.15578876D+05 0.15578876D+05 0.12459521D+01  1  2  4  3  6  5        1 -.165992683383D+01 0.100000000000D+01
-.545109597969D-04 0.000000000000D+00 0.000000000000D+00 0.229021376559D-05 0.000000000000D+00  6 21 2 25 24 1 21 4 0.15628269D-01 0.37334023D-01 0.15578876D+05 0.15578876D+05 0.15578876D+05 0.12459521D+01  1  2  5  3  6  5        1 -.809329731722D+00 0.100000000000D+01
0.986915598412D-04 0.000000000000D+00 -.000000000000D+00 0.229021376559D-05 0.000000000000D+00  6 21 2 25 24 1 21 4 0.15628269D-01 0.37334023D-01 0.15578876D+05 0.15578876D+05 0.15578876D+05 0.12459521D+01  1  2  6  3  6  5        1 0.146528356769D+01 0.100000000000D+01
0.595326079648D-04 0.000000000000D+00 0.000000000000D+00 0.229021376559D-05 0.278498816172D-05  6 21 2 25 24 1 21 4 0.15628269D-01 0.37334023D-01 0.15586071D+05 0.15586071D+05 0.15586071D+05 0.12459294D+01  1  2 11  3  6  5        1 0.883826533567D+00 0.100000000000D+01
  </mgrwgt>
  </event>
  <event>
  5     66 -.46027262E-03 0.20262334E+02 0.75467711E-02 0.12449490E+00
       21 -1    0    0  501  502 0.00000000E+00 0.00000000E+00 0.10113708E+02 0.10141479E+02 0.75000000E+00 0.0000E+00 0.9000E+01
        2 -1    0    0  502    0 0.00000000E+00 0.00000000E+00 -.28178605E+04 0.28178606E+04 0.32000000E+00 0.0000E+00 0.9000E+01
       25  1    1    2    0    0 -.13212941E+01 -.21742197E+02 -.14687018E+04 0.14741725E+04 0.12500000E+03 0.0000E+00 0.9000E+01
       24  1    1    2    0    0 0.70579481E+01 0.41175414E+02 -.13273345E+04 0.13304245E+04 0.80419002E+02 0.0000E+00 0.9000E+01
        1  1    1    2  501    0 -.57366540E+01 -.19433217E+02 -.11710531E+02 0.23405086E+02 0.32000000E+00 0.0000E+00 0.9000E+01
#aMCatNLO 1  0  0  1  5 0.10021839D+01 0.00000000D+00  -5  6  0 0.00000000D+00 0.00000000D+00 0.00000000D+00 0.00000000D+00 0.00000000D+00
  <mgrwgt>
 -.5178591626D-02    1    2    0
 0.168932865531967D+03 0.000000000000000D+00 0.000000000000000D+00 0.168932865531967D+03
 0.168932865531967D+03 0.000000000000000D+00 0.000000000000000D+00 -.168932865531967D+03
 0.133839908604537D+03 -.132128217306728D+01 -.217421562203152D+02 -.425870167020577D+02
 0.105438213289730D+03 0.705795757843262D+01 0.411754460427832D+02 -.538959065733101D+02
 0.985876091696673D+02 -.573667540536534D+01 -.194332898224681D+02 0.964829232753678D+02
 0.000000000000000D+00 -.000000000000000D+00 0.000000000000000D+00 0.000000000000000D+00
 0.665428185811220D+03 0.000000000000000D+00 0.000000000000000D+00 0.665428185811220D+03
 0.174872261210482D+03 0.000000000000000D+00 0.000000000000000D+00 -.174872261210482D+03
 0.140802279506663D+03 0.679997844722286D+01 -.483775590104368D+02 -.425870167020577D+02
 0.999807520547478D+02 0.131322645353718D+02 0.212534634795476D+02 -.538959065733101D+02
 0.104101337110350D+03 0.256903982101242D+00 -.390905091389982D+02 0.964829232753678D+02
 0.495416078349943D+03 -.201891469646959D+02 0.662146046698874D+02 0.490555924600738D+03
-.320355501705D-06 0.000000000000D+00 0.000000000000D+00 0.817203256028D-05 0.000000000000D+00  6 21 2 25 24 1 21 4 0.15580927D-02 0.43351915D+00 0.14133473D+05 0.14133473D+05 0.14133473D+05 0.12507794D+01  1  2 14  1  6  1       21 -.517859162552D-02 0.100000000000D+01
  </mgrwgt>
  </event>
  <event>
  6     66 -.46027262E-03 0.15166424E+02 0.75467711E-02 0.11990899E+00
       21 -1    0    0  501  503 0.00000000E+00 0.00000000E+00 0.50600995E+02 0.50606553E+02 0.75000000E+00 0.0000E+00 0.9000E+01
        2 -1    0    0  502    0 0.00000000E+00 0.00000000E+00 -.57949616E+03 0.57949625E+03 0.32000000E+00 0.0000E+00 0.9000E+01
       25  1    1    2    0    0 0.42816722E+02 0.22561690E+02 -.12339448E+03 0.18219083E+03 0.12500000E+03 0.0000E+00 0.9000E+01
       24  1    1    2    0    0 -.80653584E+02 -.37790606E+02 -.36642810E+03 0.38557736E+03 0.80419002E+02 0.0000E+00 0.9000E+01
        1  1    1    2  501    0 0.25968830E+02 -.33365463E+01 -.24841723E+02 0.36093300E+02 0.32000000E+00 0.0000E+00 0.9000E+01
       21  1    1    2  502  503 0.11868032E+02 0.18565462E+02 -.14230864E+02 0.26241314E+02 0.75000000E+00 0.0000E+00 0.9000E+01
#aMCatNLO 2  0  0  1  2 0.22034667D+02 0.00000000D+00  -5  6  0 0.00000000D+00 0.00000000D+00 0.00000000D+00 0.00000000D+00 0.00000000D+00
  <mgrwgt>
 -.1461727893D+00    2    2    0
 0.157546681757759D+03 0.000000000000000D+00 0.000000000000000D+00 0.157546681757759D+03
 0.157546681757759D+03 0.000000000000000D+00 0.000000000000000D+00 -.157546681757759D+03
 0.150552825233087D+03 0.484175412397719D+02 0.313244398556590D+02 0.609563315307668D+02
 0.135163820118025D+03 -.754769512530202D+02 -.296915497886793D+02 -.722750580437192D+02
 0.293767181644059D+02 0.270594100132483D+02 -.163289006697963D+01 0.113187265129524D+02
 0.000000000000000D+00 0.000000000000000D+00 0.000000000000000D+00 0.000000000000000D+00
 0.179191394128329D+03 0.000000000000000D+00 0.000000000000000D+00 0.179191394128329D+03
 0.163640838068628D+03 0.000000000000000D+00 0.000000000000000D+00 -.163640838068628D+03
 0.147251194776577D+03 0.428159680940256D+02 0.225617571481459D+02 0.609563315307668D+02
 0.140086202356839D+03 -.806542928289037D+02 -.377905963096255D+02 -.722750580437192D+02
 0.285254754778193D+02 0.259702931740076D+02 -.333662311577908D+01 0.113187265129524D+02
 0.269693595857231D+02 0.118680315608705D+02 0.185654622772587D+02 0.155505560597009D+02
-.862117244252D-05 0.000000000000D+00 0.000000000000D+00 0.530231169772D-06 0.000000000000D+00  6 21 2 25 24 1 21 4 0.79045819D-02 0.85830833D-01 0.22840621D+05 0.22840621D+05 0.22840621D+05 0.12275263D+01  1  2 13  1  6  1       21 -.164968702109D+00 0.100000000000D+01
0.998582878562D-06 0.000000000000D+00 0.000000000000D+00 0.536829808020D-06 0.162280433434D-07  6 21 2 25 24 1 21 4 0.77849597D-02 0.89150906D-01 0.22840621D+05 0.22840621D+05 0.22840621D+05 0.12275263D+01  1  2  1  1  6  1       21 0.187959128002D-01 0.100000000000D+01
  </mgrwgt>
  </event>
  <event>
  6     66 0.46027262E-03 0.74457407E+02 0.75467711E-02 0.11903156E+00
       21 -1    0    0  501  502 0.00000000E+00 0.00000000E+00 0.12956458E+02 0.12978147E+02 0.75000000E+00 0.0000E+00 0.9000E+01
        2 -1    0    0  502    0 -.00000000E+00 -.00000000E+00 -.41758407E+04 0.41758407E+04 0.32000000E+00 0.0000E+00 0.9000E+01
       25  1    1    2    0    0 -.82527792E+01 -.27921703E+02 -.28914717E+04 0.28943188E+04 0.12500000E+03 0.0000E+00 0.9000E+01
       24  1    1    2    0    0 0.20324047E+01 -.47129475E+02 -.10064102E+04 0.10107196E+04 0.80419002E+02 0.0000E+00 0.9000E+01
        1  1    1    2  503    0 -.14215653E+02 -.39943277E+01 -.82989189E+02 0.84293222E+02 0.32000000E+00 0.0000E+00 0.9000E+01
       21  1    1    2  501  503 0.20436028E+02 0.79045506E+02 -.18201315E+03 0.19948727E+03 0.75000000E+00 0.0000E+00 0.9000E+01
#aMCatNLO 2  0  0  5  2 0.15059342D+02 0.00000000D+00  -5  6  0 0.00000000D+00 0.00000000D+00 0.00000000D+00 0.00000000D+00 0.00000000D+00
  <mgrwgt>
 0.1738495760D-01    1    2    0
 0.232700568274655D+03 0.000000000000000D+00 0.000000000000000D+00 0.232700568274655D+03
 0.232700568274655D+03 -.000000000000000D+00 -.000000000000000D+00 -.232700568274655D+03
 0.190656354119640D+03 -.844866163805272D+01 -.302850992452229D+02 -.140485864934612D+03
 0.959438510229461D+02 0.193336953714000D+01 -.483243717563873D+02 -.199755793739776D+02
 0.178800931406724D+03 0.651529210091272D+01 0.786094710016102D+02 0.160461444308590D+03
 0.000000000000000D+00 0.000000000000000D+00 0.000000000000000D+00 0.000000000000000D+00
 0.232700568274655D+03 0.000000000000000D+00 0.000000000000000D+00 0.232700568274655D+03
 0.232700568274655D+03 -.000000000000000D+00 -.000000000000000D+00 -.232700568274655D+03
 0.186949431904334D+03 -.826271060383199D+01 -.280415294703166D+02 -.135906182080861D+03
 0.949218335471385D+02 0.202736087084483D+01 -.471903306563363D+02 -.176607199747106D+02
 0.155301574623024D+02 -.135075876882243D+02 -.381538120230610D+01 0.664633221633801D+01
 0.167999713635534D+03 0.197429374212114D+02 0.790472413289590D+02 0.146920569839233D+03
0.140165150980D-04 0.000000000000D+00 0.000000000000D+00 0.141353629554D-05 0.724763363174D-08  6 21 2 25 24 1 21 4 0.19949705D-02 0.64243870D+00 0.25145852D+05 0.25145852D+05 0.25145852D+05 0.12230269D+01  1  2  1  3  6  5        1 0.173849576028D-01 0.100000000000D+01
  </mgrwgt>
  </event>
  <event>
  5     66 0.46027262E-03 0.17206704E+03 0.75467711E-02 0.11433236E+00
       21 -1    0    0  501  502 0.00000000E+00 0.00000000E+00 0.27129687E+02 0.27140052E+02 0.75000000E+00 0.0000E+00 0.9000E+01
        2 -1    0    0  502    0 -.00000000E+00 -.00000000E+00 -.20595032E+04 0.20595032E+04 0.32000000E+00 0.0000E+00 0.9000E+01
       25  1    1    2    0    0 -.10675935E+03 0.28393760E+02 -.50269742E+03 0.52965409E+03 0.12500000E+03 0.0000E+00 0.9000E+01
       24  1    1    2    0    0 -.27010705E+02 0.79830907E+02 -.53441738E+03 0.54696591E+03 0.80419002E+02 0.0000E+00 0.9000E+01
        1  1    1    2  501    0 0.13377006E+03 -.10822467E+03 -.99525873E+03 0.10100233E+04 0.32000000E+00 0.0000E+00 0.9000E+01
#aMCatNLO 1  0  0  5  2 0.33444036D+02 0.00000000D+00  -5  6  0 0.00000000D+00 0.00000000D+00 0.00000000D+00 0.00000000D+00 0.00000000D+00
  <mgrwgt>
 0.1305193324D-01    4    2    0
 0.236399065294748D+03 0.000000000000000D+00 0.000000000000000D+00 0.236399065294748D+03
 0.236399065294748D+03 -.000000000000000D+00 -.000000000000000D+00 -.236399065294748D+03
 0.176672164576512D+03 -.106759431363596D+03 0.283938244697208D+02 0.581744641836464D+02
 0.116724287459538D+03 -.270107577133413D+02 0.798309498186093D+02 -.740146927144393D+01
 0.179401678553447D+03 0.133770189076938D+03 -.108224774288330D+03 -.507729949122025D+02
 0.000000000000000D+00 0.000000000000000D+00 0.000000000000000D+00 0.000000000000000D+00
 0.236399065294748D+03 0.000000000000000D+00 0.000000000000000D+00 0.236399065294748D+03
 0.236399065294748D+03 -.000000000000000D+00 -.000000000000000D+00 -.236399065294748D+03
 0.163911433415136D+03 -.909681082956606D+02 0.156180903055228D+02 0.521808061697214D+02
 0.109365119683376D+03 -.165280131199877D+02 0.713500418123763D+02 -.113802357034637D+02
 0.162800598571931D+03 0.107892811070162D+03 -.947818493885069D+02 -.766784013999490D+02
 0.367209789190529D+02 -.396689654514045D+00 0.781371727060774D+01 0.358778309336913D+02
0.654623273813D-05 0.000000000000D+00 0.000000000000D+00 0.168182048276D-06 0.000000000000D+00  6 21 2 25 24 1 21 2 0.41745973D-02 0.31684745D+00 0.51841836D+05 0.51841836D+05 0.51841836D+05 0.11907290D+01  1  2  2  3  6  5        1 0.300718280860D-01 0.100000000000D+01
-.754051760838D-06 0.345454192409D-06 -.132149578450D-07 0.168182048276D-06 0.000000000000D+00  6 21 2 25 24 1 21 4 0.41745973D-02 0.31684745D+00 0.51841836D+05 0.51841836D+05 0.51841836D+05 0.11907290D+01  1  2  3  3  6  5        1 -.491128804072D-02 0.100000000000D+01
0.701925142564D-06 0.000000000000D+00 0.000000000000D+00 0.168182048276D-06 0.000000000000D+00  6 21 2 25 24 1 21 4 0.41745973D-02 0.31684745D+00 0.51841836D+05 0.51841836D+05 0.51841836D+05 0.11907290D+01  1  2 15  3  6  5        1 0.457177708109D-02 0.100000000000D+01
-.256101306489D-05 0.000000000000D+00 0.000000000000D+00 0.168182048276D-06 0.000000000000D+00  6 21 2 25 24 1 21 4 0.41745973D-02 0.31684745D+00 0.51841836D+05 0.51841836D+05 0.51841836D+05 0.11907290D+01  1  2  4  3  6  5        1 -.166803838820D-01 0.100000000000D+01
  </mgrwgt>
  </event>
  <event>
  5     66 0.46027262E-03 0.60686235E+02 0.75467711E-02 0.11602849E+00
       21 -1    0    0  501  502 0.00000000E+00 0.00000000E+00 0.33292336E+02 0.33300783E+02 0.75000000E+00 0.0000E+00 0.9000E+01
        2 -1    0    0  502    0 0.00000000E+00 0.00000000E+00 -.14652916E+04 0.14652916E+04 0.32000000E+00 0.0000E+00 0.9000E+01
       25  1    1    2    0    0 -.72344562E+02 -.79438076E+02 -.28474931E+03 0.32901568E+03 0.12500000E+03 0.0000E+00 0.9000E+01
       24  1    1    2    0    0 0.73900846E+02 -.11019767E+02 -.34020282E+03 0.35747440E+03 0.80419002E+02 0.0000E+00 0.9000E+01
        1  1    1    2  501    0 -.15562835E+01 0.90457844E+02 -.80704709E+03 0.81210231E+03 0.32000000E+00 0.0000E+00 0.9000E+01
#aMCatNLO 1  0  0  1  2 0.11743045D+02 0.00000000D+00  -5  6  0 0.00000000D+00 0.00000000D+00 0.00000000D+00 0.00000000D+00 0.00000000D+00
  <mgrwgt>
 0.6133750948D-01   13    2    0
 0.220883078785199D+03 0.000000000000000D+00 0.000000000000000D+00 0.220883078785199D+03
 0.220883078785199D+03 0.000000000000000D+00 0.000000000000000D+00 -.220883078785199D+03
 0.193087755581542D+03 -.723445606552469D+02 -.794381814017679D+02 0.100566998735650D+03
 0.109873146437633D+03 0.739008469996969D+02 -.110198271024131D+02 0.470325175760149D+01
 0.138805255551223D+03 -.155628634445001D+01 0.904580085041811D+02 -.105270250493252D+03
 0.000000000000000D+00 -.000000000000000D+00 0.000000000000000D+00 -.000000000000000D+00
 0.226532335279762D+03 0.000000000000000D+00 0.000000000000000D+00 0.226532335279762D+03
 0.227149102911746D+03 0.000000000000000D+00 0.000000000000000D+00 -.227149102911746D+03
 0.194545593185059D+03 -.707048378081204D+02 -.843213644550274D+02 0.100566998735650D+03
 0.110814974487411D+03 0.748343769839505D+02 -.137999297318330D+02 0.470325175760149D+01
 0.136561639383370D+03 -.391460380937721D+00 0.869890939769562D+02 -.105270250493252D+03
 0.117592311356686D+02 -.373807879489238D+01 0.111322002099041D+02 -.616767631984489D+00
0.357747845186D-05 0.000000000000D+00 0.000000000000D+00 0.106468715072D-06 0.000000000000D+00  6 21 2 25 24 1 21 2 0.51225503D-02 0.22543012D+00 0.33319854D+05 0.33319854D+05 0.33319854D+05 0.12101433D+01  1  2  2  1  6  1       21 0.248071677741D-01 0.100000000000D+01
-.452976350229D-06 0.188788724582D-06 -.722189827707D-08 0.106468715072D-06 0.000000000000D+00  6 21 2 25 24 1 21 4 0.51225503D-02 0.22543012D+00 0.33319854D+05 0.33319854D+05 0.33319854D+05 0.12101433D+01  1  2  3  1  6  1       21 -.459990971991D-02 0.100000000000D+01
0.362321556828D-06 0.000000000000D+00 0.000000000000D+00 0.106468715072D-06 0.000000000000D+00  6 21 2 25 24 1 21 4 0.51225503D-02 0.22543012D+00 0.33319854D+05 0.33319854D+05 0.33319854D+05 0.12101433D+01  1  2 15  1  6  1       21 0.367932332481D-02 0.100000000000D+01
0.707045546352D-05 0.000000000000D+00 0.000000000000D+00 0.106004152603D-06 0.000000000000D+00  6 21 2 25 24 1 21 4 0.53242940D-02 0.22543012D+00 0.35341034D+05 0.35341034D+05 0.35341034D+05 0.12075003D+01  1  2 12  1  6  1       21 0.665935827894D-01 0.100000000000D+01
-.291560595359D-05 0.000000000000D+00 0.000000000000D+00 0.106468715072D-06 0.000000000000D+00  6 21 2 25 24 1 21 4 0.51225503D-02 0.22543012D+00 0.33319854D+05 0.33319854D+05 0.33319854D+05 0.12101433D+01  1  2  4  1  6  1       21 -.296075593319D-01 0.100000000000D+01
0.119660735008D-06 0.000000000000D+00 0.000000000000D+00 0.106004152603D-06 0.000000000000D+00  6 -1 2 25 24 1 -1 4 0.53242940D-02 0.22543012D+00 0.35341034D+05 0.35341034D+05 0.35341034D+05 0.12075003D+01  1  2 12  4  6  1       21 0.659631236357D-04 0.100000000000D+01
0.119660735008D-06 0.000000000000D+00 0.000000000000D+00 0.106004152603D-06 0.000000000000D+00  6 1 2 25 24 1 1 4 0.53242940D-02 0.22543012D+00 0.35341034D+05 0.35341034D+05 0.35341034D+05 0.12075003D+01  1  2 12  5  6  1       21 0.748244589912D-04 0.100000000000D+01
0.119660735008D-06 0.000000000000D+00 0.000000000000D+00 0.106004152603D-06 0.000000000000D+00  6 -2 2 25 24 1 -2 4 0.53242940D-02 0.22543012D+00 0.35341034D+05 0.35341034D+05 0.35341034D+05 0.12075003D+01  1  2 12  6  6  1       21 0.644057921573D-04 0.100000000000D+01
0.119660735008D-06 0.000000000000D+00 0.000000000000D+00 0.106004152603D-06 0.000000000000D+00  6 2 2 25 24 1 2 4 0.53242940D-02 0.22543012D+00 0.35341034D+05 0.35341034D+05 0.35341034D+05 0.12075003D+01  1  2 12  7  6  1       21 0.807896008934D-04 0.100000000000D+01
0.119660735008D-06 0.000000000000D+00 0.000000000000D+00 0.106004152603D-06 0.000000000000D+00  6 -3 2 25 24 1 -3 4 0.53242940D-02 0.22543012D+00 0.35341034D+05 0.35341034D+05 0.35341034D+05 0.12075003D+01  1  2 12  8  6  1       21 0.472199940236D-04 0.100000000000D+01
0.119660735008D-06 0.000000000000D+00 0.000000000000D+00 0.106004152603D-06 0.000000000000D+00  6 -4 2 25 24 1 -4 4 0.53242940D-02 0.22543012D+00 0.35341034D+05 0.35341034D+05 0.35341034D+05 0.12075003D+01  1  2 12  8  6  1       21 0.422431362935D-04 0.100000000000D+01
0.119660735008D-06 0.000000000000D+00 0.000000000000D+00 0.106004152603D-06 0.000000000000D+00  6 3 2 25 24 1 3 4 0.53242940D-02 0.22543012D+00 0.35341034D+05 0.35341034D+05 0.35341034D+05 0.12075003D+01  1  2 12  9  6  1       21 0.472154059544D-04 0.100000000000D+01
0.119660735008D-06 0.000000000000D+00 0.000000000000D+00 0.106004152603D-06 0.000000000000D+00  6 4 2 25 24 1 4 4 0.53242940D-02 0.22543012D+00 0.35341034D+05 0.35341034D+05 0.35341034D+05 0.12075003D+01  1  2 12  9  6  1       21 0.422431362935D-04 0.100000000000D+01
  </mgrwgt>
  </event>
  <event>
  5     66 0.46027262E-03 0.31613013E+02 0.75467711E-02 0.11276037E+00
       21 -1    0    0  501  502 0.00000000E+00 0.00000000E+00 0.91465569E+01 0.91772547E+01 0.75000000E+00 0.0000E+00 0.9000E+01
        2 -1    0    0  502    0 0.00000000E+00 0.00000000E+00 -.31645460E+04 0.31645460E+04 0.32000000E+00 0.0000E+00 0.9000E+01
       25  1    1    2    0    0 0.75951471E+02 -.74846777E+02 -.22403196E+04 0.22463365E+04 0.12500000E+03 0.0000E+00 0.9000E+01
       24  1    1    2    0    0 -.48850820E+02 0.58570950E+02 -.81309879E+03 0.82061795E+03 0.80419002E+02 0.0000E+00 0.9000E+01
        1  1    1    2  501    0 -.27100651E+02 0.16275827E+02 -.10198099E+03 0.10676878E+03 0.32000000E+00 0.0000E+00 0.9000E+01
#aMCatNLO 1  0  0  1  1 0.14236314D+03 0.00000000D+00  -5  6  0 0.00000000D+00 0.00000000D+00 0.00000000D+00 0.00000000D+00 0.00000000D+00
  <mgrwgt>
 0.3730467488D+00    3    2    0
 0.170274597006470D+03 0.000000000000000D+00 0.000000000000000D+00 0.170274597006470D+03
 0.170274597006470D+03 0.000000000000000D+00 0.000000000000000D+00 -.170274597006470D+03
 0.176618410222017D+03 0.759517576723893D+02 -.748469495161795D+02 -.647945019577253D+02
 0.113824209137128D+03 -.488506356355787D+02 0.585708390772486D+02 0.259192368542959D+02
 0.501065746537945D+02 -.271011220368105D+02 0.162761104389309D+02 0.388752651034293D+02
 0.000000000000000D+00 0.000000000000000D+00 -.000000000000000D+00 -.000000000000000D+00
 0.223318468029816D+03 0.000000000000000D+00 0.000000000000000D+00 0.223318468029816D+03
 0.273862315585818D+03 0.000000000000000D+00 0.000000000000000D+00 -.273862315585818D+03
 0.149127051851431D+03 0.322641479852726D+02 -.370752594695459D+02 -.647945019577253D+02
 0.148764432753512D+03 -.840679185477248D+02 0.890192042766489D+02 0.259192368542959D+02
 0.647611122948361D+02 -.425066925123931D+02 0.295955489974308D+02 0.388752651034293D+02
 0.134528186715854D+03 0.943104630748453D+02 -.815394938045338D+02 -.505438475560022D+02
0.418698924415D-04 0.000000000000D+00 0.000000000000D+00 0.796829845434D-06 0.000000000000D+00  6 21 2 25 24 1 21 2 0.14095252D-02 0.48685559D+00 0.23523992D+05 0.23523992D+05 0.23523992D+05 0.12261413D+01  1  2  2  1  6  1       21 0.303676607546D+00 0.100000000000D+01
0.254888595087D-05 0.220953492768D-05 -.845232495887D-07 0.796829845434D-06 0.000000000000D+00  6 21 2 25 24 1 21 4 0.14095252D-02 0.48685559D+00 0.23523992D+05 0.23523992D+05 0.23523992D+05 0.12261413D+01  1  2  3  1  6  1       21 0.277933547082D-01 0.100000000000D+01
0.381294334990D-05 0.000000000000D+00 0.000000000000D+00 0.796829845434D-06 0.000000000000D+00  6 21 2 25 24 1 21 4 0.14095252D-02 0.48685559D+00 0.23523992D+05 0.23523992D+05 0.23523992D+05 0.12261413D+01  1  2 15  1  6  1       21 0.415767865053D-01 0.100000000000D+01
  </mgrwgt>
  </event>
  <event>
  5     66 0.46027262E-03 0.33909152E+02 0.75467711E-02 0.11975664E+00
       21 -1    0    0  501  502 0.00000000E+00 0.00000000E+00 0.12042618E+03 0.12042851E+03 0.75000000E+00 0.0000E+00 0.9000E+01
        4 -1    0    0  502    0 0.00000000E+00 0.00000000E+00 -.16621828E+03 0.16622550E+03 0.15500000E+01 0.0000E+00 0.9000E+01
       25  1    1    2    0    0 0.38028533E+02 -.88173820E+01 0.16624850E+02 0.13200493E+03 0.12500000E+03 0.0000E+00 0.9000E+01
       24  1    1    2    0    0 -.64354569E+02 0.30185121E+02 -.43422365E+02 0.11578156E+03 0.80419002E+02 0.0000E+00 0.9000E+01
        3  1    1    2  501    0 0.26326036E+02 -.21367739E+02 -.18994584E+02 0.38867527E+02 0.50000000E+00 0.0000E+00 0.9000E+01
#aMCatNLO 1  0  0  1  2 0.31036390D+02 0.00000000D+00  -5  6  0 0.00000000D+00 0.00000000D+00 0.00000000D+00 0.00000000D+00 0.00000000D+00
  <mgrwgt>
 0.4407839821D-01   23    2    0
 0.141486402905626D+03 0.000000000000000D+00 0.000000000000000D+00 0.141486402905626D+03
 0.141486402905626D+03 0.000000000000000D+00 0.000000000000000D+00 -.141486402905626D+03
 0.136412273946139D+03 0.380273291115858D+02 -.881640470060426D+01 0.382034256572741D+02
 0.110261616913741D+03 -.643555421566565D+02 0.301859109721331D+02 -.252504095524659D+02
 0.362989149513723D+02 0.263282130450706D+02 -.213695062715288D+02 -.129530161048082D+02
 0.000000000000000D+00 0.000000000000000D+00 -.000000000000000D+00 0.000000000000000D+00
 0.171148533349759D+03 0.000000000000000D+00 0.000000000000000D+00 0.171148533349759D+03
 0.150692521623871D+03 0.000000000000000D+00 0.000000000000000D+00 -.150692521623871D+03
 0.134649907942334D+03 0.319968822777961D+02 0.472181124454280D+01 0.382034256572741D+02
 0.116819235275185D+03 -.694075158276292D+02 0.415274769276768D+02 -.252504095524659D+02
 0.332006064117123D+02 0.247820247659312D+02 -.178983487616814D+02 -.129530161048082D+02
 0.371713053443981D+02 0.126286087839020D+02 -.283509394105382D+02 0.204560117258871D+02
0.386108709078D-05 0.000000000000D+00 0.000000000000D+00 0.355128900514D-06 0.000000000000D+00  6 21 4 25 24 3 21 2 0.18527840D-01 0.25572778D-01 0.18522401D+05 0.18522401D+05 0.18522401D+05 0.12375126D+01  1  2  2  1  6  1       21 0.923974861262D-02 0.100000000000D+01
-.122550920499D-06 0.203755163638D-06 -.779442240778D-08 0.355128900514D-06 0.000000000000D+00  6 21 4 25 24 3 21 4 0.18527840D-01 0.25572778D-01 0.18522401D+05 0.18522401D+05 0.18522401D+05 0.12375126D+01  1  2  3  1  6  1       21 -.449124171080D-03 0.100000000000D+01
0.419317802187D-06 0.000000000000D+00 0.000000000000D+00 0.355128900514D-06 0.000000000000D+00  6 21 4 25 24 3 21 4 0.18527840D-01 0.25572778D-01 0.18522401D+05 0.18522401D+05 0.18522401D+05 0.12375126D+01  1  2 15  1  6  1       21 0.153671436787D-02 0.100000000000D+01
0.649733929539D-05 0.000000000000D+00 0.000000000000D+00 0.348976508426D-06 0.000000000000D+00  6 21 4 25 24 3 21 4 0.22921902D-01 0.25572778D-01 0.23222748D+05 0.23222748D+05 0.23222748D+05 0.12267462D+01  1  2 12  1  6  1       21 0.156266622442D-01 0.100000000000D+01
-.239125008193D-05 0.000000000000D+00 0.000000000000D+00 0.355128900514D-06 0.000000000000D+00  6 21 4 25 24 3 21 4 0.18527840D-01 0.25572778D-01 0.18522401D+05 0.18522401D+05 0.18522401D+05 0.12375126D+01  1  2  4  1  6  1       21 -.876344466867D-02 0.100000000000D+01
-.248613754321D-04 0.000000000000D+00 -.618605123658D-05 0.355128900514D-06 0.000000000000D+00  6 21 4 25 24 3 21 4 0.23750533D-01 0.25572778D-01 0.18522401D+05 0.18522401D+05 0.18522401D+05 0.12375126D+01  1  2  5  1  6  1       21 -.574070333816D-01 0.100000000000D+01
0.234545218786D-04 0.000000000000D+00 0.548499507920D-05 0.355128900514D-06 0.000000000000D+00  6 21 4 25 24 3 21 4 0.18527840D-01 0.25572778D-01 0.18522401D+05 0.18522401D+05 0.18522401D+05 0.12375126D+01  1  2  6  1  6  1       21 0.859560471182D-01 0.100000000000D+01
0.401833593972D-06 0.000000000000D+00 0.000000000000D+00 0.348976508426D-06 0.000000000000D+00  6 -3 4 25 24 3 -3 4 0.22921902D-01 0.25572778D-01 0.23222748D+05 0.23222748D+05 0.23222748D+05 0.12267462D+01  1  2 12  4  6  1       21 0.459384214285D-04 0.100000000000D+01
-.156739284909D-05 0.000000000000D+00 -.461732538628D-06 0.355128900514D-06 0.000000000000D+00  6 -3 4 25 24 3 -3 4 0.23750533D-01 0.25572778D-01 0.18522401D+05 0.18522401D+05 0.18522401D+05 0.12375126D+01  1  2  5  4  6  1       21 -.170920036731D-03 0.100000000000D+01
0.401833593972D-06 0.000000000000D+00 0.000000000000D+00 0.348976508426D-06 0.000000000000D+00  6 3 4 25 24 3 3 4 0.22921902D-01 0.25572778D-01 0.23222748D+05 0.23222748D+05 0.23222748D+05 0.12267462D+01  1  2 12  5  6  1       21 0.459354511850D-04 0.100000000000D+01
-.156739284909D-05 0.000000000000D+00 -.461732538628D-06 0.355128900514D-06 0.000000000000D+00  6 3 4 25 24 3 3 4 0.23750533D-01 0.25572778D-01 0.18522401D+05 0.18522401D+05 0.18522401D+05 0.12375126D+01  1  2  5  5  6  1       21 -.170909739592D-03 0.100000000000D+01
0.401833593972D-06 0.000000000000D+00 0.000000000000D+00 0.348976508426D-06 0.000000000000D+00  6 -4 4 25 24 3 -4 4 0.22921902D-01 0.25572778D-01 0.23222748D+05 0.23222748D+05 0.23222748D+05 0.12267462D+01  1  2 12  6  6  1       21 0.390171672433D-04 0.100000000000D+01
-.156739284909D-05 0.000000000000D+00 -.461732538628D-06 0.355128900514D-06 0.000000000000D+00  6 -4 4 25 24 3 -4 4 0.23750533D-01 0.25572778D-01 0.18522401D+05 0.18522401D+05 0.18522401D+05 0.12375126D+01  1  2  5  6  6  1       21 -.144607569597D-03 0.100000000000D+01
0.401833593972D-06 0.000000000000D+00 0.000000000000D+00 0.348976508426D-06 0.000000000000D+00  6 4 4 25 24 3 4 4 0.22921902D-01 0.25572778D-01 0.23222748D+05 0.23222748D+05 0.23222748D+05 0.12267462D+01  1  2 12  7  6  1       21 0.390171672433D-04 0.100000000000D+01
-.156739284909D-05 0.000000000000D+00 -.461732538628D-06 0.355128900514D-06 0.000000000000D+00  6 4 4 25 24 3 4 4 0.23750533D-01 0.25572778D-01 0.18522401D+05 0.18522401D+05 0.18522401D+05 0.12375126D+01  1  2  5  7  6  1       21 -.144607569597D-03 0.100000000000D+01
0.401833593972D-06 0.000000000000D+00 0.000000000000D+00 0.348976508426D-06 0.000000000000D+00  6 -1 4 25 24 3 -1 4 0.22921902D-01 0.25572778D-01 0.23222748D+05 0.23222748D+05 0.23222748D+05 0.12267462D+01  1  2 12  8  6  1       21 0.783788312199D-04 0.100000000000D+01
0.401833593972D-06 0.000000000000D+00 0.000000000000D+00 0.348976508426D-06 0.000000000000D+00  6 -2 4 25 24 3 -2 4 0.22921902D-01 0.25572778D-01 0.23222748D+05 0.23222748D+05 0.23222748D+05 0.12267462D+01  1  2 12  8  6  1       21 0.708028122135D-04 0.100000000000D+01
-.156739284909D-05 0.000000000000D+00 -.461732538628D-06 0.355128900514D-06 0.000000000000D+00  6 -1 4 25 24 3 -1 4 0.23750533D-01 0.25572778D-01 0.18522401D+05 0.18522401D+05 0.18522401D+05 0.12375126D+01  1  2  5  8  6  1       21 -.294882410427D-03 0.100000000000D+01
-.156739284909D-05 0.000000000000D+00 -.461732538628D-06 0.355128900514D-06 0.000000000000D+00  6 -2 4 25 24 3 -2 4 0.23750533D-01 0.25572778D-01 0.18522401D+05 0.18522401D+05 0.18522401D+05 0.12375126D+01  1  2  5  8  6  1       21 -.265380230814D-03 0.100000000000D+01
0.401833593972D-06 0.000000000000D+00 0.000000000000D+00 0.348976508426D-06 0.000000000000D+00  6 1 4 25 24 3 1 4 0.22921902D-01 0.25572778D-01 0.23222748D+05 0.23222748D+05 0.23222748D+05 0.12267462D+01  1  2 12  9  6  1       21 0.123652239464D-03 0.100000000000D+01
0.401833593972D-06 0.000000000000D+00 0.000000000000D+00 0.348976508426D-06 0.000000000000D+00  6 2 4 25 24 3 2 4 0.22921902D-01 0.25572778D-01 0.23222748D+05 0.23222748D+05 0.23222748D+05 0.12267462D+01  1  2 12  9  6  1       21 0.155818503978D-03 0.100000000000D+01
-.156739284909D-05 0.000000000000D+00 -.461732538628D-06 0.355128900514D-06 0.000000000000D+00  6 1 4 25 24 3 1 4 0.23750533D-01 0.25572778D-01 0.18522401D+05 0.18522401D+05 0.18522401D+05 0.12375126D+01  1  2  5  9  6  1       21 -.471427211647D-03 0.100000000000D+01
-.156739284909D-05 0.000000000000D+00 -.461732538628D-06 0.355128900514D-06 0.000000000000D+00  6 2 4 25 24 3 2 4 0.23750533D-01 0.25572778D-01 0.18522401D+05 0.18522401D+05 0.18522401D+05 0.12375126D+01  1  2  5  9  6  1       21 -.596997738436D-03 0.100000000000D+01
  </mgrwgt>
  </event>
  <event>
  5     66 0.46027262E-03 0.12579441E+03 0.75467711E-02 0.11198327E+00
       21 -1    0    0  501  502 0.00000000E+00 0.00000000E+00 0.22732392E+03 0.22732516E+03 0.75000000E+00 0.0000E+00 0.9000E+01
        2 -1    0    0  502    0 0.00000000E+00 0.00000000E+00 -.29501523E+03 0.29501541E+03 0.32000000E+00 0.0000E+00 0.9000E+01
       25  1    1    2    0    0 0.26467728E+01 0.10645492E+02 -.12198790E+03 0.17500394E+03 0.12500000E+03 0.0000E+00 0.9000E+01
       24  1    1    2    0    0 -.14721127E+03 -.65806402E+02 -.83974451E+01 0.18038673E+03 0.80419002E+02 0.0000E+00 0.9000E+01
        1  1    1    2  501    0 0.14456450E+03 0.55160910E+02 0.62694032E+02 0.16694989E+03 0.32000000E+00 0.0000E+00 0.9000E+01
#aMCatNLO 1  0  0  1  2 0.19372940D+02 0.00000000D+00  -5  6  0 0.00000000D+00 0.00000000D+00 0.00000000D+00 0.00000000D+00 0.00000000D+00
  <mgrwgt>
 0.6799481595D-01   32    2    0
 0.258967927156019D+03 0.000000000000000D+00 0.000000000000000D+00 0.258967927156019D+03
 0.258967927156019D+03 0.000000000000000D+00 0.000000000000000D+00 -.258967927156019D+03
 0.160549126597224D+03 0.264669920852084D+01 0.106454639920914D+02 -.100153338091269D+03
 0.180823382099022D+03 -.147211353891382D+03 -.658064333462800D+02 0.151066268593054D+02
 0.176563345615792D+03 0.144564654682861D+03 0.551609693541886D+02 0.850467112319638D+02
 0.000000000000000D+00 0.000000000000000D+00 -.000000000000000D+00 0.000000000000000D+00
 0.287885950996140D+03 0.000000000000000D+00 0.000000000000000D+00 0.287885950996140D+03
 0.262414077449636D+03 0.000000000000000D+00 0.000000000000000D+00 -.262414077449636D+03
 0.160858447432971D+03 -.177189222128458D+01 0.147176553050348D+02 -.100153338091269D+03
 0.183330758266940D+03 -.152217609168981D+03 -.611926487102300D+02 0.151066268593054D+02
 0.174108835968827D+03 0.139743744345274D+03 0.596039393615028D+02 0.850467112319638D+02
 0.320019867770376D+02 0.142457570449923D+02 -.131289459563076D+02 0.254718735465041D+02
0.529073265719D-05 0.000000000000D+00 0.000000000000D+00 0.131996498724D-06 0.000000000000D+00  6 21 2 25 24 1 21 2 0.34973019D-01 0.45387067D-01 0.52992642D+05 0.52992642D+05 0.52992642D+05 0.11897896D+01  1  2  2  1  6  1       21 0.808738120368D-02 0.100000000000D+01
-.344145689925D-06 0.279199632897D-06 -.106804649072D-07 0.131996498724D-06 0.000000000000D+00  6 21 2 25 24 1 21 4 0.34973019D-01 0.45387067D-01 0.52992642D+05 0.52992642D+05 0.52992642D+05 0.11897896D+01  1  2  3  1  6  1       21 -.744688716212D-03 0.100000000000D+01
0.603485317061D-06 0.000000000000D+00 0.000000000000D+00 0.131996498724D-06 0.000000000000D+00  6 21 2 25 24 1 21 4 0.34973019D-01 0.45387067D-01 0.52992642D+05 0.52992642D+05 0.52992642D+05 0.11897896D+01  1  2 15  1  6  1       21 0.130586759960D-02 0.100000000000D+01
0.361377595159D-04 0.000000000000D+00 0.000000000000D+00 0.131215479262D-06 0.000000000000D+00  6 21 2 25 24 1 21 4 0.39094724D-01 0.45387067D-01 0.57571276D+05 0.57571276D+05 0.57571276D+05 0.11862644D+01  1  2 12  1  6  1       21 0.616627385614D-01 0.100000000000D+01
0.281738016731D-04 0.000000000000D+00 0.000000000000D+00 0.131215479262D-06 0.000000000000D+00  6 21 2 25 24 1 21 4 0.40191960D-01 0.45387067D-01 0.57571276D+05 0.57571276D+05 0.57571276D+05 0.11862644D+01  1  2 12  1  6  1       21 0.454487044672D-01 0.100000000000D+01
-.444710747466D-04 0.000000000000D+00 0.000000000000D+00 0.131996498724D-06 0.000000000000D+00  6 21 2 25 24 1 21 4 0.34973019D-01 0.45387067D-01 0.52992642D+05 0.52992642D+05 0.52992642D+05 0.11897896D+01  1  2  4  1  6  1       21 -.962299064934D-01 0.100000000000D+01
-.120814365374D-03 0.000000000000D+00 -.152643133615D-04 0.131996498724D-06 0.000000000000D+00  6 21 2 25 24 1 21 4 0.39266293D-01 0.45387067D-01 0.52992642D+05 0.52992642D+05 0.52992642D+05 0.11897896D+01  1  2  5  1  6  1       21 -.207196253669D+00 0.100000000000D+01
0.119039434649D-03 0.000000000000D+00 0.148626562920D-04 0.131996498724D-06 0.000000000000D+00  6 21 2 25 24 1 21 4 0.34973019D-01 0.45387067D-01 0.52992642D+05 0.52992642D+05 0.52992642D+05 0.11897896D+01  1  2  6  1  6  1       21 0.257586616258D+00 0.100000000000D+01
0.104364383392D-05 0.000000000000D+00 0.000000000000D+00 0.131215479262D-06 0.000000000000D+00  6 -1 2 25 24 1 -1 4 0.39094724D-01 0.45387067D-01 0.57571276D+05 0.57571276D+05 0.57571276D+05 0.11862644D+01  1  2 12  4  6  1       21 0.168921117683D-03 0.100000000000D+01
0.105070316777D-05 0.000000000000D+00 0.000000000000D+00 0.131215479262D-06 0.000000000000D+00  6 -1 2 25 24 1 -1 4 0.40191960D-01 0.45387067D-01 0.57571276D+05 0.57571276D+05 0.57571276D+05 0.11862644D+01  1  2 12  4  6  1       21 0.161913508624D-03 0.100000000000D+01
-.341977552651D-05 0.000000000000D+00 -.460667106249D-06 0.131996498724D-06 0.000000000000D+00  6 -1 2 25 24 1 -1 4 0.39266293D-01 0.45387067D-01 0.52992642D+05 0.52992642D+05 0.52992642D+05 0.11897896D+01  1  2  5  4  6  1       21 -.555755882853D-03 0.100000000000D+01
0.104364383392D-05 0.000000000000D+00 0.000000000000D+00 0.131215479262D-06 0.000000000000D+00  6 1 2 25 24 1 1 4 0.39094724D-01 0.45387067D-01 0.57571276D+05 0.57571276D+05 0.57571276D+05 0.11862644D+01  1  2 12  5  6  1       21 0.336716586191D-03 0.100000000000D+01
0.105070316777D-05 0.000000000000D+00 0.000000000000D+00 0.131215479262D-06 0.000000000000D+00  6 1 2 25 24 1 1 4 0.40191960D-01 0.45387067D-01 0.57571276D+05 0.57571276D+05 0.57571276D+05 0.11862644D+01  1  2 12  5  6  1       21 0.327403883782D-03 0.100000000000D+01
-.341977552651D-05 0.000000000000D+00 -.460667106249D-06 0.131996498724D-06 0.000000000000D+00  6 1 2 25 24 1 1 4 0.39266293D-01 0.45387067D-01 0.52992642D+05 0.52992642D+05 0.52992642D+05 0.11897896D+01  1  2  5  5  6  1       21 -.111019182724D-02 0.100000000000D+01
0.104364383392D-05 0.000000000000D+00 0.000000000000D+00 0.131215479262D-06 0.000000000000D+00  6 -2 2 25 24 1 -2 4 0.39094724D-01 0.45387067D-01 0.57571276D+05 0.57571276D+05 0.57571276D+05 0.11862644D+01  1  2 12  6  6  1       21 0.143594356128D-03 0.100000000000D+01
0.105070316777D-05 0.000000000000D+00 0.000000000000D+00 0.131215479262D-06 0.000000000000D+00  6 -2 2 25 24 1 -2 4 0.40191960D-01 0.45387067D-01 0.57571276D+05 0.57571276D+05 0.57571276D+05 0.11862644D+01  1  2 12  6  6  1       21 0.137121333607D-03 0.100000000000D+01
-.341977552651D-05 0.000000000000D+00 -.460667106249D-06 0.131996498724D-06 0.000000000000D+00  6 -2 2 25 24 1 -2 4 0.39266293D-01 0.45387067D-01 0.52992642D+05 0.52992642D+05 0.52992642D+05 0.11897896D+01  1  2  5  6  6  1       21 -.472071005968D-03 0.100000000000D+01
0.104364383392D-05 0.000000000000D+00 0.000000000000D+00 0.131215479262D-06 0.000000000000D+00  6 2 2 25 24 1 2 4 0.39094724D-01 0.45387067D-01 0.57571276D+05 0.57571276D+05 0.57571276D+05 0.11862644D+01  1  2 12  7  6  1       21 0.463460358132D-03 0.100000000000D+01
0.105070316777D-05 0.000000000000D+00 0.000000000000D+00 0.131215479262D-06 0.000000000000D+00  6 2 2 25 24 1 2 4 0.40191960D-01 0.45387067D-01 0.57571276D+05 0.57571276D+05 0.57571276D+05 0.11862644D+01  1  2 12  7  6  1       21 0.452830449432D-03 0.100000000000D+01
-.341977552651D-05 0.000000000000D+00 -.460667106249D-06 0.131996498724D-06 0.000000000000D+00  6 2 2 25 24 1 2 4 0.39266293D-01 0.45387067D-01 0.52992642D+05 0.52992642D+05 0.52992642D+05 0.11897896D+01  1  2  5  7  6  1       21 -.152891322993D-02 0.100000000000D+01
0.104364383392D-05 0.000000000000D+00 0.000000000000D+00 0.131215479262D-06 0.000000000000D+00  6 -3 2 25 24 1 -3 4 0.39094724D-01 0.45387067D-01 0.57571276D+05 0.57571276D+05 0.57571276D+05 0.11862644D+01  1  2 12  8  6  1       21 0.923369754716D-04 0.100000000000D+01
0.104364383392D-05 0.000000000000D+00 0.000000000000D+00 0.131215479262D-06 0.000000000000D+00  6 -4 2 25 24 1 -4 4 0.39094724D-01 0.45387067D-01 0.57571276D+05 0.57571276D+05 0.57571276D+05 0.11862644D+01  1  2 12  8  6  1       21 0.774582136970D-04 0.100000000000D+01
0.105070316777D-05 0.000000000000D+00 0.000000000000D+00 0.131215479262D-06 0.000000000000D+00  6 -3 2 25 24 1 -3 4 0.40191960D-01 0.45387067D-01 0.57571276D+05 0.57571276D+05 0.57571276D+05 0.11862644D+01  1  2 12  8  6  1       21 0.880851815599D-04 0.100000000000D+01
0.105070316777D-05 0.000000000000D+00 0.000000000000D+00 0.131215479262D-06 0.000000000000D+00  6 -4 2 25 24 1 -4 4 0.40191960D-01 0.45387067D-01 0.57571276D+05 0.57571276D+05 0.57571276D+05 0.11862644D+01  1  2 12  8  6  1       21 0.738078188144D-04 0.100000000000D+01
-.341977552651D-05 0.000000000000D+00 -.460667106249D-06 0.131996498724D-06 0.000000000000D+00  6 -3 2 25 24 1 -3 4 0.39266293D-01 0.45387067D-01 0.52992642D+05 0.52992642D+05 0.52992642D+05 0.11897896D+01  1  2  5  8  6  1       21 -.303041162412D-03 0.100000000000D+01
-.341977552651D-05 0.000000000000D+00 -.460667106249D-06 0.131996498724D-06 0.000000000000D+00  6 -4 2 25 24 1 -4 4 0.39266293D-01 0.45387067D-01 0.52992642D+05 0.52992642D+05 0.52992642D+05 0.11897896D+01  1  2  5  8  6  1       21 -.253972192220D-03 0.100000000000D+01
0.104364383392D-05 0.000000000000D+00 0.000000000000D+00 0.131215479262D-06 0.000000000000D+00  6 3 2 25 24 1 3 4 0.39094724D-01 0.45387067D-01 0.57571276D+05 0.57571276D+05 0.57571276D+05 0.11862644D+01  1  2 12  9  6  1       21 0.923549939341D-04 0.100000000000D+01
0.104364383392D-05 0.000000000000D+00 0.000000000000D+00 0.131215479262D-06 0.000000000000D+00  6 4 2 25 24 1 4 4 0.39094724D-01 0.45387067D-01 0.57571276D+05 0.57571276D+05 0.57571276D+05 0.11862644D+01  1  2 12  9  6  1       21 0.774582136970D-04 0.100000000000D+01
0.105070316777D-05 0.000000000000D+00 0.000000000000D+00 0.131215479262D-06 0.000000000000D+00  6 3 2 25 24 1 3 4 0.40191960D-01 0.45387067D-01 0.57571276D+05 0.57571276D+05 0.57571276D+05 0.11862644D+01  1  2 12  9  6  1       21 0.881042776907D-04 0.100000000000D+01
0.105070316777D-05 0.000000000000D+00 0.000000000000D+00 0.131215479262D-06 0.000000000000D+00  6 4 2 25 24 1 4 4 0.40191960D-01 0.45387067D-01 0.57571276D+05 0.57571276D+05 0.57571276D+05 0.11862644D+01  1  2 12  9  6  1       21 0.738078188144D-04 0.100000000000D+01
-.341977552651D-05 0.000000000000D+00 -.460667106249D-06 0.131996498724D-06 0.000000000000D+00  6 3 2 25 24 1 3 4 0.39266293D-01 0.45387067D-01 0.52992642D+05 0.52992642D+05 0.52992642D+05 0.11897896D+01  1  2  5  9  6  1       21 -.303100855109D-03 0.100000000000D+01
-.341977552651D-05 0.000000000000D+00 -.460667106249D-06 0.131996498724D-06 0.000000000000D+00  6 4 2 25 24 1 4 4 0.39266293D-01 0.45387067D-01 0.52992642D+05 0.52992642D+05 0.52992642D+05 0.11897896D+01  1  2  5  9  6  1       21 -.253972192220D-03 0.100000000000D+01
  </mgrwgt>
  </event>
  <event>
  5     66 -.46027262E-03 0.57966544E+02 0.75467711E-02 0.12107417E+00
       21 -1    0    0  501  502 0.00000000E+00 0.00000000E+00 0.38879857E+02 0.38887090E+02 0.75000000E+00 0.0000E+00 0.9000E+01
        2 -1    0    0  502    0 0.00000000E+00 0.00000000E+00 -.73087914E+03 0.73087921E+03 0.32000000E+00 0.0000E+00 0.9000E+01
       25  1    1    2    0    0 -.29499441E+01 -.35614510E+02 -.16814231E+03 0.21254160E+03 0.12500000E+03 0.0000E+00 0.9000E+01
       24  1    1    2    0    0 0.16261574E+02 -.28526310E+02 -.12028605E+03 0.14837162E+03 0.80419002E+02 0.0000E+00 0.9000E+01
        1  1    1    2  501    0 -.13311630E+02 0.64140820E+02 -.40357092E+03 0.40885307E+03 0.32000000E+00 0.0000E+00 0.9000E+01
#aMCatNLO 1  0  0  1  2 0.16482769D+01 0.00000000D+00  -5  6  0 0.00000000D+00 0.00000000D+00 0.00000000D+00 0.00000000D+00 0.00000000D+00
  <mgrwgt>
 -.3431274002D-01   41    2    0
 0.168580209655150D+03 0.000000000000000D+00 0.000000000000000D+00 0.168580209655150D+03
 0.168580209655150D+03 0.000000000000000D+00 0.000000000000000D+00 -.168580209655150D+03
 0.140150002783928D+03 -.294991847378037D+01 -.356146335664600D+02 0.523442369058885D+02
 0.918661712444420D+02 0.162615905166195D+02 -.285263907317131D+02 0.298995513416844D+02
 0.105144245281930D+03 -.133116720428391D+02 0.641410242981731D+02 -.822437882475730D+02
 0.000000000000000D+00 0.000000000000000D+00 0.000000000000000D+00 0.000000000000000D+00
 0.279523059791643D+03 0.000000000000000D+00 0.000000000000000D+00 0.279523059791643D+03
 0.168588346346537D+03 0.000000000000000D+00 0.000000000000000D+00 -.168588346346537D+03
 0.140323055357704D+03 -.313814837730452D+01 -.362738576997730D+02 0.523442369058885D+02
 0.919795397712339D+02 0.161382087534045D+02 -.289585018596434D+02 0.298995513416844D+02
 0.104861853124704D+03 -.134526104556210D+02 0.636474257717056D+02 -.822437882475730D+02
 0.110946957884539D+03 0.452550079521014D+00 0.158493378771083D+01 0.110934713445106D+03
0.716993104139D-07 0.000000000000D+00 0.000000000000D+00 0.259209560170D-06 0.000000000000D+00  6 21 2 25 24 1 21 2 0.59820782D-02 0.11244351D+00 0.19934646D+05 0.19934646D+05 0.19934646D+05 0.12339826D+01  1  2  2  1  6  1       21 0.108297004078D-02 0.100000000000D+01
-.916937597252D-08 0.378367656119D-08 -.144740250239D-09 0.259209560170D-06 0.000000000000D+00  6 21 2 25 24 1 21 4 0.59820782D-02 0.11244351D+00 0.19934646D+05 0.19934646D+05 0.19934646D+05 0.12339826D+01  1  2  3  1  6  1       21 -.210891605494D-03 0.100000000000D+01
0.731606507210D-08 0.000000000000D+00 0.000000000000D+00 0.259209560170D-06 0.000000000000D+00  6 21 2 25 24 1 21 4 0.59820782D-02 0.11244351D+00 0.19934646D+05 0.19934646D+05 0.19934646D+05 0.12339826D+01  1  2 15  1  6  1       21 0.168266271727D-03 0.100000000000D+01
0.879525827747D-07 0.000000000000D+00 0.000000000000D+00 0.258996752413D-06 0.000000000000D+00  6 21 2 25 24 1 21 4 0.99189531D-02 0.11244351D+00 0.20147061D+05 0.20147061D+05 0.20147061D+05 0.12334759D+01  1  2 12  1  6  1       21 0.844260112070D-03 0.100000000000D+01
0.879501712610D-07 0.000000000000D+00 0.000000000000D+00 0.258996752413D-06 0.000000000000D+00  6 21 2 25 24 1 21 4 0.99190970D-02 0.11244351D+00 0.20147061D+05 0.20147061D+05 0.20147061D+05 0.12334759D+01  1  2 12  1  6  1       21 0.844215491052D-03 0.100000000000D+01
-.313296329478D-03 0.000000000000D+00 0.000000000000D+00 0.259209560170D-06 0.000000000000D+00  6 21 2 25 24 1 21 4 0.59820782D-02 0.11244351D+00 0.19934646D+05 0.19934646D+05 0.19934646D+05 0.12339826D+01  1  2  4  1  6  1       21 -.720567747654D+01 0.100000000000D+01
-.492460779897D-03 0.000000000000D+00 -.909090238115D-07 0.259209560170D-06 0.000000000000D+00  6 21 2 25 24 1 21 4 0.99190710D-02 0.11244351D+00 0.19934646D+05 0.19934646D+05 0.19934646D+05 0.12339826D+01  1  2  5  1  6  1       21 -.473495924953D+01 0.100000000000D+01
0.312385723663D-03 0.000000000000D+00 0.571512079479D-07 0.259209560170D-06 0.000000000000D+00  6 21 2 25 24 1 21 4 0.59820782D-02 0.11244351D+00 0.19934646D+05 0.19934646D+05 0.19934646D+05 0.12339826D+01  1  2  6  1  6  1       21 0.718473394418D+01 0.100000000000D+01
0.491901616269D-03 0.000000000000D+00 0.000000000000D+00 0.259209560170D-06 0.274185327631D-05  6 21 2 25 24 1 21 4 0.99188915D-02 0.11244893D+00 0.20147061D+05 0.20147061D+05 0.20147061D+05 0.12334759D+01  1  2 11  1  6  1       21 0.472155842971D+01 0.100000000000D+01
0.153101741362D-07 0.000000000000D+00 0.000000000000D+00 0.258996752413D-06 0.000000000000D+00  6 -1 2 25 24 1 -1 4 0.99189531D-02 0.11244351D+00 0.20147061D+05 0.20147061D+05 0.20147061D+05 0.12334759D+01  1  2 12  4  6  1       21 0.973895929339D-05 0.100000000000D+01
0.153102575695D-07 0.000000000000D+00 0.000000000000D+00 0.258996752413D-06 0.000000000000D+00  6 -1 2 25 24 1 -1 4 0.99190970D-02 0.11244351D+00 0.20147061D+05 0.20147061D+05 0.20147061D+05 0.12334759D+01  1  2 12  4  6  1       21 0.973879651203D-05 0.100000000000D+01
-.857214792411D-04 0.000000000000D+00 -.160427882208D-07 0.259209560170D-06 0.000000000000D+00  6 -1 2 25 24 1 -1 4 0.99190710D-02 0.11244351D+00 0.19934646D+05 0.19934646D+05 0.19934646D+05 0.12339826D+01  1  2  5  4  6  1       21 -.546092473885D-01 0.100000000000D+01
0.849859558092D-04 0.000000000000D+00 0.000000000000D+00 0.259209560170D-06 0.473709958194D-06  6 -1 2 25 24 1 -1 4 0.99188915D-02 0.11244893D+00 0.20147061D+05 0.20147061D+05 0.20147061D+05 0.12334759D+01  1  2 11  4  6  1       21 0.540578066817D-01 0.100000000000D+01
0.153101741362D-07 0.000000000000D+00 0.000000000000D+00 0.258996752413D-06 0.000000000000D+00  6 1 2 25 24 1 1 4 0.99189531D-02 0.11244351D+00 0.20147061D+05 0.20147061D+05 0.20147061D+05 0.12334759D+01  1  2 12  5  6  1       21 0.121850472792D-04 0.100000000000D+01
0.153102575695D-07 0.000000000000D+00 0.000000000000D+00 0.258996752413D-06 0.000000000000D+00  6 1 2 25 24 1 1 4 0.99190970D-02 0.11244351D+00 0.20147061D+05 0.20147061D+05 0.20147061D+05 0.12334759D+01  1  2 12  5  6  1       21 0.121848788416D-04 0.100000000000D+01
-.857214792411D-04 0.000000000000D+00 -.160427882208D-07 0.259209560170D-06 0.000000000000D+00  6 1 2 25 24 1 1 4 0.99190710D-02 0.11244351D+00 0.19934646D+05 0.19934646D+05 0.19934646D+05 0.12339826D+01  1  2  5  5  6  1       21 -.683264648635D-01 0.100000000000D+01
0.853353875791D-04 0.000000000000D+00 0.000000000000D+00 0.259209560170D-06 0.237828460727D-06  6 1 2 25 24 1 1 4 0.99188915D-02 0.11244893D+00 0.20147061D+05 0.20147061D+05 0.20147061D+05 0.12334759D+01  1  2 11  5  6  1       21 0.679132562094D-01 0.100000000000D+01
0.153101741362D-07 0.000000000000D+00 0.000000000000D+00 0.258996752413D-06 0.000000000000D+00  6 -2 2 25 24 1 -2 4 0.99189531D-02 0.11244351D+00 0.20147061D+05 0.20147061D+05 0.20147061D+05 0.12334759D+01  1  2 12  6  6  1       21 0.931390469442D-05 0.100000000000D+01
0.153102575695D-07 0.000000000000D+00 0.000000000000D+00 0.258996752413D-06 0.000000000000D+00  6 -2 2 25 24 1 -2 4 0.99190970D-02 0.11244351D+00 0.20147061D+05 0.20147061D+05 0.20147061D+05 0.12334759D+01  1  2 12  6  6  1       21 0.931374298353D-05 0.100000000000D+01
-.857214792411D-04 0.000000000000D+00 -.160427882208D-07 0.259209560170D-06 0.000000000000D+00  6 -2 2 25 24 1 -2 4 0.99190710D-02 0.11244351D+00 0.19934646D+05 0.19934646D+05 0.19934646D+05 0.12339826D+01  1  2  5  6  6  1       21 -.522255092731D-01 0.100000000000D+01
0.852901675473D-04 0.000000000000D+00 0.000000000000D+00 0.259209560170D-06 0.475404614661D-06  6 -2 2 25 24 1 -2 4 0.99188915D-02 0.11244893D+00 0.20147061D+05 0.20147061D+05 0.20147061D+05 0.12334759D+01  1  2 11  6  6  1       21 0.518835381444D-01 0.100000000000D+01
0.153101741362D-07 0.000000000000D+00 0.000000000000D+00 0.258996752413D-06 0.000000000000D+00  6 2 2 25 24 1 2 4 0.99189531D-02 0.11244351D+00 0.20147061D+05 0.20147061D+05 0.20147061D+05 0.12334759D+01  1  2 12  7  6  1       21 0.138386578390D-04 0.100000000000D+01
0.153102575695D-07 0.000000000000D+00 0.000000000000D+00 0.258996752413D-06 0.000000000000D+00  6 2 2 25 24 1 2 4 0.99190970D-02 0.11244351D+00 0.20147061D+05 0.20147061D+05 0.20147061D+05 0.12334759D+01  1  2 12  7  6  1       21 0.138384863483D-04 0.100000000000D+01
-.857214792411D-04 0.000000000000D+00 -.160427882208D-07 0.259209560170D-06 0.000000000000D+00  6 2 2 25 24 1 2 4 0.99190710D-02 0.11244351D+00 0.19934646D+05 0.19934646D+05 0.19934646D+05 0.12339826D+01  1  2  5  7  6  1       21 -.775989615182D-01 0.100000000000D+01
0.851345830598D-04 0.000000000000D+00 0.000000000000D+00 0.259209560170D-06 0.474537807116D-06  6 2 2 25 24 1 2 4 0.99188915D-02 0.11244893D+00 0.20147061D+05 0.20147061D+05 0.20147061D+05 0.12334759D+01  1  2 11  7  6  1       21 0.769480979300D-01 0.100000000000D+01
0.153101741362D-07 0.000000000000D+00 0.000000000000D+00 0.258996752413D-06 0.000000000000D+00  6 -3 2 25 24 1 -3 4 0.99189531D-02 0.11244351D+00 0.20147061D+05 0.20147061D+05 0.20147061D+05 0.12334759D+01  1  2 12  8  6  1       21 0.641436985183D-05 0.100000000000D+01
0.153101741362D-07 0.000000000000D+00 0.000000000000D+00 0.258996752413D-06 0.000000000000D+00  6 -4 2 25 24 1 -4 4 0.99189531D-02 0.11244351D+00 0.20147061D+05 0.20147061D+05 0.20147061D+05 0.12334759D+01  1  2 12  8  6  1       21 0.560481181892D-05 0.100000000000D+01
0.153102575695D-07 0.000000000000D+00 0.000000000000D+00 0.258996752413D-06 0.000000000000D+00  6 -3 2 25 24 1 -3 4 0.99190970D-02 0.11244351D+00 0.20147061D+05 0.20147061D+05 0.20147061D+05 0.12334759D+01  1  2 12  8  6  1       21 0.641425090605D-05 0.100000000000D+01
0.153102575695D-07 0.000000000000D+00 0.000000000000D+00 0.258996752413D-06 0.000000000000D+00  6 -4 2 25 24 1 -4 4 0.99190970D-02 0.11244351D+00 0.20147061D+05 0.20147061D+05 0.20147061D+05 0.12334759D+01  1  2 12  8  6  1       21 0.560470526963D-05 0.100000000000D+01
-.857214792411D-04 0.000000000000D+00 -.160427882208D-07 0.259209560170D-06 0.000000000000D+00  6 -3 2 25 24 1 -3 4 0.99190710D-02 0.11244351D+00 0.19934646D+05 0.19934646D+05 0.19934646D+05 0.12339826D+01  1  2  5  8  6  1       21 -.359583986620D-01 0.100000000000D+01
-.857214792411D-04 0.000000000000D+00 -.160427882208D-07 0.259209560170D-06 0.000000000000D+00  6 -4 2 25 24 1 -4 4 0.99190710D-02 0.11244351D+00 0.19934646D+05 0.19934646D+05 0.19934646D+05 0.12339826D+01  1  2  5  8  6  1       21 -.314166031403D-01 0.100000000000D+01
0.852679510486D-04 0.000000000000D+00 0.000000000000D+00 0.259209560170D-06 0.475280780621D-06  6 -3 2 25 24 1 -3 4 0.99188915D-02 0.11244893D+00 0.20147061D+05 0.20147061D+05 0.20147061D+05 0.12334759D+01  1  2 11  8  6  1       21 0.357222554552D-01 0.100000000000D+01
0.852679510486D-04 0.000000000000D+00 0.000000000000D+00 0.259209560170D-06 0.475280780621D-06  6 -4 2 25 24 1 -4 4 0.99188915D-02 0.11244893D+00 0.20147061D+05 0.20147061D+05 0.20147061D+05 0.12334759D+01  1  2 11  8  6  1       21 0.312137535209D-01 0.100000000000D+01
0.153101741362D-07 0.000000000000D+00 0.000000000000D+00 0.258996752413D-06 0.000000000000D+00  6 3 2 25 24 1 3 4 0.99189531D-02 0.11244351D+00 0.20147061D+05 0.20147061D+05 0.20147061D+05 0.12334759D+01  1  2 12  9  6  1       21 0.641355954446D-05 0.100000000000D+01
0.153101741362D-07 0.000000000000D+00 0.000000000000D+00 0.258996752413D-06 0.000000000000D+00  6 4 2 25 24 1 4 4 0.99189531D-02 0.11244351D+00 0.20147061D+05 0.20147061D+05 0.20147061D+05 0.12334759D+01  1  2 12  9  6  1       21 0.560481181892D-05 0.100000000000D+01
0.153102575695D-07 0.000000000000D+00 0.000000000000D+00 0.258996752413D-06 0.000000000000D+00  6 3 2 25 24 1 3 4 0.99190970D-02 0.11244351D+00 0.20147061D+05 0.20147061D+05 0.20147061D+05 0.12334759D+01  1  2 12  9  6  1       21 0.641344061183D-05 0.100000000000D+01
0.153102575695D-07 0.000000000000D+00 0.000000000000D+00 0.258996752413D-06 0.000000000000D+00  6 4 2 25 24 1 4 4 0.99190970D-02 0.11244351D+00 0.20147061D+05 0.20147061D+05 0.20147061D+05 0.12334759D+01  1  2 12  9  6  1       21 0.560470526963D-05 0.100000000000D+01
-.857214792411D-04 0.000000000000D+00 -.160427882208D-07 0.259209560170D-06 0.000000000000D+00  6 3 2 25 24 1 3 4 0.99190710D-02 0.11244351D+00 0.19934646D+05 0.19934646D+05 0.19934646D+05 0.12339826D+01  1  2  5  9  6  1       21 -.359538515341D-01 0.100000000000D+01
-.857214792411D-04 0.000000000000D+00 -.160427882208D-07 0.259209560170D-06 0.000000000000D+00  6 4 2 25 24 1 4 4 0.99190710D-02 0.11244351D+00 0.19934646D+05 0.19934646D+05 0.19934646D+05 0.12339826D+01  1  2  5  9  6  1       21 -.314166031403D-01 0.100000000000D+01
0.852679510486D-04 0.000000000000D+00 0.000000000000D+00 0.259209560170D-06 0.475280780621D-06  6 3 2 25 24 1 3 4 0.99188915D-02 0.11244893D+00 0.20147061D+05 0.20147061D+05 0.20147061D+05 0.12334759D+01  1  2 11  9  6  1       21 0.357177427783D-01 0.100000000000D+01
0.852679510486D-04 0.000000000000D+00 0.000000000000D+00 0.259209560170D-06 0.475280780621D-06  6 4 2 25 24 1 4 4 0.99188915D-02 0.11244893D+00 0.20147061D+05 0.20147061D+05 0.20147061D+05 0.12334759D+01  1  2 11  9  6  1       21 0.312137535209D-01 0.100000000000D+01
  </mgrwgt>
  </event>
  <event>
  6     66 0.46027262E-03 0.20409738E+02 0.75467711E-02 0.12389080E+00
       21 -1    0    0  501  502 0.00000000E+00 0.00000000E+00 0.12533791E+04 0.12533793E+04 0.75000000E+00 0.0000E+00 0.9000E+01
        2 -1    0    0  502    0 0.00000000E+00 0.00000000E+00 -.23521525E+02 0.23523702E+02 0.32000000E+00 0.0000E+00 0.9000E+01
       25  1    1    2    0    0 -.11764088E+02 0.56130383E+01 0.21895787E+03 0.25246276E+03 0.12500000E+03 0.0000E+00 0.9000E+01
       24  1    1    2    0    0 -.84702335E+01 -.19206264E+02 0.26688763E+03 0.27952969E+03 0.80419002E+02 0.0000E+00 0.9000E+01
        1  1    1    2  503    0 0.13597279E+02 0.21827109E+02 0.56468790E+03 0.56527324E+03 0.32000000E+00 0.0000E+00 0.9000E+01
       21  1    1    2  501  503 0.66370431E+01 -.82338836E+01 0.17932416E+03 0.17963731E+03 0.75000000E+00 0.0000E+00 0.9000E+01
#aMCatNLO 2  0  0  5  1 0.11611022D+02 0.00000000D+00  -5  6  0 0.00000000D+00 0.00000000D+00 0.00000000D+00 0.00000000D+00 0.00000000D+00
  <mgrwgt>
 0.2293150745D+00    1    2    0
 0.171705912916602D+03 0.000000000000000D+00 0.000000000000000D+00 0.171705912916602D+03
 0.171705912916602D+03 -.000000000000000D+00 -.000000000000000D+00 -.171705912916602D+03
 0.155521027602592D+03 -.120886521108726D+02 0.539499926075406D+01 -.915781005463916D+02
 0.837071999617809D+02 -.864531308299092D+01 -.193238805737602D+02 -.956689982905441D+01
 0.104183598268831D+03 0.207339651938636D+02 0.139288813130062D+02 0.101145000375446D+03
 0.000000000000000D+00 0.000000000000000D+00 0.000000000000000D+00 0.000000000000000D+00
 0.171705912916602D+03 0.000000000000000D+00 0.000000000000000D+00 0.171705912916602D+03
 0.171705912916602D+03 -.000000000000000D+00 -.000000000000000D+00 -.171705912916602D+03
 0.154573932775147D+03 -.117631217371776D+02 0.561368748061845D+01 -.899900893067786D+02
 0.835684623695757D+02 -.846971103901551D+01 -.192059127848696D+02 -.871027309906073D+01
 0.793840147519588D+02 0.135540270121344D+02 0.218662973069984D+02 0.750997682551385D+02
 0.258854159365223D+02 0.667880576405872D+01 -.827407200274717D+01 0.236005941507008D+02
0.211273790437D-03 0.000000000000D+00 0.000000000000D+00 0.591748038190D-05 0.419492315763D-06  6 21 2 25 24 1 21 4 0.19282774D+00 0.36188809D-02 0.15024711D+05 0.15024711D+05 0.15024711D+05 0.12477410D+01  1  2  1  3  6  5        1 0.229315074501D+00 0.100000000000D+01
  </mgrwgt>
  </event>
  <event>
  5     66 0.46027262E-03 0.86885310E+02 0.75467711E-02 0.11545219E+00
       21 -1    0    0  501  502 0.00000000E+00 0.00000000E+00 0.15264152E+03 0.15264336E+03 0.75000000E+00 0.0000E+00 0.9000E+01
        2 -1    0    0  502    0 0.00000000E+00 0.00000000E+00 -.26499845E+03 0.26499864E+03 0.32000000E+00 0.0000E+00 0.9000E+01
       25  1    1    2    0    0 -.45531253E+02 0.11345578E+03 -.18277595E+02 0.17579642E+03 0.12500000E+03 0.0000E+00 0.9000E+01
       24  1    1    2    0    0 -.21066845E+02 -.18625004E+01 -.72070753E+02 0.11003949E+03 0.80419002E+02 0.0000E+00 0.9000E+01
        1  1    1    2  501    0 0.66598098E+02 -.11159328E+03 -.22008580E+02 0.13180610E+03 0.32000000E+00 0.0000E+00 0.9000E+01
#aMCatNLO 1  0  0  1  2 0.91520976D+00 0.00000000D+00  -5  6  0 0.00000000D+00 0.00000000D+00 0.00000000D+00 0.00000000D+00 0.00000000D+00
  <mgrwgt>
 0.1798759071D-01   41    2    0
 0.201122329633409D+03 0.000000000000000D+00 0.000000000000000D+00 0.201122329633409D+03
 0.201122329633409D+03 0.000000000000000D+00 0.000000000000000D+00 -.201122329633409D+03
 0.177420376967064D+03 -.455313411422303D+02 0.113455928791571D+03 0.301270536058052D+02
 0.941205089989083D+02 -.210668914947076D+02 -.186242211237170D+01 -.440927627447930D+02
 0.130703773300846D+03 0.665982326369379D+02 -.111593506679199D+03 0.139657091389878D+02
 0.000000000000000D+00 -.000000000000000D+00 -.000000000000000D+00 0.000000000000000D+00
 0.204155280489445D+03 0.000000000000000D+00 0.000000000000000D+00 0.204155280489445D+03
 0.201191904476769D+03 0.000000000000000D+00 0.000000000000000D+00 -.201191904476769D+03
 0.177613124642985D+03 -.453644884217005D+02 0.113823749177028D+03 0.301270536058052D+02
 0.940970922587061D+02 -.209784361273155D+02 -.166742566744355D+01 -.440927627447930D+02
 0.130535483532248D+03 0.667210055034817D+02 -.111322858631313D+03 0.139657091389878D+02
 0.310148453227549D+01 -.378080954465729D+00 -.833464878270887D+00 0.296337601267597D+01
0.104045251608D-05 0.000000000000D+00 0.000000000000D+00 0.180019503107D-06 0.000000000000D+00  6 21 2 25 24 1 21 2 0.23483468D-01 0.40769149D-01 0.37626837D+05 0.37626837D+05 0.37626837D+05 0.12047070D+01  1  2  2  1  6  1       21 0.399060149191D-02 0.100000000000D+01
-.910610965971D-07 0.549061877361D-07 -.210037386232D-08 0.180019503107D-06 0.000000000000D+00  6 21 2 25 24 1 21 4 0.23483468D-01 0.40769149D-01 0.37626837D+05 0.37626837D+05 0.37626837D+05 0.12047070D+01  1  2  3  1  6  1       21 -.506887826770D-03 0.100000000000D+01
0.110574710625D-06 0.000000000000D+00 0.000000000000D+00 0.180019503107D-06 0.000000000000D+00  6 21 2 25 24 1 21 4 0.23483468D-01 0.40769149D-01 0.37626837D+05 0.37626837D+05 0.37626837D+05 0.12047070D+01  1  2 15  1  6  1       21 0.615509551926D-03 0.100000000000D+01
0.326449411792D-10 0.000000000000D+00 0.000000000000D+00 0.179956990543D-06 0.000000000000D+00  6 21 2 25 24 1 21 4 0.23841631D-01 0.40769149D-01 0.37804540D+05 0.37804540D+05 0.37804540D+05 0.12044978D+01  1  2 12  1  6  1       21 0.176436540475D-06 0.100000000000D+01
0.317457076341D-10 0.000000000000D+00 0.000000000000D+00 0.179956990543D-06 0.000000000000D+00  6 21 2 25 24 1 21 4 0.23851632D-01 0.40769149D-01 0.37804540D+05 0.37804540D+05 0.37804540D+05 0.12044978D+01  1  2 12  1  6  1       21 0.171439753319D-06 0.100000000000D+01
-.516257209731D-03 0.000000000000D+00 0.000000000000D+00 0.180019503107D-06 0.000000000000D+00  6 21 2 25 24 1 21 4 0.23483468D-01 0.40769149D-01 0.37626837D+05 0.37626837D+05 0.37626837D+05 0.12047070D+01  1  2  4  1  6  1       21 -.287372439904D+01 0.100000000000D+01
-.639087468625D-03 0.000000000000D+00 -.214824450326D-04 0.180019503107D-06 0.000000000000D+00  6 21 2 25 24 1 21 4 0.23842539D-01 0.40769149D-01 0.37626837D+05 0.37626837D+05 0.37626837D+05 0.12047070D+01  1  2  5  1  6  1       21 -.345641454041D+01 0.100000000000D+01
0.639109354890D-03 0.000000000000D+00 0.214725547215D-04 0.180019503107D-06 0.000000000000D+00  6 21 2 25 24 1 21 4 0.23483468D-01 0.40769149D-01 0.37626837D+05 0.37626837D+05 0.37626837D+05 0.12047070D+01  1  2  6  1  6  1       21 0.355757578235D+01 0.100000000000D+01
0.515871778712D-03 0.000000000000D+00 0.000000000000D+00 0.180019503107D-06 0.409830233562D-05  6 21 2 25 24 1 21 4 0.23837601D-01 0.40783252D-01 0.37804540D+05 0.37804540D+05 0.37804540D+05 0.12044978D+01  1  2 11  1  6  1       21 0.278799929744D+01 0.100000000000D+01
0.361508743008D-11 0.000000000000D+00 0.000000000000D+00 0.179956990543D-06 0.000000000000D+00  6 -1 2 25 24 1 -1 4 0.23841631D-01 0.40769149D-01 0.37804540D+05 0.37804540D+05 0.37804540D+05 0.12044978D+01  1  2 12  4  6  1       21 0.161690048640D-08 0.100000000000D+01
0.361528938335D-11 0.000000000000D+00 0.000000000000D+00 0.179956990543D-06 0.000000000000D+00  6 -1 2 25 24 1 -1 4 0.23851632D-01 0.40769149D-01 0.37804540D+05 0.37804540D+05 0.37804540D+05 0.12044978D+01  1  2 12  4  6  1       21 0.161587314526D-08 0.100000000000D+01
-.213665116471D-05 0.000000000000D+00 -.740931773690D-07 0.180019503107D-06 0.000000000000D+00  6 -1 2 25 24 1 -1 4 0.23842539D-01 0.40769149D-01 0.37626837D+05 0.37626837D+05 0.37626837D+05 0.12047070D+01  1  2  5  4  6  1       21 -.956192382074D-03 0.100000000000D+01
0.195071501532D-05 0.000000000000D+00 0.000000000000D+00 0.180019503107D-06 0.154439904699D-07  6 -1 2 25 24 1 -1 4 0.23837601D-01 0.40783252D-01 0.37804540D+05 0.37804540D+05 0.37804540D+05 0.12044978D+01  1  2 11  4  6  1       21 0.872404880559D-03 0.100000000000D+01
0.361508743008D-11 0.000000000000D+00 0.000000000000D+00 0.179956990543D-06 0.000000000000D+00  6 1 2 25 24 1 1 4 0.23841631D-01 0.40769149D-01 0.37804540D+05 0.37804540D+05 0.37804540D+05 0.12044978D+01  1  2 12  5  6  1       21 0.258806003718D-08 0.100000000000D+01
0.361528938335D-11 0.000000000000D+00 0.000000000000D+00 0.179956990543D-06 0.000000000000D+00  6 1 2 25 24 1 1 4 0.23851632D-01 0.40769149D-01 0.37804540D+05 0.37804540D+05 0.37804540D+05 0.12044978D+01  1  2 12  5  6  1       21 0.258682508460D-08 0.100000000000D+01
-.213665116471D-05 0.000000000000D+00 -.740931773690D-07 0.180019503107D-06 0.000000000000D+00  6 1 2 25 24 1 1 4 0.23842539D-01 0.40769149D-01 0.37626837D+05 0.37626837D+05 0.37626837D+05 0.12047070D+01  1  2  5  5  6  1       21 -.153053356034D-02 0.100000000000D+01
0.165924516299D-05 0.000000000000D+00 0.000000000000D+00 0.180019503107D-06 0.638079149107D-08  6 1 2 25 24 1 1 4 0.23837601D-01 0.40783252D-01 0.37804540D+05 0.37804540D+05 0.37804540D+05 0.12044978D+01  1  2 11  5  6  1       21 0.118767652090D-02 0.100000000000D+01
0.361508743008D-11 0.000000000000D+00 0.000000000000D+00 0.179956990543D-06 0.000000000000D+00  6 -2 2 25 24 1 -2 4 0.23841631D-01 0.40769149D-01 0.37804540D+05 0.37804540D+05 0.37804540D+05 0.12044978D+01  1  2 12  6  6  1       21 0.145583997039D-08 0.100000000000D+01
0.361528938335D-11 0.000000000000D+00 0.000000000000D+00 0.179956990543D-06 0.000000000000D+00  6 -2 2 25 24 1 -2 4 0.23851632D-01 0.40769149D-01 0.37804540D+05 0.37804540D+05 0.37804540D+05 0.12044978D+01  1  2 12  6  6  1       21 0.145485465318D-08 0.100000000000D+01
-.213665116471D-05 0.000000000000D+00 -.740931773690D-07 0.180019503107D-06 0.000000000000D+00  6 -2 2 25 24 1 -2 4 0.23842539D-01 0.40769149D-01 0.37626837D+05 0.37626837D+05 0.37626837D+05 0.12047070D+01  1  2  5  6  6  1       21 -.860937642763D-03 0.100000000000D+01
0.165357107383D-05 0.000000000000D+00 0.000000000000D+00 0.180019503107D-06 0.127174238173D-07  6 -2 2 25 24 1 -2 4 0.23837601D-01 0.40783252D-01 0.37804540D+05 0.37804540D+05 0.37804540D+05 0.12044978D+01  1  2 11  6  6  1       21 0.665862762432D-03 0.100000000000D+01
0.361508743008D-11 0.000000000000D+00 0.000000000000D+00 0.179956990543D-06 0.000000000000D+00  6 2 2 25 24 1 2 4 0.23841631D-01 0.40769149D-01 0.37804540D+05 0.37804540D+05 0.37804540D+05 0.12044978D+01  1  2 12  7  6  1       21 0.328307215446D-08 0.100000000000D+01
0.361528938335D-11 0.000000000000D+00 0.000000000000D+00 0.179956990543D-06 0.000000000000D+00  6 2 2 25 24 1 2 4 0.23851632D-01 0.40769149D-01 0.37804540D+05 0.37804540D+05 0.37804540D+05 0.12044978D+01  1  2 12  7  6  1       21 0.328171362771D-08 0.100000000000D+01
-.213665116471D-05 0.000000000000D+00 -.740931773690D-07 0.180019503107D-06 0.000000000000D+00  6 2 2 25 24 1 2 4 0.23842539D-01 0.40769149D-01 0.37626837D+05 0.37626837D+05 0.37626837D+05 0.12047070D+01  1  2  5  7  6  1       21 -.194154801094D-02 0.100000000000D+01
0.163813427060D-05 0.000000000000D+00 0.000000000000D+00 0.180019503107D-06 0.126429549349D-07  6 2 2 25 24 1 2 4 0.23837601D-01 0.40783252D-01 0.37804540D+05 0.37804540D+05 0.37804540D+05 0.12044978D+01  1  2 11  7  6  1       21 0.148741477041D-02 0.100000000000D+01
0.361508743008D-11 0.000000000000D+00 0.000000000000D+00 0.179956990543D-06 0.000000000000D+00  6 -3 2 25 24 1 -3 4 0.23841631D-01 0.40769149D-01 0.37804540D+05 0.37804540D+05 0.37804540D+05 0.12044978D+01  1  2 12  8  6  1       21 0.952132330742D-09 0.100000000000D+01
0.361508743008D-11 0.000000000000D+00 0.000000000000D+00 0.179956990543D-06 0.000000000000D+00  6 -4 2 25 24 1 -4 4 0.23841631D-01 0.40769149D-01 0.37804540D+05 0.37804540D+05 0.37804540D+05 0.12044978D+01  1  2 12  8  6  1       21 0.811483031733D-09 0.100000000000D+01
0.361528938335D-11 0.000000000000D+00 0.000000000000D+00 0.179956990543D-06 0.000000000000D+00  6 -3 2 25 24 1 -3 4 0.23851632D-01 0.40769149D-01 0.37804540D+05 0.37804540D+05 0.37804540D+05 0.12044978D+01  1  2 12  8  6  1       21 0.951462918087D-09 0.100000000000D+01
0.361528938335D-11 0.000000000000D+00 0.000000000000D+00 0.179956990543D-06 0.000000000000D+00  6 -4 2 25 24 1 -4 4 0.23851632D-01 0.40769149D-01 0.37804540D+05 0.37804540D+05 0.37804540D+05 0.12044978D+01  1  2 12  8  6  1       21 0.810899284464D-09 0.100000000000D+01
-.213665116471D-05 0.000000000000D+00 -.740931773690D-07 0.180019503107D-06 0.000000000000D+00  6 -3 2 25 24 1 -3 4 0.23842539D-01 0.40769149D-01 0.37626837D+05 0.37626837D+05 0.37626837D+05 0.12047070D+01  1  2  5  8  6  1       21 -.563006229977D-03 0.100000000000D+01
-.213665116471D-05 0.000000000000D+00 -.740931773690D-07 0.180019503107D-06 0.000000000000D+00  6 -4 2 25 24 1 -4 4 0.23842539D-01 0.40769149D-01 0.37626837D+05 0.37626837D+05 0.37626837D+05 0.12047070D+01  1  2  5  8  6  1       21 -.479816610174D-03 0.100000000000D+01
0.165363516832D-05 0.000000000000D+00 0.000000000000D+00 0.180019503107D-06 0.127179167606D-07  6 -3 2 25 24 1 -3 4 0.23837601D-01 0.40783252D-01 0.37804540D+05 0.37804540D+05 0.37804540D+05 0.12044978D+01  1  2 11  8  6  1       21 0.435501681990D-03 0.100000000000D+01
0.165363516832D-05 0.000000000000D+00 0.000000000000D+00 0.180019503107D-06 0.127179167606D-07  6 -4 2 25 24 1 -4 4 0.23837601D-01 0.40783252D-01 0.37804540D+05 0.37804540D+05 0.37804540D+05 0.12044978D+01  1  2 11  8  6  1       21 0.371171670213D-03 0.100000000000D+01
0.361508743008D-11 0.000000000000D+00 0.000000000000D+00 0.179956990543D-06 0.000000000000D+00  6 3 2 25 24 1 3 4 0.23841631D-01 0.40769149D-01 0.37804540D+05 0.37804540D+05 0.37804540D+05 0.12044978D+01  1  2 12  9  6  1       21 0.952087782862D-09 0.100000000000D+01
0.361508743008D-11 0.000000000000D+00 0.000000000000D+00 0.179956990543D-06 0.000000000000D+00  6 4 2 25 24 1 4 4 0.23841631D-01 0.40769149D-01 0.37804540D+05 0.37804540D+05 0.37804540D+05 0.12044978D+01  1  2 12  9  6  1       21 0.811483031733D-09 0.100000000000D+01
0.361528938335D-11 0.000000000000D+00 0.000000000000D+00 0.179956990543D-06 0.000000000000D+00  6 3 2 25 24 1 3 4 0.23851632D-01 0.40769149D-01 0.37804540D+05 0.37804540D+05 0.37804540D+05 0.12044978D+01  1  2 12  9  6  1       21 0.951418504028D-09 0.100000000000D+01
0.361528938335D-11 0.000000000000D+00 0.000000000000D+00 0.179956990543D-06 0.000000000000D+00  6 4 2 25 24 1 4 4 0.23851632D-01 0.40769149D-01 0.37804540D+05 0.37804540D+05 0.37804540D+05 0.12044978D+01  1  2 12  9  6  1       21 0.810899284464D-09 0.100000000000D+01
-.213665116471D-05 0.000000000000D+00 -.740931773690D-07 0.180019503107D-06 0.000000000000D+00  6 3 2 25 24 1 3 4 0.23842539D-01 0.40769149D-01 0.37626837D+05 0.37626837D+05 0.37626837D+05 0.12047070D+01  1  2  5  9  6  1       21 -.562979850490D-03 0.100000000000D+01
-.213665116471D-05 0.000000000000D+00 -.740931773690D-07 0.180019503107D-06 0.000000000000D+00  6 4 2 25 24 1 4 4 0.23842539D-01 0.40769149D-01 0.37626837D+05 0.37626837D+05 0.37626837D+05 0.12047070D+01  1  2  5  9  6  1       21 -.479816610174D-03 0.100000000000D+01
0.165363516832D-05 0.000000000000D+00 0.000000000000D+00 0.180019503107D-06 0.127179167606D-07  6 3 2 25 24 1 3 4 0.23837601D-01 0.40783252D-01 0.37804540D+05 0.37804540D+05 0.37804540D+05 0.12044978D+01  1  2 11  9  6  1       21 0.435481287063D-03 0.100000000000D+01
0.165363516832D-05 0.000000000000D+00 0.000000000000D+00 0.180019503107D-06 0.127179167606D-07  6 4 2 25 24 1 4 4 0.23837601D-01 0.40783252D-01 0.37804540D+05 0.37804540D+05 0.37804540D+05 0.12044978D+01  1  2 11  9  6  1       21 0.371171670213D-03 0.100000000000D+01
  </mgrwgt>
  </event>
  <event>
  5     66 0.46027262E-03 0.25238959E+02 0.75467711E-02 0.12288025E+00
       21 -1    0    0  501  502 0.00000000E+00 0.00000000E+00 0.27361876E+02 0.27372153E+02 0.75000000E+00 0.0000E+00 0.9000E+01
        2 -1    0    0  502    0 0.00000000E+00 0.00000000E+00 -.59689664E+03 0.59689673E+03 0.32000000E+00 0.0000E+00 0.9000E+01
       25  1    1    2    0    0 -.31671118E+02 0.97944776E+01 -.34042066E+03 0.36415686E+03 0.12500000E+03 0.0000E+00 0.9000E+01
       24  1    1    2    0    0 0.43406789E+02 -.32136985E+02 -.16694515E+03 0.19301512E+03 0.80419002E+02 0.0000E+00 0.9000E+01
        1  1    1    2  501    0 -.11735671E+02 0.22342508E+02 -.62168947E+02 0.67096900E+02 0.32000000E+00 0.0000E+00 0.9000E+01
#aMCatNLO 1  0  0  2  1 0.66969722D+01 0.00000000D+00  -5  6  0 0.00000000D+00 0.00000000D+00 0.00000000D+00 0.00000000D+00 0.00000000D+00
  <mgrwgt>
 0.3741323089D+00   11    2    0
 0.127810196032028D+03 0.000000000000000D+00 0.000000000000000D+00 0.127810196032028D+03
 0.127810196032028D+03 0.000000000000000D+00 0.000000000000000D+00 -.127810196032028D+03
 0.130859443542287D+03 -.316706390941038D+02 0.979356599419095D+01 -.200062652358063D+02
 0.994144625091487D+02 0.434071523838501D+02 -.321376777642390D+02 0.223384912529821D+02
 0.253464860126208D+02 -.117365132897463D+02 0.223441117700480D+02 -.233222601717579D+01
 0.000000000000000D+00 0.000000000000000D+00 -.000000000000000D+00 -.000000000000000D+00
 0.130792500756945D+03 0.000000000000000D+00 0.000000000000000D+00 0.130792500756945D+03
 0.131669792518923D+03 0.000000000000000D+00 0.000000000000000D+00 -.131669792518923D+03
 0.131738690609286D+03 -.345450523100092D+02 0.116820938047323D+02 -.200062652358063D+02
 0.980358091793320D+02 0.412458511535151D+02 -.307176740369185D+02 0.223384912529821D+02
 0.259336038678004D+02 -.122978278952036D+02 0.227129029504543D+02 -.233222601717579D+01
 0.675418961944902D+01 0.559702905169771D+01 -.367732271826814D+01 -.877291761977623D+00
0.112891100642D-05 0.000000000000D+00 0.000000000000D+00 0.656975891497D-06 0.000000000000D+00  6 21 2 25 24 1 21 2 0.42103165D-02 0.91831049D-01 0.15804546D+05 0.15804546D+05 0.15804546D+05 0.12452440D+01  1  2  2  2  6  2        2 0.395594234400D-01 0.100000000000D+01
0.177357537679D-07 0.595742705193D-07 -.227894606828D-08 0.656975891497D-06 0.000000000000D+00  6 21 2 25 24 1 21 4 0.42103165D-02 0.91831049D-01 0.15804546D+05 0.15804546D+05 0.15804546D+05 0.12452440D+01  1  2  3  2  6  2        2 0.963715478693D-03 0.100000000000D+01
0.117740553603D-06 0.000000000000D+00 0.000000000000D+00 0.656975891497D-06 0.000000000000D+00  6 21 2 25 24 1 21 4 0.42103165D-02 0.91831049D-01 0.15804546D+05 0.15804546D+05 0.15804546D+05 0.12452440D+01  1  2 15  2  6  2        2 0.639772041614D-02 0.100000000000D+01
0.579049048170D-05 0.000000000000D+00 0.000000000000D+00 0.654232985663D-06 0.000000000000D+00  6 21 2 25 24 1 21 4 0.42103165D-02 0.95646985D-01 0.16665916D+05 0.16665916D+05 0.16665916D+05 0.12426418D+01  1  2 12  2  6  2        2 0.298220056037D+00 0.100000000000D+01
-.242276186937D-05 0.000000000000D+00 0.000000000000D+00 0.656975891497D-06 0.000000000000D+00  6 21 2 25 24 1 21 4 0.42103165D-02 0.91831049D-01 0.15804546D+05 0.15804546D+05 0.15804546D+05 0.12452440D+01  1  2  4  2  6  2        2 -.131646680781D+00 0.100000000000D+01
-.530842369846D-04 0.000000000000D+00 -.819891052790D-05 0.656975891497D-06 0.000000000000D+00  6 21 2 25 24 1 21 4 0.42103165D-02 0.96383505D-01 0.15804546D+05 0.15804546D+05 0.15804546D+05 0.12452440D+01  1  2  5  2  6  2        2 -.272971031067D+01 0.100000000000D+01
0.534279742971D-04 0.000000000000D+00 0.818932276729D-05 0.656975891497D-06 0.000000000000D+00  6 21 2 25 24 1 21 4 0.42103165D-02 0.91831049D-01 0.15804546D+05 0.15804546D+05 0.15804546D+05 0.12452440D+01  1  2  6  2  6  2        2 0.290313941539D+01 0.100000000000D+01
0.303026936255D-06 0.000000000000D+00 0.000000000000D+00 0.656975891497D-06 0.159431652797D-06  6 21 2 25 24 1 21 4 0.43085594D-02 0.94604152D-01 0.16665916D+05 0.16665916D+05 0.16665916D+05 0.12426418D+01  1  2 11  2  6  2        2 0.152074612575D-01 0.100000000000D+01
0.787013108668D-07 0.000000000000D+00 0.000000000000D+00 0.654232985663D-06 0.000000000000D+00  6 21 21 25 24 1 -2 4 0.42103165D-02 0.95646985D-01 0.16665916D+05 0.16665916D+05 0.16665916D+05 0.12426418D+01  1  2 12 10  6  2        2 0.624651204492D-02 0.100000000000D+01
-.441721669946D-06 0.000000000000D+00 -.692699888647D-07 0.656975891497D-06 0.000000000000D+00  6 21 21 25 24 1 -2 4 0.42103165D-02 0.96383505D-01 0.15804546D+05 0.15804546D+05 0.15804546D+05 0.12452440D+01  1  2  5 10  6  2        2 -.347569347198D-01 0.100000000000D+01
0.653485947976D-08 0.000000000000D+00 0.000000000000D+00 0.656975891497D-06 0.120153420960D-08  6 21 21 25 24 1 -2 4 0.43085594D-02 0.94604152D-01 0.16665916D+05 0.16665916D+05 0.16665916D+05 0.12426418D+01  1  2 11 10  6  2        2 0.511931020498D-03 0.100000000000D+01
  </mgrwgt>
  </event>
  <event>
  6     66 0.46027262E-03 0.12992703E+03 0.75467711E-02 0.11395396E+00
       21 -1    0    0  501  502 0.00000000E+00 0.00000000E+00 0.93352230E+02 0.93355243E+02 0.75000000E+00 0.0000E+00 0.9000E+01
        2 -1    0    0  502    0 -.00000000E+00 -.00000000E+00 -.53947593E+03 0.53947603E+03 0.32000000E+00 0.0000E+00 0.9000E+01
       25  1    1    2    0    0 0.13450859E+03 -.78289705E+02 -.12526502E+03 0.23566536E+03 0.12500000E+03 0.0000E+00 0.9000E+01
       24  1    1    2    0    0 -.27862364E+02 -.11777104E+02 -.10490298E+03 0.13559817E+03 0.80419002E+02 0.0000E+00 0.9000E+01
        1  1    1    2  503    0 -.91876012E+02 0.75756524E+02 -.20765765E+03 0.23937848E+03 0.32000000E+00 0.0000E+00 0.9000E+01
       21  1    1    2  501  503 -.14770210E+02 0.14310284E+02 -.82980488E+01 0.22189264E+02 0.75000000E+00 0.0000E+00 0.9000E+01
#aMCatNLO 2  0  0  5  1 0.16227714D+02 0.00000000D+00  -5  6  0 0.00000000D+00 0.00000000D+00 0.00000000D+00 0.00000000D+00 0.00000000D+00
  <mgrwgt>
 0.8611404010D-01    2    2    0
 0.224415384333050D+03 0.000000000000000D+00 0.000000000000000D+00 0.224415384333050D+03
 0.224415384333050D+03 -.000000000000000D+00 -.000000000000000D+00 -.224415384333050D+03
 0.210604522513379D+03 0.137120850705183D+03 -.804958627170544D+02 0.587158691531697D+02
 0.866377005762026D+02 -.267787095195897D+02 -.126922910470164D+02 -.126760274220463D+02
 0.151588545576519D+03 -.110342141185594D+03 0.931881537640708D+02 -.460398417311234D+02
 0.000000000000000D+00 0.000000000000000D+00 0.000000000000000D+00 0.000000000000000D+00
 0.224415384333050D+03 0.000000000000000D+00 0.000000000000000D+00 0.224415384333050D+03
 0.224415384333050D+03 -.000000000000000D+00 -.000000000000000D+00 -.224415384333050D+03
 0.207758446149096D+03 0.134499658376943D+03 -.782821656553091D+02 0.576221865524666D+02
 0.869180719946534D+02 -.278660979685217D+02 -.117739499590914D+02 -.131297361461219D+02
 0.131033900441352D+03 -.918038623973452D+02 0.756877763120893D+02 -.548934825888689D+02
 0.231203500809993D+02 -.148296980110763D+02 0.143683393023111D+02 0.104010321825241D+02
-.790893321498D-05 0.000000000000D+00 0.000000000000D+00 0.109208101168D-06 0.000000000000D+00  6 21 2 25 24 1 21 4 0.14362121D-01 0.82996536D-01 0.45189957D+05 0.45189957D+05 0.45189957D+05 0.11966569D+01  1  2 13  3  6  5        1 -.491743750125D-01 0.100000000000D+01
0.217590368889D-04 0.000000000000D+00 0.000000000000D+00 0.108941051235D-06 0.814612986040D-08  6 21 2 25 24 1 21 4 0.14362121D-01 0.82996536D-01 0.45189957D+05 0.45189957D+05 0.45189957D+05 0.11966569D+01  1  2  1  3  6  5        1 0.135288415113D+00 0.100000000000D+01
  </mgrwgt>
  </event>
  <event>
  5     66 0.46027262E-03 0.26969086E+02 0.75467711E-02 0.11755151E+00
       21 -1    0    0  501  502 0.00000000E+00 0.00000000E+00 0.19693097E+02 0.19707373E+02 0.75000000E+00 0.0000E+00 0.9000E+01
        2 -1    0    0  502    0 -.00000000E+00 -.00000000E+00 -.36711739E+04 0.36711739E+04 0.32000000E+00 0.0000E+00 0.9000E+01
       25  1    1    2    0    0 0.46210483E+02 0.20535753E+02 -.27989685E+04 0.28022146E+04 0.12500000E+03 0.0000E+00 0.9000E+01
       24  1    1    2    0    0 -.29255084E+02 0.43673236E+00 -.85705419E+03 0.86131595E+03 0.80419002E+02 0.0000E+00 0.9000E+01
        1  1    1    2  501    0 -.16955399E+02 -.20972485E+02 0.45418907E+01 0.27350719E+02 0.32000000E+00 0.0000E+00 0.9000E+01
#aMCatNLO 1  0  0  5  1 0.16227714D+02 0.00000000D+00  -5  6  0 0.00000000D+00 0.00000000D+00 0.00000000D+00 0.00000000D+00 0.00000000D+00
  <mgrwgt>
 0.2198622214D+00    6    2    0
 0.268929646855022D+03 0.000000000000000D+00 0.000000000000000D+00 0.268929646855022D+03
 0.268929646855022D+03 -.000000000000000D+00 -.000000000000000D+00 -.268929646855022D+03
 0.227311884356176D+03 0.462104910727646D+02 0.205357620450279D+02 -.182998813552437D+03
 0.920277425312214D+02 -.292550811708771D+02 0.436736202847304D+00 -.338502426608252D+02
 0.218519666822647D+03 -.169554099018874D+02 -.209724982478752D+02 0.216849056213262D+03
 0.000000000000000D+00 -.000000000000000D+00 0.000000000000000D+00 0.000000000000000D+00
 0.268929646855022D+03 0.000000000000000D+00 0.000000000000000D+00 0.268929646855022D+03
 0.268929646855022D+03 -.000000000000000D+00 -.000000000000000D+00 -.268929646855022D+03
 0.214611183502992D+03 0.449962499524561D+02 0.190338420138683D+02 -.167469431338863D+03
 0.900348094254523D+02 -.297553217175520D+02 -.182021706832362D+00 -.274524798786960D+02
 0.133704841068370D+03 0.482658433596823D+02 -.342823030943054D+02 0.119883762805673D+03
 0.995084597132298D+02 -.635067715945865D+02 0.154304827872695D+02 0.750381484118863D+02
0.183519951729D-03 0.000000000000D+00 0.000000000000D+00 0.162171023784D-04 0.000000000000D+00  6 21 2 25 24 1 21 2 0.30308065D-02 0.56479708D+00 0.15299994D+05 0.15299994D+05 0.15299994D+05 0.12468433D+01  1  2  2  3  6  5        1 0.193479635240D+00 0.100000000000D+01
0.485597333192D-04 0.968461392249D-05 -.370473908099D-06 0.162171023784D-04 0.000000000000D+00  6 21 2 25 24 1 21 4 0.30308065D-02 0.56479708D+00 0.15299994D+05 0.15299994D+05 0.15299994D+05 0.12468433D+01  1  2  3  3  6  5        1 0.795888132474D-01 0.100000000000D+01
0.185727670296D-04 0.000000000000D+00 0.000000000000D+00 0.162171023784D-04 0.000000000000D+00  6 21 2 25 24 1 21 4 0.30308065D-02 0.56479708D+00 0.15299994D+05 0.15299994D+05 0.15299994D+05 0.12468433D+01  1  2 15  3  6  5        1 0.304405396317D-01 0.100000000000D+01
-.979630670496D-04 0.000000000000D+00 0.000000000000D+00 0.162171023784D-04 0.000000000000D+00  6 21 2 25 24 1 21 4 0.30308065D-02 0.56479708D+00 0.15299994D+05 0.15299994D+05 0.15299994D+05 0.12468433D+01  1  2  4  3  6  5        1 -.160560277325D+00 0.100000000000D+01
-.865059234600D-04 0.000000000000D+00 0.000000000000D+00 0.162171023784D-04 0.000000000000D+00  6 21 2 25 24 1 21 4 0.30308065D-02 0.56479708D+00 0.15299994D+05 0.15299994D+05 0.15299994D+05 0.12468433D+01  1  2  5  3  6  5        1 -.141782158106D+00 0.100000000000D+01
0.133433367307D-03 0.000000000000D+00 -.000000000000D+00 0.162171023784D-04 0.000000000000D+00  6 21 2 25 24 1 21 4 0.30308065D-02 0.56479708D+00 0.15299994D+05 0.15299994D+05 0.15299994D+05 0.12468433D+01  1  2  6  3  6  5        1 0.218695668729D+00 0.100000000000D+01
  </mgrwgt>
  </event>
  <event>
  6     66 0.46027262E-03 0.36940737E+02 0.75467711E-02 0.11591527E+00
       21 -1    0    0  501  502 0.00000000E+00 0.00000000E+00 0.27892455E+02 0.27902537E+02 0.75000000E+00 0.0000E+00 0.9000E+01
        2 -1    0    0  502    0 -.00000000E+00 -.00000000E+00 -.18237354E+04 0.18237354E+04 0.32000000E+00 0.0000E+00 0.9000E+01
       25  1    1    2    0    0 -.10421748E+03 -.96948977E+02 -.13747311E+04 0.13877215E+04 0.12500000E+03 0.0000E+00 0.9000E+01
       24  1    1    2    0    0 0.95033065E+02 0.54982811E+02 -.32099039E+03 0.34864945E+03 0.80419002E+02 0.0000E+00 0.9000E+01
        1  1    1    2  503    0 -.13801002E+01 0.42399042E+02 -.93744652E+02 0.10289677E+03 0.32000000E+00 0.0000E+00 0.9000E+01
       21  1    1    2  501  503 0.10564518E+02 -.43287609E+00 -.63767887E+01 0.12370221E+02 0.75000000E+00 0.0000E+00 0.9000E+01
#aMCatNLO 2  0  0  5  1 0.17600030D+02 0.00000000D+00  -5  6  0 0.00000000D+00 0.00000000D+00 0.00000000D+00 0.00000000D+00 0.00000000D+00
  <mgrwgt>
 0.2607331736D+00    2    2    0
 0.225561116463478D+03 0.000000000000000D+00 0.000000000000000D+00 0.225561116463478D+03
 0.225561116463478D+03 -.000000000000000D+00 -.000000000000000D+00 -.225561116463478D+03
 0.227205962803568D+03 -.104952746970247D+03 -.100308605808870D+03 -.122150129093573D+03
 0.150938214404153D+03 0.945366918507604D+02 0.527147454744127D+02 0.678166507328830D+02
 0.729780557192337D+02 0.104160551194861D+02 0.475938603344571D+02 0.543334783606903D+02
 0.000000000000000D+00 0.000000000000000D+00 0.000000000000000D+00 0.000000000000000D+00
 0.225561116463478D+03 0.000000000000000D+00 0.000000000000000D+00 0.225561116463478D+03
 0.225561116463478D+03 -.000000000000000D+00 -.000000000000000D+00 -.225561116463478D+03
 0.223325987357715D+03 -.104213500484937D+03 -.969307824802709D+02 -.118293982745264D+03
 0.153239999178243D+03 0.950357966872057D+02 0.549952946463912D+02 0.704201413557370D+02
 0.488627995503585D+02 -.148845934363811D+01 0.422499247397917D+02 0.245010515725913D+02
 0.256934468406391D+02 0.106661631413692D+02 -.314436905912039D+00 0.233727898169356D+02
-.794058257055D-05 0.000000000000D+00 0.000000000000D+00 0.275567904049D-06 0.000000000000D+00  6 21 2 25 24 1 21 4 0.42919246D-02 0.28057545D+00 0.35810054D+05 0.35810054D+05 0.35810054D+05 0.12069110D+01  1  2 13  3  6  5        1 -.698137848142D-01 0.100000000000D+01
0.375962343809D-04 0.000000000000D+00 0.000000000000D+00 0.275928632934D-06 0.349127241956D-07  6 21 2 25 24 1 21 4 0.42919246D-02 0.28057545D+00 0.35810054D+05 0.35810054D+05 0.35810054D+05 0.12069110D+01  1  2  1  3  6  5        1 0.330546958435D+00 0.100000000000D+01
  </mgrwgt>
  </event>
  <event>
  5     66 0.46027262E-03 0.62694188E+02 0.75467711E-02 0.11326448E+00
       21 -1    0    0  501  502 0.00000000E+00 0.00000000E+00 0.30052667E+03 0.30052760E+03 0.75000000E+00 0.0000E+00 0.9000E+01
        2 -1    0    0  502    0 0.00000000E+00 0.00000000E+00 -.13580496E+03 0.13580534E+03 0.32000000E+00 0.0000E+00 0.9000E+01
       25  1    1    2    0    0 0.10392051E+03 -.18263114E+02 0.17867633E+03 0.24224625E+03 0.12500000E+03 0.0000E+00 0.9000E+01
       24  1    1    2    0    0 -.71887365E+02 0.72155237E+02 -.19140056E+02 0.13117823E+03 0.80419002E+02 0.0000E+00 0.9000E+01
        1  1    1    2  501    0 -.32033146E+02 -.53892123E+02 0.51854342E+01 0.62908462E+02 0.32000000E+00 0.0000E+00 0.9000E+01
#aMCatNLO 1  0  0  1  5 0.21317957D+02 0.00000000D+00  -5  6  0 0.00000000D+00 0.00000000D+00 0.00000000D+00 0.00000000D+00 0.00000000D+00
  <mgrwgt>
 0.1085188899D+00    4    2    0
 0.202023016710317D+03 0.000000000000000D+00 0.000000000000000D+00 0.202023016710317D+03
 0.202023016710317D+03 0.000000000000000D+00 0.000000000000000D+00 -.202023016710317D+03
 0.188761161455923D+03 0.103920688503040D+03 -.182628159587839D+02 0.941952022583885D+02
 0.149463585935128D+03 -.718872251141562D+02 0.721554724250942D+02 -.741482449604513D+02
 0.658212860295819D+02 -.320334633888840D+02 -.538926564663103D+02 -.200469572979372D+02
 0.000000000000000D+00 0.000000000000000D+00 0.000000000000000D+00 -.000000000000000D+00
 0.217777832330633D+03 0.000000000000000D+00 0.000000000000000D+00 0.217777832330633D+03
 0.340523002759869D+03 0.000000000000000D+00 0.000000000000000D+00 -.340523002759869D+03
 0.180545880911314D+03 0.785171862335570D+02 -.439787499993882D+02 0.941952022583885D+02
 0.152194598694806D+03 -.926373692996941D+02 0.511501270381576D+02 -.741482449604513D+02
 0.791222777256397D+02 -.420036879673292D+02 -.639855025199552D+02 -.200469572979372D+02
 0.146438077758742D+03 0.561238710334663D+02 0.568141254811858D+02 -.122745170429236D+03
0.523688584744D-04 0.000000000000D+00 0.000000000000D+00 0.102662485799D-06 0.000000000000D+00  6 21 2 25 24 1 21 2 0.46234973D-01 0.20893172D-01 0.31692449D+05 0.31692449D+05 0.31692449D+05 0.12124048D+01  1  2  2  1  6  1       21 0.111728283731D+00 0.100000000000D+01
-.326763791375D-05 0.276358058678D-05 -.105717637123D-06 0.102662485799D-06 0.000000000000D+00  6 21 2 25 24 1 21 4 0.46234973D-01 0.20893172D-01 0.31692449D+05 0.31692449D+05 0.31692449D+05 0.12124048D+01  1  2  3  1  6  1       21 -.102475311351D-01 0.100000000000D+01
0.550544454669D-05 0.000000000000D+00 0.000000000000D+00 0.102662485799D-06 0.000000000000D+00  6 21 2 25 24 1 21 4 0.46234973D-01 0.20893172D-01 0.31692449D+05 0.31692449D+05 0.31692449D+05 0.12124048D+01  1  2 15  1  6  1       21 0.172654424676D-01 0.100000000000D+01
-.326118844630D-05 0.000000000000D+00 0.000000000000D+00 0.102662485799D-06 0.000000000000D+00  6 21 2 25 24 1 21 4 0.46234973D-01 0.20893172D-01 0.31692449D+05 0.31692449D+05 0.31692449D+05 0.12124048D+01  1  2  4  1  6  1       21 -.102273051736D-01 0.100000000000D+01
  </mgrwgt>
  </event>
  <event>
  5     66 -.46027262E-03 0.58969031E+02 0.75467711E-02 0.11412232E+00
       21 -1    0    0  501  502 0.00000000E+00 0.00000000E+00 0.63286917E+02 0.63291361E+02 0.75000000E+00 0.0000E+00 0.9000E+01
        2 -1    0    0  502    0 0.00000000E+00 0.00000000E+00 -.60557298E+03 0.60557306E+03 0.32000000E+00 0.0000E+00 0.9000E+01
       25  1    1    2    0    0 -.76531429E+02 0.75700422E+02 -.13221046E+03 0.21140534E+03 0.12500000E+03 0.0000E+00 0.9000E+01
       24  1    1    2    0    0 0.84877628E+02 -.17325644E+02 -.36373921E+03 0.38246283E+03 0.80419002E+02 0.0000E+00 0.9000E+01
        1  1    1    2  501    0 -.83461991E+01 -.58374778E+02 -.46336394E+02 0.74996250E+02 0.32000000E+00 0.0000E+00 0.9000E+01
#aMCatNLO 1  0  0  2  1 0.71155820D+02 0.00000000D+00  -5  6  0 0.00000000D+00 0.00000000D+00 0.00000000D+00 0.00000000D+00 0.00000000D+00
  <mgrwgt>
 -.6530905074D-01    5    2    0
 0.195771196115017D+03 0.000000000000000D+00 0.000000000000000D+00 0.195771196115017D+03
 0.195771196115017D+03 0.000000000000000D+00 0.000000000000000D+00 -.195771196115017D+03
 0.178028360421884D+03 -.765313811795900D+02 0.757007541058778D+02 0.669435630740542D+02
 0.149575382426521D+03 0.848776677580497D+02 -.173253647215695D+02 -.916580183447583D+02
 0.639386493816301D+02 -.834628657845974D+01 -.583753893843083D+02 0.247144552707041D+02
 0.000000000000000D+00 -.000000000000000D+00 -.000000000000000D+00 -.000000000000000D+00
 0.202535374353603D+03 0.000000000000000D+00 0.000000000000000D+00 0.202535374353603D+03
 0.554774508400579D+03 0.000000000000000D+00 0.000000000000000D+00 -.554774508400579D+03
 0.188538940867043D+03 -.642387894549449D+02 0.106366674835589D+03 0.669435630740542D+02
 0.154842035653096D+03 0.950861043020769D+02 0.814128322751963D+01 -.916580183447583D+02
 0.545745431438342D+02 -.437202514112679D+01 -.484609312353358D+02 0.247144552707041D+02
 0.359354363090208D+03 -.264752897060052D+02 -.660470268277726D+02 -.352239134046976D+03
0.223648179906D-05 0.000000000000D+00 0.000000000000D+00 0.183602397972D-06 0.000000000000D+00  6 21 2 25 24 1 21 2 0.97367971D-02 0.93165421D-01 0.29263774D+05 0.29263774D+05 0.29263774D+05 0.12160326D+01  1  2  2  2  6  2        2 0.176636570517D-01 0.100000000000D+01
-.576580980584D-07 0.118022387018D-06 -.451481239334D-08 0.183602397972D-06 0.000000000000D+00  6 21 2 25 24 1 21 4 0.97367971D-02 0.93165421D-01 0.29263774D+05 0.29263774D+05 0.29263774D+05 0.12160326D+01  1  2  3  2  6  2        2 -.673388954346D-03 0.100000000000D+01
0.231269575367D-06 0.000000000000D+00 0.000000000000D+00 0.183602397972D-06 0.000000000000D+00  6 21 2 25 24 1 21 4 0.97367971D-02 0.93165421D-01 0.29263774D+05 0.29263774D+05 0.29263774D+05 0.12160326D+01  1  2 15  2  6  2        2 0.270099747950D-02 0.100000000000D+01
-.325203683735D-04 0.000000000000D+00 -.188753965658D-05 0.183602397972D-06 0.000000000000D+00  6 21 2 25 24 1 21 4 0.97367971D-02 0.26609376D+00 0.29263774D+05 0.29263774D+05 0.29263774D+05 0.12160326D+01  1  2  5  2  6  2        2 -.811772498090D-01 0.100000000000D+01
-.374466057528D-05 0.000000000000D+00 -.223294089150D-06 0.183602397972D-06 0.000000000000D+00  6 21 21 25 24 1 -2 4 0.97367971D-02 0.26609376D+00 0.29263774D+05 0.29263774D+05 0.29263774D+05 0.12160326D+01  1  2  5 10  6  2        2 -.382306650905D-02 0.100000000000D+01
  </mgrwgt>
  </event>
  <event>
  5     66 0.46027262E-03 0.22728855E+02 0.75467711E-02 0.11068485E+00
       21 -1    0    0  501  502 0.00000000E+00 0.00000000E+00 0.25782257E+02 0.25793163E+02 0.75000000E+00 0.0000E+00 0.9000E+01
        4 -1    0    0  502    0 0.00000000E+00 0.00000000E+00 -.68652997E+03 0.68653172E+03 0.15500000E+01 0.0000E+00 0.9000E+01
       25  1    1    2    0    0 0.16614484E+02 -.50988957E+02 -.34925872E+03 0.37481005E+03 0.12500000E+03 0.0000E+00 0.9000E+01
       24  1    1    2    0    0 -.38809772E+02 0.55864041E+02 -.23104429E+03 0.25392060E+03 0.80419002E+02 0.0000E+00 0.9000E+01
        3  1    1    2  501    0 0.22195287E+02 -.48750840E+01 -.80444697E+02 0.83594237E+02 0.50000000E+00 0.0000E+00 0.9000E+01
#aMCatNLO 1  0  0  1  5 0.98158260D+01 0.00000000D+00  -5  6  0 0.00000000D+00 0.00000000D+00 0.00000000D+00 0.00000000D+00 0.00000000D+00
  <mgrwgt>
 0.1811353677D-01    3    2    0
 0.133059382966107D+03 0.000000000000000D+00 0.000000000000000D+00 0.133059382966107D+03
 0.133059382966107D+03 0.000000000000000D+00 0.000000000000000D+00 -.133059382966107D+03
 0.136083895385260D+03 0.166120247181042D+02 -.509884166299434D+02 -.424836292738970D+01
 0.106013713670311D+03 -.388116875239039D+02 0.558644616342211D+02 0.120210802204167D+02
 0.240211568766426D+02 0.221996628057998D+02 -.487604500427764D+01 -.777271729302704D+01
 0.000000000000000D+00 -.000000000000000D+00 -.000000000000000D+00 -.000000000000000D+00
 0.177645545524359D+03 0.000000000000000D+00 0.000000000000000D+00 0.177645545524359D+03
 0.874552690579630D+03 0.000000000000000D+00 0.000000000000000D+00 -.874552690579630D+03
 0.156865503555373D+03 0.946088402154687D+02 0.359234898106333D+01 -.424836292738970D+01
 0.131214935966215D+03 0.243496614438706D+02 0.100063635173577D+03 0.120210802204167D+02
 0.408788445082923D+02 0.394790750596044D+02 0.721577623363862D+01 -.777271729302704D+01
 0.723238952074109D+03 -.158437576718944D+03 -.110871760388278D+03 -.696907145055271D+03
0.820963229930D-05 0.000000000000D+00 0.000000000000D+00 0.556013527373D-06 0.000000000000D+00  6 21 4 25 24 3 21 2 0.39674746D-02 0.10562097D+00 0.17434084D+05 0.17434084D+05 0.17434084D+05 0.12404454D+01  1  2  2  1  6  1       21 0.153687449831D-01 0.100000000000D+01
0.155916075565D-06 0.433234198872D-06 -.165728823124D-07 0.556013527373D-06 0.000000000000D+00  6 21 4 25 24 3 21 4 0.39674746D-02 0.10562097D+00 0.17434084D+05 0.17434084D+05 0.17434084D+05 0.12404454D+01  1  2  3  1  6  1       21 0.449118453033D-03 0.100000000000D+01
0.796966533416D-06 0.000000000000D+00 0.000000000000D+00 0.556013527373D-06 0.000000000000D+00  6 21 4 25 24 3 21 4 0.39674746D-02 0.10562097D+00 0.17434084D+05 0.17434084D+05 0.17434084D+05 0.12404454D+01  1  2 15  1  6  1       21 0.229567333137D-02 0.100000000000D+01
  </mgrwgt>
  </event>
  <event>
  6     66 -.46027262E-03 0.16724078E+02 0.75467711E-02 0.12381810E+00
       21 -1    0    0  503  502 0.00000000E+00 0.00000000E+00 0.19819503E+02 0.19833688E+02 0.75000000E+00 0.0000E+00 0.9000E+01
        2 -1    0    0  502    0 0.00000000E+00 0.00000000E+00 -.86457335E+03 0.86457340E+03 0.32000000E+00 0.0000E+00 0.9000E+01
       25  1    1    2    0    0 0.18460175E+02 -.96500847E+01 -.35972348E+03 0.38139204E+03 0.12500000E+03 0.0000E+00 0.9000E+01
       24  1    1    2    0    0 -.80445040E+01 0.11677451E+02 -.41947121E+03 0.42734575E+03 0.80419002E+02 0.0000E+00 0.9000E+01
        1  1    1    2  501    0 -.20806841E+02 -.11361566E+02 -.38672875E+02 0.45361916E+02 0.32000000E+00 0.0000E+00 0.9000E+01
       21  1    1    2  503  501 0.10391170E+02 0.93341990E+01 -.26886280E+02 0.30307396E+02 0.75000000E+00 0.0000E+00 0.9000E+01
#aMCatNLO 2  0  0  1  2 0.13967952D+02 0.00000000D+00  -5  6  0 0.00000000D+00 0.00000000D+00 0.00000000D+00 0.00000000D+00 0.00000000D+00
  <mgrwgt>
 -.2916206589D+00    2    2    0
 0.122865617422630D+03 0.000000000000000D+00 0.000000000000000D+00 0.122865617422630D+03
 0.122865617422630D+03 0.000000000000000D+00 0.000000000000000D+00 -.122865617422630D+03
 0.128768367051021D+03 0.238885465370983D+02 -.477413470029258D+01 0.190482895608696D+02
 0.893229165163150D+02 -.427512817090750D+01 0.150632345381033D+02 -.355835594760058D+02
 0.276399512779252D+02 -.196134183661908D+02 -.102890998378107D+02 0.165352699151363D+02
 0.000000000000000D+00 0.000000000000000D+00 0.000000000000000D+00 0.000000000000000D+00
 0.134674648855505D+03 0.000000000000000D+00 0.000000000000000D+00 0.134674648855505D+03
 0.127264896557269D+03 0.000000000000000D+00 0.000000000000000D+00 -.127264896557269D+03
 0.128147407253124D+03 0.184608635754666D+02 -.964972365154766D+01 0.190482895608696D+02
 0.890757021048466D+02 -.804403315656407D+01 0.116776956928364D+02 -.355835594760058D+02
 0.289047912561118D+02 -.208080002732500D+02 -.113621710522864D+02 0.165352699151363D+02
 0.158116447986926D+02 0.103911698543475D+02 0.933419901099768D+01 0.740975229823579D+01
-.694550166123D-05 0.000000000000D+00 0.000000000000D+00 0.153628009212D-05 0.000000000000D+00  6 21 2 25 24 1 21 4 0.30964038D-02 0.12840559D+00 0.15136308D+05 0.15136308D+05 0.15136308D+05 0.12473749D+01  1  2 13  1  6  1       21 -.423342366402D+00 0.100000000000D+01
0.220447761509D-05 0.000000000000D+00 0.000000000000D+00 0.155136485414D-05 0.796667305135D-07  6 21 2 25 24 1 21 4 0.30500403D-02 0.13300323D+00 0.15136308D+05 0.15136308D+05 0.15136308D+05 0.12473749D+01  1  2  1  1  6  1       21 0.131721707487D+00 0.100000000000D+01
  </mgrwgt>
  </event>
  <event>
  5     66 0.46027262E-03 0.45271120E+02 0.75467711E-02 0.98976757E-01
       21 -1    0    0  501  502 0.00000000E+00 0.00000000E+00 0.11619810E+03 0.11620052E+03 0.75000000E+00 0.0000E+00 0.9000E+01
        2 -1    0    0  502    0 0.00000000E+00 0.00000000E+00 -.23433240E+03 0.23433261E+03 0.32000000E+00 0.0000E+00 0.9000E+01
       25  1    1    2    0    0 0.14822321E+02 -.19473670E+02 -.15000519E+03 0.19678791E+03 0.12500000E+03 0.0000E+00 0.9000E+01
       24  1    1    2    0    0 0.24023144E+02 -.37746684E+01 -.18491001E+02 0.86026116E+02 0.80419002E+02 0.0000E+00 0.9000E+01
        1  1    1    2  501    0 -.38845465E+02 0.23248339E+02 0.50361894E+02 0.67719112E+02 0.32000000E+00 0.0000E+00 0.9000E+01
#aMCatNLO 1  0  0  1  2 0.30766362D+01 0.00000000D+00  -5  6  0 0.00000000D+00 0.00000000D+00 0.00000000D+00 0.00000000D+00 0.00000000D+00
  <mgrwgt>
 0.1376892529D+00   12    2    0
 0.165013460804078D+03 0.000000000000000D+00 0.000000000000000D+00 0.165013460804078D+03
 0.165013460804078D+03 0.000000000000000D+00 0.000000000000000D+00 -.165013460804078D+03
 0.155320590959195D+03 0.148224367992699D+02 -.194737395276950D+02 -.888850651800001D+02
 0.847524311029256D+02 0.240232068863794D+02 -.377470620405089D+01 0.111532841554817D+02
 0.899538995460343D+02 -.388456436856493D+02 0.232484457317459D+02 0.777317810245183D+02
 0.000000000000000D+00 0.000000000000000D+00 -.000000000000000D+00 0.000000000000000D+00
 0.681900255382392D+03 0.000000000000000D+00 0.000000000000000D+00 0.681900255382392D+03
 0.565455342975461D+03 0.000000000000000D+00 0.000000000000000D+00 -.565455342975461D+03
 0.270331010458110D+03 -.802474536406281D+02 0.207638258968441D+03 -.888850651800001D+02
 0.147799167662368D+03 -.279175233789918D+02 0.120306251492799D+03 0.111532841554817D+02
 0.243771825722394D+03 -.113383758971958D+03 0.201312186506864D+03 0.777317810245183D+02
 0.585453594514981D+03 0.221548735991578D+03 -.529256696968105D+03 0.116444912406931D+03
0.632560321293D-05 0.000000000000D+00 0.000000000000D+00 0.123024088190D-05 0.000000000000D+00  6 21 2 25 24 1 21 2 0.17876834D-01 0.36051341D-01 0.16468546D+05 0.16468546D+05 0.16468546D+05 0.12432245D+01  1  2  2  1  6  1       21 0.489915755223D-01 0.100000000000D+01
0.179335732933D-06 0.333811252492D-06 -.127695703998D-07 0.123024088190D-05 0.000000000000D+00  6 21 2 25 24 1 21 4 0.17876834D-01 0.36051341D-01 0.16468546D+05 0.16468546D+05 0.16468546D+05 0.12432245D+01  1  2  3  1  6  1       21 0.214676963812D-02 0.100000000000D+01
0.592523453201D-06 0.000000000000D+00 0.000000000000D+00 0.123024088190D-05 0.000000000000D+00  6 21 2 25 24 1 21 4 0.17876834D-01 0.36051341D-01 0.16468546D+05 0.16468546D+05 0.16468546D+05 0.12432245D+01  1  2 15  1  6  1       21 0.709290523643D-02 0.100000000000D+01
0.640082025651D-03 0.000000000000D+00 -.246696595785D-03 0.123024088190D-05 0.000000000000D+00  6 21 2 25 24 1 21 4 0.20720592D+00 0.36051341D-01 0.16468546D+05 0.16468546D+05 0.16468546D+05 0.12432245D+01  1  2  5  1  6  1       21 0.349298713938D-01 0.100000000000D+01
0.281811970816D-03 0.000000000000D+00 -.108317556687D-03 0.123024088190D-05 0.000000000000D+00  6 -1 2 25 24 1 -1 4 0.20720592D+00 0.36051341D-01 0.16468546D+05 0.16468546D+05 0.16468546D+05 0.12432245D+01  1  2  5  4  6  1       21 0.175035981610D-02 0.100000000000D+01
0.281811970816D-03 0.000000000000D+00 -.108317556687D-03 0.123024088190D-05 0.000000000000D+00  6 1 2 25 24 1 1 4 0.20720592D+00 0.36051341D-01 0.16468546D+05 0.16468546D+05 0.16468546D+05 0.12432245D+01  1  2  5  5  6  1       21 0.125808674471D-01 0.100000000000D+01
0.281811970816D-03 0.000000000000D+00 -.108317556687D-03 0.123024088190D-05 0.000000000000D+00  6 -2 2 25 24 1 -2 4 0.20720592D+00 0.36051341D-01 0.16468546D+05 0.16468546D+05 0.16468546D+05 0.12432245D+01  1  2  5  6  6  1       21 0.131870533519D-02 0.100000000000D+01
0.281811970816D-03 0.000000000000D+00 -.108317556687D-03 0.123024088190D-05 0.000000000000D+00  6 2 2 25 24 1 2 4 0.20720592D+00 0.36051341D-01 0.16468546D+05 0.16468546D+05 0.16468546D+05 0.12432245D+01  1  2  5  7  6  1       21 0.258232720114D-01 0.100000000000D+01
0.281811970816D-03 0.000000000000D+00 -.108317556687D-03 0.123024088190D-05 0.000000000000D+00  6 -3 2 25 24 1 -3 4 0.20720592D+00 0.36051341D-01 0.16468546D+05 0.16468546D+05 0.16468546D+05 0.12432245D+01  1  2  5  8  6  1       21 0.864849517762D-03 0.100000000000D+01
0.281811970816D-03 0.000000000000D+00 -.108317556687D-03 0.123024088190D-05 0.000000000000D+00  6 -4 2 25 24 1 -4 4 0.20720592D+00 0.36051341D-01 0.16468546D+05 0.16468546D+05 0.16468546D+05 0.12432245D+01  1  2  5  8  6  1       21 0.659706811441D-03 0.100000000000D+01
0.281811970816D-03 0.000000000000D+00 -.108317556687D-03 0.123024088190D-05 0.000000000000D+00  6 3 2 25 24 1 3 4 0.20720592D+00 0.36051341D-01 0.16468546D+05 0.16468546D+05 0.16468546D+05 0.12432245D+01  1  2  5  9  6  1       21 0.870663332027D-03 0.100000000000D+01
0.281811970816D-03 0.000000000000D+00 -.108317556687D-03 0.123024088190D-05 0.000000000000D+00  6 4 2 25 24 1 4 4 0.20720592D+00 0.36051341D-01 0.16468546D+05 0.16468546D+05 0.16468546D+05 0.12432245D+01  1  2  5  9  6  1       21 0.659706811441D-03 0.100000000000D+01
  </mgrwgt>
  </event>
  <event>
  6     66 -.46027262E-03 0.13546738E+03 0.75467711E-02 0.10958026E+00
       21 -1    0    0  501  502 0.00000000E+00 0.00000000E+00 0.24344150E+03 0.24344266E+03 0.75000000E+00 0.0000E+00 0.9000E+01
        2 -1    0    0  503    0 0.00000000E+00 0.00000000E+00 -.23775728E+04 0.23775729E+04 0.32000000E+00 0.0000E+00 0.9000E+01
       25  1    1    2    0    0 -.12940437E+03 -.18457135E+03 -.44232255E+03 0.51194366E+03 0.12500000E+03 0.0000E+00 0.9000E+01
       24  1    1    2    0    0 0.29126918E+02 0.96256714E+02 -.85214444E+03 0.86181848E+03 0.80419002E+02 0.0000E+00 0.9000E+01
        1  1    1    2  501    0 0.95640223E+02 0.11294566E+03 0.17674943E+03 0.23053034E+03 0.32000000E+00 0.0000E+00 0.9000E+01
       21  1    1    2  503  502 0.46372322E+01 -.24631025E+02 -.10164138E+04 0.10167230E+04 0.75000000E+00 0.0000E+00 0.9000E+01
#aMCatNLO 2  0  0  2  1 0.25063745D+02 0.00000000D+00  -5  6  0 0.00000000D+00 0.00000000D+00 0.00000000D+00 0.00000000D+00 0.00000000D+00
  <mgrwgt>
 -.8151435928D-01    2    2    0
 0.575289848506097D+03 0.000000000000000D+00 0.000000000000000D+00 0.575289848506097D+03
 0.575289848506097D+03 0.000000000000000D+00 0.000000000000000D+00 -.575289848506097D+03
 0.287560966792774D+03 -.128252592329595D+03 -.190689156365106D+03 -.119395258818337D+03
 0.371913660953977D+03 0.306294098564666D+02 0.882760650457868D+02 -.350887062801831D+03
 0.491105069265443D+03 0.976231824731281D+02 0.102413091319319D+03 0.470282321620168D+03
 0.000000000000000D+00 0.000000000000000D+00 -.000000000000000D+00 -.000000000000000D+00
 0.575791724611972D+03 0.000000000000000D+00 0.000000000000000D+00 0.575791724611972D+03
 0.100522594964783D+04 0.000000000000000D+00 0.000000000000000D+00 -.100522594964783D+04
 0.284063911708600D+03 -.129404378224796D+03 -.184571354774102D+03 -.119395258818337D+03
 0.373768213549484D+03 0.291269107566859D+02 0.962567074737022D+02 -.350887062801831D+03
 0.493020528419591D+03 0.956402352202161D+02 0.112945671991892D+03 0.470282321620168D+03
 0.430165020582124D+03 0.463723224789427D+01 -.246310246914918D+02 -.429434225035855D+03
-.305120149534D-01 0.000000000000D+00 0.000000000000D+00 0.583787431654D-06 0.000000000000D+00  6 21 2 25 24 1 21 4 0.37419963D-01 0.36580969D+00 0.78283545D+05 0.78283545D+05 0.78283545D+05 0.11734676D+01  1  2 13  2  6  2        2 -.228450073599D+01 0.100000000000D+01
0.294681525047D-01 0.000000000000D+00 0.000000000000D+00 0.588817502678D-06 0.773969200306D-08  6 21 2 25 24 1 21 4 0.37452608D-01 0.36578032D+00 0.78283545D+05 0.78283545D+05 0.78283545D+05 0.11734676D+01  1  2  1  2  6  2        2 0.220298637671D+01 0.100000000000D+01
  </mgrwgt>
  </event>
  <event>
  5     66 0.46027262E-03 0.54238076E+02 0.75467711E-02 0.11649302E+00
       21 -1    0    0  501  502 0.00000000E+00 0.00000000E+00 0.13483037E+02 0.13503881E+02 0.75000000E+00 0.0000E+00 0.9000E+01
        2 -1    0    0  502    0 0.00000000E+00 0.00000000E+00 -.33342714E+04 0.33342714E+04 0.32000000E+00 0.0000E+00 0.9000E+01
       25  1    1    2    0    0 -.20455205E+02 0.13974534E+03 -.10424263E+04 0.10593511E+04 0.12500000E+03 0.0000E+00 0.9000E+01
       24  1    1    2    0    0 -.68810651E+01 -.92880099E+02 -.20506163E+04 0.20543048E+04 0.80419002E+02 0.0000E+00 0.9000E+01
        1  1    1    2  501    0 0.27336270E+02 -.46865237E+02 -.22774571E+03 0.23411927E+03 0.32000000E+00 0.0000E+00 0.9000E+01
#aMCatNLO 1  0  0  1  1 0.89612387D-01 0.00000000D+00  -5  6  0 0.00000000D+00 0.00000000D+00 0.00000000D+00 0.00000000D+00 0.00000000D+00
  <mgrwgt>
 0.1061353104D+00   23    2    0
 0.212110866692430D+03 0.000000000000000D+00 0.000000000000000D+00 0.212110866692430D+03
 0.212110866692430D+03 0.000000000000000D+00 0.000000000000000D+00 -.212110866692430D+03
 0.199877528150287D+03 -.204553622224452D+02 0.139745604687625D+03 0.661722780800805D+02
 0.159558849073247D+03 -.688119047859774D+01 -.928798835317865D+02 -.101576507204805D+03
 0.647853561613248D+02 0.273365527010430D+02 -.468657211558384D+02 0.354042291247248D+02
 0.000000000000000D+00 0.000000000000000D+00 0.000000000000000D+00 0.000000000000000D+00
 0.212165667203635D+03 0.000000000000000D+00 0.000000000000000D+00 0.212165667203635D+03
 0.212147509191627D+03 0.000000000000000D+00 0.000000000000000D+00 -.212147509191627D+03
 0.199878920600094D+03 -.204973784763736D+02 0.139741439771986D+03 0.661722780800805D+02
 0.159562234485979D+03 -.691473158224384D+01 -.928832083371669D+02 -.101576507204805D+03
 0.647805877636245D+02 0.273229347203514D+02 -.468670710558283D+02 0.354042291247248D+02
 0.914335455649006D-01 0.891753382660938D-01 0.883962100927565D-02 0.181580120087215D-01
0.288720501424D-05 0.000000000000D+00 0.000000000000D+00 0.188369630740D-06 0.000000000000D+00  6 21 2 25 24 1 21 2 0.20759179D-02 0.51296643D+00 0.33472815D+05 0.33472815D+05 0.33472815D+05 0.12099371D+01  1  2  2  1  6  1       21 0.847276525682D-02 0.100000000000D+01
-.937084237405D-08 0.152361994511D-06 -.582843508311D-08 0.188369630740D-06 0.000000000000D+00  6 21 2 25 24 1 21 4 0.20759179D-02 0.51296643D+00 0.33472815D+05 0.33472815D+05 0.33472815D+05 0.12099371D+01  1  2  3  1  6  1       21 -.402579625655D-04 0.100000000000D+01
0.295264089445D-06 0.000000000000D+00 0.000000000000D+00 0.188369630740D-06 0.000000000000D+00  6 21 2 25 24 1 21 4 0.20759179D-02 0.51296643D+00 0.33472815D+05 0.33472815D+05 0.33472815D+05 0.12099371D+01  1  2 15  1  6  1       21 0.126848048290D-02 0.100000000000D+01
-.202630947973D-03 0.000000000000D+00 0.000000000000D+00 0.188369630740D-06 0.000000000000D+00  6 21 2 25 24 1 21 4 0.20759179D-02 0.51296643D+00 0.33472815D+05 0.33472815D+05 0.33472815D+05 0.12099371D+01  1  2  4  1  6  1       21 -.870520364390D+00 0.100000000000D+01
-.260575472524D-01 0.000000000000D+00 -.170193027495D-02 0.188369630740D-06 0.000000000000D+00  6 21 2 25 24 1 21 4 0.20770371D-02 0.51296643D+00 0.33472815D+05 0.33472815D+05 0.33472815D+05 0.12099371D+01  1  2  5  1  6  1       21 -.111847289757D+03 0.100000000000D+01
0.260584491050D-01 0.000000000000D+00 0.170192928618D-02 0.188369630740D-06 0.000000000000D+00  6 21 2 25 24 1 21 4 0.20759179D-02 0.51296643D+00 0.33472815D+05 0.33472815D+05 0.33472815D+05 0.12099371D+01  1  2  6  1  6  1       21 0.111949387975D+03 0.100000000000D+01
0.202498499244D-03 0.000000000000D+00 0.000000000000D+00 0.188369630740D-06 0.281871433080D-03  6 21 2 25 24 1 21 4 0.20764543D-02 0.51305505D+00 0.33489244D+05 0.33489244D+05 0.33489244D+05 0.12099150D+01  1  2 11  1  6  1       21 0.868778758503D+00 0.100000000000D+01
-.291977836669D-05 0.000000000000D+00 -.204004954202D-06 0.188369630740D-06 0.000000000000D+00  6 -1 2 25 24 1 -1 4 0.20770371D-02 0.51296643D+00 0.33472815D+05 0.33472815D+05 0.33472815D+05 0.12099371D+01  1  2  5  4  6  1       21 -.613123902920D-03 0.100000000000D+01
0.879928501509D-06 0.000000000000D+00 0.000000000000D+00 0.188369630740D-06 0.116887129602D-05  6 -1 2 25 24 1 -1 4 0.20764543D-02 0.51305505D+00 0.33489244D+05 0.33489244D+05 0.33489244D+05 0.12099150D+01  1  2 11  4  6  1       21 0.184681657414D-03 0.100000000000D+01
-.291977836669D-05 0.000000000000D+00 -.204004954202D-06 0.188369630740D-06 0.000000000000D+00  6 1 2 25 24 1 1 4 0.20770371D-02 0.51296643D+00 0.33472815D+05 0.33472815D+05 0.33472815D+05 0.12099371D+01  1  2  5  5  6  1       21 -.645201319446D-03 0.100000000000D+01
0.202732315992D-06 0.000000000000D+00 0.000000000000D+00 0.188369630740D-06 0.117884816314D-07  6 1 2 25 24 1 1 4 0.20764543D-02 0.51305505D+00 0.33489244D+05 0.33489244D+05 0.33489244D+05 0.12099150D+01  1  2 11  5  6  1       21 0.447754615538D-04 0.100000000000D+01
-.291977836669D-05 0.000000000000D+00 -.204004954202D-06 0.188369630740D-06 0.000000000000D+00  6 -2 2 25 24 1 -2 4 0.20770371D-02 0.51296643D+00 0.33472815D+05 0.33472815D+05 0.33472815D+05 0.12099371D+01  1  2  5  6  6  1       21 -.607374252949D-03 0.100000000000D+01
0.202756226907D-06 0.000000000000D+00 0.000000000000D+00 0.188369630740D-06 0.235768068545D-07  6 -2 2 25 24 1 -2 4 0.20764543D-02 0.51305505D+00 0.33489244D+05 0.33489244D+05 0.33489244D+05 0.12099150D+01  1  2 11  6  6  1       21 0.421560511058D-04 0.100000000000D+01
-.291977836669D-05 0.000000000000D+00 -.204004954202D-06 0.188369630740D-06 0.000000000000D+00  6 2 2 25 24 1 2 4 0.20770371D-02 0.51296643D+00 0.33472815D+05 0.33472815D+05 0.33472815D+05 0.12099371D+01  1  2  5  7  6  1       21 -.667261874253D-03 0.100000000000D+01
0.171187826737D-06 0.000000000000D+00 0.000000000000D+00 0.188369630740D-06 0.307905790728D-07  6 2 2 25 24 1 2 4 0.20764543D-02 0.51305505D+00 0.33489244D+05 0.33489244D+05 0.33489244D+05 0.12099150D+01  1  2 11  7  6  1       21 0.391009386206D-04 0.100000000000D+01
-.291977836669D-05 0.000000000000D+00 -.204004954202D-06 0.188369630740D-06 0.000000000000D+00  6 -3 2 25 24 1 -3 4 0.20770371D-02 0.51296643D+00 0.33472815D+05 0.33472815D+05 0.33472815D+05 0.12099371D+01  1  2  5  8  6  1       21 -.477577355545D-03 0.100000000000D+01
-.291977836669D-05 0.000000000000D+00 -.204004954202D-06 0.188369630740D-06 0.000000000000D+00  6 -4 2 25 24 1 -4 4 0.20770371D-02 0.51296643D+00 0.33472815D+05 0.33472815D+05 0.33472815D+05 0.12099371D+01  1  2  5  8  6  1       21 -.435856886761D-03 0.100000000000D+01
0.202755516642D-06 0.000000000000D+00 0.000000000000D+00 0.188369630740D-06 0.235767242637D-07  6 -3 2 25 24 1 -3 4 0.20764543D-02 0.51305505D+00 0.33489244D+05 0.33489244D+05 0.33489244D+05 0.12099150D+01  1  2 11  8  6  1       21 0.331480681504D-04 0.100000000000D+01
0.202755516642D-06 0.000000000000D+00 0.000000000000D+00 0.188369630740D-06 0.235767242637D-07  6 -4 2 25 24 1 -4 4 0.20764543D-02 0.51305505D+00 0.33489244D+05 0.33489244D+05 0.33489244D+05 0.12099150D+01  1  2 11  8  6  1       21 0.302525780465D-04 0.100000000000D+01
-.291977836669D-05 0.000000000000D+00 -.204004954202D-06 0.188369630740D-06 0.000000000000D+00  6 3 2 25 24 1 3 4 0.20770371D-02 0.51296643D+00 0.33472815D+05 0.33472815D+05 0.33472815D+05 0.12099371D+01  1  2  5  9  6  1       21 -.477550541239D-03 0.100000000000D+01
-.291977836669D-05 0.000000000000D+00 -.204004954202D-06 0.188369630740D-06 0.000000000000D+00  6 4 2 25 24 1 4 4 0.20770371D-02 0.51296643D+00 0.33472815D+05 0.33472815D+05 0.33472815D+05 0.12099371D+01  1  2  5  9  6  1       21 -.435856886761D-03 0.100000000000D+01
0.202755516642D-06 0.000000000000D+00 0.000000000000D+00 0.188369630740D-06 0.235767242637D-07  6 3 2 25 24 1 3 4 0.20764543D-02 0.51305505D+00 0.33489244D+05 0.33489244D+05 0.33489244D+05 0.12099150D+01  1  2 11  9  6  1       21 0.331462074202D-04 0.100000000000D+01
0.202755516642D-06 0.000000000000D+00 0.000000000000D+00 0.188369630740D-06 0.235767242637D-07  6 4 2 25 24 1 4 4 0.20764543D-02 0.51305505D+00 0.33489244D+05 0.33489244D+05 0.33489244D+05 0.12099150D+01  1  2 11  9  6  1       21 0.302525780465D-04 0.100000000000D+01
  </mgrwgt>
  </event>
  <event>
  6     66 -.46027262E-03 0.23252170E+02 0.75467711E-02 0.11605928E+00
       21 -1    0    0  501  503 0.00000000E+00 0.00000000E+00 0.14048011E+03 0.14048211E+03 0.75000000E+00 0.0000E+00 0.9000E+01
        2 -1    0    0  502    0 0.00000000E+00 0.00000000E+00 -.30632856E+04 0.30632857E+04 0.32000000E+00 0.0000E+00 0.9000E+01
       25  1    1    2    0    0 -.45374695E+02 0.12807506E+03 -.23902139E+04 0.23973339E+04 0.12500000E+03 0.0000E+00 0.9000E+01
       24  1    1    2    0    0 0.20504152E+02 -.74201247E+02 -.58452857E+03 0.59503539E+03 0.80419002E+02 0.0000E+00 0.9000E+01
        1  1    1    2  501    0 -.10140903E+02 -.40710081E+02 -.71233958E+02 0.82671203E+02 0.32000000E+00 0.0000E+00 0.9000E+01
       21  1    1    2  502  503 0.35011447E+02 -.13163736E+02 0.12317091E+03 0.12872732E+03 0.75000000E+00 0.0000E+00 0.9000E+01
#aMCatNLO 2  0  0  1  5 0.37404349D+02 0.00000000D+00  -5  6  0 0.00000000D+00 0.00000000D+00 0.00000000D+00 0.00000000D+00 0.00000000D+00
  <mgrwgt>
 -.1041820352D+01    3    2    0
 0.210060821484667D+03 0.000000000000000D+00 0.000000000000000D+00 0.210060821484667D+03
 0.210060821484667D+03 0.000000000000000D+00 0.000000000000000D+00 -.210060821484667D+03
 0.209674580701459D+03 -.276471548517731D+02 0.121409939827785D+03 -.113285882315266D+03
 0.121374925313064D+03 0.304121836073582D+02 -.779264233421868D+02 0.355981484589848D+02
 0.890721369548122D+02 -.276502875558510D+01 -.434835164855981D+02 0.776877338562809D+02
 0.000000000000000D+00 0.000000000000000D+00 -.000000000000000D+00 0.000000000000000D+00
 0.203869303063994D+04 0.000000000000000D+00 0.000000000000000D+00 0.203869303063994D+04
 0.211083087706748D+03 0.000000000000000D+00 0.000000000000000D+00 -.211083087706748D+03
 0.216612129515261D+03 -.453747044830219D+02 0.128075211162295D+03 -.113285882315266D+03
 0.116878904832498D+03 0.205041651364251D+02 -.742011689855613D+02 0.355981484589848D+02
 0.882924174787190D+02 -.101409071636787D+02 -.407103057518576D+02 0.776877338562809D+02
 0.182799266652021D+04 0.350114465102755D+02 -.131637364248758D+02 0.182760994293319D+04
-.128915275297D-01 0.000000000000D+00 0.000000000000D+00 0.539832199567D-06 0.000000000000D+00  6 21 2 25 24 1 21 4 0.21537159D-01 0.46899233D+00 0.35214690D+05 0.35214690D+05 0.35214690D+05 0.12076605D+01  1  2 13  1  6  1       21 -.142356590211D+01 0.100000000000D+01
-.129124780538D-01 0.000000000000D+00 0.000000000000D+00 0.539832199567D-06 0.000000000000D+00  6 21 2 25 24 1 21 4 0.21884674D-01 0.46899233D+00 0.35214690D+05 0.35214690D+05 0.35214690D+05 0.12076605D+01  1  2 13  1  6  1       21 -.138358239149D+01 0.100000000000D+01
0.164202837738D-01 0.000000000000D+00 0.000000000000D+00 0.548824733994D-06 0.544185182703D-06  6 21 2 25 24 1 21 4 0.21612472D-01 0.47127470D+00 0.35214690D+05 0.35214690D+05 0.35214690D+05 0.12076605D+01  1  2  1  1  6  1       21 0.176532794188D+01 0.100000000000D+01
  </mgrwgt>
  </event>
  <event>
  6     66 -.46027262E-03 0.30604448E+02 0.75467711E-02 0.12201676E+00
       21 -1    0    0  501  502 0.00000000E+00 0.00000000E+00 0.12514877E+02 0.12537330E+02 0.75000000E+00 0.0000E+00 0.9000E+01
        2 -1    0    0  503    0 0.00000000E+00 0.00000000E+00 -.23514151E+04 0.23514152E+04 0.32000000E+00 0.0000E+00 0.9000E+01
       25  1    1    2    0    0 0.46113550E+02 -.25153993E+02 -.81355523E+03 0.82477651E+03 0.12500000E+03 0.0000E+00 0.9000E+01
       24  1    1    2    0    0 -.25283099E+02 0.44139224E+02 -.14407012E+04 0.14438403E+04 0.80419002E+02 0.0000E+00 0.9000E+01
        1  1    1    2  501    0 -.26409295E+02 -.20630910E+02 -.49960871E+02 0.60160422E+02 0.32000000E+00 0.0000E+00 0.9000E+01
       21  1    1    2  503  502 0.55788446E+01 0.16456792E+01 -.34682915E+02 0.35175259E+02 0.75000000E+00 0.0000E+00 0.9000E+01
#aMCatNLO 2  0  0  2  1 0.58165082D+01 0.00000000D+00  -5  6  0 0.00000000D+00 0.00000000D+00 0.00000000D+00 0.00000000D+00 0.00000000D+00
  <mgrwgt>
 -.1551462609D+00    3    2    0
 0.168635685046038D+03 0.000000000000000D+00 0.000000000000000D+00 0.168635685046038D+03
 0.168635685046038D+03 0.000000000000000D+00 0.000000000000000D+00 -.168635685046038D+03
 0.137362828438781D+03 0.483801512695923D+02 -.244853285590721D+02 0.174177003415371D+02
 0.126382648091892D+03 -.231911358179390D+02 0.447563689658057D+02 -.834529594491362D+02
 0.735258935614032D+02 -.251890154516533D+02 -.202710404067336D+02 0.660352591075990D+02
 0.000000000000000D+00 0.000000000000000D+00 0.000000000000000D+00 0.000000000000000D+00
 0.172017949898198D+03 0.000000000000000D+00 0.000000000000000D+00 0.172017949898198D+03
 0.171180112914713D+03 0.000000000000000D+00 0.000000000000000D+00 -.171180112914713D+03
 0.136702465792543D+03 0.461136469675650D+02 -.251539148429143D+02 0.174177003415371D+02
 0.126566664251835D+03 -.252830121579546D+02 0.441392954278568D+02 -.834529594491362D+02
 0.740523914318796D+02 -.264094794245223D+02 -.206310597861162D+02 0.660352591075990D+02
 0.587654133665389D+01 0.557884461491185D+01 0.164567920117364D+01 0.837836983485079D+00
-.783336823809D-05 0.000000000000D+00 0.000000000000D+00 0.131507206915D-05 0.000000000000D+00  6 21 2 25 24 1 21 4 0.18889410D-02 0.36521915D+00 0.18234968D+05 0.18234968D+05 0.18234968D+05 0.12382681D+01  1  2 13  2  6  2        2 -.154409795898D+00 0.100000000000D+01
-.978663291231D-05 0.000000000000D+00 0.000000000000D+00 0.132015451547D-05 0.000000000000D+00  6 21 2 25 24 1 21 4 0.18889410D-02 0.35633121D+00 0.17357819D+05 0.17357819D+05 0.17357819D+05 0.12406586D+01  1  2  8  2  6  2        2 -.208585673868D+00 0.100000000000D+01
0.105909363415D-04 0.000000000000D+00 0.000000000000D+00 0.132015451547D-05 0.338071289565D-06  6 21 2 25 24 1 21 4 0.19268268D-02 0.36170765D+00 0.18234968D+05 0.18234968D+05 0.18234968D+05 0.12382681D+01  1  2  1  2  6  2        2 0.207849208869D+00 0.100000000000D+01
  </mgrwgt>
  </event>
  <event>
  5     66 0.46027262E-03 0.60717152E+02 0.75467711E-02 0.11988693E+00
       21 -1    0    0  501  502 0.00000000E+00 0.00000000E+00 0.14528233E+03 0.14528427E+03 0.75000000E+00 0.0000E+00 0.9000E+01
        2 -1    0    0  502    0 -.00000000E+00 -.00000000E+00 -.33414064E+03 0.33414080E+03 0.32000000E+00 0.0000E+00 0.9000E+01
       25  1    1    2    0    0 0.82507011E+02 -.23504596E+02 -.16199731E+03 0.22187384E+03 0.12500000E+03 0.0000E+00 0.9000E+01
       24  1    1    2    0    0 -.36612317E+02 -.16247635E+02 -.11783373E+03 0.14817709E+03 0.80419002E+02 0.0000E+00 0.9000E+01
        1  1    1    2  501    0 -.45894694E+02 0.39752232E+02 0.90972722E+02 0.10937414E+03 0.32000000E+00 0.0000E+00 0.9000E+01
#aMCatNLO 1  0  0  5  1 0.35356281D+01 0.00000000D+00  -5  6  0 0.00000000D+00 0.00000000D+00 0.00000000D+00 0.00000000D+00 0.00000000D+00
  <mgrwgt>
 0.5000707137D-01    8    2    0
 0.220329827718532D+03 0.000000000000000D+00 0.000000000000000D+00 0.220329827718532D+03
 0.220329827718532D+03 -.000000000000000D+00 -.000000000000000D+00 -.220329827718532D+03
 0.171963498740273D+03 0.825070474500701D+02 -.235046281676807D+02 -.811576519791370D+02
 0.110711179646889D+03 -.366122932315201D+02 -.162476557475928D+02 -.646939178862448D+02
 0.157984977049902D+03 -.458947542185500D+02 0.397522839152735D+02 0.145851569865382D+03
 0.000000000000000D+00 0.000000000000000D+00 0.000000000000000D+00 0.000000000000000D+00
 0.220329827718532D+03 0.000000000000000D+00 0.000000000000000D+00 0.220329827718532D+03
 0.220329827718532D+03 -.000000000000000D+00 -.000000000000000D+00 -.220329827718532D+03
 0.171903725749033D+03 0.824785487582512D+02 -.234799436888620D+02 -.810670843530180D+02
 0.110680855506986D+03 -.366306415442748D+02 -.162317631395942D+02 -.646356077315177D+02
 0.127055772038921D+03 -.382263005566979D+02 0.287150330069974D+02 0.117717314077251D+03
 0.310193021421249D+02 -.762160665727859D+01 0.109966738214588D+02 0.279853780072845D+02
0.118423718166D-05 0.000000000000D+00 0.000000000000D+00 0.171050070773D-05 0.000000000000D+00  6 21 2 25 24 1 21 2 0.22351289D-01 0.51406414D-01 0.22826260D+05 0.22826260D+05 0.22826260D+05 0.12275559D+01  1  2  2  3  6  5        1 0.405598782297D-02 0.100000000000D+01
0.602612617272D-07 0.624939129996D-07 -.239063367592D-08 0.171050070773D-05 0.000000000000D+00  6 21 2 25 24 1 21 4 0.22351289D-01 0.51406414D-01 0.22826260D+05 0.22826260D+05 0.22826260D+05 0.12275559D+01  1  2  3  3  6  5        1 0.311013131359D-03 0.100000000000D+01
0.118167438854D-06 0.000000000000D+00 0.000000000000D+00 0.171050070773D-05 0.000000000000D+00  6 21 2 25 24 1 21 4 0.22351289D-01 0.51406414D-01 0.22826260D+05 0.22826260D+05 0.22826260D+05 0.12275559D+01  1  2 15  3  6  5        1 0.609871485083D-03 0.100000000000D+01
0.432981204208D-05 0.000000000000D+00 0.000000000000D+00 0.171010360699D-05 0.000000000000D+00  6 21 2 25 24 1 21 4 0.22351289D-01 0.51406414D-01 0.22895489D+05 0.22895489D+05 0.22895489D+05 0.12274134D+01  1  2 12  3  6  5        1 0.223357874756D-01 0.100000000000D+01
-.939416892613D-04 0.000000000000D+00 0.000000000000D+00 0.171050070773D-05 0.000000000000D+00  6 21 2 25 24 1 21 4 0.22351289D-01 0.51406414D-01 0.22826260D+05 0.22826260D+05 0.22826260D+05 0.12275559D+01  1  2  4  3  6  5        1 -.484840478026D+00 0.100000000000D+01
-.969036127808D-04 0.000000000000D+00 0.000000000000D+00 0.171050070773D-05 0.000000000000D+00  6 21 2 25 24 1 21 4 0.22351289D-01 0.51406414D-01 0.22826260D+05 0.22826260D+05 0.22826260D+05 0.12275559D+01  1  2  5  3  6  5        1 -.500127199250D+00 0.100000000000D+01
0.117754095872D-03 0.000000000000D+00 -.000000000000D+00 0.171050070773D-05 0.000000000000D+00  6 21 2 25 24 1 21 4 0.22351289D-01 0.51406414D-01 0.22826260D+05 0.22826260D+05 0.22826260D+05 0.12275559D+01  1  2  6  3  6  5        1 0.607738189309D+00 0.100000000000D+01
0.775255995565D-04 0.000000000000D+00 0.000000000000D+00 0.171050070773D-05 0.618563302186D-06  6 21 2 25 24 1 21 4 0.22351289D-01 0.51406414D-01 0.22895489D+05 0.22895489D+05 0.22895489D+05 0.12274134D+01  1  2 11  3  6  5        1 0.399923899417D+00 0.100000000000D+01
  </mgrwgt>
  </event>
  <event>
  5     66 -.46027262E-03 0.21461218E+02 0.75467711E-02 0.12221518E+00
       21 -1    0    0  501  502 0.00000000E+00 0.00000000E+00 0.21030417E+02 0.21043786E+02 0.75000000E+00 0.0000E+00 0.9000E+01
        2 -1    0    0  502    0 0.00000000E+00 0.00000000E+00 -.95137780E+03 0.95137785E+03 0.32000000E+00 0.0000E+00 0.9000E+01
       25  1    1    2    0    0 -.14252240E+02 -.13033209E+02 -.32413860E+03 0.34794227E+03 0.12500000E+03 0.0000E+00 0.9000E+01
       24  1    1    2    0    0 0.33201997E+02 0.23106304E+02 -.59184864E+03 0.59865542E+03 0.80419002E+02 0.0000E+00 0.9000E+01
        1  1    1    2  501    0 -.18949757E+02 -.10073095E+02 -.14360135E+02 0.25823950E+02 0.32000000E+00 0.0000E+00 0.9000E+01
#aMCatNLO 1  0  0  1  1 0.27958903D+02 0.00000000D+00  -5  6  0 0.00000000D+00 0.00000000D+00 0.00000000D+00 0.00000000D+00 0.00000000D+00
  <mgrwgt>
 -.9356569719D+00   12    2    0
 0.141472252178815D+03 0.000000000000000D+00 0.000000000000000D+00 0.141472252178815D+03
 0.141472252178815D+03 0.000000000000000D+00 0.000000000000000D+00 -.141472252178815D+03
 0.130008004036443D+03 -.142519814961144D+02 -.130330715776978D+02 0.300682753450355D+02
 0.111402549705766D+03 0.332022183757271D+02 0.231064216557015D+02 -.656278759352661D+02
 0.415339506154204D+02 -.189502368796127D+02 -.100733500780036D+02 0.355596005902307D+02
 0.000000000000000D+00 0.000000000000000D+00 -.000000000000000D+00 0.000000000000000D+00
 0.340334851784133D+03 0.000000000000000D+00 0.000000000000000D+00 0.340334851784133D+03
 0.143147388445736D+03 0.000000000000000D+00 0.000000000000000D+00 -.143147388445736D+03
 0.129510032802684D+03 -.156092459038483D+02 -.314414758750676D+00 0.300682753450355D+02
 0.113867320385192D+03 0.320240699104671D+02 0.341466183381070D+02 -.656278759352661D+02
 0.409451622941119D+02 -.193815978967391D+02 -.603115114414758D+01 0.355596005902307D+02
 0.199159724747882D+03 0.296677389012018D+01 -.278010524352087D+02 0.197187463338397D+03
0.803409677882D-06 0.000000000000D+00 0.000000000000D+00 0.193532853885D-05 0.000000000000D+00  6 21 2 25 24 1 21 2 0.32364813D-02 0.14636685D+00 0.14156697D+05 0.14156697D+05 0.14156697D+05 0.12506975D+01  1  2  2  1  6  1       21 0.248065042789D-01 0.100000000000D+01
0.686972142028D-07 0.423970934962D-07 -.162185266706D-08 0.193532853885D-05 0.000000000000D+00  6 21 2 25 24 1 21 4 0.32364813D-02 0.14636685D+00 0.14156697D+05 0.14156697D+05 0.14156697D+05 0.12506975D+01  1  2  3  1  6  1       21 0.331796814099D-02 0.100000000000D+01
0.921291705505D-07 0.000000000000D+00 0.000000000000D+00 0.193532853885D-05 0.000000000000D+00  6 21 2 25 24 1 21 4 0.32364813D-02 0.14636685D+00 0.14156697D+05 0.14156697D+05 0.14156697D+05 0.12506975D+01  1  2 15  1  6  1       21 0.444969503188D-02 0.100000000000D+01
-.773353342014D-04 0.000000000000D+00 -.146498440736D-05 0.193532853885D-05 0.000000000000D+00  6 21 2 25 24 1 21 4 0.78509346D-02 0.14636685D+00 0.14156697D+05 0.14156697D+05 0.14156697D+05 0.12506975D+01  1  2  5  1  6  1       21 -.844349746128D+00 0.100000000000D+01
-.258225097792D-04 0.000000000000D+00 -.448429146039D-06 0.193532853885D-05 0.000000000000D+00  6 -1 2 25 24 1 -1 4 0.78509346D-02 0.14636685D+00 0.14156697D+05 0.14156697D+05 0.14156697D+05 0.12506975D+01  1  2  5  4  6  1       21 -.176443442192D-01 0.100000000000D+01
-.258225097792D-04 0.000000000000D+00 -.448429146039D-06 0.193532853885D-05 0.000000000000D+00  6 1 2 25 24 1 1 4 0.78509346D-02 0.14636685D+00 0.14156697D+05 0.14156697D+05 0.14156697D+05 0.12506975D+01  1  2  5  5  6  1       21 -.211704829315D-01 0.100000000000D+01
-.258225097792D-04 0.000000000000D+00 -.448429146039D-06 0.193532853885D-05 0.000000000000D+00  6 -2 2 25 24 1 -2 4 0.78509346D-02 0.14636685D+00 0.14156697D+05 0.14156697D+05 0.14156697D+05 0.12506975D+01  1  2  5  6  6  1       21 -.170285434973D-01 0.100000000000D+01
-.258225097792D-04 0.000000000000D+00 -.448429146039D-06 0.193532853885D-05 0.000000000000D+00  6 2 2 25 24 1 2 4 0.78509346D-02 0.14636685D+00 0.14156697D+05 0.14156697D+05 0.14156697D+05 0.12506975D+01  1  2  5  7  6  1       21 -.235357976117D-01 0.100000000000D+01
-.258225097792D-04 0.000000000000D+00 -.448429146039D-06 0.193532853885D-05 0.000000000000D+00  6 -3 2 25 24 1 -3 4 0.78509346D-02 0.14636685D+00 0.14156697D+05 0.14156697D+05 0.14156697D+05 0.12506975D+01  1  2  5  8  6  1       21 -.118559947650D-01 0.100000000000D+01
-.258225097792D-04 0.000000000000D+00 -.448429146039D-06 0.193532853885D-05 0.000000000000D+00  6 -4 2 25 24 1 -4 4 0.78509346D-02 0.14636685D+00 0.14156697D+05 0.14156697D+05 0.14156697D+05 0.12506975D+01  1  2  5  8  6  1       21 -.103958480966D-01 0.100000000000D+01
-.258225097792D-04 0.000000000000D+00 -.448429146039D-06 0.193532853885D-05 0.000000000000D+00  6 3 2 25 24 1 3 4 0.78509346D-02 0.14636685D+00 0.14156697D+05 0.14156697D+05 0.14156697D+05 0.12506975D+01  1  2  5  9  6  1       21 -.118545340366D-01 0.100000000000D+01
-.258225097792D-04 0.000000000000D+00 -.448429146039D-06 0.193532853885D-05 0.000000000000D+00  6 4 2 25 24 1 4 4 0.78509346D-02 0.14636685D+00 0.14156697D+05 0.14156697D+05 0.14156697D+05 0.12506975D+01  1  2  5  9  6  1       21 -.103958480966D-01 0.100000000000D+01
  </mgrwgt>
  </event>
  <event>
  5     66 0.46027262E-03 0.22197393E+02 0.75467711E-02 0.12086952E+00
       21 -1    0    0  501  502 0.00000000E+00 0.00000000E+00 0.37765429E+02 0.37772876E+02 0.75000000E+00 0.0000E+00 0.9000E+01
        2 -1    0    0  502    0 0.00000000E+00 0.00000000E+00 -.57092467E+03 0.57092476E+03 0.32000000E+00 0.0000E+00 0.9000E+01
       25  1    1    2    0    0 -.74804774E+02 -.45287555E+02 -.32540585E+03 0.35938932E+03 0.12500000E+03 0.0000E+00 0.9000E+01
       24  1    1    2    0    0 0.65274492E+02 0.25241762E+02 -.12829523E+03 0.16680764E+03 0.80419002E+02 0.0000E+00 0.9000E+01
        1  1    1    2  501    0 0.95302815E+01 0.20045794E+02 -.79458165E+02 0.82500682E+02 0.32000000E+00 0.0000E+00 0.9000E+01
#aMCatNLO 1  0  0  2  1 0.57258325D+01 0.00000000D+00  -5  6  0 0.00000000D+00 0.00000000D+00 0.00000000D+00 0.00000000D+00 0.00000000D+00
  <mgrwgt>
 0.4039146088D+00   11    2    0
 0.146845187235644D+03 0.000000000000000D+00 0.000000000000000D+00 0.146845187235644D+03
 0.146845187235644D+03 0.000000000000000D+00 0.000000000000000D+00 -.146845187235644D+03
 0.154129622711700D+03 -.748051316224216D+02 -.452883085107532D+02 -.220023178878530D+02
 0.112818084975898D+03 0.652742299400629D+02 0.252412102506205D+02 0.369169412881695D+02
 0.267426667836899D+02 0.953090168235867D+01 0.200470982601328D+02 -.149146234003165D+02
 0.000000000000000D+00 0.000000000000000D+00 0.000000000000000D+00 -.000000000000000D+00
 0.148156931181320D+03 0.000000000000000D+00 0.000000000000000D+00 0.148156931181320D+03
 0.153257297732360D+03 0.000000000000000D+00 0.000000000000000D+00 -.153257297732360D+03
 0.155696282797976D+03 -.764586544657571D+02 -.478153180681164D+02 -.220023178878530D+02
 0.111730943211332D+03 0.640758248326992D+02 0.234097380262682D+02 0.369169412881695D+02
 0.263189590131500D+02 0.924771487067079D+01 0.196143157421659D+02 -.149146234003165D+02
 0.766804389122258D+01 0.313511476238710D+01 0.479126429968226D+01 -.510036655104009D+01
0.111468576147D-05 0.000000000000D+00 0.000000000000D+00 0.362763241313D-06 0.000000000000D+00  6 21 2 25 24 1 21 2 0.58106458D-02 0.87835145D-01 0.19790233D+05 0.19790233D+05 0.19790233D+05 0.12343305D+01  1  2  2  2  6  2        2 0.235857446930D-01 0.100000000000D+01
0.362196902798D-08 0.588235837194D-07 -.225022939720D-08 0.362763241313D-06 0.000000000000D+00  6 21 2 25 24 1 21 4 0.58106458D-02 0.87835145D-01 0.19790233D+05 0.19790233D+05 0.19790233D+05 0.12343305D+01  1  2  3  2  6  2        2 0.116762874793D-03 0.100000000000D+01
0.113883699317D-06 0.000000000000D+00 0.000000000000D+00 0.362763241313D-06 0.000000000000D+00  6 21 2 25 24 1 21 4 0.58106458D-02 0.87835145D-01 0.19790233D+05 0.19790233D+05 0.19790233D+05 0.12343305D+01  1  2 15  2  6  2        2 0.367131469695D-02 0.100000000000D+01
0.895678935957D-05 0.000000000000D+00 0.000000000000D+00 0.361648787754D-06 0.000000000000D+00  6 21 2 25 24 1 21 4 0.58106458D-02 0.92052110D-01 0.20592333D+05 0.20592333D+05 0.20592333D+05 0.12324330D+01  1  2 12  2  6  2        2 0.272272830824D+00 0.100000000000D+01
-.224995328961D-06 0.000000000000D+00 0.000000000000D+00 0.362763241313D-06 0.000000000000D+00  6 21 2 25 24 1 21 4 0.58106458D-02 0.87835145D-01 0.19790233D+05 0.19790233D+05 0.19790233D+05 0.12343305D+01  1  2  4  2  6  2        2 -.725326506707D-02 0.100000000000D+01
-.661629271045D-04 0.000000000000D+00 -.809661568980D-05 0.362763241313D-06 0.000000000000D+00  6 21 2 25 24 1 21 4 0.58106458D-02 0.92209089D-01 0.19790233D+05 0.19790233D+05 0.19790233D+05 0.12343305D+01  1  2  5  2  6  2        2 -.201867747154D+01 0.100000000000D+01
0.664874236480D-04 0.000000000000D+00 0.808706432617D-05 0.362763241313D-06 0.000000000000D+00  6 21 2 25 24 1 21 4 0.58106458D-02 0.87835145D-01 0.19790233D+05 0.19790233D+05 0.19790233D+05 0.12343305D+01  1  2  6  2  6  2        2 0.214338186295D+01 0.100000000000D+01
0.846922598420D-07 0.000000000000D+00 0.000000000000D+00 0.362763241313D-06 0.145837570781D-05  6 21 2 25 24 1 21 4 0.58625513D-02 0.91670535D-01 0.20592333D+05 0.20592333D+05 0.20592333D+05 0.12324330D+01  1  2 11  2  6  2        2 0.254797429012D-02 0.100000000000D+01
0.145126351391D-06 0.000000000000D+00 0.000000000000D+00 0.361648787754D-06 0.000000000000D+00  6 21 21 25 24 1 -2 4 0.58106458D-02 0.92052110D-01 0.20592333D+05 0.20592333D+05 0.20592333D+05 0.12324330D+01  1  2 12 10  6  2        2 0.705889750723D-02 0.100000000000D+01
-.554528934314D-06 0.000000000000D+00 -.686850004402D-07 0.362763241313D-06 0.000000000000D+00  6 21 21 25 24 1 -2 4 0.58106458D-02 0.92209089D-01 0.19790233D+05 0.19790233D+05 0.19790233D+05 0.12343305D+01  1  2  5 10  6  2        2 -.270540577569D-01 0.100000000000D+01
0.881510885652D-07 0.000000000000D+00 0.000000000000D+00 0.362763241313D-06 0.109409891322D-08  6 21 21 25 24 1 -2 4 0.58625513D-02 0.91670535D-01 0.20592333D+05 0.20592333D+05 0.20592333D+05 0.12324330D+01  1  2 11 10  6  2        2 0.426401530968D-02 0.100000000000D+01
  </mgrwgt>
  </event>
  <event>
  6     66 -.46027262E-03 0.10138173E+03 0.75467711E-02 0.11477546E+00
       21 -1    0    0  501  502 0.00000000E+00 0.00000000E+00 0.75091985E+02 0.75095730E+02 0.75000000E+00 0.0000E+00 0.9000E+01
        2 -1    0    0  503    0 0.00000000E+00 0.00000000E+00 -.13510235E+04 0.13510235E+04 0.32000000E+00 0.0000E+00 0.9000E+01
       25  1    1    2    0    0 0.20311982E+02 -.10186511E+03 -.78794752E+03 0.80453426E+03 0.12500000E+03 0.0000E+00 0.9000E+01
       24  1    1    2    0    0 -.48784013E+02 0.19478571E+02 -.40886895E+03 0.42000039E+03 0.80419002E+02 0.0000E+00 0.9000E+01
        1  1    1    2  501    0 0.44986036E+02 0.10725603E+03 0.75862290E+00 0.11631112E+03 0.32000000E+00 0.0000E+00 0.9000E+01
       21  1    1    2  503  502 -.16514005E+02 -.24869488E+02 -.79873676E+02 0.85273504E+02 0.75000000E+00 0.0000E+00 0.9000E+01
#aMCatNLO 2  0  0  2  1 0.29853037D+02 0.00000000D+00  -5  6  0 0.00000000D+00 0.00000000D+00 0.00000000D+00 0.00000000D+00 0.00000000D+00
  <mgrwgt>
 -.9917453530D-01    3    2    0
 0.302663925176267D+03 0.000000000000000D+00 0.000000000000000D+00 0.302663925176267D+03
 0.302663925176267D+03 0.000000000000000D+00 0.000000000000000D+00 -.302663925176267D+03
 0.228840422730478D+03 0.141259715489704D+02 -.111181030121328D+03 -.155506188122602D+03
 0.122984668358617D+03 -.521278770302596D+02 0.144428272843878D+02 -.757106457062680D+02
 0.253502759263439D+03 0.380019054812892D+02 0.967382028369399D+02 0.231216833828870D+03
 0.000000000000000D+00 -.000000000000000D+00 -.000000000000000D+00 -.000000000000000D+00
 0.314328769599019D+03 0.000000000000000D+00 0.000000000000000D+00 0.314328769599019D+03
 0.322753900393196D+03 0.000000000000000D+00 0.000000000000000D+00 -.322753900393196D+03
 0.224936118260006D+03 0.203119724395897D+02 -.101865138929226D+03 -.155506188122602D+03
 0.122305406366570D+03 -.487840183605319D+02 0.194785561954823D+02 -.757106457062680D+02
 0.258822011835158D+03 0.449860512094587D+02 0.107256070975639D+03 0.231216833828870D+03
 0.310191335304817D+02 -.165140052885165D+02 -.248694882418945D+02 -.842513079417627D+01
-.692365283459D-04 0.000000000000D+00 0.000000000000D+00 0.129402773002D-05 0.000000000000D+00  6 21 2 25 24 1 21 4 0.11124013D-01 0.21140387D+00 0.40953640D+05 0.40953640D+05 0.40953640D+05 0.12009625D+01  1  2 13  2  6  2        2 -.197607160623D+00 0.100000000000D+01
-.484484399592D-07 0.000000000000D+00 0.000000000000D+00 0.131193750751D-05 0.000000000000D+00  6 21 2 25 24 1 21 4 0.11124013D-01 0.19490955D+00 0.33992117D+05 0.33992117D+05 0.33992117D+05 0.12092448D+01  1  2  8  2  6  2        2 -.163494358411D-03 0.100000000000D+01
0.359062385468D-04 0.000000000000D+00 0.000000000000D+00 0.131193750751D-05 0.114451947160D-07  6 21 2 25 24 1 21 4 0.11552739D-01 0.20784709D+00 0.40953640D+05 0.40953640D+05 0.40953640D+05 0.12009625D+01  1  2  1  2  6  2        2 0.985961196820D-01 0.100000000000D+01
  </mgrwgt>
  </event>
  <event>
  5     66 0.46027262E-03 0.26245136E+02 0.75467711E-02 0.12213975E+00
       21 -1    0    0  501  502 0.00000000E+00 0.00000000E+00 0.23310742E+02 0.23322804E+02 0.75000000E+00 0.0000E+00 0.9000E+01
        2 -1    0    0  502    0 0.00000000E+00 0.00000000E+00 -.93660375E+03 0.93660381E+03 0.32000000E+00 0.0000E+00 0.9000E+01
       25  1    1    2    0    0 -.53876491E+02 0.20755087E+02 -.44405868E+03 0.46491565E+03 0.12500000E+03 0.0000E+00 0.9000E+01
       24  1    1    2    0    0 0.27709233E+02 -.22771291E+02 -.45812397E+03 0.46650951E+03 0.80419002E+02 0.0000E+00 0.9000E+01
        1  1    1    2  501    0 0.26167258E+02 0.20162036E+01 -.11110365E+02 0.28501457E+02 0.32000000E+00 0.0000E+00 0.9000E+01
#aMCatNLO 1  0  0  1  2 0.17976040D+02 0.00000000D+00  -5  6  0 0.00000000D+00 0.00000000D+00 0.00000000D+00 0.00000000D+00 0.00000000D+00
  <mgrwgt>
 0.5973778647D+00   23    2    0
 0.147779374721974D+03 0.000000000000000D+00 0.000000000000000D+00 0.147779374721974D+03
 0.147779374721974D+03 0.000000000000000D+00 0.000000000000000D+00 -.147779374721974D+03
 0.137804210021690D+03 -.538766751637704D+02 0.207550732927881D+02 -.561525650442463D+01
 0.995182759716429D+02 0.277091002871253D+02 -.227713013689536D+02 -.463718114077924D+02
 0.582362634506148D+02 0.261675748766450D+02 0.201622807616551D+01 0.519870679122171D+02
 0.000000000000000D+00 0.000000000000000D+00 0.000000000000000D+00 0.000000000000000D+00
 0.192627409562331D+03 0.000000000000000D+00 0.000000000000000D+00 0.192627409562331D+03
 0.149864779698164D+03 0.000000000000000D+00 0.000000000000000D+00 -.149864779698164D+03
 0.141151703037504D+03 -.622851970341806D+02 0.196933083861105D+02 -.561525650442463D+01
 0.982036717835570D+02 0.217492003741705D+02 -.235238727093642D+02 -.463718114077924D+02
 0.567495261437747D+02 0.227015772715480D+02 0.157856796414617D+01 0.519870679122171D+02
 0.463872882956606D+02 0.178344193884621D+02 0.225199635910760D+01 0.427626298641670D+02
0.137156668411D-05 0.000000000000D+00 0.000000000000D+00 0.210550982673D-05 0.000000000000D+00  6 21 2 25 24 1 21 2 0.35872000D-02 0.14409382D+00 0.15874626D+05 0.15874626D+05 0.15874626D+05 0.12450264D+01  1  2  2  1  6  1       21 0.362292260351D-01 0.100000000000D+01
0.126131172824D-06 0.723795624368D-07 -.276879796934D-08 0.210550982673D-05 0.000000000000D+00  6 21 2 25 24 1 21 4 0.35872000D-02 0.14409382D+00 0.15874626D+05 0.15874626D+05 0.15874626D+05 0.12450264D+01  1  2  3  1  6  1       21 0.516442186134D-02 0.100000000000D+01
0.148063656986D-06 0.000000000000D+00 0.000000000000D+00 0.210550982673D-05 0.000000000000D+00  6 21 2 25 24 1 21 4 0.35872000D-02 0.14409382D+00 0.15874626D+05 0.15874626D+05 0.15874626D+05 0.12450264D+01  1  2 15  1  6  1       21 0.606244411979D-02 0.100000000000D+01
0.105490933413D-04 0.000000000000D+00 0.000000000000D+00 0.208481258071D-05 0.000000000000D+00  6 21 2 25 24 1 21 4 0.46957155D-02 0.14409382D+00 0.18001331D+05 0.18001331D+05 0.18001331D+05 0.12388920D+01  1  2 12  1  6  1       21 0.270920975471D+00 0.100000000000D+01
-.136907258873D-06 0.000000000000D+00 0.000000000000D+00 0.210550982673D-05 0.000000000000D+00  6 21 2 25 24 1 21 4 0.35872000D-02 0.14409382D+00 0.15874626D+05 0.15874626D+05 0.15874626D+05 0.12450264D+01  1  2  4  1  6  1       21 -.560564708050D-02 0.100000000000D+01
-.226015922482D-04 0.000000000000D+00 -.208078204827D-05 0.210550982673D-05 0.000000000000D+00  6 21 2 25 24 1 21 4 0.47380408D-02 0.14409382D+00 0.15874626D+05 0.15874626D+05 0.15874626D+05 0.12450264D+01  1  2  5  1  6  1       21 -.582648156805D+00 0.100000000000D+01
0.212852189471D-04 0.000000000000D+00 0.179081037776D-05 0.210550982673D-05 0.000000000000D+00  6 21 2 25 24 1 21 4 0.35872000D-02 0.14409382D+00 0.15874626D+05 0.15874626D+05 0.15874626D+05 0.12450264D+01  1  2  6  1  6  1       21 0.871520081774D+00 0.100000000000D+01
0.869605449278D-06 0.000000000000D+00 0.000000000000D+00 0.208481258071D-05 0.000000000000D+00  6 -1 2 25 24 1 -1 4 0.46957155D-02 0.14409382D+00 0.18001331D+05 0.18001331D+05 0.18001331D+05 0.12388920D+01  1  2 12  4  6  1       21 0.126017953401D-02 0.100000000000D+01
-.128680624400D-05 0.000000000000D+00 -.178580838694D-06 0.210550982673D-05 0.000000000000D+00  6 -1 2 25 24 1 -1 4 0.47380408D-02 0.14409382D+00 0.15874626D+05 0.15874626D+05 0.15874626D+05 0.12450264D+01  1  2  5  4  6  1       21 -.187175939806D-02 0.100000000000D+01
0.869605449278D-06 0.000000000000D+00 0.000000000000D+00 0.208481258071D-05 0.000000000000D+00  6 1 2 25 24 1 1 4 0.46957155D-02 0.14409382D+00 0.18001331D+05 0.18001331D+05 0.18001331D+05 0.12388920D+01  1  2 12  5  6  1       21 0.141083847351D-02 0.100000000000D+01
-.128680624400D-05 0.000000000000D+00 -.178580838694D-06 0.210550982673D-05 0.000000000000D+00  6 1 2 25 24 1 1 4 0.47380408D-02 0.14409382D+00 0.15874626D+05 0.15874626D+05 0.15874626D+05 0.12450264D+01  1  2  5  5  6  1       21 -.209796896075D-02 0.100000000000D+01
0.869605449278D-06 0.000000000000D+00 0.000000000000D+00 0.208481258071D-05 0.000000000000D+00  6 -2 2 25 24 1 -2 4 0.46957155D-02 0.14409382D+00 0.18001331D+05 0.18001331D+05 0.18001331D+05 0.12388920D+01  1  2 12  6  6  1       21 0.123354193862D-02 0.100000000000D+01
-.128680624400D-05 0.000000000000D+00 -.178580838694D-06 0.210550982673D-05 0.000000000000D+00  6 -2 2 25 24 1 -2 4 0.47380408D-02 0.14409382D+00 0.15874626D+05 0.15874626D+05 0.15874626D+05 0.12450264D+01  1  2  5  6  6  1       21 -.183176040946D-02 0.100000000000D+01
0.869605449278D-06 0.000000000000D+00 0.000000000000D+00 0.208481258071D-05 0.000000000000D+00  6 2 2 25 24 1 2 4 0.46957155D-02 0.14409382D+00 0.18001331D+05 0.18001331D+05 0.18001331D+05 0.12388920D+01  1  2 12  7  6  1       21 0.151211646244D-02 0.100000000000D+01
-.128680624400D-05 0.000000000000D+00 -.178580838694D-06 0.210550982673D-05 0.000000000000D+00  6 2 2 25 24 1 2 4 0.47380408D-02 0.14409382D+00 0.15874626D+05 0.15874626D+05 0.15874626D+05 0.12450264D+01  1  2  5  7  6  1       21 -.224993320387D-02 0.100000000000D+01
0.869605449278D-06 0.000000000000D+00 0.000000000000D+00 0.208481258071D-05 0.000000000000D+00  6 -3 2 25 24 1 -3 4 0.46957155D-02 0.14409382D+00 0.18001331D+05 0.18001331D+05 0.18001331D+05 0.12388920D+01  1  2 12  8  6  1       21 0.900634123238D-03 0.100000000000D+01
0.869605449278D-06 0.000000000000D+00 0.000000000000D+00 0.208481258071D-05 0.000000000000D+00  6 -4 2 25 24 1 -4 4 0.46957155D-02 0.14409382D+00 0.18001331D+05 0.18001331D+05 0.18001331D+05 0.12388920D+01  1  2 12  8  6  1       21 0.803134393820D-03 0.100000000000D+01
-.128680624400D-05 0.000000000000D+00 -.178580838694D-06 0.210550982673D-05 0.000000000000D+00  6 -3 2 25 24 1 -3 4 0.47380408D-02 0.14409382D+00 0.15874626D+05 0.15874626D+05 0.15874626D+05 0.12450264D+01  1  2  5  8  6  1       21 -.133262631112D-02 0.100000000000D+01
-.128680624400D-05 0.000000000000D+00 -.178580838694D-06 0.210550982673D-05 0.000000000000D+00  6 -4 2 25 24 1 -4 4 0.47380408D-02 0.14409382D+00 0.15874626D+05 0.15874626D+05 0.15874626D+05 0.12450264D+01  1  2  5  8  6  1       21 -.118653158027D-02 0.100000000000D+01
0.869605449278D-06 0.000000000000D+00 0.000000000000D+00 0.208481258071D-05 0.000000000000D+00  6 3 2 25 24 1 3 4 0.46957155D-02 0.14409382D+00 0.18001331D+05 0.18001331D+05 0.18001331D+05 0.12388920D+01  1  2 12  9  6  1       21 0.900547270615D-03 0.100000000000D+01
0.869605449278D-06 0.000000000000D+00 0.000000000000D+00 0.208481258071D-05 0.000000000000D+00  6 4 2 25 24 1 4 4 0.46957155D-02 0.14409382D+00 0.18001331D+05 0.18001331D+05 0.18001331D+05 0.12388920D+01  1  2 12  9  6  1       21 0.803134393820D-03 0.100000000000D+01
-.128680624400D-05 0.000000000000D+00 -.178580838694D-06 0.210550982673D-05 0.000000000000D+00  6 3 2 25 24 1 3 4 0.47380408D-02 0.14409382D+00 0.15874626D+05 0.15874626D+05 0.15874626D+05 0.12450264D+01  1  2  5  9  6  1       21 -.133249580094D-02 0.100000000000D+01
-.128680624400D-05 0.000000000000D+00 -.178580838694D-06 0.210550982673D-05 0.000000000000D+00  6 4 2 25 24 1 4 4 0.47380408D-02 0.14409382D+00 0.15874626D+05 0.15874626D+05 0.15874626D+05 0.12450264D+01  1  2  5  9  6  1       21 -.118653158027D-02 0.100000000000D+01
  </mgrwgt>
  </event>
  <event>
  5     66 0.46027262E-03 0.58107112E+02 0.75467711E-02 0.11981226E+00
       21 -1    0    0  501  502 0.00000000E+00 0.00000000E+00 0.38848243E+03 0.38848315E+03 0.75000000E+00 0.0000E+00 0.9000E+01
        2 -1    0    0  502    0 0.00000000E+00 0.00000000E+00 -.63664359E+02 0.63665163E+02 0.32000000E+00 0.0000E+00 0.9000E+01
       25  1    1    2    0    0 0.63303009E+02 0.71248144E+01 0.21015204E+03 0.25267946E+03 0.12500000E+03 0.0000E+00 0.9000E+01
       24  1    1    2    0    0 0.61061368E+01 -.27991407E+02 0.36424509E+02 0.92815756E+02 0.80419002E+02 0.0000E+00 0.9000E+01
        1  1    1    2  501    0 -.69409146E+02 0.20866592E+02 0.78241527E+02 0.10665310E+03 0.32000000E+00 0.0000E+00 0.9000E+01
#aMCatNLO 1  0  0  1  2 0.56050444D+01 0.00000000D+00  -5  6  0 0.00000000D+00 0.00000000D+00 0.00000000D+00 0.00000000D+00 0.00000000D+00
  <mgrwgt>
 0.1084712199D+00   41    2    0
 0.157266749457752D+03 0.000000000000000D+00 0.000000000000000D+00 0.157266749457752D+03
 0.157266749457752D+03 0.000000000000000D+00 0.000000000000000D+00 -.157266749457752D+03
 0.146208453718012D+03 0.633033229403622D+02 0.712471996402656D+01 0.411562827373221D+02
 0.958090637927705D+02 0.610634266059760D+01 -.279914687538061D+02 -.434896655171398D+02
 0.725159814047219D+02 -.694096656009598D+02 0.208667487897795D+02 0.233338277981773D+01
 0.000000000000000D+00 -.000000000000000D+00 0.000000000000000D+00 0.000000000000000D+00
 0.162630117473807D+03 0.000000000000000D+00 0.000000000000000D+00 0.162630117473807D+03
 0.158762970235445D+03 0.000000000000000D+00 0.000000000000000D+00 -.158762970235445D+03
 0.146108020608138D+03 0.633109810304943D+02 0.452037147037411D+01 0.411562827373221D+02
 0.963234060009529D+02 0.611137613595809D+01 -.297032433277246D+02 -.434896655171398D+02
 0.721520098002230D+02 -.694058755972714D+02 0.195778516592197D+02 0.233338277981773D+01
 0.680965129993787D+01 -.164815691810082D-01 0.560502019813074D+01 0.386714723836179D+01
0.349233099977D-05 0.000000000000D+00 0.000000000000D+00 0.260947797675D-06 0.000000000000D+00  6 21 2 25 24 1 21 2 0.59766645D-01 0.97946344D-02 0.22222571D+05 0.22222571D+05 0.22222571D+05 0.12288194D+01  1  2  2  1  6  1       21 0.109970469549D-01 0.100000000000D+01
-.248557057932D-06 0.184295370087D-06 -.705001010337D-08 0.260947797675D-06 0.000000000000D+00  6 21 2 25 24 1 21 4 0.59766645D-01 0.97946344D-02 0.22222571D+05 0.22222571D+05 0.22222571D+05 0.12288194D+01  1  2  3  1  6  1       21 -.118185143935D-02 0.100000000000D+01
0.376135553666D-06 0.000000000000D+00 0.000000000000D+00 0.260947797675D-06 0.000000000000D+00  6 21 2 25 24 1 21 4 0.59766645D-01 0.97946344D-02 0.22222571D+05 0.22222571D+05 0.22222571D+05 0.12288194D+01  1  2 15  1  6  1       21 0.178846800485D-02 0.100000000000D+01
0.740976646626D-05 0.000000000000D+00 0.000000000000D+00 0.260188834694D-06 0.000000000000D+00  6 21 2 25 24 1 21 4 0.62082851D-01 0.97946344D-02 0.23082389D+05 0.23082389D+05 0.23082389D+05 0.12270311D+01  1  2 12  1  6  1       21 0.322878588089D-01 0.100000000000D+01
0.513963122841D-05 0.000000000000D+00 0.000000000000D+00 0.260188834694D-06 0.000000000000D+00  6 21 2 25 24 1 21 4 0.63064641D-01 0.97946344D-02 0.23082389D+05 0.23082389D+05 0.23082389D+05 0.12270311D+01  1  2 12  1  6  1       21 0.216533948067D-01 0.100000000000D+01
-.166668592204D-04 0.000000000000D+00 0.000000000000D+00 0.260947797675D-06 0.000000000000D+00  6 21 2 25 24 1 21 4 0.59766645D-01 0.97946344D-02 0.22222571D+05 0.22222571D+05 0.22222571D+05 0.12288194D+01  1  2  4  1  6  1       21 -.792484096929D-01 0.100000000000D+01
-.205873088119D-03 0.000000000000D+00 -.261730594029D-04 0.260947797675D-06 0.000000000000D+00  6 21 2 25 24 1 21 4 0.62261093D-01 0.97946344D-02 0.22222571D+05 0.22222571D+05 0.22222571D+05 0.12288194D+01  1  2  5  1  6  1       21 -.896941857360D+00 0.100000000000D+01
0.206219979898D-03 0.000000000000D+00 0.260857483388D-04 0.260947797675D-06 0.000000000000D+00  6 21 2 25 24 1 21 4 0.59766645D-01 0.97946344D-02 0.22222571D+05 0.22222571D+05 0.22222571D+05 0.12288194D+01  1  2  6  1  6  1       21 0.980544998774D+00 0.100000000000D+01
0.100635755422D-04 0.000000000000D+00 0.000000000000D+00 0.260947797675D-06 0.146533538130D-06  6 21 2 25 24 1 21 4 0.61804905D-01 0.98878196D-02 0.23082389D+05 0.23082389D+05 0.23082389D+05 0.12270311D+01  1  2 11  1  6  1       21 0.437619758753D-01 0.100000000000D+01
0.191453939637D-06 0.000000000000D+00 0.000000000000D+00 0.260188834694D-06 0.000000000000D+00  6 -1 2 25 24 1 -1 4 0.62082851D-01 0.97946344D-02 0.23082389D+05 0.23082389D+05 0.23082389D+05 0.12270311D+01  1  2 12  4  6  1       21 0.865004923677D-04 0.100000000000D+01
0.191784289620D-06 0.000000000000D+00 0.000000000000D+00 0.260188834694D-06 0.000000000000D+00  6 -1 2 25 24 1 -1 4 0.63064641D-01 0.97946344D-02 0.23082389D+05 0.23082389D+05 0.23082389D+05 0.12270311D+01  1  2 12  4  6  1       21 0.840731677418D-04 0.100000000000D+01
-.176779367196D-05 0.000000000000D+00 -.252441434450D-06 0.260947797675D-06 0.000000000000D+00  6 -1 2 25 24 1 -1 4 0.62261093D-01 0.97946344D-02 0.22222571D+05 0.22222571D+05 0.22222571D+05 0.12288194D+01  1  2  5  4  6  1       21 -.798383045306D-03 0.100000000000D+01
0.648587532759D-06 0.000000000000D+00 0.000000000000D+00 0.260947797675D-06 0.887229957082D-08  6 -1 2 25 24 1 -1 4 0.61804905D-01 0.98878196D-02 0.23082389D+05 0.23082389D+05 0.23082389D+05 0.12270311D+01  1  2 11  4  6  1       21 0.292141380797D-03 0.100000000000D+01
0.191453939637D-06 0.000000000000D+00 0.000000000000D+00 0.260188834694D-06 0.000000000000D+00  6 1 2 25 24 1 1 4 0.62082851D-01 0.97946344D-02 0.23082389D+05 0.23082389D+05 0.23082389D+05 0.12270311D+01  1  2 12  5  6  1       21 0.225338871293D-03 0.100000000000D+01
0.191784289620D-06 0.000000000000D+00 0.000000000000D+00 0.260188834694D-06 0.000000000000D+00  6 1 2 25 24 1 1 4 0.63064641D-01 0.97946344D-02 0.23082389D+05 0.23082389D+05 0.23082389D+05 0.12270311D+01  1  2 12  5  6  1       21 0.221281271496D-03 0.100000000000D+01
-.176779367196D-05 0.000000000000D+00 -.252441434450D-06 0.260947797675D-06 0.000000000000D+00  6 1 2 25 24 1 1 4 0.62261093D-01 0.97946344D-02 0.22222571D+05 0.22222571D+05 0.22222571D+05 0.12288194D+01  1  2  5  5  6  1       21 -.208358121374D-02 0.100000000000D+01
0.205361146784D-06 0.000000000000D+00 0.000000000000D+00 0.260947797675D-06 0.575359945331D-09  6 1 2 25 24 1 1 4 0.61804905D-01 0.98878196D-02 0.23082389D+05 0.23082389D+05 0.23082389D+05 0.12270311D+01  1  2 11  5  6  1       21 0.240263709435D-03 0.100000000000D+01
0.191453939637D-06 0.000000000000D+00 0.000000000000D+00 0.260188834694D-06 0.000000000000D+00  6 -2 2 25 24 1 -2 4 0.62082851D-01 0.97946344D-02 0.23082389D+05 0.23082389D+05 0.23082389D+05 0.12270311D+01  1  2 12  6  6  1       21 0.685080566616D-04 0.100000000000D+01
0.191784289620D-06 0.000000000000D+00 0.000000000000D+00 0.260188834694D-06 0.000000000000D+00  6 -2 2 25 24 1 -2 4 0.63064641D-01 0.97946344D-02 0.23082389D+05 0.23082389D+05 0.23082389D+05 0.12270311D+01  1  2 12  6  6  1       21 0.664263564634D-04 0.100000000000D+01
-.176779367196D-05 0.000000000000D+00 -.252441434450D-06 0.260947797675D-06 0.000000000000D+00  6 -2 2 25 24 1 -2 4 0.62261093D-01 0.97946344D-02 0.22222571D+05 0.22222571D+05 0.22222571D+05 0.12288194D+01  1  2  5  6  6  1       21 -.631941552737D-03 0.100000000000D+01
0.204050612341D-06 0.000000000000D+00 0.000000000000D+00 0.260947797675D-06 0.113356876157D-08  6 -2 2 25 24 1 -2 4 0.61804905D-01 0.98878196D-02 0.23082389D+05 0.23082389D+05 0.23082389D+05 0.12270311D+01  1  2 11  6  6  1       21 0.728421960713D-04 0.100000000000D+01
0.191453939637D-06 0.000000000000D+00 0.000000000000D+00 0.260188834694D-06 0.000000000000D+00  6 2 2 25 24 1 2 4 0.62082851D-01 0.97946344D-02 0.23082389D+05 0.23082389D+05 0.23082389D+05 0.12270311D+01  1  2 12  7  6  1       21 0.336579985809D-03 0.100000000000D+01
0.191784289620D-06 0.000000000000D+00 0.000000000000D+00 0.260188834694D-06 0.000000000000D+00  6 2 2 25 24 1 2 4 0.63064641D-01 0.97946344D-02 0.23082389D+05 0.23082389D+05 0.23082389D+05 0.12270311D+01  1  2 12  7  6  1       21 0.331523694100D-03 0.100000000000D+01
-.176779367196D-05 0.000000000000D+00 -.252441434450D-06 0.260947797675D-06 0.000000000000D+00  6 2 2 25 24 1 2 4 0.62261093D-01 0.97946344D-02 0.22222571D+05 0.22222571D+05 0.22222571D+05 0.12288194D+01  1  2  5  7  6  1       21 -.311343223366D-02 0.100000000000D+01
0.214149257683D-06 0.000000000000D+00 0.000000000000D+00 0.260947797675D-06 0.136812076578D-08  6 2 2 25 24 1 2 4 0.61804905D-01 0.98878196D-02 0.23082389D+05 0.23082389D+05 0.23082389D+05 0.12270311D+01  1  2 11  7  6  1       21 0.373906352525D-03 0.100000000000D+01
0.191453939637D-06 0.000000000000D+00 0.000000000000D+00 0.260188834694D-06 0.000000000000D+00  6 -3 2 25 24 1 -3 4 0.62082851D-01 0.97946344D-02 0.23082389D+05 0.23082389D+05 0.23082389D+05 0.12270311D+01  1  2 12  8  6  1       21 0.428521224916D-04 0.100000000000D+01
0.191453939637D-06 0.000000000000D+00 0.000000000000D+00 0.260188834694D-06 0.000000000000D+00  6 -4 2 25 24 1 -4 4 0.62082851D-01 0.97946344D-02 0.23082389D+05 0.23082389D+05 0.23082389D+05 0.12270311D+01  1  2 12  8  6  1       21 0.349464164905D-04 0.100000000000D+01
0.191784289620D-06 0.000000000000D+00 0.000000000000D+00 0.260188834694D-06 0.000000000000D+00  6 -3 2 25 24 1 -3 4 0.63064641D-01 0.97946344D-02 0.23082389D+05 0.23082389D+05 0.23082389D+05 0.12270311D+01  1  2 12  8  6  1       21 0.415480346777D-04 0.100000000000D+01
0.191784289620D-06 0.000000000000D+00 0.000000000000D+00 0.260188834694D-06 0.000000000000D+00  6 -4 2 25 24 1 -4 4 0.63064641D-01 0.97946344D-02 0.23082389D+05 0.23082389D+05 0.23082389D+05 0.12270311D+01  1  2 12  8  6  1       21 0.338612615921D-04 0.100000000000D+01
-.176779367196D-05 0.000000000000D+00 -.252441434450D-06 0.260947797675D-06 0.000000000000D+00  6 -3 2 25 24 1 -3 4 0.62261093D-01 0.97946344D-02 0.22222571D+05 0.22222571D+05 0.22222571D+05 0.12288194D+01  1  2  5  8  6  1       21 -.394966211845D-03 0.100000000000D+01
-.176779367196D-05 0.000000000000D+00 -.252441434450D-06 0.260947797675D-06 0.000000000000D+00  6 -4 2 25 24 1 -4 4 0.62261093D-01 0.97946344D-02 0.22222571D+05 0.22222571D+05 0.22222571D+05 0.12288194D+01  1  2  5  8  6  1       21 -.321924591958D-03 0.100000000000D+01
0.203620624939D-06 0.000000000000D+00 0.000000000000D+00 0.260947797675D-06 0.113118003908D-08  6 -3 2 25 24 1 -3 4 0.61804905D-01 0.98878196D-02 0.23082389D+05 0.23082389D+05 0.23082389D+05 0.12270311D+01  1  2 11  8  6  1       21 0.454679114424D-04 0.100000000000D+01
0.203620624939D-06 0.000000000000D+00 0.000000000000D+00 0.260947797675D-06 0.113118003908D-08  6 -4 2 25 24 1 -4 4 0.61804905D-01 0.98878196D-02 0.23082389D+05 0.23082389D+05 0.23082389D+05 0.12270311D+01  1  2 11  8  6  1       21 0.370864080926D-04 0.100000000000D+01
0.191453939637D-06 0.000000000000D+00 0.000000000000D+00 0.260188834694D-06 0.000000000000D+00  6 3 2 25 24 1 3 4 0.62082851D-01 0.97946344D-02 0.23082389D+05 0.23082389D+05 0.23082389D+05 0.12270311D+01  1  2 12  9  6  1       21 0.428835014511D-04 0.100000000000D+01
0.191453939637D-06 0.000000000000D+00 0.000000000000D+00 0.260188834694D-06 0.000000000000D+00  6 4 2 25 24 1 4 4 0.62082851D-01 0.97946344D-02 0.23082389D+05 0.23082389D+05 0.23082389D+05 0.12270311D+01  1  2 12  9  6  1       21 0.349464164905D-04 0.100000000000D+01
0.191784289620D-06 0.000000000000D+00 0.000000000000D+00 0.260188834694D-06 0.000000000000D+00  6 3 2 25 24 1 3 4 0.63064641D-01 0.97946344D-02 0.23082389D+05 0.23082389D+05 0.23082389D+05 0.12270311D+01  1  2 12  9  6  1       21 0.415796123450D-04 0.100000000000D+01
0.191784289620D-06 0.000000000000D+00 0.000000000000D+00 0.260188834694D-06 0.000000000000D+00  6 4 2 25 24 1 4 4 0.63064641D-01 0.97946344D-02 0.23082389D+05 0.23082389D+05 0.23082389D+05 0.12270311D+01  1  2 12  9  6  1       21 0.338612615921D-04 0.100000000000D+01
-.176779367196D-05 0.000000000000D+00 -.252441434450D-06 0.260947797675D-06 0.000000000000D+00  6 3 2 25 24 1 3 4 0.62261093D-01 0.97946344D-02 0.22222571D+05 0.22222571D+05 0.22222571D+05 0.12288194D+01  1  2  5  9  6  1       21 -.395257151883D-03 0.100000000000D+01
-.176779367196D-05 0.000000000000D+00 -.252441434450D-06 0.260947797675D-06 0.000000000000D+00  6 4 2 25 24 1 4 4 0.62261093D-01 0.97946344D-02 0.22222571D+05 0.22222571D+05 0.22222571D+05 0.12288194D+01  1  2  5  9  6  1       21 -.321924591958D-03 0.100000000000D+01
0.203620624939D-06 0.000000000000D+00 0.000000000000D+00 0.260947797675D-06 0.113118003908D-08  6 3 2 25 24 1 3 4 0.61804905D-01 0.98878196D-02 0.23082389D+05 0.23082389D+05 0.23082389D+05 0.12270311D+01  1  2 11  9  6  1       21 0.455008507135D-04 0.100000000000D+01
0.203620624939D-06 0.000000000000D+00 0.000000000000D+00 0.260947797675D-06 0.113118003908D-08  6 4 2 25 24 1 4 4 0.61804905D-01 0.98878196D-02 0.23082389D+05 0.23082389D+05 0.23082389D+05 0.12270311D+01  1  2 11  9  6  1       21 0.370864080926D-04 0.100000000000D+01
  </mgrwgt>
  </event>
  <event>
  6     66 -.46027262E-03 0.30043920E+02 0.75467711E-02 0.12342614E+00
       21 -1    0    0  503  502 0.00000000E+00 0.00000000E+00 0.19879390E+02 0.19893533E+02 0.75000000E+00 0.0000E+00 0.9000E+01
        2 -1    0    0  502    0 0.00000000E+00 0.00000000E+00 -.13095582E+04 0.13095583E+04 0.32000000E+00 0.0000E+00 0.9000E+01
       25  1    1    2    0    0 -.71336409E+01 -.26091474E+02 -.89047761E+03 0.89961493E+03 0.12500000E+03 0.0000E+00 0.9000E+01
       24  1    1    2    0    0 0.11902022E+02 -.83802015E+01 -.36922332E+03 0.37815996E+03 0.80419002E+02 0.0000E+00 0.9000E+01
        1  1    1    2  501    0 0.27769037E+01 0.33720865E+02 -.20679806E+02 0.39655576E+02 0.32000000E+00 0.0000E+00 0.9000E+01
       21  1    1    2  503  501 -.75452846E+01 0.75081122E+00 -.92981129E+01 0.12021333E+02 0.75000000E+00 0.0000E+00 0.9000E+01
#aMCatNLO 2  0  0  1  2 0.75825482D+01 0.00000000D+00  -5  6  0 0.00000000D+00 0.00000000D+00 0.00000000D+00 0.00000000D+00 0.00000000D+00
  <mgrwgt>
 -.1776216043D+00    3    2    0
 0.155073159129459D+03 0.000000000000000D+00 0.000000000000000D+00 0.155073159129459D+03
 0.155073159129459D+03 0.000000000000000D+00 0.000000000000000D+00 -.155073159129459D+03
 0.145299270722111D+03 -.106661035914318D+02 -.257400866426485D+02 -.686335213010593D+02
 0.817580293284681D+02 0.990982649663324D+01 -.818202988271078D+01 -.721173565164284D+01
 0.830890182083383D+02 0.756277094798582D+00 0.339221165253593D+02 0.758452569527021D+02
 0.000000000000000D+00 -.000000000000000D+00 0.000000000000000D+00 0.000000000000000D+00
 0.166509299419745D+03 0.000000000000000D+00 0.000000000000000D+00 0.166509299419745D+03
 0.156381482274576D+03 0.000000000000000D+00 0.000000000000000D+00 -.156381482274576D+03
 0.145145514141779D+03 -.713363996238828D+01 -.260915927107848D+02 -.686335213010593D+02
 0.820433548345836D+02 0.119020207521236D+02 -.838026783878022D+01 -.721173565164284D+01
 0.830501256169735D+02 0.277690378017142D+01 0.337210493337520D+02 0.758452569527021D+02
 0.126517871009851D+02 -.754528456990671D+01 0.750811215813105D+00 0.101278171451696D+02
-.878103992917D-05 0.000000000000D+00 0.000000000000D+00 0.237217732123D-05 0.000000000000D+00  6 21 2 25 24 1 21 4 0.30707266D-02 0.19977194D+00 0.15754854D+05 0.15754854D+05 0.15754854D+05 0.12453990D+01  1  2 13  1  6  1       21 -.289175997154D+00 0.100000000000D+01
-.365754280027D-06 0.000000000000D+00 0.000000000000D+00 0.238376057134D-05 0.000000000000D+00  6 21 2 25 24 1 21 4 0.28491288D-02 0.19977194D+00 0.14815456D+05 0.14815456D+05 0.14815456D+05 0.12484359D+01  1  2  8  1  6  1       21 -.137444682596D-01 0.100000000000D+01
0.383301760267D-05 0.000000000000D+00 0.000000000000D+00 0.238376057134D-05 0.451950296882D-06  6 21 2 25 24 1 21 4 0.30592427D-02 0.20145737D+00 0.15754854D+05 0.15754854D+05 0.15754854D+05 0.12453990D+01  1  2  1  1  6  1       21 0.125298861084D+00 0.100000000000D+01
  </mgrwgt>
  </event>
  <event>
  5     66 -.46027262E-03 0.21119672E+02 0.75467711E-02 0.12505727E+00
       21 -1    0    0  501  502 0.00000000E+00 0.00000000E+00 0.20396231E+02 0.20410016E+02 0.75000000E+00 0.0000E+00 0.9000E+01
        2 -1    0    0  502    0 -.00000000E+00 -.00000000E+00 -.85844503E+03 0.85844509E+03 0.32000000E+00 0.0000E+00 0.9000E+01
       25  1    1    2    0    0 -.10735723E+02 -.17985409E+02 -.59051491E+03 0.60396324E+03 0.12500000E+03 0.0000E+00 0.9000E+01
       24  1    1    2    0    0 0.21705303E+02 -.61485234E-01 -.23715492E+03 0.25135790E+03 0.80419002E+02 0.0000E+00 0.9000E+01
        1  1    1    2  501    0 -.10969580E+02 0.18046894E+02 -.10378965E+02 0.23533963E+02 0.32000000E+00 0.0000E+00 0.9000E+01
#aMCatNLO 1  0  0  5  1 0.15445334D+01 0.00000000D+00  -5  6  0 0.00000000D+00 0.00000000D+00 0.00000000D+00 0.00000000D+00 0.00000000D+00
  <mgrwgt>
 -.2535309691D+02    7    2    0
 0.132344727691822D+03 0.000000000000000D+00 0.000000000000000D+00 0.132344727691822D+03
 0.132344727691822D+03 -.000000000000000D+00 -.000000000000000D+00 -.132344727691822D+03
 0.135690769358936D+03 -.107355824385407D+02 -.179856402500696D+02 -.484587340292779D+02
 0.837199169877111D+02 0.217053897520981D+02 -.616277907807108D-01 0.840718762628878D+01
 0.452787690369964D+02 -.109698073135574D+02 0.180472680408503D+02 0.400515464029891D+02
 0.000000000000000D+00 0.000000000000000D+00 0.000000000000000D+00 0.000000000000000D+00
 0.132344727691822D+03 0.000000000000000D+00 0.000000000000000D+00 0.132344727691822D+03
 0.132344727691822D+03 -.000000000000000D+00 -.000000000000000D+00 -.132344727691822D+03
 0.135648212707987D+03 -.107651107825676D+02 -.179370609155177D+02 -.483509239459108D+02
 0.837218853372590D+02 0.216871679724413D+02 -.316497490295644D-01 0.847371663929779D+01
 0.394657373591155D+02 -.104065815825759D+02 0.167889414804047D+02 0.341669274157251D+02
 0.585361997928212D+01 -.515475607297842D+00 0.117976918414263D+01 0.571027989088794D+01
0.233760874129D-05 0.000000000000D+00 0.000000000000D+00 0.295067975372D-05 0.000000000000D+00  6 21 2 25 24 1 21 2 0.31389467D-02 0.13206953D+00 0.13358643D+05 0.13358643D+05 0.13358643D+05 0.12536012D+01  1  2  2  3  6  5        1 0.870685314271D-01 0.100000000000D+01
0.239013032290D-06 0.123359002375D-06 -.471895855373D-08 0.295067975372D-05 0.000000000000D+00  6 21 2 25 24 1 21 4 0.31389467D-02 0.13206953D+00 0.13358643D+05 0.13358643D+05 0.13358643D+05 0.12536012D+01  1  2  3  3  6  5        1 0.139903893113D-01 0.100000000000D+01
0.228167169911D-06 0.000000000000D+00 0.000000000000D+00 0.295067975372D-05 0.000000000000D+00  6 21 2 25 24 1 21 4 0.31389467D-02 0.13206953D+00 0.13358643D+05 0.13358643D+05 0.13358643D+05 0.12536012D+01  1  2 15  3  6  5        1 0.133555375811D-01 0.100000000000D+01
0.579006126193D-08 0.000000000000D+00 0.000000000000D+00 0.295086132684D-05 0.000000000000D+00  6 21 2 25 24 1 21 4 0.31389467D-02 0.13206953D+00 0.13348388D+05 0.13348388D+05 0.13348388D+05 0.12536398D+01  1  2 12  3  6  5        1 0.338952210854D-03 0.100000000000D+01
-.448092183780D-03 0.000000000000D+00 0.000000000000D+00 0.295067975372D-05 0.000000000000D+00  6 21 2 25 24 1 21 4 0.31389467D-02 0.13206953D+00 0.13358643D+05 0.13358643D+05 0.13358643D+05 0.12536012D+01  1  2  4  3  6  5        1 -.262286287839D+02 0.100000000000D+01
-.672174612395D-04 0.000000000000D+00 0.000000000000D+00 0.295067975372D-05 0.000000000000D+00  6 21 2 25 24 1 21 4 0.31389467D-02 0.13206953D+00 0.13358643D+05 0.13358643D+05 0.13358643D+05 0.12536012D+01  1  2  5  3  6  5        1 -.393450701098D+01 0.100000000000D+01
0.802146668569D-04 0.000000000000D+00 -.000000000000D+00 0.295067975372D-05 0.000000000000D+00  6 21 2 25 24 1 21 4 0.31389467D-02 0.13206953D+00 0.13358643D+05 0.13358643D+05 0.13358643D+05 0.12536012D+01  1  2  6  3  6  5        1 0.469528547065D+01 0.100000000000D+01
  </mgrwgt>
  </event>
  <event>
  5     66 0.46027262E-03 0.61100380E+02 0.75467711E-02 0.11797536E+00
       21 -1    0    0  501  502 0.00000000E+00 0.00000000E+00 0.33550809E+02 0.33559191E+02 0.75000000E+00 0.0000E+00 0.9000E+01
        2 -1    0    0  502    0 0.00000000E+00 0.00000000E+00 -.18576795E+04 0.18576795E+04 0.32000000E+00 0.0000E+00 0.9000E+01
       25  1    1    2    0    0 -.95216212E+02 -.40165713E+02 -.10471406E+04 0.10596262E+04 0.12500000E+03 0.0000E+00 0.9000E+01
       24  1    1    2    0    0 0.29160493E+02 0.36736528E+02 -.75672883E+03 0.76243403E+03 0.80419002E+02 0.0000E+00 0.9000E+01
        1  1    1    2  501    0 0.66055718E+02 0.34291849E+01 -.20259304E+02 0.69178458E+02 0.32000000E+00 0.0000E+00 0.9000E+01
#aMCatNLO 1  0  0  1  2 0.18731353D+02 0.00000000D+00  -5  6  0 0.00000000D+00 0.00000000D+00 0.00000000D+00 0.00000000D+00 0.00000000D+00
  <mgrwgt>
 0.3362753158D+00   23    2    0
 0.249668986775568D+03 0.000000000000000D+00 0.000000000000000D+00 0.249668986775568D+03
 0.249668986775568D+03 0.000000000000000D+00 0.000000000000000D+00 -.249668986775568D+03
 0.188023079110076D+03 -.952162476249075D+02 -.401657150619313D+02 -.951223412234477D+02
 0.123311269811756D+03 0.291604697126640D+02 0.367365270606492D+02 -.808612879805667D+02
 0.188003624629303D+03 0.660557779122434D+02 0.342918800128212D+01 0.175983629204014D+03
 0.000000000000000D+00 0.000000000000000D+00 0.000000000000000D+00 0.000000000000000D+00
 0.274473767940709D+03 0.000000000000000D+00 0.000000000000000D+00 0.274473767940709D+03
 0.253406051984437D+03 0.000000000000000D+00 0.000000000000000D+00 -.253406051984437D+03
 0.192029095214583D+03 -.101671727169836D+03 -.431830233240310D+02 -.951223412234477D+02
 0.121823503203366D+03 0.249966663723413D+02 0.347903543351259D+02 -.808612879805667D+02
 0.185836580393198D+03 0.597058134609593D+02 0.461197773824914D+00 0.175983629204014D+03
 0.281906411139991D+02 0.169692473365359D+02 0.793147121508022D+01 0.210677159562711D+02
0.631748786718D-05 0.000000000000D+00 0.000000000000D+00 0.172652067004D-05 0.000000000000D+00  6 21 2 25 24 1 21 2 0.51623098D-02 0.28579749D+00 0.25829066D+05 0.25829066D+05 0.25829066D+05 0.12217815D+01  1  2  2  1  6  1       21 0.277003702369D-01 0.100000000000D+01
0.367496193563D-06 0.333382993932D-06 -.127531878549D-07 0.172652067004D-05 0.000000000000D+00  6 21 2 25 24 1 21 4 0.51623098D-02 0.28579749D+00 0.25829066D+05 0.25829066D+05 0.25829066D+05 0.12217815D+01  1  2  3  1  6  1       21 0.240536555192D-02 0.100000000000D+01
0.649385243752D-06 0.000000000000D+00 0.000000000000D+00 0.172652067004D-05 0.000000000000D+00  6 21 2 25 24 1 21 4 0.51623098D-02 0.28579749D+00 0.25829066D+05 0.25829066D+05 0.25829066D+05 0.12217815D+01  1  2 15  1  6  1       21 0.425040836506D-02 0.100000000000D+01
0.383020801865D-04 0.000000000000D+00 0.000000000000D+00 0.171469102780D-05 0.000000000000D+00  6 21 2 25 24 1 21 4 0.57113927D-02 0.28579749D+00 0.28286289D+05 0.28286289D+05 0.28286289D+05 0.12175886D+01  1  2 12  1  6  1       21 0.207812122531D+00 0.100000000000D+01
-.612527039607D-05 0.000000000000D+00 0.000000000000D+00 0.172652067004D-05 0.000000000000D+00  6 21 2 25 24 1 21 4 0.51623098D-02 0.28579749D+00 0.25829066D+05 0.25829066D+05 0.25829066D+05 0.12217815D+01  1  2  4  1  6  1       21 -.400916109201D-01 0.100000000000D+01
-.127244127953D-03 0.000000000000D+00 -.195751893009D-04 0.172652067004D-05 0.000000000000D+00  6 21 2 25 24 1 21 4 0.57660510D-02 0.28579749D+00 0.25829066D+05 0.25829066D+05 0.25829066D+05 0.12217815D+01  1  2  5  1  6  1       21 -.690403724669D+00 0.100000000000D+01
0.126688392838D-03 0.000000000000D+00 0.191044351541D-04 0.172652067004D-05 0.000000000000D+00  6 21 2 25 24 1 21 4 0.51623098D-02 0.28579749D+00 0.25829066D+05 0.25829066D+05 0.25829066D+05 0.12217815D+01  1  2  6  1  6  1       21 0.829211026672D+00 0.100000000000D+01
0.990513496826D-06 0.000000000000D+00 0.000000000000D+00 0.171469102780D-05 0.000000000000D+00  6 -1 2 25 24 1 -1 4 0.57113927D-02 0.28579749D+00 0.28286289D+05 0.28286289D+05 0.28286289D+05 0.12175886D+01  1  2 12  4  6  1       21 0.317823313388D-03 0.100000000000D+01
-.303320481669D-05 0.000000000000D+00 -.560658245963D-06 0.172652067004D-05 0.000000000000D+00  6 -1 2 25 24 1 -1 4 0.57660510D-02 0.28579749D+00 0.25829066D+05 0.25829066D+05 0.25829066D+05 0.12217815D+01  1  2  5  4  6  1       21 -.973577788387D-03 0.100000000000D+01
0.990513496826D-06 0.000000000000D+00 0.000000000000D+00 0.171469102780D-05 0.000000000000D+00  6 1 2 25 24 1 1 4 0.57113927D-02 0.28579749D+00 0.28286289D+05 0.28286289D+05 0.28286289D+05 0.12175886D+01  1  2 12  5  6  1       21 0.363747575402D-03 0.100000000000D+01
-.303320481669D-05 0.000000000000D+00 -.560658245963D-06 0.172652067004D-05 0.000000000000D+00  6 1 2 25 24 1 1 4 0.57660510D-02 0.28579749D+00 0.25829066D+05 0.25829066D+05 0.25829066D+05 0.12217815D+01  1  2  5  5  6  1       21 -.111575248377D-02 0.100000000000D+01
0.990513496826D-06 0.000000000000D+00 0.000000000000D+00 0.171469102780D-05 0.000000000000D+00  6 -2 2 25 24 1 -2 4 0.57113927D-02 0.28579749D+00 0.28286289D+05 0.28286289D+05 0.28286289D+05 0.12175886D+01  1  2 12  6  6  1       21 0.309764030572D-03 0.100000000000D+01
-.303320481669D-05 0.000000000000D+00 -.560658245963D-06 0.172652067004D-05 0.000000000000D+00  6 -2 2 25 24 1 -2 4 0.57660510D-02 0.28579749D+00 0.25829066D+05 0.25829066D+05 0.25829066D+05 0.12217815D+01  1  2  5  6  6  1       21 -.948627418590D-03 0.100000000000D+01
0.990513496826D-06 0.000000000000D+00 0.000000000000D+00 0.171469102780D-05 0.000000000000D+00  6 2 2 25 24 1 2 4 0.57113927D-02 0.28579749D+00 0.28286289D+05 0.28286289D+05 0.28286289D+05 0.12175886D+01  1  2 12  7  6  1       21 0.394618186528D-03 0.100000000000D+01
-.303320481669D-05 0.000000000000D+00 -.560658245963D-06 0.172652067004D-05 0.000000000000D+00  6 2 2 25 24 1 2 4 0.57660510D-02 0.28579749D+00 0.25829066D+05 0.25829066D+05 0.25829066D+05 0.12217815D+01  1  2  5  7  6  1       21 -.121127807445D-02 0.100000000000D+01
0.990513496826D-06 0.000000000000D+00 0.000000000000D+00 0.171469102780D-05 0.000000000000D+00  6 -3 2 25 24 1 -3 4 0.57113927D-02 0.28579749D+00 0.28286289D+05 0.28286289D+05 0.28286289D+05 0.12175886D+01  1  2 12  8  6  1       21 0.224810215339D-03 0.100000000000D+01
0.990513496826D-06 0.000000000000D+00 0.000000000000D+00 0.171469102780D-05 0.000000000000D+00  6 -4 2 25 24 1 -4 4 0.57113927D-02 0.28579749D+00 0.28286289D+05 0.28286289D+05 0.28286289D+05 0.12175886D+01  1  2 12  8  6  1       21 0.200335750178D-03 0.100000000000D+01
-.303320481669D-05 0.000000000000D+00 -.560658245963D-06 0.172652067004D-05 0.000000000000D+00  6 -3 2 25 24 1 -3 4 0.57660510D-02 0.28579749D+00 0.25829066D+05 0.25829066D+05 0.25829066D+05 0.12217815D+01  1  2  5  8  6  1       21 -.686638775030D-03 0.100000000000D+01
-.303320481669D-05 0.000000000000D+00 -.560658245963D-06 0.172652067004D-05 0.000000000000D+00  6 -4 2 25 24 1 -4 4 0.57660510D-02 0.28579749D+00 0.25829066D+05 0.25829066D+05 0.25829066D+05 0.12217815D+01  1  2  5  8  6  1       21 -.611210878369D-03 0.100000000000D+01
0.990513496826D-06 0.000000000000D+00 0.000000000000D+00 0.171469102780D-05 0.000000000000D+00  6 3 2 25 24 1 3 4 0.57113927D-02 0.28579749D+00 0.28286289D+05 0.28286289D+05 0.28286289D+05 0.12175886D+01  1  2 12  9  6  1       21 0.224787231037D-03 0.100000000000D+01
0.990513496826D-06 0.000000000000D+00 0.000000000000D+00 0.171469102780D-05 0.000000000000D+00  6 4 2 25 24 1 4 4 0.57113927D-02 0.28579749D+00 0.28286289D+05 0.28286289D+05 0.28286289D+05 0.12175886D+01  1  2 12  9  6  1       21 0.200335750178D-03 0.100000000000D+01
-.303320481669D-05 0.000000000000D+00 -.560658245963D-06 0.172652067004D-05 0.000000000000D+00  6 3 2 25 24 1 3 4 0.57660510D-02 0.28579749D+00 0.25829066D+05 0.25829066D+05 0.25829066D+05 0.12217815D+01  1  2  5  9  6  1       21 -.686567740308D-03 0.100000000000D+01
-.303320481669D-05 0.000000000000D+00 -.560658245963D-06 0.172652067004D-05 0.000000000000D+00  6 4 2 25 24 1 4 4 0.57660510D-02 0.28579749D+00 0.25829066D+05 0.25829066D+05 0.25829066D+05 0.12217815D+01  1  2  5  9  6  1       21 -.611210878369D-03 0.100000000000D+01
  </mgrwgt>
  </event>
  <event>
  6     66 -.46027262E-03 0.34653179E+02 0.75467711E-02 0.12071064E+00
       21 -1    0    0  501  503 0.00000000E+00 0.00000000E+00 0.57515972E+03 0.57516021E+03 0.75000000E+00 0.0000E+00 0.9000E+01
        2 -1    0    0  502    0 0.00000000E+00 0.00000000E+00 -.23515509E+03 0.23515531E+03 0.32000000E+00 0.0000E+00 0.9000E+01
       25  1    1    2    0    0 0.41505378E+02 0.52520005E+02 -.15870983E+03 0.21282588E+03 0.12500000E+03 0.0000E+00 0.9000E+01
       24  1    1    2    0    0 -.56282897E+02 -.23529069E+02 0.45085964E+01 0.10103923E+03 0.80419002E+02 0.0000E+00 0.9000E+01
        1  1    1    2  501    0 0.22414520E+02 -.31517661E+02 0.38156134E+03 0.38351654E+03 0.32000000E+00 0.0000E+00 0.9000E+01
       21  1    1    2  502  503 -.76370006E+01 0.25267250E+01 0.11264452E+03 0.11293387E+03 0.75000000E+00 0.0000E+00 0.9000E+01
#aMCatNLO 2  0  0  1  2 0.80441356D+01 0.00000000D+00  -5  6  0 0.00000000D+00 0.00000000D+00 0.00000000D+00 0.00000000D+00 0.00000000D+00
  <mgrwgt>
 -.5972485703D+00    3    2    0
 0.329614862609001D+03 0.000000000000000D+00 0.000000000000000D+00 0.329614862609001D+03
 0.329614862609001D+03 0.000000000000000D+00 0.000000000000000D+00 -.329614862609001D+03
 0.279600439636238D+03 0.382648986119385D+02 0.535921344824805D+02 -.241278027388752D+03
 0.105893606172482D+03 -.575063030126984D+02 -.231242988904368D+02 -.300754349674220D+02
 0.273735679409282D+03 0.192414044007599D+02 -.304678355920436D+02 0.271353462356174D+03
 0.000000000000000D+00 -.000000000000000D+00 0.000000000000000D+00 0.000000000000000D+00
 0.410048360430158D+03 0.000000000000000D+00 0.000000000000000D+00 0.410048360430158D+03
 0.329840585399697D+03 0.000000000000000D+00 0.000000000000000D+00 -.329840585399697D+03
 0.279859132987621D+03 0.415053729830090D+02 0.525200136092570D+02 -.241278027388752D+03
 0.105323926140495D+03 -.562828991535582D+02 -.235290658052676D+02 -.300754349674220D+02
 0.274095742843083D+03 0.224145267680296D+02 -.315176728484692D+02 0.271353462356174D+03
 0.806101438586564D+02 -.763700059748038D+01 0.252672504447988D+01 0.802077750304605D+02
-.276105891543D-02 0.000000000000D+00 0.000000000000D+00 0.847732425530D-05 0.000000000000D+00  6 21 2 25 24 1 21 4 0.88506107D-01 0.36152811D-01 0.20945870D+05 0.20945870D+05 0.20945870D+05 0.12316228D+01  1  2 13  1  6  1       21 -.125121200449D+01 0.100000000000D+01
-.197303867894D-02 0.000000000000D+00 0.000000000000D+00 0.847732425530D-05 0.000000000000D+00  6 21 2 25 24 1 21 4 0.95409167D-01 0.36152811D-01 0.20945870D+05 0.20945870D+05 0.20945870D+05 0.12316228D+01  1  2 13  1  6  1       21 -.752004482848D+00 0.100000000000D+01
0.310319903133D-02 0.000000000000D+00 0.000000000000D+00 0.852646088488D-05 0.176412979708D-05  6 21 2 25 24 1 21 4 0.88485698D-01 0.36177569D-01 0.20945870D+05 0.20945870D+05 0.20945870D+05 0.12316228D+01  1  2  1  1  6  1       21 0.140596791705D+01 0.100000000000D+01
  </mgrwgt>
  </event>
  <event>
  5     66 0.46027262E-03 0.45312578E+02 0.75467711E-02 0.12194856E+00
       21 -1    0    0  501  502 0.00000000E+00 0.00000000E+00 0.12716439E+03 0.12716660E+03 0.75000000E+00 0.0000E+00 0.9000E+01
        2 -1    0    0  502    0 0.00000000E+00 0.00000000E+00 -.19304167E+03 0.19304193E+03 0.32000000E+00 0.0000E+00 0.9000E+01
       25  1    1    2    0    0 0.13583497E+02 -.22590616E+02 -.79569193E+02 0.15050284E+03 0.12500000E+03 0.0000E+00 0.9000E+01
       24  1    1    2    0    0 0.53991587E+01 -.19789794E+02 -.45360394E+02 0.94581014E+02 0.80419002E+02 0.0000E+00 0.9000E+01
        1  1    1    2  501    0 -.18982656E+02 0.42380410E+02 0.59052305E+02 0.75124680E+02 0.32000000E+00 0.0000E+00 0.9000E+01
#aMCatNLO 1  0  0  1  2 0.12625079D+02 0.00000000D+00  -5  6  0 0.00000000D+00 0.00000000D+00 0.00000000D+00 0.00000000D+00 0.00000000D+00
  <mgrwgt>
 0.5788565823D-01   23    2    0
 0.156679359349408D+03 0.000000000000000D+00 0.000000000000000D+00 0.156679359349408D+03
 0.156679359349408D+03 0.000000000000000D+00 0.000000000000000D+00 -.156679359349408D+03
 0.137065029732485D+03 0.135835505977043D+02 -.225907351981534D+02 -.496685837520421D+02
 0.871124540545275D+02 0.539919263154541D+01 -.197898699400744D+02 -.264683483374774D+02
 0.891812349118025D+02 -.189827432292497D+02 0.423806051382278D+02 0.761369320895194D+02
 0.000000000000000D+00 0.000000000000000D+00 -.000000000000000D+00 0.000000000000000D+00
 0.170577261370470D+03 0.000000000000000D+00 0.000000000000000D+00 0.170577261370470D+03
 0.159700145028171D+03 0.000000000000000D+00 0.000000000000000D+00 -.159700145028171D+03
 0.136452317761334D+03 0.819525751437101D+01 -.214500481300075D+02 -.496685837520421D+02
 0.868051815712115D+02 0.197301435913061D+01 -.190645572690553D+02 -.264683483374774D+02
 0.903554455565977D+02 -.225196167125463D+02 0.431293516859135D+02 0.761369320895194D+02
 0.166644615094972D+02 0.123513448390447D+02 -.261474628685074D+01 0.108771163422995D+02
0.923931229551D-06 0.000000000000D+00 0.000000000000D+00 0.155415568285D-05 0.000000000000D+00  6 21 2 25 24 1 21 2 0.19563942D-01 0.29698909D-01 0.16535504D+05 0.16535504D+05 0.16535504D+05 0.12430260D+01  1  2  2  1  6  1       21 0.746485026832D-02 0.100000000000D+01
0.268468374282D-07 0.487571905116D-07 -.186515095608D-08 0.155415568285D-05 0.000000000000D+00  6 21 2 25 24 1 21 4 0.19563942D-01 0.29698909D-01 0.16535504D+05 0.16535504D+05 0.16535504D+05 0.12430260D+01  1  2  3  1  6  1       21 0.335146743203D-03 0.100000000000D+01
0.945882916320D-07 0.000000000000D+00 0.000000000000D+00 0.155415568285D-05 0.000000000000D+00  6 21 2 25 24 1 21 4 0.19563942D-01 0.29698909D-01 0.16535504D+05 0.16535504D+05 0.16535504D+05 0.12430260D+01  1  2 15  1  6  1       21 0.118080790597D-02 0.100000000000D+01
0.449088417949D-05 0.000000000000D+00 0.000000000000D+00 0.154141872213D-05 0.000000000000D+00  6 21 2 25 24 1 21 4 0.21476954D-01 0.29698909D-01 0.18366039D+05 0.18366039D+05 0.18366039D+05 0.12379219D+01  1  2 12  1  6  1       21 0.464226423940D-01 0.100000000000D+01
-.277658008145D-05 0.000000000000D+00 0.000000000000D+00 0.155415568285D-05 0.000000000000D+00  6 21 2 25 24 1 21 4 0.19563942D-01 0.29698909D-01 0.16535504D+05 0.16535504D+05 0.16535504D+05 0.12430260D+01  1  2  4  1  6  1       21 -.346618768050D-01 0.100000000000D+01
-.188287964053D-04 0.000000000000D+00 -.303219041701D-05 0.155415568285D-05 0.000000000000D+00  6 21 2 25 24 1 21 4 0.21667424D-01 0.29698909D-01 0.16535504D+05 0.16535504D+05 0.16535504D+05 0.12430260D+01  1  2  5  1  6  1       21 -.194509981410D+00 0.100000000000D+01
0.187216996695D-04 0.000000000000D+00 0.296986834162D-05 0.155415568285D-05 0.000000000000D+00  6 21 2 25 24 1 21 4 0.19563942D-01 0.29698909D-01 0.16535504D+05 0.16535504D+05 0.16535504D+05 0.12430260D+01  1  2  6  1  6  1       21 0.233715300293D+00 0.100000000000D+01
0.106134211499D-06 0.000000000000D+00 0.000000000000D+00 0.154141872213D-05 0.000000000000D+00  6 -1 2 25 24 1 -1 4 0.21476954D-01 0.29698909D-01 0.18366039D+05 0.18366039D+05 0.18366039D+05 0.12379219D+01  1  2 12  4  6  1       21 0.871708326172D-04 0.100000000000D+01
-.438521813633D-06 0.000000000000D+00 -.793289983631D-07 0.155415568285D-05 0.000000000000D+00  6 -1 2 25 24 1 -1 4 0.21667424D-01 0.29698909D-01 0.16535504D+05 0.16535504D+05 0.16535504D+05 0.12430260D+01  1  2  5  4  6  1       21 -.360028294813D-03 0.100000000000D+01
0.106134211499D-06 0.000000000000D+00 0.000000000000D+00 0.154141872213D-05 0.000000000000D+00  6 1 2 25 24 1 1 4 0.21476954D-01 0.29698909D-01 0.18366039D+05 0.18366039D+05 0.18366039D+05 0.12379219D+01  1  2 12  5  6  1       21 0.134363136686D-03 0.100000000000D+01
-.438521813633D-06 0.000000000000D+00 -.793289983631D-07 0.155415568285D-05 0.000000000000D+00  6 1 2 25 24 1 1 4 0.21667424D-01 0.29698909D-01 0.16535504D+05 0.16535504D+05 0.16535504D+05 0.12430260D+01  1  2  5  5  6  1       21 -.556705639241D-03 0.100000000000D+01
0.106134211499D-06 0.000000000000D+00 0.000000000000D+00 0.154141872213D-05 0.000000000000D+00  6 -2 2 25 24 1 -2 4 0.21476954D-01 0.29698909D-01 0.18366039D+05 0.18366039D+05 0.18366039D+05 0.12379219D+01  1  2 12  6  6  1       21 0.792080871435D-04 0.100000000000D+01
-.438521813633D-06 0.000000000000D+00 -.793289983631D-07 0.155415568285D-05 0.000000000000D+00  6 -2 2 25 24 1 -2 4 0.21667424D-01 0.29698909D-01 0.16535504D+05 0.16535504D+05 0.16535504D+05 0.12430260D+01  1  2  5  6  6  1       21 -.326834835177D-03 0.100000000000D+01
0.106134211499D-06 0.000000000000D+00 0.000000000000D+00 0.154141872213D-05 0.000000000000D+00  6 2 2 25 24 1 2 4 0.21476954D-01 0.29698909D-01 0.18366039D+05 0.18366039D+05 0.18366039D+05 0.12379219D+01  1  2 12  7  6  1       21 0.167653330660D-03 0.100000000000D+01
-.438521813633D-06 0.000000000000D+00 -.793289983631D-07 0.155415568285D-05 0.000000000000D+00  6 2 2 25 24 1 2 4 0.21667424D-01 0.29698909D-01 0.16535504D+05 0.16535504D+05 0.16535504D+05 0.12430260D+01  1  2  5  7  6  1       21 -.695420210107D-03 0.100000000000D+01
0.106134211499D-06 0.000000000000D+00 0.000000000000D+00 0.154141872213D-05 0.000000000000D+00  6 -3 2 25 24 1 -3 4 0.21476954D-01 0.29698909D-01 0.18366039D+05 0.18366039D+05 0.18366039D+05 0.12379219D+01  1  2 12  8  6  1       21 0.513362430711D-04 0.100000000000D+01
0.106134211499D-06 0.000000000000D+00 0.000000000000D+00 0.154141872213D-05 0.000000000000D+00  6 -4 2 25 24 1 -4 4 0.21476954D-01 0.29698909D-01 0.18366039D+05 0.18366039D+05 0.18366039D+05 0.12379219D+01  1  2 12  8  6  1       21 0.435997462420D-04 0.100000000000D+01
-.438521813633D-06 0.000000000000D+00 -.793289983631D-07 0.155415568285D-05 0.000000000000D+00  6 -3 2 25 24 1 -3 4 0.21667424D-01 0.29698909D-01 0.16535504D+05 0.16535504D+05 0.16535504D+05 0.12430260D+01  1  2  5  8  6  1       21 -.211181431672D-03 0.100000000000D+01
-.438521813633D-06 0.000000000000D+00 -.793289983631D-07 0.155415568285D-05 0.000000000000D+00  6 -4 2 25 24 1 -4 4 0.21667424D-01 0.29698909D-01 0.16535504D+05 0.16535504D+05 0.16535504D+05 0.12430260D+01  1  2  5  8  6  1       21 -.179079953986D-03 0.100000000000D+01
0.106134211499D-06 0.000000000000D+00 0.000000000000D+00 0.154141872213D-05 0.000000000000D+00  6 3 2 25 24 1 3 4 0.21476954D-01 0.29698909D-01 0.18366039D+05 0.18366039D+05 0.18366039D+05 0.12379219D+01  1  2 12  9  6  1       21 0.513320067574D-04 0.100000000000D+01
0.106134211499D-06 0.000000000000D+00 0.000000000000D+00 0.154141872213D-05 0.000000000000D+00  6 4 2 25 24 1 4 4 0.21476954D-01 0.29698909D-01 0.18366039D+05 0.18366039D+05 0.18366039D+05 0.12379219D+01  1  2 12  9  6  1       21 0.435997462420D-04 0.100000000000D+01
-.438521813633D-06 0.000000000000D+00 -.793289983631D-07 0.155415568285D-05 0.000000000000D+00  6 3 2 25 24 1 3 4 0.21667424D-01 0.29698909D-01 0.16535504D+05 0.16535504D+05 0.16535504D+05 0.12430260D+01  1  2  5  9  6  1       21 -.211163965525D-03 0.100000000000D+01
-.438521813633D-06 0.000000000000D+00 -.793289983631D-07 0.155415568285D-05 0.000000000000D+00  6 4 2 25 24 1 4 4 0.21667424D-01 0.29698909D-01 0.16535504D+05 0.16535504D+05 0.16535504D+05 0.12430260D+01  1  2  5  9  6  1       21 -.179079953986D-03 0.100000000000D+01
  </mgrwgt>
  </event>
  <event>
  6     66 -.46027262E-03 0.71070142E+02 0.75467711E-02 0.11982314E+00
       21 -1    0    0  501  503 0.00000000E+00 0.00000000E+00 0.27438636E+03 0.27438739E+03 0.75000000E+00 0.0000E+00 0.9000E+01
        4 -1    0    0  502    0 0.00000000E+00 0.00000000E+00 -.41151863E+03 0.41152155E+03 0.15500000E+01 0.0000E+00 0.9000E+01
       25  1    1    2    0    0 0.45979208E+01 -.61559673E+02 -.34662800E+03 0.37361304E+03 0.12500000E+03 0.0000E+00 0.9000E+01
       24  1    1    2    0    0 -.25928171E+01 -.53336220E+01 -.59023914E+01 0.80853104E+02 0.80419002E+02 0.0000E+00 0.9000E+01
        3  1    1    2  501    0 -.13951908E+01 0.75243202E+02 0.18078775E+03 0.19582632E+03 0.50000000E+00 0.0000E+00 0.9000E+01
       21  1    1    2  502  503 -.60991294E+00 -.83499069E+01 0.34610374E+02 0.35616477E+02 0.75000000E+00 0.0000E+00 0.9000E+01
#aMCatNLO 2  0  0  1  5 0.83721526D+01 0.00000000D+00  -5  6  0 0.00000000D+00 0.00000000D+00 0.00000000D+00 0.00000000D+00 0.00000000D+00
  <mgrwgt>
 -.2664573199D-01    3    2    0
 0.313574018271219D+03 0.000000000000000D+00 0.000000000000000D+00 0.313574018271219D+03
 0.313574018271219D+03 0.000000000000000D+00 0.000000000000000D+00 -.313574018271219D+03
 0.293293243307736D+03 0.431311122783925D+01 -.654588959977701D+02 -.257084531966161D+03
 0.822940975418445D+02 -.267280630211767D+01 -.642872487856329D+01 0.160196797334773D+02
 0.251560695692857D+03 -.164030492572158D+01 0.718876208763334D+02 0.241064852232684D+03
 0.000000000000000D+00 -.000000000000000D+00 -.000000000000000D+00 0.000000000000000D+00
 0.359619358714227D+03 0.000000000000000D+00 0.000000000000000D+00 0.359619358714227D+03
 0.313982754012624D+03 0.000000000000000D+00 0.000000000000000D+00 -.313982754012624D+03
 0.292452044954009D+03 0.459792254446740D+01 -.615597362713375D+02 -.257084531966161D+03
 0.822132380757153D+02 -.259281666875456D+01 -.533364073431647D+01 0.160196797334773D+02
 0.252538633314776D+03 -.139519293509490D+01 0.752432838943344D+02 0.241064852232684D+03
 0.463981963823504D+02 -.609912940617934D+00 -.834990688868040D+01 0.456366047016032D+02
-.454500749019D-03 0.000000000000D+00 0.000000000000D+00 0.122085957635D-05 0.000000000000D+00  6 21 4 25 24 3 21 4 0.42235038D-01 0.63227836D-01 0.23055063D+05 0.23055063D+05 0.23055063D+05 0.12270868D+01  1  2 13  1  6  1       21 -.554698548404D-01 0.100000000000D+01
-.352409285147D-03 0.000000000000D+00 0.000000000000D+00 0.122085957635D-05 0.000000000000D+00  6 21 4 25 24 3 21 4 0.43689074D-01 0.63227836D-01 0.23055063D+05 0.23055063D+05 0.23055063D+05 0.12270868D+01  1  2 13  1  6  1       21 -.401570024108D-01 0.100000000000D+01
0.566180497777D-03 0.000000000000D+00 0.000000000000D+00 0.122708190595D-05 0.222862645236D-06  6 21 4 25 24 3 21 4 0.42213183D-01 0.63310252D-01 0.23055063D+05 0.23055063D+05 0.23055063D+05 0.12270868D+01  1  2  1  1  6  1       21 0.689811252618D-01 0.100000000000D+01
  </mgrwgt>
  </event>
</LesHouchesEvents>
