<event>
 5    0  0.1911311E+001  0.2668276E+03  0.7546771E-02  0.1103109E+00
         21   -1    0    0  503  501  0.00000000000E+00  0.00000000000E+00  0.41292026976E+03  0.41292026976E+03  0.00000000000E+00 0. -1.
         21   -1    0    0  504  502 -0.00000000000E+00 -0.00000000000E+00 -0.17407486628E+03  0.17407486628E+03  0.00000000000E+00 0. -1.
         25    1    1    2    0    0 -0.96815664526E+02 -0.22679447465E+03  0.10213992028E+03  0.29473135215E+03  0.12500000000E+03 0.  0.
         21    1    1    2  503  502  0.99453719224E+02  0.20346192838E+03  0.97500275724E+02  0.24656460073E+03  0.00000000000E+00 0. -1.
         21    1    1    2  504  501 -0.26380546974E+01  0.23332546270E+02  0.39205207477E+02  0.45699183158E+02  0.00000000000E+00 0. -1.
<mgrwt>
<rscale>  4 0.26682761E+03</rscale>
<asrwt>0</asrwt>
<pdfrwt beam="1">  1       21 0.63526195E-01 0.26682761E+03</pdfrwt>
<pdfrwt beam="2">  1       21 0.26780749E-01 0.26682761E+03</pdfrwt>
<totfact> 0.29331072E+04</totfact>
</mgrwt>
</event>
<event>
 5    0  0.1911311E+001  0.1908172E+03  0.7546771E-02  0.1157726E+00
         21   -1    0    0  504  501  0.00000000000E+00  0.00000000000E+00  0.78179338362E+03  0.78179338362E+03  0.00000000000E+00 0.  1.
         21   -1    0    0  503  502 -0.00000000000E+00 -0.00000000000E+00 -0.46186182865E+03  0.46186182865E+03  0.00000000000E+00 0.  1.
         25    1    1    2    0    0  0.28490131784E+02  0.21928750559E+03 -0.12181260298E+03  0.28171263366E+03  0.12500000000E+03 0.  0.
         21    1    1    2  503  501  0.24909819289E+02 -0.88075040253E+02 -0.24458265083E+03  0.26114820486E+03  0.00000000000E+00 0.  1.
         21    1    1    2  504  502 -0.53399951073E+02 -0.13121246534E+03  0.68632680879E+03  0.70079437376E+03  0.00000000000E+00 0.  1.
<mgrwt>
<rscale>  4 0.19081722E+03</rscale>
<asrwt>0</asrwt>
<pdfrwt beam="1">  1       21 0.12027591E+00 0.19081722E+03</pdfrwt>
<pdfrwt beam="2">  1       21 0.71055666E-01 0.19081722E+03</pdfrwt>
<totfact> 0.94315795E+02</totfact>
</mgrwt>
</event>
<event>
 5    0  0.1911311E+001  0.2675117E+03  0.7546771E-02  0.1102712E+00
         21   -1    0    0  502  501  0.00000000000E+00  0.00000000000E+00  0.18984886443E+03  0.18984886443E+03  0.00000000000E+00 0.  1.
         21   -1    0    0  504  502 -0.00000000000E+00 -0.00000000000E+00 -0.88493706868E+03  0.88493706868E+03  0.00000000000E+00 0.  1.
         25    1    1    2    0    0 -0.24242919336E+03  0.15628722794E+02 -0.26277002358E+02  0.27446612108E+03  0.12500000000E+03 0.  0.
         21    1    1    2  503  501  0.93855373543E+01  0.19281421684E+02  0.44335702457E+02  0.49249528383E+02  0.00000000000E+00 0.  1.
         21    1    1    2  504  503  0.23304365601E+03 -0.34910144477E+02 -0.71314690435E+03  0.75107028365E+03  0.00000000000E+00 0.  1.
<mgrwt>
<rscale>  4 0.26751173E+03</rscale>
<asrwt>0</asrwt>
<pdfrwt beam="1">  1       21 0.29207518E-01 0.26751173E+03</pdfrwt>
<pdfrwt beam="2">  1       21 0.13614416E+00 0.26751173E+03</pdfrwt>
<totfact> 0.40850875E+03</totfact>
</mgrwt>
</event>
<event>
 5    0  0.1911311E+001  0.2603524E+03  0.7546771E-02  0.1106932E+00
         21   -1    0    0  504  501  0.00000000000E+00  0.00000000000E+00  0.21879510272E+03  0.21879510272E+03  0.00000000000E+00 0.  1.
         21   -1    0    0  503  502 -0.00000000000E+00 -0.00000000000E+00 -0.61695656017E+03  0.61695656017E+03  0.00000000000E+00 0.  1.
         25    1    1    2    0    0 -0.14226391323E+03  0.18661669626E+03  0.18123214144E+02  0.26649252001E+03  0.12500000000E+03 0.  0.
         21    1    1    2  503  501  0.13191011133E+03  0.57521097051E+02 -0.15700736788E+03  0.21297950052E+03  0.00000000000E+00 0.  1.
         21    1    1    2  504  502  0.10353801900E+02 -0.24413779331E+03 -0.25927730371E+03  0.35627964235E+03  0.00000000000E+00 0.  1.
<mgrwt>
<rscale>  4 0.26035242E+03</rscale>
<asrwt>0</asrwt>
<pdfrwt beam="1">  1       21 0.33660786E-01 0.26035242E+03</pdfrwt>
<pdfrwt beam="2">  1       21 0.94916392E-01 0.26035242E+03</pdfrwt>
<totfact> 0.75515016E+03</totfact>
</mgrwt>
</event>
