<event>
 5    0  0.1911311E+001  0.1880405E+03  0.7546771E-02  0.1160241E+00
         21   -1    0    0  502  501  0.00000000000E+00  0.00000000000E+00  0.42802687900E+02  0.42802687900E+02  0.00000000000E+00 0.  1.
         21   -1    0    0  504  502 -0.00000000000E+00 -0.00000000000E+00 -0.21660958006E+04  0.21660958006E+04  0.00000000000E+00 0.  1.
         25    1    1    2    0    0 -0.23362735525E+02 -0.21029602673E+03 -0.59134318048E+03  0.64037644661E+03  0.12500000000E+03 0.  0.
         21    1    1    2  503  501 -0.43866637417E+02  0.95431903249E+02 -0.16824507063E+03  0.19833792837E+03  0.00000000000E+00 0.  1.
         21    1    1    2  504  503  0.67229372942E+02  0.11486412348E+03 -0.13637048615E+04  0.13701841135E+04  0.00000000000E+00 0.  1.
<mgrwt>
<rscale>  4 0.18804054E+03</rscale>
<asrwt>0</asrwt>
<pdfrwt beam="1">  1       21 0.65850287E-02 0.18804054E+03</pdfrwt>
<pdfrwt beam="2">  1       21 0.33324552E+00 0.18804054E+03</pdfrwt>
<totfact> 0.37070962E+03</totfact>
</mgrwt>
</event>
<event>
 5    0  0.1911311E+001  0.4644124E+03  0.7546771E-02  0.1023509E+00
         21   -1    0    0  504  501  0.00000000000E+00  0.00000000000E+00  0.80288771689E+03  0.80288771689E+03  0.00000000000E+00 0.  1.
         21   -1    0    0  503  502 -0.00000000000E+00 -0.00000000000E+00 -0.34186518966E+03  0.34186518966E+03  0.00000000000E+00 0.  1.
         25    1    1    2    0    0 -0.18437020749E+03  0.39458028682E+03  0.92889779942E+01  0.45320774626E+03  0.12500000000E+03 0.  0.
         21    1    1    2  503  501  0.22888306540E+03 -0.41551523416E+03  0.41174659665E+03  0.62815255097E+03  0.00000000000E+00 0.  1.
         21    1    1    2  504  502 -0.44512857908E+02  0.20934947339E+02  0.39986952583E+02  0.63392609318E+02  0.00000000000E+00 0.  1.
<mgrwt>
<rscale>  4 0.46441241E+03</rscale>
<asrwt>0</asrwt>
<pdfrwt beam="1">  1       21 0.12352119E+00 0.46441241E+03</pdfrwt>
<pdfrwt beam="2">  1       21 0.52594645E-01 0.46441241E+03</pdfrwt>
<totfact> 0.14312727E+03</totfact>
</mgrwt>
</event>
<event>
 5    0  0.1911311E+001  0.2819427E+03  0.7546771E-02  0.1094633E+00
         21   -1    0    0  504  501  0.00000000000E+00  0.00000000000E+00  0.42535262050E+03  0.42535262050E+03  0.00000000000E+00 0.  1.
         21   -1    0    0  501  502 -0.00000000000E+00 -0.00000000000E+00 -0.72400101638E+03  0.72400101638E+03  0.00000000000E+00 0.  1.
         25    1    1    2    0    0 -0.32479705722E+03  0.57462346442E+02 -0.77766553555E+02  0.36120310975E+03  0.12500000000E+03 0.  0.
         21    1    1    2  503  502  0.16256840074E+03 -0.18560202585E+03  0.20106426145E+03  0.31828200413E+03  0.00000000000E+00 0.  1.
         21    1    1    2  504  503  0.16222865649E+03  0.12813967941E+03 -0.42194610378E+03  0.46986852301E+03  0.00000000000E+00 0.  1.
<mgrwt>
<rscale>  4 0.28194268E+03</rscale>
<asrwt>0</asrwt>
<pdfrwt beam="1">  1       21 0.65438865E-01 0.28194268E+03</pdfrwt>
<pdfrwt beam="2">  1       21 0.11138477E+00 0.28194268E+03</pdfrwt>
<totfact> 0.12650214E+03</totfact>
</mgrwt>
</event>
<event>
 5    0  0.2557415E+001  0.2517795E+03  0.7546771E-02  0.1112185E+00
         21   -1    0    0  502  501  0.00000000000E+00  0.00000000000E+00  0.20517507880E+03  0.20517507880E+03  0.00000000000E+00 0. -1.
         21   -1    0    0  504  502 -0.00000000000E+00 -0.00000000000E+00 -0.30405189762E+03  0.30405189762E+03  0.00000000000E+00 0. -1.
         25    1    1    2    0    0 -0.20403956842E+03  0.90754211549E+02 -0.73847493241E+02  0.26635863915E+03  0.12500000000E+03 0.  0.
         21    1    1    2  503  501  0.19338218446E+02  0.18475852690E+02  0.65690009834E+00  0.26753604299E+02  0.00000000000E+00 0.  1.
         21    1    1    2  504  503  0.18470134997E+03 -0.10923006424E+03 -0.25686225674E+02  0.21611473296E+03  0.00000000000E+00 0. -1.
<mgrwt>
<rscale>  4 0.25177949E+03</rscale>
<asrwt>0</asrwt>
<pdfrwt beam="1">  1       21 0.31565397E-01 0.25177949E+03</pdfrwt>
<pdfrwt beam="2">  1       21 0.46777215E-01 0.25177949E+03</pdfrwt>
<totfact> 0.41069714E+04</totfact>
</mgrwt>
</event>
<event>
 5    0  0.1911311E+001  0.2453858E+03  0.7546771E-02  0.1116256E+00
         21   -1    0    0  504  501  0.00000000000E+00  0.00000000000E+00  0.15005958961E+04  0.15005958961E+04  0.00000000000E+00 0. -1.
         21   -1    0    0  503  502 -0.00000000000E+00 -0.00000000000E+00 -0.38297881089E+02  0.38297881089E+02  0.00000000000E+00 0. -1.
         25    1    1    2    0    0 -0.10773089921E+03  0.18161290416E+03  0.82436362279E+03  0.86011021164E+03  0.12500000000E+03 0.  0.
         21    1    1    2  503  501  0.69556220957E+02 -0.32353581201E+02  0.24484204635E+03  0.25657835012E+03  0.00000000000E+00 0. -1.
         21    1    1    2  504  502  0.38174678248E+02 -0.14925932295E+03  0.39309234591E+03  0.42220521546E+03  0.00000000000E+00 0. -1.
<mgrwt>
<rscale>  4 0.24538581E+03</rscale>
<asrwt>0</asrwt>
<pdfrwt beam="1">  1       21 0.23086086E+00 0.24538581E+03</pdfrwt>
<pdfrwt beam="2">  1       21 0.58919829E-02 0.24538581E+03</pdfrwt>
<totfact> 0.16878908E+04</totfact>
</mgrwt>
</event>
