<event>
 5    0  0.1856407E+000  0.3007234E+03  0.7546771E-02  0.1084880E+00
         21   -1    0    0  502  501  0.00000000000E+00  0.00000000000E+00  0.17809471601E+04  0.17809471601E+04  0.00000000000E+00 0.  1.
         21   -1    0    0  503  502 -0.00000000000E+00 -0.00000000000E+00 -0.13413541905E+03  0.13413541905E+03  0.00000000000E+00 0.  1.
         25    1    1    2    0    0 -0.16943132357E+03 -0.25558439071E+03  0.14602253345E+04  0.14973020342E+04  0.12500000000E+03 0.  0.
         21    1    1    2  503  504  0.15449439487E+03  0.54017771705E+02  0.41105575547E+02  0.16874864754E+03  0.00000000000E+00 0.  1.
         21    1    1    2  504  501  0.14936928701E+02  0.20156661901E+03  0.14548083107E+03  0.24903189745E+03  0.00000000000E+00 0.  1.
<mgrwt>
<rscale>  4 0.30072340E+03</rscale>
<asrwt>0</asrwt>
<pdfrwt beam="1">  1       21 0.27399185E+00 0.30072340E+03</pdfrwt>
<pdfrwt beam="2">  1       21 0.20636220E-01 0.30072340E+03</pdfrwt>
<totfact> 0.93911592E+02</totfact>
</mgrwt>
</event>
<event>
 5    0  0.1856407E+000  0.2928451E+03  0.7546771E-02  0.1088873E+00
         21   -1    0    0  502  501  0.00000000000E+00  0.00000000000E+00  0.57311408089E+03  0.57311408089E+03  0.00000000000E+00 0. -1.
         21   -1    0    0  503  502 -0.00000000000E+00 -0.00000000000E+00 -0.31696914960E+03  0.31696914960E+03  0.00000000000E+00 0.  1.
         25    1    1    2    0    0 -0.60185788072E+02 -0.25789709332E+03  0.46573938694E+03  0.55015581100E+03  0.12500000000E+03 0.  0.
         21    1    1    2  503  504  0.97403766029E+01  0.26123089777E+02 -0.90503210465E+01  0.29312097620E+02  0.00000000000E+00 0.  1.
         21    1    1    2  504  501  0.50445411469E+02  0.23177400354E+03 -0.20054413461E+03  0.31061532187E+03  0.00000000000E+00 0.  1.
<mgrwt>
<rscale>  4 0.29284508E+03</rscale>
<asrwt>0</asrwt>
<pdfrwt beam="1">  1       21 0.88171397E-01 0.29284508E+03</pdfrwt>
<pdfrwt beam="2">  1       21 0.48764485E-01 0.29284508E+03</pdfrwt>
<totfact> 0.41364008E+03</totfact>
</mgrwt>
</event>
<event>
 5    0  0.2372159E+000  0.2393328E+03  0.7546771E-02  0.1120238E+00
         21   -1    0    0  502  501  0.00000000000E+00  0.00000000000E+00  0.21399431600E+03  0.21399431600E+03  0.00000000000E+00 0. -1.
         21   -1    0    0  503  502 -0.00000000000E+00 -0.00000000000E+00 -0.62269559202E+03  0.62269559202E+03  0.00000000000E+00 0.  1.
         25    1    1    2    0    0 -0.15836766131E+03  0.13415416793E+03  0.10570740770E+03  0.26434203783E+03  0.12500000000E+03 0.  0.
         21    1    1    2  503  504  0.10590837011E+03 -0.15976303774E+03 -0.41358956425E+03  0.45584771442E+03  0.00000000000E+00 0.  1.
         21    1    1    2  504  501  0.52459291200E+02  0.25608869807E+02 -0.10081911946E+03  0.11650015577E+03  0.00000000000E+00 0. -1.
<mgrwt>
<rscale>  4 0.23933275E+03</rscale>
<asrwt>0</asrwt>
<pdfrwt beam="1">  1       21 0.32922203E-01 0.23933275E+03</pdfrwt>
<pdfrwt beam="2">  1       21 0.95799319E-01 0.23933275E+03</pdfrwt>
<totfact> 0.78160571E+03</totfact>
</mgrwt>
</event>
<event>
 5    0  0.1856407E+000  0.3064628E+03  0.7546771E-02  0.1082054E+00
         21   -1    0    0  502  501  0.00000000000E+00  0.00000000000E+00  0.21267478620E+03  0.21267478620E+03  0.00000000000E+00 0.  1.
         21   -1    0    0  503  502 -0.00000000000E+00 -0.00000000000E+00 -0.87296622744E+03  0.87296622744E+03  0.00000000000E+00 0.  1.
         25    1    1    2    0    0 -0.23216139720E+03  0.15619071546E+03  0.57285574766E+02  0.31177089509E+03  0.12500000000E+03 0.  0.
         21    1    1    2  503  504  0.53027093143E+02 -0.34465547047E+01 -0.10665278189E+03  0.11915774097E+03  0.00000000000E+00 0. -1.
         21    1    1    2  504  501  0.17913430406E+03 -0.15274416075E+03 -0.61092423412E+03  0.65471237759E+03  0.00000000000E+00 0.  1.
<mgrwt>
<rscale>  4 0.30646281E+03</rscale>
<asrwt>0</asrwt>
<pdfrwt beam="1">  1       21 0.32719197E-01 0.30646281E+03</pdfrwt>
<pdfrwt beam="2">  1       21 0.13430250E+00 0.30646281E+03</pdfrwt>
<totfact> 0.33052390E+03</totfact>
</mgrwt>
</event>
<event>
 5    0  0.1856407E+000  0.5268706E+03  0.7546771E-02  0.1007827E+00
         21   -1    0    0  502  501  0.00000000000E+00  0.00000000000E+00  0.33898004876E+03  0.33898004876E+03  0.00000000000E+00 0. -1.
         21   -1    0    0  503  502 -0.00000000000E+00 -0.00000000000E+00 -0.11826222112E+04  0.11826222112E+04  0.00000000000E+00 0. -1.
         25    1    1    2    0    0 -0.39570209428E+03 -0.30231322933E+03  0.15637821272E+02  0.51365647810E+03  0.12500000000E+03 0.  0.
         21    1    1    2  503  504  0.12249310001E+03  0.53857158844E+02 -0.11238699580E+03  0.17474550047E+03  0.00000000000E+00 0.  1.
         21    1    1    2  504  501  0.27320899427E+03  0.24845607049E+03 -0.74689298786E+03  0.83320028134E+03  0.00000000000E+00 0. -1.
<mgrwt>
<rscale>  4 0.52347484E+03</rscale>
<asrwt>0</asrwt>
<pdfrwt beam="1">  1       21 0.52150778E-01 0.52687058E+03</pdfrwt>
<pdfrwt beam="2">  1       21 0.18194187E+00 0.52687058E+03</pdfrwt>
<totfact> 0.49272594E+02</totfact>
</mgrwt>
</event>
<event>
 5    0  0.1856407E+000  0.2549756E+03  0.7546771E-02  0.1110200E+00
         21   -1    0    0  502  501  0.00000000000E+00  0.00000000000E+00  0.10081005916E+04  0.10081005916E+04  0.00000000000E+00 0.  1.
         21   -1    0    0  503  502 -0.00000000000E+00 -0.00000000000E+00 -0.10466659002E+03  0.10466659002E+03  0.00000000000E+00 0. -1.
         25    1    1    2    0    0  0.13653574774E+02  0.22181324775E+03  0.81570141363E+03  0.85462350376E+03  0.12500000000E+03 0.  0.
         21    1    1    2  503  504  0.41635081162E+01 -0.60990452887E+02 -0.19339212050E+02  0.64118447158E+02  0.00000000000E+00 0.  1.
         21    1    1    2  504  501 -0.17817082890E+02 -0.16082279486E+03  0.10707179996E+03  0.19402523067E+03  0.00000000000E+00 0. -1.
<mgrwt>
<rscale>  4 0.25497556E+03</rscale>
<asrwt>0</asrwt>
<pdfrwt beam="1">  1       21 0.15509239E+00 0.25497556E+03</pdfrwt>
<pdfrwt beam="2">  1       21 0.16102553E-01 0.25497556E+03</pdfrwt>
<totfact> 0.90319519E+03</totfact>
</mgrwt>
</event>
<event>
 5    0  0.1856407E+000  0.3019630E+03  0.7546771E-02  0.1085113E+00
         21   -1    0    0  502  501  0.00000000000E+00  0.00000000000E+00  0.79016545335E+02  0.79016545335E+02  0.00000000000E+00 0.  1.
         21   -1    0    0  503  502 -0.00000000000E+00 -0.00000000000E+00 -0.14725296985E+04  0.14725296985E+04  0.00000000000E+00 0.  1.
         25    1    1    2    0    0  0.47013768060E+02 -0.26325095247E+03 -0.31558933241E+03  0.43212612174E+03  0.12500000000E+03 0.  0.
         21    1    1    2  503  504  0.48654325965E+02  0.12217838622E+03 -0.47113300155E+03  0.48914323735E+03  0.00000000000E+00 0.  1.
         21    1    1    2  504  501 -0.95668094025E+02  0.14107256625E+03 -0.60679081920E+03  0.63027688473E+03  0.00000000000E+00 0.  1.
<mgrwt>
<rscale>  4 0.30025497E+03</rscale>
<asrwt>0</asrwt>
<pdfrwt beam="1">  1       21 0.12156391E-01 0.30196299E+03</pdfrwt>
<pdfrwt beam="2">  1       21 0.22654304E+00 0.30196299E+03</pdfrwt>
<totfact> 0.48266776E+03</totfact>
</mgrwt>
</event>
<event>
 5    0  0.1856407E+000  0.3271748E+03  0.7546771E-02  0.1072394E+00
         21   -1    0    0  502  501  0.00000000000E+00  0.00000000000E+00  0.12915666235E+03  0.12915666235E+03  0.00000000000E+00 0. -1.
         21   -1    0    0  503  502 -0.00000000000E+00 -0.00000000000E+00 -0.12729889585E+04  0.12729889585E+04  0.00000000000E+00 0.  1.
         25    1    1    2    0    0 -0.26581934852E+03 -0.14407774894E+03 -0.14848734595E+03  0.35929349520E+03  0.12500000000E+03 0.  0.
         21    1    1    2  503  504  0.14853873762E+03  0.53472132447E+02 -0.41890625842E+03  0.44766670511E+03  0.00000000000E+00 0.  1.
         21    1    1    2  504  501  0.11728061090E+03  0.90605616497E+02 -0.57643869178E+03  0.59518542054E+03  0.00000000000E+00 0.  1.
<mgrwt>
<rscale>  4 0.32717476E+03</rscale>
<asrwt>0</asrwt>
<pdfrwt beam="1">  1       21 0.19870256E-01 0.32717476E+03</pdfrwt>
<pdfrwt beam="2">  1       21 0.19584445E+00 0.32717476E+03</pdfrwt>
<totfact> 0.30170902E+03</totfact>
</mgrwt>
</event>
<event>
 5    0  0.2257915E+000  0.2551789E+03  0.7546771E-02  0.1110075E+00
         21   -1    0    0  502  501  0.00000000000E+00  0.00000000000E+00  0.13900084494E+03  0.13900084494E+03  0.00000000000E+00 0. -1.
         21   -1    0    0  503  502 -0.00000000000E+00 -0.00000000000E+00 -0.43304940858E+03  0.43304940858E+03  0.00000000000E+00 0. -1.
         25    1    1    2    0    0 -0.15299789068E+03  0.16150204308E+03 -0.14325854724E+03  0.29264189008E+03  0.12500000000E+03 0.  0.
         21    1    1    2  503  504  0.20541639854E+02 -0.69359742379E+02 -0.32298738135E+02  0.79220838899E+02  0.00000000000E+00 0. -1.
         21    1    1    2  504  501  0.13245625083E+03 -0.92142300699E+02 -0.11849127826E+03  0.20018752455E+03  0.00000000000E+00 0. -1.
<mgrwt>
<rscale>  4 0.25517889E+03</rscale>
<asrwt>0</asrwt>
<pdfrwt beam="1">  1       21 0.21384746E-01 0.25517889E+03</pdfrwt>
<pdfrwt beam="2">  1       21 0.66622985E-01 0.25517889E+03</pdfrwt>
<totfact> 0.40846554E+04</totfact>
</mgrwt>
</event>
<event>
 5    0  0.1856407E+000  0.4145524E+03  0.7546771E-02  0.1038854E+00
         21   -1    0    0  502  501  0.00000000000E+00  0.00000000000E+00  0.15918369216E+04  0.15918369216E+04  0.00000000000E+00 0.  1.
         21   -1    0    0  503  502 -0.00000000000E+00 -0.00000000000E+00 -0.57484995288E+03  0.57484995288E+03  0.00000000000E+00 0.  1.
         25    1    1    2    0    0  0.38307948336E+03 -0.11481717781E+03  0.14598391798E+04  0.15187785572E+04  0.12500000000E+03 0.  0.
         21    1    1    2  503  504 -0.33790581680E+03  0.81616755667E+02 -0.20506206067E+03  0.40359891546E+03  0.00000000000E+00 0.  1.
         21    1    1    2  504  501 -0.45173666556E+02  0.33200422138E+02 -0.23779015043E+03  0.24430940183E+03  0.00000000000E+00 0.  1.
<mgrwt>
<rscale>  4 0.41455242E+03</rscale>
<asrwt>0</asrwt>
<pdfrwt beam="1">  1       21 0.24489799E+00 0.41455242E+03</pdfrwt>
<pdfrwt beam="2">  1       21 0.88438455E-01 0.41455242E+03</pdfrwt>
<totfact> 0.62068848E+01</totfact>
</mgrwt>
</event>
<event>
 5    0  0.1856407E+000  0.3453353E+03  0.7546771E-02  0.1064546E+00
         21   -1    0    0  502  501  0.00000000000E+00  0.00000000000E+00  0.12200145804E+04  0.12200145804E+04  0.00000000000E+00 0. -1.
         21   -1    0    0  503  502 -0.00000000000E+00 -0.00000000000E+00 -0.20870031757E+03  0.20870031757E+03  0.00000000000E+00 0. -1.
         25    1    1    2    0    0 -0.18383111928E+03  0.26668121527E+03  0.10111560104E+04  0.10690997280E+04  0.12500000000E+03 0.  0.
         21    1    1    2  503  504 -0.17393672027E+02 -0.28999696087E+02  0.32015817164E+02  0.46567528906E+02  0.00000000000E+00 0.  1.
         21    1    1    2  504  501  0.20122479131E+03 -0.23768151918E+03 -0.31857564679E+02  0.31304764114E+03  0.00000000000E+00 0. -1.
<mgrwt>
<rscale>  4 0.34533533E+03</rscale>
<asrwt>0</asrwt>
<pdfrwt beam="1">  1       21 0.18769455E+00 0.34533533E+03</pdfrwt>
<pdfrwt beam="2">  1       21 0.32107742E-01 0.34533533E+03</pdfrwt>
<totfact> 0.13365992E+03</totfact>
</mgrwt>
</event>
<event>
 5    0  0.1856407E+000  0.4248942E+03  0.7546771E-02  0.1035485E+00
         21   -1    0    0  502  501  0.00000000000E+00  0.00000000000E+00  0.70501306240E+03  0.70501306240E+03  0.00000000000E+00 0. -1.
         21   -1    0    0  503  502 -0.00000000000E+00 -0.00000000000E+00 -0.21119460386E+04  0.21119460386E+04  0.00000000000E+00 0. -1.
         25    1    1    2    0    0  0.45370882770E+03 -0.21443198566E+03  0.43268654889E+03  0.67429624528E+03  0.12500000000E+03 0.  0.
         21    1    1    2  503  504 -0.40116292130E+03 -0.58971048226E+02 -0.18188328812E+04  0.18634812378E+04  0.00000000000E+00 0. -1.
         21    1    1    2  504  501 -0.52545906398E+02  0.27340303389E+03 -0.20786643904E+02  0.27918161792E+03  0.00000000000E+00 0. -1.
<mgrwt>
<rscale>  4 0.42489423E+03</rscale>
<asrwt>0</asrwt>
<pdfrwt beam="1">  1       21 0.10846355E+00 0.42489423E+03</pdfrwt>
<pdfrwt beam="2">  1       21 0.32491478E+00 0.42489423E+03</pdfrwt>
<totfact> 0.12388386E+01</totfact>
</mgrwt>
</event>
