<LesHouchesEvents version="3.0">
  <!--
  <scalesfunctionalform>
    muR  H_T/2 := sum_i mT(i)/2, i=final state
    muF1 H_T/2 := sum_i mT(i)/2, i=final state
    muF2 H_T/2 := sum_i mT(i)/2, i=final state
    QES  H_T/2 := sum_i mT(i)/2, i=final state
  </scalesfunctionalform>
HERWIG6   
  -->
  <header>
       38
  </header>
  <init>
   2212   2212 0.65000000D+04 0.65000000D+04 -1 -1   244800   244800 -4   1
 0.61825984D-04 0.19143400D-05 0.18402180D-05     66
  </init>
  <event>
  7     66 0.18402180E-05 0.50797351E+02 0.75467711E-02 0.92280971E-01
       -2 -1    0    0    0  501 0.00000000E+00 0.00000000E+00 0.85913659E+03 0.85913665E+03 0.32000000E+00 0.0000E+00 0.9000E+01
        2 -1    0    0  503    0 0.00000000E+00 0.00000000E+00 -.48028795E+03 0.48028805E+03 0.32000000E+00 0.0000E+00 0.9000E+01
       23  2    1    2    0    0 0.60249920E+02 -.60742859E+03 0.19788458E+03 0.65008299E+03 0.10416355E+03 0.0000E+00 0.0000E+00
       25  1    1    2    0    0 -.66940463E+02 0.59556327E+03 0.21800568E+03 0.64986776E+03 0.12500000E+03 0.0000E+00 0.9000E+01
        1  1    3    3  502    0 0.11524944E+02 -.14396838E+03 0.16538644E+01 0.14443877E+03 0.32000000E+00 0.0000E+00 0.9000E+01
       -1  1    3    3    0  502 0.48724976E+02 -.46346021E+03 0.19623072E+03 0.50564422E+03 0.32000000E+00 0.0000E+00 0.9000E+01
       21  1    1    2  503  501 0.66905425E+01 0.11865319E+02 -.37041615E+02 0.39473952E+02 0.75000000E+00 0.0000E+00 0.9000E+01
#aMCatNLO 2  0  0  2  1 0.33255688D+01 0.00000000D+00  -5  6  0 0.00000000D+00 0.00000000D+00 0.00000000D+00 0.00000000D+00 0.00000000D+00
  <mgrwgt>
 0.2726469361D-03    1    2    0
 0.615776279157836D+03 0.000000000000000D+00 0.000000000000000D+00 0.615776279157836D+03
 0.615776279157836D+03 0.000000000000000D+00 0.000000000000000D+00 -.615776279157836D+03
 0.617714873261924D+03 -.635994622188553D+02 0.601488357619134D+03 0.106549848945826D+02
 0.150574732716107D+03 0.123461546245985D+02 -.142508375083171D+03 -.470285618498689D+02
 0.463262952337640D+03 0.512533075942569D+02 -.458979982535963D+03 0.363735769552863D+02
 0.000000000000000D+00 0.000000000000000D+00 0.000000000000000D+00 -.000000000000000D+00
 0.616684314958882D+03 0.000000000000000D+00 0.000000000000000D+00 0.616684314958882D+03
 0.669109919721844D+03 0.000000000000000D+00 0.000000000000000D+00 -.669109919721844D+03
 0.612303164195502D+03 -.669404630584089D+02 0.595563271690125D+03 0.106549848945826D+02
 0.151889859250307D+03 0.115245939442496D+02 -.143965368918471D+03 -.470285618498689D+02
 0.467434863960203D+03 0.487253266289945D+02 -.463463221291473D+03 0.363735769552863D+02
 0.541663472747139D+02 0.669054248516476D+01 0.118653185198192D+02 -.524256047629625D+02
0.728710404891D-04 0.000000000000D+00 0.000000000000D+00 0.325366821793D-06 0.109330531423D-07  6 -2 2 25 1 -1 21 2 0.13217432D+00 0.73890156D-01 0.38209428D+06 0.38209428D+06 0.38209428D+06 0.10768644D+01  1  2  1  2  6  2        2 0.272646936058D-03 0.100000000000D+01
  </mgrwgt>
  </event>
  <event>
  7     66 0.18402180E-05 0.74472933E+02 0.75467711E-02 0.91856541E-01
       21 -1    0    0  503  501 0.00000000E+00 0.00000000E+00 0.32360210E+03 0.32360297E+03 0.75000000E+00 0.0000E+00 0.9000E+01
        2 -1    0    0  501    0 0.00000000E+00 0.00000000E+00 -.13397146E+04 0.13397147E+04 0.32000000E+00 0.0000E+00 0.9000E+01
       23  2    1    2    0    0 0.15831266E+02 -.57389618E+03 -.30022405E+03 0.65461972E+03 0.93728589E+02 0.0000E+00 0.0000E+00
       25  1    1    2    0    0 -.13067868E+03 0.56227334E+03 -.63811564E+03 0.86950836E+03 0.12500000E+03 0.0000E+00 0.9000E+01
        1  1    3    3  502    0 -.32154212E+02 -.32802986E+03 -.19455746E+03 0.38274036E+03 0.32000000E+00 0.0000E+00 0.9000E+01
        2  1    1    2  503    0 0.11484741E+03 0.11622839E+02 -.77772840E+02 0.13918957E+03 0.32000000E+00 0.0000E+00 0.9000E+01
       -1  1    3    3    0  502 0.47985478E+02 -.24586632E+03 -.10566660E+03 0.27187936E+03 0.32000000E+00 0.0000E+00 0.9000E+01
#aMCatNLO 2  0  0  1  1 0.19120532D+02 0.00000000D+00  -5  6  0 0.00000000D+00 0.00000000D+00 0.00000000D+00 0.00000000D+00 0.00000000D+00
  <mgrwgt>
 0.3573143937D-04    1    2    0
 0.597737403762037D+03 0.000000000000000D+00 0.000000000000000D+00 0.597737403762037D+03
 0.597737403762037D+03 0.000000000000000D+00 0.000000000000000D+00 -.597737403762037D+03
 0.600598171606737D+03 -.729091780119556D+02 0.568119750840071D+03 -.130450619793054D+03
 0.328973695213862D+03 -.397980557731621D+00 -.324816910432765D+03 0.521297271338678D+02
 0.000000000000000D+00 0.000000000000000D+00 0.000000000000000D+00 0.000000000000000D+00
 0.265902940703476D+03 0.733071585696872D+02 -.243302840407306D+03 0.783208926591865D+02
 0.663478262342147D+03 0.000000000000000D+00 0.000000000000000D+00 0.663478262342147D+03
 0.653427496316028D+03 0.000000000000000D+00 0.000000000000000D+00 -.653427496316028D+03
 0.604872371345467D+03 -.130678677857421D+03 0.562273336168569D+03 -.130450619793054D+03
 0.333699979358835D+03 -.321551453965071D+02 -.328030813183098D+03 0.521297271338678D+02
 0.115870774219641D+03 0.114847411963620D+03 0.116228389735804D+02 0.100507660261192D+02
 0.262462633734232D+03 0.479864112903083D+02 -.245865361959051D+03 0.783208926591865D+02
0.395334798069D-06 0.000000000000D+00 0.000000000000D+00 0.887427280211D-05 0.751330793410D-10  6 21 2 25 1 2 -1 2 0.49784992D-01 0.20610995D+00 0.41356443D+06 0.41356443D+06 0.41356443D+06 0.10743851D+01  1  2  1  5  5  1       -2 0.357314393671D-04 0.100000000000D+01
  </mgrwgt>
  </event>
  <event>
  6     66 0.18402180E-05 0.24846877E+02 0.75467711E-02 0.94654404E-01
       -2 -1    0    0    0  501 0.00000000E+00 0.00000000E+00 0.21549450E+03 0.21549473E+03 0.32000000E+00 0.0000E+00 0.9000E+01
        2 -1    0    0  501    0 -.00000000E+00 -.00000000E+00 -.20536084E+04 0.20536084E+04 0.32000000E+00 0.0000E+00 0.9000E+01
       23  2    1    2    0    0 -.47727517E+03 0.98039335E+02 -.16644927E+04 0.17369635E+04 0.95409658E+02 0.0000E+00 0.0000E+00
       25  1    1    2    0    0 0.47727517E+03 -.98039335E+02 -.17362123E+03 0.53213967E+03 0.12500000E+03 0.0000E+00 0.9000E+01
        1  1    3    3  502    0 -.45812055E+03 0.74364473E+02 -.15191830E+04 0.15884966E+04 0.32000000E+00 0.0000E+00 0.9000E+01
       -1  1    3    3    0  502 -.19154618E+02 0.23674862E+02 -.14530973E+03 0.14846689E+03 0.32000000E+00 0.0000E+00 0.9000E+01
#aMCatNLO 1  0  0  5  2 0.10036573D+01 0.00000000D+00  -5  6  0 0.00000000D+00 0.00000000D+00 0.00000000D+00 0.00000000D+00 0.00000000D+00
  <mgrwgt>
 0.1004753115D-01    7    2    0
 0.665238007215756D+03 0.000000000000000D+00 0.000000000000000D+00 0.665238007215756D+03
 0.665238007215756D+03 -.000000000000000D+00 -.000000000000000D+00 -.665238007215756D+03
 0.667689008823113D+03 0.477275167240792D+03 -.980393354793382D+02 0.439067552817598D+03
 0.610337723610522D+03 -.458125487346518D+03 0.743650438155552D+02 -.396362226964048D+03
 0.524492819978780D+02 -.191496798942738D+02 0.236742916637829D+02 -.427053258535502D+02
 0.000000000000000D+00 0.000000000000000D+00 0.000000000000000D+00 -.000000000000000D+00
 0.665238007215756D+03 0.000000000000000D+00 0.000000000000000D+00 0.665238007215756D+03
 0.665238007215756D+03 -.000000000000000D+00 -.000000000000000D+00 -.665238007215756D+03
 0.667597603142553D+03 0.477236481478927D+03 -.979915091963573D+02 0.438981280458194D+03
 0.610420821535871D+03 -.458160855015113D+03 0.744087680191145D+02 -.396441099708678D+03
 0.498516489614396D+02 -.187212950042030D+02 0.231245867087499D+02 -.399994188343995D+02
 0.260594079164859D+01 -.354331459611143D+00 0.458154468492920D+00 -.254076191511678D+01
0.541006719004D-06 0.000000000000D+00 0.000000000000D+00 0.358782106241D-06 0.000000000000D+00  6 -2 2 25 1 -1 21 0 0.33153020D-01 0.31593978D+00 0.24879682D+06 0.24879682D+06 0.24879682D+06 0.10906168D+01  1  2  2  4  6  5       -1 0.365966854674D-05 0.100000000000D+01
0.115256812490D-06 0.000000000000D+00 -.207760825132D-08 0.358782106241D-06 0.000000000000D+00  6 -2 2 25 1 -1 21 2 0.33153020D-01 0.31593978D+00 0.24879682D+06 0.24879682D+06 0.24879682D+06 0.10906168D+01  1  2  3  4  6  5       -1 0.927363580507D-06 0.100000000000D+01
-.144746599781D-06 0.000000000000D+00 0.000000000000D+00 0.358782106241D-06 0.000000000000D+00  6 -2 2 25 1 -1 21 2 0.33153020D-01 0.31593978D+00 0.24879682D+06 0.24879682D+06 0.24879682D+06 0.10906168D+01  1  2 15  4  6  5       -1 -.116464026845D-05 0.100000000000D+01
-.369496471489D-03 0.000000000000D+00 0.000000000000D+00 0.358782106241D-06 0.000000000000D+00  6 -2 2 25 1 -1 21 2 0.33153020D-01 0.31593978D+00 0.24879682D+06 0.24879682D+06 0.24879682D+06 0.10906168D+01  1  2  4  4  6  5       -1 -.297299190722D-02 0.100000000000D+01
-.796387287331D-04 0.000000000000D+00 0.000000000000D+00 0.358782106241D-06 0.000000000000D+00  6 -2 2 25 1 -1 21 2 0.33153020D-01 0.31593978D+00 0.24879682D+06 0.24879682D+06 0.24879682D+06 0.10906168D+01  1  2  5  4  6  5       -1 -.640778232795D-03 0.100000000000D+01
0.913747958671D-04 0.000000000000D+00 -.000000000000D+00 0.358782106241D-06 0.000000000000D+00  6 -2 2 25 1 -1 21 2 0.33153020D-01 0.31593978D+00 0.24879682D+06 0.24879682D+06 0.24879682D+06 0.10906168D+01  1  2  6  4  6  5       -1 0.735207368941D-03 0.100000000000D+01
0.160604445063D-02 0.000000000000D+00 0.000000000000D+00 0.358782106241D-06 0.450750570537D-04  6 -2 2 25 1 -1 21 2 0.33153020D-01 0.31593978D+00 0.24873611D+06 0.24873611D+06 0.24873611D+06 0.10906247D+01  1  2 11  4  6  5       -1 0.129226715257D-01 0.100000000000D+01
  </mgrwgt>
  </event>
  <event>
  7     66 0.18402180E-05 0.57544640E+02 0.75467711E-02 0.94553419E-01
       -2 -1    0    0    0  501 0.00000000E+00 0.00000000E+00 0.72078156E+03 0.72078163E+03 0.32000000E+00 0.0000E+00 0.9000E+01
        2 -1    0    0  503    0 0.00000000E+00 0.00000000E+00 -.11179054E+04 0.11179055E+04 0.32000000E+00 0.0000E+00 0.9000E+01
       23  2    1    2    0    0 -.21506819E+03 0.43213622E+03 0.13889425E+03 0.51061363E+03 0.91862026E+02 0.0000E+00 0.0000E+00
       25  1    1    2    0    0 0.19503757E+03 -.44224222E+03 0.23846113E+03 0.55326896E+03 0.12500000E+03 0.0000E+00 0.9000E+01
        1  1    3    3  502    0 -.15674713E+03 0.26731881E+03 0.48050871E+02 0.31358890E+03 0.32000000E+00 0.0000E+00 0.9000E+01
       -1  1    3    3    0  502 -.58321067E+02 0.16481741E+03 0.90843382E+02 0.19702474E+03 0.32000000E+00 0.0000E+00 0.9000E+01
       21  1    1    2  503  501 0.20030618E+02 0.10106002E+02 -.77447925E+03 0.77480451E+03 0.75000000E+00 0.0000E+00 0.9000E+01
#aMCatNLO 2  0  0  2  1 0.21239932D+03 0.00000000D+00  -5  6  0 0.00000000D+00 0.00000000D+00 0.00000000D+00 0.00000000D+00 0.00000000D+00
  <mgrwgt>
 0.2889183175D-02    1    2    0
 0.497228754545958D+03 0.000000000000000D+00 0.000000000000000D+00 0.497228754545958D+03
 0.497228754545958D+03 0.000000000000000D+00 0.000000000000000D+00 -.497228754545958D+03
 0.500841964875082D+03 0.205128790883291D+03 -.437150920369532D+03 0.451544654576162D+02
 0.316808896655922D+03 -.150364260638405D+03 0.270540988101711D+03 -.675724787169925D+02
 0.176806647560912D+03 -.547645302448854D+02 0.166609932267821D+03 0.224180132593762D+02
 0.000000000000000D+00 0.000000000000000D+00 0.000000000000000D+00 -.000000000000000D+00
 0.497467397271493D+03 0.000000000000000D+00 0.000000000000000D+00 0.497467397271493D+03
 0.161973493456251D+04 0.000000000000000D+00 0.000000000000000D+00 -.161973493456251D+04
 0.501280122575721D+03 0.195037574899432D+03 -.442242218604370D+03 0.451544654576162D+02
 0.317168861187137D+03 -.156748319590375D+03 0.267320053367458D+03 -.675724787169925D+02
 0.176261574298636D+03 -.583198731800811D+02 0.164816163187945D+03 0.224180132593762D+02
 0.112249177377251D+04 0.200306178710242D+02 0.101060020489672D+02 -.112226753729102D+04
0.138230391011D-02 0.000000000000D+00 0.000000000000D+00 0.414546356424D-04 0.927645979398D-06  6 -2 2 25 1 -1 21 2 0.11088945D+00 0.17198542D+00 0.25320781D+06 0.25320781D+06 0.25320781D+06 0.10900428D+01  1  2  1  2  6  2        2 0.288918317531D-02 0.100000000000D+01
  </mgrwgt>
  </event>
  <event>
  7     66 0.18402180E-05 0.18934044E+03 0.75467711E-02 0.90213167E-01
       -2 -1    0    0    0  501 0.00000000E+00 0.00000000E+00 0.66735899E+03 0.66735907E+03 0.32000000E+00 0.0000E+00 0.9000E+01
        2 -1    0    0  503    0 0.00000000E+00 0.00000000E+00 -.12844094E+04 0.12844094E+04 0.32000000E+00 0.0000E+00 0.9000E+01
       23  2    1    2    0    0 0.11991296E+03 -.68831301E+03 0.10874973E+03 0.71262233E+03 0.88601210E+02 0.0000E+00 0.0000E+00
       25  1    1    2    0    0 0.57182679E+02 0.57238418E+03 -.12450169E+03 0.60168029E+03 0.12500000E+03 0.0000E+00 0.9000E+01
        1  1    3    3  502    0 -.11038184E+02 -.14128151E+03 0.17693189E+02 0.14281267E+03 0.32000000E+00 0.0000E+00 0.9000E+01
       -1  1    3    3    0  502 0.13095115E+03 -.54703150E+03 0.91056537E+02 0.56980967E+03 0.32000000E+00 0.0000E+00 0.9000E+01
       21  1    1    2  503  501 -.17709564E+03 0.11592883E+03 -.60129844E+03 0.63746587E+03 0.75000000E+00 0.0000E+00 0.9000E+01
#aMCatNLO 2  0  0  2  1 0.15167271D+02 0.00000000D+00  -5  6  0 0.00000000D+00 0.00000000D+00 0.00000000D+00 0.00000000D+00 0.00000000D+00
  <mgrwgt>
 0.1442409806D-03    1    2    0
 0.648525425505472D+03 0.000000000000000D+00 0.000000000000000D+00 0.648525425505472D+03
 0.648525425505472D+03 0.000000000000000D+00 0.000000000000000D+00 -.648525425505472D+03
 0.651522542260771D+03 -.277112866079329D+02 0.627956736588654D+03 -.117298954135995D+03
 0.133801681071197D+03 -.298147263929425D+02 -.128986089101251D+03 0.194051736904477D+02
 0.511726627678975D+03 0.575260130008754D+02 -.498970647487404D+03 0.978937804455471D+02
 0.000000000000000D+00 -.000000000000000D+00 0.000000000000000D+00 -.000000000000000D+00
 0.675405660359584D+03 0.000000000000000D+00 0.000000000000000D+00 0.675405660359584D+03
 0.126910650231765D+04 0.000000000000000D+00 0.000000000000000D+00 -.126910650231765D+04
 0.600231246558312D+03 0.571826788350153D+02 0.572384176881925D+03 -.117298954135995D+03
 0.143029410462002D+03 -.110400365712928D+02 -.141276215562479D+03 0.194051736904477D+02
 0.570947571980759D+03 0.130952997534788D+03 -.547036790478900D+03 0.978937804455471D+02
 0.630303933676158D+03 -.177095639798510D+03 0.115928829159454D+03 -.593700841958063D+03
0.779028933735D-04 0.000000000000D+00 0.000000000000D+00 0.584566707439D-05 0.966474931589D-09  6 -2 2 25 1 -1 21 2 0.10267059D+00 0.19760139D+00 0.56589769D+06 0.56589769D+06 0.56589769D+06 0.10647310D+01  1  2  1  2  6  2        2 0.144240980621D-03 0.100000000000D+01
  </mgrwgt>
  </event>
  <event>
  7     66 0.18402180E-05 0.42427230E+02 0.75467711E-02 0.90743980E-01
       21 -1    0    0  503  501 0.00000000E+00 0.00000000E+00 0.11426986E+04 0.11426988E+04 0.75000000E+00 0.0000E+00 0.9000E+01
        2 -1    0    0  501    0 0.00000000E+00 0.00000000E+00 -.51094563E+03 0.51094573E+03 0.32000000E+00 0.0000E+00 0.9000E+01
       23  2    1    2    0    0 -.67913967E+03 -.38318651E+02 0.14882041E+03 0.70225148E+03 0.91162567E+02 0.0000E+00 0.0000E+00
       25  1    1    2    0    0 0.69665873E+03 0.35869796E+01 0.30750878E+03 0.77170778E+03 0.12500000E+03 0.0000E+00 0.9000E+01
        1  1    3    3  502    0 -.21203020E+03 -.38601077E+02 0.81045403E+02 0.23025053E+03 0.32000000E+00 0.0000E+00 0.9000E+01
        2  1    1    2  503    0 -.17519063E+02 0.34731672E+02 0.17542378E+03 0.17968531E+03 0.32000000E+00 0.0000E+00 0.9000E+01
       -1  1    3    3    0  502 -.46710947E+03 0.28242571E+00 0.67775007E+02 0.47200094E+03 0.32000000E+00 0.0000E+00 0.9000E+01
#aMCatNLO 2  0  0  1  2 0.98350211D+01 0.00000000D+00  -5  6  0 0.00000000D+00 0.00000000D+00 0.00000000D+00 0.00000000D+00 0.00000000D+00
  <mgrwgt>
 0.3051616018D-04    1    2    0
 0.700500959654136D+03 0.000000000000000D+00 0.000000000000000D+00 0.700500959654136D+03
 0.700500959654136D+03 0.000000000000000D+00 0.000000000000000D+00 -.700500959654136D+03
 0.703111372373209D+03 0.687816067100252D+03 0.211176315886881D+02 0.721367135054200D+02
 0.217534233547238D+03 -.214735614426773D+03 -.332318207432897D+02 0.102666816365593D+02
 0.000000000000000D+00 -.000000000000000D+00 0.000000000000000D+00 0.000000000000000D+00
 0.480356313387825D+03 -.473080452673479D+03 0.121141891546017D+02 -.824033951419792D+02
 0.829689323310033D+03 0.000000000000000D+00 0.000000000000000D+00 0.829689323310033D+03
 0.703705357125510D+03 0.000000000000000D+00 0.000000000000000D+00 -.703705357125510D+03
 0.711459741065124D+03 0.696658733741789D+03 0.358697956207583D+01 0.721367135054200D+02
 0.215756709549520D+03 -.212027056806585D+03 -.386015562606855D+02 0.102666816365593D+02
 0.131852820730826D+03 -.175190629517995D+02 0.347316718915634D+02 0.125983966184523D+03
 0.474325409090072D+03 -.467112613983404D+03 0.282904807046329D+00 -.824033951419792D+02
0.248388117047D-05 0.000000000000D+00 0.000000000000D+00 0.350059284170D-04 0.359283357313D-08  6 21 2 25 1 2 -1 2 0.17579976D+00 0.78607025D-01 0.51073762D+06 0.51073762D+06 0.51073762D+06 0.10678588D+01  1  2  1  5  5  1       -2 0.305161601786D-04 0.100000000000D+01
  </mgrwgt>
  </event>
  <event>
  7     66 0.18402180E-05 0.69421392E+02 0.75467711E-02 0.92668036E-01
       -2 -1    0    0    0  503 0.00000000E+00 0.00000000E+00 0.10235889E+03 0.10235939E+03 0.32000000E+00 0.0000E+00 0.9000E+01
        2 -1    0    0  501    0 0.00000000E+00 0.00000000E+00 -.44309758E+04 0.44309758E+04 0.32000000E+00 0.0000E+00 0.9000E+01
       23  2    1    2    0    0 0.43369908E+03 0.35890670E+03 -.30613175E+04 0.31140063E+04 0.91985625E+02 0.0000E+00 0.0000E+00
       25  1    1    2    0    0 -.46023902E+03 -.36042486E+03 -.12548529E+04 0.13899665E+04 0.12500000E+03 0.0000E+00 0.9000E+01
        1  1    3    3  502    0 0.21801975E+03 0.12943889E+03 -.14942853E+04 0.15156437E+04 0.32000000E+00 0.0000E+00 0.9000E+01
       -1  1    3    3    0  502 0.21567933E+03 0.22946780E+03 -.15670322E+04 0.15983626E+04 0.32000000E+00 0.0000E+00 0.9000E+01
       21  1    1    2  501  503 0.26539941E+02 0.15181642E+01 -.12446464E+02 0.29362396E+02 0.75000000E+00 0.0000E+00 0.9000E+01
#aMCatNLO 2  0  0  1  2 0.98350211D+01 0.00000000D+00  -5  6  0 0.00000000D+00 0.00000000D+00 0.00000000D+00 0.00000000D+00 0.00000000D+00
  <mgrwgt>
 0.1298173086D-03    1    2    0
 0.643377233848943D+03 0.000000000000000D+00 0.000000000000000D+00 0.643377233848943D+03
 0.643377233848943D+03 0.000000000000000D+00 0.000000000000000D+00 -.643377233848943D+03
 0.646160843697794D+03 -.446812229783761D+03 -.359656809259149D+03 0.270008605043315D+03
 0.297500271912974D+03 0.224106619800716D+03 0.129785869390118D+03 -.146418109728415D+03
 0.343093352087116D+03 0.222705609983045D+03 0.229870939869030D+03 -.123590495314901D+03
 0.000000000000000D+00 0.000000000000000D+00 0.000000000000000D+00 0.000000000000000D+00
 0.701475340790935D+03 0.000000000000000D+00 0.000000000000000D+00 0.701475340790935D+03
 0.646562581227202D+03 0.000000000000000D+00 0.000000000000000D+00 -.646562581227202D+03
 0.655938779149251D+03 -.460239018526498D+03 -.360424861823013D+03 0.270008605043315D+03
 0.292788316784348D+03 0.218019773572808D+03 0.129437683540116D+03 -.146418109728415D+03
 0.338301937708770D+03 0.215679303818867D+03 0.229469014094573D+03 -.123590495314901D+03
 0.610088883757676D+02 0.265399411348231D+02 0.151816418832476D+01 0.549127595637324D+02
0.212628089152D-03 0.000000000000D+00 0.000000000000D+00 0.298081153553D-04 0.263106012349D-06  6 -2 2 25 1 -1 21 2 0.15747505D-01 0.68168620D+00 0.35571590D+06 0.35571590D+06 0.35571590D+06 0.10791204D+01  1  2  1  1  6  1       -2 0.129817308569D-03 0.100000000000D+01
  </mgrwgt>
  </event>
  <event>
  6     66 0.18402180E-05 0.58286197E+02 0.75467711E-02 0.92748059E-01
       -2 -1    0    0    0  501 0.00000000E+00 0.00000000E+00 0.88794323E+02 0.88794900E+02 0.32000000E+00 0.0000E+00 0.9000E+01
        2 -1    0    0  501    0 -.00000000E+00 -.00000000E+00 -.43389555E+04 0.43389556E+04 0.32000000E+00 0.0000E+00 0.9000E+01
       25  1    1    2    0    0 -.22581955E+03 0.50777621E+03 -.14388007E+04 0.15474507E+04 0.12500000E+03 0.0000E+00 0.9000E+01
        1  1    1    2  503    0 0.12952646E+03 -.22885520E+03 -.14576672E+04 0.14811974E+04 0.32000000E+00 0.0000E+00 0.9000E+01
       -1  1    1    2    0  502 0.14437144E+03 -.26445344E+03 -.12076598E+04 0.12446771E+04 0.32000000E+00 0.0000E+00 0.9000E+01
       21  1    1    2  502  503 -.48078355E+02 -.14467564E+02 -.14603350E+03 0.15442533E+03 0.75000000E+00 0.0000E+00 0.9000E+01
#aMCatNLO 2  0  0  4  1 0.34517886D+02 0.00000000D+00  -5  6  0 0.00000000D+00 0.00000000D+00 0.00000000D+00 0.00000000D+00 0.00000000D+00
  <mgrwgt>
 0.2095955767D-01    1    2    0
 0.620705989291914D+03 0.000000000000000D+00 0.000000000000000D+00 0.620705989291914D+03
 0.620705989291914D+03 -.000000000000000D+00 -.000000000000000D+00 -.620705989291914D+03
 0.622373337622786D+03 -.234467318535324D+03 0.533611051159543D+03 0.178907501248520D+03
 0.328116552715325D+03 0.943200532306526D+02 -.281793721449260D+03 -.139127633042945D+03
 0.290922088245716D+03 0.140147265304671D+03 -.251817329710283D+03 -.397798682055759D+02
 0.000000000000000D+00 0.000000000000000D+00 0.000000000000000D+00 0.000000000000000D+00
 0.620705989291914D+03 0.000000000000000D+00 0.000000000000000D+00 0.620705989291914D+03
 0.620705989291914D+03 -.000000000000000D+00 -.000000000000000D+00 -.620705989291914D+03
 0.593288441815776D+03 -.225802002646033D+03 0.507722265812854D+03 0.166125650009545D+03
 0.292341452205810D+03 0.129593348430353D+03 -.228697953243435D+03 -.127930977103573D+03
 0.304848315496730D+03 0.144393955324245D+03 -.264504881757467D+03 -.460439860729132D+02
 0.509337690655110D+02 -.481853011085643D+02 -.145194308119528D+02 0.784931316694090D+01
0.222505295113D-01 0.000000000000D+00 0.000000000000D+00 0.249262923917D-06 0.543034058068D-07  6 -2 2 25 1 -1 21 2 0.13660710D-01 0.66753167D+00 0.35052040D+06 0.35052040D+06 0.35052040D+06 0.10795863D+01  1  2  1  3  6  4        1 0.209595576729D-01 0.100000000000D+01
  </mgrwgt>
  </event>
  <event>
  7     66 0.18402180E-05 0.26060129E+02 0.75467711E-02 0.90093005E-01
       -2 -1    0    0    0  501 0.00000000E+00 0.00000000E+00 0.25100192E+03 0.25100212E+03 0.32000000E+00 0.0000E+00 0.9000E+01
        2 -1    0    0  503    0 0.00000000E+00 0.00000000E+00 -.30477668E+04 0.30477668E+04 0.32000000E+00 0.0000E+00 0.9000E+01
       23  2    1    2    0    0 -.33653753E+03 0.67053500E+03 -.82897692E+03 0.11216656E+04 0.89756801E+02 0.0000E+00 0.0000E+00
       25  1    1    2    0    0 0.34294308E+03 -.66181348E+03 -.12604510E+04 0.14696832E+04 0.12500000E+03 0.0000E+00 0.9000E+01
        1  1    3    3  502    0 -.99153360E+01 0.81219602E+02 -.89735125E+02 0.12143901E+03 0.32000000E+00 0.0000E+00 0.9000E+01
       -1  1    3    3    0  502 -.32662220E+03 0.58931540E+03 -.73924180E+03 0.10002266E+04 0.32000000E+00 0.0000E+00 0.9000E+01
       21  1    1    2  503  501 -.64055508E+01 -.87215155E+01 -.70733693E+03 0.70742009E+03 0.75000000E+00 0.0000E+00 0.9000E+01
#aMCatNLO 2  0  0  2  1 0.76262231D+01 0.00000000D+00  -5  6  0 0.00000000D+00 0.00000000D+00 0.00000000D+00 0.00000000D+00 0.00000000D+00
  <mgrwgt>
 0.1974816825D-03    1    2    0
 0.766365214593489D+03 0.000000000000000D+00 0.000000000000000D+00 0.766365214593489D+03
 0.766365214593489D+03 0.000000000000000D+00 0.000000000000000D+00 -.766365214593489D+03
 0.768834245225211D+03 0.339734942517567D+03 -.666181544671343D+03 -.127528094955223D+03
 0.825580561210431D+02 -.102572054530330D+02 0.807421881749197D+02 0.138318984779903D+02
 0.681338127840724D+03 -.329477737064534D+03 0.585439356496424D+03 0.113696196477232D+03
 0.000000000000000D+00 -.000000000000000D+00 -.000000000000000D+00 -.000000000000000D+00
 0.766510691944520D+03 0.000000000000000D+00 0.000000000000000D+00 0.766510691944520D+03
 0.998021910833317D+03 0.000000000000000D+00 0.000000000000000D+00 -.998021910833317D+03
 0.766482523583641D+03 0.342943082310333D+03 -.661813482978193D+03 -.127528094955223D+03
 0.829766846909378D+02 -.991131032580387D+01 0.812131437294450D+02 0.138318984779903D+02
 0.683309418905980D+03 -.326626221216626D+03 0.589321854750006D+03 0.113696196477232D+03
 0.231763975597278D+03 -.640555076790362D+01 -.872151550125755D+01 -.231511218888797D+03
0.138262406589D-03 0.000000000000D+00 0.000000000000D+00 0.755270601365D-05 0.402764410080D-06  6 -2 2 25 1 -1 21 2 0.38615666D-01 0.46888684D+00 0.57928826D+06 0.57928826D+06 0.57928826D+06 0.10640217D+01  1  2  1  2  6  2        2 0.197481682529D-03 0.100000000000D+01
  </mgrwgt>
  </event>
  <event>
  7     66 0.18402180E-05 0.73447307E+02 0.75467711E-02 0.94356594E-01
       -2 -1    0    0    0  501 0.00000000E+00 0.00000000E+00 0.27667152E+03 0.27667171E+03 0.32000000E+00 0.0000E+00 0.9000E+01
        2 -1    0    0  503    0 0.00000000E+00 0.00000000E+00 -.12873625E+04 0.12873625E+04 0.32000000E+00 0.0000E+00 0.9000E+01
       23  2    1    2    0    0 0.35621896E+03 -.33840835E+03 -.11841026E+03 0.51433226E+03 0.95417639E+02 0.0000E+00 0.0000E+00
       25  1    1    2    0    0 -.37046626E+03 0.33880719E+03 -.77663400E+03 0.93317787E+03 0.12500000E+03 0.0000E+00 0.9000E+01
        1  1    3    3  502    0 0.21857717E+03 -.18495468E+03 -.11387664E+03 0.30814315E+03 0.32000000E+00 0.0000E+00 0.9000E+01
       -1  1    3    3    0  502 0.13764179E+03 -.15345367E+03 -.45336217E+01 0.20618910E+03 0.32000000E+00 0.0000E+00 0.9000E+01
       21  1    1    2  503  501 0.14247307E+02 -.39883610E+00 -.11564671E+03 0.11652411E+03 0.75000000E+00 0.0000E+00 0.9000E+01
#aMCatNLO 2  0  0  2  1 0.82918668D+01 0.00000000D+00  -5  6  0 0.00000000D+00 0.00000000D+00 0.00000000D+00 0.00000000D+00 0.00000000D+00
  <mgrwgt>
 0.1599625704D-02    1    2    0
 0.568765812124388D+03 0.000000000000000D+00 0.000000000000000D+00 0.568765812124388D+03
 0.568765812124388D+03 0.000000000000000D+00 0.000000000000000D+00 -.568765812124388D+03
 0.571631875282421D+03 -.363277477666997D+03 0.338605946195366D+03 -.253995055581684D+03
 0.305313869076770D+03 0.222384212431667D+03 -.185061583056295D+03 0.975398953683695D+02
 0.260585879889586D+03 0.140893265235330D+03 -.153544363139071D+03 0.156455160213314D+03
 0.000000000000000D+00 0.000000000000000D+00 -.000000000000000D+00 -.000000000000000D+00
 0.569711365440986D+03 0.000000000000000D+00 0.000000000000000D+00 0.569711365440986D+03
 0.625182632873936D+03 0.000000000000000D+00 0.000000000000000D+00 -.625182632873936D+03
 0.576345426995390D+03 -.370466263807356D+03 0.338807187555363D+03 -.253995055581684D+03
 0.302487640502120D+03 0.218578078756829D+03 -.184955034954557D+03 0.975398953683695D+02
 0.258787845193666D+03 0.137640878076510D+03 -.153453316500278D+03 0.156455160213314D+03
 0.572730856237452D+02 0.142473069740174D+02 -.398836100528291D+00 -.554712674329502D+02
0.120770073076D-03 0.000000000000D+00 0.000000000000D+00 0.337085228158D-05 0.105362355061D-06  6 -2 2 25 1 -1 21 2 0.42564684D-01 0.19805493D+00 0.26218497D+06 0.26218497D+06 0.26218497D+06 0.10889077D+01  1  2  1  2  6  2        2 0.159962570352D-02 0.100000000000D+01
  </mgrwgt>
  </event>
  <event>
  7     66 0.18402180E-05 0.81646184E+02 0.75467711E-02 0.92864853E-01
       -2 -1    0    0    0  501 0.00000000E+00 0.00000000E+00 0.28071467E+03 0.28071485E+03 0.32000000E+00 0.0000E+00 0.9000E+01
        2 -1    0    0  503    0 0.00000000E+00 0.00000000E+00 -.12562900E+04 0.12562900E+04 0.32000000E+00 0.0000E+00 0.9000E+01
       23  2    1    2    0    0 0.66498357E+02 0.56082404E+03 -.37509293E+03 0.68400289E+03 0.90662107E+02 0.0000E+00 0.0000E+00
       25  1    1    2    0    0 -.79638214E+02 -.56720269E+03 -.56316644E+03 0.81292224E+03 0.12500000E+03 0.0000E+00 0.9000E+01
        1  1    3    3  502    0 -.80116183E+01 0.27900224E+03 -.15992239E+03 0.32168573E+03 0.32000000E+00 0.0000E+00 0.9000E+01
       -1  1    3    3    0  502 0.74509975E+02 0.28182180E+03 -.21517054E+03 0.36231717E+03 0.32000000E+00 0.0000E+00 0.9000E+01
       21  1    1    2  503  501 0.13139857E+02 0.63786492E+01 -.37315972E+02 0.40079761E+02 0.75000000E+00 0.0000E+00 0.9000E+01
#aMCatNLO 2  0  0  2  5 0.33408154D+02 0.00000000D+00  -5  6  0 0.00000000D+00 0.00000000D+00 0.00000000D+00 0.00000000D+00 0.00000000D+00
  <mgrwgt>
 0.3142647450D-03    1    2    0
 0.583146826988482D+03 0.000000000000000D+00 0.000000000000000D+00 0.583146826988482D+03
 0.583146826988482D+03 0.000000000000000D+00 0.000000000000000D+00 -.583146826988482D+03
 0.586321577314338D+03 -.730105090451112D+02 -.563985318943548D+03 -.688332594716542D+02
 0.285661363380971D+03 -.480262771780676D+01 0.280560483925146D+03 0.535272281681710D+02
 0.294310713281654D+03 0.778131367629180D+02 0.283424835018402D+03 0.153060313034832D+02
 0.000000000000000D+00 0.000000000000000D+00 0.000000000000000D+00 -.000000000000000D+00
 0.586071139257010D+03 0.000000000000000D+00 0.000000000000000D+00 0.586071139257010D+03
 0.601721031089736D+03 0.000000000000000D+00 0.000000000000000D+00 -.601721031089736D+03
 0.590274643674784D+03 -.796382139588044D+02 -.567202690608351D+03 -.688332594716542D+02
 0.284203441580967D+03 -.801264632963944D+01 0.279002203485734D+03 0.535272281681710D+02
 0.291907027099686D+03 0.745110029220041D+02 0.281821837903791D+03 0.153060313034832D+02
 0.214070579913086D+02 0.131398573664397D+02 0.637864921882655D+01 -.156498918327263D+02
0.240162286579D-04 0.000000000000D+00 0.000000000000D+00 0.359653871274D-04 0.104949787909D-05  6 -2 2 25 1 -1 21 2 0.43186407D-01 0.19327324D+00 0.34308928D+06 0.34308928D+06 0.34308928D+06 0.10802658D+01  1  2  1  2  6  2        2 0.314264745046D-03 0.100000000000D+01
  </mgrwgt>
  </event>
  <event>
  6     66 -.18402180E-05 0.14524284E+02 0.75467711E-02 0.94292080E-01
       -2 -1    0    0    0  501 0.00000000E+00 0.00000000E+00 0.31288950E+03 0.31288966E+03 0.32000000E+00 0.0000E+00 0.9000E+01
        2 -1    0    0  501    0 0.00000000E+00 0.00000000E+00 -.82385428E+03 0.82385435E+03 0.32000000E+00 0.0000E+00 0.9000E+01
       23  2    1    2    0    0 0.30731569E+03 -.38702195E+03 -.20929835E+03 0.54441254E+03 0.91379972E+02 0.0000E+00 0.0000E+00
       25  1    1    2    0    0 -.30731569E+03 0.38702195E+03 -.30166644E+03 0.59233146E+03 0.12500000E+03 0.0000E+00 0.9000E+01
        1  1    3    3  502    0 0.29552210E+03 -.37853519E+03 -.21808355E+03 0.52743031E+03 0.32000000E+00 0.0000E+00 0.9000E+01
       -1  1    3    3    0  502 0.11793593E+02 -.84867583E+01 0.87852044E+01 0.16982229E+02 0.32000000E+00 0.0000E+00 0.9000E+01
#aMCatNLO 1  0  0  2  5 0.33408154D+02 0.00000000D+00  -5  6  0 0.00000000D+00 0.00000000D+00 0.00000000D+00 0.00000000D+00 0.00000000D+00
  <mgrwgt>
 -.2863129396D-03    7    2    0
 0.507715944690663D+03 0.000000000000000D+00 0.000000000000000D+00 0.507715944690663D+03
 0.507715944690663D+03 0.000000000000000D+00 0.000000000000000D+00 -.507715944690663D+03
 0.511298016959094D+03 -.307315690238059D+03 0.387021946273671D+03 -.396451987300779D+02
 0.480707699312326D+03 0.295525577012264D+03 -.378539726035415D+03 0.212650258111974D+02
 0.234261731099060D+02 0.117901132257950D+02 -.848222023825537D+01 0.183801729188805D+02
 0.000000000000000D+00 -.000000000000000D+00 -.000000000000000D+00 -.000000000000000D+00
 0.508436211237683D+03 0.000000000000000D+00 0.000000000000000D+00 0.508436211237683D+03
 0.786245453060105D+03 0.000000000000000D+00 0.000000000000000D+00 -.786245453060105D+03
 0.512957236034887D+03 -.298451539274746D+03 0.396049318801002D+03 -.396451987300779D+02
 0.479296678147468D+03 0.303833685467036D+03 -.370078634800719D+03 0.212650258111974D+02
 0.234878822483545D+02 0.121961187286042D+02 -.806873868348773D+01 0.183801729188805D+02
 0.278939867867079D+03 -.175782649208944D+02 -.179019453167954D+02 -.277809241822421D+03
0.300310394767D-06 0.000000000000D+00 0.000000000000D+00 0.118568284487D-04 0.000000000000D+00  6 -2 2 25 1 -1 21 0 0.48136863D-01 0.12674683D+00 0.25226515D+06 0.25226515D+06 0.25226515D+06 0.10901645D+01  1  2  2  2  6  2        2 0.508795809545D-05 0.100000000000D+01
0.101300338434D-06 0.000000000000D+00 -.115327098945D-08 0.118568284487D-04 0.000000000000D+00  6 -2 2 25 1 -1 21 2 0.48136863D-01 0.12674683D+00 0.25226515D+06 0.25226515D+06 0.25226515D+06 0.10901645D+01  1  2  3  2  6  2        2 0.203970874227D-05 0.100000000000D+01
-.894274950239D-07 0.000000000000D+00 0.000000000000D+00 0.118568284487D-04 0.000000000000D+00  6 -2 2 25 1 -1 21 2 0.48136863D-01 0.12674683D+00 0.25226515D+06 0.25226515D+06 0.25226515D+06 0.10901645D+01  1  2 15  2  6  2        2 -.180064594275D-05 0.100000000000D+01
-.249426681256D-04 0.000000000000D+00 0.000000000000D+00 0.118568284487D-04 0.000000000000D+00  6 -2 2 25 1 -1 21 2 0.48136863D-01 0.12674683D+00 0.25226515D+06 0.25226515D+06 0.25226515D+06 0.10901645D+01  1  2  4  2  6  2        2 -.502227129919D-03 0.100000000000D+01
-.279854455175D-04 0.000000000000D+00 -.174310546487D-06 0.118568284487D-04 0.000000000000D+00  6 -2 2 25 1 -1 21 2 0.48136863D-01 0.19636788D+00 0.25226515D+06 0.25226515D+06 0.25226515D+06 0.10901645D+01  1  2  5  2  6  2        2 -.297514554155D-03 0.100000000000D+01
0.255858281670D-04 0.000000000000D+00 0.158843318637D-06 0.118568284487D-04 0.000000000000D+00  6 -2 2 25 1 -1 21 2 0.48136863D-01 0.12674683D+00 0.25226515D+06 0.25226515D+06 0.25226515D+06 0.10901645D+01  1  2  6  2  6  2        2 0.515177325144D-03 0.100000000000D+01
-.141770559468D-05 0.000000000000D+00 -.887207499961D-08 0.118568284487D-04 0.000000000000D+00  6 -2 21 25 1 -1 -2 2 0.48136863D-01 0.19636788D+00 0.25226515D+06 0.25226515D+06 0.25226515D+06 0.10901645D+01  1  2  5  6  6  2        2 -.707560153886D-05 0.100000000000D+01
  </mgrwgt>
  </event>
  <event>
  7     66 0.18402180E-05 0.70654812E+02 0.75467711E-02 0.93619715E-01
       21 -1    0    0  503  501 0.00000000E+00 0.00000000E+00 0.37614340E+03 0.37614415E+03 0.75000000E+00 0.0000E+00 0.9000E+01
        2 -1    0    0  501    0 0.00000000E+00 0.00000000E+00 -.14434051E+04 0.14434052E+04 0.32000000E+00 0.0000E+00 0.9000E+01
       23  2    1    2    0    0 -.34716927E+03 -.39935717E+03 -.78920187E+03 0.95450253E+03 0.90679929E+02 0.0000E+00 0.0000E+00
       25  1    1    2    0    0 0.32759362E+03 0.41072109E+03 -.44304553E+03 0.69851538E+03 0.12500000E+03 0.0000E+00 0.9000E+01
        1  1    3    3  502    0 -.13915606E+03 -.19489692E+03 -.42582561E+03 0.48854556E+03 0.32000000E+00 0.0000E+00 0.9000E+01
        2  1    1    2  503    0 0.19575656E+02 -.11363923E+02 0.16498565E+03 0.16653142E+03 0.32000000E+00 0.0000E+00 0.9000E+01
       -1  1    3    3    0  502 -.20801321E+03 -.20446025E+03 -.36337626E+03 0.46595697E+03 0.32000000E+00 0.0000E+00 0.9000E+01
#aMCatNLO 2  0  0  1  5 0.25042949D+03 0.00000000D+00  -5  6  0 0.00000000D+00 0.00000000D+00 0.00000000D+00 0.00000000D+00 0.00000000D+00
  <mgrwgt>
 0.8607081191D-03    1    2    0
 0.550799926459421D+03 0.000000000000000D+00 0.000000000000000D+00 0.550799926459421D+03
 0.550799926459421D+03 0.000000000000000D+00 0.000000000000000D+00 -.550799926459421D+03
 0.554159653887733D+03 0.337424995292476D+03 0.405013850756267D+03 0.116516416201433D+03
 0.256302068803206D+03 -.134597519447397D+03 -.197542598974675D+03 -.924725895697849D+02
 0.000000000000000D+00 0.000000000000000D+00 -.000000000000000D+00 0.000000000000000D+00
 0.291138130227903D+03 -.202827475845078D+03 -.207471251781593D+03 -.240438266316479D+02
 0.984972443730774D+03 0.000000000000000D+00 0.000000000000000D+00 0.984972443730774D+03
 0.551211278512616D+03 0.000000000000000D+00 0.000000000000000D+00 -.551211278512616D+03
 0.552458568425653D+03 0.327593616290180D+03 0.410721094111830D+03 0.116516416201433D+03
 0.256710176682046D+03 -.139155204940448D+03 -.194896803278985D+03 -.924725895697849D+02
 0.434351347974615D+03 0.195756557180733D+02 -.113639227011475D+02 0.433761165218159D+03
 0.292663629161075D+03 -.208014067067805D+03 -.204460368131698D+03 -.240438266316479D+02
0.145560655495D-04 0.000000000000D+00 0.000000000000D+00 0.463808794453D-04 0.425070549450D-07  6 21 2 25 1 2 -1 2 0.57868270D-01 0.22206237D+00 0.29910921D+06 0.29910921D+06 0.29910921D+06 0.10846474D+01  1  2  1  5  5  1       -2 0.860708119106D-03 0.100000000000D+01
  </mgrwgt>
  </event>
  <event>
  7     66 0.18402180E-05 0.42694961E+02 0.75467711E-02 0.90766971E-01
       -2 -1    0    0    0  503 0.00000000E+00 0.00000000E+00 0.22456883E+03 0.22456906E+03 0.32000000E+00 0.0000E+00 0.9000E+01
        2 -1    0    0  501    0 0.00000000E+00 0.00000000E+00 -.26086448E+04 0.26086448E+04 0.32000000E+00 0.0000E+00 0.9000E+01
       23  2    1    2    0    0 -.68775588E+03 0.11726721E+03 -.14463035E+04 0.16081882E+04 0.87838971E+02 0.0000E+00 0.0000E+00
       25  1    1    2    0    0 0.68694698E+03 -.13413548E+03 -.96154211E+03 0.11958581E+04 0.12500000E+03 0.0000E+00 0.9000E+01
        1  1    3    3  502    0 -.17663738E+03 0.17309321E+02 -.28981329E+03 0.33984146E+03 0.32000000E+00 0.0000E+00 0.9000E+01
       -1  1    3    3    0  502 -.51111850E+03 0.99957893E+02 -.11564902E+04 0.12683467E+04 0.32000000E+00 0.0000E+00 0.9000E+01
       21  1    1    2  501  503 0.80889738E+00 0.16868264E+02 0.23769587E+02 0.29167592E+02 0.75000000E+00 0.0000E+00 0.9000E+01
#aMCatNLO 2  0  0  1  5 0.25042949D+03 0.00000000D+00  -5  6  0 0.00000000D+00 0.00000000D+00 0.00000000D+00 0.00000000D+00 0.00000000D+00
  <mgrwgt>
 0.7983427191D-04    1    2    0
 0.718448010520944D+03 0.000000000000000D+00 0.000000000000000D+00 0.718448010520944D+03
 0.718448010520944D+03 0.000000000000000D+00 0.000000000000000D+00 -.718448010520944D+03
 0.721200233039081D+03 0.687353286264366D+03 -.125662649629384D+03 0.127511311205413D+03
 0.177638307001067D+03 -.176532971364273D+03 0.193928344595095D+02 0.392378734542407D+01
 0.538057481001740D+03 -.510820314900094D+03 0.106269815169874D+03 -.131435098550838D+03
 0.000000000000000D+00 0.000000000000000D+00 0.000000000000000D+00 0.000000000000000D+00
 0.814495902125587D+03 0.000000000000000D+00 0.000000000000000D+00 0.814495902125587D+03
 0.719240330930596D+03 0.000000000000000D+00 0.000000000000000D+00 -.719240330930596D+03
 0.722338298212295D+03 0.686946981910253D+03 -.134135478615113D+03 0.127511311205413D+03
 0.177522294199804D+03 -.176632936343076D+03 0.173082243356390D+02 0.392378734542407D+01
 0.537134664343443D+03 -.511122942949643D+03 0.999589900847883D+02 -.131435098550838D+03
 0.967409763006399D+02 0.808897382466209D+00 0.168682641946856D+02 0.952555711949905D+02
0.239625383143D-04 0.000000000000D+00 0.000000000000D+00 0.355994599310D-05 0.765431524059D-07  6 -2 2 25 1 -1 21 2 0.34549000D-01 0.40132918D+00 0.50848799D+06 0.50848799D+06 0.50848799D+06 0.10679941D+01  1  2  1  1  6  1       -2 0.798342719111D-04 0.100000000000D+01
  </mgrwgt>
  </event>
  <event>
  7     66 0.18402180E-05 0.45105638E+02 0.75467711E-02 0.92722895E-01
       -2 -1    0    0    0  501 0.00000000E+00 0.00000000E+00 0.29204592E+03 0.29204609E+03 0.32000000E+00 0.0000E+00 0.9000E+01
        2 -1    0    0  503    0 0.00000000E+00 0.00000000E+00 -.13358274E+04 0.13358275E+04 0.32000000E+00 0.0000E+00 0.9000E+01
       23  2    1    2    0    0 0.52897084E+03 -.20526571E+03 -.31640675E+03 0.65595299E+03 0.90647285E+02 0.0000E+00 0.0000E+00
       25  1    1    2    0    0 -.45104468E+03 0.24107710E+03 -.48883591E+03 0.71843234E+03 0.12500000E+03 0.0000E+00 0.9000E+01
        1  1    3    3  502    0 0.23889066E+03 -.14127223E+03 -.15153918E+03 0.31621324E+03 0.32000000E+00 0.0000E+00 0.9000E+01
       -1  1    3    3    0  502 0.29008018E+03 -.63993486E+02 -.16486757E+03 0.33973975E+03 0.32000000E+00 0.0000E+00 0.9000E+01
       21  1    1    2  503  501 -.77926156E+02 -.35811390E+02 -.23853887E+03 0.25348826E+03 0.75000000E+00 0.0000E+00 0.9000E+01
#aMCatNLO 2  0  0  2  4 0.59622908D+01 0.00000000D+00  -5  6  0 0.00000000D+00 0.00000000D+00 0.00000000D+00 0.00000000D+00 0.00000000D+00
  <mgrwgt>
 0.3746184794D-03    1    2    0
 0.555239663781691D+03 0.000000000000000D+00 0.000000000000000D+00 0.555239663781691D+03
 0.555239663781691D+03 0.000000000000000D+00 0.000000000000000D+00 -.555239663781691D+03
 0.558575191793012D+03 -.489291420065369D+03 0.223500604867362D+03 -.838011381840279D+02
 0.269267654462241D+03 0.219624251613117D+03 -.150126877591762D+03 0.416194481885960D+02
 0.282636481308128D+03 0.269667168452252D+03 -.733737272755993D+02 0.421816899954319D+02
 0.000000000000000D+00 -.000000000000000D+00 -.000000000000000D+00 -.000000000000000D+00
 0.571519654491202D+03 0.000000000000000D+00 0.000000000000000D+00 0.571519654491202D+03
 0.682604324280698D+03 0.000000000000000D+00 0.000000000000000D+00 -.682604324280698D+03
 0.533110781937699D+03 -.451044683268295D+03 0.241077101261587D+03 -.838011381840279D+02
 0.280639864701288D+03 0.238890019108786D+03 -.141273189113285D+03 0.416194481885960D+02
 0.300035364354009D+03 0.290080819681962D+03 -.639925225695438D+02 0.421816899954319D+02
 0.140337967778903D+03 -.779261555224525D+02 -.358113895787590D+02 -.111084669789496D+03
0.343742485474D-04 0.000000000000D+00 0.000000000000D+00 0.385111799121D-04 0.331397783800D-07  6 -2 2 25 1 -1 21 2 0.44930081D-01 0.20551158D+00 0.35214497D+06 0.35214497D+06 0.35214497D+06 0.10794398D+01  1  2  1  2  6  2        2 0.374618479448D-03 0.100000000000D+01
  </mgrwgt>
  </event>
  <event>
  7     66 0.18402180E-05 0.42339996E+02 0.75467711E-02 0.94997741E-01
       -2 -1    0    0    0  501 0.00000000E+00 0.00000000E+00 0.14807716E+03 0.14807750E+03 0.32000000E+00 0.0000E+00 0.9000E+01
        2 -1    0    0  501    0 -.00000000E+00 -.00000000E+00 -.19839325E+04 0.19839326E+04 0.32000000E+00 0.0000E+00 0.9000E+01
       23  2    1    2    0    0 0.38029241E+03 -.27859134E+03 -.44590286E+03 0.65897631E+03 0.11482576E+03 0.0000E+00 0.0000E+00
       25  1    1    2    0    0 -.38029241E+03 0.27859134E+03 -.13899525E+04 0.14730338E+04 0.12500000E+03 0.0000E+00 0.9000E+01
        1  1    3    3  502    0 0.32045039E+03 -.18885584E+03 -.33963624E+03 0.50369421E+03 0.32000000E+00 0.0000E+00 0.9000E+01
       -1  1    3    3    0  503 0.51969771E+02 -.82504121E+02 -.77409073E+02 0.12449921E+03 0.32000000E+00 0.0000E+00 0.9000E+01
       21  1    3    3  503  502 0.78722517E+01 -.72313863E+01 -.28857549E+02 0.30782883E+02 0.75000000E+00 0.0000E+00 0.9000E+01
#aMCatNLO 2  0  0  5  4 0.16872966D+01 0.00000000D+00  -5  6  0 0.00000000D+00 0.00000000D+00 0.00000000D+00 0.00000000D+00 0.00000000D+00
  <mgrwgt>
 0.2950987907D-02    1    2    0
 0.542010595988446D+03 0.000000000000000D+00 0.000000000000000D+00 0.542010595988446D+03
 0.542010595988446D+03 -.000000000000000D+00 -.000000000000000D+00 -.542010595988446D+03
 0.545381435487517D+03 -.381495109336471D+03 0.280394837332660D+03 -.240116902620307D+03
 0.413808130508809D+03 0.319577436997990D+03 -.187506652114669D+03 0.184251692121780D+03
 0.124831625980566D+03 0.619176723384810D+02 -.928881852179904D+02 0.558652104985266D+02
 0.000000000000000D+00 0.000000000000000D+00 0.000000000000000D+00 0.000000000000000D+00
 0.542010595988446D+03 0.000000000000000D+00 0.000000000000000D+00 0.542010595988446D+03
 0.542010595988446D+03 -.000000000000000D+00 -.000000000000000D+00 -.542010595988446D+03
 0.543121687160970D+03 -.380284994543737D+03 0.278579436934725D+03 -.239025076731667D+03
 0.415517934070268D+03 0.320499418495209D+03 -.188889798231873D+03 0.185083549788140D+03
 0.113675677696981D+03 0.518775317782412D+02 -.824332347415075D+02 0.586143600708648D+02
 0.117058930486734D+02 0.790804427028721D+01 -.725640396134490D+01 -.467283312733688D+01
0.173137616922D-03 0.000000000000D+00 0.000000000000D+00 0.269956604096D-04 0.134696959794D-05  6 -2 2 25 1 -1 21 2 0.22781130D-01 0.30522042D+00 0.23418283D+06 0.23418283D+06 0.23418283D+06 0.10926009D+01  1  2  1  4  6  5       -1 0.295098790703D-02 0.100000000000D+01
  </mgrwgt>
  </event>
  <event>
  7     66 0.18402180E-05 0.41829776E+02 0.75467711E-02 0.93555655E-01
       -2 -1    0    0    0  503 0.00000000E+00 0.00000000E+00 0.42643574E+03 0.42643586E+03 0.32000000E+00 0.0000E+00 0.9000E+01
        2 -1    0    0  501    0 0.00000000E+00 0.00000000E+00 -.71993977E+03 0.71993985E+03 0.32000000E+00 0.0000E+00 0.9000E+01
       23  2    1    2    0    0 -.34306458E+03 0.40244361E+03 -.11056510E+03 0.54804598E+03 0.92062943E+02 0.0000E+00 0.0000E+00
       25  1    1    2    0    0 0.29521887E+03 -.40450549E+03 -.18982125E+03 0.54994180E+03 0.12500000E+03 0.0000E+00 0.9000E+01
        1  1    3    3  502    0 -.14529317E+03 0.10636795E+03 -.24389104E+02 0.18171180E+03 0.32000000E+00 0.0000E+00 0.9000E+01
       -1  1    3    3    0  502 -.19777141E+03 0.29607566E+03 -.86175992E+02 0.36633418E+03 0.32000000E+00 0.0000E+00 0.9000E+01
       21  1    1    2  501  503 0.47845706E+02 0.20618795E+01 0.68823159E+01 0.48387930E+02 0.75000000E+00 0.0000E+00 0.9000E+01
#aMCatNLO 2  0  0  1  2 0.33875074D+02 0.00000000D+00  -5  6  0 0.00000000D+00 0.00000000D+00 0.00000000D+00 0.00000000D+00 0.00000000D+00
  <mgrwgt>
 0.1432733994D-03    1    2    0
 0.527506336819534D+03 0.000000000000000D+00 0.000000000000000D+00 0.527506336819534D+03
 0.527506336819534D+03 0.000000000000000D+00 0.000000000000000D+00 -.527506336819534D+03
 0.530894644264508D+03 0.318985400820344D+03 -.403481290129747D+03 -.409302563815282D+02
 0.175786179383091D+03 -.137184214609852D+03 0.106715085938738D+03 0.263279804973721D+02
 0.348331849991469D+03 -.181801186210492D+03 0.296766204191010D+03 0.146022758841561D+02
 0.000000000000000D+00 0.000000000000000D+00 0.000000000000000D+00 0.000000000000000D+00
 0.564638255477079D+03 0.000000000000000D+00 0.000000000000000D+00 0.564638255477079D+03
 0.543720081114439D+03 0.000000000000000D+00 0.000000000000000D+00 -.543720081114439D+03
 0.517763616828658D+03 0.295218873146475D+03 -.404505493117413D+03 -.409302563815282D+02
 0.181980050041402D+03 -.145292538653883D+03 0.106365663009784D+03 0.263279804973721D+02
 0.356355383646262D+03 -.197772040835920D+03 0.296077950641842D+03 0.146022758841561D+02
 0.522592860751958D+02 0.478457063433274D+02 0.206187946578730D+01 0.209181743626398D+02
0.114646841574D-04 0.000000000000D+00 0.000000000000D+00 0.255490038680D-04 0.700522372807D-07  6 -2 2 25 1 -1 21 2 0.65605193D-01 0.11075944D+00 0.30258522D+06 0.30258522D+06 0.30258522D+06 0.10842763D+01  1  2  1  1  6  1       -2 0.143273399381D-03 0.100000000000D+01
  </mgrwgt>
  </event>
  <event>
  6     66 0.18402180E-05 0.30432036E+02 0.75467711E-02 0.94463755E-01
       -2 -1    0    0    0  501 0.00000000E+00 0.00000000E+00 0.26290756E+03 0.26290775E+03 0.32000000E+00 0.0000E+00 0.9000E+01
        2 -1    0    0  501    0 0.00000000E+00 0.00000000E+00 -.96257273E+03 0.96257279E+03 0.32000000E+00 0.0000E+00 0.9000E+01
       23  2    1    2    0    0 0.16283407E+03 -.45868998E+03 -.27911072E+03 0.57019245E+03 0.10151456E+03 0.0000E+00 0.0000E+00
       25  1    1    2    0    0 -.16283407E+03 0.45868998E+03 -.42055445E+03 0.65528809E+03 0.12500000E+03 0.0000E+00 0.9000E+01
        1  1    3    3  502    0 0.14773024E+03 -.41972966E+03 -.28437094E+03 0.52807589E+03 0.32000000E+00 0.0000E+00 0.9000E+01
       -1  1    3    3    0  502 0.15103827E+02 -.38960322E+02 0.52602235E+01 0.42116560E+02 0.32000000E+00 0.0000E+00 0.9000E+01
#aMCatNLO 1  0  0  2  1 0.24649851D+02 0.00000000D+00  -5  6  0 0.00000000D+00 0.00000000D+00 0.00000000D+00 0.00000000D+00 0.00000000D+00
  <mgrwgt>
 0.9907424078D-04    4    2    0
 0.503058445075529D+03 0.000000000000000D+00 0.000000000000000D+00 0.503058445075529D+03
 0.503058445075529D+03 0.000000000000000D+00 0.000000000000000D+00 -.503058445075529D+03
 0.505702174902607D+03 -.162834068141790D+03 0.458689983702047D+03 -.565531149012801D+02
 0.445461346588191D+03 0.147731557851778D+03 -.419733441018210D+03 0.208575312504577D+02
 0.549533686602592D+02 0.151025102900117D+02 -.389565426838366D+02 0.356955836508224D+02
 0.000000000000000D+00 0.000000000000000D+00 0.000000000000000D+00 0.000000000000000D+00
 0.560855090351009D+03 0.000000000000000D+00 0.000000000000000D+00 0.560855090351009D+03
 0.505844531166658D+03 0.000000000000000D+00 0.000000000000000D+00 -.505844531166658D+03
 0.497883941558267D+03 -.168702362871443D+03 0.447889134963275D+03 -.565531149012801D+02
 0.452903003629896D+03 0.142478529043166D+03 -.429401866377888D+03 0.208575312504577D+02
 0.556318601905131D+02 0.144558824570850D+02 -.401466890100650D+02 0.356955836508224D+02
 0.602808161389904D+02 0.117679513711920D+02 0.216594204246785D+02 0.550105591843516D+02
0.697100052643D-05 0.000000000000D+00 0.000000000000D+00 0.280737660164D-06 0.000000000000D+00  6 -2 2 25 1 -1 21 0 0.40447336D-01 0.14808813D+00 0.24467089D+06 0.24467089D+06 0.24467089D+06 0.10911638D+01  1  2  2  2  6  2        2 0.133968098656D-03 0.100000000000D+01
0.129118879574D-05 0.000000000000D+00 -.267704775281D-07 0.280737660164D-06 0.000000000000D+00  6 -2 2 25 1 -1 21 2 0.40447336D-01 0.14808813D+00 0.24467089D+06 0.24467089D+06 0.24467089D+06 0.10911638D+01  1  2  3  2  6  2        2 0.295444502237D-04 0.100000000000D+01
-.217391228492D-05 0.000000000000D+00 0.000000000000D+00 0.280737660164D-06 0.000000000000D+00  6 -2 2 25 1 -1 21 2 0.40447336D-01 0.14808813D+00 0.24467089D+06 0.24467089D+06 0.24467089D+06 0.10911638D+01  1  2 15  2  6  2        2 -.497425655371D-04 0.100000000000D+01
-.642251861049D-06 0.000000000000D+00 0.000000000000D+00 0.280737660164D-06 0.000000000000D+00  6 -2 2 25 1 -1 21 2 0.40447336D-01 0.14808813D+00 0.24467089D+06 0.24467089D+06 0.24467089D+06 0.10911638D+01  1  2  4  2  6  2        2 -.146957425611D-04 0.100000000000D+01
  </mgrwgt>
  </event>
  <event>
  7     66 0.18402180E-05 0.37556520E+02 0.75467711E-02 0.94944348E-01
       -2 -1    0    0    0  501 0.00000000E+00 0.00000000E+00 0.16620576E+04 0.16620576E+04 0.32000000E+00 0.0000E+00 0.9000E+01
        2 -1    0    0  503    0 0.00000000E+00 0.00000000E+00 -.22458513E+03 0.22458535E+03 0.32000000E+00 0.0000E+00 0.9000E+01
       23  2    1    2    0    0 0.34237786E+03 -.26065976E+03 0.55638408E+03 0.70911144E+03 0.90053796E+02 0.0000E+00 0.0000E+00
       25  1    1    2    0    0 -.39128215E+03 0.27094378E+03 0.96307961E+03 0.10815080E+04 0.12500000E+03 0.0000E+00 0.9000E+01
        1  1    3    3  502    0 0.31630807E+03 -.24233374E+03 0.46523607E+03 0.61255297E+03 0.32000000E+00 0.0000E+00 0.9000E+01
       -1  1    3    3    0  502 0.26069784E+02 -.18326028E+02 0.91148010E+02 0.96558475E+02 0.32000000E+00 0.0000E+00 0.9000E+01
       21  1    1    2  503  501 0.48904294E+02 -.10284016E+02 -.81991226E+02 0.96023511E+02 0.75000000E+00 0.0000E+00 0.9000E+01
#aMCatNLO 2  0  0  2  1 0.49973902D+02 0.00000000D+00  -5  6  0 0.00000000D+00 0.00000000D+00 0.00000000D+00 0.00000000D+00 0.00000000D+00
  <mgrwgt>
 0.4246808576D-03    1    2    0
 0.473035611880719D+03 0.000000000000000D+00 0.000000000000000D+00 0.473035611880719D+03
 0.473035611880719D+03 0.000000000000000D+00 0.000000000000000D+00 -.473035611880719D+03
 0.477007466064073D+03 -.366061384110800D+03 0.265640139738599D+03 0.857059035505220D+02
 0.431157431447045D+03 0.338078429390800D+03 -.246913852020723D+03 -.103117680118163D+03
 0.379063262503192D+02 0.279829547199994D+02 -.187262877178758D+02 0.174117765676406D+02
 0.000000000000000D+00 0.000000000000000D+00 -.000000000000000D+00 -.000000000000000D+00
 0.475702756073984D+03 0.000000000000000D+00 0.000000000000000D+00 0.475702756073984D+03
 0.784676875322225D+03 0.000000000000000D+00 0.000000000000000D+00 -.784676875322225D+03
 0.499482488945056D+03 -.391282152470480D+03 0.270943780178480D+03 0.857059035505220D+02
 0.411598570581701D+03 0.316311739624187D+03 -.242336564983223D+03 -.103117680118163D+03
 0.363091195168276D+02 0.260661192658281D+02 -.183231990456213D+02 0.174117765676406D+02
 0.312989452352625D+03 0.489042935804646D+02 -.102840161496356D+02 -.308974119248240D+03
0.352342421403D-03 0.000000000000D+00 0.000000000000D+00 0.122837432057D-04 0.357322137809D-07  6 -2 2 25 1 -1 21 2 0.25570095D+00 0.34551545D-01 0.23638194D+06 0.23638194D+06 0.23638194D+06 0.10922939D+01  1  2  1  2  6  2        2 0.424680857641D-03 0.100000000000D+01
  </mgrwgt>
  </event>
  <event>
  7     66 0.18402180E-05 0.12322999E+03 0.75467711E-02 0.94175933E-01
       21 -1    0    0  503  501 0.00000000E+00 0.00000000E+00 0.18980474E+03 0.18980622E+03 0.75000000E+00 0.0000E+00 0.9000E+01
        2 -1    0    0  501    0 0.00000000E+00 0.00000000E+00 -.19606570E+04 0.19606571E+04 0.32000000E+00 0.0000E+00 0.9000E+01
       23  2    1    2    0    0 -.10719122E+03 0.77417793E+02 -.63832601E+03 0.65779965E+03 0.88072755E+02 0.0000E+00 0.0000E+00
       25  1    1    2    0    0 0.86136193E+02 -.47195731E+03 -.91740597E+03 0.10427952E+04 0.12500000E+03 0.0000E+00 0.9000E+01
        1  1    3    3  502    0 0.92560621E+01 0.15088621E+02 -.17863462E+03 0.17950981E+03 0.32000000E+00 0.0000E+00 0.9000E+01
        2  1    1    2  503    0 0.21055029E+02 0.39453952E+03 -.21512032E+03 0.44986842E+03 0.32000000E+00 0.0000E+00 0.9000E+01
       -1  1    3    3    0  502 -.11644728E+03 0.62329172E+02 -.45969139E+03 0.47828984E+03 0.32000000E+00 0.0000E+00 0.9000E+01
#aMCatNLO 2  0  0  1  2 0.33875074D+02 0.00000000D+00  -5  6  0 0.00000000D+00 0.00000000D+00 0.00000000D+00 0.00000000D+00 0.00000000D+00
  <mgrwgt>
 0.3608327238D-02    1    2    0
 0.280898625925952D+03 0.000000000000000D+00 0.000000000000000D+00 0.280898625925952D+03
 0.280898625925952D+03 0.000000000000000D+00 0.000000000000000D+00 -.280898625925952D+03
 0.287901321655866D+03 0.994892205541331D+02 -.221741697891051D+03 0.905245017722801D+02
 0.596525942917255D+02 0.109354826507692D+02 0.465267384390859D+02 -.356946751651955D+02
 0.000000000000000D+00 0.000000000000000D+00 0.000000000000000D+00 0.000000000000000D+00
 0.214243335904311D+03 -.110424703204902D+03 0.175214959451965D+03 -.548298266070846D+02
 0.899899836661575D+03 0.000000000000000D+00 0.000000000000000D+00 0.899899836661575D+03
 0.413538863976246D+03 0.000000000000000D+00 0.000000000000000D+00 -.413538863976246D+03
 0.503967094330007D+03 0.861361929001754D+02 -.471957310589607D+03 0.905245017722801D+02
 0.398429780646574D+02 0.925772015601550D+01 0.150879979926050D+02 -.356946751651955D+02
 0.626619294488922D+03 0.210550293797479D+02 0.394539516667460D+03 0.486360972685329D+03
 0.143009333754234D+03 -.116448942435939D+03 0.623297959295419D+02 -.548298266070846D+02
0.275822338197D-04 0.000000000000D+00 0.000000000000D+00 0.512037851217D-05 0.694845744306D-10  6 21 2 25 1 2 -1 2 0.29200843D-01 0.30163963D+00 0.27074011D+06 0.27074011D+06 0.27074011D+06 0.10878647D+01  1  2  1  5  5  1       -2 0.360832723831D-02 0.100000000000D+01
  </mgrwgt>
  </event>
  <event>
  7     66 0.18402180E-05 0.59285027E+02 0.75467711E-02 0.91622071E-01
       -2 -1    0    0    0  503 0.00000000E+00 0.00000000E+00 0.14348462E+04 0.14348462E+04 0.32000000E+00 0.0000E+00 0.9000E+01
        2 -1    0    0  501    0 0.00000000E+00 0.00000000E+00 -.60568539E+03 0.60568547E+03 0.32000000E+00 0.0000E+00 0.9000E+01
       23  2    1    2    0    0 -.10294061E+03 0.60165601E+03 -.24200970E+03 0.66264526E+03 0.89125305E+02 0.0000E+00 0.0000E+00
       25  1    1    2    0    0 0.24587971E+02 -.61170486E+03 0.49721694E+03 0.79852182E+03 0.12500000E+03 0.0000E+00 0.9000E+01
        1  1    3    3  502    0 -.26771115E+02 0.97222361E+02 -.75616782E+02 0.12604317E+03 0.32000000E+00 0.0000E+00 0.9000E+01
       -1  1    3    3    0  502 -.76169499E+02 0.50443365E+03 -.16639292E+03 0.53660209E+03 0.32000000E+00 0.0000E+00 0.9000E+01
       21  1    1    2  501  503 0.78352643E+02 0.10048854E+02 0.57395353E+03 0.57936459E+03 0.75000000E+00 0.0000E+00 0.9000E+01
#aMCatNLO 2  0  0  1  1 0.37977528D+01 0.00000000D+00  -5  6  0 0.00000000D+00 0.00000000D+00 0.00000000D+00 0.00000000D+00 0.00000000D+00
  <mgrwgt>
 0.4479667517D-04    1    2    0
 0.718268469465279D+03 0.000000000000000D+00 0.000000000000000D+00 0.718268469465279D+03
 0.718268469465279D+03 0.000000000000000D+00 0.000000000000000D+00 -.718268469465279D+03
 0.720942149394480D+03 0.639307440106886D+02 -.606659087955630D+03 0.363332070900184D+03
 0.140852227573732D+03 -.190783768601563D+02 0.982036358803990D+02 -.991534742141411D+02
 0.574742561962345D+03 -.448523671505323D+02 0.508455452075231D+03 -.264178596686043D+03
 0.000000000000000D+00 0.000000000000000D+00 0.000000000000000D+00 0.000000000000000D+00
 0.120272296096412D+04 0.000000000000000D+00 0.000000000000000D+00 0.120272296096412D+04
 0.722581020690176D+03 0.000000000000000D+00 0.000000000000000D+00 -.722581020690176D+03
 0.722788074800944D+03 0.245879709819427D+02 -.611704862668942D+03 0.363332070900184D+03
 0.141418657523376D+03 -.267704783198924D+02 0.972171113410786D+02 -.991534742141411D+02
 0.574500497459660D+03 -.761701355839659D+02 0.504438897270532D+03 -.264178596686043D+03
 0.486596751870320D+03 0.783526429219155D+02 0.100488540573320D+02 0.480141940273948D+03
0.717896167979D-04 0.000000000000D+00 0.000000000000D+00 0.666997272905D-05 0.747046439611D-08  6 -2 2 25 1 -1 21 2 0.22074548D+00 0.93182340D-01 0.43218611D+06 0.43218611D+06 0.43218611D+06 0.10730130D+01  1  2  1  1  6  1       -2 0.447966751705D-04 0.100000000000D+01
  </mgrwgt>
  </event>
  <event>
  7     66 0.18402180E-05 0.66369282E+02 0.75467711E-02 0.90000910E-01
       -2 -1    0    0    0  501 0.00000000E+00 0.00000000E+00 0.47296395E+03 0.47296406E+03 0.32000000E+00 0.0000E+00 0.9000E+01
        2 -1    0    0  503    0 0.00000000E+00 0.00000000E+00 -.14620261E+04 0.14620261E+04 0.32000000E+00 0.0000E+00 0.9000E+01
       23  2    1    2    0    0 -.69820995E+03 0.26710641E+03 -.77452775E+03 0.10817873E+04 0.10736668E+03 0.0000E+00 0.0000E+00
       25  1    1    2    0    0 0.68957546E+03 -.29411316E+03 -.13915206E+03 0.77266109E+03 0.12500000E+03 0.0000E+00 0.9000E+01
        1  1    3    3  502    0 -.44646642E+03 0.16817144E+03 -.56600867E+03 0.74025659E+03 0.32000000E+00 0.0000E+00 0.9000E+01
       -1  1    3    3    0  502 -.25174353E+03 0.98934966E+02 -.20851908E+03 0.34153073E+03 0.32000000E+00 0.0000E+00 0.9000E+01
       21  1    1    2  503  501 0.86344947E+01 0.27006751E+02 -.75382350E+02 0.80541792E+02 0.75000000E+00 0.0000E+00 0.9000E+01
#aMCatNLO 2  0  0  2  1 0.21101776D+01 0.00000000D+00  -5  6  0 0.00000000D+00 0.00000000D+00 0.00000000D+00 0.00000000D+00 0.00000000D+00
  <mgrwgt>
 0.9346785122D-04    1    2    0
 0.806747202778384D+03 0.000000000000000D+00 0.000000000000000D+00 0.806747202778384D+03
 0.806747202778384D+03 0.000000000000000D+00 0.000000000000000D+00 -.806747202778384D+03
 0.808016931475426D+03 0.693902129940426D+03 -.280580307451760D+03 0.277562401426020D+03
 0.530716051869082D+03 -.443629642524216D+03 0.177050280373734D+03 -.231312486054955D+03
 0.274761422212261D+03 -.250272487416209D+03 0.103530027078027D+03 -.462499153710649D+02
 0.000000000000000D+00 0.000000000000000D+00 0.000000000000000D+00 -.000000000000000D+00
 0.811294061851589D+03 0.000000000000000D+00 0.000000000000000D+00 0.811294061851589D+03
 0.852318574163732D+03 0.000000000000000D+00 0.000000000000000D+00 -.852318574163732D+03
 0.809124681796382D+03 0.689575457710761D+03 -.294113162115726D+03 0.277562401426020D+03
 0.530208562390091D+03 -.446468152787394D+03 0.168172060620829D+03 -.231312486054955D+03
 0.274410265757910D+03 -.251741799610119D+03 0.989343500031975D+02 -.462499153710649D+02
 0.498691260709382D+02 0.863449468675124D+01 0.270067514917000D+02 -.410245123121427D+02
0.287404298628D-04 0.000000000000D+00 0.000000000000D+00 0.216341809546D-06 0.163506156170D-08  6 -2 2 25 1 -1 21 2 0.72763444D-01 0.22492633D+00 0.58979057D+06 0.58979057D+06 0.58979057D+06 0.10634777D+01  1  2  1  2  6  2        2 0.934678512189D-04 0.100000000000D+01
  </mgrwgt>
  </event>
  <event>
  7     66 0.18402180E-05 0.65115067E+02 0.75467711E-02 0.94223169E-01
       -2 -1    0    0    0  503 0.00000000E+00 0.00000000E+00 0.10443154E+04 0.10443154E+04 0.32000000E+00 0.0000E+00 0.9000E+01
        2 -1    0    0  501    0 0.00000000E+00 0.00000000E+00 -.37228201E+03 0.37228215E+03 0.32000000E+00 0.0000E+00 0.9000E+01
       23  2    1    2    0    0 0.43395574E+03 -.24373829E+03 0.65196711E+03 0.82548511E+03 0.92944150E+02 0.0000E+00 0.0000E+00
       25  1    1    2    0    0 -.44477629E+03 0.21977943E+03 -.52136952E+02 0.51426862E+03 0.12500000E+03 0.0000E+00 0.9000E+01
        1  1    3    3  502    0 0.18717602E+03 -.90632928E+02 0.34558509E+03 0.40333404E+03 0.32000000E+00 0.0000E+00 0.9000E+01
       -1  1    3    3    0  502 0.24677972E+03 -.15310536E+03 0.30638202E+03 0.42215107E+03 0.32000000E+00 0.0000E+00 0.9000E+01
       21  1    1    2  501  503 0.10820553E+02 0.23958851E+02 0.72203209E+02 0.76843847E+02 0.75000000E+00 0.0000E+00 0.9000E+01
#aMCatNLO 2  0  0  1  5 0.75612193D+02 0.00000000D+00  -5  6  0 0.00000000D+00 0.00000000D+00 0.00000000D+00 0.00000000D+00 0.00000000D+00
  <mgrwgt>
 0.6106494767D-03    1    2    0
 0.598843201298016D+03 0.000000000000000D+00 0.000000000000000D+00 0.598843201298016D+03
 0.598843201298016D+03 0.000000000000000D+00 0.000000000000000D+00 -.598843201298016D+03
 0.601759818346226D+03 -.439342682061721D+03 0.231810524501838D+03 -.315803368292802D+03
 0.277976976986823D+03 0.189686658265545D+03 -.850715782374223D+02 0.184534544156311D+03
 0.317949607262983D+03 0.249656023796177D+03 -.146738946264415D+03 0.131268824136491D+03
 0.000000000000000D+00 0.000000000000000D+00 0.000000000000000D+00 0.000000000000000D+00
 0.645013543870993D+03 0.000000000000000D+00 0.000000000000000D+00 0.645013543870993D+03
 0.602741351117335D+03 0.000000000000000D+00 0.000000000000000D+00 -.602741351117335D+03
 0.601236822839554D+03 -.444776292101491D+03 0.219779434200678D+03 -.315803368292802D+03
 0.278031995313376D+03 0.187175316312740D+03 -.906321874070413D+02 0.184534544156311D+03
 0.318706068845419D+03 0.246780422522536D+03 -.153106097815608D+03 0.131268824136491D+03
 0.497800079899789D+02 0.108205532662145D+02 0.239588510219712D+02 0.422721927536575D+02
0.202545135344D-03 0.000000000000D+00 0.000000000000D+00 0.845659256805D-05 0.775238514009D-07  6 -2 2 25 1 -1 21 2 0.16066317D+00 0.57273903D-01 0.26847342D+06 0.26847342D+06 0.26847342D+06 0.10881375D+01  1  2  1  1  6  1       -2 0.610649476673D-03 0.100000000000D+01
  </mgrwgt>
  </event>
  <event>
  7     66 0.18402180E-05 0.40134357E+02 0.75467711E-02 0.93914629E-01
       -2 -1    0    0    0  501 0.00000000E+00 0.00000000E+00 0.37579548E+03 0.37579561E+03 0.32000000E+00 0.0000E+00 0.9000E+01
        2 -1    0    0  503    0 0.00000000E+00 0.00000000E+00 -.76519021E+03 0.76519027E+03 0.32000000E+00 0.0000E+00 0.9000E+01
       23  2    1    2    0    0 0.39978198E+03 -.33724087E+03 -.18378925E+03 0.56242517E+03 0.94797384E+02 0.0000E+00 0.0000E+00
       25  1    1    2    0    0 -.39029135E+03 0.31875887E+03 -.19124795E+03 0.55329497E+03 0.12500000E+03 0.0000E+00 0.9000E+01
        1  1    3    3  502    0 0.10093090E+03 -.58909124E+02 -.78175995E+02 0.14060199E+03 0.32000000E+00 0.0000E+00 0.9000E+01
       -1  1    3    3    0  502 0.29885108E+03 -.27833175E+03 -.10561325E+03 0.42182318E+03 0.32000000E+00 0.0000E+00 0.9000E+01
       21  1    1    2  503  501 -.94906351E+01 0.18482008E+02 -.14357523E+02 0.25265743E+02 0.75000000E+00 0.0000E+00 0.9000E+01
#aMCatNLO 2  0  0  2  1 0.20815790D+01 0.00000000D+00  -5  6  0 0.00000000D+00 0.00000000D+00 0.00000000D+00 0.00000000D+00 0.00000000D+00
  <mgrwgt>
 0.4351251392D-03    1    2    0
 0.525296792262621D+03 0.000000000000000D+00 0.000000000000000D+00 0.525296792262621D+03
 0.525296792262621D+03 0.000000000000000D+00 0.000000000000000D+00 -.525296792262621D+03
 0.528456176114775D+03 -.395023030230819D+03 0.327973318882700D+03 -.558907525252913D+01
 0.119459626536961D+03 0.998409059011736D+02 -.567883756927951D+02 -.328249336230440D+02
 0.402677781873506D+03 0.295182124329646D+03 -.271184943189905D+03 0.384140088755731D+02
 0.000000000000000D+00 -.000000000000000D+00 0.000000000000000D+00 -.000000000000000D+00
 0.533130732187193D+03 0.000000000000000D+00 0.000000000000000D+00 0.533130732187193D+03
 0.539357712941871D+03 0.000000000000000D+00 0.000000000000000D+00 -.539357712941871D+03
 0.519221327859884D+03 -.390291346613733D+03 0.318758865446661D+03 -.558907525252913D+01
 0.121383924959334D+03 0.100928640898415D+03 -.589066245644311D+02 -.328249336230440D+02
 0.410193746334751D+03 0.298853340785308D+03 -.278334248980800D+03 0.384140088755731D+02
 0.216894459750931D+02 -.949063506999061D+01 0.184820080985702D+02 -.622698075467821D+01
0.286852535484D-04 0.000000000000D+00 0.000000000000D+00 0.410834293466D-05 0.602196187527D-07  6 -2 2 25 1 -1 21 2 0.57814005D-01 0.11772016D+00 0.28367344D+06 0.28367344D+06 0.28367344D+06 0.10863545D+01  1  2  1  2  6  2        2 0.435125139165D-03 0.100000000000D+01
  </mgrwgt>
  </event>
  <event>
  7     66 0.18402180E-05 0.41011444E+02 0.75467711E-02 0.87772617E-01
       21 -1    0    0  503  501 0.00000000E+00 0.00000000E+00 0.75973473E+03 0.75973510E+03 0.75000000E+00 0.0000E+00 0.9000E+01
        2 -1    0    0  501    0 0.00000000E+00 0.00000000E+00 -.20657793E+04 0.20657793E+04 0.32000000E+00 0.0000E+00 0.9000E+01
       23  2    1    2    0    0 0.34899844E+02 -.94993284E+03 -.87176574E+03 0.12929285E+04 0.89990279E+02 0.0000E+00 0.0000E+00
       25  1    1    2    0    0 -.53814422E+02 0.93469052E+03 -.75606946E+03 0.12098795E+04 0.12500000E+03 0.0000E+00 0.9000E+01
        1  1    3    3  502    0 0.41443604E+02 -.70347129E+03 -.59514428E+03 0.92238075E+03 0.32000000E+00 0.0000E+00 0.9000E+01
        2  1    1    2  503    0 0.18914578E+02 0.15242325E+02 0.32179065E+03 0.32270639E+03 0.32000000E+00 0.0000E+00 0.9000E+01
       -1  1    3    3    0  502 -.65437600E+01 -.24646155E+03 -.27662145E+03 0.37054777E+03 0.32000000E+00 0.0000E+00 0.9000E+01
#aMCatNLO 2  0  0  1  2 0.66297878D+00 0.00000000D+00  -5  6  0 0.00000000D+00 0.00000000D+00 0.00000000D+00 0.00000000D+00 0.00000000D+00
  <mgrwgt>
 0.4228479181D-04    1    2    0
 0.950474935672174D+03 0.000000000000000D+00 0.000000000000000D+00 0.950474935672174D+03
 0.950474935672174D+03 0.000000000000000D+00 0.000000000000000D+00 -.950474935672174D+03
 0.952454669549121D+03 -.443728258380611D+02 0.942299033196555D+03 0.406015013257794D+02
 0.699554113135336D+03 0.484302602906091D+02 -.697847357302268D+03 0.628752725564820D+01
 0.000000000000000D+00 0.000000000000000D+00 0.000000000000000D+00 0.000000000000000D+00
 0.248941088659892D+03 -.405743445254799D+01 -.244451675894287D+03 -.468890285814276D+02
 0.165072085470710D+04 0.000000000000000D+00 0.000000000000000D+00 0.165072085470710D+04
 0.950763232766930D+03 0.000000000000000D+00 0.000000000000000D+00 -.950763232766930D+03
 0.945418339097842D+03 -.538144218789396D+02 0.934690516690124D+03 0.406015013257794D+02
 0.704724870895062D+03 0.414442107311801D+02 -.703477070028541D+03 0.628752725564820D+01
 0.700379013286007D+03 0.189145779287589D+02 0.152423253187344D+02 0.699957621940168D+03
 0.250961864195117D+03 -.654436678099935D+01 -.246455771980317D+03 -.468890285814276D+02
0.105654108508D-04 0.000000000000D+00 0.000000000000D+00 0.163540147933D-04 0.115070471976D-07  6 21 2 25 1 2 -1 2 0.11688229D+00 0.31781221D+00 0.92167425D+06 0.92167425D+06 0.92167425D+06 0.10502301D+01  1  2  1  5  5  1       -2 0.422847918114D-04 0.100000000000D+01
  </mgrwgt>
  </event>
  <event>
  7     66 0.18402180E-05 0.36769251E+02 0.75467711E-02 0.92082780E-01
       -2 -1    0    0    0  501 0.00000000E+00 0.00000000E+00 0.36412879E+03 0.36412893E+03 0.32000000E+00 0.0000E+00 0.9000E+01
        2 -1    0    0  503    0 0.00000000E+00 0.00000000E+00 -.11680763E+04 0.11680763E+04 0.32000000E+00 0.0000E+00 0.9000E+01
       23  2    1    2    0    0 0.55186203E+03 0.28834980E+03 -.40830020E+03 0.75027774E+03 0.92251459E+02 0.0000E+00 0.0000E+00
       25  1    1    2    0    0 -.54389325E+03 -.27830030E+03 -.31201793E+03 0.69731708E+03 0.12500000E+03 0.0000E+00 0.9000E+01
        1  1    3    3  502    0 0.44915889E+03 0.24120674E+03 -.28939010E+03 0.58623471E+03 0.32000000E+00 0.0000E+00 0.9000E+01
       -1  1    3    3    0  502 0.10270314E+03 0.47143062E+02 -.11891010E+03 0.16404304E+03 0.32000000E+00 0.0000E+00 0.9000E+01
       21  1    1    2  503  501 -.79687822E+01 -.10049498E+02 -.83629324E+02 0.84610403E+02 0.75000000E+00 0.0000E+00 0.9000E+01
#aMCatNLO 2  0  0  2  1 0.98149380D+01 0.00000000D+00  -5  6  0 0.00000000D+00 0.00000000D+00 0.00000000D+00 0.00000000D+00 0.00000000D+00
  <mgrwgt>
 0.2304793575D-03    1    2    0
 0.627795362786102D+03 0.000000000000000D+00 0.000000000000000D+00 0.627795362786102D+03
 0.627795362786102D+03 0.000000000000000D+00 0.000000000000000D+00 -.627795362786102D+03
 0.630628558411569D+03 -.547877389294580D+03 -.283324737878501D+03 0.403092779653498D+02
 0.505084933987835D+03 0.445942466217089D+03 0.237147552334174D+03 0.267316060619383D+01
 0.119877233172799D+03 0.101934923077490D+03 0.461771855443276D+02 -.429824385715436D+02
 0.000000000000000D+00 -.000000000000000D+00 -.000000000000000D+00 -.000000000000000D+00
 0.628672205681022D+03 0.000000000000000D+00 0.000000000000000D+00 0.628672205681022D+03
 0.676547330395000D+03 0.000000000000000D+00 0.000000000000000D+00 -.676547330395000D+03
 0.624916602442346D+03 -.543893246720179D+03 -.278300302353732D+03 0.403092779653498D+02
 0.509839601724628D+03 0.449163062479660D+03 0.241209073218636D+03 0.267316060619383D+01
 0.120900024280769D+03 0.102698966420794D+03 0.471407269951850D+02 -.429824385715436D+02
 0.495633076282797D+02 -.796878218027517D+01 -.100494978600882D+02 -.478751247139776D+02
0.265617950207D-04 0.000000000000D+00 0.000000000000D+00 0.126105888143D-04 0.474555244699D-06  6 -2 2 25 1 -1 21 2 0.56019576D-01 0.17970324D+00 0.39644323D+06 0.39644323D+06 0.39644323D+06 0.10757074D+01  1  2  1  2  6  2        2 0.230479357543D-03 0.100000000000D+01
  </mgrwgt>
  </event>
  <event>
  7     66 0.18402180E-05 0.89430744E+02 0.75467711E-02 0.93907308E-01
       -2 -1    0    0    0  501 0.00000000E+00 0.00000000E+00 0.57637083E+03 0.57637092E+03 0.32000000E+00 0.0000E+00 0.9000E+01
        2 -1    0    0  503    0 0.00000000E+00 0.00000000E+00 -.61667297E+03 0.61667305E+03 0.32000000E+00 0.0000E+00 0.9000E+01
       23  2    1    2    0    0 0.24931024E+03 0.35788713E+03 0.10603140E+03 0.45903586E+03 0.96085738E+02 0.0000E+00 0.0000E+00
       25  1    1    2    0    0 -.16485806E+03 -.45568639E+03 -.25816383E+03 0.56311796E+03 0.12500000E+03 0.0000E+00 0.9000E+01
        1  1    3    3  502    0 0.98899408E+02 0.14940420E+03 -.44403927E+01 0.17922759E+03 0.32000000E+00 0.0000E+00 0.9000E+01
       -1  1    3    3    0  502 0.15041083E+03 0.20848293E+03 0.11047180E+03 0.27980827E+03 0.32000000E+00 0.0000E+00 0.9000E+01
       21  1    1    2  503  501 -.84452181E+02 0.97799265E+02 0.11183029E+03 0.17089015E+03 0.75000000E+00 0.0000E+00 0.9000E+01
#aMCatNLO 2  0  0  2  4 0.70470056D+01 0.00000000D+00  -5  6  0 0.00000000D+00 0.00000000D+00 0.00000000D+00 0.00000000D+00 0.00000000D+00
  <mgrwgt>
 0.4491264193D-04    1    2    0
 0.501237787319237D+03 0.000000000000000D+00 0.000000000000000D+00 0.501237787319237D+03
 0.501237787319237D+03 0.000000000000000D+00 0.000000000000000D+00 -.501237787319237D+03
 0.504426160505524D+03 -.208275804726809D+03 -.405406770408694D+03 -.176315884351176D+03
 0.188314446205895D+03 0.834244836658638D+02 0.167323511692035D+03 0.224839633953237D+02
 0.309734967927056D+03 0.124851321060946D+03 0.238083258716659D+03 0.153831920955853D+03
 0.000000000000000D+00 -.000000000000000D+00 0.000000000000000D+00 0.000000000000000D+00
 0.669612407714879D+03 0.000000000000000D+00 0.000000000000000D+00 0.669612407714879D+03
 0.530801768952807D+03 0.000000000000000D+00 0.000000000000000D+00 -.530801768952807D+03
 0.530603957397742D+03 -.164858055863533D+03 -.455686394298210D+03 -.176315884351176D+03
 0.180576652876720D+03 0.988988363642303D+02 0.149403544536260D+03 0.224839633953237D+02
 0.299588475523227D+03 0.150411400701743D+03 0.208483585205894D+03 0.153831920955853D+03
 0.189645090869997D+03 -.844521812024401D+02 0.977992645560549D+02 0.138810638762072D+03
0.578851135884D-05 0.000000000000D+00 0.000000000000D+00 0.286007949095D-05 0.113786407074D-08  6 -2 2 25 1 -1 21 2 0.88672329D-01 0.94872649D-01 0.28404564D+06 0.28404564D+06 0.28404564D+06 0.10863121D+01  1  2  1  2  6  2        2 0.449126419345D-04 0.100000000000D+01
  </mgrwgt>
  </event>
  <event>
  6     66 0.18402180E-05 0.22249164E+02 0.75467711E-02 0.95403941E-01
       -2 -1    0    0    0  501 0.00000000E+00 0.00000000E+00 0.12676950E+03 0.12676990E+03 0.32000000E+00 0.0000E+00 0.9000E+01
        2 -1    0    0  501    0 -.00000000E+00 -.00000000E+00 -.18623599E+04 0.18623599E+04 0.32000000E+00 0.0000E+00 0.9000E+01
       23  2    1    2    0    0 -.17311636E+03 0.42435664E+03 -.11041412E+04 0.11989394E+04 0.90994650E+02 0.0000E+00 0.0000E+00
       25  1    1    2    0    0 0.17311636E+03 -.42435664E+03 -.63144915E+03 0.79019040E+03 0.12500000E+03 0.0000E+00 0.9000E+01
        1  1    3    3  502    0 -.16923583E+03 0.39760146E+03 -.96700116E+03 0.10591596E+04 0.32000000E+00 0.0000E+00 0.9000E+01
       -1  1    3    3    0  502 -.38805254E+01 0.26755185E+02 -.13714007E+03 0.13977982E+03 0.32000000E+00 0.0000E+00 0.9000E+01
#aMCatNLO 1  0  0  4  5 0.62857276D+00 0.00000000D+00  -5  6  0 0.00000000D+00 0.00000000D+00 0.00000000D+00 0.00000000D+00 0.00000000D+00
  <mgrwgt>
 0.1967946720D-02    3    2    0
 0.485891817235957D+03 0.000000000000000D+00 0.000000000000000D+00 0.485891817235957D+03
 0.485891817235957D+03 -.000000000000000D+00 -.000000000000000D+00 -.485891817235957D+03
 0.489670937083362D+03 0.173116355189562D+03 -.424356644291366D+03 0.118763599792825D+03
 0.440934368446039D+03 -.169237874827064D+03 0.397606046004382D+03 -.876988664789219D+02
 0.411783289425127D+02 -.387848036249785D+01 0.267505982869842D+02 -.310647333139026D+02
 0.000000000000000D+00 0.000000000000000D+00 0.000000000000000D+00 0.000000000000000D+00
 0.485891817235957D+03 0.000000000000000D+00 0.000000000000000D+00 0.485891817235957D+03
 0.485891817235957D+03 -.000000000000000D+00 -.000000000000000D+00 -.485891817235957D+03
 0.261412618612432D+03 0.792231632620054D+02 -.203764765391950D+03 0.701082588382727D+02
 0.325460491390092D+03 0.171327893768819D+03 0.141031852696480D+03 -.238078350123692D+03
 0.741168096941995D+02 -.182915619673834D+02 0.606125715214801D+02 -.385335751467860D+02
 0.310793714775190D+03 -.232259495063441D+03 0.212034117399008D+01 0.206503666432205D+03
0.996755352625D-04 0.000000000000D+00 0.000000000000D+00 0.698925052360D-05 0.000000000000D+00  6 -2 2 25 1 -1 21 0 0.19503033D-01 0.28651694D+00 0.21818505D+06 0.21818505D+06 0.21818505D+06 0.10949344D+01  1  2  2  3  6  4        1 0.215695680123D-02 0.100000000000D+01
0.235808057046D-04 0.000000000000D+00 -.382780300579D-06 0.698925052360D-05 0.000000000000D+00  6 -2 2 25 1 -1 21 2 0.19503033D-01 0.28651694D+00 0.21818505D+06 0.21818505D+06 0.21818505D+06 0.10949344D+01  1  2  3  3  6  4        1 0.611769315415D-03 0.100000000000D+01
-.308662479321D-04 0.000000000000D+00 0.000000000000D+00 0.698925052360D-05 0.000000000000D+00  6 -2 2 25 1 -1 21 2 0.19503033D-01 0.28651694D+00 0.21818505D+06 0.21818505D+06 0.21818505D+06 0.10949344D+01  1  2 15  3  6  4        1 -.800779396744D-03 0.100000000000D+01
  </mgrwgt>
  </event>
  <event>
  7     66 0.18402180E-05 0.40975460E+02 0.75467711E-02 0.87478590E-01
       -2 -1    0    0    0  501 0.00000000E+00 0.00000000E+00 0.81026497E+03 0.81026504E+03 0.32000000E+00 0.0000E+00 0.9000E+01
        2 -1    0    0  503    0 0.00000000E+00 0.00000000E+00 -.18642242E+04 0.18642243E+04 0.32000000E+00 0.0000E+00 0.9000E+01
       23  2    1    2    0    0 0.38610114E+03 -.88470499E+03 0.18515989E+03 0.98686059E+03 0.88502180E+02 0.0000E+00 0.0000E+00
       25  1    1    2    0    0 -.42886449E+03 0.83563243E+03 -.78956831E+03 0.12333894E+04 0.12500000E+03 0.0000E+00 0.9000E+01
        1  1    3    3  502    0 0.10726525E+03 -.19389044E+03 0.74194861E+02 0.23367566E+03 0.32000000E+00 0.0000E+00 0.9000E+01
       -1  1    3    3    0  502 0.27883590E+03 -.69081455E+03 0.11096503E+03 0.75318493E+03 0.32000000E+00 0.0000E+00 0.9000E+01
       21  1    1    2  503  501 0.42763341E+02 0.49072556E+02 -.44955085E+03 0.45423931E+03 0.75000000E+00 0.0000E+00 0.9000E+01
#aMCatNLO 2  0  0  2  1 0.68628240D+02 0.00000000D+00  -5  6  0 0.00000000D+00 0.00000000D+00 0.00000000D+00 0.00000000D+00 0.00000000D+00
  <mgrwgt>
 0.1342919023D-03    1    2    0
 0.106770357533748D+04 0.000000000000000D+00 0.000000000000000D+00 0.106770357533748D+04
 0.106770357533748D+04 0.000000000000000D+00 0.000000000000000D+00 -.106770357533748D+04
 0.106952813703080D+04 -.407562431079947D+03 0.860077346724612D+03 -.471619823930179D+03
 0.261645446756463D+03 0.112523333843640D+03 -.187847512710794D+03 0.143213655485326D+03
 0.804233566887685D+03 0.295039097236307D+03 -.672229834013818D+03 0.328406168444853D+03
 0.000000000000000D+00 0.000000000000000D+00 0.000000000000000D+00 -.000000000000000D+00
 0.107129851592452D+04 0.000000000000000D+00 0.000000000000000D+00 0.107129851592452D+04
 0.140998475871386D+04 0.000000000000000D+00 0.000000000000000D+00 -.140998475871386D+04
 0.105842173311676D+04 -.428864485400233D+03 0.835632431139639D+03 -.471619823930179D+03
 0.263830410155313D+03 0.107263005390904D+03 -.193883939200136D+03 0.143213655485326D+03
 0.814146817190078D+03 0.278838139057663D+03 -.690821048228095D+03 0.328406168444853D+03
 0.344884314176231D+03 0.427633409516655D+02 0.490725562885918D+02 -.338686242789346D+03
0.266495775743D-03 0.000000000000D+00 0.000000000000D+00 0.421220362294D-05 0.603992202890D-08  6 -2 2 25 1 -1 21 2 0.12465611D+00 0.28680363D+00 0.97928852D+06 0.97928852D+06 0.97928852D+06 0.10484695D+01  1  2  1  2  6  2        2 0.134291902277D-03 0.100000000000D+01
  </mgrwgt>
  </event>
  <event>
  7     66 0.18402180E-05 0.57580541E+02 0.75467711E-02 0.94735007E-01
       -2 -1    0    0    0  503 0.00000000E+00 0.00000000E+00 0.11543440E+04 0.11543440E+04 0.32000000E+00 0.0000E+00 0.9000E+01
        2 -1    0    0  501    0 0.00000000E+00 0.00000000E+00 -.25690273E+03 0.25690293E+03 0.32000000E+00 0.0000E+00 0.9000E+01
       23  2    1    2    0    0 -.36777261E+03 0.30025284E+03 0.18074939E+03 0.51599667E+03 0.90408839E+02 0.0000E+00 0.0000E+00
       25  1    1    2    0    0 0.38121205E+03 -.27758191E+03 0.58869434E+03 0.76456548E+03 0.12500000E+03 0.0000E+00 0.9000E+01
        1  1    3    3  502    0 -.15151679E+03 0.10052556E+03 0.26804636E+02 0.18379695E+03 0.32000000E+00 0.0000E+00 0.9000E+01
       -1  1    3    3    0  502 -.21625582E+03 0.19972728E+03 0.15394476E+03 0.33219972E+03 0.32000000E+00 0.0000E+00 0.9000E+01
       21  1    1    2  501  503 -.13439439E+02 -.22670931E+02 0.12799752E+03 0.13068480E+03 0.75000000E+00 0.0000E+00 0.9000E+01
#aMCatNLO 2  0  0  1  2 0.29428063D+00 0.00000000D+00  -5  6  0 0.00000000D+00 0.00000000D+00 0.00000000D+00 0.00000000D+00 0.00000000D+00
  <mgrwgt>
 0.1031659550D-02    1    2    0
 0.511639808255402D+03 0.000000000000000D+00 0.000000000000000D+00 0.511639808255402D+03
 0.511639808255402D+03 0.000000000000000D+00 0.000000000000000D+00 -.511639808255402D+03
 0.515280671290795D+03 0.374454262388443D+03 -.288981596551546D+03 0.161749227013727D+03
 0.209615148659670D+03 -.154269645748590D+03 0.958791733338810D+02 -.104625862333515D+03
 0.298383796560340D+03 -.220184616639854D+03 0.193102423217665D+03 -.571233646802116D+02
 0.000000000000000D+00 -.000000000000000D+00 -.000000000000000D+00 0.000000000000000D+00
 0.576390406618023D+03 0.000000000000000D+00 0.000000000000000D+00 0.576390406618023D+03
 0.514498311096081D+03 0.000000000000000D+00 0.000000000000000D+00 -.514498311096081D+03
 0.513967078768459D+03 0.381212053126499D+03 -.277581908937387D+03 0.161749227013727D+03
 0.209782749876053D+03 -.151515981012260D+03 0.100524318323576D+03 -.104625862333515D+03
 0.299869125447385D+03 -.216256633260608D+03 0.199728521185578D+03 -.571233646802116D+02
 0.672697636222072D+02 -.134394388536313D+02 -.226709305717664D+02 0.618920955219428D+02
0.300342247931D-03 0.000000000000D+00 0.000000000000D+00 0.362701902655D-04 0.333701806412D-06  6 -2 2 25 1 -1 21 2 0.17759068D+00 0.39523355D-01 0.24523050D+06 0.24523050D+06 0.24523050D+06 0.10910890D+01  1  2  1  1  6  1       -2 0.103165955043D-02 0.100000000000D+01
  </mgrwgt>
  </event>
  <event>
  7     66 0.18402180E-05 0.80399265E+02 0.75467711E-02 0.92193444E-01
       -2 -1    0    0    0  503 0.00000000E+00 0.00000000E+00 0.16213319E+03 0.16213350E+03 0.32000000E+00 0.0000E+00 0.9000E+01
        2 -1    0    0  501    0 0.00000000E+00 0.00000000E+00 -.32716078E+04 0.32716078E+04 0.32000000E+00 0.0000E+00 0.9000E+01
       23  2    1    2    0    0 0.36297141E+03 0.49235912E+03 -.21399262E+04 0.22275440E+04 0.92209369E+02 0.0000E+00 0.0000E+00
       25  1    1    2    0    0 -.36989910E+03 -.48154356E+03 -.99805329E+03 0.11749234E+04 0.12500000E+03 0.0000E+00 0.9000E+01
        1  1    3    3  502    0 0.15150294E+03 0.24594294E+03 -.11498871E+04 0.11856144E+04 0.32000000E+00 0.0000E+00 0.9000E+01
       -1  1    3    3    0  502 0.21146846E+03 0.24641618E+03 -.99003909E+03 0.10419296E+04 0.32000000E+00 0.0000E+00 0.9000E+01
       21  1    1    2  501  503 0.69276946E+01 -.10815553E+02 0.28504859E+02 0.31273929E+02 0.75000000E+00 0.0000E+00 0.9000E+01
#aMCatNLO 2  0  0  1  2 0.11700334D+02 0.00000000D+00  -5  6  0 0.00000000D+00 0.00000000D+00 0.00000000D+00 0.00000000D+00 0.00000000D+00
  <mgrwgt>
 0.8888327286D-03    1    2    0
 0.657591097714415D+03 0.000000000000000D+00 0.000000000000000D+00 0.657591097714415D+03
 0.657591097714415D+03 0.000000000000000D+00 0.000000000000000D+00 -.657591097714415D+03
 0.660298871750873D+03 -.366426454476266D+03 -.486965078690568D+03 0.221283224920728D+03
 0.322450862670957D+03 0.153203867720959D+03 0.243286315162004D+03 -.145996241758058D+03
 0.332432461007000D+03 0.213222586755306D+03 0.243678763528565D+03 -.752869831626699D+02
 0.000000000000000D+00 0.000000000000000D+00 -.000000000000000D+00 0.000000000000000D+00
 0.806255207777114D+03 0.000000000000000D+00 0.000000000000000D+00 0.806255207777114D+03
 0.657899933328635D+03 0.000000000000000D+00 0.000000000000000D+00 -.657899933328635D+03
 0.658255888855008D+03 -.369899101417347D+03 -.481543564334130D+03 0.221283224920728D+03
 0.323659933985821D+03 0.151502220774890D+03 0.245942935170956D+03 -.145996241758058D+03
 0.333329088307742D+03 0.211469186079968D+03 0.246416181727196D+03 -.752869831626699D+02
 0.148910229957178D+03 0.692769456248891D+01 -.108155525640223D+02 0.148355274448478D+03
0.378455886956D-03 0.000000000000D+00 0.000000000000D+00 0.288455262903D-04 0.110260546643D-05  6 -2 2 25 1 -1 21 2 0.24943557D-01 0.50332358D+00 0.38835832D+06 0.38835832D+06 0.38835832D+06 0.10763536D+01  1  2  1  1  6  1       -2 0.888832728586D-03 0.100000000000D+01
  </mgrwgt>
  </event>
  <event>
  7     66 0.18402180E-05 0.54940034E+02 0.75467711E-02 0.92320654E-01
       -2 -1    0    0    0  501 0.00000000E+00 0.00000000E+00 0.39941272E+03 0.39941285E+03 0.32000000E+00 0.0000E+00 0.9000E+01
        2 -1    0    0  503    0 0.00000000E+00 0.00000000E+00 -.18140482E+04 0.18140482E+04 0.32000000E+00 0.0000E+00 0.9000E+01
       23  2    1    2    0    0 0.10567996E+03 -.59838573E+03 -.49119521E+03 0.78673049E+03 0.91860771E+02 0.0000E+00 0.0000E+00
       25  1    1    2    0    0 -.95762914E+02 0.50870162E+03 -.34940563E+02 0.53366067E+03 0.12500000E+03 0.0000E+00 0.9000E+01
        1  1    3    3  502    0 0.20068440E+02 -.22587791E+03 -.23512788E+03 0.32666313E+03 0.32000000E+00 0.0000E+00 0.9000E+01
       -1  1    3    3    0  502 0.85611519E+02 -.37250781E+03 -.25606732E+03 0.46006736E+03 0.32000000E+00 0.0000E+00 0.9000E+01
       21  1    1    2  503  501 -.99170449E+01 0.89684108E+02 -.88849968E+03 0.89306989E+03 0.75000000E+00 0.0000E+00 0.9000E+01
#aMCatNLO 2  0  0  2  1 0.14885027D+02 0.00000000D+00  -5  6  0 0.00000000D+00 0.00000000D+00 0.00000000D+00 0.00000000D+00 0.00000000D+00
  <mgrwgt>
 0.9793323720D-03    1    2    0
 0.603836150779854D+03 0.000000000000000D+00 0.000000000000000D+00 0.603836150779854D+03
 0.603836150779854D+03 0.000000000000000D+00 0.000000000000000D+00 -.603836150779854D+03
 0.606811543512754D+03 -.100574343421210D+03 0.552213442167063D+03 0.193753361456588D+03
 0.237775925894227D+03 0.180512683800668D+02 -.207641175822867D+03 -.114440747758938D+03
 0.363084832152727D+03 0.825230750411432D+02 -.344572266344196D+03 -.793126136976506D+02
 0.000000000000000D+00 -.000000000000000D+00 0.000000000000000D+00 -.000000000000000D+00
 0.609003163173768D+03 0.000000000000000D+00 0.000000000000000D+00 0.609003163173768D+03
 0.118973689267385D+04 0.000000000000000D+00 0.000000000000000D+00 -.118973689267385D+04
 0.566668542419701D+03 -.957629144376651D+02 0.508701617955699D+03 0.193753361456588D+03
 0.254006738559413D+03 0.200676446217454D+02 -.225876134474850D+03 -.114440747758938D+03
 0.390363106063739D+03 0.856123147231666D+02 -.372509591087154D+03 -.793126136976506D+02
 0.587701668804768D+03 -.991704490724689D+01 0.896841076063048D+02 -.580733729500085D+03
0.312032146246D-03 0.000000000000D+00 0.000000000000D+00 0.368530984865D-04 0.356169259195D-07  6 -2 2 25 1 -1 21 2 0.61448100D-01 0.27908424D+00 0.37929163D+06 0.37929163D+06 0.37929163D+06 0.10770959D+01  1  2  1  2  6  2        2 0.979332371990D-03 0.100000000000D+01
  </mgrwgt>
  </event>
  <event>
  6     66 -.18402180E-05 0.10171507E+02 0.75467711E-02 0.88249450E-01
       -2 -1    0    0    0  501 0.00000000E+00 0.00000000E+00 0.13542220E+04 0.13542220E+04 0.32000000E+00 0.0000E+00 0.9000E+01
        2 -1    0    0  501    0 0.00000000E+00 0.00000000E+00 -.64609158E+03 0.64609166E+03 0.32000000E+00 0.0000E+00 0.9000E+01
       23  2    1    2    0    0 0.61578392E+03 0.67008708E+03 0.15424246E+03 0.92764253E+03 0.92322234E+02 0.0000E+00 0.0000E+00
       25  1    1    2    0    0 -.61578392E+03 -.67008708E+03 0.55388793E+03 0.10726711E+04 0.12500000E+03 0.0000E+00 0.9000E+01
        1  1    3    3  502    0 0.69439134E+01 0.93087460E+01 -.86568435E+01 0.14488410E+02 0.32000000E+00 0.0000E+00 0.9000E+01
       -1  1    3    3    0  502 0.60884001E+03 0.66077833E+03 0.16289930E+03 0.91315412E+03 0.32000000E+00 0.0000E+00 0.9000E+01
#aMCatNLO 1  0  0  4  5 0.76634251D+00 0.00000000D+00  -5  6  0 0.00000000D+00 0.00000000D+00 0.00000000D+00 0.00000000D+00 0.00000000D+00
  <mgrwgt>
 -.6178649031D-03    7    2    0
 0.935388435932031D+03 0.000000000000000D+00 0.000000000000000D+00 0.935388435932031D+03
 0.935388435932031D+03 -.000000000000000D+00 -.000000000000000D+00 -.935388435932031D+03
 0.937286472296724D+03 -.615783919484372D+03 -.670087077847661D+03 0.186210643510204D+03
 0.187576622676505D+02 0.693668198606581D+01 0.930091900289615D+01 -.147385631074741D+02
 0.914732737299687D+03 0.608847237498306D+03 0.660786158844765D+03 -.171472080402730D+03
 0.000000000000000D+00 0.000000000000000D+00 0.000000000000000D+00 -.000000000000000D+00
 0.935388435932031D+03 0.000000000000000D+00 0.000000000000000D+00 0.935388435932031D+03
 0.935388435932031D+03 -.000000000000000D+00 -.000000000000000D+00 -.935388435932031D+03
 0.937169507213095D+03 -.615726516091980D+03 -.670010109593358D+03 0.186088676909595D+03
 0.176124571331145D+02 0.697949053547096D+01 0.910927644839685D+01 -.133606302515169D+02
 0.914846621094273D+03 0.608903266587796D+03 0.660861284390985D+03 -.171591126983352D+03
 0.114828642357955D+01 -.156241031286972D+00 0.395487539762773D-01 -.113691967472572D+01
0.192451222592D-05 0.000000000000D+00 0.000000000000D+00 0.240522828416D-05 0.000000000000D+00  6 -2 2 25 1 -1 21 0 0.20834185D+00 0.99398714D-01 0.83605704D+06 0.83605704D+06 0.83605704D+06 0.10530800D+01  1  2  2  3  6  4        1 0.112820023498D-05 0.100000000000D+01
0.111073581934D-05 0.000000000000D+00 -.739063368322D-08 0.240522828416D-05 0.000000000000D+00  6 -2 2 25 1 -1 21 2 0.20834185D+00 0.99398714D-01 0.83605704D+06 0.83605704D+06 0.83605704D+06 0.10530800D+01  1  2  3  3  6  4        1 0.722102798203D-06 0.100000000000D+01
-.537346669594D-06 0.000000000000D+00 0.000000000000D+00 0.240522828416D-05 0.000000000000D+00  6 -2 2 25 1 -1 21 2 0.20834185D+00 0.99398714D-01 0.83605704D+06 0.83605704D+06 0.83605704D+06 0.10530800D+01  1  2 15  3  6  4        1 -.349335572837D-06 0.100000000000D+01
-.104319197686D-02 0.000000000000D+00 0.000000000000D+00 0.240522828416D-05 0.000000000000D+00  6 -2 2 25 1 -1 21 2 0.20834185D+00 0.99398714D-01 0.83605704D+06 0.83605704D+06 0.83605704D+06 0.10530800D+01  1  2  4  3  6  4        1 -.678191728797D-03 0.100000000000D+01
-.495782846410D-04 0.000000000000D+00 0.000000000000D+00 0.240522828416D-05 0.000000000000D+00  6 -2 2 25 1 -1 21 2 0.20834185D+00 0.99398714D-01 0.83605704D+06 0.83605704D+06 0.83605704D+06 0.10530800D+01  1  2  5  3  6  4        1 -.322314428382D-04 0.100000000000D+01
0.630831397765D-04 0.000000000000D+00 -.000000000000D+00 0.240522828416D-05 0.000000000000D+00  6 -2 2 25 1 -1 21 2 0.20834185D+00 0.99398714D-01 0.83605704D+06 0.83605704D+06 0.83605704D+06 0.10530800D+01  1  2  6  3  6  4        1 0.410111125967D-04 0.100000000000D+01
0.769811609339D-04 0.000000000000D+00 0.000000000000D+00 0.240522828416D-05 0.412045465372D-04  6 -2 2 25 1 -1 21 2 0.20834185D+00 0.99398714D-01 0.83608694D+06 0.83608694D+06 0.83608694D+06 0.10530790D+01  1  2 11  3  6  4        1 0.500461885232D-04 0.100000000000D+01
  </mgrwgt>
  </event>
  <event>
  7     66 0.18402180E-05 0.53718714E+02 0.75467711E-02 0.93291940E-01
       -2 -1    0    0    0  503 0.00000000E+00 0.00000000E+00 0.22216186E+03 0.22216209E+03 0.32000000E+00 0.0000E+00 0.9000E+01
        2 -1    0    0  501    0 0.00000000E+00 0.00000000E+00 -.17403911E+04 0.17403911E+04 0.32000000E+00 0.0000E+00 0.9000E+01
       23  2    1    2    0    0 0.48455417E+03 0.27136847E+03 -.35920088E+03 0.66771553E+03 0.91570595E+02 0.0000E+00 0.0000E+00
       25  1    1    2    0    0 -.46732476E+03 -.25560239E+03 -.11407477E+04 0.12651700E+04 0.12500000E+03 0.0000E+00 0.9000E+01
        1  1    3    3  502    0 0.31308081E+03 0.19228611E+03 -.18749574E+03 0.41249035E+03 0.32000000E+00 0.0000E+00 0.9000E+01
       -1  1    3    3    0  502 0.17147336E+03 0.79082362E+02 -.17170514E+03 0.25522518E+03 0.32000000E+00 0.0000E+00 0.9000E+01
       21  1    1    2  501  503 -.17229407E+02 -.15766080E+02 -.18280652E+02 0.29667599E+02 0.75000000E+00 0.0000E+00 0.9000E+01
#aMCatNLO 2  0  0  1  5 0.34656425D+02 0.00000000D+00  -5  6  0 0.00000000D+00 0.00000000D+00 0.00000000D+00 0.00000000D+00 0.00000000D+00
  <mgrwgt>
 0.3610180774D-03    1    2    0
 0.609437365457965D+03 0.000000000000000D+00 0.000000000000000D+00 0.609437365457965D+03
 0.609437365457965D+03 0.000000000000000D+00 0.000000000000000D+00 -.609437365457965D+03
 0.612407246575866D+03 -.475909820831557D+03 -.263458299724495D+03 -.252026193878707D+03
 0.416482732975727D+03 0.307147581644940D+03 0.186856597995751D+03 0.210244718701921D+03
 0.189984751364336D+03 0.168762239186616D+03 0.766017017287441D+02 0.417814751767857D+02
 0.000000000000000D+00 -.000000000000000D+00 -.000000000000000D+00 0.000000000000000D+00
 0.625575584823552D+03 0.000000000000000D+00 0.000000000000000D+00 0.625575584823552D+03
 0.618057422580254D+03 0.000000000000000D+00 0.000000000000000D+00 -.618057422580254D+03
 0.602384607826747D+03 -.467324762156625D+03 -.255602386571116D+03 -.252026193878707D+03
 0.423317842177116D+03 0.313082538474622D+03 0.192287487543329D+03 0.210244718701921D+03
 0.193396000243984D+03 0.171471630293800D+03 0.790809790455920D+02 0.417814751767857D+02
 0.245345571559591D+02 -.172294066117975D+02 -.157660800178047D+02 0.751816224329823D+01
0.328030645110D-04 0.000000000000D+00 0.000000000000D+00 0.259418628515D-04 0.297489142187D-06  6 -2 2 25 1 -1 21 2 0.34178452D-01 0.26775002D+00 0.31737946D+06 0.31737946D+06 0.31737946D+06 0.10827470D+01  1  2  1  1  6  1       -2 0.361018077442D-03 0.100000000000D+01
  </mgrwgt>
  </event>
  <event>
  7     66 0.18402180E-05 0.41500159E+02 0.75467711E-02 0.89535734E-01
       -2 -1    0    0    0  501 0.00000000E+00 0.00000000E+00 0.69283406E+03 0.69283413E+03 0.32000000E+00 0.0000E+00 0.9000E+01
        2 -1    0    0  503    0 0.00000000E+00 0.00000000E+00 -.14115281E+04 0.14115281E+04 0.32000000E+00 0.0000E+00 0.9000E+01
       23  2    1    2    0    0 -.73167585E+03 0.31030743E+03 -.85930670E+02 0.80446587E+03 0.90227572E+02 0.0000E+00 0.0000E+00
       25  1    1    2    0    0 0.67446956E+03 -.31060078E+03 -.94849885E+02 0.75894896E+03 0.12500000E+03 0.0000E+00 0.9000E+01
        1  1    3    3  502    0 -.69066533E+02 0.51506554E+02 -.28690316E+02 0.90809403E+02 0.32000000E+00 0.0000E+00 0.9000E+01
       -1  1    3    3    0  502 -.66260931E+03 0.25880087E+03 -.57240353E+02 0.71365647E+03 0.32000000E+00 0.0000E+00 0.9000E+01
       21  1    1    2  503  501 0.57206286E+02 0.29334999E+00 -.53791344E+03 0.54094739E+03 0.75000000E+00 0.0000E+00 0.9000E+01
#aMCatNLO 2  0  0  2  1 0.10064595D+02 0.00000000D+00  -5  6  0 0.00000000D+00 0.00000000D+00 0.00000000D+00 0.00000000D+00 0.00000000D+00
  <mgrwgt>
 0.1035572293D-03    1    2    0
 0.775936804178456D+03 0.000000000000000D+00 0.000000000000000D+00 0.775936804178456D+03
 0.775936804178456D+03 0.000000000000000D+00 0.000000000000000D+00 -.775936804178456D+03
 0.778348078244441D+03 0.702685406712437D+03 -.310456089297722D+03 -.713909785304444D+01
 0.855987421313882D+02 -.658591120945045D+02 0.515203554062192D+02 -.183132462282426D+02
 0.687926787981083D+03 -.636826294617933D+03 0.258935733891503D+03 0.254523440812870D+02
 0.000000000000000D+00 0.000000000000000D+00 0.000000000000000D+00 -.000000000000000D+00
 0.778167356279847D+03 0.000000000000000D+00 0.000000000000000D+00 0.778167356279847D+03
 0.125674006795497D+04 0.000000000000000D+00 0.000000000000000D+00 -.125674006795497D+04
 0.753032534049337D+03 0.674469559847421D+03 -.310600778263410D+03 -.713909785304444D+01
 0.880748895795908D+02 -.690590668004142D+02 0.515039462536299D+02 -.183132462282426D+02
 0.711820244207645D+03 -.662616779095101D+03 0.258803482021075D+03 0.254523440812870D+02
 0.481979756398250D+03 0.572062860480942D+02 0.293349988704555D+00 -.478572711675127D+03
0.735378522727D-04 0.000000000000D+00 0.000000000000D+00 0.135768344510D-04 0.278316798958D-07  6 -2 2 25 1 -1 21 2 0.10658982D+00 0.21715809D+00 0.64619148D+06 0.64619148D+06 0.64619148D+06 0.10607258D+01  1  2  1  2  6  2        2 0.103557229311D-03 0.100000000000D+01
  </mgrwgt>
  </event>
  <event>
  7     66 0.18402180E-05 0.22401029E+02 0.75467711E-02 0.93112492E-01
       21 -1    0    0  503  501 0.00000000E+00 0.00000000E+00 0.37488835E+03 0.37488910E+03 0.75000000E+00 0.0000E+00 0.9000E+01
        2 -1    0    0  501    0 0.00000000E+00 0.00000000E+00 -.98047775E+03 0.98047780E+03 0.32000000E+00 0.0000E+00 0.9000E+01
       23  2    1    2    0    0 0.35677289E+03 -.39272074E+03 -.48185123E+03 0.72481059E+03 0.10795046E+03 0.0000E+00 0.0000E+00
       25  1    1    2    0    0 -.38950721E+03 0.39875788E+03 -.14708094E+03 0.58989958E+03 0.12500000E+03 0.0000E+00 0.9000E+01
        1  1    3    3  502    0 0.34556282E+03 -.33283214E+03 -.43904546E+03 0.65034753E+03 0.32000000E+00 0.0000E+00 0.9000E+01
        2  1    1    2  503    0 0.32734313E+02 -.60371396E+01 0.23342775E+02 0.40656732E+02 0.32000000E+00 0.0000E+00 0.9000E+01
       -1  1    3    3    0  502 0.11210077E+02 -.59888599E+02 -.42805771E+02 0.74463054E+02 0.32000000E+00 0.0000E+00 0.9000E+01
#aMCatNLO 2  0  0  1  1 0.15639728D+03 0.00000000D+00  -5  6  0 0.00000000D+00 0.00000000D+00 0.00000000D+00 0.00000000D+00 0.00000000D+00
  <mgrwgt>
 0.2957319519D-02    1    2    0
 0.577018012755560D+03 0.000000000000000D+00 0.000000000000000D+00 0.577018012755560D+03
 0.577018012755560D+03 0.000000000000000D+00 0.000000000000000D+00 -.577018012755560D+03
 0.578738804697568D+03 -.372911904401321D+03 0.395697232342201D+03 0.153863627720368D+03
 0.513168018157530D+03 0.359952129149829D+03 -.335487808349422D+03 -.145683938816647D+03
 0.000000000000000D+00 0.000000000000000D+00 -.000000000000000D+00 0.000000000000000D+00
 0.621292026560218D+02 0.129597752514914D+02 -.602094239927789D+02 -.817968890372071D+01
 0.631129512472143D+03 0.000000000000000D+00 0.000000000000000D+00 0.631129512472143D+03
 0.582399766979383D+03 0.000000000000000D+00 0.000000000000000D+00 -.582399766979383D+03
 0.591627187767981D+03 -.389507210461746D+03 0.398757879382072D+03 0.153863627720368D+03
 0.501416323435984D+03 0.345565742514150D+03 -.332834548957243D+03 -.145683938816647D+03
 0.590133070662963D+02 0.327343132047002D+02 -.603713956508873D+01 0.487297454927605D+02
 0.614724611812646D+02 0.112071547428961D+02 -.598861908597402D+02 -.817968890372071D+01
0.269865283143D-04 0.000000000000D+00 0.000000000000D+00 0.785483500390D-07 0.632541207599D-09  6 21 2 25 1 2 -1 2 0.57675149D-01 0.15084268D+00 0.32790941D+06 0.32790941D+06 0.32790941D+06 0.10817052D+01  1  2  1  5  5  1       -2 0.295731951911D-02 0.100000000000D+01
  </mgrwgt>
  </event>
  <event>
  6     66 0.18402180E-05 0.10466129E+03 0.75467711E-02 0.93522447E-01
       -2 -1    0    0    0  501 0.00000000E+00 0.00000000E+00 0.25408724E+03 0.25408744E+03 0.32000000E+00 0.0000E+00 0.9000E+01
        2 -1    0    0  501    0 -.00000000E+00 -.00000000E+00 -.13453022E+04 0.13453022E+04 0.32000000E+00 0.0000E+00 0.9000E+01
       25  1    1    2    0    0 -.40163753E+03 -.34145909E+03 -.60906675E+03 0.81516521E+03 0.12500000E+03 0.0000E+00 0.9000E+01
        1  1    1    2  503    0 0.14561095E+03 0.23467583E+03 -.28832803E+03 0.39925988E+03 0.32000000E+00 0.0000E+00 0.9000E+01
       -1  1    1    2    0  502 0.12077668E+03 0.86975493E+02 -.19860639E+03 0.24818610E+03 0.32000000E+00 0.0000E+00 0.9000E+01
       21  1    1    2  502  503 0.13524989E+03 0.19807767E+02 0.47862089E+01 0.13677848E+03 0.75000000E+00 0.0000E+00 0.9000E+01
#aMCatNLO 2  0  0  4  5 0.45094460D+01 0.00000000D+00  -5  6  0 0.00000000D+00 0.00000000D+00 0.00000000D+00 0.00000000D+00 0.00000000D+00
  <mgrwgt>
 0.3062238804D-01    1    2    0
 0.584657429904214D+03 0.000000000000000D+00 0.000000000000000D+00 0.584657429904214D+03
 0.584657429904214D+03 -.000000000000000D+00 -.000000000000000D+00 -.584657429904214D+03
 0.581783839286242D+03 -.427565109340724D+03 -.364951662503475D+03 -.827393314273481D+02
 0.441519277854174D+03 0.313680426546318D+03 0.284221869823170D+03 0.125545973383505D+03
 0.146011742668013D+03 0.113884682794406D+03 0.807297926803043D+02 -.428066419561567D+02
 0.000000000000000D+00 0.000000000000000D+00 0.000000000000000D+00 0.000000000000000D+00
 0.584657429904214D+03 0.000000000000000D+00 0.000000000000000D+00 0.584657429904214D+03
 0.584657429904214D+03 -.000000000000000D+00 -.000000000000000D+00 -.584657429904214D+03
 0.546579521668268D+03 -.401624640566673D+03 -.341447331614147D+03 -.723570406414048D+02
 0.276759207833926D+03 0.145348250622553D+03 0.234496465503596D+03 -.219306367474062D+02
 0.154137853991733D+03 0.120784961117082D+03 0.869820476544655D+02 -.400449071288498D+02
 0.191838276314502D+03 0.135491428827039D+03 0.199688184560855D+02 0.134332584517661D+03
0.215220134621D-02 0.000000000000D+00 0.000000000000D+00 0.598350387406D-08 0.142248590864D-08  6 -2 2 25 1 -1 21 2 0.39090363D-01 0.20696959D+00 0.30440496D+06 0.30440496D+06 0.30440496D+06 0.10840838D+01  1  2  1  3  6  4        1 0.306223880424D-01 0.100000000000D+01
  </mgrwgt>
  </event>
  <event>
  7     66 0.18402180E-05 0.45213888E+02 0.75467711E-02 0.95079445E-01
       -2 -1    0    0    0  503 0.00000000E+00 0.00000000E+00 0.56374283E+03 0.56374292E+03 0.32000000E+00 0.0000E+00 0.9000E+01
        2 -1    0    0  501    0 0.00000000E+00 0.00000000E+00 -.47563711E+03 0.47563722E+03 0.32000000E+00 0.0000E+00 0.9000E+01
       23  2    1    2    0    0 -.45631216E+03 0.97908025E+02 0.33159842E+02 0.47681544E+03 0.91905499E+02 0.0000E+00 0.0000E+00
       25  1    1    2    0    0 0.45020781E+03 -.10621424E+03 -.27048006E+02 0.47992201E+03 0.12500000E+03 0.0000E+00 0.9000E+01
        1  1    3    3  502    0 -.34765212E+03 0.10337795E+03 -.12710755E+01 0.36269920E+03 0.32000000E+00 0.0000E+00 0.9000E+01
       -1  1    3    3    0  502 -.10866004E+03 -.54699231E+01 0.34430918E+02 0.11411624E+03 0.32000000E+00 0.0000E+00 0.9000E+01
       21  1    1    2  501  503 0.61043503E+01 0.83062175E+01 0.81993878E+02 0.82642694E+02 0.75000000E+00 0.0000E+00 0.9000E+01
#aMCatNLO 2  0  0  1  5 0.19266459D+02 0.00000000D+00  -5  6  0 0.00000000D+00 0.00000000D+00 0.00000000D+00 0.00000000D+00 0.00000000D+00
  <mgrwgt>
 0.2043550151D-02    1    2    0
 0.478331196342046D+03 0.000000000000000D+00 0.000000000000000D+00 0.478331196342046D+03
 0.478331196342046D+03 0.000000000000000D+00 0.000000000000000D+00 -.478331196342046D+03
 0.482082979296154D+03 0.453277524219005D+03 -.102037268641488D+03 -.301144611960788D+02
 0.361418041259857D+03 -.345344768844907D+03 0.106522829211749D+03 -.358859809585838D+01
 0.113161372128082D+03 -.107932755374098D+03 -.448556057026080D+01 0.337030592919372D+02
 0.000000000000000D+00 0.000000000000000D+00 0.000000000000000D+00 0.000000000000000D+00
 0.560151049354985D+03 0.000000000000000D+00 0.000000000000000D+00 0.560151049354985D+03
 0.478683738735495D+03 0.000000000000000D+00 0.000000000000000D+00 -.478683738735495D+03
 0.480104591302420D+03 0.450207810404302D+03 -.106214242300632D+03 -.301144611960788D+02
 0.362717741565714D+03 -.347655014460404D+03 0.103379267412645D+03 -.358859809585838D+01
 0.113895593125285D+03 -.108657146256148D+03 -.547124256405175D+01 0.337030592919372D+02
 0.821168620970611D+02 0.610435031224876D+01 0.830621745203847D+01 0.814673106194905D+02
0.182285163340D-03 0.000000000000D+00 0.000000000000D+00 0.305637272896D-04 0.185560619012D-05  6 -2 2 25 1 -1 21 2 0.86729371D-01 0.73174694D-01 0.23086202D+06 0.23086202D+06 0.23086202D+06 0.10930707D+01  1  2  1  1  6  1       -2 0.204355015085D-02 0.100000000000D+01
  </mgrwgt>
  </event>
</LesHouchesEvents>
