<event>
 5    0  0.5719562E-003  0.1009125E+04  0.7546771E-02  0.9298593E-01
          2   -1    0    0  502    0  0.00000000000E+00  0.00000000000E+00  0.20523368632E+04  0.20523368632E+04  0.00000000000E+00 0. -1.
         -2   -1    0    0    0  501 -0.00000000000E+00 -0.00000000000E+00 -0.12404557485E+03  0.12404557485E+03  0.00000000000E+00 0.  1.
         25    1    1    2    0    0 -0.11522663959E+03  0.33076459011E+03  0.14485262273E+04  0.14955051399E+04  0.12500000000E+03 0.  0.
          3    1    1    2  502    0  0.15789793525E+03 -0.24619517600E+02  0.24592385000E+03  0.29328555811E+03  0.00000000000E+00 0. -1.
         -3    1    1    2    0  501 -0.42671295652E+02 -0.30614507251E+03  0.23384121104E+03  0.38759173995E+03  0.00000000000E+00 0.  1.
<mgrwt>
<rscale>  4 0.10091250E+04</rscale>
<asrwt>0</asrwt>
<pdfrwt beam="1">  1        2 0.31574411E+00 0.10091250E+04</pdfrwt>
<pdfrwt beam="2">  1       -2 0.19083936E-01 0.10091250E+04</pdfrwt>
<totfact> 0.14528741E+02</totfact>
</mgrwt>
</event>
<event>
 5    0  0.5719562E-003  0.5136606E+03  0.7546771E-02  0.1010274E+00
          2   -1    0    0  502    0  0.00000000000E+00  0.00000000000E+00  0.38804709182E+03  0.38804709182E+03  0.00000000000E+00 0. -1.
         -2   -1    0    0    0  501 -0.00000000000E+00 -0.00000000000E+00 -0.16998399228E+03  0.16998399228E+03  0.00000000000E+00 0.  1.
         25    1    1    2    0    0  0.30871228030E+02  0.20993658532E+03  0.16435341132E+02  0.24682285756E+03  0.12500000000E+03 0.  0.
          1    1    1    2  502    0 -0.62758077922E+02 -0.18837537008E+03  0.17003204663E+03  0.26140916831E+03  0.00000000000E+00 0. -1.
         -1    1    1    2    0  501  0.31886849892E+02 -0.21561215235E+02  0.31595711783E+02  0.49799058240E+02  0.00000000000E+00 0.  1.
<mgrwt>
<rscale>  4 0.51366056E+03</rscale>
<asrwt>0</asrwt>
<pdfrwt beam="1">  1        2 0.59699552E-01 0.51366056E+03</pdfrwt>
<pdfrwt beam="2">  1       -2 0.26151383E-01 0.51366056E+03</pdfrwt>
<totfact> 0.10881074E+03</totfact>
</mgrwt>
</event>
<event>
 5    0  0.5719562E-003  0.5004877E+03  0.7546771E-02  0.1013652E+00
         -2   -1    0    0    0  501 -0.00000000000E+00  0.00000000000E+00  0.60273453043E+03  0.60273453043E+03  0.00000000000E+00 0.  1.
          2   -1    0    0  502    0  0.00000000000E+00 -0.00000000000E+00 -0.10389646083E+03  0.10389646083E+03  0.00000000000E+00 0. -1.
         25    1    1    2    0    0  0.20290256919E+03 -0.23556852434E+02  0.27209714699E+03  0.36247239244E+03  0.12500000000E+03 0.  0.
          1    1    1    2  502    0  0.85662634319E+01  0.31788187500E+02 -0.14299928390E+01  0.32953218556E+02  0.00000000000E+00 0.  1.
         -1    1    1    2    0  501 -0.21146883263E+03 -0.82313350662E+01  0.22817091545E+03  0.31120538027E+03  0.00000000000E+00 0. -1.
<mgrwt>
<rscale>  4 0.50048770E+03</rscale>
<asrwt>0</asrwt>
<pdfrwt beam="1">  1        2 0.15984071E-01 0.50048770E+03</pdfrwt>
<pdfrwt beam="2">  1       -2 0.92728388E-01 0.50048770E+03</pdfrwt>
<totfact> 0.37008359E+02</totfact>
</mgrwt>
</event>
<event>
 5    0  0.5719562E-003  0.5145806E+03  0.7546771E-02  0.1010042E+00
         -2   -1    0    0    0  501 -0.00000000000E+00  0.00000000000E+00  0.20479972461E+02  0.20479972461E+02  0.00000000000E+00 0. -1.
          2   -1    0    0  502    0  0.00000000000E+00 -0.00000000000E+00 -0.32323426562E+04  0.32323426562E+04  0.00000000000E+00 0.  1.
         25    1    1    2    0    0  0.74248759641E+02 -0.18829645881E+03 -0.91534426554E+03  0.94575290598E+03  0.12500000000E+03 0.  0.
          4    1    1    2  502    0 -0.17771728700E+02  0.64626336906E+02 -0.39064662322E+03  0.39635486877E+03  0.00000000000E+00 0. -1.
         -4    1    1    2    0  501 -0.56477030942E+02  0.12367012190E+03 -0.19058717950E+04  0.19107148539E+04  0.00000000000E+00 0.  1.
<mgrwt>
<rscale>  4 0.51458056E+03</rscale>
<asrwt>0</asrwt>
<pdfrwt beam="1">  1        2 0.49728351E+00 0.51458056E+03</pdfrwt>
<pdfrwt beam="2">  1       -2 0.31507649E-02 0.51458056E+03</pdfrwt>
<totfact> 0.56785884E+02</totfact>
</mgrwt>
</event>
<event>
 5    0  0.5719562E-003  0.5901520E+03  0.7546771E-02  0.9926051E-01
         -2   -1    0    0    0  501 -0.00000000000E+00  0.00000000000E+00  0.42404368132E+02  0.42404368132E+02  0.00000000000E+00 0. -1.
          2   -1    0    0  502    0  0.00000000000E+00 -0.00000000000E+00 -0.20533223441E+04  0.20533223441E+04  0.00000000000E+00 0.  1.
         25    1    1    2    0    0  0.83950720797E+02 -0.24074226446E+03 -0.66491645136E+03  0.72300999212E+03  0.12500000000E+03 0.  0.
          2    1    1    2  502    0 -0.54974146598E+02  0.13440130205E+03 -0.97286482806E+03  0.98364213028E+03  0.00000000000E+00 0.  1.
         -2    1    1    2    0  501 -0.28976574199E+02  0.10634096241E+03 -0.37313669652E+03  0.38907458980E+03  0.00000000000E+00 0. -1.
<mgrwt>
<rscale>  4 0.59015197E+03</rscale>
<asrwt>0</asrwt>
<pdfrwt beam="1">  1        2 0.31589574E+00 0.59015197E+03</pdfrwt>
<pdfrwt beam="2">  1       -2 0.65237491E-02 0.59015197E+03</pdfrwt>
<totfact> 0.87919660E+02</totfact>
</mgrwt>
</event>
<event>
 5    0  0.5719562E-003  0.5591851E+03  0.7546771E-02  0.9993900E-01
          2   -1    0    0  502    0  0.00000000000E+00  0.00000000000E+00  0.12158086777E+04  0.12158086777E+04  0.00000000000E+00 0. -1.
         -2   -1    0    0    0  501 -0.00000000000E+00 -0.00000000000E+00 -0.64296295060E+02  0.64296295060E+02  0.00000000000E+00 0.  1.
         25    1    1    2    0    0 -0.25230175078E+03  0.45853868067E+02  0.49772931159E+03  0.57368825879E+03  0.12500000000E+03 0.  0.
          4    1    1    2  502    0  0.13658995394E+03 -0.30599158108E+02  0.25484135947E+03  0.29075288905E+03  0.00000000000E+00 0.  1.
         -4    1    1    2    0  501  0.11571179684E+03 -0.15254709959E+02  0.39894171161E+03  0.41566382494E+03  0.00000000000E+00 0. -1.
<mgrwt>
<rscale>  4 0.55918510E+03</rscale>
<asrwt>0</asrwt>
<pdfrwt beam="1">  1        2 0.18704747E+00 0.55918510E+03</pdfrwt>
<pdfrwt beam="2">  1       -2 0.98917386E-02 0.55918510E+03</pdfrwt>
<totfact> 0.13107986E+03</totfact>
</mgrwt>
</event>
<event>
 5    0  0.5719562E-003  0.8718291E+03  0.7546771E-02  0.9461498E-01
          2   -1    0    0  502    0  0.00000000000E+00  0.00000000000E+00  0.52178246570E+03  0.52178246570E+03  0.00000000000E+00 0.  1.
         -2   -1    0    0    0  501 -0.00000000000E+00 -0.00000000000E+00 -0.36417762839E+03  0.36417762839E+03  0.00000000000E+00 0. -1.
         25    1    1    2    0    0 -0.17013854674E+03  0.27962041997E+03  0.35368674750E+03  0.49784939461E+03  0.12500000000E+03 0.  0.
          4    1    1    2  502    0  0.15959330376E+03 -0.24287877686E+03 -0.19479400194E+03  0.34986401079E+03  0.00000000000E+00 0.  1.
         -4    1    1    2    0  501  0.10545242987E+02 -0.36741643107E+02 -0.12879082485E+01  0.38246688686E+02  0.00000000000E+00 0. -1.
<mgrwt>
<rscale>  4 0.87182911E+03</rscale>
<asrwt>0</asrwt>
<pdfrwt beam="1">  1        2 0.80274226E-01 0.87182911E+03</pdfrwt>
<pdfrwt beam="2">  1       -2 0.56027327E-01 0.87182911E+03</pdfrwt>
<totfact> 0.17610054E+02</totfact>
</mgrwt>
</event>
<event>
 5    0  0.5719562E-003  0.6823102E+03  0.7546771E-02  0.9747972E-01
          1   -1    0    0  502    0  0.00000000000E+00  0.00000000000E+00  0.18808763173E+03  0.18808763173E+03  0.00000000000E+00 0.  1.
         -1   -1    0    0    0  501 -0.00000000000E+00 -0.00000000000E+00 -0.61879036689E+03  0.61879036689E+03  0.00000000000E+00 0. -1.
         25    1    1    2    0    0 -0.11537581421E+03  0.22343408311E+03 -0.47442219313E+02  0.28479840620E+03  0.12500000000E+03 0.  0.
          3    1    1    2  502    0  0.20892044996E+02 -0.25830980279E+02 -0.27636874055E+03  0.27835839818E+03  0.00000000000E+00 0. -1.
         -3    1    1    2    0  501  0.94483769213E+02 -0.19760310283E+03 -0.10689177530E+03  0.24372119424E+03  0.00000000000E+00 0.  1.
<mgrwt>
<rscale>  4 0.68231024E+03</rscale>
<asrwt>0</asrwt>
<pdfrwt beam="1">  1        1 0.28936558E-01 0.68231024E+03</pdfrwt>
<pdfrwt beam="2">  1       -1 0.95198521E-01 0.68231024E+03</pdfrwt>
<totfact> 0.17453759E+02</totfact>
</mgrwt>
</event>
<event>
 5    0  0.5719562E-003  0.6733893E+03  0.7546771E-02  0.9763854E-01
         -2   -1    0    0    0  501 -0.00000000000E+00  0.00000000000E+00  0.18792336537E+03  0.18792336537E+03  0.00000000000E+00 0. -1.
          2   -1    0    0  502    0  0.00000000000E+00 -0.00000000000E+00 -0.60324213272E+03  0.60324213272E+03  0.00000000000E+00 0.  1.
         25    1    1    2    0    0 -0.17523578947E+03 -0.23798637902E+03 -0.11384177203E+03  0.34048501813E+03  0.12500000000E+03 0.  0.
          2    1    1    2  502    0  0.16439996209E+03  0.99822899376E+02 -0.14002578087E+03  0.23790581768E+03  0.00000000000E+00 0. -1.
         -2    1    1    2    0  501  0.10835827380E+02  0.13816347964E+03 -0.16145121444E+03  0.21277466228E+03  0.00000000000E+00 0.  1.
<mgrwt>
<rscale>  4 0.67338931E+03</rscale>
<asrwt>0</asrwt>
<pdfrwt beam="1">  1        2 0.92806480E-01 0.67338931E+03</pdfrwt>
<pdfrwt beam="2">  1       -2 0.28911287E-01 0.67338931E+03</pdfrwt>
<totfact> 0.54443629E+02</totfact>
</mgrwt>
</event>
<event>
 5    0  0.5719562E-003  0.8134990E+03  0.7546771E-02  0.9540681E-01
         -2   -1    0    0    0  501 -0.00000000000E+00  0.00000000000E+00  0.32646232168E+03  0.32646232168E+03  0.00000000000E+00 0.  1.
          2   -1    0    0  502    0  0.00000000000E+00 -0.00000000000E+00 -0.50678181056E+03  0.50678181056E+03  0.00000000000E+00 0. -1.
         25    1    1    2    0    0 -0.11449103281E+02  0.33787820319E+03 -0.28218550366E+03  0.45776240631E+03  0.12500000000E+03 0.  0.
          3    1    1    2  502    0  0.18358596855E+02 -0.30905236259E+03  0.47033025693E+02  0.31314933563E+03  0.00000000000E+00 0.  1.
         -3    1    1    2    0  501 -0.69094935739E+01 -0.28825840600E+02  0.54832989089E+02  0.62332390298E+02  0.00000000000E+00 0. -1.
<mgrwt>
<rscale>  4 0.81349903E+03</rscale>
<asrwt>0</asrwt>
<pdfrwt beam="1">  1        2 0.77966432E-01 0.81349903E+03</pdfrwt>
<pdfrwt beam="2">  1       -2 0.50224973E-01 0.81349903E+03</pdfrwt>
<totfact> 0.22882080E+02</totfact>
</mgrwt>
</event>
<event>
 5    0  0.5719562E-003  0.6096593E+03  0.7546771E-02  0.9885566E-01
          2   -1    0    0  502    0  0.00000000000E+00  0.00000000000E+00  0.16596109587E+03  0.16596109587E+03  0.00000000000E+00 0. -1.
         -2   -1    0    0    0  501 -0.00000000000E+00 -0.00000000000E+00 -0.55989692971E+03  0.55989692971E+03  0.00000000000E+00 0.  1.
         25    1    1    2    0    0 -0.95333211086E+02  0.24358992739E+03 -0.35231227728E+03  0.45626024874E+03  0.12500000000E+03 0.  0.
          4    1    1    2  502    0  0.22131068742E+02 -0.17025589560E+02 -0.18961489575E+00  0.27922944997E+02  0.00000000000E+00 0.  1.
         -4    1    1    2    0  501  0.73202142345E+02 -0.22656433783E+03 -0.41433941673E+02  0.24167483184E+03  0.00000000000E+00 0. -1.
<mgrwt>
<rscale>  4 0.60965928E+03</rscale>
<asrwt>0</asrwt>
<pdfrwt beam="1">  1        2 0.25532477E-01 0.60965928E+03</pdfrwt>
<pdfrwt beam="2">  1       -2 0.86137988E-01 0.60965928E+03</pdfrwt>
<totfact> 0.25284660E+02</totfact>
</mgrwt>
</event>
<event>
 5    0  0.5719562E-003  0.9124897E+03  0.7546771E-02  0.9410102E-01
         -1   -1    0    0    0  501 -0.00000000000E+00  0.00000000000E+00  0.12236039099E+03  0.12236039099E+03  0.00000000000E+00 0.  1.
          1   -1    0    0  502    0  0.00000000000E+00 -0.00000000000E+00 -0.17011987378E+04  0.17011987378E+04  0.00000000000E+00 0. -1.
         25    1    1    2    0    0  0.32738431794E+03  0.92365642719E+02 -0.10328074583E+04  0.10945447225E+04  0.12500000000E+03 0.  0.
          1    1    1    2  502    0 -0.34917746953E+03 -0.10529193998E+02 -0.27360641433E+03  0.44372991686E+03  0.00000000000E+00 0.  1.
         -1    1    1    2    0  501  0.21793151586E+02 -0.81836448720E+02 -0.27242447422E+03  0.28528448950E+03  0.00000000000E+00 0. -1.
<mgrwt>
<rscale>  4 0.91248966E+03</rscale>
<asrwt>0</asrwt>
<pdfrwt beam="1">  1        1 0.26172289E+00 0.91248966E+03</pdfrwt>
<pdfrwt beam="2">  1       -1 0.18824675E-01 0.91248966E+03</pdfrwt>
<totfact> 0.10877451E+02</totfact>
</mgrwt>
</event>
<event>
 5    0  0.5719562E-003  0.1045752E+04  0.7546771E-02  0.9259741E-01
          2   -1    0    0  502    0  0.00000000000E+00  0.00000000000E+00  0.26518444910E+04  0.26518444910E+04  0.00000000000E+00 0.  1.
         -2   -1    0    0    0  501 -0.00000000000E+00 -0.00000000000E+00 -0.10309769349E+03  0.10309769349E+03  0.00000000000E+00 0. -1.
         25    1    1    2    0    0  0.38888645616E+03  0.50614361183E+02  0.21310897953E+04  0.21704753408E+04  0.12500000000E+03 0.  0.
          1    1    1    2  502    0 -0.12489744499E+03 -0.20795669355E+02  0.21813426717E+03  0.25221893296E+03  0.00000000000E+00 0.  1.
         -1    1    1    2    0  501 -0.26398901117E+03 -0.29818691829E+02  0.19952273505E+03  0.33224791075E+03  0.00000000000E+00 0. -1.
<mgrwt>
<rscale>  4 0.10457515E+04</rscale>
<asrwt>0</asrwt>
<pdfrwt beam="1">  1        2 0.40797602E+00 0.10457515E+04</pdfrwt>
<pdfrwt beam="2">  1       -2 0.15861186E-01 0.10457515E+04</pdfrwt>
<totfact> 0.91441841E+01</totfact>
</mgrwt>
</event>
<event>
 5    0  0.5719562E-003  0.4691528E+03  0.7546771E-02  0.1022160E+00
          2   -1    0    0  502    0  0.00000000000E+00  0.00000000000E+00  0.10825001905E+03  0.10825001905E+03  0.00000000000E+00 0.  1.
         -2   -1    0    0    0  501 -0.00000000000E+00 -0.00000000000E+00 -0.50832410305E+03  0.50832410305E+03  0.00000000000E+00 0. -1.
         25    1    1    2    0    0 -0.23440281235E+02 -0.20453660790E+03 -0.16686285786E+03  0.29300662806E+03  0.12500000000E+03 0.  0.
          3    1    1    2  502    0 -0.31922154528E+02  0.10634248178E+03 -0.10451393952E+03  0.15248249386E+03  0.00000000000E+00 0.  1.
         -3    1    1    2    0  501  0.55362435763E+02  0.98194126122E+02 -0.12869728663E+03  0.17108500017E+03  0.00000000000E+00 0. -1.
<mgrwt>
<rscale>  4 0.46915283E+03</rscale>
<asrwt>0</asrwt>
<pdfrwt beam="1">  1        2 0.16653849E-01 0.46915283E+03</pdfrwt>
<pdfrwt beam="2">  1       -2 0.78203709E-01 0.46915283E+03</pdfrwt>
<totfact> 0.51815264E+02</totfact>
</mgrwt>
</event>
<event>
 5    0  0.5719562E-003  0.5460203E+03  0.7546771E-02  0.1002419E+00
          1   -1    0    0  502    0  0.00000000000E+00  0.00000000000E+00  0.70016834202E+03  0.70016834202E+03  0.00000000000E+00 0.  1.
         -1   -1    0    0    0  501 -0.00000000000E+00 -0.00000000000E+00 -0.10645232641E+03  0.10645232641E+03  0.00000000000E+00 0. -1.
         25    1    1    2    0    0 -0.51066643308E+02 -0.20546727818E+03  0.12855583722E+03  0.27744586453E+03  0.12500000000E+03 0.  0.
          4    1    1    2  502    0  0.59254685184E+02  0.16217432578E+03  0.45095842651E+03  0.48288210994E+03  0.00000000000E+00 0.  1.
         -4    1    1    2    0  501 -0.81880418758E+01  0.43292952402E+02  0.14201751885E+02  0.46292693960E+02  0.00000000000E+00 0. -1.
<mgrwt>
<rscale>  4 0.54602033E+03</rscale>
<asrwt>0</asrwt>
<pdfrwt beam="1">  1        1 0.10771820E+00 0.54602033E+03</pdfrwt>
<pdfrwt beam="2">  1       -1 0.16377281E-01 0.54602033E+03</pdfrwt>
<totfact> 0.78274599E+02</totfact>
</mgrwt>
</event>
<event>
 5    0  0.5719562E-003  0.1065178E+04  0.7546771E-02  0.9239813E-01
         -2   -1    0    0    0  501 -0.00000000000E+00  0.00000000000E+00  0.29802785774E+03  0.29802785774E+03  0.00000000000E+00 0.  1.
          2   -1    0    0  502    0  0.00000000000E+00 -0.00000000000E+00 -0.95175968747E+03  0.95175968747E+03  0.00000000000E+00 0. -1.
         25    1    1    2    0    0 -0.14587652266E+03 -0.14945003531E+03 -0.55594759298E+03  0.60689208189E+03  0.12500000000E+03 0.  0.
          2    1    1    2  502    0 -0.13328320794E+03 -0.55177468258E+02  0.15692392666E+03  0.21315272759E+03  0.00000000000E+00 0.  1.
         -2    1    1    2    0  501  0.27915973060E+03  0.20462750357E+03 -0.25470816341E+03  0.42974273573E+03  0.00000000000E+00 0. -1.
<mgrwt>
<rscale>  4 0.10651777E+04</rscale>
<asrwt>0</asrwt>
<pdfrwt beam="1">  1        2 0.14642457E+00 0.10651777E+04</pdfrwt>
<pdfrwt beam="2">  1       -2 0.45850440E-01 0.10651777E+04</pdfrwt>
<totfact> 0.12145878E+02</totfact>
</mgrwt>
</event>
<event>
 5    0  0.5719562E-003  0.7741193E+03  0.7546771E-02  0.9598253E-01
          2   -1    0    0  502    0  0.00000000000E+00  0.00000000000E+00  0.15146847379E+04  0.15146847379E+04  0.00000000000E+00 0. -1.
         -2   -1    0    0    0  501 -0.00000000000E+00 -0.00000000000E+00 -0.98908482888E+02  0.98908482888E+02  0.00000000000E+00 0.  1.
         25    1    1    2    0    0 -0.15407813697E+03  0.26256399836E+03  0.28080713724E+03  0.43261712154E+03  0.12500000000E+03 0.  0.
          1    1    1    2  502    0  0.11312949980E+03 -0.26122495462E+03  0.96301658584E+03  0.10042099906E+04  0.00000000000E+00 0.  1.
         -1    1    1    2    0  501  0.40948637170E+02 -0.13390437409E+01  0.17195253196E+03  0.17676610867E+03  0.00000000000E+00 0. -1.
<mgrwt>
<rscale>  4 0.77411929E+03</rscale>
<asrwt>0</asrwt>
<pdfrwt beam="1">  1        2 0.23302840E+00 0.77411929E+03</pdfrwt>
<pdfrwt beam="2">  1       -2 0.15216691E-01 0.77411929E+03</pdfrwt>
<totfact> 0.43069630E+02</totfact>
</mgrwt>
</event>
<event>
 5    0  0.5719562E-003  0.5985950E+03  0.7546771E-02  0.9908325E-01
         -1   -1    0    0    0  501 -0.00000000000E+00  0.00000000000E+00  0.31196369289E+03  0.31196369289E+03  0.00000000000E+00 0.  1.
          1   -1    0    0  502    0  0.00000000000E+00 -0.00000000000E+00 -0.28714557372E+03  0.28714557372E+03  0.00000000000E+00 0. -1.
         25    1    1    2    0    0 -0.17472108086E+03  0.19403023953E+03  0.10651346475E+03  0.30845633098E+03  0.12500000000E+03 0.  0.
          4    1    1    2  502    0  0.14337333309E+03 -0.10927723331E+03 -0.86932652059E+02  0.20013673415E+03  0.00000000000E+00 0.  1.
         -4    1    1    2    0  501  0.31347747764E+02 -0.84753006216E+02  0.52373064770E+01  0.90516201488E+02  0.00000000000E+00 0. -1.
<mgrwt>
<rscale>  4 0.59859500E+03</rscale>
<asrwt>0</asrwt>
<pdfrwt beam="1">  1        1 0.44176242E-01 0.59859500E+03</pdfrwt>
<pdfrwt beam="2">  1       -1 0.47994415E-01 0.59859500E+03</pdfrwt>
<totfact> 0.40791875E+02</totfact>
</mgrwt>
</event>
<event>
 5    0  0.5719562E-003  0.5790578E+03  0.7546771E-02  0.9949833E-01
          2   -1    0    0  502    0  0.00000000000E+00  0.00000000000E+00  0.10730465168E+04  0.10730465168E+04  0.00000000000E+00 0.  1.
         -2   -1    0    0    0  501 -0.00000000000E+00 -0.00000000000E+00 -0.78120539029E+02  0.78120539029E+02  0.00000000000E+00 0. -1.
         25    1    1    2    0    0 -0.18602570673E+03  0.13700865696E+03  0.49005534523E+03  0.55601814452E+03  0.12500000000E+03 0.  0.
          1    1    1    2  502    0  0.11702128165E+03 -0.11976797222E+03  0.12573203980E+03  0.20939649797E+03  0.00000000000E+00 0. -1.
         -1    1    1    2    0  501  0.69004425081E+02 -0.17240684739E+02  0.37913859270E+03  0.38575241330E+03  0.00000000000E+00 0.  1.
<mgrwt>
<rscale>  4 0.57905776E+03</rscale>
<asrwt>0</asrwt>
<pdfrwt beam="1">  1        2 0.16508407E+00 0.57905776E+03</pdfrwt>
<pdfrwt beam="2">  1       -2 0.12018545E-01 0.57905776E+03</pdfrwt>
<totfact> 0.11600979E+03</totfact>
</mgrwt>
</event>
<event>
 5    0  0.5719562E-003  0.5393041E+03  0.7546771E-02  0.1004000E+00
         -2   -1    0    0    0  501 -0.00000000000E+00  0.00000000000E+00  0.78011904799E+02  0.78011904799E+02  0.00000000000E+00 0. -1.
          2   -1    0    0  502    0  0.00000000000E+00 -0.00000000000E+00 -0.93206594390E+03  0.93206594390E+03  0.00000000000E+00 0.  1.
         25    1    1    2    0    0  0.23250942308E+03 -0.44734516393E+02 -0.28682753361E+03  0.39237334621E+03  0.12500000000E+03 0.  0.
          1    1    1    2  502    0 -0.77804041011E+02  0.16168633280E+02 -0.26946211746E+03  0.28093544854E+03  0.00000000000E+00 0.  1.
         -1    1    1    2    0  501 -0.15470538207E+03  0.28565883114E+02 -0.29776438803E+03  0.33676905395E+03  0.00000000000E+00 0. -1.
<mgrwt>
<rscale>  4 0.53930414E+03</rscale>
<asrwt>0</asrwt>
<pdfrwt beam="1">  1        2 0.14339476E+00 0.53930414E+03</pdfrwt>
<pdfrwt beam="2">  1       -2 0.12001832E-01 0.53930414E+03</pdfrwt>
<totfact> 0.14284598E+03</totfact>
</mgrwt>
</event>
<event>
 5    0  0.5719562E-003  0.8220943E+03  0.7546771E-02  0.9528576E-01
          1   -1    0    0  502    0  0.00000000000E+00  0.00000000000E+00  0.30108944187E+03  0.30108944187E+03  0.00000000000E+00 0. -1.
         -1   -1    0    0    0  501 -0.00000000000E+00 -0.00000000000E+00 -0.56116137273E+03  0.56116137273E+03  0.00000000000E+00 0.  1.
         25    1    1    2    0    0 -0.26423628917E+03  0.27863631486E+03 -0.26346903965E+02  0.40469515913E+03  0.12500000000E+03 0.  0.
          2    1    1    2  502    0  0.14509674027E+03 -0.12723512192E+03 -0.16205711537E+03  0.25200069231E+03  0.00000000000E+00 0.  1.
         -2    1    1    2    0  501  0.11913954890E+03 -0.15140119294E+03 -0.71667911528E+02  0.20555496316E+03  0.00000000000E+00 0. -1.
<mgrwt>
<rscale>  4 0.82209431E+03</rscale>
<asrwt>0</asrwt>
<pdfrwt beam="1">  1        1 0.46321453E-01 0.82209431E+03</pdfrwt>
<pdfrwt beam="2">  1       -1 0.86332518E-01 0.82209431E+03</pdfrwt>
<totfact> 0.11685425E+02</totfact>
</mgrwt>
</event>
<event>
 5    0  0.5719562E-003  0.6322708E+03  0.7546771E-02  0.9840628E-01
          1   -1    0    0  502    0  0.00000000000E+00  0.00000000000E+00  0.44323577893E+03  0.44323577893E+03  0.00000000000E+00 0.  1.
         -1   -1    0    0    0  501 -0.00000000000E+00 -0.00000000000E+00 -0.22548174804E+03  0.22548174804E+03  0.00000000000E+00 0. -1.
         25    1    1    2    0    0  0.13314377757E+03  0.18393671034E+03 -0.55559988227E+02  0.26508845921E+03  0.12500000000E+03 0.  0.
          3    1    1    2  502    0 -0.11805285271E+03 -0.21879309630E+03  0.19281182033E+03  0.31461610429E+03  0.00000000000E+00 0.  1.
         -3    1    1    2    0  501 -0.15090924860E+02  0.34856385963E+02  0.80502198786E+02  0.89012963465E+02  0.00000000000E+00 0. -1.
<mgrwt>
<rscale>  4 0.63227076E+03</rscale>
<asrwt>0</asrwt>
<pdfrwt beam="1">  1        1 0.68190120E-01 0.63227076E+03</pdfrwt>
<pdfrwt beam="2">  1       -1 0.34689500E-01 0.63227076E+03</pdfrwt>
<totfact> 0.41696969E+02</totfact>
</mgrwt>
</event>
<event>
 5    0  0.5719562E-003  0.9059192E+03  0.7546771E-02  0.9418212E-01
         -2   -1    0    0    0  501 -0.00000000000E+00  0.00000000000E+00  0.31998840597E+03  0.31998840597E+03  0.00000000000E+00 0.  1.
          2   -1    0    0  502    0  0.00000000000E+00 -0.00000000000E+00 -0.64118694256E+03  0.64118694256E+03  0.00000000000E+00 0. -1.
         25    1    1    2    0    0 -0.23006901232E+03 -0.78193141053E+02 -0.53736396922E+03  0.60285234772E+03  0.12500000000E+03 0.  0.
          3    1    1    2  502    0  0.18598108063E+03  0.43334768399E+02  0.72860337476E+02  0.20439054107E+03  0.00000000000E+00 0. -1.
         -3    1    1    2    0  501  0.44087931699E+02  0.34858372655E+02  0.14330509515E+03  0.15393245974E+03  0.00000000000E+00 0.  1.
<mgrwt>
<rscale>  4 0.90591917E+03</rscale>
<asrwt>0</asrwt>
<pdfrwt beam="1">  1        2 0.98644144E-01 0.90591917E+03</pdfrwt>
<pdfrwt beam="2">  1       -2 0.49228986E-01 0.90591917E+03</pdfrwt>
<totfact> 0.17915579E+02</totfact>
</mgrwt>
</event>
<event>
 5    0  0.5719562E-003  0.5982465E+03  0.7546771E-02  0.9909051E-01
         -2   -1    0    0    0  501 -0.00000000000E+00  0.00000000000E+00  0.22139827250E+02  0.22139827250E+02  0.00000000000E+00 0. -1.
          2   -1    0    0  502    0  0.00000000000E+00 -0.00000000000E+00 -0.40413464178E+04  0.40413464178E+04  0.00000000000E+00 0.  1.
         25    1    1    2    0    0  0.25887518260E+03  0.63507555926E+02 -0.17782204685E+04  0.18024268652E+04  0.12500000000E+03 0.  0.
          1    1    1    2  502    0 -0.13097190360E+03 -0.14957694696E+01 -0.61069155064E+03  0.62457989631E+03  0.00000000000E+00 0. -1.
         -1    1    1    2    0  501 -0.12790327900E+03 -0.62011786456E+02 -0.16302945714E+04  0.16364794836E+04  0.00000000000E+00 0.  1.
<mgrwt>
<rscale>  4 0.59824648E+03</rscale>
<asrwt>0</asrwt>
<pdfrwt beam="1">  1        2 0.62174619E+00 0.59824648E+03</pdfrwt>
<pdfrwt beam="2">  1       -2 0.34061241E-02 0.59824648E+03</pdfrwt>
<totfact> 0.13371453E+02</totfact>
</mgrwt>
</event>
<event>
 5    0  0.5719562E-003  0.6962826E+03  0.7546771E-02  0.9723611E-01
         -1   -1    0    0    0  501 -0.00000000000E+00  0.00000000000E+00  0.29726032534E+03  0.29726032534E+03  0.00000000000E+00 0.  1.
          1   -1    0    0  502    0  0.00000000000E+00 -0.00000000000E+00 -0.40773143567E+03  0.40773143567E+03  0.00000000000E+00 0. -1.
         25    1    1    2    0    0  0.87946329504E+02  0.27848988508E+03  0.10631595810E+03  0.33499142662E+03  0.12500000000E+03 0.  0.
          3    1    1    2  502    0  0.86762097376E+01 -0.50847164349E+02 -0.26674448108E+02  0.58070964514E+02  0.00000000000E+00 0.  1.
         -3    1    1    2    0  501 -0.96622539241E+02 -0.22764272073E+03 -0.19011262032E+03  0.31192936988E+03  0.00000000000E+00 0. -1.
<mgrwt>
<rscale>  4 0.69628264E+03</rscale>
<asrwt>0</asrwt>
<pdfrwt beam="1">  1        1 0.62727913E-01 0.69628264E+03</pdfrwt>
<pdfrwt beam="2">  1       -1 0.45732358E-01 0.69628264E+03</pdfrwt>
<totfact> 0.28157566E+02</totfact>
</mgrwt>
</event>
<event>
 5    0  0.5719562E-003  0.4587824E+03  0.7546771E-02  0.1025135E+00
          2   -1    0    0  502    0  0.00000000000E+00  0.00000000000E+00  0.17376321625E+04  0.17376321625E+04  0.00000000000E+00 0.  1.
         -2   -1    0    0    0  501 -0.00000000000E+00 -0.00000000000E+00 -0.30282769714E+02  0.30282769714E+02  0.00000000000E+00 0. -1.
         25    1    1    2    0    0  0.20222338892E+03  0.10538011756E+02  0.11224653218E+04  0.11474139390E+04  0.12500000000E+03 0.  0.
          1    1    1    2  502    0 -0.31874485310E+02  0.95108906237E+01  0.64411391566E+02  0.72493221874E+02  0.00000000000E+00 0. -1.
         -1    1    1    2    0  501 -0.17034890361E+03 -0.20048902380E+02  0.52047267934E+03  0.54800777128E+03  0.00000000000E+00 0.  1.
<mgrwt>
<rscale>  4 0.45878237E+03</rscale>
<asrwt>0</asrwt>
<pdfrwt beam="1">  1        2 0.26732795E+00 0.45878237E+03</pdfrwt>
<pdfrwt beam="2">  1       -2 0.46588890E-02 0.45878237E+03</pdfrwt>
<totfact> 0.22109436E+03</totfact>
</mgrwt>
</event>
<event>
 5    0  0.5719562E-003  0.5970162E+03  0.7546771E-02  0.9911616E-01
          2   -1    0    0  502    0  0.00000000000E+00  0.00000000000E+00  0.30041179032E+04  0.30041179032E+04  0.00000000000E+00 0.  1.
         -2   -1    0    0    0  501 -0.00000000000E+00 -0.00000000000E+00 -0.29661648581E+02  0.29661648581E+02  0.00000000000E+00 0. -1.
         25    1    1    2    0    0  0.23400675942E+03  0.11265456065E+03  0.19899935661E+04  0.20107584655E+04  0.12500000000E+03 0.  0.
          3    1    1    2  502    0 -0.86914254894E+02  0.66651152665E+01  0.36409927230E+03  0.37438855692E+03  0.00000000000E+00 0.  1.
         -3    1    1    2    0  501 -0.14709250452E+03 -0.11931967592E+03  0.62036341620E+03  0.64863252933E+03  0.00000000000E+00 0. -1.
<mgrwt>
<rscale>  4 0.59701621E+03</rscale>
<asrwt>0</asrwt>
<pdfrwt beam="1">  1        2 0.46217175E+00 0.59701621E+03</pdfrwt>
<pdfrwt beam="2">  1       -2 0.45633329E-02 0.59701621E+03</pdfrwt>
<totfact> 0.44190569E+02</totfact>
</mgrwt>
</event>
<event>
 5    0  0.5719562E-003  0.9612381E+03  0.7546771E-02  0.9352111E-01
          4   -1    0    0  502    0  0.00000000000E+00  0.00000000000E+00  0.16783809451E+04  0.16783809451E+04  0.00000000000E+00 0. -1.
         -4   -1    0    0    0  501 -0.00000000000E+00 -0.00000000000E+00 -0.13762947724E+03  0.13762947724E+03  0.00000000000E+00 0.  1.
         25    1    1    2    0    0  0.18840047233E+03 -0.27939810390E+03  0.34110020364E+03  0.49551224744E+03  0.12500000000E+03 0.  0.
          4    1    1    2  502    0 -0.29234461731E+03  0.28382856576E+03  0.11125340309E+04  0.11848020931E+04  0.00000000000E+00 0. -1.
         -4    1    1    2    0  501  0.10394414498E+03 -0.44304618657E+01  0.87117233388E+02  0.13569608182E+03  0.00000000000E+00 0.  1.
<mgrwt>
<rscale>  4 0.96123814E+03</rscale>
<asrwt>0</asrwt>
<pdfrwt beam="1">  1        4 0.25821244E+00 0.96123814E+03</pdfrwt>
<pdfrwt beam="2">  1       -4 0.21173767E-01 0.96123814E+03</pdfrwt>
<totfact> 0.23541005E+00</totfact>
</mgrwt>
</event>
<event>
 5    0  0.5719562E-003  0.5944178E+03  0.7546771E-02  0.9917056E-01
          2   -1    0    0  502    0  0.00000000000E+00  0.00000000000E+00  0.30884130903E+04  0.30884130903E+04  0.00000000000E+00 0.  1.
         -2   -1    0    0    0  501 -0.00000000000E+00 -0.00000000000E+00 -0.28601457846E+02  0.28601457846E+02  0.00000000000E+00 0. -1.
         25    1    1    2    0    0  0.94958634549E+02 -0.19807829236E+03  0.25004232960E+04  0.25131641035E+04  0.12500000000E+03 0.  0.
          1    1    1    2  502    0 -0.35029872145E+02  0.33031679950E+02  0.17031783610E+03  0.17699251147E+03  0.00000000000E+00 0.  1.
         -1    1    1    2    0  501 -0.59928762403E+02  0.16504661241E+03  0.38907050038E+03  0.42685793316E+03  0.00000000000E+00 0. -1.
<mgrwt>
<rscale>  4 0.59441775E+03</rscale>
<asrwt>0</asrwt>
<pdfrwt beam="1">  1        2 0.47514021E+00 0.59441775E+03</pdfrwt>
<pdfrwt beam="2">  1       -2 0.44002267E-02 0.59441775E+03</pdfrwt>
<totfact> 0.41512346E+02</totfact>
</mgrwt>
</event>
<event>
 5    0  0.5719562E-003  0.5516199E+03  0.7546771E-02  0.1001120E+00
          2   -1    0    0  502    0  0.00000000000E+00  0.00000000000E+00  0.10109239210E+03  0.10109239210E+03  0.00000000000E+00 0. -1.
         -2   -1    0    0    0  501 -0.00000000000E+00 -0.00000000000E+00 -0.75249118758E+03  0.75249118758E+03  0.00000000000E+00 0.  1.
         25    1    1    2    0    0  0.19178495887E+03 -0.80781933006E+02 -0.27309174510E+03  0.36539197089E+03  0.12500000000E+03 0.  0.
          3    1    1    2  502    0 -0.43876835513E+02 -0.47115729830E+02 -0.24051223743E+03  0.24898033064E+03  0.00000000000E+00 0.  1.
         -3    1    1    2    0  501 -0.14790812336E+03  0.12789766284E+03 -0.13779481295E+03  0.23921127815E+03  0.00000000000E+00 0. -1.
<mgrwt>
<rscale>  4 0.55161992E+03</rscale>
<asrwt>0</asrwt>
<pdfrwt beam="1">  1        2 0.15552675E-01 0.55161992E+03</pdfrwt>
<pdfrwt beam="2">  1       -2 0.11576788E+00 0.55161992E+03</pdfrwt>
<totfact> 0.22565109E+02</totfact>
</mgrwt>
</event>
<event>
 5    0  0.5719562E-003  0.6214621E+03  0.7546771E-02  0.9861853E-01
          1   -1    0    0  502    0  0.00000000000E+00  0.00000000000E+00  0.16828197884E+03  0.16828197884E+03  0.00000000000E+00 0.  1.
         -1   -1    0    0    0  501 -0.00000000000E+00 -0.00000000000E+00 -0.57376191557E+03  0.57376191557E+03  0.00000000000E+00 0. -1.
         25    1    1    2    0    0  0.21028701247E+03 -0.87165347417E+02 -0.25679306945E+03  0.36522062636E+03  0.12500000000E+03 0.  0.
          3    1    1    2  502    0 -0.15457325356E+03 -0.76127978489E+02 -0.91274772313E+02  0.19498575303E+03  0.00000000000E+00 0. -1.
         -3    1    1    2    0  501 -0.55713758903E+02  0.16329332591E+03 -0.57412094965E+02  0.18183751501E+03  0.00000000000E+00 0.  1.
<mgrwt>
<rscale>  4 0.62146212E+03</rscale>
<asrwt>0</asrwt>
<pdfrwt beam="1">  1        1 0.25889536E-01 0.62146212E+03</pdfrwt>
<pdfrwt beam="2">  1       -1 0.88271062E-01 0.62146212E+03</pdfrwt>
<totfact> 0.23896614E+02</totfact>
</mgrwt>
</event>
<event>
 5    0  0.5719562E-003  0.5108217E+03  0.7546771E-02  0.1010992E+00
         -2   -1    0    0    0  501 -0.00000000000E+00  0.00000000000E+00  0.39148840531E+02  0.39148840531E+02  0.00000000000E+00 0. -1.
          2   -1    0    0  502    0  0.00000000000E+00 -0.00000000000E+00 -0.16663252183E+04  0.16663252183E+04  0.00000000000E+00 0.  1.
         25    1    1    2    0    0  0.16395839064E+03  0.13461968026E+03 -0.11409633260E+04  0.11672305357E+04  0.12500000000E+03 0.  0.
          4    1    1    2  502    0 -0.84091530411E+02 -0.69578333124E+02 -0.35519446220E+03  0.37158530098E+03  0.00000000000E+00 0.  1.
         -4    1    1    2    0  501 -0.79866860230E+02 -0.65041347137E+02 -0.13101858957E+03  0.16665822216E+03  0.00000000000E+00 0. -1.
<mgrwt>
<rscale>  4 0.51082169E+03</rscale>
<asrwt>0</asrwt>
<pdfrwt beam="1">  1        2 0.25635770E+00 0.51082169E+03</pdfrwt>
<pdfrwt beam="2">  1       -2 0.60228992E-02 0.51082169E+03</pdfrwt>
<totfact> 0.16195505E+03</totfact>
</mgrwt>
</event>
<event>
 5    0  0.5719562E-003  0.8508918E+03  0.7546771E-02  0.9489141E-01
          3   -1    0    0  502    0  0.00000000000E+00  0.00000000000E+00  0.90065617177E+03  0.90065617177E+03  0.00000000000E+00 0. -1.
         -3   -1    0    0    0  501 -0.00000000000E+00 -0.00000000000E+00 -0.20096927157E+03  0.20096927157E+03  0.00000000000E+00 0.  1.
         25    1    1    2    0    0  0.71283312236E+02 -0.32175726828E+03  0.61080599147E+03  0.70520777755E+03  0.12500000000E+03 0.  0.
          1    1    1    2  502    0 -0.11440698843E+03  0.24331881681E+03  0.12912931900E+03  0.29827401268E+03  0.00000000000E+00 0. -1.
         -1    1    1    2    0  501  0.43123676193E+02  0.78438451474E+02 -0.40248410264E+02  0.98143653115E+02  0.00000000000E+00 0.  1.
<mgrwt>
<rscale>  4 0.85089180E+03</rscale>
<asrwt>0</asrwt>
<pdfrwt beam="1">  1        3 0.13856249E+00 0.85089180E+03</pdfrwt>
<pdfrwt beam="2">  1       -3 0.30918350E-01 0.85089180E+03</pdfrwt>
<totfact> 0.10696758E+01</totfact>
</mgrwt>
</event>
<event>
 5    0  0.5719562E-003  0.5816442E+03  0.7546771E-02  0.9944238E-01
         -2   -1    0    0    0  501 -0.00000000000E+00  0.00000000000E+00  0.10175912816E+03  0.10175912816E+03  0.00000000000E+00 0.  1.
          2   -1    0    0  502    0  0.00000000000E+00 -0.00000000000E+00 -0.83115373868E+03  0.83115373868E+03  0.00000000000E+00 0. -1.
         25    1    1    2    0    0  0.25340941758E+03 -0.88084589673E+02 -0.33118770845E+03  0.44416835332E+03  0.12500000000E+03 0.  0.
          4    1    1    2  502    0 -0.23332272481E+03  0.76252418833E+02 -0.39521519721E+03  0.46524077357E+03  0.00000000000E+00 0.  1.
         -4    1    1    2    0  501 -0.20086692776E+02  0.11832170840E+02 -0.29917048603E+01  0.23503739946E+02  0.00000000000E+00 0. -1.
<mgrwt>
<rscale>  4 0.58164415E+03</rscale>
<asrwt>0</asrwt>
<pdfrwt beam="1">  1        2 0.12786980E+00 0.58164415E+03</pdfrwt>
<pdfrwt beam="2">  1       -2 0.15655251E-01 0.58164415E+03</pdfrwt>
<totfact> 0.10719941E+03</totfact>
</mgrwt>
</event>
<event>
 5    0  0.5719562E-003  0.6301262E+03  0.7546771E-02  0.9844803E-01
         -1   -1    0    0    0  501 -0.00000000000E+00  0.00000000000E+00  0.24404598739E+03  0.24404598739E+03  0.00000000000E+00 0. -1.
          1   -1    0    0  502    0  0.00000000000E+00 -0.00000000000E+00 -0.40674605856E+03  0.40674605856E+03  0.00000000000E+00 0.  1.
         25    1    1    2    0    0  0.23873509719E+03 -0.70434790556E+01  0.88409642845E+02  0.28369935173E+03  0.12500000000E+03 0.  0.
          2    1    1    2  502    0 -0.79898495439E+02  0.69125663514E+01 -0.17171303104E+03  0.18951759332E+03  0.00000000000E+00 0.  1.
         -2    1    1    2    0  501 -0.15883660175E+03  0.13091270415E+00 -0.79396682966E+02  0.17757510090E+03  0.00000000000E+00 0. -1.
<mgrwt>
<rscale>  4 0.63012616E+03</rscale>
<asrwt>0</asrwt>
<pdfrwt beam="1">  1        1 0.62576317E-01 0.63012616E+03</pdfrwt>
<pdfrwt beam="2">  1       -1 0.37545537E-01 0.63012616E+03</pdfrwt>
<totfact> 0.40597711E+02</totfact>
</mgrwt>
</event>
<event>
 5    0  0.5719562E-003  0.6414188E+03  0.7546771E-02  0.9823016E-01
          3   -1    0    0  502    0  0.00000000000E+00  0.00000000000E+00  0.27627445601E+03  0.27627445601E+03  0.00000000000E+00 0.  1.
         -3   -1    0    0    0  501 -0.00000000000E+00 -0.00000000000E+00 -0.37229109022E+03  0.37229109022E+03  0.00000000000E+00 0. -1.
         25    1    1    2    0    0 -0.46787245485E+02 -0.28879216332E+03 -0.45440326331E+02  0.32137172121E+03  0.12500000000E+03 0.  0.
          3    1    1    2  502    0  0.56281101186E+02  0.48713640901E+02 -0.44761718262E+02  0.86857311622E+02  0.00000000000E+00 0.  1.
         -3    1    1    2    0  501 -0.94938557014E+01  0.24007852242E+03 -0.58145896203E+01  0.24033651340E+03  0.00000000000E+00 0. -1.
<mgrwt>
<rscale>  4 0.64141880E+03</rscale>
<asrwt>0</asrwt>
<pdfrwt beam="1">  1        3 0.42503763E-01 0.64141880E+03</pdfrwt>
<pdfrwt beam="2">  1       -3 0.57275552E-01 0.64141880E+03</pdfrwt>
<totfact> 0.43403793E+01</totfact>
</mgrwt>
</event>
<event>
 5    0  0.5719562E-003  0.8653264E+03  0.7546771E-02  0.9469994E-01
         -2   -1    0    0    0  501 -0.00000000000E+00  0.00000000000E+00  0.13378590812E+03  0.13378590812E+03  0.00000000000E+00 0.  1.
          2   -1    0    0  502    0  0.00000000000E+00 -0.00000000000E+00 -0.13992313585E+04  0.13992313585E+04  0.00000000000E+00 0. -1.
         25    1    1    2    0    0  0.25777769435E+03 -0.29362098451E+03 -0.79015696894E+03  0.89030088049E+03  0.12500000000E+03 0.  0.
          3    1    1    2  502    0 -0.20490064135E+03  0.28446152808E+03 -0.47332570282E+03  0.58901600549E+03  0.00000000000E+00 0. -1.
         -3    1    1    2    0  501 -0.52877053004E+02  0.91594564247E+01 -0.19627785949E+01  0.53700380596E+02  0.00000000000E+00 0.  1.
<mgrwt>
<rscale>  4 0.86532638E+03</rscale>
<asrwt>0</asrwt>
<pdfrwt beam="1">  1        2 0.21526635E+00 0.86532638E+03</pdfrwt>
<pdfrwt beam="2">  1       -2 0.20582448E-01 0.86532638E+03</pdfrwt>
<totfact> 0.29534824E+02</totfact>
</mgrwt>
</event>
<event>
 5    0  0.5719562E-003  0.4563957E+03  0.7546771E-02  0.1025832E+00
         -2   -1    0    0    0  501 -0.00000000000E+00  0.00000000000E+00  0.11345450003E+03  0.11345450003E+03  0.00000000000E+00 0. -1.
          2   -1    0    0  502    0  0.00000000000E+00 -0.00000000000E+00 -0.45898808954E+03  0.45898808954E+03  0.00000000000E+00 0.  1.
         25    1    1    2    0    0  0.14455164210E+03 -0.15018259803E+03 -0.20090768851E+03  0.31533932404E+03  0.12500000000E+03 0.  0.
          2    1    1    2  502    0 -0.30995209204E+02  0.29410006625E+02 -0.10848434767E+02  0.44083330412E+02  0.00000000000E+00 0. -1.
         -2    1    1    2    0  501 -0.11355643290E+03  0.12077259141E+03 -0.13377746623E+03  0.21301993512E+03  0.00000000000E+00 0.  1.
<mgrwt>
<rscale>  4 0.45639572E+03</rscale>
<asrwt>0</asrwt>
<pdfrwt beam="1">  1        2 0.70613550E-01 0.45639572E+03</pdfrwt>
<pdfrwt beam="2">  1       -2 0.17454539E-01 0.45639572E+03</pdfrwt>
<totfact> 0.18298899E+03</totfact>
</mgrwt>
</event>
<event>
 5    0  0.5719562E-003  0.6915562E+03  0.7546771E-02  0.9731782E-01
         -2   -1    0    0    0  501 -0.00000000000E+00  0.00000000000E+00  0.15534867913E+03  0.15534867913E+03  0.00000000000E+00 0.  1.
          2   -1    0    0  502    0  0.00000000000E+00 -0.00000000000E+00 -0.76963951575E+03  0.76963951575E+03  0.00000000000E+00 0. -1.
         25    1    1    2    0    0 -0.66016861581E+02 -0.21144965113E+03  0.63050363081E+01  0.25442864316E+03  0.12500000000E+03 0.  0.
          4    1    1    2  502    0  0.25536906542E+02  0.19241544288E+03 -0.57416411244E+03  0.60608602051E+03  0.00000000000E+00 0. -1.
         -4    1    1    2    0  501  0.40479955039E+02  0.19034208254E+02 -0.46431760488E+02  0.64473531204E+02  0.00000000000E+00 0.  1.
<mgrwt>
<rscale>  4 0.69155616E+03</rscale>
<asrwt>0</asrwt>
<pdfrwt beam="1">  1        2 0.11840608E+00 0.69155616E+03</pdfrwt>
<pdfrwt beam="2">  1       -2 0.23899797E-01 0.69155616E+03</pdfrwt>
<totfact> 0.56699392E+02</totfact>
</mgrwt>
</event>
<event>
 5    0  0.5719562E-003  0.5748473E+03  0.7546771E-02  0.9959009E-01
         -1   -1    0    0    0  501 -0.00000000000E+00  0.00000000000E+00  0.19306703382E+03  0.19306703382E+03  0.00000000000E+00 0. -1.
          1   -1    0    0  502    0  0.00000000000E+00 -0.00000000000E+00 -0.42789462313E+03  0.42789462313E+03  0.00000000000E+00 0.  1.
         25    1    1    2    0    0 -0.82594694860E+02 -0.21572713906E+03  0.12537003929E+02  0.26294915595E+03  0.12500000000E+03 0.  0.
          4    1    1    2  502    0  0.10181845371E+03  0.17529764244E+03 -0.15438009408E+03  0.25481262608E+03  0.00000000000E+00 0. -1.
         -4    1    1    2    0  501 -0.19223758852E+02  0.40429496627E+02 -0.92984499157E+02  0.10319987493E+03  0.00000000000E+00 0.  1.
<mgrwt>
<rscale>  4 0.57484727E+03</rscale>
<asrwt>0</asrwt>
<pdfrwt beam="1">  1        1 0.65829941E-01 0.57484727E+03</pdfrwt>
<pdfrwt beam="2">  1       -1 0.29702621E-01 0.57484727E+03</pdfrwt>
<totfact> 0.57458159E+02</totfact>
</mgrwt>
</event>
<event>
 5    0  0.5719562E-003  0.6439020E+03  0.7546771E-02  0.9818289E-01
          2   -1    0    0  502    0  0.00000000000E+00  0.00000000000E+00  0.11183326942E+04  0.11183326942E+04  0.00000000000E+00 0. -1.
         -2   -1    0    0    0  501 -0.00000000000E+00 -0.00000000000E+00 -0.92684802387E+02  0.92684802387E+02  0.00000000000E+00 0.  1.
         25    1    1    2    0    0 -0.23371418979E+03  0.31328432319E+02  0.37601502961E+03  0.46110312911E+03  0.12500000000E+03 0.  0.
          3    1    1    2  502    0 -0.38165259751E+02 -0.88847731143E+02  0.16316973142E+03  0.18967041844E+03  0.00000000000E+00 0.  1.
         -3    1    1    2    0  501  0.27187944954E+03  0.57519298824E+02  0.48646313077E+03  0.56024394902E+03  0.00000000000E+00 0. -1.
<mgrwt>
<rscale>  4 0.64390199E+03</rscale>
<asrwt>0</asrwt>
<pdfrwt beam="1">  1        2 0.17205117E+00 0.64390199E+03</pdfrwt>
<pdfrwt beam="2">  1       -2 0.14259201E-01 0.64390199E+03</pdfrwt>
<totfact> 0.81782538E+02</totfact>
</mgrwt>
</event>
<event>
 5    0  0.5719562E-003  0.5639208E+03  0.7546771E-02  0.9983222E-01
          2   -1    0    0  502    0  0.00000000000E+00  0.00000000000E+00  0.29409624181E+03  0.29409624181E+03  0.00000000000E+00 0. -1.
         -2   -1    0    0    0  501 -0.00000000000E+00 -0.00000000000E+00 -0.27032538082E+03  0.27032538082E+03  0.00000000000E+00 0.  1.
         25    1    1    2    0    0  0.50317400551E+01 -0.25633604939E+03 -0.26190617896E+02  0.28643400128E+03  0.12500000000E+03 0.  0.
          1    1    1    2  502    0  0.22841092645E+02  0.76179540374E+02 -0.21173676416E+02  0.82300440204E+02  0.00000000000E+00 0.  1.
         -1    1    1    2    0  501 -0.27872832700E+02  0.18015650901E+03  0.71135155300E+02  0.19568718114E+03  0.00000000000E+00 0. -1.
<mgrwt>
<rscale>  4 0.56392084E+03</rscale>
<asrwt>0</asrwt>
<pdfrwt beam="1">  1        2 0.45245576E-01 0.56392084E+03</pdfrwt>
<pdfrwt beam="2">  1       -2 0.41588520E-01 0.56392084E+03</pdfrwt>
<totfact> 0.61910589E+02</totfact>
</mgrwt>
</event>
<event>
 5    0  0.5719562E-003  0.5896062E+03  0.7546771E-02  0.9927208E-01
         -2   -1    0    0    0  501 -0.00000000000E+00  0.00000000000E+00  0.14137912828E+03  0.14137912828E+03  0.00000000000E+00 0. -1.
          2   -1    0    0  502    0  0.00000000000E+00 -0.00000000000E+00 -0.61472205197E+03  0.61472205197E+03  0.00000000000E+00 0.  1.
         25    1    1    2    0    0  0.17422077775E+03  0.12928065690E+03 -0.10672015892E+03  0.27217744206E+03  0.12500000000E+03 0.  0.
          4    1    1    2  502    0 -0.37636857808E+02 -0.63224193938E+02 -0.31528146293E+03  0.32375335154E+03  0.00000000000E+00 0.  1.
         -4    1    1    2    0  501 -0.13658391994E+03 -0.66056462958E+02 -0.51341301839E+02  0.16017038665E+03  0.00000000000E+00 0. -1.
<mgrwt>
<rscale>  4 0.58960620E+03</rscale>
<asrwt>0</asrwt>
<pdfrwt beam="1">  1        2 0.94572623E-01 0.58960620E+03</pdfrwt>
<pdfrwt beam="2">  1       -2 0.21750635E-01 0.58960620E+03</pdfrwt>
<totfact> 0.88993203E+02</totfact>
</mgrwt>
</event>
<event>
 5    0  0.5719562E-003  0.5758802E+03  0.7546771E-02  0.9956750E-01
         -2   -1    0    0    0  501 -0.00000000000E+00  0.00000000000E+00  0.28773356299E+02  0.28773356299E+02  0.00000000000E+00 0.  1.
          2   -1    0    0  502    0  0.00000000000E+00 -0.00000000000E+00 -0.28814680178E+04  0.28814680178E+04  0.00000000000E+00 0. -1.
         25    1    1    2    0    0 -0.12043718054E+03 -0.22714786142E+03 -0.11673556892E+04  0.12018508936E+04  0.12500000000E+03 0.  0.
          1    1    1    2  502    0  0.88238394558E+02  0.22587524234E+03 -0.13591571758E+04  0.13806208270E+04  0.00000000000E+00 0.  1.
         -1    1    1    2    0  501  0.32198785982E+02  0.12726190729E+01 -0.32618179653E+03  0.32776965352E+03  0.00000000000E+00 0. -1.
<mgrwt>
<rscale>  4 0.57588022E+03</rscale>
<asrwt>0</asrwt>
<pdfrwt beam="1">  1        2 0.44330264E+00 0.57588022E+03</pdfrwt>
<pdfrwt beam="2">  1       -2 0.44266715E-02 0.57588022E+03</pdfrwt>
<totfact> 0.55016541E+02</totfact>
</mgrwt>
</event>
<event>
 5    0  0.5719562E-003  0.6061192E+03  0.7546771E-02  0.9892791E-01
          2   -1    0    0  502    0  0.00000000000E+00  0.00000000000E+00  0.14181115246E+03  0.14181115246E+03  0.00000000000E+00 0. -1.
         -2   -1    0    0    0  501 -0.00000000000E+00 -0.00000000000E+00 -0.64765804909E+03  0.64765804909E+03  0.00000000000E+00 0.  1.
         25    1    1    2    0    0  0.34579620118E+02 -0.20464200193E+03 -0.19655569757E+03  0.31198275807E+03  0.12500000000E+03 0.  0.
          2    1    1    2  502    0 -0.10265265424E+03  0.12174168021E+03 -0.10005059115E+02  0.15955784321E+03  0.00000000000E+00 0. -1.
         -2    1    1    2    0  501  0.68073034117E+02  0.82900321726E+02 -0.29928613993E+03  0.31792860027E+03  0.00000000000E+00 0.  1.
<mgrwt>
<rscale>  4 0.60611924E+03</rscale>
<asrwt>0</asrwt>
<pdfrwt beam="1">  1        2 0.21817101E-01 0.60611924E+03</pdfrwt>
<pdfrwt beam="2">  1       -2 0.99639698E-01 0.60611924E+03</pdfrwt>
<totfact> 0.21636516E+02</totfact>
</mgrwt>
</event>
<event>
 5    0  0.5719562E-003  0.5295563E+03  0.7546771E-02  0.1006340E+00
         -1   -1    0    0    0  501 -0.00000000000E+00  0.00000000000E+00  0.23170500780E+03  0.23170500780E+03  0.00000000000E+00 0. -1.
          1   -1    0    0  502    0  0.00000000000E+00 -0.00000000000E+00 -0.30257209020E+03  0.30257209020E+03  0.00000000000E+00 0.  1.
         25    1    1    2    0    0 -0.19544817256E+03 -0.92162694653E+02 -0.14813120898E+02  0.25007674621E+03  0.12500000000E+03 0.  0.
          1    1    1    2  502    0  0.14715181466E+03  0.81995142222E+02  0.42715773023E+02  0.17378577955E+03  0.00000000000E+00 0. -1.
         -1    1    1    2    0  501  0.48296357895E+02  0.10167552430E+02 -0.98769734520E+02  0.11041457225E+03  0.00000000000E+00 0.  1.
<mgrwt>
<rscale>  4 0.52955630E+03</rscale>
<asrwt>0</asrwt>
<pdfrwt beam="1">  1        1 0.46549552E-01 0.52955630E+03</pdfrwt>
<pdfrwt beam="2">  1       -1 0.35646924E-01 0.52955630E+03</pdfrwt>
<totfact> 0.65634681E+02</totfact>
</mgrwt>
</event>
<event>
 5    0  0.5719562E-003  0.4887382E+03  0.7546771E-02  0.1016761E+00
          2   -1    0    0  502    0  0.00000000000E+00  0.00000000000E+00  0.81396979561E+03  0.81396979561E+03  0.00000000000E+00 0. -1.
         -2   -1    0    0    0  501 -0.00000000000E+00 -0.00000000000E+00 -0.73364221242E+02  0.73364221242E+02  0.00000000000E+00 0.  1.
         25    1    1    2    0    0 -0.17809393450E+03  0.11625477812E+03  0.43762196238E+03  0.50236501162E+03  0.12500000000E+03 0.  0.
          3    1    1    2  502    0  0.15382983045E+03 -0.68456157528E+02  0.16001477622E+03  0.23228127529E+03  0.00000000000E+00 0.  1.
         -3    1    1    2    0  501  0.24264104046E+02 -0.47798620588E+02  0.14296883577E+03  0.15268772995E+03  0.00000000000E+00 0. -1.
<mgrwt>
<rscale>  4 0.48873821E+03</rscale>
<asrwt>0</asrwt>
<pdfrwt beam="1">  1        2 0.12522612E+00 0.48873821E+03</pdfrwt>
<pdfrwt beam="2">  1       -2 0.11286804E-01 0.48873821E+03</pdfrwt>
<totfact> 0.18989868E+03</totfact>
</mgrwt>
</event>
<event>
 5    0  0.5719562E-003  0.6425485E+03  0.7546771E-02  0.9820863E-01
          1   -1    0    0  502    0  0.00000000000E+00  0.00000000000E+00  0.19717409970E+03  0.19717409970E+03  0.00000000000E+00 0. -1.
         -1   -1    0    0    0  501 -0.00000000000E+00 -0.00000000000E+00 -0.52348227381E+03  0.52348227381E+03  0.00000000000E+00 0.  1.
         25    1    1    2    0    0  0.85777754962E+01 -0.20779601327E+03 -0.15177170130E+03  0.28620344282E+03  0.12500000000E+03 0.  0.
          3    1    1    2  502    0 -0.67516617477E+02  0.27610328629E+03 -0.63251939742E+02  0.29119121933E+03  0.00000000000E+00 0.  1.
         -3    1    1    2    0  501  0.58938841981E+02 -0.68307273016E+02 -0.11128453307E+03  0.14326171136E+03  0.00000000000E+00 0. -1.
<mgrwt>
<rscale>  4 0.64254851E+03</rscale>
<asrwt>0</asrwt>
<pdfrwt beam="1">  1        1 0.30334477E-01 0.64254851E+03</pdfrwt>
<pdfrwt beam="2">  1       -1 0.80535734E-01 0.64254851E+03</pdfrwt>
<totfact> 0.23670370E+02</totfact>
</mgrwt>
</event>
<event>
 5    0  0.5719562E-003  0.5874967E+03  0.7546771E-02  0.9931691E-01
         -1   -1    0    0    0  501 -0.00000000000E+00  0.00000000000E+00  0.90400574022E+03  0.90400574022E+03  0.00000000000E+00 0. -1.
          1   -1    0    0  502    0  0.00000000000E+00 -0.00000000000E+00 -0.95450813455E+02  0.95450813455E+02  0.00000000000E+00 0.  1.
         25    1    1    2    0    0 -0.11419111010E+03 -0.22554223163E+03  0.56899917642E+03  0.63505430527E+03  0.12500000000E+03 0.  0.
          2    1    1    2  502    0  0.86256984504E+02  0.16716595093E+03  0.23285173009E+03  0.29934035934E+03  0.00000000000E+00 0.  1.
         -2    1    1    2    0  501  0.27934125593E+02  0.58376280699E+02  0.67040202589E+01  0.65061889063E+02  0.00000000000E+00 0. -1.
<mgrwt>
<rscale>  4 0.58749667E+03</rscale>
<asrwt>0</asrwt>
<pdfrwt beam="1">  1        1 0.14684741E-01 0.58749667E+03</pdfrwt>
<pdfrwt beam="2">  1       -1 0.13907780E+00 0.58749667E+03</pdfrwt>
<totfact> 0.17309165E+02</totfact>
</mgrwt>
</event>
<event>
 5    0  0.5719562E-003  0.6464702E+03  0.7546771E-02  0.9813425E-01
         -1   -1    0    0    0  501 -0.00000000000E+00  0.00000000000E+00  0.47086338099E+02  0.47086338099E+02  0.00000000000E+00 0.  1.
          1   -1    0    0  502    0  0.00000000000E+00 -0.00000000000E+00 -0.22189224150E+04  0.22189224150E+04  0.00000000000E+00 0. -1.
         25    1    1    2    0    0  0.21848609926E+03  0.15437535645E+02 -0.90768432235E+03  0.94206704757E+03  0.12500000000E+03 0.  0.
          2    1    1    2  502    0 -0.42831944236E+02  0.13326654746E+03 -0.71397688847E+03  0.72756961550E+03  0.00000000000E+00 0. -1.
         -2    1    1    2    0  501 -0.17565415502E+03 -0.14870408311E+03 -0.55017486612E+03  0.59637209008E+03  0.00000000000E+00 0.  1.
<mgrwt>
<rscale>  4 0.64647020E+03</rscale>
<asrwt>0</asrwt>
<pdfrwt beam="1">  1        1 0.34137260E+00 0.64647020E+03</pdfrwt>
<pdfrwt beam="2">  1       -1 0.72440536E-02 0.64647020E+03</pdfrwt>
<totfact> 0.23128292E+02</totfact>
</mgrwt>
</event>
<event>
 5    0  0.5719562E-003  0.5541780E+03  0.7546771E-02  0.1000531E+00
          1   -1    0    0  502    0  0.00000000000E+00  0.00000000000E+00  0.17493572026E+04  0.17493572026E+04  0.00000000000E+00 0. -1.
         -1   -1    0    0    0  501 -0.00000000000E+00 -0.00000000000E+00 -0.43889444905E+02  0.43889444905E+02  0.00000000000E+00 0.  1.
         25    1    1    2    0    0 -0.17239266303E+03  0.12900546885E+03  0.41435186765E+03  0.48339850175E+03  0.12500000000E+03 0.  0.
          2    1    1    2  502    0  0.53241207651E+02 -0.65168910502E+02  0.56902542729E+03  0.57521435135E+03  0.00000000000E+00 0. -1.
         -2    1    1    2    0  501  0.11915145538E+03 -0.63836558352E+02  0.72209046279E+03  0.73463379445E+03  0.00000000000E+00 0.  1.
<mgrwt>
<rscale>  4 0.55417801E+03</rscale>
<asrwt>0</asrwt>
<pdfrwt beam="1">  1        1 0.26913182E+00 0.55417801E+03</pdfrwt>
<pdfrwt beam="2">  1       -1 0.67522236E-02 0.55417801E+03</pdfrwt>
<totfact> 0.53375220E+02</totfact>
</mgrwt>
</event>
<event>
 5    0  0.5719562E-003  0.5843802E+03  0.7546771E-02  0.9938353E-01
         -1   -1    0    0    0  501 -0.00000000000E+00  0.00000000000E+00  0.43382689787E+03  0.43382689787E+03  0.00000000000E+00 0. -1.
          1   -1    0    0  502    0  0.00000000000E+00 -0.00000000000E+00 -0.19679520709E+03  0.19679520709E+03  0.00000000000E+00 0.  1.
         25    1    1    2    0    0 -0.15683097210E+03 -0.13750471417E+03  0.18795135448E+03  0.30733403957E+03  0.12500000000E+03 0.  0.
          4    1    1    2  502    0  0.11745909950E+03  0.72553737915E+02  0.14548005017E+03  0.20056203513E+03  0.00000000000E+00 0. -1.
         -4    1    1    2    0  501  0.39371872601E+02  0.64950976253E+02 -0.96399713867E+02  0.12272603025E+03  0.00000000000E+00 0.  1.
<mgrwt>
<rscale>  4 0.58438020E+03</rscale>
<asrwt>0</asrwt>
<pdfrwt beam="1">  1        1 0.30276186E-01 0.58438020E+03</pdfrwt>
<pdfrwt beam="2">  1       -1 0.66742599E-01 0.58438020E+03</pdfrwt>
<totfact> 0.35047824E+02</totfact>
</mgrwt>
</event>
<event>
 5    0  0.5719562E-003  0.7270092E+03  0.7546771E-02  0.9672126E-01
          1   -1    0    0  502    0  0.00000000000E+00  0.00000000000E+00  0.16354322770E+04  0.16354322770E+04  0.00000000000E+00 0. -1.
         -1   -1    0    0    0  501 -0.00000000000E+00 -0.00000000000E+00 -0.80795510695E+02  0.80795510695E+02  0.00000000000E+00 0.  1.
         25    1    1    2    0    0  0.10790402395E+03 -0.28016128026E+03  0.37848523559E+03  0.49900871225E+03  0.12500000000E+03 0.  0.
          2    1    1    2  502    0 -0.37803756256E+02  0.12145102400E+03  0.33445509482E+03  0.35782633451E+03  0.00000000000E+00 0.  1.
         -2    1    1    2    0  501 -0.70100267698E+02  0.15871025626E+03  0.84169643590E+03  0.85939274094E+03  0.00000000000E+00 0. -1.
<mgrwt>
<rscale>  4 0.72700918E+03</rscale>
<asrwt>0</asrwt>
<pdfrwt beam="1">  1        1 0.25160494E+00 0.72700918E+03</pdfrwt>
<pdfrwt beam="2">  1       -1 0.12430080E-01 0.72700918E+03</pdfrwt>
<totfact> 0.24061169E+02</totfact>
</mgrwt>
</event>
<event>
 5    0  0.5719562E-003  0.5296023E+03  0.7546771E-02  0.1006329E+00
          2   -1    0    0  502    0  0.00000000000E+00  0.00000000000E+00  0.16964038102E+04  0.16964038102E+04  0.00000000000E+00 0. -1.
         -2   -1    0    0    0  501 -0.00000000000E+00 -0.00000000000E+00 -0.41334293725E+02  0.41334293725E+02  0.00000000000E+00 0.  1.
         25    1    1    2    0    0 -0.18654183497E+03  0.75331106807E+02  0.10746439569E+04  0.11004350348E+04  0.12500000000E+03 0.  0.
          2    1    1    2  502    0 -0.13593120387E+02 -0.46358505831E+02  0.20779922311E+03  0.21334104412E+03  0.00000000000E+00 0. -1.
         -2    1    1    2    0  501  0.20013495536E+03 -0.28972600976E+02  0.37262633652E+03  0.42396202499E+03  0.00000000000E+00 0.  1.
<mgrwt>
<rscale>  4 0.52960232E+03</rscale>
<asrwt>0</asrwt>
<pdfrwt beam="1">  1        2 0.26098515E+00 0.52960232E+03</pdfrwt>
<pdfrwt beam="2">  1       -2 0.63591234E-02 0.52960232E+03</pdfrwt>
<totfact> 0.14317297E+03</totfact>
</mgrwt>
</event>
<event>
 5    0  0.5719562E-003  0.9368257E+03  0.7546771E-02  0.9380683E-01
          2   -1    0    0  502    0  0.00000000000E+00  0.00000000000E+00  0.14230036276E+04  0.14230036276E+04  0.00000000000E+00 0. -1.
         -2   -1    0    0    0  501 -0.00000000000E+00 -0.00000000000E+00 -0.15418836881E+03  0.15418836881E+03  0.00000000000E+00 0.  1.
         25    1    1    2    0    0  0.31645659483E+02 -0.20042904676E+03  0.51265980632E+03  0.56534797034E+03  0.12500000000E+03 0.  0.
          1    1    1    2  502    0 -0.41642322829E+02  0.22770016358E+03 -0.22572440250E+02  0.23257463878E+03  0.00000000000E+00 0.  1.
         -1    1    1    2    0  501  0.99966633465E+01 -0.27271116820E+02  0.77872789274E+03  0.77926938732E+03  0.00000000000E+00 0. -1.
<mgrwt>
<rscale>  4 0.93682572E+03</rscale>
<asrwt>0</asrwt>
<pdfrwt beam="1">  1        2 0.21892363E+00 0.93682572E+03</pdfrwt>
<pdfrwt beam="2">  1       -2 0.23721288E-01 0.93682572E+03</pdfrwt>
<totfact> 0.22153591E+02</totfact>
</mgrwt>
</event>
<event>
 5    0  0.5719562E-003  0.6323833E+03  0.7546771E-02  0.9840409E-01
         -2   -1    0    0    0  501 -0.00000000000E+00  0.00000000000E+00  0.12413421465E+03  0.12413421465E+03  0.00000000000E+00 0.  1.
          2   -1    0    0  502    0  0.00000000000E+00 -0.00000000000E+00 -0.80539562877E+03  0.80539562877E+03  0.00000000000E+00 0. -1.
         25    1    1    2    0    0 -0.19049785192E+03  0.65035734295E+02 -0.49191244801E+02  0.24199970431E+03  0.12500000000E+03 0.  0.
          2    1    1    2  502    0  0.11898196488E+03 -0.97029807869E+02 -0.56141656267E+03  0.58203096861E+03  0.00000000000E+00 0. -1.
         -2    1    1    2    0  501  0.71515887044E+02  0.31994073574E+02 -0.70653606647E+02  0.10549917050E+03  0.00000000000E+00 0.  1.
<mgrwt>
<rscale>  4 0.63238328E+03</rscale>
<asrwt>0</asrwt>
<pdfrwt beam="1">  1        2 0.12390702E+00 0.63238328E+03</pdfrwt>
<pdfrwt beam="2">  1       -2 0.19097571E-01 0.63238328E+03</pdfrwt>
<totfact> 0.79443533E+02</totfact>
</mgrwt>
</event>
<event>
 5    0  0.5719562E-003  0.4733452E+03  0.7546771E-02  0.1020980E+00
          2   -1    0    0  502    0  0.00000000000E+00  0.00000000000E+00  0.13257779582E+04  0.13257779582E+04  0.00000000000E+00 0. -1.
         -2   -1    0    0    0  501 -0.00000000000E+00 -0.00000000000E+00 -0.42249843138E+02  0.42249843138E+02  0.00000000000E+00 0.  1.
         25    1    1    2    0    0  0.20893541217E+03  0.25164392726E+01  0.68461682538E+03  0.72662613256E+03  0.12500000000E+03 0.  0.
          3    1    1    2  502    0 -0.18171155527E+03  0.14728335276E+02  0.39602887836E+03  0.43597578565E+03  0.00000000000E+00 0.  1.
         -3    1    1    2    0  501 -0.27223856905E+02 -0.17244774548E+02  0.20288241130E+03  0.20542588310E+03  0.00000000000E+00 0. -1.
<mgrwt>
<rscale>  4 0.47334516E+03</rscale>
<asrwt>0</asrwt>
<pdfrwt beam="1">  1        2 0.20396581E+00 0.47334516E+03</pdfrwt>
<pdfrwt beam="2">  1       -2 0.64999769E-02 0.47334516E+03</pdfrwt>
<totfact> 0.22153032E+03</totfact>
</mgrwt>
</event>
<event>
 5    0  0.5719562E-003  0.4866911E+03  0.7546771E-02  0.1017312E+00
          1   -1    0    0  502    0  0.00000000000E+00  0.00000000000E+00  0.17861200640E+04  0.17861200640E+04  0.00000000000E+00 0.  1.
         -1   -1    0    0    0  501 -0.00000000000E+00 -0.00000000000E+00 -0.33154011862E+02  0.33154011862E+02  0.00000000000E+00 0. -1.
         25    1    1    2    0    0  0.12249746407E+03 -0.17004969783E+03  0.12306720915E+04  0.12546319481E+04  0.12500000000E+03 0.  0.
          2    1    1    2  502    0 -0.54354955708E+02  0.94040270496E+02  0.32214019217E+03  0.33995931683E+03  0.00000000000E+00 0. -1.
         -2    1    1    2    0  501 -0.68142508364E+02  0.76009427333E+02  0.20015376844E+03  0.22468281089E+03  0.00000000000E+00 0.  1.
<mgrwt>
<rscale>  4 0.48669106E+03</rscale>
<asrwt>0</asrwt>
<pdfrwt beam="1">  1        1 0.27478763E+00 0.48669106E+03</pdfrwt>
<pdfrwt beam="2">  1       -1 0.51006186E-02 0.48669106E+03</pdfrwt>
<totfact> 0.77958337E+02</totfact>
</mgrwt>
</event>
<event>
 5    0  0.5719562E-003  0.1072168E+04  0.7546771E-02  0.9232751E-01
          2   -1    0    0  502    0  0.00000000000E+00  0.00000000000E+00  0.75978028076E+03  0.75978028076E+03  0.00000000000E+00 0.  1.
         -2   -1    0    0    0  501 -0.00000000000E+00 -0.00000000000E+00 -0.37824899420E+03  0.37824899420E+03  0.00000000000E+00 0. -1.
         25    1    1    2    0    0 -0.36387255875E+03 -0.30690946934E+02 -0.20814023083E+03  0.43851172040E+03  0.12500000000E+03 0.  0.
          4    1    1    2  502    0  0.16635971960E+03  0.19249623003E+00  0.18912644566E+03  0.25188172980E+03  0.00000000000E+00 0. -1.
         -4    1    1    2    0  501  0.19751283915E+03  0.30498450704E+02  0.40054507173E+03  0.44763582476E+03  0.00000000000E+00 0.  1.
<mgrwt>
<rscale>  4 0.10721681E+04</rscale>
<asrwt>0</asrwt>
<pdfrwt beam="1">  1        2 0.11688927E+00 0.10721681E+04</pdfrwt>
<pdfrwt beam="2">  1       -2 0.58192153E-01 0.10721681E+04</pdfrwt>
<totfact> 0.10133974E+02</totfact>
</mgrwt>
</event>
<event>
 5    0  0.5719562E-003  0.8927015E+03  0.7546771E-02  0.9434751E-01
         -1   -1    0    0    0  501 -0.00000000000E+00  0.00000000000E+00  0.72421355609E+03  0.72421355609E+03  0.00000000000E+00 0.  1.
          1   -1    0    0  502    0  0.00000000000E+00 -0.00000000000E+00 -0.27509703489E+03  0.27509703489E+03  0.00000000000E+00 0. -1.
         25    1    1    2    0    0  0.27857870308E+03  0.22714686560E+03  0.45516860942E+03  0.59330030790E+03  0.12500000000E+03 0.  0.
          4    1    1    2  502    0 -0.12612367647E+03 -0.11970992324E+03  0.90458739239E+02  0.19601130323E+03  0.00000000000E+00 0.  1.
         -4    1    1    2    0  501 -0.15245502660E+03 -0.10743694236E+03 -0.96510827451E+02  0.20999897984E+03  0.00000000000E+00 0. -1.
<mgrwt>
<rscale>  4 0.89270152E+03</rscale>
<asrwt>0</asrwt>
<pdfrwt beam="1">  1        1 0.42322621E-01 0.89270152E+03</pdfrwt>
<pdfrwt beam="2">  1       -1 0.11141747E+00 0.89270152E+03</pdfrwt>
<totfact> 0.73323277E+01</totfact>
</mgrwt>
</event>
<event>
 5    0  0.5719562E-003  0.5425854E+03  0.7546771E-02  0.1003225E+00
         -2   -1    0    0    0  501 -0.00000000000E+00  0.00000000000E+00  0.21256945970E+03  0.21256945970E+03  0.00000000000E+00 0.  1.
          2   -1    0    0  502    0  0.00000000000E+00 -0.00000000000E+00 -0.34623849433E+03  0.34623849433E+03  0.00000000000E+00 0. -1.
         25    1    1    2    0    0 -0.22978421990E+03  0.82809260700E+02 -0.62104398625E+02  0.28131853423E+03  0.12500000000E+03 0.  0.
          2    1    1    2  502    0  0.19749297354E+03 -0.51116459145E+02 -0.96668923341E+02  0.22574598055E+03  0.00000000000E+00 0.  1.
         -2    1    1    2    0  501  0.32291246360E+02 -0.31692801554E+02  0.25104287342E+02  0.51743439244E+02  0.00000000000E+00 0. -1.
<mgrwt>
<rscale>  4 0.54258540E+03</rscale>
<asrwt>0</asrwt>
<pdfrwt beam="1">  1        2 0.53267461E-01 0.54258540E+03</pdfrwt>
<pdfrwt beam="2">  1       -2 0.32702994E-01 0.54258540E+03</pdfrwt>
<totfact> 0.81876854E+02</totfact>
</mgrwt>
</event>
<event>
 5    0  0.5719562E-003  0.5042456E+03  0.7546771E-02  0.1012677E+00
         -2   -1    0    0    0  501 -0.00000000000E+00  0.00000000000E+00  0.34384821208E+02  0.34384821208E+02  0.00000000000E+00 0.  1.
          2   -1    0    0  502    0  0.00000000000E+00 -0.00000000000E+00 -0.18486618533E+04  0.18486618533E+04  0.00000000000E+00 0. -1.
         25    1    1    2    0    0  0.18716516688E+03 -0.94309849380E+02 -0.13255423065E+04  0.13478177005E+04  0.12500000000E+03 0.  0.
          3    1    1    2  502    0 -0.78005926200E+02  0.50871113910E+02 -0.28752890403E+03  0.30223445436E+03  0.00000000000E+00 0. -1.
         -3    1    1    2    0  501 -0.10915924068E+03  0.43438735470E+02 -0.20120582156E+03  0.23299451966E+03  0.00000000000E+00 0.  1.
<mgrwt>
<rscale>  4 0.50424560E+03</rscale>
<asrwt>0</asrwt>
<pdfrwt beam="1">  1        2 0.28440953E+00 0.50424560E+03</pdfrwt>
<pdfrwt beam="2">  1       -2 0.52899723E-02 0.50424560E+03</pdfrwt>
<totfact> 0.15809877E+03</totfact>
</mgrwt>
</event>
<event>
 5    0  0.5719562E-003  0.5841299E+03  0.7546771E-02  0.9938890E-01
          2   -1    0    0  502    0  0.00000000000E+00  0.00000000000E+00  0.45304520554E+03  0.45304520554E+03  0.00000000000E+00 0.  1.
         -2   -1    0    0    0  501 -0.00000000000E+00 -0.00000000000E+00 -0.18828571331E+03  0.18828571331E+03  0.00000000000E+00 0. -1.
         25    1    1    2    0    0 -0.12106867846E+03  0.16179002593E+03  0.12530054847E+03  0.26862402134E+03  0.12500000000E+03 0.  0.
          3    1    1    2  502    0  0.19510175580E+03 -0.18401666828E+03  0.10375959301E+03  0.28756370157E+03  0.00000000000E+00 0. -1.
         -3    1    1    2    0  501 -0.74033077343E+02  0.22226642349E+02  0.35699350762E+02  0.85143195945E+02  0.00000000000E+00 0.  1.
<mgrwt>
<rscale>  4 0.58412992E+03</rscale>
<asrwt>0</asrwt>
<pdfrwt beam="1">  1        2 0.69699262E-01 0.58412992E+03</pdfrwt>
<pdfrwt beam="2">  1       -2 0.28967033E-01 0.58412992E+03</pdfrwt>
<totfact> 0.75890923E+02</totfact>
</mgrwt>
</event>
<event>
 5    0  0.5719562E-003  0.6538924E+03  0.7546771E-02  0.9799503E-01
         -1   -1    0    0    0  501 -0.00000000000E+00  0.00000000000E+00  0.32649880343E+03  0.32649880343E+03  0.00000000000E+00 0.  1.
          1   -1    0    0  502    0  0.00000000000E+00 -0.00000000000E+00 -0.32739419187E+03  0.32739419187E+03  0.00000000000E+00 0. -1.
         25    1    1    2    0    0 -0.20901028226E+03  0.71460514752E+02 -0.36792652002E+02  0.25645779867E+03  0.12500000000E+03 0.  0.
          1    1    1    2  502    0 -0.39524843743E+02  0.79212646033E+02 -0.39856015875E+02  0.97084285885E+02  0.00000000000E+00 0. -1.
         -1    1    1    2    0  501  0.24853512600E+03 -0.15067316079E+03  0.75753279438E+02  0.30035091074E+03  0.00000000000E+00 0.  1.
<mgrwt>
<rscale>  4 0.65389238E+03</rscale>
<asrwt>0</asrwt>
<pdfrwt beam="1">  1        1 0.50368337E-01 0.65389238E+03</pdfrwt>
<pdfrwt beam="2">  1       -1 0.50230585E-01 0.65389238E+03</pdfrwt>
<totfact> 0.31540470E+02</totfact>
</mgrwt>
</event>
<event>
 5    0  0.5719562E-003  0.6261794E+03  0.7546771E-02  0.9852533E-01
         -1   -1    0    0    0  501 -0.00000000000E+00  0.00000000000E+00  0.68277361489E+02  0.68277361489E+02  0.00000000000E+00 0.  1.
          1   -1    0    0  502    0  0.00000000000E+00 -0.00000000000E+00 -0.14356906792E+04  0.14356906792E+04  0.00000000000E+00 0. -1.
         25    1    1    2    0    0 -0.18983165415E+03  0.87580768080E+02 -0.56947538320E+03  0.61938167548E+03  0.12500000000E+03 0.  0.
          2    1    1    2  502    0  0.14515907481E+03 -0.15095421134E+03 -0.77635088193E+03  0.80410137594E+03  0.00000000000E+00 0. -1.
         -2    1    1    2    0  501  0.44672579334E+02  0.63373443261E+02 -0.21587052564E+02  0.80484989243E+02  0.00000000000E+00 0.  1.
<mgrwt>
<rscale>  4 0.62617944E+03</rscale>
<asrwt>0</asrwt>
<pdfrwt beam="1">  1        1 0.22087550E+00 0.62617944E+03</pdfrwt>
<pdfrwt beam="2">  1       -1 0.10504209E-01 0.62617944E+03</pdfrwt>
<totfact> 0.43330127E+02</totfact>
</mgrwt>
</event>
<event>
 5    0  0.5719562E-003  0.4951484E+03  0.7546771E-02  0.1015053E+00
          1   -1    0    0  502    0  0.00000000000E+00  0.00000000000E+00  0.61251950987E+03  0.61251950987E+03  0.00000000000E+00 0.  1.
         -1   -1    0    0    0  501 -0.00000000000E+00 -0.00000000000E+00 -0.10006700201E+03  0.10006700201E+03  0.00000000000E+00 0. -1.
         25    1    1    2    0    0 -0.31097104812E+02 -0.20749333213E+03  0.38016647906E+03  0.45185403020E+03  0.12500000000E+03 0.  0.
          3    1    1    2  502    0 -0.20298427960E+02  0.45234134011E+02  0.54245575644E+02  0.73489696790E+02  0.00000000000E+00 0.  1.
         -3    1    1    2    0  501  0.51395532772E+02  0.16225919812E+03  0.78040453163E+02  0.18724278489E+03  0.00000000000E+00 0. -1.
<mgrwt>
<rscale>  4 0.49514843E+03</rscale>
<asrwt>0</asrwt>
<pdfrwt beam="1">  1        1 0.94233768E-01 0.49514843E+03</pdfrwt>
<pdfrwt beam="2">  1       -1 0.15394924E-01 0.49514843E+03</pdfrwt>
<totfact> 0.10533678E+03</totfact>
</mgrwt>
</event>
<event>
 5    0  0.5719562E-003  0.1256452E+04  0.7546771E-02  0.9064831E-01
         -2   -1    0    0    0  501 -0.00000000000E+00  0.00000000000E+00  0.43016841792E+03  0.43016841792E+03  0.00000000000E+00 0.  1.
          2   -1    0    0  502    0  0.00000000000E+00 -0.00000000000E+00 -0.91747258554E+03  0.91747258554E+03  0.00000000000E+00 0. -1.
         25    1    1    2    0    0 -0.26061342502E+02 -0.42238496790E+03 -0.73362949885E+03  0.85611067991E+03  0.12500000000E+03 0.  0.
          4    1    1    2  502    0 -0.69991225031E+01  0.27452778849E+02  0.96737884841E+01  0.29937016652E+02  0.00000000000E+00 0. -1.
         -4    1    1    2    0  501  0.33060465005E+02  0.39493218905E+03  0.23665154275E+03  0.46159330690E+03  0.00000000000E+00 0.  1.
<mgrwt>
<rscale>  4 0.12564517E+04</rscale>
<asrwt>0</asrwt>
<pdfrwt beam="1">  1        2 0.14114963E+00 0.12564517E+04</pdfrwt>
<pdfrwt beam="2">  1       -2 0.66179757E-01 0.12564517E+04</pdfrwt>
<totfact> 0.58932258E+01</totfact>
</mgrwt>
</event>
<event>
 5    0  0.5719562E-003  0.5377314E+03  0.7546771E-02  0.1004374E+00
          2   -1    0    0  502    0  0.00000000000E+00  0.00000000000E+00  0.63146256266E+03  0.63146256266E+03  0.00000000000E+00 0.  1.
         -2   -1    0    0    0  501 -0.00000000000E+00 -0.00000000000E+00 -0.11447829714E+03  0.11447829714E+03  0.00000000000E+00 0. -1.
         25    1    1    2    0    0 -0.26521294706E+02 -0.24122134269E+03  0.32810227472E+03  0.42681051758E+03  0.12500000000E+03 0.  0.
          2    1    1    2  502    0  0.51544835915E+02  0.19184265812E+03  0.12546430161E+03  0.23495056195E+03  0.00000000000E+00 0. -1.
         -2    1    1    2    0  501 -0.25023541210E+02  0.49378684572E+02  0.63417689190E+02  0.84179780273E+02  0.00000000000E+00 0.  1.
<mgrwt>
<rscale>  4 0.53773138E+03</rscale>
<asrwt>0</asrwt>
<pdfrwt beam="1">  1        2 0.97148084E-01 0.53773138E+03</pdfrwt>
<pdfrwt beam="2">  1       -2 0.17612046E-01 0.53773138E+03</pdfrwt>
<totfact> 0.12434791E+03</totfact>
</mgrwt>
</event>
<event>
 5    0  0.5719562E-003  0.5955346E+03  0.7546771E-02  0.9914714E-01
          2   -1    0    0  502    0  0.00000000000E+00  0.00000000000E+00  0.28731321352E+03  0.28731321352E+03  0.00000000000E+00 0. -1.
         -2   -1    0    0    0  501 -0.00000000000E+00 -0.00000000000E+00 -0.30860174297E+03  0.30860174297E+03  0.00000000000E+00 0.  1.
         25    1    1    2    0    0  0.66592363004E+02 -0.23865398134E+03 -0.14071674074E+03  0.31115344566E+03  0.12500000000E+03 0.  0.
          1    1    1    2  502    0 -0.70441829014E+02  0.11751981098E+03  0.56547632672E+02  0.14822480227E+03  0.00000000000E+00 0. -1.
         -1    1    1    2    0  501  0.38494660106E+01  0.12113417035E+03  0.62880578619E+02  0.13653670856E+03  0.00000000000E+00 0.  1.
<mgrwt>
<rscale>  4 0.59553458E+03</rscale>
<asrwt>0</asrwt>
<pdfrwt beam="1">  1        2 0.44202033E-01 0.59553458E+03</pdfrwt>
<pdfrwt beam="2">  1       -2 0.47477191E-01 0.59553458E+03</pdfrwt>
<totfact> 0.48851612E+02</totfact>
</mgrwt>
</event>
<event>
 5    0  0.5719562E-003  0.7984086E+03  0.7546771E-02  0.9562323E-01
          2   -1    0    0  502    0  0.00000000000E+00  0.00000000000E+00  0.15940700839E+04  0.15940700839E+04  0.00000000000E+00 0. -1.
         -2   -1    0    0    0  501 -0.00000000000E+00 -0.00000000000E+00 -0.99973066156E+02  0.99973066156E+02  0.00000000000E+00 0.  1.
         25    1    1    2    0    0 -0.29200421818E+03  0.23983193347E+03  0.68742395719E+03  0.79433149042E+03  0.12500000000E+03 0.  0.
          2    1    1    2  502    0  0.25117731986E+03 -0.25148990039E+03  0.73432292680E+03  0.81582312840E+03  0.00000000000E+00 0.  1.
         -2    1    1    2    0  501  0.40826898324E+02  0.11657966926E+02  0.72350133777E+02  0.83888531261E+02  0.00000000000E+00 0. -1.
<mgrwt>
<rscale>  4 0.79840860E+03</rscale>
<asrwt>0</asrwt>
<pdfrwt beam="1">  1        2 0.24524153E+00 0.79840860E+03</pdfrwt>
<pdfrwt beam="2">  1       -2 0.15380473E-01 0.79840860E+03</pdfrwt>
<totfact> 0.38164091E+02</totfact>
</mgrwt>
</event>
<event>
 5    0  0.5719562E-003  0.7000861E+03  0.7546771E-02  0.9717085E-01
          1   -1    0    0  502    0  0.00000000000E+00  0.00000000000E+00  0.32078557007E+03  0.32078557007E+03  0.00000000000E+00 0. -1.
         -1   -1    0    0    0  501 -0.00000000000E+00 -0.00000000000E+00 -0.38196900066E+03  0.38196900066E+03  0.00000000000E+00 0.  1.
         25    1    1    2    0    0 -0.24482103631E+03 -0.17900754704E+03  0.63278988126E+02  0.33408123571E+03  0.12500000000E+03 0.  0.
          3    1    1    2  502    0  0.62216202110E+02  0.17453612642E+02 -0.10602633360E+03  0.12416548561E+03  0.00000000000E+00 0.  1.
         -3    1    1    2    0  501  0.18260483420E+03  0.16155393439E+03 -0.18436085114E+02  0.24450784942E+03  0.00000000000E+00 0. -1.
<mgrwt>
<rscale>  4 0.70008612E+03</rscale>
<asrwt>0</asrwt>
<pdfrwt beam="1">  1        1 0.49351626E-01 0.70008612E+03</pdfrwt>
<pdfrwt beam="2">  1       -1 0.58764462E-01 0.70008612E+03</pdfrwt>
<totfact> 0.23905701E+02</totfact>
</mgrwt>
</event>
<event>
 5    0  0.5719562E-003  0.6799396E+03  0.7546771E-02  0.9752167E-01
         -2   -1    0    0    0  501 -0.00000000000E+00  0.00000000000E+00  0.89482641827E+02  0.89482641827E+02  0.00000000000E+00 0.  1.
          2   -1    0    0  502    0  0.00000000000E+00 -0.00000000000E+00 -0.12916412313E+04  0.12916412313E+04  0.00000000000E+00 0. -1.
         25    1    1    2    0    0 -0.13388999416E+03 -0.28825598182E+03 -0.49918945526E+03  0.60484142867E+03  0.12500000000E+03 0.  0.
          2    1    1    2  502    0  0.10739547494E+03  0.28141199347E+03 -0.62862898450E+03  0.69706592103E+03  0.00000000000E+00 0. -1.
         -2    1    1    2    0  501  0.26494519220E+02  0.68439883508E+01 -0.74340149733E+02  0.79216523450E+02  0.00000000000E+00 0.  1.
<mgrwt>
<rscale>  4 0.67993961E+03</rscale>
<asrwt>0</asrwt>
<pdfrwt beam="1">  1        2 0.19871402E+00 0.67993961E+03</pdfrwt>
<pdfrwt beam="2">  1       -2 0.13766561E-01 0.67993961E+03</pdfrwt>
<totfact> 0.68475839E+02</totfact>
</mgrwt>
</event>
<event>
 5    0  0.5719562E-003  0.5009229E+03  0.7546771E-02  0.1013538E+00
         -2   -1    0    0    0  501 -0.00000000000E+00  0.00000000000E+00  0.45528947405E+02  0.45528947405E+02  0.00000000000E+00 0.  1.
          2   -1    0    0  502    0  0.00000000000E+00 -0.00000000000E+00 -0.13778250839E+04  0.13778250839E+04  0.00000000000E+00 0. -1.
         25    1    1    2    0    0  0.82048971104E+02 -0.19764214440E+03 -0.72814742921E+03  0.76916716621E+03  0.12500000000E+03 0.  0.
          2    1    1    2  502    0  0.25563405514E+02  0.43904401873E+02 -0.23084572517E+03  0.23637011874E+03  0.00000000000E+00 0. -1.
         -2    1    1    2    0  501 -0.10761237662E+03  0.15373774253E+03 -0.37330298209E+03  0.41781674633E+03  0.00000000000E+00 0.  1.
<mgrwt>
<rscale>  4 0.50092285E+03</rscale>
<asrwt>0</asrwt>
<pdfrwt beam="1">  1        2 0.21197311E+00 0.50092285E+03</pdfrwt>
<pdfrwt beam="2">  1       -2 0.70044527E-02 0.50092285E+03</pdfrwt>
<totfact> 0.18406724E+03</totfact>
</mgrwt>
</event>
<event>
 5    0  0.5719562E-003  0.5298943E+03  0.7546771E-02  0.1006258E+00
          2   -1    0    0  502    0  0.00000000000E+00  0.00000000000E+00  0.25228115784E+04  0.25228115784E+04  0.00000000000E+00 0. -1.
         -2   -1    0    0    0  501 -0.00000000000E+00 -0.00000000000E+00 -0.27824909001E+02  0.27824909001E+02  0.00000000000E+00 0.  1.
         25    1    1    2    0    0 -0.12397763660E+03 -0.17529706261E+03  0.15364171531E+04  0.15563746923E+04  0.12500000000E+03 0.  0.
          4    1    1    2  502    0  0.66653989206E+02  0.25343592377E+02  0.11322948528E+03  0.13381318428E+03  0.00000000000E+00 0.  1.
         -4    1    1    2    0  501  0.57323647396E+02  0.14995347024E+03  0.84534003110E+03  0.86044861088E+03  0.00000000000E+00 0. -1.
<mgrwt>
<rscale>  4 0.52989434E+03</rscale>
<asrwt>0</asrwt>
<pdfrwt beam="1">  1        2 0.38812468E+00 0.52989434E+03</pdfrwt>
<pdfrwt beam="2">  1       -2 0.42807572E-02 0.52989434E+03</pdfrwt>
<totfact> 0.93750523E+02</totfact>
</mgrwt>
</event>
<event>
 5    0  0.5719562E-003  0.6610522E+03  0.7546771E-02  0.9786259E-01
          2   -1    0    0  502    0  0.00000000000E+00  0.00000000000E+00  0.11528075798E+04  0.11528075798E+04  0.00000000000E+00 0.  1.
         -2   -1    0    0    0  501 -0.00000000000E+00 -0.00000000000E+00 -0.94766474527E+02  0.94766474527E+02  0.00000000000E+00 0. -1.
         25    1    1    2    0    0  0.47757004164E+02  0.23250837824E+03  0.42064099690E+03  0.49890352341E+03  0.12500000000E+03 0.  0.
          2    1    1    2  502    0  0.22743407019E+02 -0.74636324558E+02  0.54893841360E+03  0.55445579214E+03  0.00000000000E+00 0.  1.
         -2    1    1    2    0  501 -0.70500411183E+02 -0.15787205369E+03  0.88461694749E+02  0.19421473876E+03  0.00000000000E+00 0. -1.
<mgrwt>
<rscale>  4 0.66105222E+03</rscale>
<asrwt>0</asrwt>
<pdfrwt beam="1">  1        2 0.17735500E+00 0.66105222E+03</pdfrwt>
<pdfrwt beam="2">  1       -2 0.14579458E-01 0.66105222E+03</pdfrwt>
<totfact> 0.75066554E+02</totfact>
</mgrwt>
</event>
<event>
 5    0  0.5719562E-003  0.4755212E+03  0.7546771E-02  0.1020373E+00
         -1   -1    0    0    0  501 -0.00000000000E+00  0.00000000000E+00  0.55322747596E+02  0.55322747596E+02  0.00000000000E+00 0. -1.
          1   -1    0    0  502    0  0.00000000000E+00 -0.00000000000E+00 -0.10218238187E+04  0.10218238187E+04  0.00000000000E+00 0.  1.
         25    1    1    2    0    0 -0.20826381211E+03  0.14887758581E+02 -0.39744964477E+03  0.46603291828E+03  0.12500000000E+03 0.  0.
          4    1    1    2  502    0  0.73504276527E+02 -0.42119996789E+02 -0.19553949883E+03  0.21310248333E+03  0.00000000000E+00 0. -1.
         -4    1    1    2    0  501  0.13475953559E+03  0.27232238209E+02 -0.37351192746E+03  0.39801116465E+03  0.00000000000E+00 0.  1.
<mgrwt>
<rscale>  4 0.47552119E+03</rscale>
<asrwt>0</asrwt>
<pdfrwt beam="1">  1        1 0.15720367E+00 0.47552119E+03</pdfrwt>
<pdfrwt beam="2">  1       -1 0.85111918E-02 0.47552119E+03</pdfrwt>
<totfact> 0.12006250E+03</totfact>
</mgrwt>
</event>
<event>
 5    0  0.5719562E-003  0.6884223E+03  0.7546771E-02  0.9737239E-01
         -2   -1    0    0    0  501 -0.00000000000E+00  0.00000000000E+00  0.10014676621E+03  0.10014676621E+03  0.00000000000E+00 0.  1.
          2   -1    0    0  502    0  0.00000000000E+00 -0.00000000000E+00 -0.11830767412E+04  0.11830767412E+04  0.00000000000E+00 0. -1.
         25    1    1    2    0    0 -0.16714676538E+03 -0.23700537334E+03 -0.75442791737E+03  0.81786066703E+03  0.12500000000E+03 0.  0.
          2    1    1    2  502    0  0.19302183578E+03  0.16806827391E+03 -0.25177153597E+03  0.35901710281E+03  0.00000000000E+00 0. -1.
         -2    1    1    2    0  501 -0.25875070404E+02  0.68937099430E+02 -0.76730521633E+02  0.10634573756E+03  0.00000000000E+00 0.  1.
<mgrwt>
<rscale>  4 0.68842228E+03</rscale>
<asrwt>0</asrwt>
<pdfrwt beam="1">  1        2 0.18201181E+00 0.68842228E+03</pdfrwt>
<pdfrwt beam="2">  1       -2 0.15407195E-01 0.68842228E+03</pdfrwt>
<totfact> 0.65532060E+02</totfact>
</mgrwt>
</event>
<event>
 5    0  0.5719562E-003  0.5359353E+03  0.7546771E-02  0.1004803E+00
         -2   -1    0    0    0  501 -0.00000000000E+00  0.00000000000E+00  0.30700799790E+02  0.30700799790E+02  0.00000000000E+00 0. -1.
          2   -1    0    0  502    0  0.00000000000E+00 -0.00000000000E+00 -0.23389183481E+04  0.23389183481E+04  0.00000000000E+00 0.  1.
         25    1    1    2    0    0  0.17455257481E+03 -0.14963813377E+03 -0.15471074863E+04  0.15690846843E+04  0.12500000000E+03 0.  0.
          2    1    1    2  502    0 -0.11426426943E+03  0.51434707187E+02 -0.29739071517E+03  0.32271208505E+03  0.00000000000E+00 0. -1.
         -2    1    1    2    0  501 -0.60288305383E+02  0.98203426587E+02 -0.46371934683E+03  0.47782237849E+03  0.00000000000E+00 0.  1.
<mgrwt>
<rscale>  4 0.53593531E+03</rscale>
<asrwt>0</asrwt>
<pdfrwt beam="1">  1        2 0.35983361E+00 0.53593531E+03</pdfrwt>
<pdfrwt beam="2">  1       -2 0.47231997E-02 0.53593531E+03</pdfrwt>
<totfact> 0.10193680E+03</totfact>
</mgrwt>
</event>
<event>
 5    0  0.5719562E-003  0.6729585E+03  0.7546771E-02  0.9764628E-01
          2   -1    0    0  502    0  0.00000000000E+00  0.00000000000E+00  0.12170341246E+03  0.12170341246E+03  0.00000000000E+00 0.  1.
         -2   -1    0    0    0  501 -0.00000000000E+00 -0.00000000000E+00 -0.93028019097E+03  0.93028019097E+03  0.00000000000E+00 0. -1.
         25    1    1    2    0    0  0.21203063511E+03 -0.11673308376E+03 -0.65186924117E+03  0.70649990138E+03  0.12500000000E+03 0.  0.
          4    1    1    2  502    0  0.29149530605E+02  0.21376813770E+02 -0.57277515566E+02  0.67730178583E+02  0.00000000000E+00 0. -1.
         -4    1    1    2    0  501 -0.24118016572E+03  0.95356269994E+02 -0.99430021774E+02  0.27775352346E+03  0.00000000000E+00 0.  1.
<mgrwt>
<rscale>  4 0.67295846E+03</rscale>
<asrwt>0</asrwt>
<pdfrwt beam="1">  1        2 0.18723602E-01 0.67295846E+03</pdfrwt>
<pdfrwt beam="2">  1       -2 0.14312003E+00 0.67295846E+03</pdfrwt>
<totfact> 0.10557388E+02</totfact>
</mgrwt>
</event>
<event>
 5    0  0.5719562E-003  0.5147373E+03  0.7546771E-02  0.1010002E+00
         -1   -1    0    0    0  501 -0.00000000000E+00  0.00000000000E+00  0.25939273019E+03  0.25939273019E+03  0.00000000000E+00 0. -1.
          1   -1    0    0  502    0  0.00000000000E+00 -0.00000000000E+00 -0.25536033186E+03  0.25536033186E+03  0.00000000000E+00 0.  1.
         25    1    1    2    0    0  0.19097677862E+03 -0.75142693978E+02  0.12204082147E+03  0.26951348118E+03  0.12500000000E+03 0.  0.
          1    1    1    2  502    0 -0.14671968004E+03  0.37930199257E+02 -0.10911038199E+03  0.18673628460E+03  0.00000000000E+00 0.  1.
         -1    1    1    2    0  501 -0.44257098580E+02  0.37212494721E+02 -0.88980411588E+01  0.58503296271E+02  0.00000000000E+00 0. -1.
<mgrwt>
<rscale>  4 0.51473727E+03</rscale>
<asrwt>0</asrwt>
<pdfrwt beam="1">  1        1 0.39286205E-01 0.51473727E+03</pdfrwt>
<pdfrwt beam="2">  1       -1 0.39906574E-01 0.51473727E+03</pdfrwt>
<totfact> 0.66697980E+02</totfact>
</mgrwt>
</event>
<event>
 5    0  0.5719562E-003  0.5536636E+03  0.7546771E-02  0.1000649E+00
         -1   -1    0    0    0  501 -0.00000000000E+00  0.00000000000E+00  0.23582218013E+03  0.23582218013E+03  0.00000000000E+00 0. -1.
          1   -1    0    0  502    0  0.00000000000E+00 -0.00000000000E+00 -0.32497307478E+03  0.32497307478E+03  0.00000000000E+00 0.  1.
         25    1    1    2    0    0 -0.24811031465E+01 -0.20781291018E+03 -0.17309737401E+03  0.29795983353E+03  0.12500000000E+03 0.  0.
          1    1    1    2  502    0 -0.19175666087E+02  0.18120270080E+03  0.11382943798E+02  0.18256970274E+03  0.00000000000E+00 0.  1.
         -1    1    1    2    0  501  0.21656769233E+02  0.26610209374E+02  0.72563535560E+02  0.80265718645E+02  0.00000000000E+00 0. -1.
<mgrwt>
<rscale>  4 0.55366365E+03</rscale>
<asrwt>0</asrwt>
<pdfrwt beam="1">  1        1 0.49995857E-01 0.55366365E+03</pdfrwt>
<pdfrwt beam="2">  1       -1 0.36280336E-01 0.55366365E+03</pdfrwt>
<totfact> 0.57988124E+02</totfact>
</mgrwt>
</event>
<event>
 5    0  0.5719562E-003  0.6908711E+03  0.7546771E-02  0.9732972E-01
          3   -1    0    0  502    0  0.00000000000E+00  0.00000000000E+00  0.12610905904E+03  0.12610905904E+03  0.00000000000E+00 0. -1.
         -3   -1    0    0    0  501 -0.00000000000E+00 -0.00000000000E+00 -0.94621064137E+03  0.94621064137E+03  0.00000000000E+00 0.  1.
         25    1    1    2    0    0 -0.20160763127E+03 -0.24839139755E+02 -0.68328755282E+03  0.72371921329E+03  0.12500000000E+03 0.  0.
          1    1    1    2  502    0  0.14426026832E+03  0.10127367141E+03 -0.17247505196E+03  0.24660702562E+03  0.00000000000E+00 0.  1.
         -1    1    1    2    0  501  0.57347362946E+02 -0.76434531654E+02  0.35661022449E+02  0.10199346150E+03  0.00000000000E+00 0. -1.
<mgrwt>
<rscale>  4 0.69087114E+03</rscale>
<asrwt>0</asrwt>
<pdfrwt beam="1">  1        3 0.19401394E-01 0.69087114E+03</pdfrwt>
<pdfrwt beam="2">  1       -3 0.14557087E+00 0.69087114E+03</pdfrwt>
<totfact> 0.22324116E+01</totfact>
</mgrwt>
</event>
<event>
 5    0  0.5719562E-003  0.5230560E+03  0.7546771E-02  0.1007930E+00
         -2   -1    0    0    0  501 -0.00000000000E+00  0.00000000000E+00  0.13356589686E+03  0.13356589686E+03  0.00000000000E+00 0.  1.
          2   -1    0    0  502    0  0.00000000000E+00 -0.00000000000E+00 -0.51208356366E+03  0.51208356366E+03  0.00000000000E+00 0. -1.
         25    1    1    2    0    0  0.20487979643E+03  0.19111457008E+02 -0.18489474913E+03  0.30356555640E+03  0.12500000000E+03 0.  0.
          3    1    1    2  502    0 -0.14300079946E+03  0.80977132762E+02 -0.11186341455E+03  0.19879624793E+03  0.00000000000E+00 0.  1.
         -3    1    1    2    0  501 -0.61878996973E+02 -0.10008858977E+03 -0.81759503120E+02  0.14328765620E+03  0.00000000000E+00 0. -1.
<mgrwt>
<rscale>  4 0.52305602E+03</rscale>
<asrwt>0</asrwt>
<pdfrwt beam="1">  1        2 0.78782088E-01 0.52305602E+03</pdfrwt>
<pdfrwt beam="2">  1       -2 0.20548599E-01 0.52305602E+03</pdfrwt>
<totfact> 0.12198632E+03</totfact>
</mgrwt>
</event>
<event>
 5    0  0.5719562E-003  0.4790794E+03  0.7546771E-02  0.1019388E+00
          2   -1    0    0  502    0  0.00000000000E+00  0.00000000000E+00  0.54766488178E+03  0.54766488178E+03  0.00000000000E+00 0. -1.
         -2   -1    0    0    0  501 -0.00000000000E+00 -0.00000000000E+00 -0.10477078302E+03  0.10477078302E+03  0.00000000000E+00 0.  1.
         25    1    1    2    0    0 -0.11578032135E+03  0.17665095716E+03  0.20421038879E+03  0.31927656721E+03  0.12500000000E+03 0.  0.
          2    1    1    2  502    0  0.68562515259E+02 -0.30659452071E+02  0.51222035021E+02  0.90909390998E+02  0.00000000000E+00 0.  1.
         -2    1    1    2    0  501  0.47217806093E+02 -0.14599150509E+03  0.18746167494E+03  0.24224970659E+03  0.00000000000E+00 0. -1.
<mgrwt>
<rscale>  4 0.47907944E+03</rscale>
<asrwt>0</asrwt>
<pdfrwt beam="1">  1        2 0.84256134E-01 0.47907944E+03</pdfrwt>
<pdfrwt beam="2">  1       -2 0.16118582E-01 0.47907944E+03</pdfrwt>
<totfact> 0.17116361E+03</totfact>
</mgrwt>
</event>
<event>
 5    0  0.5719562E-003  0.5490882E+03  0.7546771E-02  0.1001705E+00
         -2   -1    0    0    0  501 -0.00000000000E+00  0.00000000000E+00  0.58321461200E+02  0.58321461200E+02  0.00000000000E+00 0.  1.
          2   -1    0    0  502    0  0.00000000000E+00 -0.00000000000E+00 -0.12923968757E+04  0.12923968757E+04  0.00000000000E+00 0. -1.
         25    1    1    2    0    0  0.88999295268E+02  0.23932622479E+03 -0.55858811482E+03  0.62677236573E+03  0.12500000000E+03 0.  0.
          3    1    1    2  502    0 -0.61725205964E+02 -0.20510956135E+03 -0.59423405763E+03  0.63165975687E+03  0.00000000000E+00 0. -1.
         -3    1    1    2    0  501 -0.27274089304E+02 -0.34216663440E+02 -0.81253242029E+02  0.92286214271E+02  0.00000000000E+00 0.  1.
<mgrwt>
<rscale>  4 0.54908824E+03</rscale>
<asrwt>0</asrwt>
<pdfrwt beam="1">  1        2 0.19883030E+00 0.54908824E+03</pdfrwt>
<pdfrwt beam="2">  1       -2 0.89725321E-02 0.54908824E+03</pdfrwt>
<totfact> 0.13859289E+03</totfact>
</mgrwt>
</event>
<event>
 5    0  0.5719562E-003  0.7404976E+03  0.7546771E-02  0.9650377E-01
         -1   -1    0    0    0  501 -0.00000000000E+00  0.00000000000E+00  0.35370860688E+03  0.35370860688E+03  0.00000000000E+00 0.  1.
          1   -1    0    0  502    0  0.00000000000E+00 -0.00000000000E+00 -0.38756247086E+03  0.38756247086E+03  0.00000000000E+00 0. -1.
         25    1    1    2    0    0 -0.15726557231E+03  0.21558611608E+03  0.13634947902E+02  0.29499278887E+03  0.12500000000E+03 0.  0.
          4    1    1    2  502    0  0.10037990043E+03 -0.79354280792E+02 -0.19780780339E+03  0.23558682767E+03  0.00000000000E+00 0. -1.
         -4    1    1    2    0  501  0.56885671878E+02 -0.13623183529E+03  0.15031899151E+03  0.21069146120E+03  0.00000000000E+00 0.  1.
<mgrwt>
<rscale>  4 0.74049762E+03</rscale>
<asrwt>0</asrwt>
<pdfrwt beam="1">  1        1 0.59624995E-01 0.74049762E+03</pdfrwt>
<pdfrwt beam="2">  1       -1 0.54416709E-01 0.74049762E+03</pdfrwt>
<totfact> 0.21629680E+02</totfact>
</mgrwt>
</event>
<event>
 5    0  0.5719562E-003  0.4597263E+03  0.7546771E-02  0.1024861E+00
          2   -1    0    0  502    0  0.00000000000E+00  0.00000000000E+00  0.27817600141E+04  0.27817600141E+04  0.00000000000E+00 0. -1.
         -2   -1    0    0    0  501 -0.00000000000E+00 -0.00000000000E+00 -0.18994116762E+02  0.18994116762E+02  0.00000000000E+00 0.  1.
         25    1    1    2    0    0 -0.15853218106E+03 -0.13781879190E+03  0.16032904730E+04  0.16218174412E+04  0.12500000000E+03 0.  0.
          4    1    1    2  502    0  0.36874684784E+02  0.23775346649E+02  0.17361641226E+03  0.17907447638E+03  0.00000000000E+00 0.  1.
         -4    1    1    2    0  501  0.12165749628E+03  0.11404344525E+03  0.98585901202E+03  0.99986221320E+03  0.00000000000E+00 0. -1.
<mgrwt>
<rscale>  4 0.45972633E+03</rscale>
<asrwt>0</asrwt>
<pdfrwt beam="1">  1        2 0.42796276E+00 0.45972633E+03</pdfrwt>
<pdfrwt beam="2">  1       -2 0.29221740E-02 0.45972633E+03</pdfrwt>
<totfact> 0.12006179E+03</totfact>
</mgrwt>
</event>
<event>
 5    0  0.5719562E-003  0.6446306E+03  0.7546771E-02  0.9816907E-01
         -2   -1    0    0    0  501 -0.00000000000E+00  0.00000000000E+00  0.60238411493E+02  0.60238411493E+02  0.00000000000E+00 0.  1.
          2   -1    0    0  502    0  0.00000000000E+00 -0.00000000000E+00 -0.17245995886E+04  0.17245995886E+04  0.00000000000E+00 0. -1.
         25    1    1    2    0    0  0.18700416972E+03  0.82980861225E+02 -0.11462171680E+04  0.11710231334E+04  0.12500000000E+03 0.  0.
          3    1    1    2  502    0 -0.38954403051E+02 -0.79703388756E+02 -0.15814168016E+02  0.90111950407E+02  0.00000000000E+00 0.  1.
         -3    1    1    2    0  501 -0.14804976667E+03 -0.32774724690E+01 -0.50232984108E+03  0.52370291624E+03  0.00000000000E+00 0. -1.
<mgrwt>
<rscale>  4 0.64463056E+03</rscale>
<asrwt>0</asrwt>
<pdfrwt beam="1">  1        2 0.26532300E+00 0.64463056E+03</pdfrwt>
<pdfrwt beam="2">  1       -2 0.92674484E-02 0.64463056E+03</pdfrwt>
<totfact> 0.75490805E+02</totfact>
</mgrwt>
</event>
<event>
 5    0  0.5719562E-003  0.1155783E+04  0.7546771E-02  0.9152465E-01
         -1   -1    0    0    0  501 -0.00000000000E+00  0.00000000000E+00  0.39373399754E+03  0.39373399754E+03  0.00000000000E+00 0. -1.
          1   -1    0    0  502    0  0.00000000000E+00 -0.00000000000E+00 -0.84818389714E+03  0.84818389714E+03  0.00000000000E+00 0.  1.
         25    1    1    2    0    0 -0.20372045705E+03  0.47437104155E+02 -0.56900821586E+03  0.61898921896E+03  0.12500000000E+03 0.  0.
          2    1    1    2  502    0 -0.25101835946E+02  0.20384395307E+03  0.18434610143E+03  0.27598178288E+03  0.00000000000E+00 0. -1.
         -2    1    1    2    0  501  0.22882229300E+03 -0.25128105722E+03 -0.69787785162E+02  0.34694689284E+03  0.00000000000E+00 0.  1.
<mgrwt>
<rscale>  4 0.11557834E+04</rscale>
<asrwt>0</asrwt>
<pdfrwt beam="1">  1        1 0.13048983E+00 0.11557834E+04</pdfrwt>
<pdfrwt beam="2">  1       -1 0.60574461E-01 0.11557834E+04</pdfrwt>
<totfact> 0.55150990E+01</totfact>
</mgrwt>
</event>
<event>
 5    0  0.5719562E-003  0.7048058E+03  0.7546771E-02  0.9709049E-01
          2   -1    0    0  502    0  0.00000000000E+00  0.00000000000E+00  0.19831573185E+04  0.19831573185E+04  0.00000000000E+00 0.  1.
         -2   -1    0    0    0  501 -0.00000000000E+00 -0.00000000000E+00 -0.62621259446E+02  0.62621259446E+02  0.00000000000E+00 0. -1.
         25    1    1    2    0    0 -0.19600723460E+03  0.15122376613E+03  0.15942385366E+04  0.16181807609E+04  0.12500000000E+03 0.  0.
          2    1    1    2  502    0  0.19591605809E+03 -0.10016368425E+03  0.22817624958E+03  0.31698622420E+03  0.00000000000E+00 0. -1.
         -2    1    1    2    0  501  0.91176507636E-01 -0.51060081881E+02  0.98121272830E+02  0.11061159278E+03  0.00000000000E+00 0.  1.
<mgrwt>
<rscale>  4 0.70480581E+03</rscale>
<asrwt>0</asrwt>
<pdfrwt beam="1">  1        2 0.30510108E+00 0.70480581E+03</pdfrwt>
<pdfrwt beam="2">  1       -2 0.96340415E-02 0.70480581E+03</pdfrwt>
<totfact> 0.51101350E+02</totfact>
</mgrwt>
</event>
<event>
 5    0  0.5719562E-003  0.8491004E+03  0.7546771E-02  0.9491545E-01
          1   -1    0    0  502    0  0.00000000000E+00  0.00000000000E+00  0.42679812519E+03  0.42679812519E+03  0.00000000000E+00 0.  1.
         -1   -1    0    0    0  501 -0.00000000000E+00 -0.00000000000E+00 -0.42231414656E+03  0.42231414656E+03  0.00000000000E+00 0. -1.
         25    1    1    2    0    0  0.21305938096E+03 -0.25242687166E+03 -0.18343589046E+02  0.35365959991E+03  0.12500000000E+03 0.  0.
          4    1    1    2  502    0 -0.18255128119E+03  0.60050002638E+02 -0.14308207887E+03  0.23959018005E+03  0.00000000000E+00 0. -1.
         -4    1    1    2    0  501 -0.30508099766E+02  0.19237686902E+03  0.16590964655E+03  0.25586249179E+03  0.00000000000E+00 0.  1.
<mgrwt>
<rscale>  4 0.84910043E+03</rscale>
<asrwt>0</asrwt>
<pdfrwt beam="1">  1        1 0.65661250E-01 0.84910043E+03</pdfrwt>
<pdfrwt beam="2">  1       -1 0.64971407E-01 0.84910043E+03</pdfrwt>
<totfact> 0.13349093E+02</totfact>
</mgrwt>
</event>
<event>
 5    0  0.5719562E-003  0.5349981E+03  0.7546771E-02  0.1005027E+00
         -2   -1    0    0    0  501 -0.00000000000E+00  0.00000000000E+00  0.96252135652E+02  0.96252135652E+02  0.00000000000E+00 0. -1.
          2   -1    0    0  502    0  0.00000000000E+00 -0.00000000000E+00 -0.74341969397E+03  0.74341969397E+03  0.00000000000E+00 0.  1.
         25    1    1    2    0    0 -0.53564492933E+00  0.23924511139E+03 -0.43433517435E+03  0.51138102616E+03  0.12500000000E+03 0.  0.
          3    1    1    2  502    0  0.13605548068E+02 -0.16746952329E+03 -0.10511571532E+03  0.19819300133E+03  0.00000000000E+00 0. -1.
         -3    1    1    2    0  501 -0.13069903139E+02 -0.71775588093E+02 -0.10771666866E+03  0.13009780214E+03  0.00000000000E+00 0.  1.
<mgrwt>
<rscale>  4 0.53499807E+03</rscale>
<asrwt>0</asrwt>
<pdfrwt beam="1">  1        2 0.11437226E+00 0.53499807E+03</pdfrwt>
<pdfrwt beam="2">  1       -2 0.14808021E-01 0.53499807E+03</pdfrwt>
<totfact> 0.13624465E+03</totfact>
</mgrwt>
</event>
<event>
 5    0  0.5719562E-003  0.7059245E+03  0.7546771E-02  0.9707154E-01
          2   -1    0    0  502    0  0.00000000000E+00  0.00000000000E+00  0.51566591910E+03  0.51566591910E+03  0.00000000000E+00 0.  1.
         -2   -1    0    0    0  501 -0.00000000000E+00 -0.00000000000E+00 -0.24159506757E+03  0.24159506757E+03  0.00000000000E+00 0. -1.
         25    1    1    2    0    0 -0.30575009706E+03  0.55882661711E+02  0.96105110680E+00  0.33501032424E+03  0.12500000000E+03 0.  0.
          1    1    1    2  502    0  0.16855737625E+03 -0.89848864888E+01  0.19374879880E+03  0.25696481143E+03  0.00000000000E+00 0.  1.
         -1    1    1    2    0  501  0.13719272081E+03 -0.46897775222E+02  0.79361001613E+02  0.16528585100E+03  0.00000000000E+00 0. -1.
<mgrwt>
<rscale>  4 0.70592448E+03</rscale>
<asrwt>0</asrwt>
<pdfrwt beam="1">  1        2 0.79333218E-01 0.70592448E+03</pdfrwt>
<pdfrwt beam="2">  1       -2 0.37168472E-01 0.70592448E+03</pdfrwt>
<totfact> 0.40831757E+02</totfact>
</mgrwt>
</event>
<event>
 5    0  0.5719562E-003  0.5259622E+03  0.7546771E-02  0.1007216E+00
          2   -1    0    0  502    0  0.00000000000E+00  0.00000000000E+00  0.31879186392E+03  0.31879186392E+03  0.00000000000E+00 0. -1.
         -2   -1    0    0    0  501 -0.00000000000E+00 -0.00000000000E+00 -0.21694109804E+03  0.21694109804E+03  0.00000000000E+00 0.  1.
         25    1    1    2    0    0  0.21923519330E+03  0.54384763471E+02 -0.48051770292E+02  0.26259425948E+03  0.12500000000E+03 0.  0.
          1    1    1    2  502    0 -0.19524123962E+03 -0.46280374989E+02  0.11938735220E+03  0.23348309280E+03  0.00000000000E+00 0.  1.
         -1    1    1    2    0  501 -0.23993953683E+02 -0.81043884815E+01  0.30515183977E+02  0.39655609680E+02  0.00000000000E+00 0. -1.
<mgrwt>
<rscale>  4 0.52596219E+03</rscale>
<asrwt>0</asrwt>
<pdfrwt beam="1">  1        2 0.49044902E-01 0.52596219E+03</pdfrwt>
<pdfrwt beam="2">  1       -2 0.33375554E-01 0.52596219E+03</pdfrwt>
<totfact> 0.86342345E+02</totfact>
</mgrwt>
</event>
<event>
 5    0  0.5719562E-003  0.8633738E+03  0.7546771E-02  0.9472561E-01
         -1   -1    0    0    0  501 -0.00000000000E+00  0.00000000000E+00  0.81956971784E+03  0.81956971784E+03  0.00000000000E+00 0. -1.
          1   -1    0    0  502    0  0.00000000000E+00 -0.00000000000E+00 -0.22737979752E+03  0.22737979752E+03  0.00000000000E+00 0.  1.
         25    1    1    2    0    0 -0.25813989561E+03 -0.25976889452E+03  0.53448112698E+03  0.65985692341E+03  0.12500000000E+03 0.  0.
          1    1    1    2  502    0  0.43745204808E+02  0.71869328440E+02  0.57684194725E+02  0.10201132111E+03  0.00000000000E+00 0. -1.
         -1    1    1    2    0  501  0.21439469081E+03  0.18789956608E+03  0.24598615763E-01  0.28508127084E+03  0.00000000000E+00 0.  1.
<mgrwt>
<rscale>  4 0.86337384E+03</rscale>
<asrwt>0</asrwt>
<pdfrwt beam="1">  1        1 0.34981508E-01 0.86337384E+03</pdfrwt>
<pdfrwt beam="2">  1       -1 0.12608765E+00 0.86337384E+03</pdfrwt>
<totfact> 0.69628030E+01</totfact>
</mgrwt>
</event>
<event>
 5    0  0.5719562E-003  0.5980438E+03  0.7546771E-02  0.9909473E-01
          2   -1    0    0  502    0  0.00000000000E+00  0.00000000000E+00  0.31224915351E+04  0.31224915351E+04  0.00000000000E+00 0.  1.
         -2   -1    0    0    0  501 -0.00000000000E+00 -0.00000000000E+00 -0.28635495582E+02  0.28635495582E+02  0.00000000000E+00 0. -1.
         25    1    1    2    0    0  0.13596297568E+03 -0.22065077211E+03  0.20535757552E+04  0.20736371612E+04  0.12500000000E+03 0.  0.
          1    1    1    2  502    0 -0.64282877279E+02  0.81399252559E+02  0.62714796734E+03  0.63566712953E+03  0.00000000000E+00 0.  1.
         -1    1    1    2    0  501 -0.71680098400E+02  0.13925151955E+03  0.41313231702E+03  0.44182273999E+03  0.00000000000E+00 0. -1.
<mgrwt>
<rscale>  4 0.59804379E+03</rscale>
<asrwt>0</asrwt>
<pdfrwt beam="1">  1        2 0.48038304E+00 0.59804379E+03</pdfrwt>
<pdfrwt beam="2">  1       -2 0.44054633E-02 0.59804379E+03</pdfrwt>
<totfact> 0.39450524E+02</totfact>
</mgrwt>
</event>
<event>
 5    0  0.5719562E-003  0.5271229E+03  0.7546771E-02  0.1006932E+00
          4   -1    0    0  502    0  0.00000000000E+00  0.00000000000E+00  0.51332737364E+03  0.51332737364E+03  0.00000000000E+00 0. -1.
         -4   -1    0    0    0  501 -0.00000000000E+00 -0.00000000000E+00 -0.13532229574E+03  0.13532229574E+03  0.00000000000E+00 0.  1.
         25    1    1    2    0    0 -0.91382646603E+02 -0.19166286202E+03  0.35130439851E+03  0.42909814867E+03  0.12500000000E+03 0.  0.
          4    1    1    2  502    0  0.78781731572E+02  0.11760047933E+03  0.62360788808E+01  0.14168741175E+03  0.00000000000E+00 0.  1.
         -4    1    1    2    0  501  0.12600915031E+02  0.74062382688E+02  0.20464600500E+02  0.77864108950E+02  0.00000000000E+00 0. -1.
<mgrwt>
<rscale>  4 0.52712290E+03</rscale>
<asrwt>0</asrwt>
<pdfrwt beam="1">  1        4 0.78973441E-01 0.52712290E+03</pdfrwt>
<pdfrwt beam="2">  1       -4 0.20818815E-01 0.52712290E+03</pdfrwt>
<totfact> 0.59986842E+01</totfact>
</mgrwt>
</event>
<event>
 5    0  0.5719562E-003  0.9628501E+03  0.7546771E-02  0.9350256E-01
          2   -1    0    0  502    0  0.00000000000E+00  0.00000000000E+00  0.50203840085E+03  0.50203840085E+03  0.00000000000E+00 0.  1.
         -2   -1    0    0    0  501 -0.00000000000E+00 -0.00000000000E+00 -0.46165808480E+03  0.46165808480E+03  0.00000000000E+00 0. -1.
         25    1    1    2    0    0  0.35473919520E+03  0.25491376287E+03 -0.92715861925E+02  0.46372637855E+03  0.12500000000E+03 0.  0.
          4    1    1    2  502    0 -0.28065969553E+03 -0.12537975982E+03  0.11714384470E+02  0.30761530467E+03  0.00000000000E+00 0. -1.
         -4    1    1    2    0  501 -0.74079499676E+02 -0.12953400306E+03  0.12138179351E+03  0.19235480242E+03  0.00000000000E+00 0.  1.
<mgrwt>
<rscale>  4 0.96285012E+03</rscale>
<asrwt>0</asrwt>
<pdfrwt beam="1">  1        2 0.77236677E-01 0.96285012E+03</pdfrwt>
<pdfrwt beam="2">  1       -2 0.71024321E-01 0.96285012E+03</pdfrwt>
<totfact> 0.11048331E+02</totfact>
</mgrwt>
</event>
<event>
 5    0  0.5719562E-003  0.1111337E+04  0.7546771E-02  0.9194212E-01
          2   -1    0    0  502    0  0.00000000000E+00  0.00000000000E+00  0.18815925509E+04  0.18815925509E+04  0.00000000000E+00 0. -1.
         -2   -1    0    0    0  501 -0.00000000000E+00 -0.00000000000E+00 -0.16409893901E+03  0.16409893901E+03  0.00000000000E+00 0.  1.
         25    1    1    2    0    0  0.39254460308E+03  0.23247251094E+03  0.68184456073E+03  0.82986248183E+03  0.12500000000E+03 0.  0.
          4    1    1    2  502    0 -0.41890174145E+03 -0.24137751067E+03  0.56190392712E+03  0.74126769453E+03  0.00000000000E+00 0.  1.
         -4    1    1    2    0  501  0.26357138371E+02  0.89049997304E+01  0.47374512399E+03  0.47456131349E+03  0.00000000000E+00 0. -1.
<mgrwt>
<rscale>  4 0.11113367E+04</rscale>
<asrwt>0</asrwt>
<pdfrwt beam="1">  1        2 0.28947576E+00 0.11113367E+04</pdfrwt>
<pdfrwt beam="2">  1       -2 0.25245992E-01 0.11113367E+04</pdfrwt>
<totfact> 0.10882538E+02</totfact>
</mgrwt>
</event>
<event>
 5    0  0.5719562E-003  0.6229917E+03  0.7546771E-02  0.9858821E-01
          1   -1    0    0  502    0  0.00000000000E+00  0.00000000000E+00  0.27427258493E+03  0.27427258493E+03  0.00000000000E+00 0.  1.
         -1   -1    0    0    0  501 -0.00000000000E+00 -0.00000000000E+00 -0.35377095328E+03  0.35377095328E+03  0.00000000000E+00 0. -1.
         25    1    1    2    0    0  0.59062606521E+02  0.22980942077E+03  0.68351641698E+01  0.26827687346E+03  0.12500000000E+03 0.  0.
          3    1    1    2  502    0 -0.95624660810E+02 -0.22743787144E+03 -0.14823900249E+03  0.28783130994E+03  0.00000000000E+00 0. -1.
         -3    1    1    2    0  501  0.36562054289E+02 -0.23715493311E+01  0.61905469971E+02  0.71935354815E+02  0.00000000000E+00 0.  1.
<mgrwt>
<rscale>  4 0.62299173E+03</rscale>
<asrwt>0</asrwt>
<pdfrwt beam="1">  1        1 0.42195782E-01 0.62299173E+03</pdfrwt>
<pdfrwt beam="2">  1       -1 0.54426301E-01 0.62299173E+03</pdfrwt>
<totfact> 0.34070639E+02</totfact>
</mgrwt>
</event>
<event>
 5    0  0.5719562E-003  0.1523410E+04  0.7546771E-02  0.8869033E-01
          1   -1    0    0  502    0  0.00000000000E+00  0.00000000000E+00  0.80781095831E+03  0.80781095831E+03  0.00000000000E+00 0. -1.
         -1   -1    0    0    0  501 -0.00000000000E+00 -0.00000000000E+00 -0.71823069986E+03  0.71823069986E+03  0.00000000000E+00 0.  1.
         25    1    1    2    0    0 -0.49226050916E+03  0.40749203809E+02  0.59001555989E+03  0.77956671774E+03  0.12500000000E+03 0.  0.
          4    1    1    2  502    0  0.48819622669E+03 -0.93300159243E+01 -0.51665507252E+03  0.71088330190E+03  0.00000000000E+00 0.  1.
         -4    1    1    2    0  501  0.40642824690E+01 -0.31419187885E+02  0.16219771090E+02  0.35591638534E+02  0.00000000000E+00 0. -1.
<mgrwt>
<rscale>  4 0.15234102E+04</rscale>
<asrwt>0</asrwt>
<pdfrwt beam="1">  1        1 0.12427861E+00 0.15234102E+04</pdfrwt>
<pdfrwt beam="2">  1       -1 0.11049703E+00 0.15234102E+04</pdfrwt>
<totfact> 0.15873318E+01</totfact>
</mgrwt>
</event>
<event>
 5    0  0.5719562E-003  0.1125699E+04  0.7546771E-02  0.9180500E-01
          1   -1    0    0  502    0  0.00000000000E+00  0.00000000000E+00  0.70255687176E+03  0.70255687176E+03  0.00000000000E+00 0. -1.
         -1   -1    0    0    0  501 -0.00000000000E+00 -0.00000000000E+00 -0.45092346742E+03  0.45092346742E+03  0.00000000000E+00 0.  1.
         25    1    1    2    0    0 -0.26904489710E+03 -0.24099457677E+03 -0.30049605931E+03  0.48619587035E+03  0.12500000000E+03 0.  0.
          3    1    1    2  502    0  0.14901876671E+02  0.13481182257E+02  0.93953917826E+02  0.96078857603E+02  0.00000000000E+00 0.  1.
         -3    1    1    2    0  501  0.25414302043E+03  0.22751339451E+03  0.45817554581E+03  0.57120561122E+03  0.00000000000E+00 0. -1.
<mgrwt>
<rscale>  4 0.11256987E+04</rscale>
<asrwt>0</asrwt>
<pdfrwt beam="1">  1        1 0.10808567E+00 0.11256987E+04</pdfrwt>
<pdfrwt beam="2">  1       -1 0.69372842E-01 0.11256987E+04</pdfrwt>
<totfact> 0.56666930E+01</totfact>
</mgrwt>
</event>
<event>
 5    0  0.5719562E-003  0.5314954E+03  0.7546771E-02  0.1005870E+00
          1   -1    0    0  502    0  0.00000000000E+00  0.00000000000E+00  0.82432825651E+02  0.82432825651E+02  0.00000000000E+00 0. -1.
         -1   -1    0    0    0  501 -0.00000000000E+00 -0.00000000000E+00 -0.85671990551E+03  0.85671990551E+03  0.00000000000E+00 0.  1.
         25    1    1    2    0    0  0.19939932450E+03  0.14509942223E+03 -0.37049281684E+03  0.46228114851E+03  0.12500000000E+03 0.  0.
          3    1    1    2  502    0 -0.74962142441E+02 -0.88175634636E+02 -0.20741270539E+03  0.23751693771E+03  0.00000000000E+00 0.  1.
         -3    1    1    2    0  501 -0.12443718206E+03 -0.56923787593E+02 -0.19638155763E+03  0.23935464494E+03  0.00000000000E+00 0. -1.
<mgrwt>
<rscale>  4 0.53149541E+03</rscale>
<asrwt>0</asrwt>
<pdfrwt beam="1">  1        1 0.12681974E-01 0.53149541E+03</pdfrwt>
<pdfrwt beam="2">  1       -1 0.13180306E+00 0.53149541E+03</pdfrwt>
<totfact> 0.24250490E+02</totfact>
</mgrwt>
</event>
<event>
 5    0  0.5719562E-003  0.6560691E+03  0.7546771E-02  0.9795457E-01
         -2   -1    0    0    0  501 -0.00000000000E+00  0.00000000000E+00  0.91726210481E+03  0.91726210481E+03  0.00000000000E+00 0.  1.
          2   -1    0    0  502    0  0.00000000000E+00 -0.00000000000E+00 -0.11731288448E+03  0.11731288448E+03  0.00000000000E+00 0. -1.
         25    1    1    2    0    0  0.20406523503E+03 -0.36879788847E+02  0.77749934932E+03  0.81432977176E+03  0.12500000000E+03 0.  0.
          2    1    1    2  502    0 -0.17748786862E+03  0.47288500216E+02 -0.40453825370E+00  0.18367991020E+03  0.00000000000E+00 0. -1.
         -2    1    1    2    0  501 -0.26577366412E+02 -0.10408711369E+02  0.22854409265E+02  0.36565307336E+02  0.00000000000E+00 0.  1.
<mgrwt>
<rscale>  4 0.65606909E+03</rscale>
<asrwt>0</asrwt>
<pdfrwt beam="1">  1        2 0.18048137E-01 0.65606909E+03</pdfrwt>
<pdfrwt beam="2">  1       -2 0.14111724E+00 0.65606909E+03</pdfrwt>
<totfact> 0.11447102E+02</totfact>
</mgrwt>
</event>
<event>
 5    0  0.5719562E-003  0.4891746E+03  0.7546771E-02  0.1016644E+00
         -2   -1    0    0    0  501 -0.00000000000E+00  0.00000000000E+00  0.25144944790E+03  0.25144944790E+03  0.00000000000E+00 0.  1.
          2   -1    0    0  502    0  0.00000000000E+00 -0.00000000000E+00 -0.23791238318E+03  0.23791238318E+03  0.00000000000E+00 0. -1.
         25    1    1    2    0    0 -0.21350846488E+03 -0.13623228919E+02 -0.53704006326E+02  0.25353614582E+03  0.12500000000E+03 0.  0.
          4    1    1    2  502    0  0.43029905618E+02  0.18228736679E+02  0.43122662991E+02  0.63587920880E+02  0.00000000000E+00 0.  1.
         -4    1    1    2    0  501  0.17047855926E+03 -0.46055077606E+01  0.24118408060E+02  0.17223776438E+03  0.00000000000E+00 0. -1.
<mgrwt>
<rscale>  4 0.48917456E+03</rscale>
<asrwt>0</asrwt>
<pdfrwt beam="1">  1        2 0.36601905E-01 0.48917456E+03</pdfrwt>
<pdfrwt beam="2">  1       -2 0.38684530E-01 0.48917456E+03</pdfrwt>
<totfact> 0.90038676E+02</totfact>
</mgrwt>
</event>
<event>
 5    0  0.5719562E-003  0.1078041E+04  0.7546771E-02  0.9226863E-01
         -2   -1    0    0    0  501 -0.00000000000E+00  0.00000000000E+00  0.18694371540E+03  0.18694371540E+03  0.00000000000E+00 0.  1.
          2   -1    0    0  502    0  0.00000000000E+00 -0.00000000000E+00 -0.15541732823E+04  0.15541732823E+04  0.00000000000E+00 0. -1.
         25    1    1    2    0    0  0.26970366592E+03 -0.82357260145E+02  0.30985736303E+02  0.31001274420E+03  0.12500000000E+03 0.  0.
          4    1    1    2  502    0 -0.19647522943E+03  0.72218741290E+02 -0.74925299798E+03  0.77794480354E+03  0.00000000000E+00 0.  1.
         -4    1    1    2    0  501 -0.73228436493E+02  0.10138518855E+02 -0.64896230523E+03  0.65315944997E+03  0.00000000000E+00 0. -1.
<mgrwt>
<rscale>  4 0.10780407E+04</rscale>
<asrwt>0</asrwt>
<pdfrwt beam="1">  1        2 0.23910358E+00 0.10780407E+04</pdfrwt>
<pdfrwt beam="2">  1       -2 0.28760572E-01 0.10780407E+04</pdfrwt>
<totfact> 0.13039422E+02</totfact>
</mgrwt>
</event>
<event>
 5    0  0.5719562E-003  0.1057257E+04  0.7546771E-02  0.9247884E-01
          1   -1    0    0  502    0  0.00000000000E+00  0.00000000000E+00  0.14513797240E+04  0.14513797240E+04  0.00000000000E+00 0. -1.
         -1   -1    0    0    0  501 -0.00000000000E+00 -0.00000000000E+00 -0.19253947327E+03  0.19253947327E+03  0.00000000000E+00 0.  1.
         25    1    1    2    0    0  0.17194658832E+03 -0.10838831197E+03  0.13066593102E+04  0.13282685001E+04  0.12500000000E+03 0.  0.
          4    1    1    2  502    0 -0.19733744323E+03  0.77104536370E+02  0.43098720207E+02  0.21620517041E+03  0.00000000000E+00 0. -1.
         -4    1    1    2    0  501  0.25390854908E+02  0.31283775595E+02 -0.90917779689E+02  0.99445526758E+02  0.00000000000E+00 0.  1.
<mgrwt>
<rscale>  4 0.10572566E+04</rscale>
<asrwt>0</asrwt>
<pdfrwt beam="1">  1        1 0.22328918E+00 0.10572566E+04</pdfrwt>
<pdfrwt beam="2">  1       -1 0.29621458E-01 0.10572566E+04</pdfrwt>
<totfact> 0.73697409E+01</totfact>
</mgrwt>
</event>
<event>
 5    0  0.5719562E-003  0.6595101E+03  0.7546771E-02  0.9789096E-01
          1   -1    0    0  502    0  0.00000000000E+00  0.00000000000E+00  0.53702875805E+03  0.53702875805E+03  0.00000000000E+00 0.  1.
         -1   -1    0    0    0  501 -0.00000000000E+00 -0.00000000000E+00 -0.20248152712E+03  0.20248152712E+03  0.00000000000E+00 0. -1.
         25    1    1    2    0    0 -0.11809215628E+03 -0.19951946948E+03  0.21129482485E+03  0.33767481263E+03  0.12500000000E+03 0.  0.
          1    1    1    2  502    0  0.16441369182E+03  0.11962074405E+03  0.19740916299E+03  0.28339259358E+03  0.00000000000E+00 0. -1.
         -1    1    1    2    0  501 -0.46321535535E+02  0.79898725434E+02 -0.74156756912E+02  0.11844287896E+03  0.00000000000E+00 0.  1.
<mgrwt>
<rscale>  4 0.65951013E+03</rscale>
<asrwt>0</asrwt>
<pdfrwt beam="1">  1        1 0.82619808E-01 0.65951013E+03</pdfrwt>
<pdfrwt beam="2">  1       -1 0.31151004E-01 0.65951013E+03</pdfrwt>
<totfact> 0.38750429E+02</totfact>
</mgrwt>
</event>
<event>
 5    0  0.5719562E-003  0.4621228E+03  0.7546771E-02  0.1024167E+00
          1   -1    0    0  502    0  0.00000000000E+00  0.00000000000E+00  0.70959194881E+02  0.70959194881E+02  0.00000000000E+00 0. -1.
         -1   -1    0    0    0  501 -0.00000000000E+00 -0.00000000000E+00 -0.75239531928E+03  0.75239531928E+03  0.00000000000E+00 0.  1.
         25    1    1    2    0    0  0.21037113648E+03  0.15159378129E+02 -0.31338055553E+03  0.39789218941E+03  0.12500000000E+03 0.  0.
          4    1    1    2  502    0 -0.19127877751E+03 -0.22736875197E+02 -0.33849649692E+03  0.38946683382E+03  0.00000000000E+00 0.  1.
         -4    1    1    2    0  501 -0.19092358973E+02  0.75774970680E+01 -0.29559071943E+02  0.35995490927E+02  0.00000000000E+00 0. -1.
<mgrwt>
<rscale>  4 0.46212278E+03</rscale>
<asrwt>0</asrwt>
<pdfrwt beam="1">  1        1 0.10916799E-01 0.46212278E+03</pdfrwt>
<pdfrwt beam="2">  1       -1 0.11575313E+00 0.46212278E+03</pdfrwt>
<totfact> 0.40930134E+02</totfact>
</mgrwt>
</event>
