<event>
 5    0  0.1911311E+001  0.4058221E+03  0.7546771E-02  0.1041782E+00
         21   -1    0    0  503  501  0.00000000000E+00  0.00000000000E+00  0.37558342087E+03  0.37558342087E+03  0.00000000000E+00 0. -1.
         21   -1    0    0  501  502 -0.00000000000E+00 -0.00000000000E+00 -0.62100583645E+03  0.62100583645E+03  0.00000000000E+00 0. -1.
         25    1    1    2    0    0  0.36328465384E+03 -0.18183706557E+03  0.11245861234E+03  0.43967305765E+03  0.12500000000E+03 0.  0.
         21    1    1    2  503  504 -0.33282166155E+03  0.18386001750E+03 -0.36332035193E+03  0.52590535514E+03  0.00000000000E+00 0. -1.
         21    1    1    2  504  502 -0.30462992285E+02 -0.20229519268E+01  0.54393240154E+01  0.31010844541E+02  0.00000000000E+00 0. -1.
<mgrwt>
<rscale>  4 0.40582205E+03</rscale>
<asrwt>0</asrwt>
<pdfrwt beam="1">  1       21 0.57782065E-01 0.40582205E+03</pdfrwt>
<pdfrwt beam="2">  1       21 0.95539358E-01 0.40582205E+03</pdfrwt>
<totfact> 0.22586776E+03</totfact>
</mgrwt>
</event>
<event>
 5    0  0.1911311E+001  0.2615998E+03  0.7546771E-02  0.1106186E+00
         21   -1    0    0  502  501  0.00000000000E+00  0.00000000000E+00  0.97775316320E+02  0.97775316320E+02  0.00000000000E+00 0. -1.
         21   -1    0    0  504  502 -0.00000000000E+00 -0.00000000000E+00 -0.63364512670E+03  0.63364512670E+03  0.00000000000E+00 0. -1.
         25    1    1    2    0    0 -0.22939002255E+03 -0.13771704881E+02 -0.27658963865E+03  0.38070496518E+03  0.12500000000E+03 0.  0.
         21    1    1    2  503  501  0.76392102732E+02  0.19984288347E+02 -0.58818118274E+02  0.98461648259E+02  0.00000000000E+00 0. -1.
         21    1    1    2  504  503  0.15299791982E+03 -0.62125834655E+01 -0.20046205346E+03  0.25225382958E+03  0.00000000000E+00 0. -1.
<mgrwt>
<rscale>  4 0.26159978E+03</rscale>
<asrwt>0</asrwt>
<pdfrwt beam="1">  1       21 0.15042357E-01 0.26159978E+03</pdfrwt>
<pdfrwt beam="2">  1       21 0.97483861E-01 0.26159978E+03</pdfrwt>
<totfact> 0.32879854E+04</totfact>
</mgrwt>
</event>
<event>
 5    0  0.1911311E+001  0.2231218E+03  0.7546771E-02  0.1131577E+00
         21   -1    0    0  504  501  0.00000000000E+00  0.00000000000E+00  0.49760928066E+03  0.49760928066E+03  0.00000000000E+00 0.  1.
         21   -1    0    0  503  502 -0.00000000000E+00 -0.00000000000E+00 -0.11363057935E+03  0.11363057935E+03  0.00000000000E+00 0.  1.
         25    1    1    2    0    0 -0.18172576580E+03 -0.93991226306E+02  0.11890111548E+03  0.26762114984E+03  0.12500000000E+03 0.  0.
         21    1    1    2  503  501  0.26466585980E+02  0.78107020219E+01  0.40121740622E+01  0.27885207193E+02  0.00000000000E+00 0.  1.
         21    1    1    2  504  502  0.15525917982E+03  0.86180524284E+02  0.26106541177E+03  0.31573350298E+03  0.00000000000E+00 0.  1.
<mgrwt>
<rscale>  4 0.22312184E+03</rscale>
<asrwt>0</asrwt>
<pdfrwt beam="1">  1       21 0.76555273E-01 0.22312184E+03</pdfrwt>
<pdfrwt beam="2">  1       21 0.17481628E-01 0.22312184E+03</pdfrwt>
<totfact> 0.44326328E+04</totfact>
</mgrwt>
</event>
<event>
 5    0  0.1911311E+001  0.2353927E+03  0.7546771E-02  0.1122901E+00
         21   -1    0    0  502  501  0.00000000000E+00  0.00000000000E+00  0.33815251527E+03  0.33815251527E+03  0.00000000000E+00 0. -1.
         21   -1    0    0  504  502 -0.00000000000E+00 -0.00000000000E+00 -0.40329477785E+03  0.40329477785E+03  0.00000000000E+00 0. -1.
         25    1    1    2    0    0  0.16923288175E+03  0.13363800067E+03 -0.30332229813E+03  0.39259177275E+03  0.12500000000E+03 0.  0.
         21    1    1    2  503  501 -0.10206161730E+03 -0.57877349458E+02  0.21508276919E+03  0.24500399774E+03  0.00000000000E+00 0. -1.
         21    1    1    2  504  503 -0.67171264448E+02 -0.75760651208E+02  0.23097266361E+02  0.10385152263E+03  0.00000000000E+00 0. -1.
<mgrwt>
<rscale>  4 0.23539271E+03</rscale>
<asrwt>0</asrwt>
<pdfrwt beam="1">  1       21 0.52023464E-01 0.23539271E+03</pdfrwt>
<pdfrwt beam="2">  1       21 0.62045350E-01 0.23539271E+03</pdfrwt>
<totfact> 0.82167819E+03</totfact>
</mgrwt>
</event>
<event>
 5    0  0.1911311E+001  0.3352159E+03  0.7546771E-02  0.1069633E+00
         21   -1    0    0  502  501  0.00000000000E+00  0.00000000000E+00  0.53563783608E+03  0.53563783608E+03  0.00000000000E+00 0.  1.
         21   -1    0    0  504  502 -0.00000000000E+00 -0.00000000000E+00 -0.23064585676E+03  0.23064585676E+03  0.00000000000E+00 0.  1.
         25    1    1    2    0    0  0.21003510467E+03 -0.21887184324E+03  0.27791077968E+03  0.42997561607E+03  0.12500000000E+03 0.  0.
         21    1    1    2  503  501 -0.14945288530E+03  0.99642011826E+02  0.74432117579E+02  0.19443465631E+03  0.00000000000E+00 0.  1.
         21    1    1    2  504  503 -0.60582219367E+02  0.11922983142E+03 -0.47350917930E+02  0.14187342046E+03  0.00000000000E+00 0.  1.
<mgrwt>
<rscale>  4 0.33342069E+03</rscale>
<asrwt>0</asrwt>
<pdfrwt beam="1">  1       21 0.82405820E-01 0.33521595E+03</pdfrwt>
<pdfrwt beam="2">  1       21 0.35483978E-01 0.33521595E+03</pdfrwt>
<totfact> 0.91169404E+03</totfact>
</mgrwt>
</event>
