<event>
 5    0  0.2324070E+000  0.4936409E+03  0.7546771E-02  0.1015452E+00
         21   -1    0    0  503  501  0.00000000000E+00  0.00000000000E+00  0.60093151425E+03  0.60093151425E+03  0.00000000000E+00 0.  1.
         21   -1    0    0  504  502 -0.00000000000E+00 -0.00000000000E+00 -0.12370057265E+03  0.12370057265E+03  0.00000000000E+00 0. -1.
         25    1    1    2    0    0 -0.24801429790E+03  0.23446201921E+01  0.31520317616E+03  0.42011264140E+03  0.12500000000E+03 0.  0.
         21    1    1    2  503  502  0.47867517576E+02  0.95750712884E+01  0.66314051312E+02  0.82344001788E+02  0.00000000000E+00 0.  1.
         21    1    1    2  504  501  0.20014678032E+03 -0.11919691480E+02  0.95713714124E+02  0.22217544371E+03  0.00000000000E+00 0. -1.
<mgrwt>
<rscale>  4 0.49364085E+03</rscale>
<asrwt>0</asrwt>
<pdfrwt beam="1">  1       21 0.92451000E-01 0.49364085E+03</pdfrwt>
<pdfrwt beam="2">  1       21 0.19030858E-01 0.49364085E+03</pdfrwt>
<totfact> 0.22360268E+04</totfact>
</mgrwt>
</event>
<event>
 5    0  0.2324070E+000  0.4795192E+03  0.7546771E-02  0.1019267E+00
         21   -1    0    0  503  501  0.00000000000E+00  0.00000000000E+00  0.45433060514E+03  0.45433060514E+03  0.00000000000E+00 0.  1.
         21   -1    0    0  504  502 -0.00000000000E+00 -0.00000000000E+00 -0.26708212326E+03  0.26708212326E+03  0.00000000000E+00 0.  1.
         25    1    1    2    0    0  0.21385809367E+03  0.53258659819E+02  0.80948896591E+02  0.26598776839E+03  0.12500000000E+03 0.  0.
         21    1    1    2  503  502 -0.19047539499E+03 -0.45961563349E+02  0.24548766142E+03  0.31409796770E+03  0.00000000000E+00 0.  1.
         21    1    1    2  504  501 -0.23382698680E+02 -0.72970964700E+01 -0.13918807614E+03  0.14132699230E+03  0.00000000000E+00 0.  1.
<mgrwt>
<rscale>  4 0.47951917E+03</rscale>
<asrwt>0</asrwt>
<pdfrwt beam="1">  1       21 0.69897016E-01 0.47951917E+03</pdfrwt>
<pdfrwt beam="2">  1       21 0.41089558E-01 0.47951917E+03</pdfrwt>
<totfact> 0.93704236E+03</totfact>
</mgrwt>
</event>
<event>
 5    0  0.2324070E+000  0.3787176E+03  0.7546771E-02  0.1051409E+00
         21   -1    0    0  503  501  0.00000000000E+00  0.00000000000E+00  0.79811441876E+02  0.79811441876E+02  0.00000000000E+00 0.  1.
         21   -1    0    0  504  502 -0.00000000000E+00 -0.00000000000E+00 -0.14457200226E+04  0.14457200226E+04  0.00000000000E+00 0.  1.
         25    1    1    2    0    0 -0.10858135703E+03 -0.20536597962E+03 -0.29619692811E+03  0.39663927807E+03  0.12500000000E+03 0.  0.
         21    1    1    2  503  502  0.53445571801E+01  0.15525952901E+03 -0.95166204523E+03  0.96425864475E+03  0.00000000000E+00 0.  1.
         21    1    1    2  504  501  0.10323679985E+03  0.50106450606E+02 -0.11804960737E+03  0.16463354165E+03  0.00000000000E+00 0. -1.
<mgrwt>
<rscale>  4 0.37871755E+03</rscale>
<asrwt>0</asrwt>
<pdfrwt beam="1">  1       21 0.12278684E-01 0.37871755E+03</pdfrwt>
<pdfrwt beam="2">  1       21 0.22241845E+00 0.37871755E+03</pdfrwt>
<totfact> 0.48211885E+03</totfact>
</mgrwt>
</event>
<event>
 5    0  0.2324070E+000  0.6383419E+03  0.7546771E-02  0.9828904E-01
         21   -1    0    0  503  501  0.00000000000E+00  0.00000000000E+00  0.79534801191E+03  0.79534801191E+03  0.00000000000E+00 0. -1.
         21   -1    0    0  504  502 -0.00000000000E+00 -0.00000000000E+00 -0.27181905999E+03  0.27181905999E+03  0.00000000000E+00 0. -1.
         25    1    1    2    0    0  0.28554749738E+03 -0.14920264111E+03  0.44758062590E+03  0.56546637217E+03  0.12500000000E+03 0.  0.
         21    1    1    2  503  502 -0.24492536654E+03  0.14003801477E+03  0.21616923266E+03  0.35542681090E+03  0.00000000000E+00 0. -1.
         21    1    1    2  504  501 -0.40622130837E+02  0.91646263357E+01 -0.14022090665E+03  0.14627388883E+03  0.00000000000E+00 0. -1.
<mgrwt>
<rscale>  4 0.63834190E+03</rscale>
<asrwt>0</asrwt>
<pdfrwt beam="1">  1       21 0.12236123E+00 0.63834190E+03</pdfrwt>
<pdfrwt beam="2">  1       21 0.41818317E-01 0.63834190E+03</pdfrwt>
<totfact> 0.22550589E+03</totfact>
</mgrwt>
</event>
<event>
 5    0  0.2324070E+000  0.5012346E+03  0.7546771E-02  0.1013457E+00
         21   -1    0    0  503  501  0.00000000000E+00  0.00000000000E+00  0.23845414204E+03  0.23845414204E+03  0.00000000000E+00 0. -1.
         21   -1    0    0  504  502 -0.00000000000E+00 -0.00000000000E+00 -0.63458096257E+03  0.63458096257E+03  0.00000000000E+00 0. -1.
         25    1    1    2    0    0  0.69161952568E+02  0.22973347270E+03 -0.83270779627E+02  0.28305452991E+03  0.12500000000E+03 0.  0.
         21    1    1    2  503  502  0.20667560861E+02 -0.21364876694E+03  0.46155107794E+02  0.21955235745E+03  0.00000000000E+00 0. -1.
         21    1    1    2  504  501 -0.89829513429E+02 -0.16084705755E+02 -0.35901114870E+03  0.37042821725E+03  0.00000000000E+00 0. -1.
<mgrwt>
<rscale>  4 0.50123459E+03</rscale>
<asrwt>0</asrwt>
<pdfrwt beam="1">  1       21 0.36685253E-01 0.50123459E+03</pdfrwt>
<pdfrwt beam="2">  1       21 0.97627839E-01 0.50123459E+03</pdfrwt>
<totfact> 0.53922063E+03</totfact>
</mgrwt>
</event>
<event>
 5    0  0.2324070E+000  0.4281060E+03  0.7546771E-02  0.1034460E+00
         21   -1    0    0  503  501  0.00000000000E+00  0.00000000000E+00  0.14157371227E+04  0.14157371227E+04  0.00000000000E+00 0.  1.
         21   -1    0    0  504  502 -0.00000000000E+00 -0.00000000000E+00 -0.25841863325E+03  0.25841863325E+03  0.00000000000E+00 0. -1.
         25    1    1    2    0    0  0.14607061679E+03 -0.14004425429E+03  0.95129450496E+03  0.98057903986E+03  0.12500000000E+03 0.  0.
         21    1    1    2  503  502 -0.12679000433E+03  0.12565789977E+03  0.43142408483E+03  0.46689651310E+03  0.00000000000E+00 0.  1.
         21    1    1    2  504  501 -0.19280612458E+02  0.14386354524E+02 -0.22540010031E+03  0.22668020301E+03  0.00000000000E+00 0. -1.
<mgrwt>
<rscale>  4 0.42810604E+03</rscale>
<asrwt>0</asrwt>
<pdfrwt beam="1">  1       21 0.21780571E+00 0.42810604E+03</pdfrwt>
<pdfrwt beam="2">  1       21 0.39756713E-01 0.42810604E+03</pdfrwt>
<totfact> 0.52459382E+02</totfact>
</mgrwt>
</event>
<event>
 5    0  0.2324070E+000  0.5385012E+03  0.7546771E-02  0.1004191E+00
         21   -1    0    0  503  501  0.00000000000E+00  0.00000000000E+00  0.18173406353E+03  0.18173406353E+03  0.00000000000E+00 0.  1.
         21   -1    0    0  504  502 -0.00000000000E+00 -0.00000000000E+00 -0.66726894086E+03  0.66726894086E+03  0.00000000000E+00 0. -1.
         25    1    1    2    0    0  0.16777151331E+03 -0.18116569586E+03 -0.35745291902E+01  0.27677801086E+03  0.12500000000E+03 0.  0.
         21    1    1    2  503  502 -0.15841951613E+03  0.14391679195E+03 -0.21806791813E+03  0.30555261906E+03  0.00000000000E+00 0. -1.
         21    1    1    2  504  501 -0.93519971715E+01  0.37248903912E+02 -0.26389243001E+03  0.26667237448E+03  0.00000000000E+00 0. -1.
<mgrwt>
<rscale>  4 0.53850124E+03</rscale>
<asrwt>0</asrwt>
<pdfrwt beam="1">  1       21 0.27959087E-01 0.53850124E+03</pdfrwt>
<pdfrwt beam="2">  1       21 0.10265676E+00 0.53850124E+03</pdfrwt>
<totfact> 0.81480038E+03</totfact>
</mgrwt>
</event>
<event>
 5    0  0.2324070E+000  0.6268540E+03  0.7546771E-02  0.9851207E-01
         21   -1    0    0  503  501  0.00000000000E+00  0.00000000000E+00  0.12209695822E+03  0.12209695822E+03  0.00000000000E+00 0.  1.
         21   -1    0    0  504  502 -0.00000000000E+00 -0.00000000000E+00 -0.92894730286E+03  0.92894730286E+03  0.00000000000E+00 0.  1.
         25    1    1    2    0    0 -0.43107433737E+02 -0.27436189023E+03 -0.51212670192E+03  0.59584516149E+03  0.12500000000E+03 0.  0.
         21    1    1    2  503  502 -0.23034309591E+02 -0.37378701292E+01 -0.11543408558E+03  0.11776917765E+03  0.00000000000E+00 0.  1.
         21    1    1    2  504  501  0.66141743327E+02  0.27809976036E+03 -0.17928955713E+03  0.33742992193E+03  0.00000000000E+00 0.  1.
<mgrwt>
<rscale>  4 0.62685400E+03</rscale>
<asrwt>0</asrwt>
<pdfrwt beam="1">  1       21 0.18784148E-01 0.62685400E+03</pdfrwt>
<pdfrwt beam="2">  1       21 0.14291497E+00 0.62685400E+03</pdfrwt>
<totfact> 0.73719247E+03</totfact>
</mgrwt>
</event>
<event>
 5    0  0.2324070E+000  0.6883347E+03  0.7546771E-02  0.9737392E-01
         21   -1    0    0  503  501  0.00000000000E+00  0.00000000000E+00  0.19162083162E+04  0.19162083162E+04  0.00000000000E+00 0.  1.
         21   -1    0    0  504  502 -0.00000000000E+00 -0.00000000000E+00 -0.54105525731E+03  0.54105525731E+03  0.00000000000E+00 0.  1.
         25    1    1    2    0    0  0.25155631888E+02 -0.21175767633E+03  0.24550927891E+03  0.34838760789E+03  0.12500000000E+03 0.  0.
         21    1    1    2  503  502 -0.33808750611E+02  0.25739591450E+03  0.16077216280E+04  0.16285467514E+04  0.00000000000E+00 0.  1.
         21    1    1    2  504  501  0.86531187230E+01 -0.45638238174E+02 -0.47807784802E+03  0.48032921420E+03  0.00000000000E+00 0.  1.
<mgrwt>
<rscale>  4 0.68833471E+03</rscale>
<asrwt>0</asrwt>
<pdfrwt beam="1">  1       21 0.29480128E+00 0.68833471E+03</pdfrwt>
<pdfrwt beam="2">  1       21 0.83239271E-01 0.68833471E+03</pdfrwt>
<totfact> 0.30560328E+01</totfact>
</mgrwt>
</event>
<event>
 5    0  0.2324070E+000  0.6064480E+03  0.7546771E-02  0.9892118E-01
         21   -1    0    0  503  501  0.00000000000E+00  0.00000000000E+00  0.36802466120E+03  0.36802466120E+03  0.00000000000E+00 0.  1.
         21   -1    0    0  504  502 -0.00000000000E+00 -0.00000000000E+00 -0.14979595097E+04  0.14979595097E+04  0.00000000000E+00 0.  1.
         25    1    1    2    0    0  0.29589720283E+03 -0.10867070677E+03  0.19369371015E+03  0.39052110122E+03  0.12500000000E+03 0.  0.
         21    1    1    2  503  502 -0.11107801433E+03  0.46539462161E+01 -0.12439528649E+04  0.12489110115E+04  0.00000000000E+00 0.  1.
         21    1    1    2  504  501 -0.18481918850E+03  0.10401676055E+03 -0.79675693768E+02  0.22655205823E+03  0.00000000000E+00 0.  1.
<mgrwt>
<rscale>  4 0.60644800E+03</rscale>
<asrwt>0</asrwt>
<pdfrwt beam="1">  1       21 0.56619179E-01 0.60644800E+03</pdfrwt>
<pdfrwt beam="2">  1       21 0.23045531E+00 0.60644800E+03</pdfrwt>
<totfact> 0.18973054E+02</totfact>
</mgrwt>
</event>
<event>
 5    0  0.2324070E+000  0.5296454E+03  0.7546771E-02  0.1006318E+00
         21   -1    0    0  503  501  0.00000000000E+00  0.00000000000E+00  0.11869792044E+04  0.11869792044E+04  0.00000000000E+00 0. -1.
         21   -1    0    0  504  502 -0.00000000000E+00 -0.00000000000E+00 -0.79032527379E+02  0.79032527379E+02  0.00000000000E+00 0. -1.
         25    1    1    2    0    0  0.35689387303E+02  0.25800875088E+03  0.57541420819E+03  0.64387014132E+03  0.12500000000E+03 0.  0.
         21    1    1    2  503  502  0.14399413562E+02 -0.24008615952E+03  0.51095525467E+03  0.56473354724E+03  0.00000000000E+00 0. -1.
         21    1    1    2  504  501 -0.50088800866E+02 -0.17922591359E+02  0.21577214129E+02  0.57408043189E+02  0.00000000000E+00 0.  1.
<mgrwt>
<rscale>  4 0.52964542E+03</rscale>
<asrwt>0</asrwt>
<pdfrwt beam="1">  1       21 0.18261217E+00 0.52964542E+03</pdfrwt>
<pdfrwt beam="2">  1       21 0.12158851E-01 0.52964542E+03</pdfrwt>
<totfact> 0.85239993E+03</totfact>
</mgrwt>
</event>
<event>
 5    0  0.2324070E+000  0.4080972E+03  0.7546771E-02  0.1041011E+00
         21   -1    0    0  503  501  0.00000000000E+00  0.00000000000E+00  0.11878513582E+04  0.11878513582E+04  0.00000000000E+00 0. -1.
         21   -1    0    0  504  502 -0.00000000000E+00 -0.00000000000E+00 -0.17075149509E+03  0.17075149509E+03  0.00000000000E+00 0. -1.
         25    1    1    2    0    0 -0.13565336118E+03  0.15419093752E+03  0.68249720459E+03  0.72360494324E+03  0.12500000000E+03 0.  0.
         21    1    1    2  503  502  0.13216488443E+03 -0.10315373246E+03  0.46533346150E+03  0.49461447572E+03  0.00000000000E+00 0. -1.
         21    1    1    2  504  501  0.34884767530E+01 -0.51037205070E+02 -0.13073080301E+03  0.14038343431E+03  0.00000000000E+00 0. -1.
<mgrwt>
<rscale>  4 0.40809719E+03</rscale>
<asrwt>0</asrwt>
<pdfrwt beam="1">  1       21 0.18274636E+00 0.40809719E+03</pdfrwt>
<pdfrwt beam="2">  1       21 0.26269462E-01 0.40809719E+03</pdfrwt>
<totfact> 0.20786661E+03</totfact>
</mgrwt>
</event>
<event>
 5    0  0.2324070E+000  0.4599899E+03  0.7546771E-02  0.1024784E+00
         21   -1    0    0  503  501  0.00000000000E+00  0.00000000000E+00  0.25024071354E+02  0.25024071354E+02  0.00000000000E+00 0.  1.
         21   -1    0    0  504  502 -0.00000000000E+00 -0.00000000000E+00 -0.23038063714E+04  0.23038063714E+04  0.00000000000E+00 0. -1.
         25    1    1    2    0    0  0.11456092030E+03  0.18081923025E+03 -0.12558666184E+04  0.12800959970E+04  0.12500000000E+03 0.  0.
         21    1    1    2  503  502 -0.18703336402E+02  0.73332134202E+01 -0.85007350234E+02  0.87348957667E+02  0.00000000000E+00 0. -1.
         21    1    1    2  504  501 -0.95857583897E+02 -0.18815244367E+03 -0.93790833144E+03  0.96138548805E+03  0.00000000000E+00 0.  1.
<mgrwt>
<rscale>  4 0.45998991E+03</rscale>
<asrwt>0</asrwt>
<pdfrwt beam="1">  1       21 0.38498561E-02 0.45998991E+03</pdfrwt>
<pdfrwt beam="2">  1       21 0.35443185E+00 0.45998991E+03</pdfrwt>
<totfact> 0.56018589E+03</totfact>
</mgrwt>
</event>
<event>
 5    0  0.2324070E+000  0.5403736E+03  0.7546771E-02  0.1003747E+00
         21   -1    0    0  503  501  0.00000000000E+00  0.00000000000E+00  0.29384597392E+03  0.29384597392E+03  0.00000000000E+00 0. -1.
         21   -1    0    0  504  502 -0.00000000000E+00 -0.00000000000E+00 -0.29699805852E+03  0.29699805852E+03  0.00000000000E+00 0. -1.
         25    1    1    2    0    0 -0.65214232896E+02  0.21373203332E+03 -0.87521603320E+02  0.27059066741E+03  0.12500000000E+03 0.  0.
         21    1    1    2  503  502  0.44602850327E+02 -0.23754536542E+03  0.12236117390E+03  0.27090491278E+03  0.00000000000E+00 0. -1.
         21    1    1    2  504  501  0.20611382570E+02  0.23813332097E+02 -0.37991655174E+02  0.49348452253E+02  0.00000000000E+00 0. -1.
<mgrwt>
<rscale>  4 0.54037364E+03</rscale>
<asrwt>0</asrwt>
<pdfrwt beam="1">  1       21 0.45207073E-01 0.54037364E+03</pdfrwt>
<pdfrwt beam="2">  1       21 0.45692009E-01 0.54037364E+03</pdfrwt>
<totfact> 0.19082939E+04</totfact>
</mgrwt>
</event>
<event>
 5    0  0.2324070E+000  0.4713557E+03  0.7546771E-02  0.1021538E+00
         21   -1    0    0  503  501  0.00000000000E+00  0.00000000000E+00  0.79191946583E+03  0.79191946583E+03  0.00000000000E+00 0. -1.
         21   -1    0    0  504  502 -0.00000000000E+00 -0.00000000000E+00 -0.90107448104E+02  0.90107448104E+02  0.00000000000E+00 0.  1.
         25    1    1    2    0    0 -0.22117642938E+03  0.34101408336E+02  0.30769694567E+03  0.40048012353E+03  0.12500000000E+03 0.  0.
         21    1    1    2  503  502  0.20125085619E+03 -0.37369492450E+02  0.40839184005E+03  0.45681755779E+03  0.00000000000E+00 0. -1.
         21    1    1    2  504  501  0.19925573189E+02  0.32680841141E+01 -0.14276768005E+02  0.24729232608E+02  0.00000000000E+00 0. -1.
<mgrwt>
<rscale>  4 0.47135567E+03</rscale>
<asrwt>0</asrwt>
<pdfrwt beam="1">  1       21 0.12183376E+00 0.47135567E+03</pdfrwt>
<pdfrwt beam="2">  1       21 0.13862685E-01 0.47135567E+03</pdfrwt>
<totfact> 0.20583200E+04</totfact>
</mgrwt>
</event>
<event>
 5    0  0.2324070E+000  0.4400401E+03  0.7546771E-02  0.1030735E+00
         21   -1    0    0  503  501  0.00000000000E+00  0.00000000000E+00  0.15626749739E+03  0.15626749739E+03  0.00000000000E+00 0.  1.
         21   -1    0    0  504  502 -0.00000000000E+00 -0.00000000000E+00 -0.71884472646E+03  0.71884472646E+03  0.00000000000E+00 0.  1.
         25    1    1    2    0    0 -0.27890608053E+03  0.80768373181E+02 -0.11325366513E+03  0.33580280601E+03  0.12500000000E+03 0.  0.
         21    1    1    2  503  502  0.17011608893E+03 -0.63724197001E+02 -0.33168892630E+03  0.37817694381E+03  0.00000000000E+00 0.  1.
         21    1    1    2  504  501  0.10878999160E+03 -0.17044176180E+02 -0.11763463764E+03  0.16113247403E+03  0.00000000000E+00 0. -1.
<mgrwt>
<rscale>  4 0.44004007E+03</rscale>
<asrwt>0</asrwt>
<pdfrwt beam="1">  1       21 0.24041153E-01 0.44004007E+03</pdfrwt>
<pdfrwt beam="2">  1       21 0.11059150E+00 0.44004007E+03</pdfrwt>
<totfact> 0.93660812E+03</totfact>
</mgrwt>
</event>
<event>
 5    0  0.2324070E+000  0.7453663E+03  0.7546771E-02  0.9642648E-01
         21   -1    0    0  503  501  0.00000000000E+00  0.00000000000E+00  0.40981293034E+03  0.40981293034E+03  0.00000000000E+00 0. -1.
         21   -1    0    0  504  502 -0.00000000000E+00 -0.00000000000E+00 -0.61708663998E+03  0.61708663998E+03  0.00000000000E+00 0. -1.
         25    1    1    2    0    0 -0.81217733518E+02 -0.28172027114E+03 -0.10243829657E+03  0.33478535812E+03  0.12500000000E+03 0.  0.
         21    1    1    2  503  502 -0.14028280062E+03  0.38985348885E+03  0.22001918927E+02  0.41490853372E+03  0.00000000000E+00 0. -1.
         21    1    1    2  504  501  0.22150053414E+03 -0.10813321770E+03 -0.12683733199E+03  0.27720567848E+03  0.00000000000E+00 0. -1.
<mgrwt>
<rscale>  4 0.74536630E+03</rscale>
<asrwt>0</asrwt>
<pdfrwt beam="1">  1       21 0.63048143E-01 0.74536630E+03</pdfrwt>
<pdfrwt beam="2">  1       21 0.94936406E-01 0.74536630E+03</pdfrwt>
<totfact> 0.17096888E+03</totfact>
</mgrwt>
</event>
<event>
 5    0  0.2324070E+000  0.4875735E+03  0.7546771E-02  0.1017074E+00
         21   -1    0    0  503  501  0.00000000000E+00  0.00000000000E+00  0.37726011801E+03  0.37726011801E+03  0.00000000000E+00 0.  1.
         21   -1    0    0  504  502 -0.00000000000E+00 -0.00000000000E+00 -0.29475901960E+03  0.29475901960E+03  0.00000000000E+00 0. -1.
         25    1    1    2    0    0 -0.17624883815E+03 -0.15275629059E+03  0.19754773132E+03  0.33022453484E+03  0.12500000000E+03 0.  0.
         21    1    1    2  503  502  0.15568263400E+03  0.12965165737E+03  0.19688795755E+02  0.20355412908E+03  0.00000000000E+00 0.  1.
         21    1    1    2  504  501  0.20566204150E+02  0.23104633220E+02 -0.13473542866E+03  0.13824047369E+03  0.00000000000E+00 0. -1.
<mgrwt>
<rscale>  4 0.48757354E+03</rscale>
<asrwt>0</asrwt>
<pdfrwt beam="1">  1       21 0.58040019E-01 0.48757354E+03</pdfrwt>
<pdfrwt beam="2">  1       21 0.45347541E-01 0.48757354E+03</pdfrwt>
<totfact> 0.11496815E+04</totfact>
</mgrwt>
</event>
<event>
 5    0  0.2324070E+000  0.5558631E+03  0.7546771E-02  0.1000146E+00
         21   -1    0    0  503  501  0.00000000000E+00  0.00000000000E+00  0.45388692705E+03  0.45388692705E+03  0.00000000000E+00 0.  1.
         21   -1    0    0  504  502 -0.00000000000E+00 -0.00000000000E+00 -0.19461823890E+03  0.19461823890E+03  0.00000000000E+00 0. -1.
         25    1    1    2    0    0  0.79061394164E+02 -0.21630790978E+03  0.22825527631E+03  0.34751300270E+03  0.12500000000E+03 0.  0.
         21    1    1    2  503  502 -0.11188488047E+03  0.22527220140E+03 -0.48263999895E+01  0.25157322063E+03  0.00000000000E+00 0. -1.
         21    1    1    2  504  501  0.32823486304E+02 -0.89642916206E+01  0.35839811828E+02  0.49418942616E+02  0.00000000000E+00 0.  1.
<mgrwt>
<rscale>  4 0.55586315E+03</rscale>
<asrwt>0</asrwt>
<pdfrwt beam="1">  1       21 0.69828758E-01 0.55586315E+03</pdfrwt>
<pdfrwt beam="2">  1       21 0.29941268E-01 0.55586315E+03</pdfrwt>
<totfact> 0.17531673E+04</totfact>
</mgrwt>
</event>
<event>
 5    0  0.2324070E+000  0.6075540E+03  0.7546771E-02  0.9889857E-01
         21   -1    0    0  503  501  0.00000000000E+00  0.00000000000E+00  0.43441590200E+03  0.43441590200E+03  0.00000000000E+00 0.  1.
         21   -1    0    0  504  502 -0.00000000000E+00 -0.00000000000E+00 -0.29782675971E+03  0.29782675971E+03  0.00000000000E+00 0. -1.
         25    1    1    2    0    0 -0.90890352070E+02  0.23925422036E+03 -0.16159203357E+02  0.28528890254E+03  0.12500000000E+03 0.  0.
         21    1    1    2  503  502  0.13196468782E+02  0.22780076984E+02 -0.82340709432E+02  0.86446926640E+02  0.00000000000E+00 0. -1.
         21    1    1    2  504  501  0.77693883288E+02 -0.26203429734E+03  0.23508905508E+03  0.36050683253E+03  0.00000000000E+00 0.  1.
<mgrwt>
<rscale>  4 0.60755399E+03</rscale>
<asrwt>0</asrwt>
<pdfrwt beam="1">  1       21 0.66833216E-01 0.60755399E+03</pdfrwt>
<pdfrwt beam="2">  1       21 0.45819501E-01 0.60755399E+03</pdfrwt>
<totfact> 0.79950216E+03</totfact>
</mgrwt>
</event>
<event>
 5    0  0.2324070E+000  0.5926516E+03  0.7546771E-02  0.9920770E-01
         21   -1    0    0  503  501  0.00000000000E+00  0.00000000000E+00  0.85783262356E+03  0.85783262356E+03  0.00000000000E+00 0. -1.
         21   -1    0    0  504  502 -0.00000000000E+00 -0.00000000000E+00 -0.11220264864E+04  0.11220264864E+04  0.00000000000E+00 0. -1.
         25    1    1    2    0    0 -0.98857142296E+02  0.24877884773E+03  0.30811918039E+03  0.42687946657E+03  0.12500000000E+03 0.  0.
         21    1    1    2  503  502  0.63560048390E+02 -0.28336878626E+03  0.44668165063E+03  0.53278724252E+03  0.00000000000E+00 0. -1.
         21    1    1    2  504  501  0.35297093906E+02  0.34589938532E+02 -0.10189946938E+04  0.10201924009E+04  0.00000000000E+00 0. -1.
<mgrwt>
<rscale>  4 0.59265158E+03</rscale>
<asrwt>0</asrwt>
<pdfrwt beam="1">  1       21 0.13197425E+00 0.59265158E+03</pdfrwt>
<pdfrwt beam="2">  1       21 0.17261946E+00 0.59265158E+03</pdfrwt>
<totfact> 0.62691785E+01</totfact>
</mgrwt>
</event>
<event>
 5    0  0.2324070E+000  0.3175543E+03  0.7546771E-02  0.1076780E+00
         21   -1    0    0  503  501  0.00000000000E+00  0.00000000000E+00  0.15617774374E+03  0.15617774374E+03  0.00000000000E+00 0.  1.
         21   -1    0    0  504  502 -0.00000000000E+00 -0.00000000000E+00 -0.48141226261E+03  0.48141226261E+03  0.00000000000E+00 0.  1.
         25    1    1    2    0    0 -0.20087087573E+03  0.14558261113E+01 -0.13617538346E+03  0.27298344859E+03  0.12500000000E+03 0.  0.
         21    1    1    2  503  502  0.59505015761E+01  0.32414590912E+02  0.46495850370E+02  0.56991036792E+02  0.00000000000E+00 0. -1.
         21    1    1    2  504  501  0.19492037415E+03 -0.33870417024E+02 -0.23555498578E+03  0.30761552096E+03  0.00000000000E+00 0.  1.
<mgrwt>
<rscale>  4 0.31755431E+03</rscale>
<asrwt>0</asrwt>
<pdfrwt beam="1">  1       21 0.24027346E-01 0.31755431E+03</pdfrwt>
<pdfrwt beam="2">  1       21 0.74063423E-01 0.31755431E+03</pdfrwt>
<totfact> 0.25219043E+04</totfact>
</mgrwt>
</event>
<event>
 5    0  0.2324070E+000  0.6065347E+03  0.7546771E-02  0.9891941E-01
         21   -1    0    0  503  501  0.00000000000E+00  0.00000000000E+00  0.14734794815E+04  0.14734794815E+04  0.00000000000E+00 0.  1.
         21   -1    0    0  504  502 -0.00000000000E+00 -0.00000000000E+00 -0.88486350077E+02  0.88486350077E+02  0.00000000000E+00 0. -1.
         25    1    1    2    0    0 -0.27109044330E+03 -0.46491391462E+02  0.81276552725E+03  0.86710107843E+03  0.12500000000E+03 0.  0.
         21    1    1    2  503  502  0.29676878360E+03  0.30902522896E+02  0.58914221754E+03  0.66039020990E+03  0.00000000000E+00 0. -1.
         21    1    1    2  504  501 -0.25678340302E+02  0.15588868566E+02 -0.16914613398E+02  0.34474543220E+02  0.00000000000E+00 0. -1.
<mgrwt>
<rscale>  4 0.60653467E+03</rscale>
<asrwt>0</asrwt>
<pdfrwt beam="1">  1       21 0.22668913E+00 0.60653467E+03</pdfrwt>
<pdfrwt beam="2">  1       21 0.13613286E-01 0.60653467E+03</pdfrwt>
<totfact> 0.34340827E+03</totfact>
</mgrwt>
</event>
<event>
 5    0  0.2324070E+000  0.5776350E+03  0.7546771E-02  0.9952924E-01
         21   -1    0    0  503  501  0.00000000000E+00  0.00000000000E+00  0.71069012616E+02  0.71069012616E+02  0.00000000000E+00 0. -1.
         21   -1    0    0  504  502 -0.00000000000E+00 -0.00000000000E+00 -0.16048620401E+04  0.16048620401E+04  0.00000000000E+00 0. -1.
         25    1    1    2    0    0 -0.64737087801E+02 -0.25800942920E+03 -0.81679543121E+03  0.86806654845E+03  0.12500000000E+03 0.  0.
         21    1    1    2  503  502  0.67846294402E+02  0.23676070020E+03 -0.29061187533E+03  0.38093832954E+03  0.00000000000E+00 0. -1.
         21    1    1    2  504  501 -0.31092066010E+01  0.21248728995E+02 -0.42638572096E+03  0.42692617475E+03  0.00000000000E+00 0. -1.
<mgrwt>
<rscale>  4 0.57763504E+03</rscale>
<asrwt>0</asrwt>
<pdfrwt beam="1">  1       21 0.10933695E-01 0.57763504E+03</pdfrwt>
<pdfrwt beam="2">  1       21 0.24690183E+00 0.57763504E+03</pdfrwt>
<totfact> 0.38626744E+03</totfact>
</mgrwt>
</event>
<event>
 5    0  0.2324070E+000  0.1022739E+04  0.7546771E-02  0.9283950E-01
         21   -1    0    0  503  501  0.00000000000E+00  0.00000000000E+00  0.80653234287E+03  0.80653234287E+03  0.00000000000E+00 0.  1.
         21   -1    0    0  504  502 -0.00000000000E+00 -0.00000000000E+00 -0.16334550223E+04  0.16334550223E+04  0.00000000000E+00 0. -1.
         25    1    1    2    0    0 -0.33901704741E+02  0.28399120215E+03  0.63535042141E+03  0.70788098327E+03  0.12500000000E+03 0.  0.
         21    1    1    2  503  502  0.59977139536E+02 -0.38701655349E+03 -0.15607227348E+03  0.42158940272E+03  0.00000000000E+00 0. -1.
         21    1    1    2  504  501 -0.26075434794E+02  0.10302535133E+03 -0.13062008274E+04  0.13105169792E+04  0.00000000000E+00 0. -1.
<mgrwt>
<rscale>  4 0.10227394E+04</rscale>
<asrwt>0</asrwt>
<pdfrwt beam="1">  1       21 0.12408190E+00 0.10227394E+04</pdfrwt>
<pdfrwt beam="2">  1       21 0.25130077E+00 0.10227394E+04</pdfrwt>
<totfact> 0.18858500E+01</totfact>
</mgrwt>
</event>
