<event>
 5    0  0.4859212E+001  0.3286830E+03  0.7546771E-02  0.1071721E+00
         21   -1    0    0  504  501  0.00000000000E+00  0.00000000000E+00  0.61307863621E+03  0.61307863621E+03  0.00000000000E+00 0.  1.
         21   -1    0    0  503  502 -0.00000000000E+00 -0.00000000000E+00 -0.28826251035E+03  0.28826251035E+03  0.00000000000E+00 0. -1.
         25    1    1    2    0    0 -0.17930991325E+03 -0.19867610954E+03  0.39241344879E+03  0.49115940007E+03  0.12500000000E+03 0.  0.
         21    1    1    2  503  501  0.19683650901E+03  0.24311900077E+03 -0.12379889292E+03  0.33641882484E+03  0.00000000000E+00 0. -1.
         21    1    1    2  504  502 -0.17526595764E+02 -0.44442891231E+02  0.56201569997E+02  0.73762921649E+02  0.00000000000E+00 0. -1.
<mgrwt>
<rscale>  4 0.32868305E+03</rscale>
<asrwt>0</asrwt>
<pdfrwt beam="1">  1       21 0.94319790E-01 0.32868305E+03</pdfrwt>
<pdfrwt beam="2">  1       21 0.44348079E-01 0.32868305E+03</pdfrwt>
<totfact> 0.42259008E+03</totfact>
</mgrwt>
</event>
<event>
 5    0  0.1911311E+001  0.2448882E+03  0.7546771E-02  0.1116579E+00
         21   -1    0    0  504  501  0.00000000000E+00  0.00000000000E+00  0.83430480369E+03  0.83430480369E+03  0.00000000000E+00 0. -1.
         21   -1    0    0  503  502 -0.00000000000E+00 -0.00000000000E+00 -0.28657086542E+03  0.28657086542E+03  0.00000000000E+00 0. -1.
         25    1    1    2    0    0 -0.16137013007E+03 -0.17630965156E+03  0.56273991928E+03  0.62404056668E+03  0.12500000000E+03 0.  0.
         21    1    1    2  503  501  0.20135404015E+03  0.62155335917E+02 -0.19024847440E+03  0.28390353517E+03  0.00000000000E+00 0. -1.
         21    1    1    2  504  502 -0.39983910084E+02  0.11415431564E+03  0.17524249339E+03  0.21293156726E+03  0.00000000000E+00 0.  1.
<mgrwt>
<rscale>  4 0.24488816E+03</rscale>
<asrwt>0</asrwt>
<pdfrwt beam="1">  1       21 0.12835458E+00 0.24488816E+03</pdfrwt>
<pdfrwt beam="2">  1       21 0.44087826E-01 0.24488816E+03</pdfrwt>
<totfact> 0.21112849E+03</totfact>
</mgrwt>
</event>
<event>
 5    0  0.1911311E+001  0.2846645E+03  0.7546771E-02  0.1093168E+00
         21   -1    0    0  503  501  0.00000000000E+00  0.00000000000E+00  0.78914613399E+02  0.78914613399E+02  0.00000000000E+00 0.  1.
         21   -1    0    0  504  502 -0.00000000000E+00 -0.00000000000E+00 -0.11827567842E+04  0.11827567842E+04  0.00000000000E+00 0.  1.
         25    1    1    2    0    0  0.20580348565E+03 -0.15438960424E+03 -0.74291256372E+03  0.79607493488E+03  0.12500000000E+03 0.  0.
         21    1    1    2  503  502 -0.18527456976E+03  0.17427969895E+03 -0.35447240619E+03  0.43629206549E+03  0.00000000000E+00 0.  1.
         21    1    1    2  504  501 -0.20528915897E+02 -0.19890094706E+02 -0.64572009302E+01  0.29304397267E+02  0.00000000000E+00 0.  1.
<mgrwt>
<rscale>  4 0.28466451E+03</rscale>
<asrwt>0</asrwt>
<pdfrwt beam="1">  1       21 0.12140710E-01 0.28466451E+03</pdfrwt>
<pdfrwt beam="2">  1       21 0.18196258E+00 0.28466451E+03</pdfrwt>
<totfact> 0.95245058E+03</totfact>
</mgrwt>
</event>
<event>
 5    0  0.1911311E+001  0.2557554E+03  0.7546771E-02  0.1109721E+00
         21   -1    0    0  504  501  0.00000000000E+00  0.00000000000E+00  0.43383247734E+03  0.43383247734E+03  0.00000000000E+00 0. -1.
         21   -1    0    0  503  502 -0.00000000000E+00 -0.00000000000E+00 -0.72954650487E+03  0.72954650487E+03  0.00000000000E+00 0. -1.
         25    1    1    2    0    0  0.48745367373E+02 -0.20283231587E+03  0.28008888663E+03  0.37093374559E+03  0.12500000000E+03 0.  0.
         21    1    1    2  503  501 -0.16383335105E+02  0.22349965799E+03 -0.66155912418E+03  0.69848477834E+03  0.00000000000E+00 0. -1.
         21    1    1    2  504  502 -0.32362032268E+02 -0.20667342121E+02  0.85756210022E+02  0.93960458280E+02  0.00000000000E+00 0.  1.
<mgrwt>
<rscale>  4 0.25575537E+03</rscale>
<asrwt>0</asrwt>
<pdfrwt beam="1">  1       21 0.66743458E-01 0.25575537E+03</pdfrwt>
<pdfrwt beam="2">  1       21 0.11223792E+00 0.25575537E+03</pdfrwt>
<totfact> 0.12112815E+03</totfact>
</mgrwt>
</event>
