<event>
 5    0  0.1239749E+000  0.3178526E+03  0.7546771E-02  0.1076642E+00
         21   -1    0    0  501  502  0.00000000000E+00  0.00000000000E+00  0.18641561614E+04  0.18641561614E+04  0.00000000000E+00 0. -1.
          2   -1    0    0  503    0 -0.00000000000E+00 -0.00000000000E+00 -0.98259710937E+02  0.98259710937E+02  0.00000000000E+00 0. -1.
         25    1    1    2    0    0 -0.16025252138E+03 -0.23582317098E+03  0.12413786753E+04  0.12798200866E+04  0.12500000000E+03 0.  0.
         21    1    1    2  503  502  0.20378166621E+03  0.23193550441E+03  0.55092305358E+03  0.63153563372E+03  0.00000000000E+00 0. -1.
          2    1    1    2  501    0 -0.43529144838E+02  0.38876665656E+01 -0.26405278376E+02  0.51060152054E+02  0.00000000000E+00 0. -1.
<mgrwt>
<rscale>  4 0.31785257E+03</rscale>
<asrwt>0</asrwt>
<pdfrwt beam="1">  1       21 0.28679323E+00 0.31785257E+03</pdfrwt>
<pdfrwt beam="2">  1        2 0.15116880E-01 0.31785257E+03</pdfrwt>
<totfact> 0.17299919E+02</totfact>
</mgrwt>
</event>
<event>
 5    0  0.1239749E+000  0.2258413E+03  0.7546771E-02  0.1129602E+00
         21   -1    0    0  501  502  0.00000000000E+00  0.00000000000E+00  0.23417098988E+03  0.23417098988E+03  0.00000000000E+00 0.  1.
          1   -1    0    0  503    0 -0.00000000000E+00 -0.00000000000E+00 -0.10513060683E+04  0.10513060683E+04  0.00000000000E+00 0. -1.
         25    1    1    2    0    0  0.57624639863E+01  0.22828752664E+03 -0.50591369355E+02  0.26520348313E+03  0.12500000000E+03 0.  0.
         21    1    1    2  503  502  0.73843924538E+00 -0.17297066809E+03  0.66540517186E+02  0.18532953823E+03  0.00000000000E+00 0.  1.
          1    1    1    2  501    0 -0.65009032317E+01 -0.55316858555E+02 -0.83308422627E+03  0.83494403684E+03  0.00000000000E+00 0. -1.
<mgrwt>
<rscale>  4 0.22584129E+03</rscale>
<asrwt>0</asrwt>
<pdfrwt beam="1">  1       21 0.36026305E-01 0.22584129E+03</pdfrwt>
<pdfrwt beam="2">  1        1 0.16173940E+00 0.22584129E+03</pdfrwt>
<totfact> 0.12031457E+03</totfact>
</mgrwt>
</event>
<event>
 5    0  0.1239749E+000  0.4314005E+03  0.7546771E-02  0.1033418E+00
         21   -1    0    0  501  502  0.00000000000E+00  0.00000000000E+00  0.11162947823E+04  0.11162947823E+04  0.00000000000E+00 0. -1.
          2   -1    0    0  503    0 -0.00000000000E+00 -0.00000000000E+00 -0.10852057080E+04  0.10852057080E+04  0.00000000000E+00 0. -1.
         25    1    1    2    0    0  0.38763748716E+03 -0.30719084569E+03 -0.36584476636E+02  0.51146110415E+03  0.12500000000E+03 0.  0.
         21    1    1    2  503  502 -0.27428534187E+03  0.29111713114E+03  0.82884442215E+03  0.92030685586E+03  0.00000000000E+00 0. -1.
          2    1    1    2  501    0 -0.11335214529E+03  0.16073714553E+02 -0.76117087115E+03  0.76973253032E+03  0.00000000000E+00 0. -1.
<mgrwt>
<rscale>  4 0.43140055E+03</rscale>
<asrwt>0</asrwt>
<pdfrwt beam="1">  1       21 0.17173766E+00 0.43140055E+03</pdfrwt>
<pdfrwt beam="2">  1        2 0.16695472E+00 0.43140055E+03</pdfrwt>
<totfact> 0.52343520E+01</totfact>
</mgrwt>
</event>
<event>
 5    0  0.1239749E+000  0.2692640E+03  0.7546771E-02  0.1101702E+00
          3   -1    0    0  503    0 -0.00000000000E+00  0.00000000000E+00  0.12710455124E+04  0.12710455124E+04  0.00000000000E+00 0. -1.
         21   -1    0    0  501  502  0.00000000000E+00 -0.00000000000E+00 -0.45468173893E+03  0.45468173893E+03  0.00000000000E+00 0.  1.
         25    1    1    2    0    0  0.61230795773E+01  0.23699828290E+03 -0.15495793776E+03  0.30958462604E+03  0.12500000000E+03 0.  0.
         21    1    1    2  503  502  0.26511966615E+02 -0.23923155204E+03 -0.15698265344E+03  0.28736418243E+03  0.00000000000E+00 0.  1.
          3    1    1    2  501    0 -0.32635046192E+02  0.22332691341E+01  0.11283043647E+04  0.11287784429E+04  0.00000000000E+00 0. -1.
<mgrwt>
<rscale>  4 0.26926403E+03</rscale>
<asrwt>0</asrwt>
<pdfrwt beam="1">  1       21 0.69951037E-01 0.26926403E+03</pdfrwt>
<pdfrwt beam="2">  1        3 0.19554546E+00 0.26926403E+03</pdfrwt>
<totfact> 0.15122037E+01</totfact>
</mgrwt>
</event>
<event>
 5    0  0.1239749E+000  0.2499833E+03  0.7546771E-02  0.1113315E+00
         21   -1    0    0  503  502  0.00000000000E+00  0.00000000000E+00  0.60356473738E+03  0.60356473738E+03  0.00000000000E+00 0. -1.
         -1   -1    0    0    0  501 -0.00000000000E+00 -0.00000000000E+00 -0.39739962841E+03  0.39739962841E+03  0.00000000000E+00 0.  1.
         25    1    1    2    0    0  0.15645691240E+03  0.14107418028E+03  0.46647170031E+03  0.52687905345E+03  0.12500000000E+03 0.  0.
         21    1    1    2  503  501 -0.26332123853E+03 -0.10211607132E+03 -0.18193290474E+03  0.33595438457E+03  0.00000000000E+00 0. -1.
         -1    1    1    2    0  502  0.10686432613E+03 -0.38958108958E+02 -0.78373686597E+02  0.13813092776E+03  0.00000000000E+00 0.  1.
<mgrwt>
<rscale>  4 0.24998332E+03</rscale>
<asrwt>0</asrwt>
<pdfrwt beam="1">  1       21 0.92856113E-01 0.24998332E+03</pdfrwt>
<pdfrwt beam="2">  1       -1 0.61138404E-01 0.24998332E+03</pdfrwt>
<totfact> 0.24654619E+02</totfact>
</mgrwt>
</event>
<event>
 5    0  0.1239749E+000  0.2633608E+03  0.7546771E-02  0.1105141E+00
          2   -1    0    0  503    0 -0.00000000000E+00  0.00000000000E+00  0.88483466417E+03  0.88483466417E+03  0.00000000000E+00 0. -1.
         21   -1    0    0  501  502  0.00000000000E+00 -0.00000000000E+00 -0.19977067407E+03  0.19977067407E+03  0.00000000000E+00 0. -1.
         25    1    1    2    0    0  0.17073577659E+03  0.18398100804E+03  0.55034408934E+01  0.28045499565E+03  0.12500000000E+03 0.  0.
         21    1    1    2  503  502 -0.99826112445E+02 -0.98037176184E+02  0.67844706333E+03  0.69272430186E+03  0.00000000000E+00 0. -1.
          2    1    1    2  501    0 -0.70909664145E+02 -0.85943831853E+02  0.11134858703E+01  0.11142604073E+03  0.00000000000E+00 0. -1.
<mgrwt>
<rscale>  4 0.26336078E+03</rscale>
<asrwt>0</asrwt>
<pdfrwt beam="1">  1       21 0.30733950E-01 0.26336078E+03</pdfrwt>
<pdfrwt beam="2">  1        2 0.13612841E+00 0.26336078E+03</pdfrwt>
<totfact> 0.39048111E+03</totfact>
</mgrwt>
</event>
<event>
 5    0  0.1239749E+000  0.2141431E+03  0.7546771E-02  0.1138327E+00
         21   -1    0    0  503  502  0.00000000000E+00  0.00000000000E+00  0.37864340461E+03  0.37864340461E+03  0.00000000000E+00 0. -1.
         -4   -1    0    0    0  501 -0.00000000000E+00 -0.00000000000E+00 -0.24368757433E+03  0.24368757433E+03  0.00000000000E+00 0. -1.
         25    1    1    2    0    0  0.19052236417E+03  0.13626321578E+03  0.12934699545E+03  0.29533384577E+03  0.12500000000E+03 0.  0.
         21    1    1    2  503  501 -0.99390430122E+02 -0.11006431191E+03  0.11099097452E+03  0.18523392449E+03  0.00000000000E+00 0. -1.
         -4    1    1    2    0  502 -0.91131934049E+02 -0.26198903863E+02 -0.10538213970E+03  0.14176320868E+03  0.00000000000E+00 0. -1.
<mgrwt>
<rscale>  4 0.21414306E+03</rscale>
<asrwt>0</asrwt>
<pdfrwt beam="1">  1       21 0.58252832E-01 0.21414306E+03</pdfrwt>
<pdfrwt beam="2">  1       -4 0.37490396E-01 0.21414306E+03</pdfrwt>
<totfact> 0.80160977E+02</totfact>
</mgrwt>
</event>
<event>
 5    0  0.1239749E+000  0.3240724E+03  0.7546771E-02  0.1073790E+00
         21   -1    0    0  501  502  0.00000000000E+00  0.00000000000E+00  0.38771436558E+03  0.38771436558E+03  0.00000000000E+00 0. -1.
          1   -1    0    0  503    0 -0.00000000000E+00 -0.00000000000E+00 -0.58796042598E+03  0.58796042598E+03  0.00000000000E+00 0. -1.
         25    1    1    2    0    0  0.30479806265E+03 -0.19747237015E+02  0.24664670613E+03  0.41200899264E+03  0.12500000000E+03 0.  0.
         21    1    1    2  503  502 -0.26716657937E+03  0.62600865918E+02 -0.30248523761E+03  0.40840441785E+03  0.00000000000E+00 0. -1.
          1    1    1    2  501    0 -0.37631483285E+02 -0.42853628903E+02 -0.14440752892E+03  0.15526138108E+03  0.00000000000E+00 0. -1.
<mgrwt>
<rscale>  4 0.32407239E+03</rscale>
<asrwt>0</asrwt>
<pdfrwt beam="1">  1       21 0.59648364E-01 0.32407239E+03</pdfrwt>
<pdfrwt beam="2">  1        1 0.90455450E-01 0.32407239E+03</pdfrwt>
<totfact> 0.99742701E+02</totfact>
</mgrwt>
</event>
<event>
 5    0  0.1239749E+000  0.2088158E+03  0.7546771E-02  0.1142507E+00
         -4   -1    0    0    0  501 -0.00000000000E+00  0.00000000000E+00  0.87377535887E+03  0.87377535887E+03  0.00000000000E+00 0.  1.
         21   -1    0    0  503  502  0.00000000000E+00 -0.00000000000E+00 -0.67862769183E+03  0.67862769183E+03  0.00000000000E+00 0.  1.
         25    1    1    2    0    0 -0.88439902164E+02  0.18144961003E+03 -0.14722963371E+02  0.23788094276E+03  0.12500000000E+03 0.  0.
         21    1    1    2  503  501  0.60477021056E+02 -0.18494609783E+02 -0.54149750594E+03  0.54517801643E+03  0.00000000000E+00 0.  1.
         -4    1    1    2    0  502  0.27962881108E+02 -0.16295500025E+03  0.75136813635E+03  0.76934409152E+03  0.00000000000E+00 0.  1.
<mgrwt>
<rscale>  4 0.20881582E+03</rscale>
<asrwt>0</asrwt>
<pdfrwt beam="1">  1       21 0.10440426E+00 0.20881582E+03</pdfrwt>
<pdfrwt beam="2">  1       -4 0.13442698E+00 0.20881582E+03</pdfrwt>
<totfact> 0.12951060E+01</totfact>
</mgrwt>
</event>
<event>
 5    0  0.1239749E+000  0.2683970E+03  0.7546771E-02  0.1102201E+00
          2   -1    0    0  503    0 -0.00000000000E+00  0.00000000000E+00  0.22746614419E+04  0.22746614419E+04  0.00000000000E+00 0. -1.
         21   -1    0    0  501  502  0.00000000000E+00 -0.00000000000E+00 -0.78659641726E+02  0.78659641726E+02  0.00000000000E+00 0. -1.
         25    1    1    2    0    0  0.23586099006E+03 -0.27956020574E+02  0.18169717347E+03  0.32411542476E+03  0.12500000000E+03 0.  0.
         21    1    1    2  503  502 -0.94948684442E+02  0.25591740441E+02  0.10598547355E+04  0.10644069947E+04  0.00000000000E+00 0. -1.
          2    1    1    2  501    0 -0.14091230562E+03  0.23642801336E+01  0.95444989120E+03  0.96479866423E+03  0.00000000000E+00 0. -1.
<mgrwt>
<rscale>  4 0.26839699E+03</rscale>
<asrwt>0</asrwt>
<pdfrwt beam="1">  1       21 0.12101485E-01 0.26839699E+03</pdfrwt>
<pdfrwt beam="2">  1        2 0.34994786E+00 0.26839699E+03</pdfrwt>
<totfact> 0.38546195E+03</totfact>
</mgrwt>
</event>
<event>
 5    0  0.1239749E+000  0.3448418E+03  0.7546771E-02  0.1064752E+00
          1   -1    0    0  503    0 -0.00000000000E+00  0.00000000000E+00  0.31631842944E+04  0.31631842944E+04  0.00000000000E+00 0.  1.
         21   -1    0    0  501  502  0.00000000000E+00 -0.00000000000E+00 -0.85121480401E+02  0.85121480401E+02  0.00000000000E+00 0. -1.
         25    1    1    2    0    0 -0.11904300019E+03 -0.29588909985E+03  0.45450801843E+03  0.56914333354E+03  0.12500000000E+03 0.  0.
         21    1    1    2  503  502  0.89477633966E+02  0.31473845013E+03  0.94144277455E+03  0.99668502383E+03  0.00000000000E+00 0. -1.
          1    1    1    2  501    0  0.29565366224E+02 -0.18849350285E+02  0.16821120210E+04  0.16824774174E+04  0.00000000000E+00 0.  1.
<mgrwt>
<rscale>  4 0.34484180E+03</rscale>
<asrwt>0</asrwt>
<pdfrwt beam="1">  1       21 0.13095615E-01 0.34484180E+03</pdfrwt>
<pdfrwt beam="2">  1        1 0.48664365E+00 0.34484180E+03</pdfrwt>
<totfact> 0.29461641E+02</totfact>
</mgrwt>
</event>
<event>
 5    0  0.1239749E+000  0.3778892E+03  0.7546771E-02  0.1051717E+00
         21   -1    0    0  501  502  0.00000000000E+00  0.00000000000E+00  0.69665739256E+03  0.69665739256E+03  0.00000000000E+00 0.  1.
          2   -1    0    0  503    0 -0.00000000000E+00 -0.00000000000E+00 -0.11420710527E+04  0.11420710527E+04  0.00000000000E+00 0.  1.
         25    1    1    2    0    0 -0.30217313257E+03 -0.19429424371E+03  0.57586882947E+03  0.69015126164E+03  0.12500000000E+03 0.  0.
         21    1    1    2  503  502  0.28541684250E+03  0.17756268034E+03 -0.38192314372E+03  0.50877948773E+03  0.00000000000E+00 0.  1.
          2    1    1    2  501    0  0.16756290072E+02  0.16731563370E+02 -0.63935934585E+03  0.63979769583E+03  0.00000000000E+00 0.  1.
<mgrwt>
<rscale>  4 0.37788915E+03</rscale>
<asrwt>0</asrwt>
<pdfrwt beam="1">  1       21 0.10717806E+00 0.37788915E+03</pdfrwt>
<pdfrwt beam="2">  1        2 0.17570324E+00 0.37788915E+03</pdfrwt>
<totfact> 0.17146338E+02</totfact>
</mgrwt>
</event>
<event>
 5    0  0.1239749E+000  0.1994085E+03  0.7546771E-02  0.1150239E+00
          2   -1    0    0  503    0 -0.00000000000E+00  0.00000000000E+00  0.12087215510E+04  0.12087215510E+04  0.00000000000E+00 0. -1.
         21   -1    0    0  501  502  0.00000000000E+00 -0.00000000000E+00 -0.35535201960E+03  0.35535201960E+03  0.00000000000E+00 0.  1.
         25    1    1    2    0    0  0.19588243926E+03  0.83450326883E+02 -0.24949656138E+03  0.35100914691E+03  0.12500000000E+03 0.  0.
         21    1    1    2  503  502 -0.61594284198E+02 -0.72798395768E+01 -0.30580156983E+02  0.69151991375E+02  0.00000000000E+00 0.  1.
          2    1    1    2  501    0 -0.13428815507E+03 -0.76170487306E+02  0.11334462497E+04  0.11439124323E+04  0.00000000000E+00 0. -1.
<mgrwt>
<rscale>  4 0.19940853E+03</rscale>
<asrwt>0</asrwt>
<pdfrwt beam="1">  1       21 0.54669542E-01 0.19940853E+03</pdfrwt>
<pdfrwt beam="2">  1        2 0.18595716E+00 0.19940853E+03</pdfrwt>
<totfact> 0.79422692E+02</totfact>
</mgrwt>
</event>
<event>
 5    0  0.1239749E+000  0.2717752E+03  0.7546771E-02  0.1100268E+00
         21   -1    0    0  501  502  0.00000000000E+00  0.00000000000E+00  0.19473326371E+04  0.19473326371E+04  0.00000000000E+00 0. -1.
          2   -1    0    0  503    0 -0.00000000000E+00 -0.00000000000E+00 -0.42371992619E+03  0.42371992619E+03  0.00000000000E+00 0.  1.
         25    1    1    2    0    0 -0.86043314398E+02  0.31103220202E+03  0.16122406418E+04  0.16489661518E+04  0.12500000000E+03 0.  0.
         21    1    1    2  503  502  0.17332876099E+03 -0.86540520626E+02  0.24390622399E+03  0.31148413635E+03  0.00000000000E+00 0. -1.
          2    1    1    2  501    0 -0.87285446590E+02 -0.22449168140E+03 -0.33253415488E+03  0.41060227516E+03  0.00000000000E+00 0.  1.
<mgrwt>
<rscale>  4 0.27177522E+03</rscale>
<asrwt>0</asrwt>
<pdfrwt beam="1">  1       21 0.29958963E+00 0.27177522E+03</pdfrwt>
<pdfrwt beam="2">  1        2 0.65187682E-01 0.27177522E+03</pdfrwt>
<totfact> 0.29383415E+01</totfact>
</mgrwt>
</event>
<event>
 5    0  0.1239749E+000  0.2840359E+03  0.7546771E-02  0.1093505E+00
         21   -1    0    0  501  502  0.00000000000E+00  0.00000000000E+00  0.10633338811E+04  0.10633338811E+04  0.00000000000E+00 0.  1.
          2   -1    0    0  503    0 -0.00000000000E+00 -0.00000000000E+00 -0.17187838656E+03  0.17187838656E+03  0.00000000000E+00 0.  1.
         25    1    1    2    0    0 -0.26774588197E+03 -0.23810921460E+02  0.72937180820E+03  0.78731382046E+03  0.12500000000E+03 0.  0.
         21    1    1    2  503  502  0.23315910393E+03  0.14864313845E+02  0.25649781544E+03  0.34695135811E+03  0.00000000000E+00 0.  1.
          2    1    1    2  501    0  0.34586778048E+02  0.89466076147E+01 -0.94414129143E+02  0.10094708904E+03  0.00000000000E+00 0.  1.
<mgrwt>
<rscale>  4 0.28403595E+03</rscale>
<asrwt>0</asrwt>
<pdfrwt beam="1">  1       21 0.16358982E+00 0.28403595E+03</pdfrwt>
<pdfrwt beam="2">  1        2 0.26442829E-01 0.28403595E+03</pdfrwt>
<totfact> 0.55940880E+02</totfact>
</mgrwt>
</event>
<event>
 5    0  0.1239749E+000  0.2336510E+03  0.7546771E-02  0.1124096E+00
         21   -1    0    0  501  502  0.00000000000E+00  0.00000000000E+00  0.38399036428E+03  0.38399036428E+03  0.00000000000E+00 0. -1.
          1   -1    0    0  503    0 -0.00000000000E+00 -0.00000000000E+00 -0.20211919795E+04  0.20211919795E+04  0.00000000000E+00 0.  1.
         25    1    1    2    0    0 -0.19932646349E+03 -0.80746379503E+02  0.24219116078E+03  0.34717801660E+03  0.12500000000E+03 0.  0.
         21    1    1    2  503  502  0.11866312261E+03  0.13481202608E+03 -0.35323056719E+01  0.17963211357E+03  0.00000000000E+00 0. -1.
          1    1    1    2  501    0  0.80663340883E+02 -0.54065646577E+02 -0.18758604703E+04  0.18783722136E+04  0.00000000000E+00 0.  1.
<mgrwt>
<rscale>  4 0.23365104E+03</rscale>
<asrwt>0</asrwt>
<pdfrwt beam="1">  1       21 0.59075441E-01 0.23365104E+03</pdfrwt>
<pdfrwt beam="2">  1        1 0.31095261E+00 0.23365104E+03</pdfrwt>
<totfact> 0.96721461E+01</totfact>
</mgrwt>
</event>
<event>
 5    0  0.1239749E+000  0.2369620E+03  0.7546771E-02  0.1121833E+00
         21   -1    0    0  501  502  0.00000000000E+00  0.00000000000E+00  0.40785375846E+03  0.40785375846E+03  0.00000000000E+00 0. -1.
          4   -1    0    0  503    0 -0.00000000000E+00 -0.00000000000E+00 -0.54538305514E+03  0.54538305514E+03  0.00000000000E+00 0.  1.
         25    1    1    2    0    0  0.26065689695E+02 -0.20342059117E+03  0.24095803081E+03  0.34021335909E+03  0.12500000000E+03 0.  0.
         21    1    1    2  503  502  0.14439216824E+02  0.19693571576E+03  0.32390293961E+02  0.20010321903E+03  0.00000000000E+00 0. -1.
          4    1    1    2  501    0 -0.40504906519E+02  0.64848754074E+01 -0.41087762145E+03  0.41292023548E+03  0.00000000000E+00 0.  1.
<mgrwt>
<rscale>  4 0.23696203E+03</rscale>
<asrwt>0</asrwt>
<pdfrwt beam="1">  1       21 0.62746732E-01 0.23696203E+03</pdfrwt>
<pdfrwt beam="2">  1        4 0.83905086E-01 0.23696203E+03</pdfrwt>
<totfact> 0.12516382E+02</totfact>
</mgrwt>
</event>
<event>
 5    0  0.1239749E+000  0.2496798E+03  0.7546771E-02  0.1113507E+00
         21   -1    0    0  501  502  0.00000000000E+00  0.00000000000E+00  0.40348582565E+03  0.40348582565E+03  0.00000000000E+00 0.  1.
          1   -1    0    0  503    0 -0.00000000000E+00 -0.00000000000E+00 -0.27533668319E+03  0.27533668319E+03  0.00000000000E+00 0. -1.
         25    1    1    2    0    0 -0.13169991504E+03  0.16829625797E+03  0.28726966400E+03  0.37923259080E+03  0.12500000000E+03 0.  0.
         21    1    1    2  503  502  0.96020286151E+01  0.24092559134E+02 -0.17932373906E+02  0.31531260569E+02  0.00000000000E+00 0.  1.
          1    1    1    2  501    0  0.12209788643E+03 -0.19238881710E+03 -0.14118814764E+03  0.26805865748E+03  0.00000000000E+00 0. -1.
<mgrwt>
<rscale>  4 0.24967981E+03</rscale>
<asrwt>0</asrwt>
<pdfrwt beam="1">  1       21 0.62074743E-01 0.24967981E+03</pdfrwt>
<pdfrwt beam="2">  1        1 0.42359489E-01 0.24967981E+03</pdfrwt>
<totfact> 0.25175834E+03</totfact>
</mgrwt>
</event>
<event>
 5    0  0.1239749E+000  0.3312650E+03  0.7546771E-02  0.1070579E+00
         -4   -1    0    0    0  501 -0.00000000000E+00  0.00000000000E+00  0.37969323224E+03  0.37969323224E+03  0.00000000000E+00 0. -1.
         21   -1    0    0  503  502  0.00000000000E+00 -0.00000000000E+00 -0.13510561741E+04  0.13510561741E+04  0.00000000000E+00 0. -1.
         25    1    1    2    0    0 -0.21267699535E+03  0.19876380012E+03 -0.63291213485E+03  0.70777208410E+03  0.12500000000E+03 0.  0.
         21    1    1    2  503  501  0.20962158591E+03 -0.24706940193E+03 -0.64011855323E+03  0.71745122540E+03  0.00000000000E+00 0. -1.
         -4    1    1    2    0  502  0.30554094444E+01  0.48305601812E+02  0.30166774626E+03  0.30552609680E+03  0.00000000000E+00 0. -1.
<mgrwt>
<rscale>  4 0.33126503E+03</rscale>
<asrwt>0</asrwt>
<pdfrwt beam="1">  1       21 0.20785480E+00 0.33126503E+03</pdfrwt>
<pdfrwt beam="2">  1       -4 0.58414342E-01 0.33126503E+03</pdfrwt>
<totfact> 0.13133836E+01</totfact>
</mgrwt>
</event>
<event>
 5    0  0.1239749E+000  0.3216471E+03  0.7546771E-02  0.1074894E+00
          2   -1    0    0  503    0 -0.00000000000E+00  0.00000000000E+00  0.23188392004E+04  0.23188392004E+04  0.00000000000E+00 0.  1.
         21   -1    0    0  501  502  0.00000000000E+00 -0.00000000000E+00 -0.10861145697E+03  0.10861145697E+03  0.00000000000E+00 0.  1.
         25    1    1    2    0    0  0.32340593338E+03 -0.77012124411E+02  0.51603101078E+03  0.62644654133E+03  0.12500000000E+03 0.  0.
         21    1    1    2  503  502 -0.24482340179E+03  0.12921717022E+03  0.31815625174E+03  0.42173329921E+03  0.00000000000E+00 0.  1.
          2    1    1    2  501    0 -0.78582531591E+02 -0.52205045813E+02  0.13760404809E+04  0.13792708168E+04  0.00000000000E+00 0.  1.
<mgrwt>
<rscale>  4 0.32164706E+03</rscale>
<asrwt>0</asrwt>
<pdfrwt beam="1">  1       21 0.16709457E-01 0.32164706E+03</pdfrwt>
<pdfrwt beam="2">  1        2 0.35674446E+00 0.32164706E+03</pdfrwt>
<totfact> 0.19783891E+03</totfact>
</mgrwt>
</event>
<event>
 5    0  0.1239749E+000  0.2167960E+03  0.7546771E-02  0.1136295E+00
          2   -1    0    0  503    0 -0.00000000000E+00  0.00000000000E+00  0.43407868816E+04  0.43407868816E+04  0.00000000000E+00 0.  1.
         21   -1    0    0  501  502  0.00000000000E+00 -0.00000000000E+00 -0.49200597934E+02  0.49200597934E+02  0.00000000000E+00 0.  1.
         25    1    1    2    0    0 -0.26005162104E+03 -0.95731307308E+02  0.15673250413E+04  0.15965350337E+04  0.12500000000E+03 0.  0.
         21    1    1    2  503  502  0.16591186346E+03 -0.37281064185E+01  0.17743970244E+03  0.24295162731E+03  0.00000000000E+00 0.  1.
          2    1    1    2  501    0  0.94139757590E+02  0.99459413727E+02  0.25468215399E+04  0.25505008185E+04  0.00000000000E+00 0.  1.
<mgrwt>
<rscale>  4 0.21679598E+03</rscale>
<asrwt>0</asrwt>
<pdfrwt beam="1">  1       21 0.75693262E-02 0.21679598E+03</pdfrwt>
<pdfrwt beam="2">  1        2 0.66781306E+00 0.21679598E+03</pdfrwt>
<totfact> 0.41141200E+02</totfact>
</mgrwt>
</event>
<event>
 5    0  0.1239749E+000  0.2280798E+03  0.7546771E-02  0.1127999E+00
         21   -1    0    0  501  502  0.00000000000E+00  0.00000000000E+00  0.28257651968E+03  0.28257651968E+03  0.00000000000E+00 0. -1.
          2   -1    0    0  503    0 -0.00000000000E+00 -0.00000000000E+00 -0.55424505163E+03  0.55424505163E+03  0.00000000000E+00 0. -1.
         25    1    1    2    0    0 -0.58820560129E+02  0.19410908643E+03  0.15521622255E+03  0.28435061362E+03  0.12500000000E+03 0.  0.
         21    1    1    2  503  502  0.57250879580E+02 -0.15936829688E+03 -0.53672445430E+02  0.17764191133E+03  0.00000000000E+00 0. -1.
          2    1    1    2  501    0  0.15696805492E+01 -0.34740789549E+02 -0.37321230906E+03  0.37482904635E+03  0.00000000000E+00 0. -1.
<mgrwt>
<rscale>  4 0.22807983E+03</rscale>
<asrwt>0</asrwt>
<pdfrwt beam="1">  1       21 0.43473311E-01 0.22807983E+03</pdfrwt>
<pdfrwt beam="2">  1        2 0.85268469E-01 0.22807983E+03</pdfrwt>
<totfact> 0.34862967E+03</totfact>
</mgrwt>
</event>
<event>
 5    0  0.1239749E+000  0.2981590E+03  0.7546771E-02  0.1086165E+00
         21   -1    0    0  501  502  0.00000000000E+00  0.00000000000E+00  0.12616571241E+03  0.12616571241E+03  0.00000000000E+00 0.  1.
          2   -1    0    0  503    0 -0.00000000000E+00 -0.00000000000E+00 -0.23371259783E+04  0.23371259783E+04  0.00000000000E+00 0. -1.
         25    1    1    2    0    0  0.27903893037E+03 -0.42353805097E+02 -0.19511302700E+03  0.36517210021E+03  0.12500000000E+03 0.  0.
         21    1    1    2  503  502 -0.24219105489E+03  0.85276208687E+02 -0.36479521628E+03  0.44609874317E+03  0.00000000000E+00 0.  1.
          2    1    1    2  501    0 -0.36847875476E+02 -0.42922403590E+02 -0.16510520226E+04  0.16520208473E+04  0.00000000000E+00 0. -1.
<mgrwt>
<rscale>  4 0.29815899E+03</rscale>
<asrwt>0</asrwt>
<pdfrwt beam="1">  1       21 0.19410110E-01 0.29815899E+03</pdfrwt>
<pdfrwt beam="2">  1        2 0.35955784E+00 0.29815899E+03</pdfrwt>
<totfact> 0.14759179E+03</totfact>
</mgrwt>
</event>
<event>
 5    0  0.1239749E+000  0.2694561E+03  0.7546771E-02  0.1101591E+00
         21   -1    0    0  501  502  0.00000000000E+00  0.00000000000E+00  0.18020260025E+04  0.18020260025E+04  0.00000000000E+00 0.  1.
          4   -1    0    0  503    0 -0.00000000000E+00 -0.00000000000E+00 -0.80996295275E+03  0.80996295275E+03  0.00000000000E+00 0.  1.
         25    1    1    2    0    0  0.12361349157E+03  0.20219554930E+03  0.13568302944E+04  0.13830317362E+04  0.12500000000E+03 0.  0.
         21    1    1    2  503  502 -0.82417893963E+02 -0.23310773759E+03  0.39578310512E+03  0.46666496855E+03  0.00000000000E+00 0.  1.
          4    1    1    2  501    0 -0.41195597603E+02  0.30912188290E+02 -0.76055034978E+03  0.76229225051E+03  0.00000000000E+00 0.  1.
<mgrwt>
<rscale>  4 0.26945611E+03</rscale>
<asrwt>0</asrwt>
<pdfrwt beam="1">  1       21 0.27723477E+00 0.26945611E+03</pdfrwt>
<pdfrwt beam="2">  1        4 0.12460969E+00 0.26945611E+03</pdfrwt>
<totfact> 0.91100139E-01</totfact>
</mgrwt>
</event>
<event>
 5    0  0.1239749E+000  0.3007243E+03  0.7546771E-02  0.1084879E+00
         21   -1    0    0  501  502  0.00000000000E+00  0.00000000000E+00  0.99824431174E+02  0.99824431174E+02  0.00000000000E+00 0.  1.
          1   -1    0    0  503    0 -0.00000000000E+00 -0.00000000000E+00 -0.15537806677E+04  0.15537806677E+04  0.00000000000E+00 0. -1.
         25    1    1    2    0    0  0.22256977397E+03  0.10618093268E+03 -0.70585011728E+03  0.75806403609E+03  0.12500000000E+03 0.  0.
         21    1    1    2  503  502 -0.23998037439E+03 -0.15235391457E+03 -0.20565677660E+03  0.35085182790E+03  0.00000000000E+00 0.  1.
          1    1    1    2  501    0  0.17410600425E+02  0.46172981886E+02 -0.54244934265E+03  0.54468923489E+03  0.00000000000E+00 0. -1.
<mgrwt>
<rscale>  4 0.30072425E+03</rscale>
<asrwt>0</asrwt>
<pdfrwt beam="1">  1       21 0.15357606E-01 0.30072425E+03</pdfrwt>
<pdfrwt beam="2">  1        1 0.23904316E+00 0.30072425E+03</pdfrwt>
<totfact> 0.26944156E+03</totfact>
</mgrwt>
</event>
<event>
 5    0  0.1239749E+000  0.3104701E+03  0.7546771E-02  0.1080121E+00
         -2   -1    0    0    0  501 -0.00000000000E+00  0.00000000000E+00  0.36643227788E+03  0.36643227788E+03  0.00000000000E+00 0. -1.
         21   -1    0    0  503  502  0.00000000000E+00 -0.00000000000E+00 -0.14052081264E+04  0.14052081264E+04  0.00000000000E+00 0. -1.
         25    1    1    2    0    0  0.61756491774E+02 -0.30693360550E+03 -0.45469922675E+03  0.56603753344E+03  0.12500000000E+03 0.  0.
         21    1    1    2  503  501 -0.12115810566E+03  0.24779943978E+03 -0.86736856098E+03  0.91017145061E+03  0.00000000000E+00 0. -1.
         -2    1    1    2    0  502  0.59401613887E+02  0.59134165717E+02  0.28329193917E+03  0.29543142028E+03  0.00000000000E+00 0. -1.
<mgrwt>
<rscale>  4 0.31047008E+03</rscale>
<asrwt>0</asrwt>
<pdfrwt beam="1">  1       21 0.21618587E+00 0.31047008E+03</pdfrwt>
<pdfrwt beam="2">  1       -2 0.56374196E-01 0.31047008E+03</pdfrwt>
<totfact> 0.23688281E+01</totfact>
</mgrwt>
</event>
<event>
 5    0  0.1239749E+000  0.2527506E+03  0.7546771E-02  0.1111579E+00
         21   -1    0    0  501  502  0.00000000000E+00  0.00000000000E+00  0.38776647629E+02  0.38776647629E+02  0.00000000000E+00 0.  1.
          1   -1    0    0  503    0 -0.00000000000E+00 -0.00000000000E+00 -0.17806432717E+04  0.17806432717E+04  0.00000000000E+00 0. -1.
         25    1    1    2    0    0  0.21028464805E+03  0.63546894906E+02 -0.55247505451E+03  0.60754549370E+03  0.12500000000E+03 0.  0.
         21    1    1    2  503  502 -0.10786937362E+03 -0.37672540245E+02 -0.41996230601E+03  0.43522794088E+03  0.00000000000E+00 0. -1.
          1    1    1    2  501    0 -0.10241527443E+03 -0.25874354661E+02 -0.76942926358E+03  0.77664648478E+03  0.00000000000E+00 0. -1.
<mgrwt>
<rscale>  4 0.25275055E+03</rscale>
<asrwt>0</asrwt>
<pdfrwt beam="1">  1       21 0.59656404E-02 0.25275055E+03</pdfrwt>
<pdfrwt beam="2">  1        1 0.27394501E+00 0.25275055E+03</pdfrwt>
<totfact> 0.10432639E+04</totfact>
</mgrwt>
</event>
<event>
 5    0  0.1239749E+000  0.2828329E+03  0.7546771E-02  0.1094152E+00
          2   -1    0    0  503    0 -0.00000000000E+00  0.00000000000E+00  0.28301211989E+04  0.28301211989E+04  0.00000000000E+00 0.  1.
         21   -1    0    0  501  502  0.00000000000E+00 -0.00000000000E+00 -0.15411502865E+03  0.15411502865E+03  0.00000000000E+00 0.  1.
         25    1    1    2    0    0 -0.25426380558E+03 -0.12327582026E+02 -0.10730263739E+02  0.28379956072E+03  0.12500000000E+03 0.  0.
         21    1    1    2  503  502  0.23770112659E+03  0.37328085690E+02  0.23052194861E+04  0.23177428871E+04  0.00000000000E+00 0.  1.
          2    1    1    2  501    0  0.16562678986E+02 -0.25000503665E+02  0.38151694788E+03  0.38269377972E+03  0.00000000000E+00 0.  1.
<mgrwt>
<rscale>  4 0.28283294E+03</rscale>
<asrwt>0</asrwt>
<pdfrwt beam="1">  1       21 0.23710006E-01 0.28283294E+03</pdfrwt>
<pdfrwt beam="2">  1        2 0.43540323E+00 0.28283294E+03</pdfrwt>
<totfact> 0.54099375E+02</totfact>
</mgrwt>
</event>
<event>
 5    0  0.1239749E+000  0.2663269E+03  0.7546771E-02  0.1103400E+00
         21   -1    0    0  501  502  0.00000000000E+00  0.00000000000E+00  0.17648422618E+03  0.17648422618E+03  0.00000000000E+00 0.  1.
          1   -1    0    0  503    0 -0.00000000000E+00 -0.00000000000E+00 -0.29074714021E+04  0.29074714021E+04  0.00000000000E+00 0.  1.
         25    1    1    2    0    0  0.16316910214E+03 -0.14057254123E+03  0.10116629642E+02  0.24922307565E+03  0.12500000000E+03 0.  0.
         21    1    1    2  503  502  0.12102247344E+03 -0.17506437467E+03 -0.16534893893E+04  0.16671296095E+04  0.00000000000E+00 0.  1.
          1    1    1    2  501    0 -0.28419157558E+03  0.31563691590E+03 -0.10876144162E+04  0.11676029431E+04  0.00000000000E+00 0.  1.
<mgrwt>
<rscale>  4 0.26632693E+03</rscale>
<asrwt>0</asrwt>
<pdfrwt beam="1">  1       21 0.27151420E-01 0.26632693E+03</pdfrwt>
<pdfrwt beam="2">  1        1 0.44730328E+00 0.26632693E+03</pdfrwt>
<totfact> 0.11858944E+02</totfact>
</mgrwt>
</event>
<event>
 5    0  0.1239749E+000  0.2517982E+03  0.7546771E-02  0.1112174E+00
         21   -1    0    0  501  502  0.00000000000E+00  0.00000000000E+00  0.13607806230E+03  0.13607806230E+03  0.00000000000E+00 0.  1.
          2   -1    0    0  503    0 -0.00000000000E+00 -0.00000000000E+00 -0.11323871828E+04  0.11323871828E+04  0.00000000000E+00 0. -1.
         25    1    1    2    0    0 -0.17174412777E+03 -0.16153056173E+03 -0.43892356539E+03  0.51367992374E+03  0.12500000000E+03 0.  0.
         21    1    1    2  503  502  0.14955090474E+03  0.15364409555E+03 -0.18305270982E+02  0.21519076224E+03  0.00000000000E+00 0.  1.
          2    1    1    2  501    0  0.22193223023E+02  0.78864661862E+01 -0.53908028413E+03  0.53959455912E+03  0.00000000000E+00 0. -1.
<mgrwt>
<rscale>  4 0.25179817E+03</rscale>
<asrwt>0</asrwt>
<pdfrwt beam="1">  1       21 0.20935086E-01 0.25179817E+03</pdfrwt>
<pdfrwt beam="2">  1        2 0.17421341E+00 0.25179817E+03</pdfrwt>
<totfact> 0.57888223E+03</totfact>
</mgrwt>
</event>
<event>
 5    0  0.1239749E+000  0.3322145E+03  0.7546771E-02  0.1070161E+00
         21   -1    0    0  501  502  0.00000000000E+00  0.00000000000E+00  0.12749203300E+03  0.12749203300E+03  0.00000000000E+00 0. -1.
          2   -1    0    0  503    0 -0.00000000000E+00 -0.00000000000E+00 -0.25210936123E+04  0.25210936123E+04  0.00000000000E+00 0. -1.
         25    1    1    2    0    0  0.13405800602E+03 -0.16035817494E+03 -0.77458398099E+03  0.81196775605E+03  0.12500000000E+03 0.  0.
         21    1    1    2  503  502 -0.32827451671E+03  0.13217815777E+03 -0.20485298455E+03  0.40890092810E+03  0.00000000000E+00 0. -1.
          2    1    1    2  501    0  0.19421651070E+03  0.28180017166E+02 -0.14141646137E+04  0.14277169612E+04  0.00000000000E+00 0. -1.
<mgrwt>
<rscale>  4 0.33221452E+03</rscale>
<asrwt>0</asrwt>
<pdfrwt beam="1">  1       21 0.19614159E-01 0.33221452E+03</pdfrwt>
<pdfrwt beam="2">  1        2 0.38786055E+00 0.33221452E+03</pdfrwt>
<totfact> 0.11309667E+03</totfact>
</mgrwt>
</event>
<event>
 5    0  0.1239749E+000  0.3308117E+03  0.7546771E-02  0.1070778E+00
          3   -1    0    0  503    0 -0.00000000000E+00  0.00000000000E+00  0.14867774579E+04  0.14867774579E+04  0.00000000000E+00 0. -1.
         21   -1    0    0  501  502  0.00000000000E+00 -0.00000000000E+00 -0.25280124454E+04  0.25280124454E+04  0.00000000000E+00 0.  1.
         25    1    1    2    0    0  0.81548652244E+02  0.32331391134E+03 -0.13330398043E+04  0.13797833843E+04  0.12500000000E+03 0.  0.
         21    1    1    2  503  502 -0.46366316899E+02 -0.28263882240E+03 -0.11535884977E+04  0.11886130410E+04  0.00000000000E+00 0.  1.
          3    1    1    2  501    0 -0.35182335346E+02 -0.40675088937E+02  0.14453933145E+04  0.14463934780E+04  0.00000000000E+00 0. -1.
<mgrwt>
<rscale>  4 0.33081169E+03</rscale>
<asrwt>0</asrwt>
<pdfrwt beam="1">  1       21 0.38892499E+00 0.33081169E+03</pdfrwt>
<pdfrwt beam="2">  1        3 0.22873499E+00 0.33081169E+03</pdfrwt>
<totfact> 0.45599250E-02</totfact>
</mgrwt>
</event>
<event>
 5    0  0.1239749E+000  0.2632356E+03  0.7546771E-02  0.1105215E+00
         21   -1    0    0  503  502  0.00000000000E+00  0.00000000000E+00  0.24009405332E+03  0.24009405332E+03  0.00000000000E+00 0. -1.
         -3   -1    0    0    0  501 -0.00000000000E+00 -0.00000000000E+00 -0.10143291276E+04  0.10143291276E+04  0.00000000000E+00 0.  1.
         25    1    1    2    0    0  0.12423854444E+03 -0.30748440883E+03 -0.90054023755E+02  0.36567281112E+03  0.12500000000E+03 0.  0.
         21    1    1    2  503  501 -0.52542817861E+02  0.18283069111E+03 -0.62480686748E+00  0.19023196289E+03  0.00000000000E+00 0. -1.
         -3    1    1    2    0  502 -0.71695726574E+02  0.12465371772E+03 -0.68355624364E+03  0.69851840689E+03  0.00000000000E+00 0.  1.
<mgrwt>
<rscale>  4 0.26323556E+03</rscale>
<asrwt>0</asrwt>
<pdfrwt beam="1">  1       21 0.36937547E-01 0.26323556E+03</pdfrwt>
<pdfrwt beam="2">  1       -3 0.15605064E+00 0.26323556E+03</pdfrwt>
<totfact> 0.10597991E+02</totfact>
</mgrwt>
</event>
<event>
 5    0  0.1239749E+000  0.2433255E+03  0.7546771E-02  0.1117597E+00
         -2   -1    0    0    0  501 -0.00000000000E+00  0.00000000000E+00  0.11425934639E+03  0.11425934639E+03  0.00000000000E+00 0. -1.
         21   -1    0    0  503  502  0.00000000000E+00 -0.00000000000E+00 -0.21623844756E+04  0.21623844756E+04  0.00000000000E+00 0. -1.
         25    1    1    2    0    0  0.15047571711E+02 -0.21623078932E+03 -0.16944831803E+04  0.17128573881E+04  0.12500000000E+03 0.  0.
         21    1    1    2  503  501 -0.14760775142E+03  0.16188563137E+03 -0.35883423597E+03  0.42042480282E+03  0.00000000000E+00 0. -1.
         -2    1    1    2    0  502  0.13256017971E+03  0.54345157955E+02  0.51922869886E+01  0.14336163113E+03  0.00000000000E+00 0. -1.
<mgrwt>
<rscale>  4 0.24332546E+03</rscale>
<asrwt>0</asrwt>
<pdfrwt beam="1">  1       21 0.33267453E+00 0.24332546E+03</pdfrwt>
<pdfrwt beam="2">  1       -2 0.17578361E-01 0.24332546E+03</pdfrwt>
<totfact> 0.43459274E+01</totfact>
</mgrwt>
</event>
<event>
 5    0  0.1239749E+000  0.3046080E+03  0.7546771E-02  0.1082960E+00
         -3   -1    0    0    0  501 -0.00000000000E+00  0.00000000000E+00  0.11158134511E+04  0.11158134511E+04  0.00000000000E+00 0. -1.
         21   -1    0    0  503  502  0.00000000000E+00 -0.00000000000E+00 -0.13301472469E+03  0.13301472469E+03  0.00000000000E+00 0. -1.
         25    1    1    2    0    0 -0.13570134810E+03  0.24241659679E+03  0.12574319189E+03  0.32957095227E+03  0.12500000000E+03 0.  0.
         21    1    1    2  503  501  0.11544178709E+03 -0.25331582202E+03  0.60294225564E+03  0.66410471729E+03  0.00000000000E+00 0. -1.
         -3    1    1    2    0  502  0.20259561012E+02  0.10899225230E+02  0.25411327884E+03  0.25515250617E+03  0.00000000000E+00 0. -1.
<mgrwt>
<rscale>  4 0.30460799E+03</rscale>
<asrwt>0</asrwt>
<pdfrwt beam="1">  1       21 0.20463805E-01 0.30460799E+03</pdfrwt>
<pdfrwt beam="2">  1       -3 0.17166360E+00 0.30460799E+03</pdfrwt>
<totfact> 0.25866824E+02</totfact>
</mgrwt>
</event>
<event>
 5    0  0.1239749E+000  0.3419103E+03  0.7546771E-02  0.1065985E+00
         21   -1    0    0  501  502  0.00000000000E+00  0.00000000000E+00  0.19839950631E+03  0.19839950631E+03  0.00000000000E+00 0. -1.
          2   -1    0    0  503    0 -0.00000000000E+00 -0.00000000000E+00 -0.10776959202E+04  0.10776959202E+04  0.00000000000E+00 0. -1.
         25    1    1    2    0    0  0.30419719043E+03  0.12977491108E+03 -0.26972900869E+03  0.44469787085E+03  0.12500000000E+03 0.  0.
         21    1    1    2  503  502 -0.29277833106E+03 -0.10439055156E+03 -0.10800249757E+03  0.32906090298E+03  0.00000000000E+00 0. -1.
          2    1    1    2  501    0 -0.11418859371E+02 -0.25384359523E+02 -0.50156490763E+03  0.50233665268E+03  0.00000000000E+00 0. -1.
<mgrwt>
<rscale>  4 0.34191031E+03</rscale>
<asrwt>0</asrwt>
<pdfrwt beam="1">  1       21 0.30523001E-01 0.34191031E+03</pdfrwt>
<pdfrwt beam="2">  1        2 0.16579937E+00 0.34191031E+03</pdfrwt>
<totfact> 0.29320787E+03</totfact>
</mgrwt>
</event>
<event>
 5    0  0.1239749E+000  0.2730657E+03  0.7546771E-02  0.1099538E+00
         21   -1    0    0  501  502  0.00000000000E+00  0.00000000000E+00  0.39058169878E+03  0.39058169878E+03  0.00000000000E+00 0. -1.
          2   -1    0    0  503    0 -0.00000000000E+00 -0.00000000000E+00 -0.75977454681E+03  0.75977454681E+03  0.00000000000E+00 0.  1.
         25    1    1    2    0    0 -0.38719116444E+02  0.28477015211E+03  0.21403402578E+03  0.37951123001E+03  0.12500000000E+03 0.  0.
         21    1    1    2  503  502  0.11898596243E+02 -0.18881399256E+03 -0.10460549867E+02  0.18947750126E+03  0.00000000000E+00 0. -1.
          2    1    1    2  501    0  0.26820520201E+02 -0.95956159547E+02 -0.57276632394E+03  0.58136751431E+03  0.00000000000E+00 0.  1.
<mgrwt>
<rscale>  4 0.27306574E+03</rscale>
<asrwt>0</asrwt>
<pdfrwt beam="1">  1       21 0.60089493E-01 0.27306574E+03</pdfrwt>
<pdfrwt beam="2">  1        2 0.11688839E+00 0.27306574E+03</pdfrwt>
<totfact> 0.11906165E+03</totfact>
</mgrwt>
</event>
<event>
 5    0  0.1239749E+000  0.2350145E+03  0.7546771E-02  0.1123159E+00
          1   -1    0    0  503    0 -0.00000000000E+00  0.00000000000E+00  0.88185608603E+03  0.88185608603E+03  0.00000000000E+00 0. -1.
         21   -1    0    0  501  502  0.00000000000E+00 -0.00000000000E+00 -0.12869249564E+03  0.12869249564E+03  0.00000000000E+00 0. -1.
         25    1    1    2    0    0 -0.93089542180E+02 -0.18090674965E+03  0.11489098705E+03  0.26498651633E+03  0.12500000000E+03 0.  0.
         21    1    1    2  503  502 -0.37628708702E+02  0.21555630226E+03  0.23914148263E+03  0.32414362230E+03  0.00000000000E+00 0. -1.
          1    1    1    2  501    0  0.13071825088E+03 -0.34649552615E+02  0.39913112070E+03  0.42141844303E+03  0.00000000000E+00 0. -1.
<mgrwt>
<rscale>  4 0.23501451E+03</rscale>
<asrwt>0</asrwt>
<pdfrwt beam="1">  1       21 0.19798846E-01 0.23501451E+03</pdfrwt>
<pdfrwt beam="2">  1        1 0.13567016E+00 0.23501451E+03</pdfrwt>
<totfact> 0.51284806E+03</totfact>
</mgrwt>
</event>
<event>
 5    0  0.1239749E+000  0.3256742E+03  0.7546771E-02  0.1074183E+00
          2   -1    0    0  503    0 -0.00000000000E+00  0.00000000000E+00  0.16898393886E+04  0.16898393886E+04  0.00000000000E+00 0.  1.
         21   -1    0    0  501  502  0.00000000000E+00 -0.00000000000E+00 -0.16302168607E+03  0.16302168607E+03  0.00000000000E+00 0.  1.
         25    1    1    2    0    0  0.25150262356E+03  0.14464436128E+03  0.25850188691E+02  0.31696812642E+03  0.12500000000E+03 0.  0.
         21    1    1    2  503  502 -0.11846327750E+03 -0.12761661365E+03  0.59178005456E+03  0.61686561030E+03  0.00000000000E+00 0.  1.
          2    1    1    2  501    0 -0.13303934606E+03 -0.17027747630E+02  0.90918745926E+03  0.91902733793E+03  0.00000000000E+00 0.  1.
<mgrwt>
<rscale>  4 0.32320578E+03</rscale>
<asrwt>0</asrwt>
<pdfrwt beam="1">  1       21 0.25080260E-01 0.32567418E+03</pdfrwt>
<pdfrwt beam="2">  1        2 0.25997528E+00 0.32567418E+03</pdfrwt>
<totfact> 0.19778727E+03</totfact>
</mgrwt>
</event>
<event>
 5    0  0.1239749E+000  0.2048494E+03  0.7546771E-02  0.1145711E+00
          1   -1    0    0  503    0 -0.00000000000E+00  0.00000000000E+00  0.74373735323E+03  0.74373735323E+03  0.00000000000E+00 0.  1.
         21   -1    0    0  501  502  0.00000000000E+00 -0.00000000000E+00 -0.26679161371E+03  0.26679161371E+03  0.00000000000E+00 0.  1.
         25    1    1    2    0    0  0.16249277281E+03 -0.14067576552E+03 -0.12303393127E+03  0.27740930133E+03  0.12500000000E+03 0.  0.
         21    1    1    2  503  502 -0.15158537473E+02  0.77935036125E+02 -0.28655658520E+02  0.84408517812E+02  0.00000000000E+00 0.  1.
          1    1    1    2  501    0 -0.14733423533E+03  0.62740729395E+02  0.62863532931E+03  0.64871114780E+03  0.00000000000E+00 0.  1.
<mgrwt>
<rscale>  4 0.20484936E+03</rscale>
<asrwt>0</asrwt>
<pdfrwt beam="1">  1       21 0.41044864E-01 0.20484936E+03</pdfrwt>
<pdfrwt beam="2">  1        1 0.11442113E+00 0.20484936E+03</pdfrwt>
<totfact> 0.16331261E+03</totfact>
</mgrwt>
</event>
<event>
 5    0  0.1239749E+000  0.2418866E+03  0.7546771E-02  0.1118542E+00
         21   -1    0    0  501  502  0.00000000000E+00  0.00000000000E+00  0.12397348296E+03  0.12397348296E+03  0.00000000000E+00 0. -1.
          2   -1    0    0  503    0 -0.00000000000E+00 -0.00000000000E+00 -0.18055956665E+04  0.18055956665E+04  0.00000000000E+00 0. -1.
         25    1    1    2    0    0 -0.22260822088E+02  0.21225923600E+03 -0.17335165526E+02  0.24794159682E+03  0.12500000000E+03 0.  0.
         21    1    1    2  503  502  0.31420247899E+02 -0.46546985187E+02 -0.77179382322E+03  0.77383432294E+03  0.00000000000E+00 0. -1.
          2    1    1    2  501    0 -0.91594258110E+01 -0.16571225081E+03 -0.89249319484E+03  0.90779322975E+03  0.00000000000E+00 0. -1.
<mgrwt>
<rscale>  4 0.24188663E+03</rscale>
<asrwt>0</asrwt>
<pdfrwt beam="1">  1       21 0.19072843E-01 0.24188663E+03</pdfrwt>
<pdfrwt beam="2">  1        2 0.27778395E+00 0.24188663E+03</pdfrwt>
<totfact> 0.29897968E+03</totfact>
</mgrwt>
</event>
<event>
 5    0  0.1239749E+000  0.3235522E+03  0.7546771E-02  0.1074026E+00
          1   -1    0    0  503    0 -0.00000000000E+00  0.00000000000E+00  0.13240454760E+04  0.13240454760E+04  0.00000000000E+00 0.  1.
         21   -1    0    0  501  502  0.00000000000E+00 -0.00000000000E+00 -0.79664351495E+03  0.79664351495E+03  0.00000000000E+00 0.  1.
         25    1    1    2    0    0  0.43935332262E+02 -0.29279796044E+03 -0.70881960842E+03  0.77827449935E+03  0.12500000000E+03 0.  0.
         21    1    1    2  503  502 -0.58234085144E+01  0.33858414970E+03  0.50056387683E+03  0.60434868520E+03  0.00000000000E+00 0.  1.
          1    1    1    2  501    0 -0.38111923748E+02 -0.45786189262E+02  0.73565769260E+03  0.73806580637E+03  0.00000000000E+00 0.  1.
<mgrwt>
<rscale>  4 0.32355223E+03</rscale>
<asrwt>0</asrwt>
<pdfrwt beam="1">  1       21 0.12256054E+00 0.32355223E+03</pdfrwt>
<pdfrwt beam="2">  1        1 0.20369930E+00 0.32355223E+03</pdfrwt>
<totfact> 0.48130397E+01</totfact>
</mgrwt>
</event>
<event>
 5    0  0.1239749E+000  0.2722008E+03  0.7546771E-02  0.1100027E+00
          1   -1    0    0  503    0 -0.00000000000E+00  0.00000000000E+00  0.14460469102E+04  0.14460469102E+04  0.00000000000E+00 0. -1.
         21   -1    0    0  501  502  0.00000000000E+00 -0.00000000000E+00 -0.10200782223E+04  0.10200782223E+04  0.00000000000E+00 0.  1.
         25    1    1    2    0    0 -0.11820331865E+02  0.24837869861E+03 -0.94684172792E+03  0.98689713542E+03  0.12500000000E+03 0.  0.
         21    1    1    2  503  502  0.39702899046E+02 -0.18262577143E+03  0.11510020207E+03  0.21949156954E+03  0.00000000000E+00 0. -1.
          1    1    1    2  501    0 -0.27882567181E+02 -0.65752927184E+02  0.12577102137E+04  0.12597364275E+04  0.00000000000E+00 0. -1.
<mgrwt>
<rscale>  4 0.27220082E+03</rscale>
<asrwt>0</asrwt>
<pdfrwt beam="1">  1       21 0.15693511E+00 0.27220082E+03</pdfrwt>
<pdfrwt beam="2">  1        1 0.22246875E+00 0.27220082E+03</pdfrwt>
<totfact> 0.21615214E+01</totfact>
</mgrwt>
</event>
<event>
 5    0  0.1239749E+000  0.2610725E+03  0.7546771E-02  0.1106501E+00
         21   -1    0    0  501  502  0.00000000000E+00  0.00000000000E+00  0.12776487738E+03  0.12776487738E+03  0.00000000000E+00 0. -1.
          1   -1    0    0  503    0 -0.00000000000E+00 -0.00000000000E+00 -0.13823401317E+04  0.13823401317E+04  0.00000000000E+00 0. -1.
         25    1    1    2    0    0  0.18230876826E+03  0.21856314983E+03 -0.21983026100E+03  0.38073177054E+03  0.12500000000E+03 0.  0.
         21    1    1    2  503  502 -0.14146139154E+03 -0.12973220037E+03 -0.16200039796E+03  0.25116906269E+03  0.00000000000E+00 0. -1.
          1    1    1    2  501    0 -0.40847376714E+02 -0.88830949454E+02 -0.87274459539E+03  0.87820417589E+03  0.00000000000E+00 0. -1.
<mgrwt>
<rscale>  4 0.26107250E+03</rscale>
<asrwt>0</asrwt>
<pdfrwt beam="1">  1       21 0.19656135E-01 0.26107250E+03</pdfrwt>
<pdfrwt beam="2">  1        1 0.21266772E+00 0.26107250E+03</pdfrwt>
<totfact> 0.22479713E+03</totfact>
</mgrwt>
</event>
<event>
 5    0  0.1239749E+000  0.2752335E+03  0.7546771E-02  0.1098321E+00
         21   -1    0    0  501  502  0.00000000000E+00  0.00000000000E+00  0.99486375807E+03  0.99486375807E+03  0.00000000000E+00 0.  1.
          2   -1    0    0  503    0 -0.00000000000E+00 -0.00000000000E+00 -0.39757681987E+03  0.39757681987E+03  0.00000000000E+00 0.  1.
         25    1    1    2    0    0 -0.24346055884E+03  0.72137035448E+02  0.91325985775E+03  0.95610949340E+03  0.12500000000E+03 0.  0.
         21    1    1    2  503  502  0.12848830027E+03  0.31316497877E+02 -0.81190353548E+02  0.15518324605E+03  0.00000000000E+00 0. -1.
          2    1    1    2  501    0  0.11497225858E+03 -0.10345353332E+03 -0.23478256599E+03  0.28114783850E+03  0.00000000000E+00 0.  1.
<mgrwt>
<rscale>  4 0.27523348E+03</rscale>
<asrwt>0</asrwt>
<pdfrwt beam="1">  1       21 0.15305596E+00 0.27523348E+03</pdfrwt>
<pdfrwt beam="2">  1        2 0.61165665E-01 0.27523348E+03</pdfrwt>
<totfact> 0.26932357E+02</totfact>
</mgrwt>
</event>
<event>
 5    0  0.1239749E+000  0.2523891E+03  0.7546771E-02  0.1111804E+00
         21   -1    0    0  503  502  0.00000000000E+00  0.00000000000E+00  0.31253382447E+03  0.31253382447E+03  0.00000000000E+00 0. -1.
         -3   -1    0    0    0  501 -0.00000000000E+00 -0.00000000000E+00 -0.33421391461E+03  0.33421391461E+03  0.00000000000E+00 0. -1.
         25    1    1    2    0    0 -0.17638477446E+03  0.12164625896E+03 -0.95257423244E+02  0.26572236952E+03  0.12500000000E+03 0.  0.
         21    1    1    2  503  501  0.17027740458E+03 -0.14078657426E+03  0.17236020069E+03  0.28022007920E+03  0.00000000000E+00 0. -1.
         -3    1    1    2    0  502  0.61073698727E+01  0.19140315298E+02 -0.98782867590E+02  0.10080529037E+03  0.00000000000E+00 0. -1.
<mgrwt>
<rscale>  4 0.25238907E+03</rscale>
<asrwt>0</asrwt>
<pdfrwt beam="1">  1       21 0.48082127E-01 0.25238907E+03</pdfrwt>
<pdfrwt beam="2">  1       -3 0.51417525E-01 0.25238907E+03</pdfrwt>
<totfact> 0.76418842E+02</totfact>
</mgrwt>
</event>
<event>
 5    0  0.1239749E+000  0.3008216E+03  0.7546771E-02  0.1084831E+00
          2   -1    0    0  503    0 -0.00000000000E+00  0.00000000000E+00  0.11166499201E+04  0.11166499201E+04  0.00000000000E+00 0. -1.
         21   -1    0    0  501  502  0.00000000000E+00 -0.00000000000E+00 -0.44002153132E+03  0.44002153132E+03  0.00000000000E+00 0. -1.
         25    1    1    2    0    0 -0.27637987405E+03  0.89473691641E+02 -0.19486511576E+03  0.37146842344E+03  0.12500000000E+03 0.  0.
         21    1    1    2  503  502  0.12034048991E+03  0.13868132670E+03 -0.75621665730E+02  0.19857739100E+03  0.00000000000E+00 0. -1.
          2    1    1    2  501    0  0.15603938414E+03 -0.22815501834E+03  0.94711517024E+03  0.98662563695E+03  0.00000000000E+00 0. -1.
<mgrwt>
<rscale>  4 0.30082164E+03</rscale>
<asrwt>0</asrwt>
<pdfrwt beam="1">  1       21 0.67695621E-01 0.30082164E+03</pdfrwt>
<pdfrwt beam="2">  1        2 0.17179229E+00 0.30082164E+03</pdfrwt>
<totfact> 0.53497152E+02</totfact>
</mgrwt>
</event>
<event>
 5    0  0.1239749E+000  0.3013512E+03  0.7546771E-02  0.1084567E+00
         21   -1    0    0  503  502  0.00000000000E+00  0.00000000000E+00  0.37242672682E+03  0.37242672682E+03  0.00000000000E+00 0. -1.
         -1   -1    0    0    0  501 -0.00000000000E+00 -0.00000000000E+00 -0.14458820471E+04  0.14458820471E+04  0.00000000000E+00 0. -1.
         25    1    1    2    0    0 -0.12084627321E+02  0.25851088870E+03  0.10131781687E+03  0.30473630865E+03  0.12500000000E+03 0.  0.
         21    1    1    2  503  501  0.92450110407E+01 -0.29336776802E+03  0.41819181389E+02  0.29647759017E+03  0.00000000000E+00 0. -1.
         -1    1    1    2    0  502  0.28396162801E+01  0.34856879319E+02 -0.12165923185E+04  0.12170948751E+04  0.00000000000E+00 0. -1.
<mgrwt>
<rscale>  4 0.30135123E+03</rscale>
<asrwt>0</asrwt>
<pdfrwt beam="1">  1       21 0.57296419E-01 0.30135123E+03</pdfrwt>
<pdfrwt beam="2">  1       -1 0.22244340E+00 0.30135123E+03</pdfrwt>
<totfact> 0.30241332E+01</totfact>
</mgrwt>
</event>
<event>
 5    0  0.1239749E+000  0.6947809E+03  0.7546771E-02  0.9726199E-01
         21   -1    0    0  501  502  0.00000000000E+00  0.00000000000E+00  0.56277408616E+03  0.56277408616E+03  0.00000000000E+00 0. -1.
          2   -1    0    0  503    0 -0.00000000000E+00 -0.00000000000E+00 -0.11842547619E+04  0.11842547619E+04  0.00000000000E+00 0. -1.
         25    1    1    2    0    0  0.51950414346E+03  0.35342589177E+03 -0.14900798527E+03  0.65774067513E+03  0.12500000000E+03 0.  0.
         21    1    1    2  503  502 -0.56451933744E+03 -0.49973683138E+03 -0.20533204252E+03  0.78139633392E+03  0.00000000000E+00 0. -1.
          2    1    1    2  501    0  0.45015193985E+02  0.14631093961E+03 -0.26714064794E+03  0.30789183900E+03  0.00000000000E+00 0. -1.
<mgrwt>
<rscale>  4 0.69478094E+03</rscale>
<asrwt>0</asrwt>
<pdfrwt beam="1">  1       21 0.86580629E-01 0.69478094E+03</pdfrwt>
<pdfrwt beam="2">  1        2 0.18219304E+00 0.69478094E+03</pdfrwt>
<totfact> 0.24722139E+02</totfact>
</mgrwt>
</event>
<event>
 5    0  0.1239749E+000  0.2809062E+03  0.7546771E-02  0.1095195E+00
         -2   -1    0    0    0  501 -0.00000000000E+00  0.00000000000E+00  0.20598729632E+03  0.20598729632E+03  0.00000000000E+00 0.  1.
         21   -1    0    0  503  502  0.00000000000E+00 -0.00000000000E+00 -0.59730970768E+03  0.59730970768E+03  0.00000000000E+00 0.  1.
         25    1    1    2    0    0  0.25417072843E+03 -0.58597657354E+02 -0.28858684502E+03  0.40858758150E+03  0.12500000000E+03 0.  0.
         21    1    1    2  503  501 -0.24143099931E+03  0.27945947728E+02 -0.18536408810E+03  0.30566280208E+03  0.00000000000E+00 0.  1.
         -2    1    1    2    0  502 -0.12739729128E+02  0.30651709626E+02  0.82628521754E+02  0.89046620422E+02  0.00000000000E+00 0.  1.
<mgrwt>
<rscale>  4 0.28090617E+03</rscale>
<asrwt>0</asrwt>
<pdfrwt beam="1">  1       21 0.91893801E-01 0.28090617E+03</pdfrwt>
<pdfrwt beam="2">  1       -2 0.31690353E-01 0.28090617E+03</pdfrwt>
<totfact> 0.71923929E+02</totfact>
</mgrwt>
</event>
<event>
 5    0  0.1239749E+000  0.2331993E+03  0.7546771E-02  0.1124408E+00
          2   -1    0    0  503    0 -0.00000000000E+00  0.00000000000E+00  0.13477105500E+04  0.13477105500E+04  0.00000000000E+00 0. -1.
         21   -1    0    0  501  502  0.00000000000E+00 -0.00000000000E+00 -0.20171918480E+03  0.20171918480E+03  0.00000000000E+00 0. -1.
         25    1    1    2    0    0 -0.92151437527E+02 -0.19254304665E+03 -0.31969228272E+02  0.24942282135E+03  0.12500000000E+03 0.  0.
         21    1    1    2  503  502  0.10908964109E+03  0.14185629109E+03  0.72219585189E+02  0.19297519426E+03  0.00000000000E+00 0. -1.
          2    1    1    2  501    0 -0.16938203560E+02  0.50686755566E+02  0.11057410083E+04  0.11070317192E+04  0.00000000000E+00 0. -1.
<mgrwt>
<rscale>  4 0.23319929E+03</rscale>
<asrwt>0</asrwt>
<pdfrwt beam="1">  1       21 0.31033722E-01 0.23319929E+03</pdfrwt>
<pdfrwt beam="2">  1        2 0.20734008E+00 0.23319929E+03</pdfrwt>
<totfact> 0.20684349E+03</totfact>
</mgrwt>
</event>
<event>
 5    0  0.1239749E+000  0.3473624E+03  0.7546771E-02  0.1065182E+00
         21   -1    0    0  501  502  0.00000000000E+00  0.00000000000E+00  0.46697847270E+02  0.46697847270E+02  0.00000000000E+00 0. -1.
          2   -1    0    0  503    0 -0.00000000000E+00 -0.00000000000E+00 -0.24847542030E+04  0.24847542030E+04  0.00000000000E+00 0. -1.
         25    1    1    2    0    0 -0.27092925562E+02  0.30787951108E+03 -0.11446568703E+04  0.11922198499E+04  0.12500000000E+03 0.  0.
         21    1    1    2  503  502  0.77585235125E+02 -0.11574277265E+03 -0.69137687989E+03  0.70527856069E+03  0.00000000000E+00 0. -1.
          2    1    1    2  501    0 -0.50492309562E+02 -0.19213673843E+03 -0.60202260561E+03  0.63395363967E+03  0.00000000000E+00 0. -1.
<mgrwt>
<rscale>  4 0.34381533E+03</rscale>
<asrwt>0</asrwt>
<pdfrwt beam="1">  1       21 0.71842824E-02 0.34736243E+03</pdfrwt>
<pdfrwt beam="2">  1        2 0.38226997E+00 0.34736243E+03</pdfrwt>
<totfact> 0.72821649E+03</totfact>
</mgrwt>
</event>
<event>
 5    0  0.1239749E+000  0.3504007E+03  0.7546771E-02  0.1062451E+00
          2   -1    0    0  503    0 -0.00000000000E+00  0.00000000000E+00  0.51000757795E+03  0.51000757795E+03  0.00000000000E+00 0.  1.
         21   -1    0    0  501  502  0.00000000000E+00 -0.00000000000E+00 -0.78643008519E+03  0.78643008519E+03  0.00000000000E+00 0.  1.
         25    1    1    2    0    0 -0.18521431262E+03  0.25243710521E+03 -0.36458808496E+03  0.49656651658E+03  0.12500000000E+03 0.  0.
         21    1    1    2  503  502  0.18145443593E+03 -0.29484890589E+03 -0.27008545260E+03  0.43909878311E+03  0.00000000000E+00 0.  1.
          2    1    1    2  501    0  0.37598766906E+01  0.42411800680E+02  0.35825103031E+03  0.36077236345E+03  0.00000000000E+00 0.  1.
<mgrwt>
<rscale>  4 0.35040072E+03</rscale>
<asrwt>0</asrwt>
<pdfrwt beam="1">  1       21 0.12098924E+00 0.35040072E+03</pdfrwt>
<pdfrwt beam="2">  1        2 0.78462705E-01 0.35040072E+03</pdfrwt>
<totfact> 0.36393475E+02</totfact>
</mgrwt>
</event>
<event>
 5    0  0.1239749E+000  0.3003872E+03  0.7546771E-02  0.1085047E+00
         21   -1    0    0  501  502  0.00000000000E+00  0.00000000000E+00  0.46480554730E+03  0.46480554730E+03  0.00000000000E+00 0.  1.
          2   -1    0    0  503    0 -0.00000000000E+00 -0.00000000000E+00 -0.16615399076E+04  0.16615399076E+04  0.00000000000E+00 0. -1.
         25    1    1    2    0    0  0.30180894846E+02  0.28602005082E+03  0.36724311130E+02  0.31574044864E+03  0.12500000000E+03 0.  0.
         21    1    1    2  503  502 -0.29724913692E+02 -0.26509105671E+03  0.22683671203E+03  0.35015958186E+03  0.00000000000E+00 0.  1.
          2    1    1    2  501    0 -0.45598115361E+00 -0.20928994101E+02 -0.14602953835E+04  0.14604454244E+04  0.00000000000E+00 0. -1.
<mgrwt>
<rscale>  4 0.30038719E+03</rscale>
<asrwt>0</asrwt>
<pdfrwt beam="1">  1       21 0.71508547E-01 0.30038719E+03</pdfrwt>
<pdfrwt beam="2">  1        2 0.25562152E+00 0.30038719E+03</pdfrwt>
<totfact> 0.23707902E+02</totfact>
</mgrwt>
</event>
<event>
 5    0  0.1239749E+000  0.3081233E+03  0.7546771E-02  0.1081249E+00
         21   -1    0    0  501  502  0.00000000000E+00  0.00000000000E+00  0.74356819473E+03  0.74356819473E+03  0.00000000000E+00 0. -1.
          2   -1    0    0  503    0 -0.00000000000E+00 -0.00000000000E+00 -0.18515806812E+04  0.18515806812E+04  0.00000000000E+00 0.  1.
         25    1    1    2    0    0 -0.10947706554E+03 -0.25749172318E+03  0.66001847235E+03  0.72769265437E+03  0.12500000000E+03 0.  0.
         21    1    1    2  503  502  0.13474390568E+03  0.27683961776E+03 -0.42901669501E+03  0.52806383959E+03  0.00000000000E+00 0. -1.
          2    1    1    2  501    0 -0.25266840136E+02 -0.19347894576E+02 -0.13390142638E+04  0.13393923820E+04  0.00000000000E+00 0.  1.
<mgrwt>
<rscale>  4 0.30812333E+03</rscale>
<asrwt>0</asrwt>
<pdfrwt beam="1">  1       21 0.11439511E+00 0.30812333E+03</pdfrwt>
<pdfrwt beam="2">  1        2 0.28485856E+00 0.30812333E+03</pdfrwt>
<totfact> 0.62016364E+01</totfact>
</mgrwt>
</event>
<event>
 5    0  0.1239749E+000  0.1738367E+03  0.7546771E-02  0.1173905E+00
          2   -1    0    0  503    0 -0.00000000000E+00  0.00000000000E+00  0.12412358764E+04  0.12412358764E+04  0.00000000000E+00 0.  1.
         21   -1    0    0  501  502  0.00000000000E+00 -0.00000000000E+00 -0.27797916027E+03  0.27797916027E+03  0.00000000000E+00 0. -1.
         25    1    1    2    0    0  0.14815457686E+03 -0.15310227715E+03  0.23402699036E+03  0.34027006646E+03  0.12500000000E+03 0.  0.
         21    1    1    2  503  502 -0.65962658094E+02  0.95510720928E+02 -0.20701504564E+03  0.23733646832E+03  0.00000000000E+00 0. -1.
          2    1    1    2  501    0 -0.82191918764E+02  0.57591556217E+02  0.93624477145E+03  0.94160850194E+03  0.00000000000E+00 0.  1.
<mgrwt>
<rscale>  4 0.17383668E+03</rscale>
<asrwt>0</asrwt>
<pdfrwt beam="1">  1       21 0.42766025E-01 0.17383668E+03</pdfrwt>
<pdfrwt beam="2">  1        2 0.19095936E+00 0.17383668E+03</pdfrwt>
<totfact> 0.12886171E+03</totfact>
</mgrwt>
</event>
<event>
 5    0  0.1239749E+000  0.1769535E+03  0.7546771E-02  0.1170784E+00
          2   -1    0    0  503    0 -0.00000000000E+00  0.00000000000E+00  0.11910085216E+04  0.11910085216E+04  0.00000000000E+00 0.  1.
         21   -1    0    0  501  502  0.00000000000E+00 -0.00000000000E+00 -0.19580701087E+03  0.19580701087E+03  0.00000000000E+00 0.  1.
         25    1    1    2    0    0 -0.15310228936E+03 -0.14622150420E+03 -0.59331829718E+02  0.25291560908E+03  0.12500000000E+03 0.  0.
         21    1    1    2  503  502  0.11416656260E+03  0.28798143320E+02  0.60834210941E+02  0.13252976381E+03  0.00000000000E+00 0. -1.
          2    1    1    2  501    0  0.38935726756E+02  0.11742336088E+03  0.99369912949E+03  0.10013701596E+04  0.00000000000E+00 0.  1.
<mgrwt>
<rscale>  4 0.17695352E+03</rscale>
<asrwt>0</asrwt>
<pdfrwt beam="1">  1       21 0.30124157E-01 0.17695352E+03</pdfrwt>
<pdfrwt beam="2">  1        2 0.18323207E+00 0.17695352E+03</pdfrwt>
<totfact> 0.27529054E+03</totfact>
</mgrwt>
</event>
<event>
 5    0  0.1239749E+000  0.2532960E+03  0.7546771E-02  0.1111239E+00
          2   -1    0    0  503    0 -0.00000000000E+00  0.00000000000E+00  0.36562432121E+03  0.36562432121E+03  0.00000000000E+00 0. -1.
         21   -1    0    0  501  502  0.00000000000E+00 -0.00000000000E+00 -0.35012234470E+03  0.35012234470E+03  0.00000000000E+00 0. -1.
         25    1    1    2    0    0  0.18292912740E+03 -0.12276315162E+03 -0.25697240961E+03  0.36082360835E+03  0.12500000000E+03 0.  0.
         21    1    1    2  503  502 -0.11563153424E+03  0.10401540853E+03  0.16508664857E+03  0.22681150425E+03  0.00000000000E+00 0.  1.
          2    1    1    2  501    0 -0.67297593157E+02  0.18747743093E+02  0.10738773755E+03  0.12811155331E+03  0.00000000000E+00 0. -1.
<mgrwt>
<rscale>  4 0.25329599E+03</rscale>
<asrwt>0</asrwt>
<pdfrwt beam="1">  1       21 0.53864976E-01 0.25329599E+03</pdfrwt>
<pdfrwt beam="2">  1        2 0.56249896E-01 0.25329599E+03</pdfrwt>
<totfact> 0.35045893E+03</totfact>
</mgrwt>
</event>
<event>
 5    0  0.1239749E+000  0.2797429E+03  0.7546771E-02  0.1095829E+00
          2   -1    0    0  503    0 -0.00000000000E+00  0.00000000000E+00  0.65401596041E+03  0.65401596041E+03  0.00000000000E+00 0. -1.
         21   -1    0    0  501  502  0.00000000000E+00 -0.00000000000E+00 -0.21808392488E+03  0.21808392488E+03  0.00000000000E+00 0.  1.
         25    1    1    2    0    0 -0.23453570642E+01 -0.27294943502E+03  0.13998400299E+03  0.33125128810E+03  0.12500000000E+03 0.  0.
         21    1    1    2  503  502  0.25126019734E+02  0.23795051140E+03 -0.27064189804E+01  0.23928871150E+03  0.00000000000E+00 0.  1.
          2    1    1    2  501    0 -0.22780662670E+02  0.34998923610E+02  0.29865445152E+03  0.30155988569E+03  0.00000000000E+00 0. -1.
<mgrwt>
<rscale>  4 0.27974291E+03</rscale>
<asrwt>0</asrwt>
<pdfrwt beam="1">  1       21 0.33551373E-01 0.27974291E+03</pdfrwt>
<pdfrwt beam="2">  1        2 0.10061784E+00 0.27974291E+03</pdfrwt>
<totfact> 0.47784918E+03</totfact>
</mgrwt>
</event>
<event>
 5    0  0.1239749E+000  0.2692767E+03  0.7546771E-02  0.1101694E+00
         21   -1    0    0  503  502  0.00000000000E+00  0.00000000000E+00  0.43961842907E+03  0.43961842907E+03  0.00000000000E+00 0.  1.
         -1   -1    0    0    0  501 -0.00000000000E+00 -0.00000000000E+00 -0.88627282260E+03  0.88627282260E+03  0.00000000000E+00 0. -1.
         25    1    1    2    0    0 -0.27165249468E+03  0.79424447274E+01  0.16513055741E+03  0.34168883693E+03  0.12500000000E+03 0.  0.
         21    1    1    2  503  501  0.36538489247E+02  0.15146109837E+02  0.16635398851E+03  0.17099156509E+03  0.00000000000E+00 0.  1.
         -1    1    1    2    0  502  0.23511400543E+03 -0.23088554564E+02 -0.77813893945E+03  0.81321084965E+03  0.00000000000E+00 0. -1.
<mgrwt>
<rscale>  4 0.26927675E+03</rscale>
<asrwt>0</asrwt>
<pdfrwt beam="1">  1       21 0.67633605E-01 0.26927675E+03</pdfrwt>
<pdfrwt beam="2">  1       -1 0.13634966E+00 0.26927675E+03</pdfrwt>
<totfact> 0.87138609E+01</totfact>
</mgrwt>
</event>
<event>
 5    0  0.1239749E+000  0.4466262E+03  0.7546771E-02  0.1028733E+00
         21   -1    0    0  501  502  0.00000000000E+00  0.00000000000E+00  0.90438040679E+03  0.90438040679E+03  0.00000000000E+00 0. -1.
          3   -1    0    0  503    0 -0.00000000000E+00 -0.00000000000E+00 -0.10899968222E+04  0.10899968222E+04  0.00000000000E+00 0. -1.
         25    1    1    2    0    0  0.37673772043E+03 -0.19275638707E+03  0.75391310410E+03  0.87355383537E+03  0.12500000000E+03 0.  0.
         21    1    1    2  503  502 -0.47462538103E+03  0.17867696563E+03 -0.72699142037E+03  0.88640353996E+03  0.00000000000E+00 0. -1.
          3    1    1    2  501    0  0.97887660601E+02  0.14079421436E+02 -0.21253809909E+03  0.23441985362E+03  0.00000000000E+00 0. -1.
<mgrwt>
<rscale>  4 0.44662625E+03</rscale>
<asrwt>0</asrwt>
<pdfrwt beam="1">  1       21 0.13913545E+00 0.44662625E+03</pdfrwt>
<pdfrwt beam="2">  1        3 0.16769182E+00 0.44662625E+03</pdfrwt>
<totfact> 0.40716643E+00</totfact>
</mgrwt>
</event>
<event>
 5    0  0.1239749E+000  0.3586973E+03  0.7546771E-02  0.1059101E+00
          1   -1    0    0  503    0 -0.00000000000E+00  0.00000000000E+00  0.16540521982E+04  0.16540521982E+04  0.00000000000E+00 0.  1.
         21   -1    0    0  501  502  0.00000000000E+00 -0.00000000000E+00 -0.25459063702E+03  0.25459063702E+03  0.00000000000E+00 0. -1.
         25    1    1    2    0    0  0.23386780282E+03  0.23715389247E+03 -0.69987042934E+02  0.36257317066E+03  0.12500000000E+03 0.  0.
         21    1    1    2  503  502 -0.41183914745E+02  0.83432158988E+02  0.16923703528E+03  0.19312745558E+03  0.00000000000E+00 0.  1.
          1    1    1    2  501    0 -0.19268388807E+03 -0.32058605146E+03  0.13002115688E+04  0.13529422089E+04  0.00000000000E+00 0.  1.
<mgrwt>
<rscale>  4 0.35869730E+03</rscale>
<asrwt>0</asrwt>
<pdfrwt beam="1">  1       21 0.39167791E-01 0.35869730E+03</pdfrwt>
<pdfrwt beam="2">  1        1 0.25446956E+00 0.35869730E+03</pdfrwt>
<totfact> 0.37024335E+02</totfact>
</mgrwt>
</event>
<event>
 5    0  0.1239749E+000  0.2562964E+03  0.7546771E-02  0.1109389E+00
         -3   -1    0    0    0  501 -0.00000000000E+00  0.00000000000E+00  0.99248651487E+03  0.99248651487E+03  0.00000000000E+00 0.  1.
         21   -1    0    0  503  502  0.00000000000E+00 -0.00000000000E+00 -0.37270837641E+03  0.37270837641E+03  0.00000000000E+00 0.  1.
         25    1    1    2    0    0  0.14677727929E+03 -0.16894581152E+03 -0.30435459694E+03  0.39792333134E+03  0.12500000000E+03 0.  0.
         21    1    1    2  503  501 -0.17219012643E+03  0.14563888444E+03  0.59446901358E+03  0.63580935225E+03  0.00000000000E+00 0.  1.
         -3    1    1    2    0  502  0.25412847137E+02  0.23306927077E+02  0.32966372182E+03  0.33146220770E+03  0.00000000000E+00 0.  1.
<mgrwt>
<rscale>  4 0.25629642E+03</rscale>
<asrwt>0</asrwt>
<pdfrwt beam="1">  1       21 0.57339751E-01 0.25629642E+03</pdfrwt>
<pdfrwt beam="2">  1       -3 0.15269023E+00 0.25629642E+03</pdfrwt>
<totfact> 0.45055756E+01</totfact>
</mgrwt>
</event>
<event>
 5    0  0.1239749E+000  0.2835968E+03  0.7546771E-02  0.1093741E+00
         21   -1    0    0  501  502  0.00000000000E+00  0.00000000000E+00  0.58671381645E+03  0.58671381645E+03  0.00000000000E+00 0.  1.
          1   -1    0    0  503    0 -0.00000000000E+00 -0.00000000000E+00 -0.42261741300E+03  0.42261741300E+03  0.00000000000E+00 0. -1.
         25    1    1    2    0    0  0.20020395812E+03 -0.19865386292E+03  0.34003641961E+03  0.45912389261E+03  0.12500000000E+03 0.  0.
         21    1    1    2  503  502 -0.55679039035E+02  0.27948245687E+02 -0.29175499631E+03  0.29833242817E+03  0.00000000000E+00 0. -1.
          1    1    1    2  501    0 -0.14452491909E+03  0.17070561723E+03  0.11581498015E+03  0.25187490867E+03  0.00000000000E+00 0. -1.
<mgrwt>
<rscale>  4 0.28359679E+03</rscale>
<asrwt>0</asrwt>
<pdfrwt beam="1">  1       21 0.90263664E-01 0.28359679E+03</pdfrwt>
<pdfrwt beam="2">  1        1 0.65018064E-01 0.28359679E+03</pdfrwt>
<totfact> 0.61984714E+02</totfact>
</mgrwt>
</event>
<event>
 5    0  0.1239749E+000  0.2546453E+03  0.7546771E-02  0.1110404E+00
         21   -1    0    0  501  502  0.00000000000E+00  0.00000000000E+00  0.23350901606E+03  0.23350901606E+03  0.00000000000E+00 0.  1.
          1   -1    0    0  503    0 -0.00000000000E+00 -0.00000000000E+00 -0.36496672092E+03  0.36496672092E+03  0.00000000000E+00 0.  1.
         25    1    1    2    0    0 -0.41417054068E+02 -0.21553783789E+03  0.21270750498E+02  0.25347460771E+03  0.12500000000E+03 0.  0.
         21    1    1    2  503  502  0.11585610706E+03  0.20225596357E+03 -0.10552779762E+03  0.25586369108E+03  0.00000000000E+00 0.  1.
          1    1    1    2  501    0 -0.74439052993E+02  0.13281874320E+02 -0.47200657729E+02  0.89137438184E+02  0.00000000000E+00 0.  1.
<mgrwt>
<rscale>  4 0.25464526E+03</rscale>
<asrwt>0</asrwt>
<pdfrwt beam="1">  1       21 0.35924464E-01 0.25464526E+03</pdfrwt>
<pdfrwt beam="2">  1        1 0.56148726E-01 0.25464526E+03</pdfrwt>
<totfact> 0.55022756E+03</totfact>
</mgrwt>
</event>
<event>
 5    0  0.1239749E+000  0.3233388E+03  0.7546771E-02  0.1074123E+00
         21   -1    0    0  501  502  0.00000000000E+00  0.00000000000E+00  0.57598471525E+03  0.57598471525E+03  0.00000000000E+00 0. -1.
          1   -1    0    0  503    0 -0.00000000000E+00 -0.00000000000E+00 -0.95902646941E+03  0.95902646941E+03  0.00000000000E+00 0. -1.
         25    1    1    2    0    0 -0.22115259482E+03  0.41544216898E+02  0.45848524172E+03  0.52580234787E+03  0.12500000000E+03 0.  0.
         21    1    1    2  503  502 -0.70766841459E+02 -0.12492638663E+03 -0.35498672066E+02  0.14790099271E+03  0.00000000000E+00 0. -1.
          1    1    1    2  501    0  0.29191943628E+03  0.83382169732E+02 -0.80602832381E+03  0.86130784409E+03  0.00000000000E+00 0. -1.
<mgrwt>
<rscale>  4 0.32333882E+03</rscale>
<asrwt>0</asrwt>
<pdfrwt beam="1">  1       21 0.88613035E-01 0.32333882E+03</pdfrwt>
<pdfrwt beam="2">  1        1 0.14754253E+00 0.32333882E+03</pdfrwt>
<totfact> 0.19403149E+02</totfact>
</mgrwt>
</event>
<event>
 5    0  0.1239749E+000  0.2530162E+03  0.7546771E-02  0.1111413E+00
          1   -1    0    0  503    0 -0.00000000000E+00  0.00000000000E+00  0.23611154093E+04  0.23611154093E+04  0.00000000000E+00 0.  1.
         21   -1    0    0  501  502  0.00000000000E+00 -0.00000000000E+00 -0.10599676159E+03  0.10599676159E+03  0.00000000000E+00 0.  1.
         25    1    1    2    0    0 -0.21433133583E+03  0.57036007181E+02  0.15527816053E+04  0.15735141376E+04  0.12500000000E+03 0.  0.
         21    1    1    2  503  502  0.20529852692E+03 -0.78878653585E+02  0.31301814233E+02  0.22214664238E+03  0.00000000000E+00 0.  1.
          1    1    1    2  501    0  0.90328089051E+01  0.21842646404E+02  0.67103522823E+03  0.67145139092E+03  0.00000000000E+00 0.  1.
<mgrwt>
<rscale>  4 0.25301619E+03</rscale>
<asrwt>0</asrwt>
<pdfrwt beam="1">  1       21 0.16307196E-01 0.25301619E+03</pdfrwt>
<pdfrwt beam="2">  1        1 0.36324849E+00 0.25301619E+03</pdfrwt>
<totfact> 0.73115535E+02</totfact>
</mgrwt>
</event>
<event>
 5    0  0.1239749E+000  0.2692910E+03  0.7546771E-02  0.1101686E+00
         -2   -1    0    0    0  501 -0.00000000000E+00  0.00000000000E+00  0.14796241338E+04  0.14796241338E+04  0.00000000000E+00 0.  1.
         21   -1    0    0  503  502  0.00000000000E+00 -0.00000000000E+00 -0.50138590607E+03  0.50138590607E+03  0.00000000000E+00 0.  1.
         25    1    1    2    0    0  0.82137092364E+02 -0.20810241544E+03  0.90587327439E+03  0.94142684607E+03  0.12500000000E+03 0.  0.
         21    1    1    2  503  501 -0.52011290064E+02  0.23335510238E+03 -0.45328175880E+03  0.51246866340E+03  0.00000000000E+00 0.  1.
         -2    1    1    2    0  502 -0.30125802301E+02 -0.25252686942E+02  0.52564671212E+03  0.52711453037E+03  0.00000000000E+00 0.  1.
<mgrwt>
<rscale>  4 0.26929105E+03</rscale>
<asrwt>0</asrwt>
<pdfrwt beam="1">  1       21 0.77136294E-01 0.26929105E+03</pdfrwt>
<pdfrwt beam="2">  1       -2 0.22763448E+00 0.26929105E+03</pdfrwt>
<totfact> 0.11480266E+01</totfact>
</mgrwt>
</event>
<event>
 5    0  0.1239749E+000  0.2857425E+03  0.7546771E-02  0.1092593E+00
         21   -1    0    0  501  502  0.00000000000E+00  0.00000000000E+00  0.83072392852E+02  0.83072392852E+02  0.00000000000E+00 0. -1.
          1   -1    0    0  503    0 -0.00000000000E+00 -0.00000000000E+00 -0.22103971230E+04  0.22103971230E+04  0.00000000000E+00 0.  1.
         25    1    1    2    0    0 -0.13995553025E+03  0.21549067501E+03 -0.20743301575E+03  0.35309664044E+03  0.12500000000E+03 0.  0.
         21    1    1    2  503  502  0.53281496702E+02 -0.16667997689E+03 -0.10085173345E+04  0.10235860230E+04  0.00000000000E+00 0. -1.
          1    1    1    2  501    0  0.86674033550E+02 -0.48810698118E+02 -0.91137437994E+03  0.91678685241E+03  0.00000000000E+00 0.  1.
<mgrwt>
<rscale>  4 0.28574251E+03</rscale>
<asrwt>0</asrwt>
<pdfrwt beam="1">  1       21 0.12780370E-01 0.28574251E+03</pdfrwt>
<pdfrwt beam="2">  1        1 0.34006104E+00 0.28574251E+03</pdfrwt>
<totfact> 0.14111116E+03</totfact>
</mgrwt>
</event>
<event>
 5    0  0.1239749E+000  0.3485549E+03  0.7546771E-02  0.1063210E+00
         21   -1    0    0  501  502  0.00000000000E+00  0.00000000000E+00  0.68150093550E+03  0.68150093550E+03  0.00000000000E+00 0. -1.
          2   -1    0    0  503    0 -0.00000000000E+00 -0.00000000000E+00 -0.63348999977E+03  0.63348999977E+03  0.00000000000E+00 0.  1.
         25    1    1    2    0    0  0.21860110329E+03 -0.26310133810E+03  0.23644552597E+03  0.43421220989E+03  0.12500000000E+03 0.  0.
         21    1    1    2  503  502 -0.20459908664E+03  0.23739990248E+03  0.27468275134E+03  0.41673746392E+03  0.00000000000E+00 0. -1.
          2    1    1    2  501    0 -0.14002016657E+02  0.25701435618E+02 -0.46311734158E+03  0.46404126145E+03  0.00000000000E+00 0.  1.
<mgrwt>
<rscale>  4 0.34855491E+03</rscale>
<asrwt>0</asrwt>
<pdfrwt beam="1">  1       21 0.10484630E+00 0.34855491E+03</pdfrwt>
<pdfrwt beam="2">  1        2 0.97460000E-01 0.34855491E+03</pdfrwt>
<totfact> 0.40344911E+02</totfact>
</mgrwt>
</event>
<event>
 5    0  0.1239749E+000  0.2231046E+03  0.7546771E-02  0.1131589E+00
          2   -1    0    0  503    0 -0.00000000000E+00  0.00000000000E+00  0.11493677514E+04  0.11493677514E+04  0.00000000000E+00 0. -1.
         21   -1    0    0  501  502  0.00000000000E+00 -0.00000000000E+00 -0.66512769192E+03  0.66512769192E+03  0.00000000000E+00 0. -1.
         25    1    1    2    0    0 -0.42555054872E+02  0.21180775373E+03 -0.46887518528E+03  0.53117077913E+03  0.12500000000E+03 0.  0.
         21    1    1    2  503  502 -0.69411514151E+02 -0.64980490651E+02 -0.14302244782E+03  0.17174353857E+03  0.00000000000E+00 0. -1.
          2    1    1    2  501    0  0.11196656902E+03 -0.14682726308E+03  0.10961376925E+04  0.11115811256E+04  0.00000000000E+00 0. -1.
<mgrwt>
<rscale>  4 0.22310459E+03</rscale>
<asrwt>0</asrwt>
<pdfrwt beam="1">  1       21 0.10232734E+00 0.22310459E+03</pdfrwt>
<pdfrwt beam="2">  1        2 0.17682581E+00 0.22310459E+03</pdfrwt>
<totfact> 0.20697501E+02</totfact>
</mgrwt>
</event>
<event>
 5    0  0.1239749E+000  0.3248439E+03  0.7546771E-02  0.1073441E+00
         -1   -1    0    0    0  501 -0.00000000000E+00  0.00000000000E+00  0.60913699176E+03  0.60913699176E+03  0.00000000000E+00 0.  1.
         21   -1    0    0  503  502  0.00000000000E+00 -0.00000000000E+00 -0.13307790365E+04  0.13307790365E+04  0.00000000000E+00 0.  1.
         25    1    1    2    0    0 -0.28501524371E+03  0.21602821474E+03 -0.70794693444E+03  0.80294192859E+03  0.12500000000E+03 0.  0.
         21    1    1    2  503  501  0.28527790653E+03  0.30553764070E+01 -0.51563889261E+03  0.58930152456E+03  0.00000000000E+00 0.  1.
         -1    1    1    2    0  502 -0.26266282035E+00 -0.21908359115E+03  0.50194378232E+03  0.54767257510E+03  0.00000000000E+00 0.  1.
<mgrwt>
<rscale>  4 0.32484394E+03</rscale>
<asrwt>0</asrwt>
<pdfrwt beam="1">  1       21 0.20473523E+00 0.32484394E+03</pdfrwt>
<pdfrwt beam="2">  1       -1 0.93713385E-01 0.32484394E+03</pdfrwt>
<totfact> 0.12217535E+01</totfact>
</mgrwt>
</event>
<event>
 5    0  0.1239749E+000  0.3642727E+03  0.7546771E-02  0.1056905E+00
          2   -1    0    0  503    0 -0.00000000000E+00  0.00000000000E+00  0.16735301896E+04  0.16735301896E+04  0.00000000000E+00 0.  1.
         21   -1    0    0  501  502  0.00000000000E+00 -0.00000000000E+00 -0.80232193746E+03  0.80232193746E+03  0.00000000000E+00 0.  1.
         25    1    1    2    0    0 -0.33510242290E+03  0.32940943919E+02 -0.64620098765E+03  0.73931012171E+03  0.12500000000E+03 0.  0.
         21    1    1    2  503  502  0.37719488575E+03 -0.27162108022E+03  0.46835987061E+03  0.65985980439E+03  0.00000000000E+00 0.  1.
          2    1    1    2  501    0 -0.42092462849E+02  0.23868013630E+03  0.10490493692E+04  0.10766822010E+04  0.00000000000E+00 0.  1.
<mgrwt>
<rscale>  4 0.36427267E+03</rscale>
<asrwt>0</asrwt>
<pdfrwt beam="1">  1       21 0.12343414E+00 0.36427267E+03</pdfrwt>
<pdfrwt beam="2">  1        2 0.25746618E+00 0.36427267E+03</pdfrwt>
<totfact> 0.61598805E+01</totfact>
</mgrwt>
</event>
<event>
 5    0  0.1239749E+000  0.3583231E+03  0.7546771E-02  0.1059250E+00
         -3   -1    0    0    0  501 -0.00000000000E+00  0.00000000000E+00  0.62053628300E+03  0.62053628300E+03  0.00000000000E+00 0. -1.
         21   -1    0    0  503  502  0.00000000000E+00 -0.00000000000E+00 -0.15949971740E+04  0.15949971740E+04  0.00000000000E+00 0. -1.
         25    1    1    2    0    0  0.20881933408E+03 -0.10842995145E+03 -0.39400665097E+02  0.26933247310E+03  0.12500000000E+03 0.  0.
         21    1    1    2  503  501 -0.33353707435E+03  0.12274792312E+03 -0.14104377688E+04  0.14545269788E+04  0.00000000000E+00 0. -1.
         -3    1    1    2    0  502  0.12471774027E+03 -0.14317971675E+02  0.47537754283E+03  0.49167400509E+03  0.00000000000E+00 0. -1.
<mgrwt>
<rscale>  4 0.35832312E+03</rscale>
<asrwt>0</asrwt>
<pdfrwt beam="1">  1       21 0.24538418E+00 0.35832312E+03</pdfrwt>
<pdfrwt beam="2">  1       -3 0.95467121E-01 0.35832312E+03</pdfrwt>
<totfact> 0.31073322E+00</totfact>
</mgrwt>
</event>
<event>
 5    0  0.1239749E+000  0.2261052E+03  0.7546771E-02  0.1129412E+00
         21   -1    0    0  501  502  0.00000000000E+00  0.00000000000E+00  0.93162961695E+02  0.93162961695E+02  0.00000000000E+00 0. -1.
          2   -1    0    0  503    0 -0.00000000000E+00 -0.00000000000E+00 -0.22518233456E+04  0.22518233456E+04  0.00000000000E+00 0. -1.
         25    1    1    2    0    0  0.18943189660E+03  0.75468629517E+02 -0.25878851291E+03  0.35238679303E+03  0.12500000000E+03 0.  0.
         21    1    1    2  503  502 -0.15848715119E+03 -0.85306386146E+02 -0.12902772652E+03  0.22145769533E+03  0.00000000000E+00 0. -1.
          2    1    1    2  501    0 -0.30944745408E+02  0.98377566292E+01 -0.17708441445E+04  0.17711418189E+04  0.00000000000E+00 0. -1.
<mgrwt>
<rscale>  4 0.22610516E+03</rscale>
<asrwt>0</asrwt>
<pdfrwt beam="1">  1       21 0.14332764E-01 0.22610516E+03</pdfrwt>
<pdfrwt beam="2">  1        2 0.34643435E+00 0.22610516E+03</pdfrwt>
<totfact> 0.29752367E+03</totfact>
</mgrwt>
</event>
<event>
 5    0  0.1239749E+000  0.2801942E+03  0.7546771E-02  0.1095583E+00
         21   -1    0    0  501  502  0.00000000000E+00  0.00000000000E+00  0.11867114344E+04  0.11867114344E+04  0.00000000000E+00 0. -1.
          3   -1    0    0  503    0 -0.00000000000E+00 -0.00000000000E+00 -0.80584395247E+03  0.80584395247E+03  0.00000000000E+00 0.  1.
         25    1    1    2    0    0 -0.20086129560E+03  0.15718781318E+03  0.10575612823E+04  0.10950406999E+04  0.12500000000E+03 0.  0.
         21    1    1    2  503  502  0.17347096814E+03 -0.14265934927E+03 -0.45367604474E+01  0.22464293649E+03  0.00000000000E+00 0. -1.
          3    1    1    2  501    0  0.27390327462E+02 -0.14528463909E+02 -0.67215703990E+03  0.67287175048E+03  0.00000000000E+00 0.  1.
<mgrwt>
<rscale>  4 0.28019416E+03</rscale>
<asrwt>0</asrwt>
<pdfrwt beam="1">  1       21 0.18257099E+00 0.28019416E+03</pdfrwt>
<pdfrwt beam="2">  1        3 0.12397599E+00 0.28019416E+03</pdfrwt>
<totfact> 0.44484753E+00</totfact>
</mgrwt>
</event>
<event>
 5    0  0.1239749E+000  0.2713408E+03  0.7546771E-02  0.1100515E+00
          2   -1    0    0  503    0 -0.00000000000E+00  0.00000000000E+00  0.25204502166E+04  0.25204502166E+04  0.00000000000E+00 0. -1.
         21   -1    0    0  501  502  0.00000000000E+00 -0.00000000000E+00 -0.11690618088E+03  0.11690618088E+03  0.00000000000E+00 0.  1.
         25    1    1    2    0    0  0.52387453675E+02  0.23557857092E+03  0.60837987102E+02  0.27851026741E+03  0.12500000000E+03 0.  0.
         21    1    1    2  503  502 -0.32048934175E+02 -0.17781868225E+00  0.14638375442E+03  0.14985115735E+03  0.00000000000E+00 0.  1.
          2    1    1    2  501    0 -0.20338519499E+02 -0.23540075223E+03  0.21963222942E+04  0.22089949727E+04  0.00000000000E+00 0. -1.
<mgrwt>
<rscale>  4 0.27134075E+03</rscale>
<asrwt>0</asrwt>
<pdfrwt beam="1">  1       21 0.17985568E-01 0.27134075E+03</pdfrwt>
<pdfrwt beam="2">  1        2 0.38776153E+00 0.27134075E+03</pdfrwt>
<totfact> 0.13701453E+03</totfact>
</mgrwt>
</event>
<event>
 5    0  0.1239749E+000  0.2098194E+03  0.7546771E-02  0.1141709E+00
         21   -1    0    0  501  502  0.00000000000E+00  0.00000000000E+00  0.24908781063E+02  0.24908781063E+02  0.00000000000E+00 0.  1.
          2   -1    0    0  503    0 -0.00000000000E+00 -0.00000000000E+00 -0.28705268054E+04  0.28705268054E+04  0.00000000000E+00 0. -1.
         25    1    1    2    0    0  0.13286635916E+03  0.16360641081E+03 -0.99683272386E+03  0.10265091361E+04  0.12500000000E+03 0.  0.
         21    1    1    2  503  502 -0.12499686871E+03 -0.38156463903E+02 -0.12667046115E+04  0.12734287203E+04  0.00000000000E+00 0. -1.
          2    1    1    2  501    0 -0.78694904507E+01 -0.12544994691E+03 -0.58208068893E+03  0.59549773004E+03  0.00000000000E+00 0. -1.
<mgrwt>
<rscale>  4 0.20981936E+03</rscale>
<asrwt>0</asrwt>
<pdfrwt beam="1">  1       21 0.38321201E-02 0.20981936E+03</pdfrwt>
<pdfrwt beam="2">  1        2 0.44161951E+00 0.20981936E+03</pdfrwt>
<totfact> 0.13633225E+04</totfact>
</mgrwt>
</event>
<event>
 5    0  0.1239749E+000  0.2540289E+03  0.7546771E-02  0.1110785E+00
          1   -1    0    0  503    0 -0.00000000000E+00  0.00000000000E+00  0.12707949946E+04  0.12707949946E+04  0.00000000000E+00 0. -1.
         21   -1    0    0  501  502  0.00000000000E+00 -0.00000000000E+00 -0.17645574104E+03  0.17645574104E+03  0.00000000000E+00 0.  1.
         25    1    1    2    0    0 -0.24367654073E+03  0.46885223680E+01  0.50350562333E+03  0.57318683818E+03  0.12500000000E+03 0.  0.
         21    1    1    2  503  502  0.21757953952E+03 -0.48478441714E+01 -0.57582801030E+02  0.22512249240E+03  0.00000000000E+00 0.  1.
          1    1    1    2  501    0  0.26097001208E+02  0.15932180341E+00  0.64841643122E+03  0.64894140501E+03  0.00000000000E+00 0. -1.
<mgrwt>
<rscale>  4 0.25402887E+03</rscale>
<asrwt>0</asrwt>
<pdfrwt beam="1">  1       21 0.27147038E-01 0.25402887E+03</pdfrwt>
<pdfrwt beam="2">  1        1 0.19550692E+00 0.25402887E+03</pdfrwt>
<totfact> 0.14504346E+03</totfact>
</mgrwt>
</event>
<event>
 5    0  0.1239749E+000  0.2176016E+03  0.7546771E-02  0.1135684E+00
         21   -1    0    0  501  502  0.00000000000E+00  0.00000000000E+00  0.31245815220E+03  0.31245815220E+03  0.00000000000E+00 0.  1.
          1   -1    0    0  503    0 -0.00000000000E+00 -0.00000000000E+00 -0.26202313726E+03  0.26202313726E+03  0.00000000000E+00 0.  1.
         25    1    1    2    0    0  0.70789828573E+02 -0.19495417624E+03  0.77127019045E+00  0.24216507907E+03  0.12500000000E+03 0.  0.
         21    1    1    2  503  502  0.89824560031E+02  0.11432679473E+03  0.46236988939E+02  0.15256777748E+03  0.00000000000E+00 0.  1.
          1    1    1    2  501    0 -0.16061438860E+03  0.80627381513E+02  0.34267558106E+01  0.17974843290E+03  0.00000000000E+00 0.  1.
<mgrwt>
<rscale>  4 0.21760160E+03</rscale>
<asrwt>0</asrwt>
<pdfrwt beam="1">  1       21 0.48070485E-01 0.21760160E+03</pdfrwt>
<pdfrwt beam="2">  1        1 0.40311252E-01 0.21760160E+03</pdfrwt>
<totfact> 0.46565160E+03</totfact>
</mgrwt>
</event>
<event>
 5    0  0.1239749E+000  0.4307505E+03  0.7546771E-02  0.1033623E+00
         21   -1    0    0  501  502  0.00000000000E+00  0.00000000000E+00  0.75631156973E+03  0.75631156973E+03  0.00000000000E+00 0.  1.
          2   -1    0    0  503    0 -0.00000000000E+00 -0.00000000000E+00 -0.60701938583E+03  0.60701938583E+03  0.00000000000E+00 0.  1.
         25    1    1    2    0    0  0.35185880543E+03 -0.13429507976E+03 -0.37205299145E+03  0.54395607897E+03  0.12500000000E+03 0.  0.
         21    1    1    2  503  502 -0.29920370625E+03  0.29959383604E+03  0.48185518148E+03  0.64145439459E+03  0.00000000000E+00 0.  1.
          2    1    1    2  501    0 -0.52655099178E+02 -0.16529875628E+03  0.39489993872E+02  0.17792048199E+03  0.00000000000E+00 0.  1.
<mgrwt>
<rscale>  4 0.43075046E+03</rscale>
<asrwt>0</asrwt>
<pdfrwt beam="1">  1       21 0.11635563E+00 0.43075046E+03</pdfrwt>
<pdfrwt beam="2">  1        2 0.93387598E-01 0.43075046E+03</pdfrwt>
<totfact> 0.31902314E+02</totfact>
</mgrwt>
</event>
<event>
 5    0  0.1239749E+000  0.2953173E+03  0.7546771E-02  0.1087605E+00
          2   -1    0    0  503    0 -0.00000000000E+00  0.00000000000E+00  0.98102985883E+03  0.98102985883E+03  0.00000000000E+00 0.  1.
         21   -1    0    0  501  502  0.00000000000E+00 -0.00000000000E+00 -0.41769021941E+03  0.41769021941E+03  0.00000000000E+00 0. -1.
         25    1    1    2    0    0  0.24339303304E+03 -0.13880201196E+01 -0.17129709515E+03  0.32281541156E+03  0.12500000000E+03 0.  0.
         21    1    1    2  503  502 -0.49127929676E+03 -0.72984048971E+02  0.61577006086E+03  0.79110984489E+03  0.00000000000E+00 0.  1.
          2    1    1    2  501    0  0.24788626372E+03  0.74372069091E+02  0.11886667371E+03  0.28479482180E+03  0.00000000000E+00 0.  1.
<mgrwt>
<rscale>  4 0.29531732E+03</rscale>
<asrwt>0</asrwt>
<pdfrwt beam="1">  1       21 0.64260034E-01 0.29531732E+03</pdfrwt>
<pdfrwt beam="2">  1        2 0.15092767E+00 0.29531732E+03</pdfrwt>
<totfact> 0.72648512E+02</totfact>
</mgrwt>
</event>
<event>
 5    0  0.1239749E+000  0.1721387E+03  0.7546771E-02  0.1175636E+00
          2   -1    0    0  503    0 -0.00000000000E+00  0.00000000000E+00  0.25074149951E+04  0.25074149951E+04  0.00000000000E+00 0.  1.
         21   -1    0    0  501  502  0.00000000000E+00 -0.00000000000E+00 -0.82739815543E+02  0.82739815543E+02  0.00000000000E+00 0. -1.
         25    1    1    2    0    0 -0.48923452280E+02 -0.19651461022E+03  0.66225024020E+03  0.70371292219E+03  0.12500000000E+03 0.  0.
         21    1    1    2  503  502  0.49795524631E+02  0.84799203189E+02 -0.20139689465E+02  0.10037980986E+03  0.00000000000E+00 0. -1.
          2    1    1    2  501    0 -0.87207235036E+00  0.11171540703E+03  0.17825646288E+04  0.17860620786E+04  0.00000000000E+00 0.  1.
<mgrwt>
<rscale>  4 0.17213868E+03</rscale>
<asrwt>0</asrwt>
<pdfrwt beam="1">  1       21 0.12729204E-01 0.17213868E+03</pdfrwt>
<pdfrwt beam="2">  1        2 0.38575610E+00 0.17213868E+03</pdfrwt>
<totfact> 0.27807561E+03</totfact>
</mgrwt>
</event>
<event>
 5    0  0.1239749E+000  0.2394114E+03  0.7546771E-02  0.1120186E+00
         21   -1    0    0  501  502  0.00000000000E+00  0.00000000000E+00  0.12030635961E+04  0.12030635961E+04  0.00000000000E+00 0. -1.
          2   -1    0    0  503    0 -0.00000000000E+00 -0.00000000000E+00 -0.54448418726E+03  0.54448418726E+03  0.00000000000E+00 0.  1.
         25    1    1    2    0    0 -0.14411306016E+03 -0.15771295185E+03  0.10195639730E+04  0.10491795101E+04  0.12500000000E+03 0.  0.
         21    1    1    2  503  502  0.10508514064E+03  0.14062146992E+03  0.12182733516E+03  0.21368009776E+03  0.00000000000E+00 0. -1.
          2    1    1    2  501    0  0.39027919522E+02  0.17091481929E+02 -0.48281189939E+03  0.48468817548E+03  0.00000000000E+00 0.  1.
<mgrwt>
<rscale>  4 0.23941141E+03</rscale>
<asrwt>0</asrwt>
<pdfrwt beam="1">  1       21 0.18508671E+00 0.23941141E+03</pdfrwt>
<pdfrwt beam="2">  1        2 0.83766798E-01 0.23941141E+03</pdfrwt>
<totfact> 0.11448771E+02</totfact>
</mgrwt>
</event>
<event>
 5    0  0.1239749E+000  0.3850236E+03  0.7546771E-02  0.1049092E+00
         21   -1    0    0  501  502  0.00000000000E+00  0.00000000000E+00  0.55123183547E+03  0.55123183547E+03  0.00000000000E+00 0.  1.
          2   -1    0    0  503    0 -0.00000000000E+00 -0.00000000000E+00 -0.88073899700E+03  0.88073899700E+03  0.00000000000E+00 0.  1.
         25    1    1    2    0    0 -0.23409550185E+03 -0.28129474792E+03  0.35673385672E+03  0.52612877105E+03  0.12500000000E+03 0.  0.
         21    1    1    2  503  502  0.14552668184E+03  0.33955037818E+03 -0.22493918131E+03  0.43251602253E+03  0.00000000000E+00 0.  1.
          2    1    1    2  501    0  0.88568820003E+02 -0.58255630259E+02 -0.46130183694E+03  0.47332603889E+03  0.00000000000E+00 0.  1.
<mgrwt>
<rscale>  4 0.38502360E+03</rscale>
<asrwt>0</asrwt>
<pdfrwt beam="1">  1       21 0.84804898E-01 0.38502360E+03</pdfrwt>
<pdfrwt beam="2">  1        2 0.13549831E+00 0.38502360E+03</pdfrwt>
<totfact> 0.43528861E+02</totfact>
</mgrwt>
</event>
<event>
 5    0  0.1239749E+000  0.2316971E+03  0.7546771E-02  0.1125451E+00
          1   -1    0    0  503    0 -0.00000000000E+00  0.00000000000E+00  0.24675846814E+03  0.24675846814E+03  0.00000000000E+00 0.  1.
         21   -1    0    0  501  502  0.00000000000E+00 -0.00000000000E+00 -0.80454139698E+03  0.80454139698E+03  0.00000000000E+00 0.  1.
         25    1    1    2    0    0 -0.10086739394E+03  0.20516938232E+03 -0.33054474036E+03  0.42089610593E+03  0.12500000000E+03 0.  0.
         21    1    1    2  503  502  0.11278272439E+03 -0.11395865809E+02 -0.37157921501E+03  0.38848542019E+03  0.00000000000E+00 0.  1.
          1    1    1    2  501    0 -0.11915330452E+02 -0.19377351651E+03  0.14434102653E+03  0.24191833900E+03  0.00000000000E+00 0.  1.
<mgrwt>
<rscale>  4 0.23169714E+03</rscale>
<asrwt>0</asrwt>
<pdfrwt beam="1">  1       21 0.12377560E+00 0.23169714E+03</pdfrwt>
<pdfrwt beam="2">  1        1 0.37962841E-01 0.23169714E+03</pdfrwt>
<totfact> 0.58486755E+02</totfact>
</mgrwt>
</event>
<event>
 5    0  0.1239749E+000  0.2374895E+03  0.7546771E-02  0.1121477E+00
         21   -1    0    0  501  502  0.00000000000E+00  0.00000000000E+00  0.55816022320E+03  0.55816022320E+03  0.00000000000E+00 0.  1.
          2   -1    0    0  503    0 -0.00000000000E+00 -0.00000000000E+00 -0.66737160859E+03  0.66737160859E+03  0.00000000000E+00 0. -1.
         25    1    1    2    0    0  0.30508569548E+02  0.22358401307E+03  0.39352255567E+03  0.47053754955E+03  0.12500000000E+03 0.  0.
         21    1    1    2  503  502  0.25588331932E+01 -0.16814350230E+03  0.67436836277E+02  0.18118088167E+03  0.00000000000E+00 0.  1.
          2    1    1    2  501    0 -0.33067402741E+02 -0.55440510767E+02 -0.57017077733E+03  0.57381340057E+03  0.00000000000E+00 0. -1.
<mgrwt>
<rscale>  4 0.23748952E+03</rscale>
<asrwt>0</asrwt>
<pdfrwt beam="1">  1       21 0.85870804E-01 0.23748952E+03</pdfrwt>
<pdfrwt beam="2">  1        2 0.10267255E+00 0.23748952E+03</pdfrwt>
<totfact> 0.63890917E+02</totfact>
</mgrwt>
</event>
<event>
 5    0  0.1239749E+000  0.2942034E+03  0.7546771E-02  0.1088175E+00
         21   -1    0    0  501  502  0.00000000000E+00  0.00000000000E+00  0.10220980335E+03  0.10220980335E+03  0.00000000000E+00 0. -1.
          2   -1    0    0  503    0 -0.00000000000E+00 -0.00000000000E+00 -0.19689231981E+04  0.19689231981E+04  0.00000000000E+00 0. -1.
         25    1    1    2    0    0  0.25533551451E+03 -0.88566609701E+02 -0.25847253215E+03  0.39430105148E+03  0.12500000000E+03 0.  0.
         21    1    1    2  503  502 -0.18078836011E+03  0.22351464953E+03 -0.71927275027E+03  0.77459442225E+03  0.00000000000E+00 0. -1.
          2    1    1    2  501    0 -0.74547154398E+02 -0.13494803982E+03 -0.88896811233E+03  0.90223752771E+03  0.00000000000E+00 0. -1.
<mgrwt>
<rscale>  4 0.29420335E+03</rscale>
<asrwt>0</asrwt>
<pdfrwt beam="1">  1       21 0.15724585E-01 0.29420335E+03</pdfrwt>
<pdfrwt beam="2">  1        2 0.30291127E+00 0.29420335E+03</pdfrwt>
<totfact> 0.34379272E+03</totfact>
</mgrwt>
</event>
<event>
 5    0  0.1239749E+000  0.2303085E+03  0.7546771E-02  0.1126423E+00
          2   -1    0    0  503    0 -0.00000000000E+00  0.00000000000E+00  0.14747164228E+04  0.14747164228E+04  0.00000000000E+00 0. -1.
         21   -1    0    0  501  502  0.00000000000E+00 -0.00000000000E+00 -0.62658118920E+02  0.62658118920E+02  0.00000000000E+00 0. -1.
         25    1    1    2    0    0 -0.21515044885E+03  0.16949741381E+02  0.27752693255E+03  0.37312626236E+03  0.12500000000E+03 0.  0.
         21    1    1    2  503  502  0.80242679118E+02 -0.59525334725E+02  0.26353677880E+03  0.28184000214E+03  0.00000000000E+00 0. -1.
          2    1    1    2  501    0  0.13490776973E+03  0.42575593344E+02  0.87099459252E+03  0.88240827720E+03  0.00000000000E+00 0. -1.
<mgrwt>
<rscale>  4 0.23030849E+03</rscale>
<asrwt>0</asrwt>
<pdfrwt beam="1">  1       21 0.96397117E-02 0.23030849E+03</pdfrwt>
<pdfrwt beam="2">  1        2 0.22687942E+00 0.23030849E+03</pdfrwt>
<totfact> 0.15492329E+04</totfact>
</mgrwt>
</event>
<event>
 5    0  0.1239749E+000  0.2336590E+03  0.7546771E-02  0.1124091E+00
          1   -1    0    0  503    0 -0.00000000000E+00  0.00000000000E+00  0.13415216938E+04  0.13415216938E+04  0.00000000000E+00 0. -1.
         21   -1    0    0  501  502  0.00000000000E+00 -0.00000000000E+00 -0.85314325579E+02  0.85314325579E+02  0.00000000000E+00 0.  1.
         25    1    1    2    0    0  0.17318775495E+03 -0.11213172391E+03  0.16116750900E+03  0.29011633516E+03  0.12500000000E+03 0.  0.
         21    1    1    2  503  502  0.10896190584E+02  0.42702017801E+02  0.29182339922E+02  0.52856392772E+02  0.00000000000E+00 0.  1.
          1    1    1    2  501    0 -0.18408394553E+03  0.69429706105E+02  0.10658575193E+04  0.10838632914E+04  0.00000000000E+00 0. -1.
<mgrwt>
<rscale>  4 0.23365902E+03</rscale>
<asrwt>0</asrwt>
<pdfrwt beam="1">  1       21 0.13125282E-01 0.23365902E+03</pdfrwt>
<pdfrwt beam="2">  1        1 0.20638794E+00 0.23365902E+03</pdfrwt>
<totfact> 0.50922426E+03</totfact>
</mgrwt>
</event>
<event>
 5    0  0.1239749E+000  0.2268360E+03  0.7546771E-02  0.1128887E+00
         21   -1    0    0  501  502  0.00000000000E+00  0.00000000000E+00  0.40221453037E+03  0.40221453037E+03  0.00000000000E+00 0. -1.
          2   -1    0    0  503    0 -0.00000000000E+00 -0.00000000000E+00 -0.10447984103E+04  0.10447984103E+04  0.00000000000E+00 0.  1.
         25    1    1    2    0    0  0.16074956041E+03  0.12533404904E+03  0.14000493024E+03  0.27708378789E+03  0.12500000000E+03 0.  0.
         21    1    1    2  503  502 -0.17674982693E+03 -0.54396283424E+02  0.14777901980E+03  0.23672366942E+03  0.00000000000E+00 0. -1.
          2    1    1    2  501    0  0.16000266525E+02 -0.70937765617E+02 -0.93036782998E+03  0.93320548337E+03  0.00000000000E+00 0.  1.
<mgrwt>
<rscale>  4 0.22683601E+03</rscale>
<asrwt>0</asrwt>
<pdfrwt beam="1">  1       21 0.61879159E-01 0.22683601E+03</pdfrwt>
<pdfrwt beam="2">  1        2 0.16073822E+00 0.22683601E+03</pdfrwt>
<totfact> 0.74542793E+02</totfact>
</mgrwt>
</event>
<event>
 5    0  0.1239749E+000  0.2767819E+03  0.7546771E-02  0.1097460E+00
         -2   -1    0    0    0  501 -0.00000000000E+00  0.00000000000E+00  0.18683980828E+04  0.18683980828E+04  0.00000000000E+00 0. -1.
         21   -1    0    0  503  502  0.00000000000E+00 -0.00000000000E+00 -0.40497646553E+03  0.40497646553E+03  0.00000000000E+00 0.  1.
         25    1    1    2    0    0 -0.22386532472E+03  0.95684655450E+02 -0.26704433409E+03  0.38237274128E+03  0.12500000000E+03 0.  0.
         21    1    1    2  503  501  0.15955040086E+03 -0.28223412580E+03  0.28360897960E+03  0.43075107137E+03  0.00000000000E+00 0. -1.
         -2    1    1    2    0  502  0.64314923861E+02  0.18654947035E+03  0.14468569718E+04  0.14602507357E+04  0.00000000000E+00 0. -1.
<mgrwt>
<rscale>  4 0.27678194E+03</rscale>
<asrwt>0</asrwt>
<pdfrwt beam="1">  1       21 0.62304073E-01 0.27678194E+03</pdfrwt>
<pdfrwt beam="2">  1       -2 0.28744585E+00 0.27678194E+03</pdfrwt>
<totfact> 0.81609127E+00</totfact>
</mgrwt>
</event>
<event>
 5    0  0.1239749E+000  0.2513277E+03  0.7546771E-02  0.1112469E+00
         21   -1    0    0  501  502  0.00000000000E+00  0.00000000000E+00  0.35828346120E+03  0.35828346120E+03  0.00000000000E+00 0. -1.
          1   -1    0    0  503    0 -0.00000000000E+00 -0.00000000000E+00 -0.59917339688E+03  0.59917339688E+03  0.00000000000E+00 0.  1.
         25    1    1    2    0    0  0.34089533065E+02 -0.22186486043E+03  0.24384422038E+03  0.35421902316E+03  0.12500000000E+03 0.  0.
         21    1    1    2  503  502 -0.62015275925E+02  0.19016502184E+03 -0.11424682555E+03  0.23034966275E+03  0.00000000000E+00 0. -1.
          1    1    1    2  501    0  0.27925742860E+02  0.31699838592E+02 -0.37048733051E+03  0.37288817217E+03  0.00000000000E+00 0.  1.
<mgrwt>
<rscale>  4 0.25132774E+03</rscale>
<asrwt>0</asrwt>
<pdfrwt beam="1">  1       21 0.55120533E-01 0.25132774E+03</pdfrwt>
<pdfrwt beam="2">  1        1 0.92180522E-01 0.25132774E+03</pdfrwt>
<totfact> 0.11818735E+03</totfact>
</mgrwt>
</event>
<event>
 5    0  0.1239749E+000  0.3324631E+03  0.7546771E-02  0.1070052E+00
          2   -1    0    0  503    0 -0.00000000000E+00  0.00000000000E+00  0.32702799427E+04  0.32702799427E+04  0.00000000000E+00 0.  1.
         21   -1    0    0  501  502  0.00000000000E+00 -0.00000000000E+00 -0.31350800375E+03  0.31350800375E+03  0.00000000000E+00 0.  1.
         25    1    1    2    0    0 -0.21311243927E+03 -0.19972437281E+03 -0.12604281263E+03  0.34178725471E+03  0.12500000000E+03 0.  0.
         21    1    1    2  503  502  0.28180545272E+03  0.24570449076E+03  0.36358927415E+03  0.52151909863E+03  0.00000000000E+00 0.  1.
          2    1    1    2  501    0 -0.68693013449E+02 -0.45980117955E+02  0.27192254774E+04  0.27204815931E+04  0.00000000000E+00 0.  1.
<mgrwt>
<rscale>  4 0.33246306E+03</rscale>
<asrwt>0</asrwt>
<pdfrwt beam="1">  1       21 0.48232003E-01 0.33246306E+03</pdfrwt>
<pdfrwt beam="2">  1        2 0.50311997E+00 0.33246306E+03</pdfrwt>
<totfact> 0.68798895E+01</totfact>
</mgrwt>
</event>
<event>
 5    0  0.1239749E+000  0.2715324E+03  0.7546771E-02  0.1100406E+00
          2   -1    0    0  503    0 -0.00000000000E+00  0.00000000000E+00  0.55561498791E+03  0.55561498791E+03  0.00000000000E+00 0.  1.
         21   -1    0    0  501  502  0.00000000000E+00 -0.00000000000E+00 -0.10516718020E+04  0.10516718020E+04  0.00000000000E+00 0. -1.
         25    1    1    2    0    0  0.13410787566E+03  0.20640676316E+03 -0.91303753809E+03  0.95386121640E+03  0.12500000000E+03 0.  0.
         21    1    1    2  503  502 -0.19435931399E+03 -0.12264003660E+03  0.62187915272E+01  0.22990170700E+03  0.00000000000E+00 0. -1.
          2    1    1    2  501    0  0.60251438335E+02 -0.83766726561E+02  0.41076193250E+03  0.42352386649E+03  0.00000000000E+00 0.  1.
<mgrwt>
<rscale>  4 0.27153237E+03</rscale>
<asrwt>0</asrwt>
<pdfrwt beam="1">  1       21 0.16179566E+00 0.27153237E+03</pdfrwt>
<pdfrwt beam="2">  1        2 0.85479230E-01 0.27153237E+03</pdfrwt>
<totfact> 0.15970724E+02</totfact>
</mgrwt>
</event>
<event>
 5    0  0.1239749E+000  0.2709806E+03  0.7546771E-02  0.1100720E+00
          1   -1    0    0  503    0 -0.00000000000E+00  0.00000000000E+00  0.11448943109E+04  0.11448943109E+04  0.00000000000E+00 0. -1.
         21   -1    0    0  501  502  0.00000000000E+00 -0.00000000000E+00 -0.10600510990E+04  0.10600510990E+04  0.00000000000E+00 0. -1.
         25    1    1    2    0    0 -0.29333054279E+03  0.11074427578E+03 -0.18853603481E+03  0.38662376850E+03  0.12500000000E+03 0.  0.
         21    1    1    2  503  502  0.22018718677E+03 -0.59784653502E+02 -0.75365076567E+03  0.78743004681E+03  0.00000000000E+00 0. -1.
          1    1    1    2  501    0  0.73143356018E+02 -0.50959622282E+02  0.10270300123E+04  0.10308915946E+04  0.00000000000E+00 0. -1.
<mgrwt>
<rscale>  4 0.27098061E+03</rscale>
<asrwt>0</asrwt>
<pdfrwt beam="1">  1       21 0.16308478E+00 0.27098061E+03</pdfrwt>
<pdfrwt beam="2">  1        1 0.17613759E+00 0.27098061E+03</pdfrwt>
<totfact> 0.31371846E+01</totfact>
</mgrwt>
</event>
<event>
 5    0  0.1239749E+000  0.2183456E+03  0.7546771E-02  0.1135122E+00
         21   -1    0    0  501  502  0.00000000000E+00  0.00000000000E+00  0.83649094165E+03  0.83649094165E+03  0.00000000000E+00 0. -1.
          2   -1    0    0  503    0 -0.00000000000E+00 -0.00000000000E+00 -0.79530460428E+03  0.79530460428E+03  0.00000000000E+00 0. -1.
         25    1    1    2    0    0 -0.15294945008E+03  0.14356934716E+03  0.21879510315E+03  0.32787495923E+03  0.12500000000E+03 0.  0.
         21    1    1    2  503  502  0.16443553212E+03 -0.59006491419E+02  0.54704252555E+03  0.57426155627E+03  0.00000000000E+00 0. -1.
          2    1    1    2  501    0 -0.11486082038E+02 -0.84562855744E+02 -0.72465129134E+03  0.72965903043E+03  0.00000000000E+00 0. -1.
<mgrwt>
<rscale>  4 0.21834563E+03</rscale>
<asrwt>0</asrwt>
<pdfrwt beam="1">  1       21 0.12869091E+00 0.21834563E+03</pdfrwt>
<pdfrwt beam="2">  1        2 0.12235455E+00 0.21834563E+03</pdfrwt>
<totfact> 0.19646320E+02</totfact>
</mgrwt>
</event>
<event>
 5    0  0.1239749E+000  0.2447831E+03  0.7546771E-02  0.1116647E+00
         21   -1    0    0  503  502  0.00000000000E+00  0.00000000000E+00  0.24492910977E+03  0.24492910977E+03  0.00000000000E+00 0. -1.
         -4   -1    0    0    0  501 -0.00000000000E+00 -0.00000000000E+00 -0.61923028682E+03  0.61923028682E+03  0.00000000000E+00 0. -1.
         25    1    1    2    0    0  0.20538531765E+03  0.54531998474E+01  0.78911868408E+02  0.25311054713E+03  0.12500000000E+03 0.  0.
         21    1    1    2  503  501 -0.21847100724E+03 -0.23418913194E+02 -0.74980689811E+02  0.23216401604E+03  0.00000000000E+00 0. -1.
         -4    1    1    2    0  502  0.13085689593E+02  0.17965713347E+02 -0.37823235565E+03  0.37888483341E+03  0.00000000000E+00 0. -1.
<mgrwt>
<rscale>  4 0.24478312E+03</rscale>
<asrwt>0</asrwt>
<pdfrwt beam="1">  1       21 0.37681402E-01 0.24478312E+03</pdfrwt>
<pdfrwt beam="2">  1       -4 0.95266198E-01 0.24478312E+03</pdfrwt>
<totfact> 0.27152655E+02</totfact>
</mgrwt>
</event>
<event>
 5    0  0.1239749E+000  0.3685510E+03  0.7546771E-02  0.1055248E+00
         21   -1    0    0  501  502  0.00000000000E+00  0.00000000000E+00  0.91351839226E+02  0.91351839226E+02  0.00000000000E+00 0.  1.
          2   -1    0    0  503    0 -0.00000000000E+00 -0.00000000000E+00 -0.24966113792E+04  0.24966113792E+04  0.00000000000E+00 0. -1.
         25    1    1    2    0    0  0.35210519370E+03  0.93715039140E+02 -0.10504474796E+04  0.11188500719E+04  0.12500000000E+03 0.  0.
         21    1    1    2  503  502 -0.33074225018E+03 -0.72589762630E+02 -0.44685687607E+03  0.56066101825E+03  0.00000000000E+00 0.  1.
          2    1    1    2  501    0 -0.21362943517E+02 -0.21125276510E+02 -0.90795518427E+03  0.90845212824E+03  0.00000000000E+00 0. -1.
<mgrwt>
<rscale>  4 0.36855103E+03</rscale>
<asrwt>0</asrwt>
<pdfrwt beam="1">  1       21 0.14054130E-01 0.36855103E+03</pdfrwt>
<pdfrwt beam="2">  1        2 0.38409402E+00 0.36855103E+03</pdfrwt>
<totfact> 0.21403339E+03</totfact>
</mgrwt>
</event>
<event>
 5    0  0.1239749E+000  0.2955463E+03  0.7546771E-02  0.1087488E+00
          2   -1    0    0  503    0 -0.00000000000E+00  0.00000000000E+00  0.92468288298E+03  0.92468288298E+03  0.00000000000E+00 0.  1.
         21   -1    0    0  501  502  0.00000000000E+00 -0.00000000000E+00 -0.22650770640E+03  0.22650770640E+03  0.00000000000E+00 0.  1.
         25    1    1    2    0    0 -0.63996738467E+02  0.22528246661E+03  0.64246497076E+03  0.69515035133E+03  0.12500000000E+03 0.  0.
         21    1    1    2  503  502  0.12677389903E+03 -0.24211105554E+03 -0.97061704769E+02  0.29001786018E+03  0.00000000000E+00 0.  1.
          2    1    1    2  501    0 -0.62777160558E+02  0.16828588934E+02  0.15277191059E+03  0.16602237788E+03  0.00000000000E+00 0.  1.
<mgrwt>
<rscale>  4 0.29554626E+03</rscale>
<asrwt>0</asrwt>
<pdfrwt beam="1">  1       21 0.34847340E-01 0.29554626E+03</pdfrwt>
<pdfrwt beam="2">  1        2 0.14225890E+00 0.29554626E+03</pdfrwt>
<totfact> 0.28386641E+03</totfact>
</mgrwt>
</event>
<event>
 5    0  0.1239749E+000  0.3538755E+03  0.7546771E-02  0.1061036E+00
          2   -1    0    0  503    0 -0.00000000000E+00  0.00000000000E+00  0.38513536270E+03  0.38513536270E+03  0.00000000000E+00 0. -1.
         21   -1    0    0  501  502  0.00000000000E+00 -0.00000000000E+00 -0.11629866408E+04  0.11629866408E+04  0.00000000000E+00 0.  1.
         25    1    1    2    0    0 -0.20868126677E+03  0.21550600664E+03 -0.88783064674E+02  0.33689485388E+03  0.12500000000E+03 0.  0.
         21    1    1    2  503  502  0.25655354715E+03 -0.22142706130E+03 -0.91732780796E+03  0.97792636394E+03  0.00000000000E+00 0.  1.
          2    1    1    2  501    0 -0.47872280376E+02  0.59210546648E+01  0.22825959452E+03  0.23330078570E+03  0.00000000000E+00 0. -1.
<mgrwt>
<rscale>  4 0.35387550E+03</rscale>
<asrwt>0</asrwt>
<pdfrwt beam="1">  1       21 0.17892102E+00 0.35387550E+03</pdfrwt>
<pdfrwt beam="2">  1        2 0.59251595E-01 0.35387550E+03</pdfrwt>
<totfact> 0.17375223E+02</totfact>
</mgrwt>
</event>
<event>
 5    0  0.1239749E+000  0.2470906E+03  0.7546771E-02  0.1115157E+00
         21   -1    0    0  503  502  0.00000000000E+00  0.00000000000E+00  0.27547343121E+03  0.27547343121E+03  0.00000000000E+00 0.  1.
         -4   -1    0    0    0  501 -0.00000000000E+00 -0.00000000000E+00 -0.24947500594E+04  0.24947500594E+04  0.00000000000E+00 0. -1.
         25    1    1    2    0    0 -0.27831389142E+03  0.16038189463E+02 -0.59084188220E+03  0.66515785753E+03  0.12500000000E+03 0.  0.
         21    1    1    2  503  501  0.20701895217E+03 -0.23910064983E+02  0.19191587781E+03  0.28330238602E+03  0.00000000000E+00 0.  1.
         -4    1    1    2    0  502  0.71294939247E+02  0.78718755195E+01 -0.18203506238E+04  0.18217632471E+04  0.00000000000E+00 0. -1.
<mgrwt>
<rscale>  4 0.24709065E+03</rscale>
<asrwt>0</asrwt>
<pdfrwt beam="1">  1       21 0.42380530E-01 0.24709065E+03</pdfrwt>
<pdfrwt beam="2">  1       -4 0.38380768E+00 0.24709065E+03</pdfrwt>
<totfact> 0.24511767E+00</totfact>
</mgrwt>
</event>
<event>
 5    0  0.1239749E+000  0.2450756E+03  0.7546771E-02  0.1116457E+00
         21   -1    0    0  503  502  0.00000000000E+00  0.00000000000E+00  0.40775140095E+03  0.40775140095E+03  0.00000000000E+00 0. -1.
         -4   -1    0    0    0  501 -0.00000000000E+00 -0.00000000000E+00 -0.42987214864E+03  0.42987214864E+03  0.00000000000E+00 0. -1.
         25    1    1    2    0    0  0.79009120505E+02 -0.19275039557E+03  0.27849507875E+03  0.36956686134E+03  0.12500000000E+03 0.  0.
         21    1    1    2  503  501  0.97657682125E+02  0.21975914985E+02 -0.34565986374E+02  0.10589981648E+03  0.00000000000E+00 0. -1.
         -4    1    1    2    0  502 -0.17666680263E+03  0.17077448059E+03 -0.26604984006E+03  0.36215687177E+03  0.00000000000E+00 0. -1.
<mgrwt>
<rscale>  4 0.24507556E+03</rscale>
<asrwt>0</asrwt>
<pdfrwt beam="1">  1       21 0.62730985E-01 0.24507556E+03</pdfrwt>
<pdfrwt beam="2">  1       -4 0.66134177E-01 0.24507556E+03</pdfrwt>
<totfact> 0.21154850E+02</totfact>
</mgrwt>
</event>
<event>
 5    0  0.1239749E+000  0.4365662E+03  0.7546771E-02  0.1031806E+00
          2   -1    0    0  503    0 -0.00000000000E+00  0.00000000000E+00  0.57776141784E+03  0.57776141784E+03  0.00000000000E+00 0.  1.
         21   -1    0    0  501  502  0.00000000000E+00 -0.00000000000E+00 -0.75536919988E+03  0.75536919988E+03  0.00000000000E+00 0.  1.
         25    1    1    2    0    0 -0.33483035951E+03 -0.17989471718E+03 -0.37830913513E+03  0.55065077921E+03  0.12500000000E+03 0.  0.
         21    1    1    2  503  502 -0.87054276634E+02  0.99370231075E+02 -0.16988136322E+03  0.21520354894E+03  0.00000000000E+00 0. -1.
          2    1    1    2  501    0  0.42188463615E+03  0.80524486102E+02  0.37058271631E+03  0.56727628957E+03  0.00000000000E+00 0.  1.
<mgrwt>
<rscale>  4 0.43656618E+03</rscale>
<asrwt>0</asrwt>
<pdfrwt beam="1">  1       21 0.11621065E+00 0.43656618E+03</pdfrwt>
<pdfrwt beam="2">  1        2 0.88886372E-01 0.43656618E+03</pdfrwt>
<totfact> 0.33867648E+02</totfact>
</mgrwt>
</event>
<event>
 5    0  0.1239749E+000  0.1979909E+03  0.7546771E-02  0.1151445E+00
         -2   -1    0    0    0  501 -0.00000000000E+00  0.00000000000E+00  0.30494374369E+03  0.30494374369E+03  0.00000000000E+00 0. -1.
         21   -1    0    0  503  502  0.00000000000E+00 -0.00000000000E+00 -0.21767899478E+03  0.21767899478E+03  0.00000000000E+00 0. -1.
         25    1    1    2    0    0  0.14379399116E+03 -0.14155085400E+03  0.92386583054E+02  0.25470303667E+03  0.12500000000E+03 0.  0.
         21    1    1    2  503  501 -0.10912906332E+03  0.91622855693E+02 -0.86239162134E+02  0.16655657667E+03  0.00000000000E+00 0. -1.
         -2    1    1    2    0  502 -0.34664927843E+02  0.49927998306E+02  0.81117327990E+02  0.10136312514E+03  0.00000000000E+00 0. -1.
<mgrwt>
<rscale>  4 0.19799093E+03</rscale>
<asrwt>0</asrwt>
<pdfrwt beam="1">  1       21 0.33489076E-01 0.19799093E+03</pdfrwt>
<pdfrwt beam="2">  1       -2 0.46914422E-01 0.19799093E+03</pdfrwt>
<totfact> 0.30305838E+03</totfact>
</mgrwt>
</event>
<event>
 5    0  0.1239749E+000  0.3558259E+03  0.7546771E-02  0.1060249E+00
         21   -1    0    0  501  502  0.00000000000E+00  0.00000000000E+00  0.60437370206E+03  0.60437370206E+03  0.00000000000E+00 0.  1.
          2   -1    0    0  503    0 -0.00000000000E+00 -0.00000000000E+00 -0.60180122669E+03  0.60180122669E+03  0.00000000000E+00 0.  1.
         25    1    1    2    0    0  0.50952305994E+02 -0.32230815877E+03  0.36801815135E+03  0.50748502088E+03  0.12500000000E+03 0.  0.
         21    1    1    2  503  502 -0.37845485036E+02  0.34967512400E+03 -0.20395437911E+02  0.35230802853E+03  0.00000000000E+00 0.  1.
          2    1    1    2  501    0 -0.13106820958E+02 -0.27366965227E+02 -0.34505023807E+03  0.34638187934E+03  0.00000000000E+00 0.  1.
<mgrwt>
<rscale>  4 0.35582587E+03</rscale>
<asrwt>0</asrwt>
<pdfrwt beam="1">  1       21 0.92980570E-01 0.35582587E+03</pdfrwt>
<pdfrwt beam="2">  1        2 0.92584804E-01 0.35582587E+03</pdfrwt>
<totfact> 0.57102053E+02</totfact>
</mgrwt>
</event>
<event>
 5    0  0.1239749E+000  0.4936935E+03  0.7546771E-02  0.1015438E+00
          1   -1    0    0  503    0 -0.00000000000E+00  0.00000000000E+00  0.30707993315E+04  0.30707993315E+04  0.00000000000E+00 0.  1.
         21   -1    0    0  501  502  0.00000000000E+00 -0.00000000000E+00 -0.36370635208E+03  0.36370635208E+03  0.00000000000E+00 0.  1.
         25    1    1    2    0    0 -0.39078632566E+03 -0.27341457055E+03 -0.15612017765E+03  0.51717307507E+03  0.12500000000E+03 0.  0.
         21    1    1    2  503  502  0.40937605578E+03  0.26216387256E+03  0.21702439409E+04  0.22240227999E+04  0.00000000000E+00 0.  1.
          1    1    1    2  501    0 -0.18589730123E+02  0.11250697988E+02  0.69296921618E+03  0.69330980870E+03  0.00000000000E+00 0.  1.
<mgrwt>
<rscale>  4 0.49369346E+03</rscale>
<asrwt>0</asrwt>
<pdfrwt beam="1">  1       21 0.55954825E-01 0.49369346E+03</pdfrwt>
<pdfrwt beam="2">  1        1 0.47243065E+00 0.49369346E+03</pdfrwt>
<totfact> 0.18311454E+01</totfact>
</mgrwt>
</event>
<event>
 5    0  0.1475438E+000  0.2227944E+03  0.7546771E-02  0.1131817E+00
         21   -1    0    0  501  502  0.00000000000E+00  0.00000000000E+00  0.38635566185E+03  0.38635566185E+03  0.00000000000E+00 0. -1.
          2   -1    0    0  503    0 -0.00000000000E+00 -0.00000000000E+00 -0.15585289443E+04  0.15585289443E+04  0.00000000000E+00 0. -1.
         25    1    1    2    0    0 -0.19024508150E+03 -0.88853076819E+02 -0.81330616585E+03  0.84922316248E+03  0.12500000000E+03 0.  0.
         21    1    1    2  503  502  0.16174994365E+03  0.87139520410E+02  0.34518234395E+03  0.39103349072E+03  0.00000000000E+00 0. -1.
          2    1    1    2  501    0  0.28495137847E+02  0.17135564089E+01 -0.70404946058E+03  0.70462795297E+03  0.00000000000E+00 0. -1.
<mgrwt>
<rscale>  4 0.22279441E+03</rscale>
<asrwt>0</asrwt>
<pdfrwt beam="1">  1       21 0.59439333E-01 0.22279441E+03</pdfrwt>
<pdfrwt beam="2">  1        2 0.23977368E+00 0.22279441E+03</pdfrwt>
<totfact> 0.42277165E+02</totfact>
</mgrwt>
</event>
<event>
 5    0  0.1239749E+000  0.2245208E+03  0.7546771E-02  0.1130557E+00
         21   -1    0    0  501  502  0.00000000000E+00  0.00000000000E+00  0.88814036426E+03  0.88814036426E+03  0.00000000000E+00 0.  1.
          2   -1    0    0  503    0 -0.00000000000E+00 -0.00000000000E+00 -0.24466896863E+03  0.24466896863E+03  0.00000000000E+00 0. -1.
         25    1    1    2    0    0  0.18567563466E+03 -0.83438074356E+02  0.62131122525E+03  0.66565005234E+03  0.12500000000E+03 0.  0.
         21    1    1    2  503  502 -0.15298702029E+03  0.61814482412E+02  0.21463806324E+03  0.27073152163E+03  0.00000000000E+00 0.  1.
          2    1    1    2  501    0 -0.32688614372E+02  0.21623591944E+02 -0.19247789286E+03  0.19642775893E+03  0.00000000000E+00 0. -1.
<mgrwt>
<rscale>  4 0.22452079E+03</rscale>
<asrwt>0</asrwt>
<pdfrwt beam="1">  1       21 0.13663698E+00 0.22452079E+03</pdfrwt>
<pdfrwt beam="2">  1        2 0.37641380E-01 0.22452079E+03</pdfrwt>
<totfact> 0.63117453E+02</totfact>
</mgrwt>
</event>
<event>
 5    0  0.1239749E+000  0.2766293E+03  0.7546771E-02  0.1097544E+00
          1   -1    0    0  503    0 -0.00000000000E+00  0.00000000000E+00  0.14103677529E+04  0.14103677529E+04  0.00000000000E+00 0. -1.
         21   -1    0    0  501  502  0.00000000000E+00 -0.00000000000E+00 -0.43863518401E+03  0.43863518401E+03  0.00000000000E+00 0.  1.
         25    1    1    2    0    0 -0.20018177840E+03 -0.14332437167E+03 -0.36820069041E+03  0.46022969084E+03  0.12500000000E+03 0.  0.
         21    1    1    2  503  502  0.21806825488E+03  0.13376465557E+03  0.64985349529E+03  0.69839552706E+03  0.00000000000E+00 0.  1.
          1    1    1    2  501    0 -0.17886476485E+02  0.95597161033E+01  0.69007976402E+03  0.69037771902E+03  0.00000000000E+00 0. -1.
<mgrwt>
<rscale>  4 0.27662931E+03</rscale>
<asrwt>0</asrwt>
<pdfrwt beam="1">  1       21 0.67482337E-01 0.27662931E+03</pdfrwt>
<pdfrwt beam="2">  1        1 0.21697965E+00 0.27662931E+03</pdfrwt>
<totfact> 0.17634403E+02</totfact>
</mgrwt>
</event>
<event>
 5    0  0.1239749E+000  0.3575751E+03  0.7546771E-02  0.1059548E+00
         21   -1    0    0  501  502  0.00000000000E+00  0.00000000000E+00  0.25437484977E+03  0.25437484977E+03  0.00000000000E+00 0. -1.
          2   -1    0    0  503    0 -0.00000000000E+00 -0.00000000000E+00 -0.20852218363E+04  0.20852218363E+04  0.00000000000E+00 0.  1.
         25    1    1    2    0    0 -0.27614356055E+03  0.89458554403E+01 -0.67516223314E+03  0.74013805159E+03  0.12500000000E+03 0.  0.
         21    1    1    2  503  502  0.33784990308E+03  0.84608763645E+02  0.81104592039E+02  0.35760195014E+03  0.00000000000E+00 0. -1.
          2    1    1    2  501    0 -0.61706342530E+02 -0.93554619086E+02 -0.12367893454E+04  0.12418566843E+04  0.00000000000E+00 0.  1.
<mgrwt>
<rscale>  4 0.35757513E+03</rscale>
<asrwt>0</asrwt>
<pdfrwt beam="1">  1       21 0.39134591E-01 0.35757513E+03</pdfrwt>
<pdfrwt beam="2">  1        2 0.32080337E+00 0.35757513E+03</pdfrwt>
<totfact> 0.49792412E+02</totfact>
</mgrwt>
</event>
<event>
 5    0  0.1239749E+000  0.2745896E+03  0.7546771E-02  0.1098681E+00
          2   -1    0    0  503    0 -0.00000000000E+00  0.00000000000E+00  0.99395934720E+03  0.99395934720E+03  0.00000000000E+00 0. -1.
         21   -1    0    0  501  502  0.00000000000E+00 -0.00000000000E+00 -0.48416879824E+03  0.48416879824E+03  0.00000000000E+00 0. -1.
         25    1    1    2    0    0  0.46627274832E+02  0.24269848810E+03 -0.33144124455E+03  0.43192008227E+03  0.12500000000E+03 0.  0.
         21    1    1    2  503  502 -0.10387190374E+03 -0.21923454263E+03  0.43969699454E+02  0.24654916657E+03  0.00000000000E+00 0. -1.
          2    1    1    2  501    0  0.57244628911E+02 -0.23463945473E+02  0.79726209405E+03  0.79965889659E+03  0.00000000000E+00 0. -1.
<mgrwt>
<rscale>  4 0.27458957E+03</rscale>
<asrwt>0</asrwt>
<pdfrwt beam="1">  1       21 0.74487507E-01 0.27458957E+03</pdfrwt>
<pdfrwt beam="2">  1        2 0.15291682E+00 0.27458957E+03</pdfrwt>
<totfact> 0.51841220E+02</totfact>
</mgrwt>
</event>
<event>
 5    0  0.1239749E+000  0.2436001E+03  0.7546771E-02  0.1117418E+00
         21   -1    0    0  501  502  0.00000000000E+00  0.00000000000E+00  0.70821512975E+02  0.70821512975E+02  0.00000000000E+00 0. -1.
          2   -1    0    0  503    0 -0.00000000000E+00 -0.00000000000E+00 -0.21345253126E+04  0.21345253126E+04  0.00000000000E+00 0. -1.
         25    1    1    2    0    0 -0.93655865906E+02  0.20521196552E+03 -0.29497698711E+03  0.39181602180E+03  0.12500000000E+03 0.  0.
         21    1    1    2  503  502  0.83504791352E+02 -0.17027154336E+03 -0.38352745664E+03  0.42785366500E+03  0.00000000000E+00 0. -1.
          2    1    1    2  501    0  0.10151074554E+02 -0.34940422159E+02 -0.13851993559E+04  0.13856771388E+04  0.00000000000E+00 0. -1.
<mgrwt>
<rscale>  4 0.24360012E+03</rscale>
<asrwt>0</asrwt>
<pdfrwt beam="1">  1       21 0.10895617E-01 0.24360012E+03</pdfrwt>
<pdfrwt beam="2">  1        2 0.32838852E+00 0.24360012E+03</pdfrwt>
<totfact> 0.55815426E+03</totfact>
</mgrwt>
</event>
<event>
 5    0  0.1239749E+000  0.2755165E+03  0.7546771E-02  0.1098163E+00
         21   -1    0    0  501  502  0.00000000000E+00  0.00000000000E+00  0.19213531909E+03  0.19213531909E+03  0.00000000000E+00 0. -1.
          2   -1    0    0  503    0 -0.00000000000E+00 -0.00000000000E+00 -0.41262472314E+03  0.41262472314E+03  0.00000000000E+00 0. -1.
         25    1    1    2    0    0 -0.24413283018E+03 -0.53205813567E+02 -0.75697552743E+02  0.28945952543E+03  0.12500000000E+03 0.  0.
         21    1    1    2  503  502  0.23950281839E+03  0.32770245374E+02 -0.92256498852E+02  0.25874070144E+03  0.00000000000E+00 0. -1.
          2    1    1    2  501    0  0.46300117861E+01  0.20435568193E+02 -0.52535352458E+02  0.56559815368E+02  0.00000000000E+00 0. -1.
<mgrwt>
<rscale>  4 0.27551655E+03</rscale>
<asrwt>0</asrwt>
<pdfrwt beam="1">  1       21 0.29559280E-01 0.27551655E+03</pdfrwt>
<pdfrwt beam="2">  1        2 0.63480726E-01 0.27551655E+03</pdfrwt>
<totfact> 0.10378449E+04</totfact>
</mgrwt>
</event>
<event>
 5    0  0.1239749E+000  0.3226416E+03  0.7546771E-02  0.1074440E+00
         21   -1    0    0  501  502  0.00000000000E+00  0.00000000000E+00  0.26102637334E+03  0.26102637334E+03  0.00000000000E+00 0. -1.
          2   -1    0    0  503    0 -0.00000000000E+00 -0.00000000000E+00 -0.14101280636E+04  0.14101280636E+04  0.00000000000E+00 0.  1.
         25    1    1    2    0    0 -0.10095561575E+03  0.30793932631E+03 -0.53597812150E+02  0.35144898706E+03  0.12500000000E+03 0.  0.
         21    1    1    2  503  502  0.41896715960E+02 -0.27346107215E+03 -0.61452204598E+02  0.28339489452E+03  0.00000000000E+00 0. -1.
          2    1    1    2  501    0  0.59058899789E+02 -0.34478254159E+02 -0.10340516736E+04  0.10363105554E+04  0.00000000000E+00 0.  1.
<mgrwt>
<rscale>  4 0.32264158E+03</rscale>
<asrwt>0</asrwt>
<pdfrwt beam="1">  1       21 0.40157904E-01 0.32264158E+03</pdfrwt>
<pdfrwt beam="2">  1        2 0.21694278E+00 0.32264158E+03</pdfrwt>
<totfact> 0.10988324E+03</totfact>
</mgrwt>
</event>
<event>
 5    0  0.1239749E+000  0.3591174E+03  0.7546771E-02  0.1058934E+00
          2   -1    0    0  503    0 -0.00000000000E+00  0.00000000000E+00  0.14112841122E+04  0.14112841122E+04  0.00000000000E+00 0. -1.
         21   -1    0    0  501  502  0.00000000000E+00 -0.00000000000E+00 -0.20762787097E+03  0.20762787097E+03  0.00000000000E+00 0.  1.
         25    1    1    2    0    0 -0.28549617608E+03 -0.15413503098E+03  0.36321878646E+03  0.50281066135E+03  0.12500000000E+03 0.  0.
         21    1    1    2  503  502  0.29558389734E+03  0.17351021561E+03  0.75643044383E+02  0.35099502198E+03  0.00000000000E+00 0.  1.
          2    1    1    2  501    0 -0.10087721265E+02 -0.19375184627E+02  0.76479441040E+03  0.76510629986E+03  0.00000000000E+00 0. -1.
<mgrwt>
<rscale>  4 0.35911738E+03</rscale>
<asrwt>0</asrwt>
<pdfrwt beam="1">  1       21 0.31942750E-01 0.35911738E+03</pdfrwt>
<pdfrwt beam="2">  1        2 0.21712063E+00 0.35911738E+03</pdfrwt>
<totfact> 0.17196814E+03</totfact>
</mgrwt>
</event>
