<LesHouchesEvents version="3.0">
  <!--
  <scalesfunctionalform>
    muR  H_T/2 := sum_i mT(i)/2, i=final state
    muF1 H_T/2 := sum_i mT(i)/2, i=final state
    muF2 H_T/2 := sum_i mT(i)/2, i=final state
    QES  H_T/2 := sum_i mT(i)/2, i=final state
  </scalesfunctionalform>
HERWIG6   
  -->
  <header>
       39
  </header>
  <init>
   2212   2212 0.65000000D+04 0.65000000D+04 -1 -1   247000   247000 -3   1
 0.62819203D-02 0.10799655D-03 0.35998833D-03     66
  </init>
  <event>
  5     66 0.35998833E-03 0.76207796E+02 0.75467711E-02 0.11742231E+00
       -4 -1    0    0    0  501 0.00000000E+00 0.00000000E+00 0.30998230E+04 0.30998234E+04 0.15500000E+01 0.0000E+00 0.9000E+01
       21 -1    0    0  501  502 0.00000000E+00 0.00000000E+00 -.82126396E+01 0.82468145E+01 0.75000000E+00 0.0000E+00 0.9000E+01
       25  1    1    2    0    0 0.74101206E+02 0.17226024E+02 0.12079584E+04 0.12167893E+04 0.12500000E+03 0.0000E+00 0.9000E+01
      -24  1    1    2    0    0 0.10483035E+02 -.17674468E+02 0.10818627E+04 0.10850422E+04 0.80419002E+02 0.0000E+00 0.9000E+01
       -3  1    1    2    0  502 -.84584241E+02 0.44844418E+00 0.80178928E+03 0.80623879E+03 0.50000000E+00 0.0000E+00 0.9000E+01
#aMCatNLO 1  0  0  2  1 0.31544126D+02 0.00000000D+00  -5  6  0 0.00000000D+00 0.00000000D+00 0.00000000D+00 0.00000000D+00 0.00000000D+00
  <mgrwgt>
 0.2710094730D-02   23    4    0
 0.159723011091454D+03 0.000000000000000D+00 0.000000000000000D+00 0.159723011091454D+03
 0.159723011091454D+03 0.000000000000000D+00 0.000000000000000D+00 -.159723011091454D+03
 0.148162733727047D+03 0.741018914727266D+02 0.172260205979511D+02 -.232243312066283D+02
 0.866786835409073D+02 0.104834355635320D+02 -.176744705380581D+02 0.249737641535835D+02
 0.846046049149542D+02 -.845853270362586D+02 0.448449940107060D+00 -.174943294695513D+01
 0.000000000000000D+00 -.000000000000000D+00 -.000000000000000D+00 -.000000000000000D+00
 0.175466404039849D+03 0.000000000000000D+00 0.000000000000000D+00 0.175466404039849D+03
 0.177120751323018D+03 0.000000000000000D+00 0.000000000000000D+00 -.177120751323018D+03
 0.153324864716785D+03 0.799414734805686D+02 0.308788827223517D+02 -.232243312066283D+02
 0.859026839277356D+02 0.138262034039359D+02 -.985912547095787D+01 0.249737641535835D+02
 0.817721288926098D+02 -.813627381593659D+02 0.798281824947541D+01 -.174943294695513D+01
 0.315874778257365D+02 -.124049387251386D+02 -.290025755008692D+02 -.165434728316926D+01
 0.159723011091454D+03 0.000000000000000D+00 0.000000000000000D+00 0.159723011091454D+03
 0.159723011091454D+03 0.000000000000000D+00 0.000000000000000D+00 -.159723011091454D+03
 0.148162733727047D+03 0.741018914727266D+02 0.172260205979511D+02 -.232243312066283D+02
 0.866786835409073D+02 0.104834355635320D+02 -.176744705380581D+02 0.249737641535835D+02
 0.000000000000000D+00 -.000000000000000D+00 -.000000000000000D+00 -.000000000000000D+00
 0.846046049149542D+02 -.845853270362586D+02 0.448449940107060D+00 -.174943294695513D+01
 0.175466404039849D+03 0.000000000000000D+00 0.000000000000000D+00 0.175466404039849D+03
 0.177120751323018D+03 0.000000000000000D+00 0.000000000000000D+00 -.177120751323018D+03
 0.153324864716785D+03 0.799414734805686D+02 0.308788827223517D+02 -.232243312066283D+02
 0.859026839277356D+02 0.138262034039359D+02 -.985912547095787D+01 0.249737641535835D+02
 0.315874778257365D+02 -.124049387251386D+02 -.290025755008692D+02 -.165434728316926D+01
 0.817721288926098D+02 -.813627381593659D+02 0.798281824947541D+01 -.174943294695513D+01
0.174243810176D-04 0.000000000000D+00 0.000000000000D+00 0.279905677397D-06 0.000000000000D+00  6 -4 21 25 -24 -3 21 2 0.47689851D+00 0.12661417D-02 0.24636564D+05 0.24636564D+05 0.24636564D+05 0.12239801D+01  1  2  2  2  6  2       21 0.728608992572D-03 0.100000000000D+01
-.136995093260D-05 0.919509848404D-06 -.351748050878D-07 0.279905677397D-06 0.000000000000D+00  6 -4 21 25 -24 -3 21 4 0.47689851D+00 0.12661417D-02 0.24636564D+05 0.24636564D+05 0.24636564D+05 0.12239801D+01  1  2  3  2  6  2       21 -.858204693414D-04 0.100000000000D+01
0.197476891332D-05 0.000000000000D+00 0.000000000000D+00 0.279905677397D-06 0.000000000000D+00  6 -4 21 25 -24 -3 21 4 0.47689851D+00 0.12661417D-02 0.24636564D+05 0.24636564D+05 0.24636564D+05 0.12239801D+01  1  2 15  2  6  2       21 0.123709244579D-03 0.100000000000D+01
0.171380062894D-04 0.000000000000D+00 0.000000000000D+00 0.275691569841D-06 0.000000000000D+00  6 -4 21 25 -24 -3 21 4 0.47689851D+00 0.14602063D-02 0.30110168D+05 0.30110168D+05 0.30110168D+05 0.12147314D+01  1  2 12  2  6  2       21 0.823488778523D-03 0.100000000000D+01
-.654089387861D-05 0.000000000000D+00 0.000000000000D+00 0.279905677397D-06 0.000000000000D+00  6 -4 21 25 -24 -3 21 4 0.47689851D+00 0.12661417D-02 0.24636564D+05 0.24636564D+05 0.24636564D+05 0.12239801D+01  1  2  4  2  6  2       21 -.409753786954D-03 0.100000000000D+01
-.892403623998D-04 0.000000000000D+00 -.293298717633D-04 0.279905677397D-06 0.000000000000D+00  6 -4 21 25 -24 -3 21 4 0.47689851D+00 0.16391490D-02 0.24636564D+05 0.24636564D+05 0.24636564D+05 0.12239801D+01  1  2  5  2  6  2       21 -.369690858188D-02 0.100000000000D+01
0.845631176571D-04 0.000000000000D+00 0.257601714890D-04 0.279905677397D-06 0.000000000000D+00  6 -4 21 25 -24 -3 21 4 0.47689851D+00 0.12661417D-02 0.24636564D+05 0.24636564D+05 0.24636564D+05 0.12239801D+01  1  2  6  2  6  2       21 0.529744991123D-02 0.100000000000D+01
0.658009491916D-06 0.000000000000D+00 0.000000000000D+00 0.275691569841D-06 0.000000000000D+00  6 -4 -3 25 -24 -3 -3 4 0.47689851D+00 0.14602063D-02 0.30110168D+05 0.30110168D+05 0.30110168D+05 0.12147314D+01  1  2 12  5  6  2       21 0.116184111581D-05 0.100000000000D+01
-.587904174023D-05 0.000000000000D+00 -.229632943084D-05 0.279905677397D-06 0.000000000000D+00  6 -4 -3 25 -24 -3 -3 4 0.47689851D+00 0.16391490D-02 0.24636564D+05 0.24636564D+05 0.24636564D+05 0.12239801D+01  1  2  5  5  6  2       21 -.897881058298D-05 0.100000000000D+01
0.658009491916D-06 0.000000000000D+00 0.000000000000D+00 0.275691569841D-06 0.000000000000D+00  6 -4 3 25 -24 3 -3 4 0.47689851D+00 0.14602063D-02 0.30110168D+05 0.30110168D+05 0.30110168D+05 0.12147314D+01  3  4 12  6  5  2       21 0.116178938365D-05 0.100000000000D+01
-.587904174023D-05 0.000000000000D+00 -.229632943084D-05 0.279905677397D-06 0.000000000000D+00  6 -4 3 25 -24 3 -3 4 0.47689851D+00 0.16391490D-02 0.24636564D+05 0.24636564D+05 0.24636564D+05 0.12239801D+01  3  4  5  6  5  2       21 -.897837036505D-05 0.100000000000D+01
0.658009491916D-06 0.000000000000D+00 0.000000000000D+00 0.275691569841D-06 0.000000000000D+00  6 -4 -4 25 -24 -3 -4 4 0.47689851D+00 0.14602063D-02 0.30110168D+05 0.30110168D+05 0.30110168D+05 0.12147314D+01  1  2 12  7  6  2       21 0.106550970478D-05 0.100000000000D+01
-.587904174023D-05 0.000000000000D+00 -.229632943084D-05 0.279905677397D-06 0.000000000000D+00  6 -4 -4 25 -24 -3 -4 4 0.47689851D+00 0.16391490D-02 0.24636564D+05 0.24636564D+05 0.24636564D+05 0.12239801D+01  1  2  5  7  6  2       21 -.820504589232D-05 0.100000000000D+01
0.658009491916D-06 0.000000000000D+00 0.000000000000D+00 0.275691569841D-06 0.000000000000D+00  6 -4 4 25 -24 4 -3 4 0.47689851D+00 0.14602063D-02 0.30110168D+05 0.30110168D+05 0.30110168D+05 0.12147314D+01  3  4 12  8  5  2       21 0.106550970478D-05 0.100000000000D+01
-.587904174023D-05 0.000000000000D+00 -.229632943084D-05 0.279905677397D-06 0.000000000000D+00  6 -4 4 25 -24 4 -3 4 0.47689851D+00 0.16391490D-02 0.24636564D+05 0.24636564D+05 0.24636564D+05 0.12239801D+01  3  4  5  8  5  2       21 -.820504589232D-05 0.100000000000D+01
0.658009491916D-06 0.000000000000D+00 0.000000000000D+00 0.275691569841D-06 0.000000000000D+00  6 -4 -1 25 -24 -3 -1 4 0.47689851D+00 0.14602063D-02 0.30110168D+05 0.30110168D+05 0.30110168D+05 0.12147314D+01  1  2 12  9  6  2       21 0.145492299153D-05 0.100000000000D+01
0.658009491916D-06 0.000000000000D+00 0.000000000000D+00 0.275691569841D-06 0.000000000000D+00  6 -4 -2 25 -24 -3 -2 4 0.47689851D+00 0.14602063D-02 0.30110168D+05 0.30110168D+05 0.30110168D+05 0.12147314D+01  1  2 12  9  6  2       21 0.144540370378D-05 0.100000000000D+01
-.587904174023D-05 0.000000000000D+00 -.229632943084D-05 0.279905677397D-06 0.000000000000D+00  6 -4 -1 25 -24 -3 -1 4 0.47689851D+00 0.16391490D-02 0.24636564D+05 0.24636564D+05 0.24636564D+05 0.12239801D+01  1  2  5  9  6  2       21 -.113827133401D-04 0.100000000000D+01
-.587904174023D-05 0.000000000000D+00 -.229632943084D-05 0.279905677397D-06 0.000000000000D+00  6 -4 -2 25 -24 -3 -2 4 0.47689851D+00 0.16391490D-02 0.24636564D+05 0.24636564D+05 0.24636564D+05 0.12239801D+01  1  2  5  9  6  2       21 -.112982808590D-04 0.100000000000D+01
0.658009491916D-06 0.000000000000D+00 0.000000000000D+00 0.275691569841D-06 0.000000000000D+00  6 -4 1 25 -24 1 -3 4 0.47689851D+00 0.14602063D-02 0.30110168D+05 0.30110168D+05 0.30110168D+05 0.12147314D+01  3  4 12 10  5  2       21 0.150863143607D-05 0.100000000000D+01
0.658009491916D-06 0.000000000000D+00 0.000000000000D+00 0.275691569841D-06 0.000000000000D+00  6 -4 2 25 -24 2 -3 4 0.47689851D+00 0.14602063D-02 0.30110168D+05 0.30110168D+05 0.30110168D+05 0.12147314D+01  3  4 12 10  5  2       21 0.154588700648D-05 0.100000000000D+01
-.587904174023D-05 0.000000000000D+00 -.229632943084D-05 0.279905677397D-06 0.000000000000D+00  6 -4 1 25 -24 1 -3 4 0.47689851D+00 0.16391490D-02 0.24636564D+05 0.24636564D+05 0.24636564D+05 0.12239801D+01  3  4  5 10  5  2       21 -.118564648783D-04 0.100000000000D+01
-.587904174023D-05 0.000000000000D+00 -.229632943084D-05 0.279905677397D-06 0.000000000000D+00  6 -4 2 25 -24 2 -3 4 0.47689851D+00 0.16391490D-02 0.24636564D+05 0.24636564D+05 0.24636564D+05 0.12239801D+01  3  4  5 10  5  2       21 -.121841216561D-04 0.100000000000D+01
  </mgrwgt>
  </event>
  <event>
  6     66 -.35998833E-03 0.41040197E+02 0.75467711E-02 0.12027775E+00
       -2 -1    0    0    0  503 0.00000000E+00 0.00000000E+00 0.40203449E+02 0.40204722E+02 0.32000000E+00 0.0000E+00 0.9000E+01
       21 -1    0    0  501  502 0.00000000E+00 0.00000000E+00 -.59303886E+03 0.59303933E+03 0.75000000E+00 0.0000E+00 0.9000E+01
       25  1    1    2    0    0 -.16149619E+02 -.83275403E+02 -.28838099E+03 0.32555214E+03 0.12500000E+03 0.0000E+00 0.9000E+01
      -24  1    1    2    0    0 0.13007508E+02 0.34312826E+02 -.21446583E+03 0.23196847E+03 0.80419002E+02 0.0000E+00 0.9000E+01
       -1  1    1    2    0  502 0.12681194E+02 0.44528618E+02 -.41691689E+02 0.62304974E+02 0.32000000E+00 0.0000E+00 0.9000E+01
       21  1    1    2  501  503 -.95390836E+01 0.44339591E+01 -.82969081E+01 0.13418468E+02 0.75000000E+00 0.0000E+00 0.9000E+01
#aMCatNLO 2  0  0  1  2 0.10519226D+02 0.00000000D+00  -5  6  0 0.00000000D+00 0.00000000D+00 0.00000000D+00 0.00000000D+00 0.00000000D+00
  <mgrwgt>
 -.1361213926D-01    3    2    0
 0.147945026983393D+03 0.000000000000000D+00 0.000000000000000D+00 0.147945026983393D+03
 0.147945026983393D+03 0.000000000000000D+00 0.000000000000000D+00 -.147945026983393D+03
 0.150514961194226D+03 -.210107495998902D+02 -.810163009685235D+02 -.496597643246069D+01
 0.913283040274882D+02 0.100665354938320D+02 0.356795772741198D+02 -.223444800981880D+02
 0.540467887450716D+02 0.109442141060582D+02 0.453367236944037D+02 0.273104565306486D+02
 0.000000000000000D+00 -.000000000000000D+00 0.000000000000000D+00 0.000000000000000D+00
 0.158097733751285D+03 0.000000000000000D+00 0.000000000000000D+00 0.158097733751285D+03
 0.150788550405826D+03 0.000000000000000D+00 0.000000000000000D+00 -.150788550405826D+03
 0.151146732491763D+03 -.161497084332327D+02 -.832758112451049D+02 -.496597643246069D+01
 0.911758669540414D+02 0.130074468087150D+02 0.343125821982352D+02 -.223444800981880D+02
 0.537543806551374D+02 0.126813452474543D+02 0.445292699964846D+02 0.273104565306486D+02
 0.128093040561693D+02 -.953908362293670D+01 0.443395905038510D+01 0.730918334545826D+01
-.880952907729D-05 0.000000000000D+00 0.000000000000D+00 0.264461230298D-06 0.000000000000D+00  6 -2 21 25 -24 -1 21 4 0.62378886D-02 0.89509921D-01 0.21945409D+05 0.21945409D+05 0.21945409D+05 0.12294124D+01  1  2 13  1  6  1       -2 -.233616159030D-01 0.100000000000D+01
-.200166640336D-06 0.000000000000D+00 0.000000000000D+00 0.265960009365D-06 0.000000000000D+00  6 -2 21 25 -24 -1 21 4 0.57876579D-02 0.89509921D-01 0.20395369D+05 0.20395369D+05 0.20395369D+05 0.12328912D+01  1  2  8  1  6  1       -2 -.601746442892D-03 0.100000000000D+01
0.402526698614D-05 0.000000000000D+00 0.000000000000D+00 0.265960009365D-06 0.308351058028D-07  6 -2 21 25 -24 -1 21 4 0.61848352D-02 0.91230314D-01 0.21945409D+05 0.21945409D+05 0.21945409D+05 0.12294124D+01  1  2  1  1  6  1       -2 0.103512230816D-01 0.100000000000D+01
  </mgrwgt>
  </event>
  <event>
  6     66 -.35998833E-03 0.14632133E+03 0.75467711E-02 0.10939314E+00
       -2 -1    0    0    0  501 0.00000000E+00 0.00000000E+00 0.11668526E+04 0.11668526E+04 0.32000000E+00 0.0000E+00 0.9000E+01
       21 -1    0    0  501  502 0.00000000E+00 0.00000000E+00 -.24416324E+03 0.24416440E+03 0.75000000E+00 0.0000E+00 0.9000E+01
       25  1    1    2    0    0 -.32070334E+02 -.10398732E+03 0.75170899E+03 0.76976183E+03 0.12500000E+03 0.0000E+00 0.9000E+01
      -24  1    1    2    0    0 0.16757101E+03 0.16829496E+03 0.33468805E+03 0.41819439E+03 0.80419002E+02 0.0000E+00 0.9000E+01
       -1  1    1    2    0  503 -.12063982E+03 -.58199879E+02 -.15468456E+03 0.20461820E+03 0.32000000E+00 0.0000E+00 0.9000E+01
       21  1    1    2  503  502 -.14860863E+02 -.61077638E+01 -.90231456E+01 0.18442605E+02 0.75000000E+00 0.0000E+00 0.9000E+01
#aMCatNLO 2  0  0  5  2 0.55529428D+01 0.00000000D+00  -5  6  0 0.00000000D+00 0.00000000D+00 0.00000000D+00 0.00000000D+00 0.00000000D+00
  <mgrwgt>
 -.6116193301D-02    5    2    0
 0.533763389450606D+03 0.000000000000000D+00 0.000000000000000D+00 0.533763389450606D+03
 0.533763389450606D+03 -.000000000000000D+00 -.000000000000000D+00 -.533763389450606D+03
 0.367861935056011D+03 -.320138198712446D+02 -.103960494083769D+03 0.328427669769560D+03
 0.263550307977053D+03 0.167611505368911D+03 0.168314174630481D+03 0.810448688496463D+02
 0.436114535868147D+03 -.135597685497666D+03 -.643536805467122D+02 -.409472538619206D+03
 0.000000000000000D+00 -.000000000000000D+00 0.000000000000000D+00 0.000000000000000D+00
 0.533763389450606D+03 0.000000000000000D+00 0.000000000000000D+00 0.533763389450606D+03
 0.533763389450606D+03 -.000000000000000D+00 -.000000000000000D+00 -.533763389450606D+03
 0.367722274191758D+03 -.320702582477856D+02 -.103987279328968D+03 0.328257239387706D+03
 0.263474806731415D+03 0.167571068881156D+03 0.168294983765933D+03 0.809227603399519D+02
 0.404532115828031D+03 -.120745311105511D+03 -.582522029897224D+02 -.381671957876369D+03
 0.317975821500072D+02 -.147554995278589D+02 -.605550144724227D+01 -.275080418512888D+02
-.729412586574D-03 0.000000000000D+00 0.000000000000D+00 0.371918053711D-06 0.000000000000D+00  6 -2 21 25 -24 -1 21 4 0.17951587D+00 0.37563668D-01 0.80225848D+05 0.80225848D+05 0.80225848D+05 0.11724653D+01  1  2 13  3  6  5       -1 -.146918471348D-01 0.100000000000D+01
-.196835614870D-03 0.000000000000D+00 0.000000000000D+00 0.371909482003D-06 0.000000000000D+00  6 -2 21 25 -24 -1 21 4 0.17951587D+00 0.37563668D-01 0.80252392D+05 0.80252392D+05 0.80252392D+05 0.11724518D+01  1  2  8  3  6  5       -1 -.396441357814D-02 0.100000000000D+01
-.356578711035D-03 0.000000000000D+00 0.000000000000D+00 0.371909482003D-06 0.000000000000D+00  6 -2 21 25 -24 -1 21 4 0.17951587D+00 0.37563668D-01 0.80252392D+05 0.80252392D+05 0.80252392D+05 0.11724518D+01  1  2  9  3  6  5       -1 -.718175663808D-02 0.100000000000D+01
0.383522331435D-03 0.000000000000D+00 0.000000000000D+00 0.371909482003D-06 0.000000000000D+00  6 -2 21 25 -24 -1 21 4 0.17951587D+00 0.37563668D-01 0.80252392D+05 0.80252392D+05 0.80252392D+05 0.11724518D+01  1  2 10  3  6  5       -1 0.772442090453D-02 0.100000000000D+01
0.595640342603D-03 0.000000000000D+00 0.000000000000D+00 0.371909482003D-06 0.393794586278D-07  6 -2 21 25 -24 -1 21 4 0.17951587D+00 0.37563668D-01 0.80225848D+05 0.80225848D+05 0.80225848D+05 0.11724653D+01  1  2  1  3  6  5       -1 0.119974031459D-01 0.100000000000D+01
  </mgrwgt>
  </event>
  <event>
  5     66 0.35998833E-03 0.90766801E+02 0.75467711E-02 0.11654680E+00
       -2 -1    0    0    0  501 0.00000000E+00 0.00000000E+00 0.76549312E+03 0.76549318E+03 0.32000000E+00 0.0000E+00 0.9000E+01
       21 -1    0    0  501  502 0.00000000E+00 0.00000000E+00 -.47786303E+02 0.47792188E+02 0.75000000E+00 0.0000E+00 0.9000E+01
       25  1    1    2    0    0 0.49774853E+02 0.24021731E+02 0.15136913E+03 0.20394164E+03 0.12500000E+03 0.0000E+00 0.9000E+01
      -24  1    1    2    0    0 0.98384293E+01 0.61290054E+02 0.15714765E+03 0.18712526E+03 0.80419002E+02 0.0000E+00 0.9000E+01
       -1  1    1    2    0  502 -.59613282E+02 -.85311785E+02 0.40919004E+03 0.42221847E+03 0.32000000E+00 0.0000E+00 0.9000E+01
#aMCatNLO 1  0  0  2  1 0.23051071D+02 0.00000000D+00  -5  6  0 0.00000000D+00 0.00000000D+00 0.00000000D+00 0.00000000D+00 0.00000000D+00
  <mgrwgt>
 0.1409346571D-01   23    4    0
 0.191265538391879D+03 0.000000000000000D+00 0.000000000000000D+00 0.191265538391879D+03
 0.191265538391879D+03 0.000000000000000D+00 0.000000000000000D+00 -.191265538391879D+03
 0.149593407805392D+03 0.497749236743844D+02 0.240218319638806D+02 -.608160852171412D+02
 0.102999015361478D+03 0.983847796252560D+01 0.612901237009495D+02 -.169795847760401D+02
 0.129938653616887D+03 -.596134016369100D+02 -.853119556648301D+02 0.777956699931813D+02
 0.000000000000000D+00 -.000000000000000D+00 -.000000000000000D+00 -.000000000000000D+00
 0.201968165467278D+03 0.000000000000000D+00 0.000000000000000D+00 0.201968165467278D+03
 0.204440029167400D+03 0.000000000000000D+00 0.000000000000000D+00 -.204440029167400D+03
 0.153018939224728D+03 0.562737002146285D+02 0.304051016192446D+02 -.608160852171412D+02
 0.106196846314179D+03 0.143310810288459D+02 0.657028768782977D+02 -.169795847760401D+02
 0.124009183068589D+03 -.541597238220619D+02 -.799552095311424D+02 0.777956699931813D+02
 0.231832260271824D+02 -.164450574214125D+02 -.161527689663999D+02 -.247186370012217D+01
 0.191265538391879D+03 0.000000000000000D+00 0.000000000000000D+00 0.191265538391879D+03
 0.191265538391879D+03 0.000000000000000D+00 0.000000000000000D+00 -.191265538391879D+03
 0.149593407805392D+03 0.497749236743844D+02 0.240218319638806D+02 -.608160852171412D+02
 0.102999015361478D+03 0.983847796252560D+01 0.612901237009495D+02 -.169795847760401D+02
 0.000000000000000D+00 -.000000000000000D+00 -.000000000000000D+00 -.000000000000000D+00
 0.129938653616887D+03 -.596134016369100D+02 -.853119556648301D+02 0.777956699931813D+02
 0.201968165467278D+03 0.000000000000000D+00 0.000000000000000D+00 0.201968165467278D+03
 0.204440029167400D+03 0.000000000000000D+00 0.000000000000000D+00 -.204440029167400D+03
 0.153018939224728D+03 0.562737002146285D+02 0.304051016192446D+02 -.608160852171412D+02
 0.106196846314179D+03 0.143310810288459D+02 0.657028768782977D+02 -.169795847760401D+02
 0.231832260271824D+02 -.164450574214125D+02 -.161527689663999D+02 -.247186370012217D+01
 0.124009183068589D+03 -.541597238220619D+02 -.799552095311424D+02 0.777956699931813D+02
0.256697787414D-05 0.000000000000D+00 0.000000000000D+00 0.213682926732D-06 0.000000000000D+00  6 -2 21 25 -24 -1 21 2 0.11776863D+00 0.73521967D-02 0.29299079D+05 0.29299079D+05 0.29299079D+05 0.12159775D+01  1  2  2  2  6  2       21 0.252661709151D-02 0.100000000000D+01
-.319068762388D-06 0.135463144058D-06 -.518198874878D-08 0.213682926732D-06 0.000000000000D+00  6 -2 21 25 -24 -1 21 4 0.11776863D+00 0.73521967D-02 0.29299079D+05 0.29299079D+05 0.29299079D+05 0.12159775D+01  1  2  3  2  6  2       21 -.464357694414D-03 0.100000000000D+01
0.271045744521D-06 0.000000000000D+00 0.000000000000D+00 0.213682926732D-06 0.000000000000D+00  6 -2 21 25 -24 -1 21 4 0.11776863D+00 0.73521967D-02 0.29299079D+05 0.29299079D+05 0.29299079D+05 0.12159775D+01  1  2 15  2  6  2       21 0.394467249204D-03 0.100000000000D+01
0.527373978541D-05 0.000000000000D+00 0.000000000000D+00 0.211655224777D-06 0.000000000000D+00  6 -2 21 25 -24 -1 21 4 0.11776863D+00 0.80516593D-02 0.33282145D+05 0.33282145D+05 0.33282145D+05 0.12101943D+01  1  2 12  2  6  2       21 0.642931747759D-02 0.100000000000D+01
-.254965216044D-05 0.000000000000D+00 0.000000000000D+00 0.213682926732D-06 0.000000000000D+00  6 -2 21 25 -24 -1 21 4 0.11776863D+00 0.73521967D-02 0.29299079D+05 0.29299079D+05 0.29299079D+05 0.12159775D+01  1  2  4  2  6  2       21 -.371064403145D-02 0.100000000000D+01
-.340322911851D-04 0.000000000000D+00 -.772103658927D-05 0.213682926732D-06 0.000000000000D+00  6 -2 21 25 -24 -1 21 4 0.11776863D+00 0.83027243D-02 0.29299079D+05 0.29299079D+05 0.29299079D+05 0.12159775D+01  1  2  5  2  6  2       21 -.401165118311D-01 0.100000000000D+01
0.339735295576D-04 0.000000000000D+00 0.749745416089D-05 0.213682926732D-06 0.000000000000D+00  6 -2 21 25 -24 -1 21 4 0.11776863D+00 0.73521967D-02 0.29299079D+05 0.29299079D+05 0.29299079D+05 0.12159775D+01  1  2  6  2  6  2       21 0.494434796387D-01 0.100000000000D+01
0.121014632362D-06 0.000000000000D+00 0.000000000000D+00 0.211655224777D-06 0.000000000000D+00  6 -2 -1 25 -24 -1 -1 4 0.11776863D+00 0.80516593D-02 0.33282145D+05 0.33282145D+05 0.33282145D+05 0.12101943D+01  1  2 12  5  6  2       21 0.941617532660D-05 0.100000000000D+01
-.889052892903D-06 0.000000000000D+00 -.246437908864D-06 0.213682926732D-06 0.000000000000D+00  6 -2 -1 25 -24 -1 -1 4 0.11776863D+00 0.83027243D-02 0.29299079D+05 0.29299079D+05 0.29299079D+05 0.12159775D+01  1  2  5  5  6  2       21 -.671785014890D-04 0.100000000000D+01
0.121014632362D-06 0.000000000000D+00 0.000000000000D+00 0.211655224777D-06 0.000000000000D+00  6 -2 1 25 -24 1 -1 4 0.11776863D+00 0.80516593D-02 0.33282145D+05 0.33282145D+05 0.33282145D+05 0.12101943D+01  3  4 12  6  5  2       21 0.113301699616D-04 0.100000000000D+01
-.889052892903D-06 0.000000000000D+00 -.246437908864D-06 0.213682926732D-06 0.000000000000D+00  6 -2 1 25 -24 1 -1 4 0.11776863D+00 0.83027243D-02 0.29299079D+05 0.29299079D+05 0.29299079D+05 0.12159775D+01  3  4  5  6  5  2       21 -.812734129525D-04 0.100000000000D+01
0.121014632362D-06 0.000000000000D+00 0.000000000000D+00 0.211655224777D-06 0.000000000000D+00  6 -2 -2 25 -24 -1 -2 4 0.11776863D+00 0.80516593D-02 0.33282145D+05 0.33282145D+05 0.33282145D+05 0.12101943D+01  1  2 12  7  6  2       21 0.908309469279D-05 0.100000000000D+01
-.889052892903D-06 0.000000000000D+00 -.246437908864D-06 0.213682926732D-06 0.000000000000D+00  6 -2 -2 25 -24 -1 -2 4 0.11776863D+00 0.83027243D-02 0.29299079D+05 0.29299079D+05 0.29299079D+05 0.12159775D+01  1  2  5  7  6  2       21 -.647259954912D-04 0.100000000000D+01
0.121014632362D-06 0.000000000000D+00 0.000000000000D+00 0.211655224777D-06 0.000000000000D+00  6 -2 2 25 -24 2 -1 4 0.11776863D+00 0.80516593D-02 0.33282145D+05 0.33282145D+05 0.33282145D+05 0.12101943D+01  3  4 12  8  5  2       21 0.126212180649D-04 0.100000000000D+01
-.889052892903D-06 0.000000000000D+00 -.246437908864D-06 0.213682926732D-06 0.000000000000D+00  6 -2 2 25 -24 2 -1 4 0.11776863D+00 0.83027243D-02 0.29299079D+05 0.29299079D+05 0.29299079D+05 0.12159775D+01  3  4  5  8  5  2       21 -.907795302034D-04 0.100000000000D+01
0.121014632362D-06 0.000000000000D+00 0.000000000000D+00 0.211655224777D-06 0.000000000000D+00  6 -2 -3 25 -24 -1 -3 4 0.11776863D+00 0.80516593D-02 0.33282145D+05 0.33282145D+05 0.33282145D+05 0.12101943D+01  1  2 12  9  6  2       21 0.643227218717D-05 0.100000000000D+01
0.121014632362D-06 0.000000000000D+00 0.000000000000D+00 0.211655224777D-06 0.000000000000D+00  6 -2 -4 25 -24 -1 -4 4 0.11776863D+00 0.80516593D-02 0.33282145D+05 0.33282145D+05 0.33282145D+05 0.12101943D+01  1  2 12  9  6  2       21 0.568500492457D-05 0.100000000000D+01
-.889052892903D-06 0.000000000000D+00 -.246437908864D-06 0.213682926732D-06 0.000000000000D+00  6 -2 -3 25 -24 -1 -3 4 0.11776863D+00 0.83027243D-02 0.29299079D+05 0.29299079D+05 0.29299079D+05 0.12159775D+01  1  2  5  9  6  2       21 -.456001591574D-04 0.100000000000D+01
-.889052892903D-06 0.000000000000D+00 -.246437908864D-06 0.213682926732D-06 0.000000000000D+00  6 -2 -4 25 -24 -1 -4 4 0.11776863D+00 0.83027243D-02 0.29299079D+05 0.29299079D+05 0.29299079D+05 0.12159775D+01  1  2  5  9  6  2       21 -.402171266286D-04 0.100000000000D+01
0.121014632362D-06 0.000000000000D+00 0.000000000000D+00 0.211655224777D-06 0.000000000000D+00  6 -2 3 25 -24 3 -1 4 0.11776863D+00 0.80516593D-02 0.33282145D+05 0.33282145D+05 0.33282145D+05 0.12101943D+01  3  4 12 10  5  2       21 0.643153225038D-05 0.100000000000D+01
0.121014632362D-06 0.000000000000D+00 0.000000000000D+00 0.211655224777D-06 0.000000000000D+00  6 -2 4 25 -24 4 -1 4 0.11776863D+00 0.80516593D-02 0.33282145D+05 0.33282145D+05 0.33282145D+05 0.12101943D+01  3  4 12 10  5  2       21 0.568500492457D-05 0.100000000000D+01
-.889052892903D-06 0.000000000000D+00 -.246437908864D-06 0.213682926732D-06 0.000000000000D+00  6 -2 3 25 -24 3 -1 4 0.11776863D+00 0.83027243D-02 0.29299079D+05 0.29299079D+05 0.29299079D+05 0.12159775D+01  3  4  5 10  5  2       21 -.455948079952D-04 0.100000000000D+01
-.889052892903D-06 0.000000000000D+00 -.246437908864D-06 0.213682926732D-06 0.000000000000D+00  6 -2 4 25 -24 4 -1 4 0.11776863D+00 0.83027243D-02 0.29299079D+05 0.29299079D+05 0.29299079D+05 0.12159775D+01  3  4  5 10  5  2       21 -.402171266286D-04 0.100000000000D+01
  </mgrwgt>
  </event>
  <event>
  5     66 -.35998833E-03 0.69005574E+02 0.75467711E-02 0.11947609E+00
       -2 -1    0    0    0  501 0.00000000E+00 0.00000000E+00 0.21355941E+03 0.21355965E+03 0.32000000E+00 0.0000E+00 0.9000E+01
       21 -1    0    0  501  502 0.00000000E+00 0.00000000E+00 -.12301656E+03 0.12301884E+03 0.75000000E+00 0.0000E+00 0.9000E+01
       25  1    1    2    0    0 0.88314946E+02 0.27949293E+02 0.81818603E+02 0.17578389E+03 0.12500000E+03 0.0000E+00 0.9000E+01
      -24  1    1    2    0    0 -.19388609E+02 -.24655486E+02 -.15422117E+02 0.87686195E+02 0.80419002E+02 0.0000E+00 0.9000E+01
       -1  1    1    2    0  502 -.68926337E+02 -.32938069E+01 0.24146368E+02 0.73108403E+02 0.32000000E+00 0.0000E+00 0.9000E+01
#aMCatNLO 1  0  0  5  2 0.52074496D+01 0.00000000D+00  -5  6  0 0.00000000D+00 0.00000000D+00 0.00000000D+00 0.00000000D+00 0.00000000D+00
  <mgrwgt>
 -.1283715871D-01    8    2    0
 0.162085680412552D+03 0.000000000000000D+00 0.000000000000000D+00 0.162085680412552D+03
 0.162085680412552D+03 -.000000000000000D+00 -.000000000000000D+00 -.162085680412552D+03
 0.159659542612850D+03 0.883153094113127D+02 0.279493103378569D+02 0.358526389902732D+02
 0.953496828811160D+02 -.193883921480018D+02 -.246554757341737D+02 -.405036274597193D+02
 0.691621353311379D+02 -.689269172633108D+02 -.329383460368317D+01 0.465098846944610D+01
 0.000000000000000D+00 0.000000000000000D+00 -.000000000000000D+00 0.000000000000000D+00
 0.162085680412552D+03 0.000000000000000D+00 0.000000000000000D+00 0.162085680412552D+03
 0.162085680412552D+03 -.000000000000000D+00 -.000000000000000D+00 -.162085680412552D+03
 0.159252303231831D+03 0.875676669117820D+02 0.279135824853152D+02 0.359030877377676D+02
 0.954343549088148D+02 -.198356576125569D+02 -.246768493647186D+02 -.404734472833670D+02
 0.583182479213204D+02 -.576126822456141D+02 -.142706196333368D+01 0.893086665622705D+01
 0.111664547631379D+02 -.101193270536109D+02 -.180967115726289D+01 -.436050711062767D+01
0.680167485370D-06 0.000000000000D+00 0.000000000000D+00 0.233224840738D-06 0.000000000000D+00  6 -2 21 25 -24 -1 21 2 0.32855488D-01 0.18925818D-01 0.24165768D+05 0.24165768D+05 0.24165768D+05 0.12248811D+01  1  2  2  3  6  5       -1 0.181386839327D-02 0.100000000000D+01
-.471403183455D-07 0.358934243191D-07 -.137306218802D-08 0.233224840738D-06 0.000000000000D+00  6 -2 21 25 -24 -1 21 4 0.32855488D-01 0.18925818D-01 0.24165768D+05 0.24165768D+05 0.24165768D+05 0.12248811D+01  1  2  3  3  6  5       -1 -.188612404087D-03 0.100000000000D+01
0.718652008909D-07 0.000000000000D+00 0.000000000000D+00 0.233224840738D-06 0.000000000000D+00  6 -2 21 25 -24 -1 21 4 0.32855488D-01 0.18925818D-01 0.24165768D+05 0.24165768D+05 0.24165768D+05 0.12248811D+01  1  2 15  3  6  5       -1 0.287538752091D-03 0.100000000000D+01
0.176070371966D-05 0.000000000000D+00 0.000000000000D+00 0.233387635111D-06 0.000000000000D+00  6 -2 21 25 -24 -1 21 4 0.32855488D-01 0.18925818D-01 0.23945946D+05 0.23945946D+05 0.23945946D+05 0.12253085D+01  1  2 12  3  6  5       -1 0.705419211982D-02 0.100000000000D+01
-.115537059623D-04 0.000000000000D+00 0.000000000000D+00 0.233224840738D-06 0.000000000000D+00  6 -2 21 25 -24 -1 21 4 0.32855488D-01 0.18925818D-01 0.24165768D+05 0.24165768D+05 0.24165768D+05 0.12248811D+01  1  2  4  3  6  5       -1 -.462273555664D-01 0.100000000000D+01
-.417065668953D-05 0.000000000000D+00 0.000000000000D+00 0.233224840738D-06 0.000000000000D+00  6 -2 21 25 -24 -1 21 4 0.32855488D-01 0.18925818D-01 0.24165768D+05 0.24165768D+05 0.24165768D+05 0.12248811D+01  1  2  5  3  6  5       -1 -.166871504572D-01 0.100000000000D+01
0.502289886323D-05 0.000000000000D+00 -.000000000000D+00 0.233224840738D-06 0.000000000000D+00  6 -2 21 25 -24 -1 21 4 0.32855488D-01 0.18925818D-01 0.24165768D+05 0.24165768D+05 0.24165768D+05 0.12248811D+01  1  2  6  3  6  5       -1 0.200970435358D-01 0.100000000000D+01
0.524485648174D-05 0.000000000000D+00 0.000000000000D+00 0.233224840738D-06 0.118204345735D-06  6 -2 21 25 -24 -1 21 4 0.32855488D-01 0.18925818D-01 0.23945946D+05 0.23945946D+05 0.23945946D+05 0.12253085D+01  1  2 11  3  6  5       -1 0.210133169198D-01 0.100000000000D+01
  </mgrwgt>
  </event>
  <event>
  6     66 0.35998833E-03 0.27095887E+02 0.75467711E-02 0.11965507E+00
       -2 -1    0    0    0  501 0.00000000E+00 0.00000000E+00 0.45498876E+03 0.45498887E+03 0.32000000E+00 0.0000E+00 0.9000E+01
       21 -1    0    0  501  503 0.00000000E+00 0.00000000E+00 -.11722677E+03 0.11722917E+03 0.75000000E+00 0.0000E+00 0.9000E+01
       25  1    1    2    0    0 0.37900054E+02 -.22041932E+02 0.16617800E+03 0.21251444E+03 0.12500000E+03 0.0000E+00 0.9000E+01
      -24  1    1    2    0    0 0.31007032E+02 0.31549040E+02 0.15897910E+03 0.18357110E+03 0.80419002E+02 0.0000E+00 0.9000E+01
       -1  1    1    2    0  502 -.32320504E+02 0.17496013E+02 0.83882932E+02 0.91581517E+02 0.32000000E+00 0.0000E+00 0.9000E+01
       21  1    1    2  502  503 -.36586582E+02 -.27003122E+02 -.71278041E+02 0.84550979E+02 0.75000000E+00 0.0000E+00 0.9000E+01
#aMCatNLO 2  0  0  2  2 0.45472481D+02 0.00000000D+00  -5  6  0 0.00000000D+00 0.00000000D+00 0.00000000D+00 0.00000000D+00 0.00000000D+00
  <mgrwgt>
 0.1591197089D-01    1    2    0
 0.130802967253078D+03 0.000000000000000D+00 0.000000000000000D+00 0.130802967253078D+03
 0.130802967253078D+03 0.000000000000000D+00 0.000000000000000D+00 -.130802967253078D+03
 0.133297623041554D+03 0.193269779929745D+02 -.357505941054990D+02 -.221724886129434D+02
 0.860317092811527D+02 0.186340624192028D+02 0.224166467190199D+02 0.919264461937626D+01
 0.422766021834500D+02 -.379610404121773D+02 0.133339473864791D+02 0.129798439935671D+02
 0.000000000000000D+00 -.000000000000000D+00 -.000000000000000D+00 -.000000000000000D+00
 0.134728911747317D+03 0.000000000000000D+00 0.000000000000000D+00 0.134728911747317D+03
 0.395885076279843D+03 0.000000000000000D+00 0.000000000000000D+00 -.395885076279843D+03
 0.134309090538895D+03 0.379006345305558D+02 -.220421063484211D+02 -.221724886129434D+02
 0.922416047425432D+02 0.310073966311530D+02 0.315489196355319D+02 0.919264461937626D+01
 0.389778559289034D+02 -.323214494731688D+02 0.174963083726370D+02 0.129798439935671D+02
 0.265085436816818D+03 -.365865816885400D+02 -.270031216597478D+02 -.261156164532526D+03
0.160779331617D-04 0.000000000000D+00 0.000000000000D+00 0.427742860344D-06 0.144548730345D-07  6 -2 21 25 -24 -1 21 4 0.69998192D-01 0.18035010D-01 0.23481630D+05 0.23481630D+05 0.23481630D+05 0.12262259D+01  1  2  1  2  6  2       21 0.159119708880D-01 0.100000000000D+01
  </mgrwgt>
  </event>
  <event>
  5     66 -.35998833E-03 0.58410469E+02 0.75467711E-02 0.11547698E+00
       -4 -1    0    0    0  501 0.00000000E+00 0.00000000E+00 0.20702159E+03 0.20702740E+03 0.15500000E+01 0.0000E+00 0.9000E+01
       21 -1    0    0  501  502 0.00000000E+00 0.00000000E+00 -.18393453E+03 0.18393606E+03 0.75000000E+00 0.0000E+00 0.9000E+01
       25  1    1    2    0    0 -.10029275E+02 -.26554813E+02 0.40101091E+02 0.13430876E+03 0.12500000E+03 0.0000E+00 0.9000E+01
      -24  1    1    2    0    0 0.32303330E+02 0.80551182E+02 0.80413910E+02 0.14305807E+03 0.80419002E+02 0.0000E+00 0.9000E+01
       -3  1    1    2    0  502 -.22274055E+02 -.53996370E+02 -.97427934E+02 0.11359663E+03 0.50000000E+00 0.0000E+00 0.9000E+01
#aMCatNLO 1  0  0  1  2 0.42676142D+01 0.00000000D+00  -5  6  0 0.00000000D+00 0.00000000D+00 0.00000000D+00 0.00000000D+00 0.00000000D+00
  <mgrwgt>
 -.9573974986D-02    5    4    0
 0.195140595746626D+03 0.000000000000000D+00 0.000000000000000D+00 0.195140595746626D+03
 0.195140595746626D+03 0.000000000000000D+00 0.000000000000000D+00 -.195140595746626D+03
 0.132171404635685D+03 -.100292090395792D+02 -.265546528886509D+02 0.322264732692501D+02
 0.138551552954493D+03 0.323033995938103D+02 0.805513499741260D+02 0.720922136139513D+02
 0.119558233903074D+03 -.222741905542311D+02 -.539966970854751D+02 -.104318686883201D+03
 0.000000000000000D+00 0.000000000000000D+00 0.000000000000000D+00 0.000000000000000D+00
 0.854086928719100D+03 0.000000000000000D+00 0.000000000000000D+00 0.854086928719100D+03
 0.200194573171393D+03 0.000000000000000D+00 0.000000000000000D+00 -.200194573171393D+03
 0.137850862754845D+03 -.323066514661817D+02 -.359943753095417D+02 0.322264732692501D+02
 0.129743424252021D+03 0.101684624798264D+02 0.711720119801754D+02 0.720922136139513D+02
 0.129004571798207D+03 -.427811792811885D+02 -.626862170745223D+02 -.104318686883201D+03
 0.657682643085419D+03 0.649193682675437D+02 0.275085804038886D+02 0.653892355547707D+03
 0.195140595746626D+03 0.000000000000000D+00 0.000000000000000D+00 0.195140595746626D+03
 0.195140595746626D+03 0.000000000000000D+00 0.000000000000000D+00 -.195140595746626D+03
 0.132171404635685D+03 -.100292090395792D+02 -.265546528886509D+02 0.322264732692501D+02
 0.138551552954493D+03 0.323033995938103D+02 0.805513499741260D+02 0.720922136139513D+02
 0.000000000000000D+00 0.000000000000000D+00 0.000000000000000D+00 0.000000000000000D+00
 0.119558233903074D+03 -.222741905542311D+02 -.539966970854751D+02 -.104318686883201D+03
 0.854086928719100D+03 0.000000000000000D+00 0.000000000000000D+00 0.854086928719100D+03
 0.200194573171393D+03 0.000000000000000D+00 0.000000000000000D+00 -.200194573171393D+03
 0.137850862754845D+03 -.323066514661817D+02 -.359943753095417D+02 0.322264732692501D+02
 0.129743424252021D+03 0.101684624798264D+02 0.711720119801754D+02 0.720922136139513D+02
 0.657682643085419D+03 0.649193682675437D+02 0.275085804038886D+02 0.653892355547707D+03
 0.129004571798207D+03 -.427811792811885D+02 -.626862170745223D+02 -.104318686883201D+03
0.118555936500D-05 0.000000000000D+00 0.000000000000D+00 0.906446639240D-06 0.000000000000D+00  6 -4 21 25 -24 -3 21 2 0.31850040D-01 0.28298184D-01 0.23242726D+05 0.23242726D+05 0.23242726D+05 0.12267059D+01  1  2  2  1  6  1       -4 0.839515049737D-03 0.100000000000D+01
0.349492343465D-07 0.625636865312D-07 -.239330278314D-08 0.906446639240D-06 0.000000000000D+00  6 -4 21 25 -24 -3 21 4 0.31850040D-01 0.28298184D-01 0.23242726D+05 0.23242726D+05 0.23242726D+05 0.12267059D+01  1  2  3  1  6  1       -4 0.372412046773D-04 0.100000000000D+01
0.110034527216D-06 0.000000000000D+00 0.000000000000D+00 0.906446639240D-06 0.000000000000D+00  6 -4 21 25 -24 -3 21 4 0.31850040D-01 0.28298184D-01 0.23242726D+05 0.23242726D+05 0.23242726D+05 0.12267059D+01  1  2 15  1  6  1       -4 0.117250590070D-03 0.100000000000D+01
-.476075004442D-04 0.000000000000D+00 -.124194186298D-05 0.906446639240D-06 0.000000000000D+00  6 -4 21 25 -24 -3 21 4 0.14021240D+00 0.28298184D-01 0.23242726D+05 0.23242726D+05 0.23242726D+05 0.12267059D+01  1  2  5  1  6  1       -4 -.205201702037D-02 0.100000000000D+01
-.851966448029D-05 0.000000000000D+00 -.222097625250D-06 0.906446639240D-06 0.000000000000D+00  6 21 21 25 -24 4 -3 4 0.14021240D+00 0.28298184D-01 0.23242726D+05 0.23242726D+05 0.23242726D+05 0.12267059D+01  3  4  5  4  5  1       -4 -.851596480980D-02 0.100000000000D+01
  </mgrwgt>
  </event>
  <event>
  5     66 0.35998833E-03 0.50557489E+02 0.75467711E-02 0.11791015E+00
       -2 -1    0    0    0  501 0.00000000E+00 0.00000000E+00 0.37553443E+02 0.37554806E+02 0.32000000E+00 0.0000E+00 0.9000E+01
       21 -1    0    0  501  502 0.00000000E+00 0.00000000E+00 -.12239121E+04 0.12239123E+04 0.75000000E+00 0.0000E+00 0.9000E+01
       25  1    1    2    0    0 0.27884717E+02 -.18476186E+02 -.27583029E+03 0.30467405E+03 0.12500000E+03 0.0000E+00 0.9000E+01
      -24  1    1    2    0    0 0.22547921E+02 0.22026043E+02 -.60958009E+02 0.10571968E+03 0.80419002E+02 0.0000E+00 0.9000E+01
       -1  1    1    2    0  502 -.50432638E+02 -.35498575E+01 -.84957035E+03 0.85107340E+03 0.32000000E+00 0.0000E+00 0.9000E+01
#aMCatNLO 1  0  0  2  2 0.76361686D+02 0.00000000D+00  -5  6  0 0.00000000D+00 0.00000000D+00 0.00000000D+00 0.00000000D+00 0.00000000D+00
  <mgrwgt>
 0.1184225313D-01   14    4    0
 0.214390105092351D+03 0.000000000000000D+00 0.000000000000000D+00 0.214390105092351D+03
 0.214390105092351D+03 0.000000000000000D+00 0.000000000000000D+00 -.214390105092351D+03
 0.133174661453484D+03 0.278847515910158D+02 -.184761834986101D+02 0.314890731093041D+02
 0.142366352374520D+03 0.225479574459894D+02 0.220260459532283D+02 0.113169807142786D+03
 0.153239196356698D+03 -.504327090370051D+02 -.354986245461823D+01 -.144658880252091D+03
 0.000000000000000D+00 -.000000000000000D+00 0.000000000000000D+00 -.000000000000000D+00
 0.227863464336092D+03 0.000000000000000D+00 0.000000000000000D+00 0.227863464336092D+03
 0.362096658685428D+03 0.000000000000000D+00 0.000000000000000D+00 -.362096658685428D+03
 0.141177287225832D+03 0.496519762727125D+02 -.291401090488001D+02 0.314890731093041D+02
 0.146486718838798D+03 0.454657086461013D+02 0.107984688895675D+02 0.113169807142786D+03
 0.147862773528939D+03 -.265431239177715D+02 -.152535481959911D+02 -.144658880252091D+03
 0.154433343427951D+03 -.685745610010424D+02 0.335951883552238D+02 -.134233194349337D+03
 0.214390105092351D+03 0.000000000000000D+00 0.000000000000000D+00 0.214390105092351D+03
 0.214390105092351D+03 0.000000000000000D+00 0.000000000000000D+00 -.214390105092351D+03
 0.133174661453484D+03 0.278847515910158D+02 -.184761834986101D+02 0.314890731093041D+02
 0.142366352374520D+03 0.225479574459894D+02 0.220260459532283D+02 0.113169807142786D+03
 0.000000000000000D+00 -.000000000000000D+00 0.000000000000000D+00 -.000000000000000D+00
 0.153239196356698D+03 -.504327090370051D+02 -.354986245461823D+01 -.144658880252091D+03
 0.227863464336092D+03 0.000000000000000D+00 0.000000000000000D+00 0.227863464336092D+03
 0.362096658685428D+03 0.000000000000000D+00 0.000000000000000D+00 -.362096658685428D+03
 0.141177287225832D+03 0.496519762727125D+02 -.291401090488001D+02 0.314890731093041D+02
 0.146486718838798D+03 0.454657086461013D+02 0.107984688895675D+02 0.113169807142786D+03
 0.154433343427951D+03 -.685745610010424D+02 0.335951883552238D+02 -.134233194349337D+03
 0.147862773528939D+03 -.265431239177715D+02 -.152535481959911D+02 -.144658880252091D+03
0.946637181864D-05 0.000000000000D+00 0.000000000000D+00 0.225728959321D-05 0.000000000000D+00  6 -2 21 25 -24 -1 21 2 0.57775752D-02 0.18829429D+00 0.17733129D+05 0.17733129D+05 0.17733129D+05 0.12396195D+01  1  2  2  2  6  2       21 0.293265341945D-02 0.100000000000D+01
0.634105030396D-06 0.499554165345D-06 -.191098773192D-07 0.225728959321D-05 0.000000000000D+00  6 -2 21 25 -24 -1 21 4 0.57775752D-02 0.18829429D+00 0.17733129D+05 0.17733129D+05 0.17733129D+05 0.12396195D+01  1  2  3  2  6  2       21 0.301866691739D-03 0.100000000000D+01
0.103513101534D-05 0.000000000000D+00 0.000000000000D+00 0.225728959321D-05 0.000000000000D+00  6 -2 21 25 -24 -1 21 4 0.57775752D-02 0.18829429D+00 0.17733129D+05 0.17733129D+05 0.17733129D+05 0.12396195D+01  1  2 15  2  6  2       21 0.492775739251D-03 0.100000000000D+01
-.282188727775D-05 0.000000000000D+00 0.000000000000D+00 0.225728959321D-05 0.000000000000D+00  6 -2 21 25 -24 -1 21 4 0.57775752D-02 0.18829429D+00 0.17733129D+05 0.17733129D+05 0.17733129D+05 0.12396195D+01  1  2  4  2  6  2       21 -.134336385325D-02 0.100000000000D+01
-.421296226444D-04 0.000000000000D+00 -.104754622896D-04 0.225728959321D-05 0.000000000000D+00  6 -2 21 25 -24 -1 21 4 0.57775752D-02 0.32414549D+00 0.17733129D+05 0.17733129D+05 0.17733129D+05 0.12396195D+01  1  2  5  2  6  2       21 -.322789627967D-02 0.100000000000D+01
0.314357718095D-04 0.000000000000D+00 0.617588608291D-05 0.225728959321D-05 0.000000000000D+00  6 -2 21 25 -24 -1 21 4 0.57775752D-02 0.18829429D+00 0.17733129D+05 0.17733129D+05 0.17733129D+05 0.12396195D+01  1  2  6  2  6  2       21 0.149650483493D-01 0.100000000000D+01
-.609172248826D-05 0.000000000000D+00 -.200398180255D-05 0.225728959321D-05 0.000000000000D+00  6 -2 -1 25 -24 -1 -1 4 0.57775752D-02 0.32414549D+00 0.17733129D+05 0.17733129D+05 0.17733129D+05 0.12396195D+01  1  2  5  5  6  2       21 -.471805824529D-04 0.100000000000D+01
-.609172248826D-05 0.000000000000D+00 -.200398180255D-05 0.225728959321D-05 0.000000000000D+00  6 -2 1 25 -24 1 -1 4 0.57775752D-02 0.32414549D+00 0.17733129D+05 0.17733129D+05 0.17733129D+05 0.12396195D+01  3  4  5  6  5  2       21 -.588180015348D-03 0.100000000000D+01
-.609172248826D-05 0.000000000000D+00 -.200398180255D-05 0.225728959321D-05 0.000000000000D+00  6 -2 -2 25 -24 -1 -2 4 0.57775752D-02 0.32414549D+00 0.17733129D+05 0.17733129D+05 0.17733129D+05 0.12396195D+01  1  2  5  7  6  2       21 -.397757325519D-04 0.100000000000D+01
-.609172248826D-05 0.000000000000D+00 -.200398180255D-05 0.225728959321D-05 0.000000000000D+00  6 -2 2 25 -24 2 -1 4 0.57775752D-02 0.32414549D+00 0.17733129D+05 0.17733129D+05 0.17733129D+05 0.12396195D+01  3  4  5  8  5  2       21 -.150538608557D-02 0.100000000000D+01
-.609172248826D-05 0.000000000000D+00 -.200398180255D-05 0.225728959321D-05 0.000000000000D+00  6 -2 -3 25 -24 -1 -3 4 0.57775752D-02 0.32414549D+00 0.17733129D+05 0.17733129D+05 0.17733129D+05 0.12396195D+01  1  2  5  9  6  2       21 -.290550759842D-04 0.100000000000D+01
-.609172248826D-05 0.000000000000D+00 -.200398180255D-05 0.225728959321D-05 0.000000000000D+00  6 -2 -4 25 -24 -1 -4 4 0.57775752D-02 0.32414549D+00 0.17733129D+05 0.17733129D+05 0.17733129D+05 0.12396195D+01  1  2  5  9  6  2       21 -.198043408053D-04 0.100000000000D+01
-.609172248826D-05 0.000000000000D+00 -.200398180255D-05 0.225728959321D-05 0.000000000000D+00  6 -2 3 25 -24 3 -1 4 0.57775752D-02 0.32414549D+00 0.17733129D+05 0.17733129D+05 0.17733129D+05 0.12396195D+01  3  4  5 10  5  2       21 -.296447616148D-04 0.100000000000D+01
-.609172248826D-05 0.000000000000D+00 -.200398180255D-05 0.225728959321D-05 0.000000000000D+00  6 -2 4 25 -24 4 -1 4 0.57775752D-02 0.32414549D+00 0.17733129D+05 0.17733129D+05 0.17733129D+05 0.12396195D+01  3  4  5 10  5  2       21 -.198043408053D-04 0.100000000000D+01
  </mgrwgt>
  </event>
  <event>
  5     66 0.35998833E-03 0.11831472E+03 0.75467711E-02 0.10893860E+00
       -2 -1    0    0    0  501 0.00000000E+00 0.00000000E+00 0.67254214E+03 0.67254221E+03 0.32000000E+00 0.0000E+00 0.9000E+01
       21 -1    0    0  501  502 0.00000000E+00 0.00000000E+00 -.13395405E+03 0.13395615E+03 0.75000000E+00 0.0000E+00 0.9000E+01
       25  1    1    2    0    0 -.49723016E+02 -.26275295E+02 0.42665120E+03 0.44812834E+03 0.12500000E+03 0.0000E+00 0.9000E+01
      -24  1    1    2    0    0 -.10646147E+03 -.66399014E+02 0.93252395E+02 0.17580130E+03 0.80419002E+02 0.0000E+00 0.9000E+01
       -1  1    1    2    0  502 0.15618449E+03 0.92674309E+02 0.18684497E+02 0.18256871E+03 0.32000000E+00 0.0000E+00 0.9000E+01
#aMCatNLO 1  0  0  1  2 0.10626677D+03 0.00000000D+00  -5  6  0 0.00000000D+00 0.00000000D+00 0.00000000D+00 0.00000000D+00 0.00000000D+00
  <mgrwgt>
 0.6891810782D-02    9    4    0
 0.300150994005892D+03 0.000000000000000D+00 0.000000000000000D+00 0.300150994005892D+03
 0.300150994005892D+03 0.000000000000000D+00 0.000000000000000D+00 -.300150994005892D+03
 0.219265567479050D+03 -.497230720498253D+02 -.262753284708146D+02 0.171142082205367D+03
 0.152521322582943D+03 -.106461509620227D+03 -.663990366472284D+02 -.324446111054198D+02
 0.228515097949790D+03 0.156184581670053D+03 0.926743651180430D+02 -.138697471099947D+03
 0.000000000000000D+00 0.000000000000000D+00 -.000000000000000D+00 0.000000000000000D+00
 0.431187220792774D+03 0.000000000000000D+00 0.000000000000000D+00 0.431187220792774D+03
 0.327158083398659D+03 0.000000000000000D+00 0.000000000000000D+00 -.327158083398659D+03
 0.230409489998518D+03 -.884698503443604D+02 -.186281067163298D+02 0.171142082205367D+03
 0.171106108651130D+03 -.134347246486302D+03 -.608953942029180D+02 -.324446111054198D+02
 0.208119623367711D+03 0.118561439222510D+03 0.100099821531732D+03 -.138697471099947D+03
 0.148710082174074D+03 0.104255657608152D+03 -.205763206124839D+02 0.104029137394115D+03
 0.300150994005892D+03 0.000000000000000D+00 0.000000000000000D+00 0.300150994005892D+03
 0.300150994005892D+03 0.000000000000000D+00 0.000000000000000D+00 -.300150994005892D+03
 0.219265567479050D+03 -.497230720498253D+02 -.262753284708146D+02 0.171142082205367D+03
 0.152521322582943D+03 -.106461509620227D+03 -.663990366472284D+02 -.324446111054198D+02
 0.000000000000000D+00 0.000000000000000D+00 -.000000000000000D+00 0.000000000000000D+00
 0.228515097949790D+03 0.156184581670053D+03 0.926743651180430D+02 -.138697471099947D+03
 0.431187220792774D+03 0.000000000000000D+00 0.000000000000000D+00 0.431187220792774D+03
 0.327158083398659D+03 0.000000000000000D+00 0.000000000000000D+00 -.327158083398659D+03
 0.230409489998518D+03 -.884698503443604D+02 -.186281067163298D+02 0.171142082205367D+03
 0.171106108651130D+03 -.134347246486302D+03 -.608953942029180D+02 -.324446111054198D+02
 0.148710082174074D+03 0.104255657608152D+03 -.205763206124839D+02 0.104029137394115D+03
 0.208119623367711D+03 0.118561439222510D+03 0.100099821531732D+03 -.138697471099947D+03
0.162891506601D-04 0.000000000000D+00 0.000000000000D+00 0.175768339575D-06 0.000000000000D+00  6 -2 21 25 -24 -1 21 2 0.10346819D+00 0.20608482D-01 0.54687919D+05 0.54687919D+05 0.54687919D+05 0.11884463D+01  1  2  2  1  6  1       -2 0.323278521091D-02 0.100000000000D+01
-.103619315202D-05 0.859602096567D-06 -.328831020704D-07 0.175768339575D-06 0.000000000000D+00  6 -2 21 25 -24 -1 21 4 0.10346819D+00 0.20608482D-01 0.54687919D+05 0.54687919D+05 0.54687919D+05 0.11884463D+01  1  2  3  1  6  1       -2 -.290454583493D-03 0.100000000000D+01
0.171031964000D-05 0.000000000000D+00 0.000000000000D+00 0.175768339575D-06 0.000000000000D+00  6 -2 21 25 -24 -1 21 4 0.10346819D+00 0.20608482D-01 0.54687919D+05 0.54687919D+05 0.54687919D+05 0.11884463D+01  1  2 15  1  6  1       -2 0.479418511607D-03 0.100000000000D+01
0.331110733187D-04 0.000000000000D+00 0.000000000000D+00 0.170362176150D-06 0.000000000000D+00  6 -2 21 25 -24 -1 21 4 0.15170051D+00 0.20608482D-01 0.85177783D+05 0.85177783D+05 0.85177783D+05 0.11700268D+01  1  2 12  1  6  1       -2 0.334823707590D-02 0.100000000000D+01
-.350172016562D-04 0.000000000000D+00 0.000000000000D+00 0.175768339575D-06 0.000000000000D+00  6 -2 21 25 -24 -1 21 4 0.10346819D+00 0.20608482D-01 0.54687919D+05 0.54687919D+05 0.54687919D+05 0.11884463D+01  1  2  4  1  6  1       -2 -.981564750004D-02 0.100000000000D+01
-.532632634969D-04 0.000000000000D+00 -.169825429846D-04 0.175768339575D-06 0.000000000000D+00  6 -2 21 25 -24 -1 21 4 0.15614064D+00 0.20608482D-01 0.54687919D+05 0.54687919D+05 0.54687919D+05 0.11884463D+01  1  2  5  1  6  1       -2 -.540447772001D-02 0.100000000000D+01
0.567237860850D-04 0.000000000000D+00 0.156396504321D-04 0.175768339575D-06 0.000000000000D+00  6 -2 21 25 -24 -1 21 4 0.10346819D+00 0.20608482D-01 0.54687919D+05 0.54687919D+05 0.54687919D+05 0.11884463D+01  1  2  6  1  6  1       -2 0.159002051204D-01 0.100000000000D+01
0.152579617865D-05 0.000000000000D+00 0.000000000000D+00 0.170362176150D-06 0.000000000000D+00  6 21 21 25 -24 2 -1 4 0.15170051D+00 0.20608482D-01 0.85177783D+05 0.85177783D+05 0.85177783D+05 0.11700268D+01  3  4 12  4  5  1       -2 0.169268490020D-02 0.100000000000D+01
-.198660503315D-05 0.000000000000D+00 -.825400401627D-06 0.175768339575D-06 0.000000000000D+00  6 21 21 25 -24 2 -1 4 0.15614064D+00 0.20608482D-01 0.54687919D+05 0.54687919D+05 0.54687919D+05 0.11884463D+01  3  4  5  4  5  1       -2 -.225094023344D-02 0.100000000000D+01
  </mgrwgt>
  </event>
  <event>
  6     66 0.35998833E-03 0.35864926E+02 0.75467711E-02 0.11903441E+00
       -2 -1    0    0    0  501 0.00000000E+00 0.00000000E+00 0.17800153E+03 0.17800182E+03 0.32000000E+00 0.0000E+00 0.9000E+01
       21 -1    0    0  501  502 -.00000000E+00 -.00000000E+00 -.19473769E+03 0.19473913E+03 0.75000000E+00 0.0000E+00 0.9000E+01
       25  1    1    2    0    0 0.55437420E+02 0.24285800E+02 -.85998128E+02 0.16335172E+03 0.12500000E+03 0.0000E+00 0.9000E+01
      -24  1    1    2    0    0 -.81927543E+02 0.96965021E+01 0.68255417E+02 0.13391102E+03 0.80419002E+02 0.0000E+00 0.9000E+01
       -1  1    1    2    0  503 0.11552706E+02 -.43842665E+02 -.18521978E+02 0.48977651E+02 0.32000000E+00 0.0000E+00 0.9000E+01
       21  1    1    2  503  502 0.14937417E+02 0.98603626E+01 0.19528528E+02 0.26500549E+02 0.75000000E+00 0.0000E+00 0.9000E+01
#aMCatNLO 2  0  0  5  2 0.27459711D+02 0.00000000D+00  -5  6  0 0.00000000D+00 0.00000000D+00 0.00000000D+00 0.00000000D+00 0.00000000D+00
  <mgrwgt>
 0.9744380918D-02    2    2    0
 0.186182514765459D+03 0.000000000000000D+00 0.000000000000000D+00 0.186182514765459D+03
 0.186182514765459D+03 -.000000000000000D+00 -.000000000000000D+00 -.186182514765459D+03
 0.159686188659854D+03 0.465857524782220D+02 0.356409774111816D+02 -.802132610228763D+02
 0.142234657196778D+03 -.896707633883203D+02 0.196297313161842D+02 0.730568928666186D+02
 0.704441836742857D+02 0.430850109100983D+02 -.552707087273658D+02 0.715636815625770D+01
 0.000000000000000D+00 0.000000000000000D+00 0.000000000000000D+00 0.000000000000000D+00
 0.186182514765459D+03 0.000000000000000D+00 0.000000000000000D+00 0.186182514765459D+03
 0.186182514765459D+03 -.000000000000000D+00 -.000000000000000D+00 -.186182514765459D+03
 0.159656010627954D+03 0.555026280764509D+02 0.242021493004906D+02 -.787321787801996D+02
 0.137080523701107D+03 -.818715476056340D+02 0.962466981750659D+01 0.743523331668999D+02
 0.478976114286808D+02 0.110733042263022D+02 -.435377582987805D+02 -.166140517755790D+02
 0.277308837731756D+02 0.152956153028810D+02 0.971093918078335D+01 0.209938973888788D+02
-.382801435532D-05 0.000000000000D+00 0.000000000000D+00 0.142361421563D-06 0.000000000000D+00  6 -2 21 25 -24 -1 21 4 0.27384984D-01 0.29959778D-01 0.25137956D+05 0.25137956D+05 0.25137956D+05 0.12230415D+01  1  2 13  3  6  5       -1 -.887078294249D-02 0.100000000000D+01
0.803301297599D-05 0.000000000000D+00 0.000000000000D+00 0.141490071977D-06 0.682033018424D-08  6 -2 21 25 -24 -1 21 4 0.27384984D-01 0.29959778D-01 0.25137956D+05 0.25137956D+05 0.25137956D+05 0.12230415D+01  1  2  1  3  6  5       -1 0.186151638604D-01 0.100000000000D+01
  </mgrwgt>
  </event>
  <event>
  6     66 -.35998833E-03 0.14851313E+02 0.75467711E-02 0.12113428E+00
       -4 -1    0    0    0  501 0.00000000E+00 0.00000000E+00 0.15481622E+03 0.15482398E+03 0.15500000E+01 0.0000E+00 0.9000E+01
       21 -1    0    0  503  502 0.00000000E+00 0.00000000E+00 -.32781118E+03 0.32781204E+03 0.75000000E+00 0.0000E+00 0.9000E+01
       25  1    1    2    0    0 0.86620563E+01 -.67445336E+02 -.72076207E+02 0.15951139E+03 0.12500000E+03 0.0000E+00 0.9000E+01
      -24  1    1    2    0    0 -.32694302E+02 0.60264741E+02 0.83467005E+02 0.13466519E+03 0.80419002E+02 0.0000E+00 0.9000E+01
       -3  1    1    2    0  502 0.20758599E+02 -.58436873E+01 -.69022979E+02 0.72315211E+02 0.50000000E+00 0.0000E+00 0.9000E+01
       21  1    1    2  503  501 0.32736465E+01 0.13024283E+02 -.11536278E+03 0.11614423E+03 0.75000000E+00 0.0000E+00 0.9000E+01
#aMCatNLO 2  0  0  2  1 0.13429397D+02 0.00000000D+00  -5  6  0 0.00000000D+00 0.00000000D+00 0.00000000D+00 0.00000000D+00 0.00000000D+00
  <mgrwgt>
 -.2041973251D-01    3    2    0
 0.180841378900531D+03 0.000000000000000D+00 0.000000000000000D+00 0.180841378900531D+03
 0.180841378900531D+03 0.000000000000000D+00 0.000000000000000D+00 -.180841378900531D+03
 0.147796740731672D+03 0.100092134328133D+02 -.620844733133976D+02 -.475837198079302D+02
 0.151630607925094D+03 -.313315822648761D+02 0.656875504059730D+02 0.105962743357301D+03
 0.622554091442947D+02 0.213223688320628D+02 -.360307709257542D+01 -.583790235493706D+02
 0.000000000000000D+00 0.000000000000000D+00 0.000000000000000D+00 -.000000000000000D+00
 0.181422446610553D+03 0.000000000000000D+00 0.000000000000000D+00 0.181422446610553D+03
 0.279743647791753D+03 0.000000000000000D+00 0.000000000000000D+00 -.279743647791753D+03
 0.150043668273827D+03 0.866177790911160D+01 -.674452785727801D+02 -.475837198079302D+02
 0.149653258046563D+03 -.326945960516350D+02 0.602647666451633D+02 0.105962743357301D+03
 0.622350645253295D+02 0.207591716247228D+02 -.584377098706580D+01 -.583790235493706D+02
 0.992341035565862D+02 0.327364651780064D+01 0.130242829146826D+02 -.983212011812004D+02
-.463650428075D-04 0.000000000000D+00 0.000000000000D+00 0.169694996990D-05 0.000000000000D+00  6 -4 21 25 -24 -3 21 4 0.23742071D-01 0.50461597D-01 0.20018393D+05 0.20018393D+05 0.20018393D+05 0.12337821D+01  1  2 13  2  6  2       21 -.275598850833D-01 0.100000000000D+01
-.405325063441D-04 0.000000000000D+00 0.000000000000D+00 0.169694996990D-05 0.000000000000D+00  6 -4 21 25 -24 -3 21 4 0.23742071D-01 0.55765032D-01 0.20018393D+05 0.20018393D+05 0.20018393D+05 0.12337821D+01  1  2 13  2  6  2       21 -.195579232077D-01 0.100000000000D+01
0.451271520065D-04 0.000000000000D+00 0.000000000000D+00 0.170937279751D-05 0.211108739942D-06  6 -4 21 25 -24 -3 21 4 0.23818358D-01 0.50432759D-01 0.20018393D+05 0.20018393D+05 0.20018393D+05 0.12337821D+01  1  2  1  2  6  2       21 0.266980757837D-01 0.100000000000D+01
  </mgrwgt>
  </event>
  <event>
  6     66 0.35998833E-03 0.62871268E+02 0.75467711E-02 0.12042445E+00
       -2 -1    0    0    0  501 0.00000000E+00 0.00000000E+00 0.13213463E+03 0.13213502E+03 0.32000000E+00 0.0000E+00 0.9000E+01
       21 -1    0    0  501  502 -.00000000E+00 -.00000000E+00 -.19581977E+03 0.19582120E+03 0.75000000E+00 0.0000E+00 0.9000E+01
       25  1    1    2    0    0 -.13748236E+01 -.51629841E+02 -.91923615E+01 0.13556191E+03 0.12500000E+03 0.0000E+00 0.9000E+01
      -24  1    1    2    0    0 0.36138485E+02 -.84560355E+01 -.74165900E+02 0.11552182E+03 0.80419002E+02 0.0000E+00 0.9000E+01
       -1  1    1    2    0  503 -.31474701E+02 0.46434441E+02 0.25537401E+02 0.61636640E+02 0.32000000E+00 0.0000E+00 0.9000E+01
       21  1    1    2  503  502 -.32889598E+01 0.13651436E+02 -.58642753E+01 0.15235852E+02 0.75000000E+00 0.0000E+00 0.9000E+01
#aMCatNLO 2  0  0  5  2 0.96918560D+01 0.00000000D+00  -5  6  0 0.00000000D+00 0.00000000D+00 0.00000000D+00 0.00000000D+00 0.00000000D+00
  <mgrwgt>
 0.2040505007D-01    3    2    0
 0.160856679040974D+03 0.000000000000000D+00 0.000000000000000D+00 0.160856679040974D+03
 0.160856679040974D+03 -.000000000000000D+00 -.000000000000000D+00 -.160856679040974D+03
 0.136816340051204D+03 -.536239784120782D+00 -.530792583238357D+02 0.166137198631795D+02
 0.103731797534287D+03 0.367733217987527D+02 -.955329493375102D+01 -.533809631340414D+02
 0.811652204964561D+02 -.362370820146319D+02 0.626325532575867D+02 0.367672432708619D+02
 0.000000000000000D+00 0.000000000000000D+00 0.000000000000000D+00 0.000000000000000D+00
 0.160856679040974D+03 0.000000000000000D+00 0.000000000000000D+00 0.160856679040974D+03
 0.160856679040974D+03 -.000000000000000D+00 -.000000000000000D+00 -.160856679040974D+03
 0.136370131360932D+03 -.138002262155553D+01 -.516208552029075D+02 0.174698475403256D+02
 0.103077957156442D+03 0.361345547297976D+02 -.844924322094007D+01 -.527328506781818D+02
 0.677925766405907D+02 -.314395452143056D+02 0.463033863178804D+02 0.382542136213139D+02
 0.144726929239828D+02 -.331498689393641D+01 0.137667121059673D+02 -.299121048345774D+01
-.368656212358D-05 0.000000000000D+00 0.000000000000D+00 0.220050113988D-06 0.000000000000D+00  6 -2 21 25 -24 -1 21 4 0.20328545D-01 0.30126258D-01 0.21600639D+05 0.21600639D+05 0.21600639D+05 0.12301619D+01  1  2 13  3  6  5       -1 -.145112389113D-01 0.100000000000D+01
-.132498287434D-06 0.000000000000D+00 0.000000000000D+00 0.219687902121D-06 0.000000000000D+00  6 -2 21 25 -24 -1 21 4 0.20328545D-01 0.30126258D-01 0.22068036D+05 0.22068036D+05 0.22068036D+05 0.12291490D+01  1  2  8  3  6  5       -1 -.519870568620D-03 0.100000000000D+01
0.900251208083D-05 0.000000000000D+00 0.000000000000D+00 0.219687902121D-06 0.362962663792D-07  6 -2 21 25 -24 -1 21 4 0.20328545D-01 0.30126258D-01 0.21600639D+05 0.21600639D+05 0.21600639D+05 0.12301619D+01  1  2  1  3  6  5       -1 0.354361595511D-01 0.100000000000D+01
  </mgrwgt>
  </event>
  <event>
  6     66 0.35998833E-03 0.43884801E+02 0.75467711E-02 0.12076071E+00
       -4 -1    0    0    0  501 0.00000000E+00 0.00000000E+00 0.19904195E+03 0.19904798E+03 0.15500000E+01 0.0000E+00 0.9000E+01
       21 -1    0    0  501  502 -.00000000E+00 -.00000000E+00 -.30145848E+03 0.30145941E+03 0.75000000E+00 0.0000E+00 0.9000E+01
       25  1    1    2    0    0 -.51469152E+02 0.12006204E+02 0.63156891E+02 0.14968973E+03 0.12500000E+03 0.0000E+00 0.9000E+01
      -24  1    1    2    0    0 0.35441484E+02 -.50709399E+02 0.56012483E+02 0.11589718E+03 0.80419002E+02 0.0000E+00 0.9000E+01
       -3  1    1    2    0  503 0.20053502E+02 0.42086943E+02 -.75481692E+02 0.88719725E+02 0.50000000E+00 0.0000E+00 0.9000E+01
       21  1    1    2  503  502 -.40258342E+01 -.33837479E+01 -.14610422E+03 0.14620076E+03 0.75000000E+00 0.0000E+00 0.9000E+01
#aMCatNLO 2  0  0  5  5 0.31841868D+02 0.00000000D+00  -5  6  0 0.00000000D+00 0.00000000D+00 0.00000000D+00 0.00000000D+00 0.00000000D+00
  <mgrwgt>
 0.4073164473D-03    1    2    0
 0.244958416696825D+03 0.000000000000000D+00 0.000000000000000D+00 0.244958416696825D+03
 0.244958416696825D+03 -.000000000000000D+00 -.000000000000000D+00 -.244958416696825D+03
 0.168443216831088D+03 -.518196405734116D+02 0.111598532801650D+02 0.996910217723376D+02
 0.132218780264269D+03 0.351666734729721D+02 -.513730044462476D+02 0.844908834798857D+02
 0.189254836298292D+03 0.166529671004394D+02 0.402131511660826D+02 -.184181905252223D+03
 0.000000000000000D+00 0.000000000000000D+00 0.000000000000000D+00 -.000000000000000D+00
 0.244958416696825D+03 0.000000000000000D+00 0.000000000000000D+00 0.244958416696825D+03
 0.244958416696825D+03 -.000000000000000D+00 -.000000000000000D+00 -.244958416696825D+03
 0.166136330371414D+03 -.514703610550973D+02 0.120032843627148D+02 0.958279884305491D+02
 0.130119067132102D+03 0.354405373051769D+02 -.507116851980349D+02 0.814619480300692D+02
 0.743881165036413D+02 0.199717625748102D+02 0.419075035002827D+02 -.581247084034709D+02
 0.119273319386492D+03 -.394193882488984D+01 -.319910266496255D+01 -.119165228057147D+03
0.931106110701D-06 0.000000000000D+00 0.000000000000D+00 0.499449462814D-05 0.152540877752D-05  6 -4 21 25 -24 -3 21 4 0.30622374D-01 0.46378763D-01 0.20833709D+05 0.20833709D+05 0.20833709D+05 0.12318782D+01  1  2  1  3  6  5       -3 0.407316447326D-03 0.100000000000D+01
  </mgrwgt>
  </event>
  <event>
  5     66 -.35998833E-03 0.37587991E+02 0.75467711E-02 0.10645514E+00
       -4 -1    0    0    0  501 0.00000000E+00 0.00000000E+00 0.12777348E+04 0.12777357E+04 0.15500000E+01 0.0000E+00 0.9000E+01
       21 -1    0    0  501  502 0.00000000E+00 0.00000000E+00 -.17845398E+03 0.17845556E+03 0.75000000E+00 0.0000E+00 0.9000E+01
       25  1    1    2    0    0 -.27848077E+03 0.16656518E+03 0.14863975E+03 0.37817228E+03 0.12500000E+03 0.0000E+00 0.9000E+01
      -24  1    1    2    0    0 0.24099577E+03 -.16934122E+03 0.98243452E+03 0.10287858E+04 0.80419002E+02 0.0000E+00 0.9000E+01
       -3  1    1    2    0  502 0.37485006E+02 0.27760389E+01 -.31793481E+02 0.49233195E+02 0.50000000E+00 0.0000E+00 0.9000E+01
#aMCatNLO 1  0  0  5  2 0.42480378D+00 0.00000000D+00  -5  6  0 0.00000000D+00 0.00000000D+00 0.00000000D+00 0.00000000D+00 0.00000000D+00
  <mgrwgt>
 -.2996184955D-01    7    2    0
 0.477513027663258D+03 0.000000000000000D+00 0.000000000000000D+00 0.477513027663258D+03
 0.477513027663258D+03 -.000000000000000D+00 -.000000000000000D+00 -.477513027663258D+03
 0.405532637266428D+03 -.278480930958185D+03 0.166565171674333D+03 -.208653144155622D+03
 0.437828624346938D+03 0.240995593105856D+03 -.169341235133994D+03 0.313801463556197D+03
 0.111664793713151D+03 0.374853378523291D+02 0.277606345966158D+01 -.105148319400575D+03
 0.000000000000000D+00 0.000000000000000D+00 0.000000000000000D+00 -.000000000000000D+00
 0.477513027663258D+03 0.000000000000000D+00 0.000000000000000D+00 0.477513027663258D+03
 0.477513027663258D+03 -.000000000000000D+00 -.000000000000000D+00 -.477513027663258D+03
 0.405533774820467D+03 -.278479485478127D+03 0.166565278722704D+03 -.208657198802252D+03
 0.437826301189663D+03 0.240997153695363D+03 -.169341119560926D+03 0.313797086021583D+03
 0.101912116825535D+03 0.346087452509643D+02 0.257743635735837D+01 -.958210369900012D+02
 0.975386249085143D+01 0.287358653179954D+01 0.198404480863597D+00 -.931885022932937D+01
0.166565462681D-04 0.000000000000D+00 0.000000000000D+00 0.215758447216D-06 0.000000000000D+00  6 -4 21 25 -24 -3 21 2 0.19657477D+00 0.27454652D-01 0.11924868D+06 0.11924868D+06 0.11924868D+06 0.11566131D+01  1  2  2  3  6  5       -3 0.174274689310D-03 0.100000000000D+01
0.272489637952D-05 0.878990095455D-06 -.336247679515D-07 0.215758447216D-06 0.000000000000D+00  6 -4 21 25 -24 -3 21 4 0.19657477D+00 0.27454652D-01 0.11924868D+06 0.11924868D+06 0.11924868D+06 0.11566131D+01  1  2  3  3  6  5       -3 0.381395522119D-04 0.100000000000D+01
0.178859678537D-05 0.000000000000D+00 0.000000000000D+00 0.215758447216D-06 0.000000000000D+00  6 -4 21 25 -24 -3 21 4 0.19657477D+00 0.27454652D-01 0.11924868D+06 0.11924868D+06 0.11924868D+06 0.11566131D+01  1  2 15  3  6  5       -3 0.250344493811D-04 0.100000000000D+01
-.472876555285D-01 0.000000000000D+00 0.000000000000D+00 0.215758447216D-06 0.000000000000D+00  6 -4 21 25 -24 -3 21 4 0.19657477D+00 0.27454652D-01 0.11924868D+06 0.11924868D+06 0.11924868D+06 0.11566131D+01  1  2  4  3  6  5       -3 -.661871042351D+00 0.100000000000D+01
-.286400472463D-01 0.000000000000D+00 0.000000000000D+00 0.215758447216D-06 0.000000000000D+00  6 -4 21 25 -24 -3 21 4 0.19657477D+00 0.27454652D-01 0.11924868D+06 0.11924868D+06 0.11924868D+06 0.11566131D+01  1  2  5  3  6  5       -3 -.400866097337D+00 0.100000000000D+01
0.333249771485D-01 0.000000000000D+00 -.000000000000D+00 0.215758447216D-06 0.000000000000D+00  6 -4 21 25 -24 -3 21 4 0.19657477D+00 0.27454652D-01 0.11924868D+06 0.11924868D+06 0.11924868D+06 0.11566131D+01  1  2  6  3  6  5       -3 0.466439647200D+00 0.100000000000D+01
0.404450658920D-01 0.000000000000D+00 0.000000000000D+00 0.215758447216D-06 0.100758077063D-04  6 -4 21 25 -24 -3 21 4 0.19657477D+00 0.27454652D-01 0.11924767D+06 0.11924767D+06 0.11924767D+06 0.11566135D+01  1  2 11  3  6  5       -3 0.566098194250D+00 0.100000000000D+01
  </mgrwgt>
  </event>
  <event>
  6     66 0.35998833E-03 0.26921037E+02 0.75467711E-02 0.11819337E+00
       -2 -1    0    0    0  501 0.00000000E+00 0.00000000E+00 0.32947319E+03 0.32947335E+03 0.32000000E+00 0.0000E+00 0.9000E+01
       21 -1    0    0  501  502 -.00000000E+00 -.00000000E+00 -.44709919E+03 0.44709982E+03 0.75000000E+00 0.0000E+00 0.9000E+01
       25  1    1    2    0    0 -.10071686E+03 0.14758542E+02 0.26824798E+03 0.31295955E+03 0.12500000E+03 0.0000E+00 0.9000E+01
      -24  1    1    2    0    0 0.83321017E+02 0.28846284E+02 -.60845114E+02 0.13395463E+03 0.80419002E+02 0.0000E+00 0.9000E+01
       -1  1    1    2    0  503 0.32613832E+01 -.35115406E+02 -.16187577E+03 0.16567316E+03 0.32000000E+00 0.0000E+00 0.9000E+01
       21  1    1    2  503  502 0.14134460E+02 -.84894194E+01 -.16315310E+03 0.16398582E+03 0.75000000E+00 0.0000E+00 0.9000E+01
#aMCatNLO 2  0  0  5  2 0.14361648D+02 0.00000000D+00  -5  6  0 0.00000000D+00 0.00000000D+00 0.00000000D+00 0.00000000D+00 0.00000000D+00
  <mgrwgt>
 0.9453267536D-01    1    2    0
 0.383806594090031D+03 0.000000000000000D+00 0.000000000000000D+00 0.383806594090031D+03
 0.383806594090031D+03 -.000000000000000D+00 -.000000000000000D+00 -.383806594090031D+03
 0.358334882427812D+03 -.100758922381488D+03 0.148639772285701D+02 0.320008733796476D+03
 0.126116375496029D+03 0.833061953423769D+02 0.288834352222768D+02 -.407915334502521D+02
 0.283161930256222D+03 0.174527270391112D+02 -.437474124508471D+02 -.279217200346224D+03
 0.000000000000000D+00 0.000000000000000D+00 0.000000000000000D+00 -.000000000000000D+00
 0.383806594090031D+03 0.000000000000000D+00 0.000000000000000D+00 0.383806594090031D+03
 0.383806594090031D+03 -.000000000000000D+00 -.000000000000000D+00 -.383806594090031D+03
 0.357719507805689D+03 -.100716973694085D+03 0.147588276708266D+02 0.319337618329617D+03
 0.126194344275469D+03 0.833209764870168D+02 0.288463844605473D+02 -.410280093783413D+02
 0.142386131500780D+03 0.323863137852628D+01 -.350440221153144D+02 -.137968250784493D+03
 0.141313204598125D+03 0.141573658285422D+02 -.856119001605963D+01 -.140341358166783D+03
0.725362964911D-03 0.000000000000D+00 0.000000000000D+00 0.129077553915D-05 0.872793252429D-07  6 -2 21 25 -24 -1 21 4 0.50688243D-01 0.68784551D-01 0.27602608D+05 0.27602608D+05 0.27602608D+05 0.12187131D+01  1  2  1  3  6  5       -1 0.945326753631D-01 0.100000000000D+01
  </mgrwgt>
  </event>
  <event>
  6     66 0.35998833E-03 0.63565331E+02 0.75467711E-02 0.11596189E+00
       -2 -1    0    0    0  501 0.00000000E+00 0.00000000E+00 0.50758996E+03 0.50759006E+03 0.32000000E+00 0.0000E+00 0.9000E+01
       21 -1    0    0  501  502 0.00000000E+00 0.00000000E+00 -.76008947E+02 0.76012647E+02 0.75000000E+00 0.0000E+00 0.9000E+01
       25  1    1    2    0    0 0.90749101E+02 -.58132956E+02 0.14856056E+03 0.22205873E+03 0.12500000E+03 0.0000E+00 0.9000E+01
      -24  1    1    2    0    0 -.40037499E+02 0.85316182E+02 0.13346869E+03 0.18210700E+03 0.80419002E+02 0.0000E+00 0.9000E+01
       -1  1    1    2    0  503 -.67195276E+02 -.25892889E+02 0.14557847E+03 0.16241564E+03 0.32000000E+00 0.0000E+00 0.9000E+01
       21  1    1    2  503  502 0.16483674E+02 -.12903374E+01 0.39732980E+01 0.17021342E+02 0.75000000E+00 0.0000E+00 0.9000E+01
#aMCatNLO 2  0  0  5  2 0.10966758D+02 0.00000000D+00  -5  6  0 0.00000000D+00 0.00000000D+00 0.00000000D+00 0.00000000D+00 0.00000000D+00
  <mgrwgt>
 0.1034933239D-01    1    2    0
 0.196424254225635D+03 0.000000000000000D+00 0.000000000000000D+00 0.196424254225635D+03
 0.196424254225635D+03 -.000000000000000D+00 -.000000000000000D+00 -.196424254225635D+03
 0.173713813425102D+03 0.105317833455368D+03 -.503235964024138D+02 -.304496071581430D+02
 0.125165769103041D+03 -.293772484565802D+02 0.910304568296632D+02 -.704890085676661D+01
 0.939689259231262D+02 -.759405849987882D+02 -.407068604272493D+02 0.374985080149096D+02
 0.000000000000000D+00 0.000000000000000D+00 0.000000000000000D+00 -.000000000000000D+00
 0.196424254225635D+03 0.000000000000000D+00 0.000000000000000D+00 0.196424254225635D+03
 0.196424254225635D+03 -.000000000000000D+00 -.000000000000000D+00 -.196424254225635D+03
 0.166628480033868D+03 0.906390843929669D+02 -.581919291172505D+02 -.232014250513802D+02
 0.123899914926074D+03 -.401192947616761D+02 0.852723371147365D+02 -.174461317614636D+01
 0.812490131547802D+02 -.671241114590270D+02 -.257509192952160D+02 0.378503098390626D+02
 0.210711003365462D+02 0.166043218277363D+02 -.132948870227001D+01 -.129042716115360D+02
0.645347970410D-05 0.000000000000D+00 0.000000000000D+00 0.127371360442D-06 0.720976872955D-08  6 -2 21 25 -24 -1 21 4 0.78091056D-01 0.11693977D-01 0.35616077D+05 0.35616077D+05 0.35616077D+05 0.12071537D+01  1  2  1  3  6  5       -1 0.103493323852D-01 0.100000000000D+01
  </mgrwgt>
  </event>
  <event>
  5     66 0.35998833E-03 0.93281139E+02 0.75467711E-02 0.11156502E+00
       -4 -1    0    0    0  501 0.00000000E+00 0.00000000E+00 0.55483014E+02 0.55504660E+02 0.15500000E+01 0.0000E+00 0.9000E+01
       21 -1    0    0  501  502 0.00000000E+00 0.00000000E+00 -.70406237E+03 0.70406277E+03 0.75000000E+00 0.0000E+00 0.9000E+01
       25  1    1    2    0    0 0.10730060E+03 0.39138562E+02 -.39582683E+03 0.43052192E+03 0.12500000E+03 0.0000E+00 0.9000E+01
      -24  1    1    2    0    0 -.14734712E+02 -.27613209E+02 -.20879518E+03 0.22592530E+03 0.80419002E+02 0.0000E+00 0.9000E+01
       -3  1    1    2    0  502 -.92565889E+02 -.11525353E+02 -.43957347E+02 0.10312020E+03 0.50000000E+00 0.0000E+00 0.9000E+01
#aMCatNLO 1  0  0  2  2 0.12734737D+03 0.00000000D+00  -5  6  0 0.00000000D+00 0.00000000D+00 0.00000000D+00 0.00000000D+00 0.00000000D+00
  <mgrwgt>
 0.3842859815D-02   14    4    0
 0.197666068980940D+03 0.000000000000000D+00 0.000000000000000D+00 0.197666068980940D+03
 0.197666068980940D+03 0.000000000000000D+00 0.000000000000000D+00 -.197666068980940D+03
 0.177788321750272D+03 0.107300928691952D+03 0.391386033013971D+02 -.542067134609614D+02
 0.915313089726772D+02 -.147345429310890D+02 -.276131882143998D+02 -.305150724909706D+02
 0.126012507238930D+03 -.925663857608629D+02 -.115254150869973D+02 0.847217859519320D+02
 0.000000000000000D+00 -.000000000000000D+00 -.000000000000000D+00 -.000000000000000D+00
 0.246996329645915D+03 0.000000000000000D+00 0.000000000000000D+00 0.246996329645915D+03
 0.310759371295280D+03 0.000000000000000D+00 0.000000000000000D+00 -.310759371295280D+03
 0.214786292452661D+03 0.137685985518837D+03 0.928027641454061D+02 -.542067134609614D+02
 0.860841014986256D+02 -.987208933299570D+00 -.333351853871489D+01 -.305150724909706D+02
 0.114466638889175D+03 -.739534335820292D+02 0.213476009220755D+02 0.847217859519320D+02
 0.142418668100733D+03 -.627453430035082D+02 -.110816846528767D+03 -.637630416493646D+02
 0.197666068980940D+03 0.000000000000000D+00 0.000000000000000D+00 0.197666068980940D+03
 0.197666068980940D+03 0.000000000000000D+00 0.000000000000000D+00 -.197666068980940D+03
 0.177788321750272D+03 0.107300928691952D+03 0.391386033013971D+02 -.542067134609614D+02
 0.915313089726772D+02 -.147345429310890D+02 -.276131882143998D+02 -.305150724909706D+02
 0.000000000000000D+00 -.000000000000000D+00 -.000000000000000D+00 -.000000000000000D+00
 0.126012507238930D+03 -.925663857608629D+02 -.115254150869973D+02 0.847217859519320D+02
 0.246996329645915D+03 0.000000000000000D+00 0.000000000000000D+00 0.246996329645915D+03
 0.310759371295280D+03 0.000000000000000D+00 0.000000000000000D+00 -.310759371295280D+03
 0.214786292452661D+03 0.137685985518837D+03 0.928027641454061D+02 -.542067134609614D+02
 0.860841014986256D+02 -.987208933299570D+00 -.333351853871489D+01 -.305150724909706D+02
 0.142418668100733D+03 -.627453430035082D+02 -.110816846528767D+03 -.637630416493646D+02
 0.114466638889175D+03 -.739534335820292D+02 0.213476009220755D+02 0.847217859519320D+02
0.783285698154D-05 0.000000000000D+00 0.000000000000D+00 0.157723142766D-06 0.000000000000D+00  6 -4 21 25 -24 -3 21 2 0.85375441D-02 0.10831898D+00 0.30432657D+05 0.30432657D+05 0.30432657D+05 0.12142463D+01  1  2  2  2  6  2       21 0.325844022436D-02 0.100000000000D+01
-.973855014935D-06 0.413351219099D-06 -.158122814996D-07 0.157723142766D-06 0.000000000000D+00  6 -4 21 25 -24 -3 21 4 0.85375441D-02 0.10831898D+00 0.30432657D+05 0.30432657D+05 0.30432657D+05 0.12142463D+01  1  2  3  2  6  2       21 -.597306753298D-03 0.100000000000D+01
0.860428209690D-06 0.000000000000D+00 0.000000000000D+00 0.157723142766D-06 0.000000000000D+00  6 -4 21 25 -24 -3 21 4 0.85375441D-02 0.10831898D+00 0.30432657D+05 0.30432657D+05 0.30432657D+05 0.12142463D+01  1  2 15  2  6  2       21 0.527737263241D-03 0.100000000000D+01
-.521598923554D-05 0.000000000000D+00 0.000000000000D+00 0.157723142766D-06 0.000000000000D+00  6 -4 21 25 -24 -3 21 4 0.85375441D-02 0.10831898D+00 0.30432657D+05 0.30432657D+05 0.30432657D+05 0.12142463D+01  1  2  4  2  6  2       21 -.319918832654D-02 0.100000000000D+01
-.163590737711D-04 0.000000000000D+00 -.976857573050D-05 0.157723142766D-06 0.000000000000D+00  6 -4 21 25 -24 -3 21 4 0.85375441D-02 0.19635364D+00 0.30432657D+05 0.30432657D+05 0.30432657D+05 0.12142463D+01  1  2  5  2  6  2       21 -.211116652857D-02 0.100000000000D+01
0.115607109552D-04 0.000000000000D+00 0.524753823454D-05 0.157723142766D-06 0.000000000000D+00  6 -4 21 25 -24 -3 21 4 0.85375441D-02 0.10831898D+00 0.30432657D+05 0.30432657D+05 0.30432657D+05 0.12142463D+01  1  2  6  2  6  2       21 0.709067635383D-02 0.100000000000D+01
-.308394274760D-05 0.000000000000D+00 -.206336066308D-05 0.157723142766D-06 0.000000000000D+00  6 -4 -3 25 -24 -3 -3 4 0.85375441D-02 0.19635364D+00 0.30432657D+05 0.30432657D+05 0.30432657D+05 0.12142463D+01  1  2  5  5  6  2       21 -.231178977816D-04 0.100000000000D+01
-.308394274760D-05 0.000000000000D+00 -.206336066308D-05 0.157723142766D-06 0.000000000000D+00  6 -4 3 25 -24 3 -3 4 0.85375441D-02 0.19635364D+00 0.30432657D+05 0.30432657D+05 0.30432657D+05 0.12142463D+01  3  4  5  6  5  2       21 -.232601700173D-04 0.100000000000D+01
-.308394274760D-05 0.000000000000D+00 -.206336066308D-05 0.157723142766D-06 0.000000000000D+00  6 -4 -4 25 -24 -3 -4 4 0.85375441D-02 0.19635364D+00 0.30432657D+05 0.30432657D+05 0.30432657D+05 0.12142463D+01  1  2  5  7  6  2       21 -.178190347571D-04 0.100000000000D+01
-.308394274760D-05 0.000000000000D+00 -.206336066308D-05 0.157723142766D-06 0.000000000000D+00  6 -4 4 25 -24 4 -3 4 0.85375441D-02 0.19635364D+00 0.30432657D+05 0.30432657D+05 0.30432657D+05 0.12142463D+01  3  4  5  8  5  2       21 -.178190347571D-04 0.100000000000D+01
-.308394274760D-05 0.000000000000D+00 -.206336066308D-05 0.157723142766D-06 0.000000000000D+00  6 -4 -1 25 -24 -3 -1 4 0.85375441D-02 0.19635364D+00 0.30432657D+05 0.30432657D+05 0.30432657D+05 0.12142463D+01  1  2  5  9  6  2       21 -.468389993548D-04 0.100000000000D+01
-.308394274760D-05 0.000000000000D+00 -.206336066308D-05 0.157723142766D-06 0.000000000000D+00  6 -4 -2 25 -24 -3 -2 4 0.85375441D-02 0.19635364D+00 0.30432657D+05 0.30432657D+05 0.30432657D+05 0.12142463D+01  1  2  5  9  6  2       21 -.351452343226D-04 0.100000000000D+01
-.308394274760D-05 0.000000000000D+00 -.206336066308D-05 0.157723142766D-06 0.000000000000D+00  6 -4 1 25 -24 1 -3 4 0.85375441D-02 0.19635364D+00 0.30432657D+05 0.30432657D+05 0.30432657D+05 0.12142463D+01  3  4  5 10  5  2       21 -.318853048005D-03 0.100000000000D+01
-.308394274760D-05 0.000000000000D+00 -.206336066308D-05 0.157723142766D-06 0.000000000000D+00  6 -4 2 25 -24 2 -3 4 0.85375441D-02 0.19635364D+00 0.30432657D+05 0.30432657D+05 0.30432657D+05 0.12142463D+01  3  4  5 10  5  2       21 -.643478999351D-03 0.100000000000D+01
  </mgrwgt>
  </event>
  <event>
  5     66 0.35998833E-03 0.78382691E+02 0.75467711E-02 0.98052839E-01
       -4 -1    0    0    0  501 0.00000000E+00 0.00000000E+00 0.94291514E+02 0.94304253E+02 0.15500000E+01 0.0000E+00 0.9000E+01
       21 -1    0    0  501  502 0.00000000E+00 0.00000000E+00 -.13734610E+04 0.13734612E+04 0.75000000E+00 0.0000E+00 0.9000E+01
       25  1    1    2    0    0 -.32447281E+02 0.61890802E+02 -.21124576E+02 0.14475685E+03 0.12500000E+03 0.0000E+00 0.9000E+01
      -24  1    1    2    0    0 0.10349490E+03 -.28783805E+02 -.11341585E+03 0.17569881E+03 0.80419002E+02 0.0000E+00 0.9000E+01
       -3  1    1    2    0  502 -.71047615E+02 -.33106997E+02 -.11446290E+04 0.11473098E+04 0.50000000E+00 0.0000E+00 0.9000E+01
#aMCatNLO 1  0  0  2  1 0.13427806D+01 0.00000000D+00  -5  6  0 0.00000000D+00 0.00000000D+00 0.00000000D+00 0.00000000D+00 0.00000000D+00
  <mgrwgt>
 0.9975793105D-02   12    4    0
 0.359882221748744D+03 0.000000000000000D+00 0.000000000000000D+00 0.359882221748744D+03
 0.359882221748744D+03 0.000000000000000D+00 0.000000000000000D+00 -.359882221748744D+03
 0.257649945632702D+03 -.324472469232445D+02 0.618908176115782D+02 0.214184960599494D+03
 0.156727094453127D+03 0.103494916247075D+03 -.287837950788561D+02 0.809719805440012D+02
 0.305387403411659D+03 -.710476693238302D+02 -.331070225327221D+02 -.295156941143495D+03
 0.000000000000000D+00 -.000000000000000D+00 -.000000000000000D+00 -.000000000000000D+00
 0.730793935348548D+03 0.000000000000000D+00 0.000000000000000D+00 0.730793935348548D+03
 0.848061506449222D+03 0.000000000000000D+00 0.000000000000000D+00 -.848061506449222D+03
 0.312846055955190D+03 0.179015140078643D+03 0.657726159000467D+02 0.214184960599494D+03
 0.295166523223355D+03 0.270995657354486D+03 -.257089972419142D+02 0.809719805440012D+02
 0.341122344020369D+03 0.168590284371629D+03 -.287080075982183D+02 -.295156941143495D+03
 0.629720518598856D+03 -.618601081804758D+03 -.113556110599141D+02 -.117267571100674D+03
 0.359882221748744D+03 0.000000000000000D+00 0.000000000000000D+00 0.359882221748744D+03
 0.359882221748744D+03 0.000000000000000D+00 0.000000000000000D+00 -.359882221748744D+03
 0.257649945632702D+03 -.324472469232445D+02 0.618908176115782D+02 0.214184960599494D+03
 0.156727094453127D+03 0.103494916247075D+03 -.287837950788561D+02 0.809719805440012D+02
 0.000000000000000D+00 -.000000000000000D+00 -.000000000000000D+00 -.000000000000000D+00
 0.305387403411659D+03 -.710476693238302D+02 -.331070225327221D+02 -.295156941143495D+03
 0.730793935348548D+03 0.000000000000000D+00 0.000000000000000D+00 0.730793935348548D+03
 0.848061506449222D+03 0.000000000000000D+00 0.000000000000000D+00 -.848061506449222D+03
 0.312846055955190D+03 0.179015140078643D+03 0.657726159000467D+02 0.214184960599494D+03
 0.295166523223355D+03 0.270995657354486D+03 -.257089972419142D+02 0.809719805440012D+02
 0.629720518598856D+03 -.618601081804758D+03 -.113556110599141D+02 -.117267571100674D+03
 0.341122344020369D+03 0.168590284371629D+03 -.287080075982183D+02 -.295156941143495D+03
0.254252868448D-03 0.000000000000D+00 0.000000000000D+00 0.238879036786D-05 0.000000000000D+00  6 -4 21 25 -24 -3 21 2 0.14507382D-01 0.21130268D+00 0.31644806D+05 0.31644806D+05 0.31644806D+05 0.12124730D+01  1  2  2  2  6  2       21 0.720011926371D-02 0.100000000000D+01
0.221628280639D-04 0.134172924873D-04 -.513263287897D-06 0.238879036786D-05 0.000000000000D+00  6 -4 21 25 -24 -3 21 4 0.14507382D-01 0.21130268D+00 0.31644806D+05 0.31644806D+05 0.31644806D+05 0.12124730D+01  1  2  3  2  6  2       21 0.922663041061D-03 0.100000000000D+01
0.246690729803D-04 0.000000000000D+00 0.000000000000D+00 0.238879036786D-05 0.000000000000D+00  6 -4 21 25 -24 -3 21 4 0.14507382D-01 0.21130268D+00 0.31644806D+05 0.31644806D+05 0.31644806D+05 0.12124730D+01  1  2 15  2  6  2       21 0.102700078846D-02 0.100000000000D+01
0.757037851825D-03 0.000000000000D+00 -.532647358743D-03 0.238879036786D-05 0.000000000000D+00  6 -4 21 25 -24 -3 21 4 0.14507382D-01 0.62151830D+00 0.31644806D+05 0.31644806D+05 0.31644806D+05 0.12124730D+01  1  2  5  2  6  2       21 0.648299540842D-04 0.100000000000D+01
0.290006419219D-03 0.000000000000D+00 -.186442222897D-03 0.238879036786D-05 0.000000000000D+00  6 -4 -3 25 -24 -3 -3 4 0.14507382D-01 0.62151830D+00 0.31644806D+05 0.31644806D+05 0.31644806D+05 0.12124730D+01  1  2  5  5  6  2       21 0.506548955038D-05 0.100000000000D+01
0.290006419219D-03 0.000000000000D+00 -.186442222897D-03 0.238879036786D-05 0.000000000000D+00  6 -4 3 25 -24 3 -3 4 0.14507382D-01 0.62151830D+00 0.31644806D+05 0.31644806D+05 0.31644806D+05 0.12124730D+01  3  4  5  6  5  2       21 0.638602517323D-05 0.100000000000D+01
0.290006419219D-03 0.000000000000D+00 -.186442222897D-03 0.238879036786D-05 0.000000000000D+00  6 -4 -4 25 -24 -3 -4 4 0.14507382D-01 0.62151830D+00 0.31644806D+05 0.31644806D+05 0.31644806D+05 0.12124730D+01  1  2  5  7  6  2       21 0.713420267077D-06 0.100000000000D+01
0.290006419219D-03 0.000000000000D+00 -.186442222897D-03 0.238879036786D-05 0.000000000000D+00  6 -4 4 25 -24 4 -3 4 0.14507382D-01 0.62151830D+00 0.31644806D+05 0.31644806D+05 0.31644806D+05 0.12124730D+01  3  4  5  8  5  2       21 0.713420267077D-06 0.100000000000D+01
0.290006419219D-03 0.000000000000D+00 -.186442222897D-03 0.238879036786D-05 0.000000000000D+00  6 -4 -1 25 -24 -3 -1 4 0.14507382D-01 0.62151830D+00 0.31644806D+05 0.31644806D+05 0.31644806D+05 0.12124730D+01  1  2  5  9  6  2       21 0.438356390931D-05 0.100000000000D+01
0.290006419219D-03 0.000000000000D+00 -.186442222897D-03 0.238879036786D-05 0.000000000000D+00  6 -4 -2 25 -24 -3 -2 4 0.14507382D-01 0.62151830D+00 0.31644806D+05 0.31644806D+05 0.31644806D+05 0.12124730D+01  1  2  5  9  6  2       21 0.440744875272D-05 0.100000000000D+01
0.290006419219D-03 0.000000000000D+00 -.186442222897D-03 0.238879036786D-05 0.000000000000D+00  6 -4 1 25 -24 1 -3 4 0.14507382D-01 0.62151830D+00 0.31644806D+05 0.31644806D+05 0.31644806D+05 0.12124730D+01  3  4  5 10  5  2       21 0.145466840494D-03 0.100000000000D+01
0.290006419219D-03 0.000000000000D+00 -.186442222897D-03 0.238879036786D-05 0.000000000000D+00  6 -4 2 25 -24 2 -3 4 0.14507382D-01 0.62151830D+00 0.31644806D+05 0.31644806D+05 0.31644806D+05 0.12124730D+01  3  4  5 10  5  2       21 0.594043848951D-03 0.100000000000D+01
  </mgrwgt>
  </event>
  <event>
  5     66 -.35998833E-03 0.55760430E+02 0.75467711E-02 0.11357814E+00
       -2 -1    0    0    0  501 0.00000000E+00 0.00000000E+00 0.39570384E+03 0.39570397E+03 0.32000000E+00 0.0000E+00 0.9000E+01
       21 -1    0    0  501  502 0.00000000E+00 0.00000000E+00 -.62795635E+02 0.62800113E+02 0.75000000E+00 0.0000E+00 0.9000E+01
       25  1    1    2    0    0 0.83756483E+02 -.28546736E+02 0.12261113E+03 0.19618500E+03 0.12500000E+03 0.0000E+00 0.9000E+01
      -24  1    1    2    0    0 -.30497867E+02 0.45059751E+02 0.10397438E+03 0.14226169E+03 0.80419002E+02 0.0000E+00 0.9000E+01
       -1  1    1    2    0  502 -.53258616E+02 -.16513016E+02 0.10632270E+03 0.12005739E+03 0.32000000E+00 0.0000E+00 0.9000E+01
#aMCatNLO 1  0  0  2  1 0.72194958D+02 0.00000000D+00  -5  6  0 0.00000000D+00 0.00000000D+00 0.00000000D+00 0.00000000D+00 0.00000000D+00
  <mgrwgt>
 -.2270634936D-01   12    4    0
 0.157637338171571D+03 0.000000000000000D+00 0.000000000000000D+00 0.157637338171571D+03
 0.157637338171571D+03 0.000000000000000D+00 0.000000000000000D+00 -.157637338171571D+03
 0.155843265563587D+03 0.837568296521279D+02 -.285466280965415D+02 -.288445303734529D+02
 0.971014558583446D+02 -.304976506425060D+02 0.450598184133439D+02 0.991385537326517D+00
 0.623299549212103D+02 -.532591790096218D+02 -.165131903168024D+02 0.278531448361264D+02
 0.000000000000000D+00 0.000000000000000D+00 0.000000000000000D+00 -.000000000000000D+00
 0.169662951191560D+03 0.000000000000000D+00 0.000000000000000D+00 0.169662951191560D+03
 0.120325042850435D+04 0.000000000000000D+00 0.000000000000000D+00 -.120325042850435D+04
 0.140966417663443D+03 0.368141307181514D+02 -.453788910823763D+02 -.288445303734529D+02
 0.107410951008880D+03 -.628428364176199D+02 0.334617917626364D+02 0.991385537326517D+00
 0.852147610206603D+02 -.765944930885108D+02 -.248805435443055D+02 0.278531448361264D+02
 0.103932125000293D+04 0.102623198787979D+03 0.367976428640453D+02 -.103358747731279D+04
 0.157637338171571D+03 0.000000000000000D+00 0.000000000000000D+00 0.157637338171571D+03
 0.157637338171571D+03 0.000000000000000D+00 0.000000000000000D+00 -.157637338171571D+03
 0.155843265563587D+03 0.837568296521279D+02 -.285466280965415D+02 -.288445303734529D+02
 0.971014558583446D+02 -.304976506425060D+02 0.450598184133439D+02 0.991385537326517D+00
 0.000000000000000D+00 0.000000000000000D+00 0.000000000000000D+00 -.000000000000000D+00
 0.623299549212103D+02 -.532591790096218D+02 -.165131903168024D+02 0.278531448361264D+02
 0.169662951191560D+03 0.000000000000000D+00 0.000000000000000D+00 0.169662951191560D+03
 0.120325042850435D+04 0.000000000000000D+00 0.000000000000000D+00 -.120325042850435D+04
 0.140966417663443D+03 0.368141307181514D+02 -.453788910823763D+02 -.288445303734529D+02
 0.107410951008880D+03 -.628428364176199D+02 0.334617917626364D+02 0.991385537326517D+00
 0.103932125000293D+04 0.102623198787979D+03 0.367976428640453D+02 -.103358747731279D+04
 0.852147610206603D+02 -.765944930885108D+02 -.248805435443055D+02 0.278531448361264D+02
0.654287783784D-06 0.000000000000D+00 0.000000000000D+00 0.219523670587D-06 0.000000000000D+00  6 -2 21 25 -24 -1 21 2 0.60877869D-01 0.96612213D-02 0.23410141D+05 0.23410141D+05 0.23410141D+05 0.12263689D+01  1  2  2  2  6  2       21 0.176802885289D-02 0.100000000000D+01
-.516548946804D-07 0.345277149457D-07 -.132081852679D-08 0.219523670587D-06 0.000000000000D+00  6 -2 21 25 -24 -1 21 4 0.60877869D-01 0.96612213D-02 0.23410141D+05 0.23410141D+05 0.23410141D+05 0.12263689D+01  1  2  3  2  6  2       21 -.209929898468D-03 0.100000000000D+01
0.732462339182D-07 0.000000000000D+00 0.000000000000D+00 0.219523670587D-06 0.000000000000D+00  6 -2 21 25 -24 -1 21 4 0.60877869D-01 0.96612213D-02 0.23410141D+05 0.23410141D+05 0.23410141D+05 0.12263689D+01  1  2 15  2  6  2       21 0.297678943007D-03 0.100000000000D+01
-.218562591698D-03 0.000000000000D+00 -.123043978421D-04 0.219523670587D-06 0.000000000000D+00  6 -2 21 25 -24 -1 21 4 0.60877869D-01 0.76221797D-01 0.23410141D+05 0.23410141D+05 0.23410141D+05 0.12263689D+01  1  2  5  2  6  2       21 -.161725193170D-01 0.100000000000D+01
-.936376150930D-04 0.000000000000D+00 -.532132345960D-05 0.219523670587D-06 0.000000000000D+00  6 -2 -1 25 -24 -1 -1 4 0.60877869D-01 0.76221797D-01 0.23410141D+05 0.23410141D+05 0.23410141D+05 0.12263689D+01  1  2  5  5  6  2       21 -.750895316231D-03 0.100000000000D+01
-.936376150930D-04 0.000000000000D+00 -.532132345960D-05 0.219523670587D-06 0.000000000000D+00  6 -2 1 25 -24 1 -1 4 0.60877869D-01 0.76221797D-01 0.23410141D+05 0.23410141D+05 0.23410141D+05 0.12263689D+01  3  4  5  6  5  2       21 -.225152936851D-02 0.100000000000D+01
-.936376150930D-04 0.000000000000D+00 -.532132345960D-05 0.219523670587D-06 0.000000000000D+00  6 -2 -2 25 -24 -1 -2 4 0.60877869D-01 0.76221797D-01 0.23410141D+05 0.23410141D+05 0.23410141D+05 0.12263689D+01  1  2  5  7  6  2       21 -.576724542910D-03 0.100000000000D+01
-.936376150930D-04 0.000000000000D+00 -.532132345960D-05 0.219523670587D-06 0.000000000000D+00  6 -2 2 25 -24 2 -1 4 0.60877869D-01 0.76221797D-01 0.23410141D+05 0.23410141D+05 0.23410141D+05 0.12263689D+01  3  4  5  8  5  2       21 -.350339563686D-02 0.100000000000D+01
-.936376150930D-04 0.000000000000D+00 -.532132345960D-05 0.219523670587D-06 0.000000000000D+00  6 -2 -3 25 -24 -1 -3 4 0.60877869D-01 0.76221797D-01 0.23410141D+05 0.23410141D+05 0.23410141D+05 0.12263689D+01  1  2  5  9  6  2       21 -.361173292830D-03 0.100000000000D+01
-.936376150930D-04 0.000000000000D+00 -.532132345960D-05 0.219523670587D-06 0.000000000000D+00  6 -2 -4 25 -24 -1 -4 4 0.60877869D-01 0.76221797D-01 0.23410141D+05 0.23410141D+05 0.23410141D+05 0.12263689D+01  1  2  5  9  6  2       21 -.292149422143D-03 0.100000000000D+01
-.936376150930D-04 0.000000000000D+00 -.532132345960D-05 0.219523670587D-06 0.000000000000D+00  6 -2 3 25 -24 3 -1 4 0.60877869D-01 0.76221797D-01 0.23410141D+05 0.23410141D+05 0.23410141D+05 0.12263689D+01  3  4  5 10  5  2       21 -.361590943317D-03 0.100000000000D+01
-.936376150930D-04 0.000000000000D+00 -.532132345960D-05 0.219523670587D-06 0.000000000000D+00  6 -2 4 25 -24 4 -1 4 0.60877869D-01 0.76221797D-01 0.23410141D+05 0.23410141D+05 0.23410141D+05 0.12263689D+01  3  4  5 10  5  2       21 -.292149422143D-03 0.100000000000D+01
  </mgrwgt>
  </event>
  <event>
  5     66 -.35998833E-03 0.26869219E+02 0.75467711E-02 0.11820557E+00
       -4 -1    0    0    0  501 0.00000000E+00 0.00000000E+00 0.40629849E+02 0.40659404E+02 0.15500000E+01 0.0000E+00 0.9000E+01
       21 -1    0    0  501  502 0.00000000E+00 0.00000000E+00 -.71600311E+03 0.71600351E+03 0.75000000E+00 0.0000E+00 0.9000E+01
       25  1    1    2    0    0 0.98697090E+02 -.59030910E+02 -.38954699E+03 0.42496779E+03 0.12500000E+03 0.0000E+00 0.9000E+01
      -24  1    1    2    0    0 -.99951220E+02 0.32194000E+02 -.18544838E+03 0.22778283E+03 0.80419002E+02 0.0000E+00 0.9000E+01
       -3  1    1    2    0  502 0.12541301E+01 0.26836910E+02 -.10037789E+03 0.10391229E+03 0.50000000E+00 0.0000E+00 0.9000E+01
#aMCatNLO 1  0  0  1  2 0.29948374D+01 0.00000000D+00  -5  6  0 0.00000000D+00 0.00000000D+00 0.00000000D+00 0.00000000D+00 0.00000000D+00
  <mgrwgt>
 -.2235798942D-02   11    4    0
 0.170594337760522D+03 0.000000000000000D+00 0.000000000000000D+00 0.170594337760522D+03
 0.170594337760522D+03 0.000000000000000D+00 0.000000000000000D+00 -.170594337760522D+03
 0.171365226515378D+03 0.986970120359223D+02 -.590325815402704D+02 -.226957042309551D+02
 0.138070035545204D+03 -.999512831567661D+02 0.321926534058375D+02 0.396168250001292D+02
 0.317534134604625D+02 0.125427112084387D+01 0.268399281344329D+02 -.169211207691741D+02
 0.000000000000000D+00 0.000000000000000D+00 -.000000000000000D+00 0.000000000000000D+00
 0.189619266214738D+03 0.000000000000000D+00 0.000000000000000D+00 0.189619266214738D+03
 0.170718809470391D+03 0.000000000000000D+00 0.000000000000000D+00 -.170718809470391D+03
 0.170398418117913D+03 0.976596946256475D+02 -.579492014800327D+02 -.226957042309551D+02
 0.138886211590080D+03 -.100791897837552D+03 0.330705960437287D+02 0.396168250001292D+02
 0.319171893886792D+02 0.106101877848612D+01 0.270417619533111D+02 -.169211207691741D+02
 0.191362565884566D+02 0.207118443341881D+01 -.216315651700706D+01 0.189004567443472D+02
 0.170594337760522D+03 0.000000000000000D+00 0.000000000000000D+00 0.170594337760522D+03
 0.170594337760522D+03 0.000000000000000D+00 0.000000000000000D+00 -.170594337760522D+03
 0.171365226515378D+03 0.986970120359223D+02 -.590325815402704D+02 -.226957042309551D+02
 0.138070035545204D+03 -.999512831567661D+02 0.321926534058375D+02 0.396168250001292D+02
 0.000000000000000D+00 0.000000000000000D+00 -.000000000000000D+00 0.000000000000000D+00
 0.317534134604625D+02 0.125427112084387D+01 0.268399281344329D+02 -.169211207691741D+02
 0.189619266214738D+03 0.000000000000000D+00 0.000000000000000D+00 0.189619266214738D+03
 0.170718809470391D+03 0.000000000000000D+00 0.000000000000000D+00 -.170718809470391D+03
 0.170398418117913D+03 0.976596946256475D+02 -.579492014800327D+02 -.226957042309551D+02
 0.138886211590080D+03 -.100791897837552D+03 0.330705960437287D+02 0.396168250001292D+02
 0.191362565884566D+02 0.207118443341881D+01 -.216315651700706D+01 0.189004567443472D+02
 0.319171893886792D+02 0.106101877848612D+01 0.270417619533111D+02 -.169211207691741D+02
0.333619432114D-06 0.000000000000D+00 0.000000000000D+00 0.630373832101D-06 0.000000000000D+00  6 -4 21 25 -24 -3 21 2 0.62530496D-02 0.11015663D+00 0.27058468D+05 0.27058468D+05 0.27058468D+05 0.12196305D+01  1  2  2  1  6  1       -4 0.224779021325D-03 0.100000000000D+01
0.245638811969D-07 0.176055811187D-07 -.673481513418D-09 0.630373832101D-06 0.000000000000D+00  6 -4 21 25 -24 -3 21 4 0.62530496D-02 0.11015663D+00 0.27058468D+05 0.27058468D+05 0.27058468D+05 0.12196305D+01  1  2  3  1  6  1       -4 0.246182970877D-04 0.100000000000D+01
0.359955651617D-07 0.000000000000D+00 0.000000000000D+00 0.630373832101D-06 0.000000000000D+00  6 -4 21 25 -24 -3 21 4 0.62530496D-02 0.11015663D+00 0.27058468D+05 0.27058468D+05 0.27058468D+05 0.12196305D+01  1  2 15  1  6  1       -4 0.360753054408D-04 0.100000000000D+01
0.138851498100D-05 0.000000000000D+00 0.000000000000D+00 0.629490809911D-06 0.000000000000D+00  6 -4 21 25 -24 -3 21 4 0.69525320D-02 0.11015663D+00 0.27564912D+05 0.27564912D+05 0.27564912D+05 0.12187760D+01  1  2 12  1  6  1       -4 0.116622748888D-02 0.100000000000D+01
-.875072011975D-04 0.000000000000D+00 0.000000000000D+00 0.630373832101D-06 0.000000000000D+00  6 -4 21 25 -24 -3 21 4 0.62530496D-02 0.11015663D+00 0.27058468D+05 0.27058468D+05 0.27058468D+05 0.12196305D+01  1  2  4  1  6  1       -4 -.877010542074D-01 0.100000000000D+01
-.918686367744D-04 0.000000000000D+00 -.119576657131D-05 0.630373832101D-06 0.000000000000D+00  6 -4 21 25 -24 -3 21 4 0.69534649D-02 0.11015663D+00 0.27058468D+05 0.27058468D+05 0.27058468D+05 0.12196305D+01  1  2  5  1  6  1       -4 -.773445141775D-01 0.100000000000D+01
0.914861886343D-04 0.000000000000D+00 0.118905859767D-05 0.630373832101D-06 0.000000000000D+00  6 -4 21 25 -24 -3 21 4 0.62530496D-02 0.11015663D+00 0.27058468D+05 0.27058468D+05 0.27058468D+05 0.12196305D+01  1  2  6  1  6  1       -4 0.916888562181D-01 0.100000000000D+01
0.854620648991D-04 0.000000000000D+00 0.000000000000D+00 0.630373832101D-06 0.558479216327D-06  6 -4 21 25 -24 -3 21 4 0.69503988D-02 0.11023700D+00 0.27564912D+05 0.27564912D+05 0.27564912D+05 0.12187760D+01  1  2 11  1  6  1       -4 0.716906506185D-01 0.100000000000D+01
0.237191005696D-07 0.000000000000D+00 0.000000000000D+00 0.629490809911D-06 0.000000000000D+00  6 21 21 25 -24 4 -3 4 0.69525320D-02 0.11015663D+00 0.27564912D+05 0.27564912D+05 0.27564912D+05 0.12187760D+01  3  4 12  4  5  1       -4 0.527398648606D-03 0.100000000000D+01
-.156662377928D-05 0.000000000000D+00 -.204486443571D-07 0.630373832101D-06 0.000000000000D+00  6 21 21 25 -24 4 -3 4 0.69534649D-02 0.11015663D+00 0.27058468D+05 0.27058468D+05 0.27058468D+05 0.12196305D+01  3  4  5  4  5  1       -4 -.349486100869D-01 0.100000000000D+01
0.145893197336D-05 0.000000000000D+00 0.000000000000D+00 0.630373832101D-06 0.944621402387D-08  6 21 21 25 -24 4 -3 4 0.69503988D-02 0.11023700D+00 0.27564912D+05 0.27564912D+05 0.27564912D+05 0.12187760D+01  3  4 11  4  5  1       -4 0.323997739315D-01 0.100000000000D+01
  </mgrwgt>
  </event>
  <event>
  5     66 0.35998833E-03 0.83924351E+02 0.75467711E-02 0.11084729E+00
       -2 -1    0    0    0  501 0.00000000E+00 0.00000000E+00 0.11274944E+04 0.11274945E+04 0.32000000E+00 0.0000E+00 0.9000E+01
       21 -1    0    0  501  502 0.00000000E+00 0.00000000E+00 -.34315848E+02 0.34324043E+02 0.75000000E+00 0.0000E+00 0.9000E+01
       25  1    1    2    0    0 -.42243119E+02 -.11773953E+03 0.69778482E+03 0.71984424E+03 0.12500000E+03 0.0000E+00 0.9000E+01
      -24  1    1    2    0    0 0.42725862E+02 0.33816826E+02 0.29787788E+03 0.31331697E+03 0.80419002E+02 0.0000E+00 0.9000E+01
       -1  1    1    2    0  502 -.48274306E+00 0.83922701E+02 0.97515882E+02 0.12865731E+03 0.32000000E+00 0.0000E+00 0.9000E+01
#aMCatNLO 1  0  0  1  2 0.45820313D+02 0.00000000D+00  -5  6  0 0.00000000D+00 0.00000000D+00 0.00000000D+00 0.00000000D+00 0.00000000D+00
  <mgrwgt>
 0.1394297670D-01    6    4    0
 0.196712263694565D+03 0.000000000000000D+00 0.000000000000000D+00 0.196712263694565D+03
 0.196712263694565D+03 0.000000000000000D+00 0.000000000000000D+00 -.196712263694565D+03
 0.186884665886074D+03 -.422431181403750D+02 -.117739698852674D+03 0.604463450277160D+02
 0.975631379056522D+02 0.427258627084789D+02 0.338167364734763D+02 0.907077249888044D+01
 0.108976723597403D+03 -.482744568103816D+00 0.839229623791972D+02 -.695171175265965D+02
 0.000000000000000D+00 -.000000000000000D+00 -.000000000000000D+00 0.000000000000000D+00
 0.333189156718819D+03 0.000000000000000D+00 0.000000000000000D+00 0.333189156718819D+03
 0.242562836641606D+03 0.000000000000000D+00 0.000000000000000D+00 -.242562836641606D+03
 0.165013234311556D+03 0.769074771399825D+01 -.888338858226429D+02 0.604463450277160D+02
 0.121123086802649D+03 0.737571607146645D+02 0.517801943972414D+02 0.907077249888044D+01
 0.129025147914229D+03 0.332894192284896D+02 0.103473058003095D+03 -.695171175265965D+02
 0.160590524331992D+03 -.114737327657152D+03 -.664193665776938D+02 0.906263200772130D+02
 0.196712263694565D+03 0.000000000000000D+00 0.000000000000000D+00 0.196712263694565D+03
 0.196712263694565D+03 0.000000000000000D+00 0.000000000000000D+00 -.196712263694565D+03
 0.186884665886074D+03 -.422431181403750D+02 -.117739698852674D+03 0.604463450277160D+02
 0.975631379056522D+02 0.427258627084789D+02 0.338167364734763D+02 0.907077249888044D+01
 0.000000000000000D+00 -.000000000000000D+00 -.000000000000000D+00 0.000000000000000D+00
 0.108976723597403D+03 -.482744568103816D+00 0.839229623791972D+02 -.695171175265965D+02
 0.333189156718819D+03 0.000000000000000D+00 0.000000000000000D+00 0.333189156718819D+03
 0.242562836641606D+03 0.000000000000000D+00 0.000000000000000D+00 -.242562836641606D+03
 0.165013234311556D+03 0.769074771399825D+01 -.888338858226429D+02 0.604463450277160D+02
 0.121123086802649D+03 0.737571607146645D+02 0.517801943972414D+02 0.907077249888044D+01
 0.160590524331992D+03 -.114737327657152D+03 -.664193665776938D+02 0.906263200772130D+02
 0.129025147914229D+03 0.332894192284896D+02 0.103473058003095D+03 -.695171175265965D+02
0.693996440304D-05 0.000000000000D+00 0.000000000000D+00 0.300206282471D-06 0.000000000000D+00  6 -2 21 25 -24 -1 21 2 0.17346132D+00 0.52799951D-02 0.32023844D+05 0.32023844D+05 0.32023844D+05 0.12119339D+01  1  2  2  1  6  1       -2 0.447128621695D-02 0.100000000000D+01
-.188446514263D-06 0.366231983204D-06 -.140097886374D-07 0.300206282471D-06 0.000000000000D+00  6 -2 21 25 -24 -1 21 4 0.17346132D+00 0.52799951D-02 0.32023844D+05 0.32023844D+05 0.32023844D+05 0.12119339D+01  1  2  3  1  6  1       -2 -.178328697103D-03 0.100000000000D+01
0.744174181873D-06 0.000000000000D+00 0.000000000000D+00 0.300206282471D-06 0.000000000000D+00  6 -2 21 25 -24 -1 21 4 0.17346132D+00 0.52799951D-02 0.32023844D+05 0.32023844D+05 0.32023844D+05 0.12119339D+01  1  2 15  1  6  1       -2 0.704218981126D-03 0.100000000000D+01
-.902751731921D-05 0.000000000000D+00 -.537245435475D-05 0.300206282471D-06 0.000000000000D+00  6 -2 21 25 -24 -1 21 4 0.32269351D+00 0.52799951D-02 0.32023844D+05 0.32023844D+05 0.32023844D+05 0.12119339D+01  1  2  5  1  6  1       -2 -.109203313489D-02 0.100000000000D+01
0.110547460825D-04 0.000000000000D+00 0.448103763824D-05 0.300206282471D-06 0.000000000000D+00  6 -2 21 25 -24 -1 21 4 0.17346132D+00 0.52799951D-02 0.32023844D+05 0.32023844D+05 0.32023844D+05 0.12119339D+01  1  2  6  1  6  1       -2 0.104612095023D-01 0.100000000000D+01
-.311652012208D-06 0.000000000000D+00 -.363455512704D-06 0.300206282471D-06 0.000000000000D+00  6 21 21 25 -24 2 -1 4 0.32269351D+00 0.52799951D-02 0.32023844D+05 0.32023844D+05 0.32023844D+05 0.12119339D+01  3  4  5  4  5  1       -2 -.423376170475D-03 0.100000000000D+01
  </mgrwgt>
  </event>
  <event>
  5     66 0.35998833E-03 0.47416778E+02 0.75467711E-02 0.11702039E+00
       -2 -1    0    0    0  501 0.00000000E+00 0.00000000E+00 0.27054804E+03 0.27054823E+03 0.32000000E+00 0.0000E+00 0.9000E+01
       21 -1    0    0  501  502 0.00000000E+00 0.00000000E+00 -.15259685E+03 0.15259869E+03 0.75000000E+00 0.0000E+00 0.9000E+01
       25  1    1    2    0    0 0.12822683E+03 0.19240207E+02 0.16263410E+03 0.24266675E+03 0.12500000E+03 0.0000E+00 0.9000E+01
      -24  1    1    2    0    0 -.86903021E+02 -.42491937E+02 -.21215914E+02 0.12757363E+03 0.80419002E+02 0.0000E+00 0.9000E+01
       -1  1    1    2    0  502 -.41323806E+02 0.23251730E+02 -.23466984E+02 0.52906537E+02 0.32000000E+00 0.0000E+00 0.9000E+01
#aMCatNLO 1  0  0  2  5 0.17823900D+01 0.00000000D+00  -5  6  0 0.00000000D+00 0.00000000D+00 0.00000000D+00 0.00000000D+00 0.00000000D+00
  <mgrwgt>
 0.3022923492D-01   31    4    0
 0.203187617008286D+03 0.000000000000000D+00 0.000000000000000D+00 0.203187617008286D+03
 0.203187617008286D+03 0.000000000000000D+00 0.000000000000000D+00 -.203187617008286D+03
 0.205477386110926D+03 0.128227106107598D+03 0.192400501525802D+02 0.989120110622335D+02
 0.138996571644582D+03 -.869028321077407D+02 -.424920432558242D+02 -.591198359789316D+02
 0.619012762610654D+02 -.413242739998571D+02 0.232519931032441D+02 -.397921750833019D+02
 0.000000000000000D+00 0.000000000000000D+00 0.000000000000000D+00 -.000000000000000D+00
 0.203937689083285D+03 0.000000000000000D+00 0.000000000000000D+00 0.203937689083285D+03
 0.204251207218716D+03 0.000000000000000D+00 0.000000000000000D+00 -.204251207218716D+03
 0.205331363276912D+03 0.128124326755541D+03 0.183450185668762D+02 0.989120110622335D+02
 0.139226549140899D+03 -.869724401482806D+02 -.430982097051688D+02 -.591198359789316D+02
 0.618212304229519D+02 -.413552278660802D+02 0.229824381059134D+02 -.397921750833019D+02
 0.180975346123803D+01 0.203341258819793D+00 0.177075303237919D+01 -.313518135431654D+00
 0.203187617008286D+03 0.000000000000000D+00 0.000000000000000D+00 0.203187617008286D+03
 0.203187617008286D+03 0.000000000000000D+00 0.000000000000000D+00 -.203187617008286D+03
 0.205477386110926D+03 0.128227106107598D+03 0.192400501525802D+02 0.989120110622335D+02
 0.138996571644582D+03 -.869028321077407D+02 -.424920432558242D+02 -.591198359789316D+02
 0.000000000000000D+00 0.000000000000000D+00 0.000000000000000D+00 -.000000000000000D+00
 0.619012762610654D+02 -.413242739998571D+02 0.232519931032441D+02 -.397921750833019D+02
 0.203937689083285D+03 0.000000000000000D+00 0.000000000000000D+00 0.203937689083285D+03
 0.204251207218716D+03 0.000000000000000D+00 0.000000000000000D+00 -.204251207218716D+03
 0.205331363276912D+03 0.128124326755541D+03 0.183450185668762D+02 0.989120110622335D+02
 0.139226549140899D+03 -.869724401482806D+02 -.430982097051688D+02 -.591198359789316D+02
 0.180975346123803D+01 0.203341258819793D+00 0.177075303237919D+01 -.313518135431654D+00
 0.618212304229519D+02 -.413552278660802D+02 0.229824381059134D+02 -.397921750833019D+02
0.275849706474D-05 0.000000000000D+00 0.000000000000D+00 0.293023837931D-06 0.000000000000D+00  6 -2 21 25 -24 -1 21 2 0.41622932D-01 0.23476594D-01 0.31208328D+05 0.31208328D+05 0.31208328D+05 0.12131026D+01  1  2  2  2  6  2       21 0.309411447831D-02 0.100000000000D+01
0.389375295782D-07 0.145569889413D-06 -.556861081549D-08 0.293023837931D-06 0.000000000000D+00  6 -2 21 25 -24 -1 21 4 0.41622932D-01 0.23476594D-01 0.31208328D+05 0.31208328D+05 0.31208328D+05 0.12131026D+01  1  2  3  2  6  2       21 0.642728172089D-04 0.100000000000D+01
0.276395339834D-06 0.000000000000D+00 0.000000000000D+00 0.293023837931D-06 0.000000000000D+00  6 -2 21 25 -24 -1 21 4 0.41622932D-01 0.23476594D-01 0.31208328D+05 0.31208328D+05 0.31208328D+05 0.12131026D+01  1  2 15  2  6  2       21 0.456236113256D-03 0.100000000000D+01
-.116738798034D-04 0.000000000000D+00 0.000000000000D+00 0.293023837931D-06 0.000000000000D+00  6 -2 21 25 -24 -1 21 4 0.41622932D-01 0.23476594D-01 0.31208328D+05 0.31208328D+05 0.31208328D+05 0.12131026D+01  1  2  4  2  6  2       21 -.192696647900D-01 0.100000000000D+01
-.101791711329D-02 0.000000000000D+00 -.104692716416D-03 0.293023837931D-06 0.000000000000D+00  6 -2 21 25 -24 -1 21 4 0.41622932D-01 0.23681881D-01 0.31208328D+05 0.31208328D+05 0.31208328D+05 0.12131026D+01  1  2  5  2  6  2       21 -.165276468708D+01 0.100000000000D+01
0.101867277278D-02 0.000000000000D+00 0.104676846724D-03 0.293023837931D-06 0.000000000000D+00  6 -2 21 25 -24 -1 21 4 0.41622932D-01 0.23476594D-01 0.31208328D+05 0.31208328D+05 0.31208328D+05 0.12131026D+01  1  2  6  2  6  2       21 0.168148749111D+01 0.100000000000D+01
0.115023823742D-04 0.000000000000D+00 0.000000000000D+00 0.293023837931D-06 0.982581856325D-06  6 -2 21 25 -24 -1 21 4 0.41776584D-01 0.23599483D-01 0.31520962D+05 0.31520962D+05 0.31520962D+05 0.12126506D+01  1  2 11  2  6  2       21 0.186380205945D-01 0.100000000000D+01
0.746375272454D-10 0.000000000000D+00 0.000000000000D+00 0.292805514659D-06 0.000000000000D+00  6 -2 -1 25 -24 -1 -1 4 0.41622932D-01 0.23642622D-01 0.31520962D+05 0.31520962D+05 0.31520962D+05 0.12126506D+01  1  2 12  5  6  2       21 0.998330317202D-08 0.100000000000D+01
-.179411548586D-05 0.000000000000D+00 -.205200358111D-06 0.293023837931D-06 0.000000000000D+00  6 -2 -1 25 -24 -1 -1 4 0.41622932D-01 0.23681881D-01 0.31208328D+05 0.31208328D+05 0.31208328D+05 0.12131026D+01  1  2  5  5  6  2       21 -.239648249223D-03 0.100000000000D+01
0.225755264105D-06 0.000000000000D+00 0.000000000000D+00 0.293023837931D-06 0.866390088568D-09  6 -2 -1 25 -24 -1 -1 4 0.41776584D-01 0.23599483D-01 0.31520962D+05 0.31520962D+05 0.31520962D+05 0.12126506D+01  1  2 11  5  6  2       21 0.300739060589D-04 0.100000000000D+01
0.746375272454D-10 0.000000000000D+00 0.000000000000D+00 0.292805514659D-06 0.000000000000D+00  6 -2 1 25 -24 1 -1 4 0.41622932D-01 0.23642622D-01 0.31520962D+05 0.31520962D+05 0.31520962D+05 0.12126506D+01  3  4 12  6  5  2       21 0.159300439911D-07 0.100000000000D+01
-.179411548586D-05 0.000000000000D+00 -.205200358111D-06 0.293023837931D-06 0.000000000000D+00  6 -2 1 25 -24 1 -1 4 0.41622932D-01 0.23681881D-01 0.31208328D+05 0.31208328D+05 0.31208328D+05 0.12131026D+01  3  4  5  6  5  2       21 -.382638382447D-03 0.100000000000D+01
0.889402913134D-06 0.000000000000D+00 0.000000000000D+00 0.293023837931D-06 0.718806105590D-07  6 -2 1 25 -24 1 -1 4 0.41776584D-01 0.23599483D-01 0.31520962D+05 0.31520962D+05 0.31520962D+05 0.12126506D+01  3  4 11  6  5  2       21 0.188927852436D-03 0.100000000000D+01
0.746375272454D-10 0.000000000000D+00 0.000000000000D+00 0.292805514659D-06 0.000000000000D+00  6 -2 -2 25 -24 -1 -2 4 0.41622932D-01 0.23642622D-01 0.31520962D+05 0.31520962D+05 0.31520962D+05 0.12126506D+01  1  2 12  7  6  2       21 0.899437809124D-08 0.100000000000D+01
-.179411548586D-05 0.000000000000D+00 -.205200358111D-06 0.293023837931D-06 0.000000000000D+00  6 -2 -2 25 -24 -1 -2 4 0.41622932D-01 0.23681881D-01 0.31208328D+05 0.31208328D+05 0.31208328D+05 0.12131026D+01  1  2  5  7  6  2       21 -.215871380673D-03 0.100000000000D+01
0.172933242762D-06 0.000000000000D+00 0.000000000000D+00 0.293023837931D-06 0.207757281301D-08  6 -2 -2 25 -24 -1 -2 4 0.41776584D-01 0.23599483D-01 0.31520962D+05 0.31520962D+05 0.31520962D+05 0.12126506D+01  1  2 11  7  6  2       21 0.207589481642D-04 0.100000000000D+01
0.746375272454D-10 0.000000000000D+00 0.000000000000D+00 0.292805514659D-06 0.000000000000D+00  6 -2 2 25 -24 2 -1 4 0.41622932D-01 0.23642622D-01 0.31520962D+05 0.31520962D+05 0.31520962D+05 0.12126506D+01  3  4 12  8  5  2       21 0.201766104338D-07 0.100000000000D+01
-.179411548586D-05 0.000000000000D+00 -.205200358111D-06 0.293023837931D-06 0.000000000000D+00  6 -2 2 25 -24 2 -1 4 0.41622932D-01 0.23681881D-01 0.31208328D+05 0.31208328D+05 0.31208328D+05 0.12131026D+01  3  4  5  8  5  2       21 -.484753838533D-03 0.100000000000D+01
0.227764129692D-06 0.000000000000D+00 0.000000000000D+00 0.293023837931D-06 0.171779197336D-08  6 -2 2 25 -24 2 -1 4 0.41776584D-01 0.23599483D-01 0.31520962D+05 0.31520962D+05 0.31520962D+05 0.12126506D+01  3  4 11  8  5  2       21 0.612625073007D-04 0.100000000000D+01
0.746375272454D-10 0.000000000000D+00 0.000000000000D+00 0.292805514659D-06 0.000000000000D+00  6 -2 -3 25 -24 -1 -3 4 0.41622932D-01 0.23642622D-01 0.31520962D+05 0.31520962D+05 0.31520962D+05 0.12126506D+01  1  2 12  9  6  2       21 0.586302465243D-08 0.100000000000D+01
0.746375272454D-10 0.000000000000D+00 0.000000000000D+00 0.292805514659D-06 0.000000000000D+00  6 -2 -4 25 -24 -1 -4 4 0.41622932D-01 0.23642622D-01 0.31520962D+05 0.31520962D+05 0.31520962D+05 0.12126506D+01  1  2 12  9  6  2       21 0.498948934635D-08 0.100000000000D+01
-.179411548586D-05 0.000000000000D+00 -.205200358111D-06 0.293023837931D-06 0.000000000000D+00  6 -2 -3 25 -24 -1 -3 4 0.41622932D-01 0.23681881D-01 0.31208328D+05 0.31208328D+05 0.31208328D+05 0.12131026D+01  1  2  5  9  6  2       21 -.140672267946D-03 0.100000000000D+01
-.179411548586D-05 0.000000000000D+00 -.205200358111D-06 0.293023837931D-06 0.000000000000D+00  6 -2 -4 25 -24 -1 -4 4 0.41622932D-01 0.23681881D-01 0.31208328D+05 0.31208328D+05 0.31208328D+05 0.12131026D+01  1  2  5  9  6  2       21 -.119693632938D-03 0.100000000000D+01
0.227767225542D-06 0.000000000000D+00 0.000000000000D+00 0.293023837931D-06 0.171781532218D-08  6 -2 -3 25 -24 -1 -3 4 0.41776584D-01 0.23599483D-01 0.31520962D+05 0.31520962D+05 0.31520962D+05 0.12126506D+01  1  2 11  9  6  2       21 0.178245515463D-04 0.100000000000D+01
0.227767225542D-06 0.000000000000D+00 0.000000000000D+00 0.293023837931D-06 0.171781532218D-08  6 -2 -4 25 -24 -1 -4 4 0.41776584D-01 0.23599483D-01 0.31520962D+05 0.31520962D+05 0.31520962D+05 0.12126506D+01  1  2 11  9  6  2       21 0.151699401040D-04 0.100000000000D+01
0.746375272454D-10 0.000000000000D+00 0.000000000000D+00 0.292805514659D-06 0.000000000000D+00  6 -2 3 25 -24 3 -1 4 0.41622932D-01 0.23642622D-01 0.31520962D+05 0.31520962D+05 0.31520962D+05 0.12126506D+01  3  4 12 10  5  2       21 0.586271998987D-08 0.100000000000D+01
0.746375272454D-10 0.000000000000D+00 0.000000000000D+00 0.292805514659D-06 0.000000000000D+00  6 -2 4 25 -24 4 -1 4 0.41622932D-01 0.23642622D-01 0.31520962D+05 0.31520962D+05 0.31520962D+05 0.12126506D+01  3  4 12 10  5  2       21 0.498948934635D-08 0.100000000000D+01
-.179411548586D-05 0.000000000000D+00 -.205200358111D-06 0.293023837931D-06 0.000000000000D+00  6 -2 3 25 -24 3 -1 4 0.41622932D-01 0.23681881D-01 0.31208328D+05 0.31208328D+05 0.31208328D+05 0.12131026D+01  3  4  5 10  5  2       21 -.140664993002D-03 0.100000000000D+01
-.179411548586D-05 0.000000000000D+00 -.205200358111D-06 0.293023837931D-06 0.000000000000D+00  6 -2 4 25 -24 4 -1 4 0.41622932D-01 0.23681881D-01 0.31208328D+05 0.31208328D+05 0.31208328D+05 0.12131026D+01  3  4  5 10  5  2       21 -.119693632938D-03 0.100000000000D+01
0.227767225542D-06 0.000000000000D+00 0.000000000000D+00 0.293023837931D-06 0.171781532218D-08  6 -2 3 25 -24 3 -1 4 0.41776584D-01 0.23599483D-01 0.31520962D+05 0.31520962D+05 0.31520962D+05 0.12126506D+01  3  4 11 10  5  2       21 0.178236171893D-04 0.100000000000D+01
0.227767225542D-06 0.000000000000D+00 0.000000000000D+00 0.293023837931D-06 0.171781532218D-08  6 -2 4 25 -24 4 -1 4 0.41776584D-01 0.23599483D-01 0.31520962D+05 0.31520962D+05 0.31520962D+05 0.12126506D+01  3  4 11 10  5  2       21 0.151699401040D-04 0.100000000000D+01
  </mgrwgt>
  </event>
  <event>
  5     66 0.35998833E-03 0.97202525E+02 0.75467711E-02 0.10902424E+00
       -4 -1    0    0    0  501 0.00000000E+00 0.00000000E+00 0.43543867E+03 0.43544143E+03 0.15500000E+01 0.0000E+00 0.9000E+01
       21 -1    0    0  501  502 0.00000000E+00 0.00000000E+00 -.22656553E+03 0.22656677E+03 0.75000000E+00 0.0000E+00 0.9000E+01
       25  1    1    2    0    0 0.49977262E+02 -.19847603E+03 0.17464103E+02 0.24045885E+03 0.12500000E+03 0.0000E+00 0.9000E+01
      -24  1    1    2    0    0 0.50926263E+02 0.18630641E+03 0.23173566E+03 0.31220537E+03 0.80419002E+02 0.0000E+00 0.9000E+01
       -3  1    1    2    0  502 -.10090353E+03 0.12169626E+02 -.40326619E+02 0.10934399E+03 0.50000000E+00 0.0000E+00 0.9000E+01
#aMCatNLO 1  0  0  2  1 0.29802914D+02 0.00000000D+00  -5  6  0 0.00000000D+00 0.00000000D+00 0.00000000D+00 0.00000000D+00 0.00000000D+00
  <mgrwgt>
 0.1220110353D-01   23    4    0
 0.314096667963699D+03 0.000000000000000D+00 0.000000000000000D+00 0.314096667963699D+03
 0.314096667963699D+03 0.000000000000000D+00 0.000000000000000D+00 -.314096667963699D+03
 0.247595694415694D+03 0.499775628057065D+02 -.198476067366107D+03 -.615477196334351D+02
 0.251959476182643D+03 0.509265685400202D+02 0.186306368193892D+03 0.140402220320769D+03
 0.128638165329060D+03 -.100904131345727D+03 0.121696991722159D+02 -.788545006873341D+02
 0.000000000000000D+00 0.000000000000000D+00 0.000000000000000D+00 -.000000000000000D+00
 0.323406319097114D+03 0.000000000000000D+00 0.000000000000000D+00 0.323406319097114D+03
 0.339242739973198D+03 0.000000000000000D+00 0.000000000000000D+00 -.339242739973198D+03
 0.253385915236656D+03 0.421415281899821D+02 -.207401523258762D+03 -.615477196334351D+02
 0.244006672656808D+03 0.431689825615042D+02 0.177470267426065D+03 0.140402220320769D+03
 0.131507309537582D+03 -.104973160840829D+03 0.753496425009544D+01 -.788545006873341D+02
 0.337491616392658D+02 0.196626500893423D+02 0.223962915826018D+02 -.158364208760835D+02
 0.314096667963699D+03 0.000000000000000D+00 0.000000000000000D+00 0.314096667963699D+03
 0.314096667963699D+03 0.000000000000000D+00 0.000000000000000D+00 -.314096667963699D+03
 0.247595694415694D+03 0.499775628057065D+02 -.198476067366107D+03 -.615477196334351D+02
 0.251959476182643D+03 0.509265685400202D+02 0.186306368193892D+03 0.140402220320769D+03
 0.000000000000000D+00 0.000000000000000D+00 0.000000000000000D+00 -.000000000000000D+00
 0.128638165329060D+03 -.100904131345727D+03 0.121696991722159D+02 -.788545006873341D+02
 0.323406319097114D+03 0.000000000000000D+00 0.000000000000000D+00 0.323406319097114D+03
 0.339242739973198D+03 0.000000000000000D+00 0.000000000000000D+00 -.339242739973198D+03
 0.253385915236656D+03 0.421415281899821D+02 -.207401523258762D+03 -.615477196334351D+02
 0.244006672656808D+03 0.431689825615042D+02 0.177470267426065D+03 0.140402220320769D+03
 0.337491616392658D+02 0.196626500893423D+02 0.223962915826018D+02 -.158364208760835D+02
 0.131507309537582D+03 -.104973160840829D+03 0.753496425009544D+01 -.788545006873341D+02
0.189554492807D-04 0.000000000000D+00 0.000000000000D+00 0.822212517380D-07 0.000000000000D+00  6 -4 21 25 -24 -3 21 2 0.66990872D-01 0.34856543D-01 0.75810455D+05 0.75810455D+05 0.75810455D+05 0.11747844D+01  1  2  2  2  6  2       21 0.182491536286D-02 0.100000000000D+01
-.307962363099D-06 0.100030654041D-05 -.382655907907D-07 0.822212517380D-07 0.000000000000D+00  6 -4 21 25 -24 -3 21 4 0.66990872D-01 0.34856543D-01 0.75810455D+05 0.75810455D+05 0.75810455D+05 0.11747844D+01  1  2  3  2  6  2       21 -.409187772843D-04 0.100000000000D+01
0.189113579073D-05 0.000000000000D+00 0.000000000000D+00 0.822212517380D-07 0.000000000000D+00  6 -4 21 25 -24 -3 21 4 0.66990872D-01 0.34856543D-01 0.75810455D+05 0.75810455D+05 0.75810455D+05 0.11747844D+01  1  2 15  2  6  2       21 0.251274095499D-03 0.100000000000D+01
0.665835103027D-04 0.000000000000D+00 0.000000000000D+00 0.816207615568D-07 0.000000000000D+00  6 -4 21 25 -24 -3 21 4 0.66990872D-01 0.38134103D-01 0.84218693D+05 0.84218693D+05 0.84218693D+05 0.11704866D+01  1  2 12  2  6  2       21 0.726961589405D-02 0.100000000000D+01
-.376164299907D-04 0.000000000000D+00 0.000000000000D+00 0.822212517380D-07 0.000000000000D+00  6 -4 21 25 -24 -3 21 4 0.66990872D-01 0.34856543D-01 0.75810455D+05 0.75810455D+05 0.75810455D+05 0.11747844D+01  1  2  4  2  6  2       21 -.499807283440D-02 0.100000000000D+01
-.349996350313D-03 0.000000000000D+00 -.644979636725D-04 0.822212517380D-07 0.000000000000D+00  6 -4 21 25 -24 -3 21 4 0.66990872D-01 0.38625397D-01 0.75810455D+05 0.75810455D+05 0.75810455D+05 0.11747844D+01  1  2  5  2  6  2       21 -.378177729804D-01 0.100000000000D+01
0.348456556537D-03 0.000000000000D+00 0.631582670089D-04 0.822212517380D-07 0.000000000000D+00  6 -4 21 25 -24 -3 21 4 0.66990872D-01 0.34856543D-01 0.75810455D+05 0.75810455D+05 0.75810455D+05 0.11747844D+01  1  2  6  2  6  2       21 0.462992168482D-01 0.100000000000D+01
0.150887994014D-05 0.000000000000D+00 0.000000000000D+00 0.816207615568D-07 0.000000000000D+00  6 -4 -3 25 -24 -3 -3 4 0.66990872D-01 0.38134103D-01 0.84218693D+05 0.84218693D+05 0.84218693D+05 0.11704866D+01  1  2 12  5  6  2       21 0.867396883936D-05 0.100000000000D+01
-.816485303836D-05 0.000000000000D+00 -.169764388513D-05 0.822212517380D-07 0.000000000000D+00  6 -4 -3 25 -24 -3 -3 4 0.66990872D-01 0.38625397D-01 0.75810455D+05 0.75810455D+05 0.75810455D+05 0.11747844D+01  1  2  5  5  6  2       21 -.462818452278D-04 0.100000000000D+01
0.150887994014D-05 0.000000000000D+00 0.000000000000D+00 0.816207615568D-07 0.000000000000D+00  6 -4 3 25 -24 3 -3 4 0.66990872D-01 0.38134103D-01 0.84218693D+05 0.84218693D+05 0.84218693D+05 0.11704866D+01  3  4 12  6  5  2       21 0.867555990509D-05 0.100000000000D+01
-.816485303836D-05 0.000000000000D+00 -.169764388513D-05 0.822212517380D-07 0.000000000000D+00  6 -4 3 25 -24 3 -3 4 0.66990872D-01 0.38625397D-01 0.75810455D+05 0.75810455D+05 0.75810455D+05 0.11747844D+01  3  4  5  6  5  2       21 -.462906842082D-04 0.100000000000D+01
0.150887994014D-05 0.000000000000D+00 0.000000000000D+00 0.816207615568D-07 0.000000000000D+00  6 -4 -4 25 -24 -3 -4 4 0.66990872D-01 0.38134103D-01 0.84218693D+05 0.84218693D+05 0.84218693D+05 0.11704866D+01  1  2 12  7  6  2       21 0.730818769354D-05 0.100000000000D+01
-.816485303836D-05 0.000000000000D+00 -.169764388513D-05 0.822212517380D-07 0.000000000000D+00  6 -4 -4 25 -24 -3 -4 4 0.66990872D-01 0.38625397D-01 0.75810455D+05 0.75810455D+05 0.75810455D+05 0.11747844D+01  1  2  5  7  6  2       21 -.389389283554D-04 0.100000000000D+01
0.150887994014D-05 0.000000000000D+00 0.000000000000D+00 0.816207615568D-07 0.000000000000D+00  6 -4 4 25 -24 4 -3 4 0.66990872D-01 0.38134103D-01 0.84218693D+05 0.84218693D+05 0.84218693D+05 0.11704866D+01  3  4 12  8  5  2       21 0.730818769354D-05 0.100000000000D+01
-.816485303836D-05 0.000000000000D+00 -.169764388513D-05 0.822212517380D-07 0.000000000000D+00  6 -4 4 25 -24 4 -3 4 0.66990872D-01 0.38625397D-01 0.75810455D+05 0.75810455D+05 0.75810455D+05 0.11747844D+01  3  4  5  8  5  2       21 -.389389283554D-04 0.100000000000D+01
0.150887994014D-05 0.000000000000D+00 0.000000000000D+00 0.816207615568D-07 0.000000000000D+00  6 -4 -1 25 -24 -3 -1 4 0.66990872D-01 0.38134103D-01 0.84218693D+05 0.84218693D+05 0.84218693D+05 0.11704866D+01  1  2 12  9  6  2       21 0.156796666267D-04 0.100000000000D+01
0.150887994014D-05 0.000000000000D+00 0.000000000000D+00 0.816207615568D-07 0.000000000000D+00  6 -4 -2 25 -24 -3 -2 4 0.66990872D-01 0.38134103D-01 0.84218693D+05 0.84218693D+05 0.84218693D+05 0.11704866D+01  1  2 12  9  6  2       21 0.133830983078D-04 0.100000000000D+01
-.816485303836D-05 0.000000000000D+00 -.169764388513D-05 0.822212517380D-07 0.000000000000D+00  6 -4 -1 25 -24 -3 -1 4 0.66990872D-01 0.38625397D-01 0.75810455D+05 0.75810455D+05 0.75810455D+05 0.11747844D+01  1  2  5  9  6  2       21 -.840204186688D-04 0.100000000000D+01
-.816485303836D-05 0.000000000000D+00 -.169764388513D-05 0.822212517380D-07 0.000000000000D+00  6 -4 -2 25 -24 -3 -2 4 0.66990872D-01 0.38625397D-01 0.75810455D+05 0.75810455D+05 0.75810455D+05 0.11747844D+01  1  2  5  9  6  2       21 -.715777467994D-04 0.100000000000D+01
0.150887994014D-05 0.000000000000D+00 0.000000000000D+00 0.816207615568D-07 0.000000000000D+00  6 -4 1 25 -24 1 -3 4 0.66990872D-01 0.38134103D-01 0.84218693D+05 0.84218693D+05 0.84218693D+05 0.11704866D+01  3  4 12 10  5  2       21 0.308752904662D-04 0.100000000000D+01
0.150887994014D-05 0.000000000000D+00 0.000000000000D+00 0.816207615568D-07 0.000000000000D+00  6 -4 2 25 -24 2 -3 4 0.66990872D-01 0.38134103D-01 0.84218693D+05 0.84218693D+05 0.84218693D+05 0.11704866D+01  3  4 12 10  5  2       21 0.423550077441D-04 0.100000000000D+01
-.816485303836D-05 0.000000000000D+00 -.169764388513D-05 0.822212517380D-07 0.000000000000D+00  6 -4 1 25 -24 1 -3 4 0.66990872D-01 0.38625397D-01 0.75810455D+05 0.75810455D+05 0.75810455D+05 0.11747844D+01  3  4  5 10  5  2       21 -.166504261362D-03 0.100000000000D+01
-.816485303836D-05 0.000000000000D+00 -.169764388513D-05 0.822212517380D-07 0.000000000000D+00  6 -4 2 25 -24 2 -3 4 0.66990872D-01 0.38625397D-01 0.75810455D+05 0.75810455D+05 0.75810455D+05 0.11747844D+01  3  4  5 10  5  2       21 -.228860234518D-03 0.100000000000D+01
  </mgrwgt>
  </event>
  <event>
  5     66 0.35998833E-03 0.33630337E+02 0.75467711E-02 0.11762665E+00
       -2 -1    0    0    0  501 0.00000000E+00 0.00000000E+00 0.47122787E+03 0.47122798E+03 0.32000000E+00 0.0000E+00 0.9000E+01
       21 -1    0    0  501  502 0.00000000E+00 0.00000000E+00 -.16704265E+03 0.16704433E+03 0.75000000E+00 0.0000E+00 0.9000E+01
       25  1    1    2    0    0 0.63764404E+01 -.64894649E+02 0.39305572E+03 0.41757607E+03 0.12500000E+03 0.0000E+00 0.9000E+01
      -24  1    1    2    0    0 0.24682028E+02 0.51996233E+02 0.24965063E+02 0.10199648E+03 0.80419002E+02 0.0000E+00 0.9000E+01
       -1  1    1    2    0  502 -.31058469E+02 0.12898416E+02 -.11383556E+03 0.11869976E+03 0.32000000E+00 0.0000E+00 0.9000E+01
#aMCatNLO 1  0  0  2  2 0.70305955D+02 0.00000000D+00  -5  6  0 0.00000000D+00 0.00000000D+00 0.00000000D+00 0.00000000D+00 0.00000000D+00
  <mgrwgt>
 0.1814433559D-01   14    4    0
 0.280563222564930D+03 0.000000000000000D+00 0.000000000000000D+00 0.280563222564930D+03
 0.280563222564930D+03 0.000000000000000D+00 0.000000000000000D+00 -.280563222564930D+03
 0.261911655178553D+03 0.637645958959036D+01 -.648946570247929D+02 0.220727749436056D+03
 0.102485841206635D+03 0.246820358759945D+02 0.519962295301934D+02 -.268946261011502D+02
 0.196728948744672D+03 -.310584954655848D+02 0.128984274945995D+02 -.193833123334906D+03
 0.000000000000000D+00 -.000000000000000D+00 -.000000000000000D+00 -.000000000000000D+00
 0.302905360871845D+03 0.000000000000000D+00 0.000000000000000D+00 0.302905360871845D+03
 0.344088149228155D+03 0.000000000000000D+00 0.000000000000000D+00 -.344088149228155D+03
 0.259887335320722D+03 0.328831883359657D+02 -.459824272288916D+02 0.220727749436056D+03
 0.109588456773529D+03 0.354551419819673D+02 0.596827102061481D+02 -.268946261011502D+02
 0.196037969678792D+03 -.111064327809887D+02 0.271339824740086D+02 -.193833123334906D+03
 0.814797483269570D+02 -.572318975369443D+02 -.408342654512651D+02 -.411827883563095D+02
 0.280563222564930D+03 0.000000000000000D+00 0.000000000000000D+00 0.280563222564930D+03
 0.280563222564930D+03 0.000000000000000D+00 0.000000000000000D+00 -.280563222564930D+03
 0.261911655178553D+03 0.637645958959036D+01 -.648946570247929D+02 0.220727749436056D+03
 0.102485841206635D+03 0.246820358759945D+02 0.519962295301934D+02 -.268946261011502D+02
 0.000000000000000D+00 -.000000000000000D+00 -.000000000000000D+00 -.000000000000000D+00
 0.196728948744672D+03 -.310584954655848D+02 0.128984274945995D+02 -.193833123334906D+03
 0.302905360871845D+03 0.000000000000000D+00 0.000000000000000D+00 0.302905360871845D+03
 0.344088149228155D+03 0.000000000000000D+00 0.000000000000000D+00 -.344088149228155D+03
 0.259887335320722D+03 0.328831883359657D+02 -.459824272288916D+02 0.220727749436056D+03
 0.109588456773529D+03 0.354551419819673D+02 0.596827102061481D+02 -.268946261011502D+02
 0.814797483269570D+02 -.572318975369443D+02 -.408342654512651D+02 -.411827883563095D+02
 0.196037969678792D+03 -.111064327809887D+02 0.271339824740086D+02 -.193833123334906D+03
0.218800227058D-04 0.000000000000D+00 0.000000000000D+00 0.280138590225D-05 0.000000000000D+00  6 -2 21 25 -24 -1 21 2 0.72496733D-01 0.25699006D-01 0.18701941D+05 0.18701941D+05 0.18701941D+05 0.12370474D+01  1  2  2  2  6  2       21 0.703755203299D-02 0.100000000000D+01
0.398341199110D-05 0.115464052014D-05 -.441694619290D-07 0.280138590225D-05 0.000000000000D+00  6 -2 21 25 -24 -1 21 4 0.72496733D-01 0.25699006D-01 0.18701941D+05 0.18701941D+05 0.18701941D+05 0.12370474D+01  1  2  3  2  6  2       21 0.196065769303D-02 0.100000000000D+01
0.182275128085D-05 0.000000000000D+00 0.000000000000D+00 0.280138590225D-05 0.000000000000D+00  6 -2 21 25 -24 -1 21 4 0.72496733D-01 0.25699006D-01 0.18701941D+05 0.18701941D+05 0.18701941D+05 0.12370474D+01  1  2 15  2  6  2       21 0.897168389630D-03 0.100000000000D+01
-.101525584282D-04 0.000000000000D+00 0.000000000000D+00 0.280138590225D-05 0.000000000000D+00  6 -2 21 25 -24 -1 21 4 0.72496733D-01 0.25699006D-01 0.18701941D+05 0.18701941D+05 0.18701941D+05 0.12370474D+01  1  2  4  2  6  2       21 -.499714612262D-02 0.100000000000D+01
-.811735008462D-04 0.000000000000D+00 -.347313754195D-04 0.280138590225D-05 0.000000000000D+00  6 -2 21 25 -24 -1 21 4 0.72496733D-01 0.33767429D-01 0.18701941D+05 0.18701941D+05 0.18701941D+05 0.12370474D+01  1  2  5  2  6  2       21 -.236009390377D-01 0.100000000000D+01
0.773129623701D-04 0.000000000000D+00 0.300532094923D-04 0.280138590225D-05 0.000000000000D+00  6 -2 21 25 -24 -1 21 4 0.72496733D-01 0.25699006D-01 0.18701941D+05 0.18701941D+05 0.18701941D+05 0.12370474D+01  1  2  6  2  6  2       21 0.380538731070D-01 0.100000000000D+01
-.568296383710D-05 0.000000000000D+00 -.291236264957D-05 0.280138590225D-05 0.000000000000D+00  6 -2 -1 25 -24 -1 -1 4 0.72496733D-01 0.33767429D-01 0.18701941D+05 0.18701941D+05 0.18701941D+05 0.12370474D+01  1  2  5  5  6  2       21 -.147079308469D-03 0.100000000000D+01
-.568296383710D-05 0.000000000000D+00 -.291236264957D-05 0.280138590225D-05 0.000000000000D+00  6 -2 1 25 -24 1 -1 4 0.72496733D-01 0.33767429D-01 0.18701941D+05 0.18701941D+05 0.18701941D+05 0.12370474D+01  3  4  5  6  5  2       21 -.272653989729D-03 0.100000000000D+01
-.568296383710D-05 0.000000000000D+00 -.291236264957D-05 0.280138590225D-05 0.000000000000D+00  6 -2 -2 25 -24 -1 -2 4 0.72496733D-01 0.33767429D-01 0.18701941D+05 0.18701941D+05 0.18701941D+05 0.12370474D+01  1  2  5  7  6  2       21 -.127178745697D-03 0.100000000000D+01
-.568296383710D-05 0.000000000000D+00 -.291236264957D-05 0.280138590225D-05 0.000000000000D+00  6 -2 2 25 -24 2 -1 4 0.72496733D-01 0.33767429D-01 0.18701941D+05 0.18701941D+05 0.18701941D+05 0.12370474D+01  3  4  5  8  5  2       21 -.365019678046D-03 0.100000000000D+01
-.568296383710D-05 0.000000000000D+00 -.291236264957D-05 0.280138590225D-05 0.000000000000D+00  6 -2 -3 25 -24 -1 -3 4 0.72496733D-01 0.33767429D-01 0.18701941D+05 0.18701941D+05 0.18701941D+05 0.12370474D+01  1  2  5  9  6  2       21 -.803850551897D-04 0.100000000000D+01
-.568296383710D-05 0.000000000000D+00 -.291236264957D-05 0.280138590225D-05 0.000000000000D+00  6 -2 -4 25 -24 -1 -4 4 0.72496733D-01 0.33767429D-01 0.18701941D+05 0.18701941D+05 0.18701941D+05 0.12370474D+01  1  2  5  9  6  2       21 -.670611890295D-04 0.100000000000D+01
-.568296383710D-05 0.000000000000D+00 -.291236264957D-05 0.280138590225D-05 0.000000000000D+00  6 -2 3 25 -24 3 -1 4 0.72496733D-01 0.33767429D-01 0.18701941D+05 0.18701941D+05 0.18701941D+05 0.12370474D+01  3  4  5 10  5  2       21 -.803913125757D-04 0.100000000000D+01
-.568296383710D-05 0.000000000000D+00 -.291236264957D-05 0.280138590225D-05 0.000000000000D+00  6 -2 4 25 -24 4 -1 4 0.72496733D-01 0.33767429D-01 0.18701941D+05 0.18701941D+05 0.18701941D+05 0.12370474D+01  3  4  5 10  5  2       21 -.670611890295D-04 0.100000000000D+01
  </mgrwgt>
  </event>
  <event>
  6     66 -.35998833E-03 0.14254453E+02 0.75467711E-02 0.11893555E+00
       -4 -1    0    0    0  501 0.00000000E+00 0.00000000E+00 0.19625165E+03 0.19625777E+03 0.15500000E+01 0.0000E+00 0.9000E+01
       21 -1    0    0  501  502 -.00000000E+00 -.00000000E+00 -.28846773E+03 0.28846870E+03 0.75000000E+00 0.0000E+00 0.9000E+01
       25  1    1    2    0    0 0.33446298E+02 -.82627155E+02 0.92929900E+02 0.17946272E+03 0.12500000E+03 0.0000E+00 0.9000E+01
      -24  1    1    2    0    0 -.29075038E+02 0.10852631E+03 -.28010883E+02 0.14097923E+03 0.80419002E+02 0.0000E+00 0.9000E+01
       -3  1    1    2    0  503 0.82758609E+00 -.18734152E+02 -.15357042E+03 0.15471192E+03 0.50000000E+00 0.0000E+00 0.9000E+01
       21  1    1    2  503  502 -.51988463E+01 -.71650072E+01 -.35646675E+01 0.95726007E+01 0.75000000E+00 0.0000E+00 0.9000E+01
#aMCatNLO 2  0  0  5  2 0.84487200D+01 0.00000000D+00  -5  6  0 0.00000000D+00 0.00000000D+00 0.00000000D+00 0.00000000D+00 0.00000000D+00
  <mgrwgt>
 -.1197060790D-01    1    2    0
 0.237936940758965D+03 0.000000000000000D+00 0.000000000000000D+00 0.237936940758965D+03
 0.237936940758965D+03 -.000000000000000D+00 -.000000000000000D+00 -.237936940758965D+03
 0.202242589418054D+03 0.335317738596426D+02 -.821207206791295D+02 0.131942685858239D+03
 0.138430281637807D+03 -.290163778384965D+02 0.108873865719669D+03 0.508035767490256D+00
 0.135201010462068D+03 -.451539602114613D+01 -.267531450405398D+02 -.132450721625729D+03
 0.000000000000000D+00 -.000000000000000D+00 0.000000000000000D+00 0.000000000000000D+00
 0.237936940758965D+03 0.000000000000000D+00 0.000000000000000D+00 0.237936940758965D+03
 0.237936940758965D+03 -.000000000000000D+00 -.000000000000000D+00 -.237936940758965D+03
 0.200801843835219D+03 0.334458419844224D+02 -.826298560707112D+02 0.129422034550962D+03
 0.138172508616866D+03 -.290753514763802D+02 0.108524454443121D+03 -.122184592129535D+01
 0.127821997882158D+03 0.862487361149219D+00 -.186877330457555D+02 -.126445592614962D+03
 0.907753118368585D+01 -.523297786919136D+01 -.720686532665379D+01 -.175459601470476D+01
-.250090164333D-04 0.000000000000D+00 0.000000000000D+00 0.291676551702D-05 0.000000000000D+00  6 -4 21 25 -24 -3 21 4 0.30193108D-01 0.44380196D-01 0.25414061D+05 0.25414061D+05 0.25414061D+05 0.12225335D+01  1  2  8  3  6  5       -3 -.119706079029D-01 0.100000000000D+01
  </mgrwgt>
  </event>
  <event>
  5     66 -.35998833E-03 0.34680074E+02 0.75467711E-02 0.11610746E+00
       -2 -1    0    0    0  501 0.00000000E+00 0.00000000E+00 0.57770368E+03 0.57770377E+03 0.32000000E+00 0.0000E+00 0.9000E+01
       21 -1    0    0  501  502 0.00000000E+00 0.00000000E+00 -.41812198E+02 0.41818924E+02 0.75000000E+00 0.0000E+00 0.9000E+01
       25  1    1    2    0    0 -.35986695E+02 0.40660256E+01 0.30014252E+03 0.32714233E+03 0.12500000E+03 0.0000E+00 0.9000E+01
      -24  1    1    2    0    0 0.37063566E+02 0.30597097E+02 0.23981145E+03 0.25746192E+03 0.80419002E+02 0.0000E+00 0.9000E+01
       -1  1    1    2    0  502 -.10768709E+01 -.34663123E+02 -.40624841E+01 0.34918447E+02 0.32000000E+00 0.0000E+00 0.9000E+01
#aMCatNLO 1  0  0  2  2 0.11027148D+03 0.00000000D+00  -5  6  0 0.00000000D+00 0.00000000D+00 0.00000000D+00 0.00000000D+00 0.00000000D+00
  <mgrwgt>
 -.3399693906D-01   12    4    0
 0.155425775612148D+03 0.000000000000000D+00 0.000000000000000D+00 0.155425775612148D+03
 0.155425775612148D+03 0.000000000000000D+00 0.000000000000000D+00 -.155425775612148D+03
 0.134560375818632D+03 -.359866909848185D+02 0.406615658158332D+01 0.342040813802783D+02
 0.996958693133200D+02 0.370635689802990D+02 0.305971943282224D+02 0.340903792506283D+02
 0.765953060923444D+02 -.107687799548047D+01 -.346633509098057D+02 -.682944606309066D+02
 0.000000000000000D+00 0.000000000000000D+00 0.000000000000000D+00 -.000000000000000D+00
 0.164899600361516D+03 0.000000000000000D+00 0.000000000000000D+00 0.164899600361516D+03
 0.995648232525380D+03 0.000000000000000D+00 0.000000000000000D+00 -.995648232525380D+03
 0.147583729309330D+03 -.663509423894181D+02 -.241576161451602D+02 0.342040813802783D+02
 0.896853433378567D+02 0.166824281103160D+02 0.116527889430461D+02 0.340903792506283D+02
 0.873003454012261D+02 -.187152715526110D+02 -.510583545075529D+02 -.682944606309066D+02
 0.835978414838484D+03 0.683837858317131D+02 0.635631817096670D+02 -.830748632163864D+03
 0.155425775612148D+03 0.000000000000000D+00 0.000000000000000D+00 0.155425775612148D+03
 0.155425775612148D+03 0.000000000000000D+00 0.000000000000000D+00 -.155425775612148D+03
 0.134560375818632D+03 -.359866909848185D+02 0.406615658158332D+01 0.342040813802783D+02
 0.996958693133200D+02 0.370635689802990D+02 0.305971943282224D+02 0.340903792506283D+02
 0.000000000000000D+00 0.000000000000000D+00 0.000000000000000D+00 -.000000000000000D+00
 0.765953060923444D+02 -.107687799548047D+01 -.346633509098057D+02 -.682944606309066D+02
 0.164899600361516D+03 0.000000000000000D+00 0.000000000000000D+00 0.164899600361516D+03
 0.995648232525380D+03 0.000000000000000D+00 0.000000000000000D+00 -.995648232525380D+03
 0.147583729309330D+03 -.663509423894181D+02 -.241576161451602D+02 0.342040813802783D+02
 0.896853433378567D+02 0.166824281103160D+02 0.116527889430461D+02 0.340903792506283D+02
 0.835978414838484D+03 0.683837858317131D+02 0.635631817096670D+02 -.830748632163864D+03
 0.873003454012261D+02 -.187152715526110D+02 -.510583545075529D+02 -.682944606309066D+02
0.683309094282D-06 0.000000000000D+00 0.000000000000D+00 0.185373452322D-05 0.000000000000D+00  6 -2 21 25 -24 -1 21 2 0.88878014D-01 0.64331700D-02 0.16706457D+05 0.16706457D+05 0.16706457D+05 0.12425231D+01  1  2  2  2  6  2       21 0.169023130166D-02 0.100000000000D+01
0.473519096006D-07 0.360592115762D-07 -.137940419128D-08 0.185373452322D-05 0.000000000000D+00  6 -2 21 25 -24 -1 21 4 0.88878014D-01 0.64331700D-02 0.16706457D+05 0.16706457D+05 0.16706457D+05 0.12425231D+01  1  2  3  2  6  2       21 0.180832040015D-03 0.100000000000D+01
0.626497583825D-07 0.000000000000D+00 0.000000000000D+00 0.185373452322D-05 0.000000000000D+00  6 -2 21 25 -24 -1 21 4 0.88878014D-01 0.64331700D-02 0.16706457D+05 0.16706457D+05 0.16706457D+05 0.12425231D+01  1  2 15  2  6  2       21 0.239252940596D-03 0.100000000000D+01
-.223257313758D-03 0.000000000000D+00 -.898591407692D-05 0.185373452322D-05 0.000000000000D+00  6 -2 21 25 -24 -1 21 4 0.88878014D-01 0.42619664D-01 0.16706457D+05 0.16706457D+05 0.16706457D+05 0.12425231D+01  1  2  5  2  6  2       21 -.267219108147D-01 0.100000000000D+01
-.954088053117D-04 0.000000000000D+00 -.383854937458D-05 0.185373452322D-05 0.000000000000D+00  6 -2 -1 25 -24 -1 -1 4 0.88878014D-01 0.42619664D-01 0.16706457D+05 0.16706457D+05 0.16706457D+05 0.12425231D+01  1  2  5  5  6  2       21 -.107480796315D-02 0.100000000000D+01
-.954088053117D-04 0.000000000000D+00 -.383854937458D-05 0.185373452322D-05 0.000000000000D+00  6 -2 1 25 -24 1 -1 4 0.88878014D-01 0.42619664D-01 0.16706457D+05 0.16706457D+05 0.16706457D+05 0.12425231D+01  3  4  5  6  5  2       21 -.223886780415D-02 0.100000000000D+01
-.954088053117D-04 0.000000000000D+00 -.383854937458D-05 0.185373452322D-05 0.000000000000D+00  6 -2 -2 25 -24 -1 -2 4 0.88878014D-01 0.42619664D-01 0.16706457D+05 0.16706457D+05 0.16706457D+05 0.12425231D+01  1  2  5  7  6  2       21 -.900159059273D-03 0.100000000000D+01
-.954088053117D-04 0.000000000000D+00 -.383854937458D-05 0.185373452322D-05 0.000000000000D+00  6 -2 2 25 -24 2 -1 4 0.88878014D-01 0.42619664D-01 0.16706457D+05 0.16706457D+05 0.16706457D+05 0.12425231D+01  3  4  5  8  5  2       21 -.311771454709D-02 0.100000000000D+01
-.954088053117D-04 0.000000000000D+00 -.383854937458D-05 0.185373452322D-05 0.000000000000D+00  6 -2 -3 25 -24 -1 -3 4 0.88878014D-01 0.42619664D-01 0.16706457D+05 0.16706457D+05 0.16706457D+05 0.12425231D+01  1  2  5  9  6  2       21 -.562589189564D-03 0.100000000000D+01
-.954088053117D-04 0.000000000000D+00 -.383854937458D-05 0.185373452322D-05 0.000000000000D+00  6 -2 -4 25 -24 -1 -4 4 0.88878014D-01 0.42619664D-01 0.16706457D+05 0.16706457D+05 0.16706457D+05 0.12425231D+01  1  2  5  9  6  2       21 -.464240002259D-03 0.100000000000D+01
-.954088053117D-04 0.000000000000D+00 -.383854937458D-05 0.185373452322D-05 0.000000000000D+00  6 -2 3 25 -24 3 -1 4 0.88878014D-01 0.42619664D-01 0.16706457D+05 0.16706457D+05 0.16706457D+05 0.12425231D+01  3  4  5 10  5  2       21 -.562725961907D-03 0.100000000000D+01
-.954088053117D-04 0.000000000000D+00 -.383854937458D-05 0.185373452322D-05 0.000000000000D+00  6 -2 4 25 -24 4 -1 4 0.88878014D-01 0.42619664D-01 0.16706457D+05 0.16706457D+05 0.16706457D+05 0.12425231D+01  3  4  5 10  5  2       21 -.464240002259D-03 0.100000000000D+01
  </mgrwgt>
  </event>
  <event>
  5     66 0.35998833E-03 0.72583883E+02 0.75467711E-02 0.11896571E+00
       -2 -1    0    0    0  501 0.00000000E+00 0.00000000E+00 0.27919411E+03 0.27919429E+03 0.32000000E+00 0.0000E+00 0.9000E+01
       21 -1    0    0  501  502 0.00000000E+00 0.00000000E+00 -.10539740E+03 0.10540007E+03 0.75000000E+00 0.0000E+00 0.9000E+01
       25  1    1    2    0    0 -.50299265E+02 -.16539308E+02 0.87879246E+02 0.16171372E+03 0.12500000E+03 0.0000E+00 0.9000E+01
      -24  1    1    2    0    0 0.45092542E+01 -.51099531E+02 -.11129752E+02 0.96034279E+02 0.80419002E+02 0.0000E+00 0.9000E+01
       -1  1    1    2    0  502 0.45790011E+02 0.67638839E+02 0.97047214E+02 0.12684637E+03 0.32000000E+00 0.0000E+00 0.9000E+01
#aMCatNLO 1  0  0  2  1 0.55413304D+01 0.00000000D+00  -5  6  0 0.00000000D+00 0.00000000D+00 0.00000000D+00 0.00000000D+00 0.00000000D+00
  <mgrwgt>
 0.2175798386D-01   41    4    0
 0.171542656649943D+03 0.000000000000000D+00 0.000000000000000D+00 0.171542656649943D+03
 0.171542656649943D+03 0.000000000000000D+00 0.000000000000000D+00 -.171542656649943D+03
 0.136762127706586D+03 -.502993728936843D+02 -.165394670879169D+02 0.165921273434821D+02
 0.113291333171592D+03 0.450916473583570D+01 -.510996633760241D+02 -.611244799868953D+02
 0.930318524217079D+02 0.457902081578486D+02 0.676391304639409D+02 0.445323526434132D+02
 0.000000000000000D+00 0.000000000000000D+00 0.000000000000000D+00 -.000000000000000D+00
 0.172932589388052D+03 0.000000000000000D+00 0.000000000000000D+00 0.172932589388052D+03
 0.177178378908903D+03 0.000000000000000D+00 0.000000000000000D+00 -.177178378908903D+03
 0.137634880059046D+03 -.524215203422198D+02 -.171768950656342D+02 0.165921273434821D+02
 0.113473784233349D+03 0.275539555578415D+01 -.516264418251817D+02 -.611244799868953D+02
 0.920213963909213D+02 0.443590326395415D+02 0.672092492523302D+02 0.445323526434132D+02
 0.698090761363918D+01 0.530709214689412D+01 0.159408763848576D+01 -.424578952085088D+01
 0.171542656649943D+03 0.000000000000000D+00 0.000000000000000D+00 0.171542656649943D+03
 0.171542656649943D+03 0.000000000000000D+00 0.000000000000000D+00 -.171542656649943D+03
 0.136762127706586D+03 -.502993728936843D+02 -.165394670879169D+02 0.165921273434821D+02
 0.113291333171592D+03 0.450916473583570D+01 -.510996633760241D+02 -.611244799868953D+02
 0.000000000000000D+00 0.000000000000000D+00 0.000000000000000D+00 -.000000000000000D+00
 0.930318524217079D+02 0.457902081578486D+02 0.676391304639409D+02 0.445323526434132D+02
 0.172932589388052D+03 0.000000000000000D+00 0.000000000000000D+00 0.172932589388052D+03
 0.177178378908903D+03 0.000000000000000D+00 0.000000000000000D+00 -.177178378908903D+03
 0.137634880059046D+03 -.524215203422198D+02 -.171768950656342D+02 0.165921273434821D+02
 0.113473784233349D+03 0.275539555578415D+01 -.516264418251817D+02 -.611244799868953D+02
 0.698090761363918D+01 0.530709214689412D+01 0.159408763848576D+01 -.424578952085088D+01
 0.920213963909213D+02 0.443590326395415D+02 0.672092492523302D+02 0.445323526434132D+02
0.120096543688D-05 0.000000000000D+00 0.000000000000D+00 0.187148320724D-06 0.000000000000D+00  6 -2 21 25 -24 -1 21 2 0.42953160D-01 0.16215205D-01 0.24464119D+05 0.24464119D+05 0.24464119D+05 0.12243078D+01  1  2  2  2  6  2       21 0.257026295611D-02 0.100000000000D+01
-.128687003950D-06 0.633766872806D-07 -.242440320359D-08 0.187148320724D-06 0.000000000000D+00  6 -2 21 25 -24 -1 21 4 0.42953160D-01 0.16215205D-01 0.24464119D+05 0.24464119D+05 0.24464119D+05 0.12243078D+01  1  2  3  2  6  2       21 -.412822160668D-03 0.100000000000D+01
0.133553458147D-06 0.000000000000D+00 0.000000000000D+00 0.187148320724D-06 0.000000000000D+00  6 -2 21 25 -24 -1 21 4 0.42953160D-01 0.16215205D-01 0.24464119D+05 0.24464119D+05 0.24464119D+05 0.12243078D+01  1  2 15  2  6  2       21 0.428433528366D-03 0.100000000000D+01
0.264086926824D-05 0.000000000000D+00 0.000000000000D+00 0.186653586508D-06 0.000000000000D+00  6 -2 21 25 -24 -1 21 4 0.42953160D-01 0.16812236D-01 0.25329455D+05 0.25329455D+05 0.25329455D+05 0.12226885D+01  1  2 12  2  6  2       21 0.788961294959D-02 0.100000000000D+01
0.225631550024D-05 0.000000000000D+00 0.000000000000D+00 0.186653586508D-06 0.000000000000D+00  6 -2 21 25 -24 -1 21 4 0.42953160D-01 0.16910614D-01 0.25329455D+05 0.25329455D+05 0.25329455D+05 0.12226885D+01  1  2 12  2  6  2       21 0.666916953932D-02 0.100000000000D+01
-.110264350440D-04 0.000000000000D+00 0.000000000000D+00 0.187148320724D-06 0.000000000000D+00  6 -2 21 25 -24 -1 21 4 0.42953160D-01 0.16215205D-01 0.24464119D+05 0.24464119D+05 0.24464119D+05 0.12243078D+01  1  2  4  2  6  2       21 -.353723111085D-01 0.100000000000D+01
-.826855526059D-04 0.000000000000D+00 -.102400733897D-04 0.187148320724D-06 0.000000000000D+00  6 -2 21 25 -24 -1 21 4 0.42953160D-01 0.16873067D-01 0.24464119D+05 0.24464119D+05 0.24464119D+05 0.12243078D+01  1  2  5  2  6  2       21 -.246670252206D+00 0.100000000000D+01
0.828282880126D-04 0.000000000000D+00 0.102077544456D-04 0.187148320724D-06 0.000000000000D+00  6 -2 21 25 -24 -1 21 4 0.42953160D-01 0.16215205D-01 0.24464119D+05 0.24464119D+05 0.24464119D+05 0.12243078D+01  1  2  6  2  6  2       21 0.265709448292D+00 0.100000000000D+01
0.730584435226D-05 0.000000000000D+00 0.000000000000D+00 0.187148320724D-06 0.138982797724D-06  6 -2 21 25 -24 -1 21 4 0.43301190D-01 0.16747926D-01 0.25329455D+05 0.25329455D+05 0.25329455D+05 0.12226885D+01  1  2 11  2  6  2       21 0.216408261935D-01 0.100000000000D+01
0.744652259160D-07 0.000000000000D+00 0.000000000000D+00 0.186653586508D-06 0.000000000000D+00  6 -2 -1 25 -24 -1 -1 4 0.42953160D-01 0.16812236D-01 0.25329455D+05 0.25329455D+05 0.25329455D+05 0.12226885D+01  1  2 12  5  6  2       21 0.167432934047D-04 0.100000000000D+01
0.745031213777D-07 0.000000000000D+00 0.000000000000D+00 0.186653586508D-06 0.000000000000D+00  6 -2 -1 25 -24 -1 -1 4 0.42953160D-01 0.16910614D-01 0.25329455D+05 0.25329455D+05 0.25329455D+05 0.12226885D+01  1  2 12  5  6  2       21 0.165973437169D-04 0.100000000000D+01
-.686982482249D-06 0.000000000000D+00 -.959094903076D-07 0.187148320724D-06 0.000000000000D+00  6 -2 -1 25 -24 -1 -1 4 0.42953160D-01 0.16873067D-01 0.24464119D+05 0.24464119D+05 0.24464119D+05 0.12243078D+01  1  2  5  5  6  2       21 -.154286372840D-03 0.100000000000D+01
0.894040426408D-07 0.000000000000D+00 0.000000000000D+00 0.187148320724D-06 0.403339221365D-09  6 -2 -1 25 -24 -1 -1 4 0.43301190D-01 0.16747926D-01 0.25329455D+05 0.25329455D+05 0.25329455D+05 0.12226885D+01  1  2 11  5  6  2       21 0.199129819011D-04 0.100000000000D+01
0.744652259160D-07 0.000000000000D+00 0.000000000000D+00 0.186653586508D-06 0.000000000000D+00  6 -2 1 25 -24 1 -1 4 0.42953160D-01 0.16812236D-01 0.25329455D+05 0.25329455D+05 0.25329455D+05 0.12226885D+01  3  4 12  6  5  2       21 0.238374726411D-04 0.100000000000D+01
0.745031213777D-07 0.000000000000D+00 0.000000000000D+00 0.186653586508D-06 0.000000000000D+00  6 -2 1 25 -24 1 -1 4 0.42953160D-01 0.16910614D-01 0.25329455D+05 0.25329455D+05 0.25329455D+05 0.12226885D+01  3  4 12  6  5  2       21 0.236706522391D-04 0.100000000000D+01
-.686982482249D-06 0.000000000000D+00 -.959094903076D-07 0.187148320724D-06 0.000000000000D+00  6 -2 1 25 -24 1 -1 4 0.42953160D-01 0.16873067D-01 0.24464119D+05 0.24464119D+05 0.24464119D+05 0.12243078D+01  3  4  5  6  5  2       21 -.219901160854D-03 0.100000000000D+01
0.243178342036D-06 0.000000000000D+00 0.000000000000D+00 0.187148320724D-06 0.434705208419D-08  6 -2 1 25 -24 1 -1 4 0.43301190D-01 0.16747926D-01 0.25329455D+05 0.25329455D+05 0.25329455D+05 0.12226885D+01  3  4 11  6  5  2       21 0.770248500185D-04 0.100000000000D+01
0.744652259160D-07 0.000000000000D+00 0.000000000000D+00 0.186653586508D-06 0.000000000000D+00  6 -2 -2 25 -24 -1 -2 4 0.42953160D-01 0.16812236D-01 0.25329455D+05 0.25329455D+05 0.25329455D+05 0.12226885D+01  1  2 12  7  6  2       21 0.155298873262D-04 0.100000000000D+01
0.745031213777D-07 0.000000000000D+00 0.000000000000D+00 0.186653586508D-06 0.000000000000D+00  6 -2 -2 25 -24 -1 -2 4 0.42953160D-01 0.16910614D-01 0.25329455D+05 0.25329455D+05 0.25329455D+05 0.12226885D+01  1  2 12  7  6  2       21 0.153878684436D-04 0.100000000000D+01
-.686982482249D-06 0.000000000000D+00 -.959094903076D-07 0.187148320724D-06 0.000000000000D+00  6 -2 -2 25 -24 -1 -2 4 0.42953160D-01 0.16873067D-01 0.24464119D+05 0.24464119D+05 0.24464119D+05 0.12243078D+01  1  2  5  7  6  2       21 -.143062626741D-03 0.100000000000D+01
0.975568601392D-07 0.000000000000D+00 0.000000000000D+00 0.187148320724D-06 0.987212661355D-09  6 -2 -2 25 -24 -1 -2 4 0.43301190D-01 0.16747926D-01 0.25329455D+05 0.25329455D+05 0.25329455D+05 0.12226885D+01  1  2 11  7  6  2       21 0.201598379847D-04 0.100000000000D+01
0.744652259160D-07 0.000000000000D+00 0.000000000000D+00 0.186653586508D-06 0.000000000000D+00  6 -2 2 25 -24 2 -1 4 0.42953160D-01 0.16812236D-01 0.25329455D+05 0.25329455D+05 0.25329455D+05 0.12226885D+01  3  4 12  8  5  2       21 0.287672633834D-04 0.100000000000D+01
0.745031213777D-07 0.000000000000D+00 0.000000000000D+00 0.186653586508D-06 0.000000000000D+00  6 -2 2 25 -24 2 -1 4 0.42953160D-01 0.16910614D-01 0.25329455D+05 0.25329455D+05 0.25329455D+05 0.12226885D+01  3  4 12  8  5  2       21 0.285878160768D-04 0.100000000000D+01
-.686982482249D-06 0.000000000000D+00 -.959094903076D-07 0.187148320724D-06 0.000000000000D+00  6 -2 2 25 -24 2 -1 4 0.42953160D-01 0.16873067D-01 0.24464119D+05 0.24464119D+05 0.24464119D+05 0.12243078D+01  3  4  5  8  5  2       21 -.265495842736D-03 0.100000000000D+01
0.884753951645D-07 0.000000000000D+00 0.000000000000D+00 0.187148320724D-06 0.796042853527D-09  6 -2 2 25 -24 2 -1 4 0.43301190D-01 0.16747926D-01 0.25329455D+05 0.25329455D+05 0.25329455D+05 0.12226885D+01  3  4 11  8  5  2       21 0.338025090227D-04 0.100000000000D+01
0.744652259160D-07 0.000000000000D+00 0.000000000000D+00 0.186653586508D-06 0.000000000000D+00  6 -2 -3 25 -24 -1 -3 4 0.42953160D-01 0.16812236D-01 0.25329455D+05 0.25329455D+05 0.25329455D+05 0.12226885D+01  1  2 12  9  6  2       21 0.103149191389D-04 0.100000000000D+01
0.744652259160D-07 0.000000000000D+00 0.000000000000D+00 0.186653586508D-06 0.000000000000D+00  6 -2 -4 25 -24 -1 -4 4 0.42953160D-01 0.16812236D-01 0.25329455D+05 0.25329455D+05 0.25329455D+05 0.12226885D+01  1  2 12  9  6  2       21 0.887223384832D-05 0.100000000000D+01
0.745031213777D-07 0.000000000000D+00 0.000000000000D+00 0.186653586508D-06 0.000000000000D+00  6 -2 -3 25 -24 -1 -3 4 0.42953160D-01 0.16910614D-01 0.25329455D+05 0.25329455D+05 0.25329455D+05 0.12226885D+01  1  2 12  9  6  2       21 0.102161923372D-04 0.100000000000D+01
0.745031213777D-07 0.000000000000D+00 0.000000000000D+00 0.186653586508D-06 0.000000000000D+00  6 -2 -4 25 -24 -1 -4 4 0.42953160D-01 0.16910614D-01 0.25329455D+05 0.25329455D+05 0.25329455D+05 0.12226885D+01  1  2 12  9  6  2       21 0.878544085865D-05 0.100000000000D+01
-.686982482249D-06 0.000000000000D+00 -.959094903076D-07 0.187148320724D-06 0.000000000000D+00  6 -2 -3 25 -24 -1 -3 4 0.42953160D-01 0.16873067D-01 0.24464119D+05 0.24464119D+05 0.24464119D+05 0.12243078D+01  1  2  5  9  6  2       21 -.949223079573D-04 0.100000000000D+01
-.686982482249D-06 0.000000000000D+00 -.959094903076D-07 0.187148320724D-06 0.000000000000D+00  6 -2 -4 25 -24 -1 -4 4 0.42953160D-01 0.16873067D-01 0.24464119D+05 0.24464119D+05 0.24464119D+05 0.12243078D+01  1  2  5  9  6  2       21 -.816053115354D-04 0.100000000000D+01
0.881180448577D-07 0.000000000000D+00 0.000000000000D+00 0.187148320724D-06 0.792827652765D-09  6 -2 -3 25 -24 -1 -3 4 0.43301190D-01 0.16747926D-01 0.25329455D+05 0.25329455D+05 0.25329455D+05 0.12226885D+01  1  2 11  9  6  2       21 0.120980277738D-04 0.100000000000D+01
0.881180448577D-07 0.000000000000D+00 0.000000000000D+00 0.187148320724D-06 0.792827652765D-09  6 -2 -4 25 -24 -1 -4 4 0.43301190D-01 0.16747926D-01 0.25329455D+05 0.25329455D+05 0.25329455D+05 0.12226885D+01  1  2 11  9  6  2       21 0.104074066973D-04 0.100000000000D+01
0.744652259160D-07 0.000000000000D+00 0.000000000000D+00 0.186653586508D-06 0.000000000000D+00  6 -2 3 25 -24 3 -1 4 0.42953160D-01 0.16812236D-01 0.25329455D+05 0.25329455D+05 0.25329455D+05 0.12226885D+01  3  4 12 10  5  2       21 0.103137797323D-04 0.100000000000D+01
0.744652259160D-07 0.000000000000D+00 0.000000000000D+00 0.186653586508D-06 0.000000000000D+00  6 -2 4 25 -24 4 -1 4 0.42953160D-01 0.16812236D-01 0.25329455D+05 0.25329455D+05 0.25329455D+05 0.12226885D+01  3  4 12 10  5  2       21 0.887223384832D-05 0.100000000000D+01
0.745031213777D-07 0.000000000000D+00 0.000000000000D+00 0.186653586508D-06 0.000000000000D+00  6 -2 3 25 -24 3 -1 4 0.42953160D-01 0.16910614D-01 0.25329455D+05 0.25329455D+05 0.25329455D+05 0.12226885D+01  3  4 12 10  5  2       21 0.102150691401D-04 0.100000000000D+01
0.745031213777D-07 0.000000000000D+00 0.000000000000D+00 0.186653586508D-06 0.000000000000D+00  6 -2 4 25 -24 4 -1 4 0.42953160D-01 0.16910614D-01 0.25329455D+05 0.25329455D+05 0.25329455D+05 0.12226885D+01  3  4 12 10  5  2       21 0.878544085865D-05 0.100000000000D+01
-.686982482249D-06 0.000000000000D+00 -.959094903076D-07 0.187148320724D-06 0.000000000000D+00  6 -2 3 25 -24 3 -1 4 0.42953160D-01 0.16873067D-01 0.24464119D+05 0.24464119D+05 0.24464119D+05 0.12243078D+01  3  4  5 10  5  2       21 -.949118016927D-04 0.100000000000D+01
-.686982482249D-06 0.000000000000D+00 -.959094903076D-07 0.187148320724D-06 0.000000000000D+00  6 -2 4 25 -24 4 -1 4 0.42953160D-01 0.16873067D-01 0.24464119D+05 0.24464119D+05 0.24464119D+05 0.12243078D+01  3  4  5 10  5  2       21 -.816053115354D-04 0.100000000000D+01
0.881180448577D-07 0.000000000000D+00 0.000000000000D+00 0.187148320724D-06 0.792827652765D-09  6 -2 3 25 -24 3 -1 4 0.43301190D-01 0.16747926D-01 0.25329455D+05 0.25329455D+05 0.25329455D+05 0.12226885D+01  3  4 11 10  5  2       21 0.120966873499D-04 0.100000000000D+01
0.881180448577D-07 0.000000000000D+00 0.000000000000D+00 0.187148320724D-06 0.792827652765D-09  6 -2 4 25 -24 4 -1 4 0.43301190D-01 0.16747926D-01 0.25329455D+05 0.25329455D+05 0.25329455D+05 0.12226885D+01  3  4 11 10  5  2       21 0.104074066973D-04 0.100000000000D+01
  </mgrwgt>
  </event>
  <event>
  5     66 0.35998833E-03 0.32518845E+02 0.75467711E-02 0.10983809E+00
       -2 -1    0    0    0  501 0.00000000E+00 0.00000000E+00 0.16338826E+03 0.16338857E+03 0.32000000E+00 0.0000E+00 0.9000E+01
       21 -1    0    0  501  502 0.00000000E+00 0.00000000E+00 -.20605008E+03 0.20605144E+03 0.75000000E+00 0.0000E+00 0.9000E+01
       25  1    1    2    0    0 -.11124496E+03 0.75154620E+01 -.20474308E+02 0.16874869E+03 0.12500000E+03 0.0000E+00 0.9000E+01
      -24  1    1    2    0    0 0.86889435E+02 -.29062222E+02 -.71717850E+02 0.14143922E+03 0.80419002E+02 0.0000E+00 0.9000E+01
       -1  1    1    2    0  502 0.24355525E+02 0.21546760E+02 0.49530338E+02 0.59252100E+02 0.32000000E+00 0.0000E+00 0.9000E+01
#aMCatNLO 1  0  0  1  2 0.12543489D+03 0.00000000D+00  -5  6  0 0.00000000D+00 0.00000000D+00 0.00000000D+00 0.00000000D+00 0.00000000D+00
  <mgrwgt>
 0.5974351389D-02    5    4    0
 0.183484256873060D+03 0.000000000000000D+00 0.000000000000000D+00 0.183484256873060D+03
 0.183484256873060D+03 0.000000000000000D+00 0.000000000000000D+00 -.183484256873060D+03
 0.167505046710417D+03 -.111245093767444D+03 0.751534425694867D+01 -.994679260442201D+00
 0.134054314715010D+03 0.868893290015815D+02 -.290623161926653D+02 -.557581350343856D+02
 0.654091523206943D+02 0.243557647658623D+02 0.215469719357167D+02 0.567528142948278D+02
 0.000000000000000D+00 0.000000000000000D+00 -.000000000000000D+00 0.000000000000000D+00
 0.389791710710614D+03 0.000000000000000D+00 0.000000000000000D+00 0.389791710710614D+03
 0.250268595401482D+03 0.000000000000000D+00 0.000000000000000D+00 -.250268595401482D+03
 0.228104619314583D+03 -.175464479876718D+03 0.749529470228647D+02 -.994679260442201D+00
 0.109427776461576D+03 0.473648386596934D+02 0.124428591241165D+02 -.557581350343856D+02
 0.724886450723407D+02 0.197079125552809D+01 0.450537203332611D+02 0.567528142948278D+02
 0.230039265263597D+03 0.126128849961497D+03 -.132449526480242D+03 0.139523115309132D+03
 0.183484256873060D+03 0.000000000000000D+00 0.000000000000000D+00 0.183484256873060D+03
 0.183484256873060D+03 0.000000000000000D+00 0.000000000000000D+00 -.183484256873060D+03
 0.167505046710417D+03 -.111245093767444D+03 0.751534425694867D+01 -.994679260442201D+00
 0.134054314715010D+03 0.868893290015815D+02 -.290623161926653D+02 -.557581350343856D+02
 0.000000000000000D+00 0.000000000000000D+00 -.000000000000000D+00 0.000000000000000D+00
 0.654091523206943D+02 0.243557647658623D+02 0.215469719357167D+02 0.567528142948278D+02
 0.389791710710614D+03 0.000000000000000D+00 0.000000000000000D+00 0.389791710710614D+03
 0.250268595401482D+03 0.000000000000000D+00 0.000000000000000D+00 -.250268595401482D+03
 0.228104619314583D+03 -.175464479876718D+03 0.749529470228647D+02 -.994679260442201D+00
 0.109427776461576D+03 0.473648386596934D+02 0.124428591241165D+02 -.557581350343856D+02
 0.230039265263597D+03 0.126128849961497D+03 -.132449526480242D+03 0.139523115309132D+03
 0.724886450723407D+02 0.197079125552809D+01 0.450537203332611D+02 0.567528142948278D+02
0.385785350072D-05 0.000000000000D+00 0.000000000000D+00 0.132989129945D-06 0.000000000000D+00  6 -2 21 25 -24 -1 21 2 0.25136784D-01 0.31700141D-01 0.25909580D+05 0.25909580D+05 0.25909580D+05 0.12216372D+01  1  2  2  1  6  1       -2 0.621390999229D-02 0.100000000000D+01
-.372506284655D-06 0.203584522402D-06 -.778789472110D-08 0.132989129945D-06 0.000000000000D+00  6 -2 21 25 -24 -1 21 4 0.25136784D-01 0.31700141D-01 0.25909580D+05 0.25909580D+05 0.25909580D+05 0.12216372D+01  1  2  3  1  6  1       -2 -.895441666958D-03 0.100000000000D+01
0.363696932629D-06 0.000000000000D+00 0.000000000000D+00 0.132989129945D-06 0.000000000000D+00  6 -2 21 25 -24 -1 21 4 0.25136784D-01 0.31700141D-01 0.25909580D+05 0.25909580D+05 0.25909580D+05 0.12216372D+01  1  2 15  1  6  1       -2 0.874265485004D-03 0.100000000000D+01
-.122447555355D-05 0.000000000000D+00 -.332968314301D-05 0.132989129945D-06 0.000000000000D+00  6 -2 21 25 -24 -1 21 4 0.69724195D-01 0.31700141D-01 0.25909580D+05 0.25909580D+05 0.25909580D+05 0.12216372D+01  1  2  5  1  6  1       -2 -.413351330651D-03 0.100000000000D+01
0.479628324762D-07 0.000000000000D+00 -.380813057649D-06 0.132989129945D-06 0.000000000000D+00  6 21 21 25 -24 2 -1 4 0.69724195D-01 0.31700141D-01 0.25909580D+05 0.25909580D+05 0.25909580D+05 0.12216372D+01  3  4  5  4  5  1       -2 0.194968909169D-03 0.100000000000D+01
  </mgrwgt>
  </event>
  <event>
  5     66 0.35998833E-03 0.35191597E+02 0.75467711E-02 0.97700393E-01
       -4 -1    0    0    0  501 0.00000000E+00 0.00000000E+00 0.72475169E+03 0.72475334E+03 0.15500000E+01 0.0000E+00 0.9000E+01
       21 -1    0    0  501  502 0.00000000E+00 0.00000000E+00 -.60122334E+02 0.60127012E+02 0.75000000E+00 0.0000E+00 0.9000E+01
       25  1    1    2    0    0 0.22741199E+02 0.72115879E+02 0.33337136E+03 0.36397710E+03 0.12500000E+03 0.0000E+00 0.9000E+01
      -24  1    1    2    0    0 -.46601942E+02 -.97982781E+02 0.35407629E+03 0.37895857E+03 0.80419002E+02 0.0000E+00 0.9000E+01
       -3  1    1    2    0  502 0.23860742E+02 0.25866902E+02 -.22818300E+02 0.41944683E+02 0.50000000E+00 0.0000E+00 0.9000E+01
#aMCatNLO 1  0  0  2  1 0.53403568D+01 0.00000000D+00  -5  6  0 0.00000000D+00 0.00000000D+00 0.00000000D+00 0.00000000D+00 0.00000000D+00
  <mgrwgt>
 0.1885032038D-01    3    2    0
 0.208749249272945D+03 0.000000000000000D+00 0.000000000000000D+00 0.208749249272945D+03
 0.208749249272945D+03 0.000000000000000D+00 0.000000000000000D+00 -.208749249272945D+03
 0.153557695186605D+03 0.227411167673572D+02 0.721157894329166D+02 0.472982058186453D+02
 0.148761599017786D+03 -.466020217883964D+02 -.979828676507013D+02 0.623731240209833D+02
 0.115179204341498D+03 0.238609050210392D+02 0.258670782177846D+02 -.109671329839629D+03
 0.000000000000000D+00 -.000000000000000D+00 0.000000000000000D+00 0.000000000000000D+00
 0.906936550999790D+03 0.000000000000000D+00 0.000000000000000D+00 0.906936550999790D+03
 0.561801767393964D+03 0.000000000000000D+00 0.000000000000000D+00 -.561801767393964D+03
 0.270315743415871D+03 0.234800142034280D+03 -.879625860772286D+01 0.472982058186453D+02
 0.255433540406178D+03 0.155612175842087D+03 -.175138578673057D+03 0.623731240209833D+02
 0.227407080945179D+03 0.195252898742640D+03 -.395282861734626D+02 -.109671329839629D+03
 0.715581953626525D+03 -.585665216619007D+03 0.223463123454242D+03 0.345134783605826D+03
0.363432293071D-04 0.000000000000D+00 0.000000000000D+00 0.180959484523D-05 0.000000000000D+00  6 -4 21 25 -24 -3 21 2 0.11150075D+00 0.92500772D-02 0.25017368D+05 0.25017368D+05 0.25017368D+05 0.12232653D+01  1  2  2  2  6  2       21 0.139649290098D-01 0.100000000000D+01
0.487788619043D-05 0.191788490145D-05 -.733665090226D-07 0.180959484523D-05 0.000000000000D+00  6 -4 21 25 -24 -3 21 4 0.11150075D+00 0.92500772D-02 0.25017368D+05 0.25017368D+05 0.25017368D+05 0.12232653D+01  1  2  3  2  6  2       21 0.280471152808D-02 0.100000000000D+01
0.361866786931D-05 0.000000000000D+00 0.000000000000D+00 0.180959484523D-05 0.000000000000D+00  6 -4 21 25 -24 -3 21 4 0.11150075D+00 0.92500772D-02 0.25017368D+05 0.25017368D+05 0.25017368D+05 0.12232653D+01  1  2 15  2  6  2       21 0.208067984638D-02 0.100000000000D+01
  </mgrwgt>
  </event>
  <event>
  5     66 0.35998833E-03 0.22651584E+02 0.75467711E-02 0.11461446E+00
       -2 -1    0    0    0  501 0.00000000E+00 0.00000000E+00 0.38973944E+03 0.38973957E+03 0.32000000E+00 0.0000E+00 0.9000E+01
       21 -1    0    0  501  502 0.00000000E+00 0.00000000E+00 -.11710482E+03 0.11710722E+03 0.75000000E+00 0.0000E+00 0.9000E+01
       25  1    1    2    0    0 -.25067035E+02 -.50249063E+02 0.21601145E+03 0.25581101E+03 0.12500000E+03 0.0000E+00 0.9000E+01
      -24  1    1    2    0    0 0.15456731E+02 0.70760878E+02 0.13294196E+03 0.17142577E+03 0.80419002E+02 0.0000E+00 0.9000E+01
       -1  1    1    2    0  502 0.96103039E+01 -.20511816E+02 -.76318802E+02 0.79610015E+02 0.32000000E+00 0.0000E+00 0.9000E+01
#aMCatNLO 1  0  0  1  2 0.32341208D+02 0.00000000D+00  -5  6  0 0.00000000D+00 0.00000000D+00 0.00000000D+00 0.00000000D+00 0.00000000D+00
  <mgrwgt>
 0.1776519914D-01    7    4    0
 0.213637565249647D+03 0.000000000000000D+00 0.000000000000000D+00 0.213637565249647D+03
 0.213637565249647D+03 0.000000000000000D+00 0.000000000000000D+00 -.213637565249647D+03
 0.165618862169041D+03 -.250670445431173D+02 -.502490426963793D+02 0.930122814048687D+02
 0.118523256684901D+03 0.154567246299420D+02 0.707608927111633D+02 0.483169964635409D+02
 0.143133011645353D+03 0.961031991317530D+01 -.205118500147840D+02 -.141329277868410D+03
 0.000000000000000D+00 -.000000000000000D+00 -.000000000000000D+00 0.000000000000000D+00
 0.330017775383618D+03 0.000000000000000D+00 0.000000000000000D+00 0.330017775383618D+03
 0.249685104439042D+03 0.000000000000000D+00 0.000000000000000D+00 -.249685104439042D+03
 0.158479417753350D+03 0.986353465393126D+01 -.272424676458129D+02 0.930122814048687D+02
 0.136142651665919D+03 0.429040399398745D+02 0.888387126079453D+02 0.483169964635409D+02
 0.147126752109325D+03 0.408938604119933D+02 0.926500787702054D-01 -.141329277868410D+03
 0.137954058294066D+03 -.936614350057991D+02 -.616888950409026D+02 0.803326709445756D+02
 0.213637565249647D+03 0.000000000000000D+00 0.000000000000000D+00 0.213637565249647D+03
 0.213637565249647D+03 0.000000000000000D+00 0.000000000000000D+00 -.213637565249647D+03
 0.165618862169041D+03 -.250670445431173D+02 -.502490426963793D+02 0.930122814048687D+02
 0.118523256684901D+03 0.154567246299420D+02 0.707608927111633D+02 0.483169964635409D+02
 0.000000000000000D+00 -.000000000000000D+00 -.000000000000000D+00 0.000000000000000D+00
 0.143133011645353D+03 0.961031991317530D+01 -.205118500147840D+02 -.141329277868410D+03
 0.330017775383618D+03 0.000000000000000D+00 0.000000000000000D+00 0.330017775383618D+03
 0.249685104439042D+03 0.000000000000000D+00 0.000000000000000D+00 -.249685104439042D+03
 0.158479417753350D+03 0.986353465393126D+01 -.272424676458129D+02 0.930122814048687D+02
 0.136142651665919D+03 0.429040399398745D+02 0.888387126079453D+02 0.483169964635409D+02
 0.137954058294066D+03 -.936614350057991D+02 -.616888950409026D+02 0.803326709445756D+02
 0.147126752109325D+03 0.408938604119933D+02 0.926500787702054D-01 -.141329277868410D+03
0.148262222323D-04 0.000000000000D+00 0.000000000000D+00 0.921594172631D-05 0.000000000000D+00  6 -2 21 25 -24 -1 21 2 0.59960108D-01 0.18016321D-01 0.17944382D+05 0.17944382D+05 0.17944382D+05 0.12390455D+01  1  2  2  1  6  1       -2 0.138181906028D-01 0.100000000000D+01
0.393349634676D-05 0.782401242461D-06 -.299298710631D-07 0.921594172631D-05 0.000000000000D+00  6 -2 21 25 -24 -1 21 4 0.59960108D-01 0.18016321D-01 0.17944382D+05 0.17944382D+05 0.17944382D+05 0.12390455D+01  1  2  3  1  6  1       -2 0.562825677757D-02 0.100000000000D+01
0.133587118761D-05 0.000000000000D+00 0.000000000000D+00 0.921594172631D-05 0.000000000000D+00  6 -2 21 25 -24 -1 21 4 0.59960108D-01 0.18016321D-01 0.17944382D+05 0.17944382D+05 0.17944382D+05 0.12390455D+01  1  2 15  1  6  1       -2 0.191143588371D-02 0.100000000000D+01
-.194890953127D-04 0.000000000000D+00 0.000000000000D+00 0.921594172631D-05 0.000000000000D+00  6 -2 21 25 -24 -1 21 4 0.59960108D-01 0.18016321D-01 0.17944382D+05 0.17944382D+05 0.17944382D+05 0.12390455D+01  1  2  4  1  6  1       -2 -.278860390637D-01 0.100000000000D+01
-.183868647647D-04 0.000000000000D+00 -.137362401510D-04 0.921594172631D-05 0.000000000000D+00  6 -2 21 25 -24 -1 21 4 0.10402822D+00 0.18016321D-01 0.17944382D+05 0.17944382D+05 0.17944382D+05 0.12390455D+01  1  2  5  1  6  1       -2 -.790217026733D-02 0.100000000000D+01
0.240601384342D-04 0.000000000000D+00 0.118859524939D-04 0.921594172631D-05 0.000000000000D+00  6 -2 21 25 -24 -1 21 4 0.59960108D-01 0.18016321D-01 0.17944382D+05 0.17944382D+05 0.17944382D+05 0.12390455D+01  1  2  6  1  6  1       -2 0.344265318368D-01 0.100000000000D+01
-.434861829231D-06 0.000000000000D+00 -.838081333012D-06 0.921594172631D-05 0.000000000000D+00  6 21 21 25 -24 2 -1 4 0.10402822D+00 0.18016321D-01 0.17944382D+05 0.17944382D+05 0.17944382D+05 0.12390455D+01  3  4  5  4  5  1       -2 -.223100663232D-02 0.100000000000D+01
  </mgrwgt>
  </event>
  <event>
  5     66 0.35998833E-03 0.11469386E+03 0.75467711E-02 0.11387643E+00
       -4 -1    0    0    0  501 0.00000000E+00 0.00000000E+00 0.16541242E+03 0.16541969E+03 0.15500000E+01 0.0000E+00 0.9000E+01
       21 -1    0    0  501  502 0.00000000E+00 0.00000000E+00 -.37728421E+03 0.37728496E+03 0.75000000E+00 0.0000E+00 0.9000E+01
       25  1    1    2    0    0 -.74379074E+02 0.30564195E+02 -.24579941E+03 0.28724339E+03 0.12500000E+03 0.0000E+00 0.9000E+01
      -24  1    1    2    0    0 -.64664820E+02 0.19029479E+02 0.51571975E+01 0.10505938E+03 0.80419002E+02 0.0000E+00 0.9000E+01
       -3  1    1    2    0  502 0.13904389E+03 -.49593674E+02 0.28770422E+02 0.15040188E+03 0.50000000E+00 0.0000E+00 0.9000E+01
#aMCatNLO 1  0  0  2  5 0.25639341D+02 0.00000000D+00  -5  6  0 0.00000000D+00 0.00000000D+00 0.00000000D+00 0.00000000D+00 0.00000000D+00
  <mgrwgt>
 0.3790345489D-02   32    4    0
 0.249819272941698D+03 0.000000000000000D+00 0.000000000000000D+00 0.249819272941698D+03
 0.249819272941698D+03 0.000000000000000D+00 0.000000000000000D+00 -.249819272941698D+03
 0.207771132342798D+03 -.743793083915457D+02 0.305642789707402D+02 -.145180531646645D+03
 0.116301870768310D+03 -.646649517022142D+02 0.190295257545547D+02 0.501520723474628D+02
 0.175565542772288D+03 0.139044260093760D+03 -.495938047252950D+02 0.950284592991825D+02
 0.000000000000000D+00 -.000000000000000D+00 -.000000000000000D+00 -.000000000000000D+00
 0.254273186539935D+03 0.000000000000000D+00 0.000000000000000D+00 0.254273186539935D+03
 0.289986969955591D+03 0.000000000000000D+00 0.000000000000000D+00 -.289986969955591D+03
 0.204957370168823D+03 -.643871873703414D+02 0.340503585862769D+02 -.145180531646645D+03
 0.113643448247858D+03 -.590979955993842D+02 0.209717412410846D+02 0.501520723474628D+02
 0.181695146349229D+03 0.147693510194244D+03 -.465762297378635D+02 0.950284592991825D+02
 0.439641917296157D+02 -.242083272245179D+02 -.844587008949802D+01 -.357137834156562D+02
 0.249819272941698D+03 0.000000000000000D+00 0.000000000000000D+00 0.249819272941698D+03
 0.249819272941698D+03 0.000000000000000D+00 0.000000000000000D+00 -.249819272941698D+03
 0.207771132342798D+03 -.743793083915457D+02 0.305642789707402D+02 -.145180531646645D+03
 0.116301870768310D+03 -.646649517022142D+02 0.190295257545547D+02 0.501520723474628D+02
 0.000000000000000D+00 -.000000000000000D+00 -.000000000000000D+00 -.000000000000000D+00
 0.175565542772288D+03 0.139044260093760D+03 -.495938047252950D+02 0.950284592991825D+02
 0.254273186539935D+03 0.000000000000000D+00 0.000000000000000D+00 0.254273186539935D+03
 0.289986969955591D+03 0.000000000000000D+00 0.000000000000000D+00 -.289986969955591D+03
 0.204957370168823D+03 -.643871873703414D+02 0.340503585862769D+02 -.145180531646645D+03
 0.113643448247858D+03 -.590979955993842D+02 0.209717412410846D+02 0.501520723474628D+02
 0.439641917296157D+02 -.242083272245179D+02 -.844587008949802D+01 -.357137834156562D+02
 0.181695146349229D+03 0.147693510194244D+03 -.465762297378635D+02 0.950284592991825D+02
0.311603831192D-05 0.000000000000D+00 0.000000000000D+00 0.878396412453D-07 0.000000000000D+00  6 -4 21 25 -24 -3 21 2 0.25448681D-01 0.58044341D-01 0.40238110D+05 0.40238110D+05 0.40238110D+05 0.12017386D+01  1  2  2  2  6  2       21 0.763186711434D-03 0.100000000000D+01
-.380870907985D-06 0.164437859395D-06 -.629038358134D-08 0.878396412453D-07 0.000000000000D+00  6 -4 21 25 -24 -3 21 4 0.25448681D-01 0.58044341D-01 0.40238110D+05 0.40238110D+05 0.40238110D+05 0.12017386D+01  1  2  3  2  6  2       21 -.134718063606D-03 0.100000000000D+01
0.343050366054D-06 0.000000000000D+00 0.000000000000D+00 0.878396412453D-07 0.000000000000D+00  6 -4 21 25 -24 -3 21 4 0.25448681D-01 0.58044341D-01 0.40238110D+05 0.40238110D+05 0.40238110D+05 0.12017386D+01  1  2 15  2  6  2       21 0.121340538395D-03 0.100000000000D+01
0.173231166087D-04 0.000000000000D+00 0.000000000000D+00 0.870390725518D-07 0.000000000000D+00  6 -4 21 25 -24 -3 21 4 0.25448681D-01 0.67840347D-01 0.45615102D+05 0.45615102D+05 0.45615102D+05 0.11962498D+01  1  2 12  2  6  2       21 0.429106594920D-02 0.100000000000D+01
0.165063980582D-04 0.000000000000D+00 0.000000000000D+00 0.870390725518D-07 0.000000000000D+00  6 -4 21 25 -24 -3 21 4 0.25448681D-01 0.68300526D-01 0.45615102D+05 0.45615102D+05 0.45615102D+05 0.11962498D+01  1  2 12  2  6  2       21 0.402840086149D-02 0.100000000000D+01
-.279134137707D-04 0.000000000000D+00 0.000000000000D+00 0.878396412453D-07 0.000000000000D+00  6 -4 21 25 -24 -3 21 4 0.25448681D-01 0.58044341D-01 0.40238110D+05 0.40238110D+05 0.40238110D+05 0.12017386D+01  1  2  4  2  6  2       21 -.987326932295D-02 0.100000000000D+01
-.510120013222D-04 0.000000000000D+00 -.701922706719D-05 0.878396412453D-07 0.000000000000D+00  6 -4 21 25 -24 -3 21 4 0.25448681D-01 0.68144647D-01 0.40238110D+05 0.40238110D+05 0.40238110D+05 0.12017386D+01  1  2  5  2  6  2       21 -.127455991361D-01 0.100000000000D+01
0.494973586068D-04 0.000000000000D+00 0.667069458089D-05 0.878396412453D-07 0.000000000000D+00  6 -4 21 25 -24 -3 21 4 0.25448681D-01 0.58044341D-01 0.40238110D+05 0.40238110D+05 0.40238110D+05 0.12017386D+01  1  2  6  2  6  2       21 0.175077386204D-01 0.100000000000D+01
0.738719630728D-06 0.000000000000D+00 0.000000000000D+00 0.870390725518D-07 0.000000000000D+00  6 -4 -3 25 -24 -3 -3 4 0.25448681D-01 0.67840347D-01 0.45615102D+05 0.45615102D+05 0.45615102D+05 0.11962498D+01  1  2 12  5  6  2       21 0.978641398106D-05 0.100000000000D+01
0.740061896109D-06 0.000000000000D+00 0.000000000000D+00 0.870390725518D-07 0.000000000000D+00  6 -4 -3 25 -24 -3 -3 4 0.25448681D-01 0.68300526D-01 0.45615102D+05 0.45615102D+05 0.45615102D+05 0.11962498D+01  1  2 12  5  6  2       21 0.966426338851D-05 0.100000000000D+01
-.205131217563D-05 0.000000000000D+00 -.309487194993D-06 0.878396412453D-07 0.000000000000D+00  6 -4 -3 25 -24 -3 -3 4 0.25448681D-01 0.68144647D-01 0.40238110D+05 0.40238110D+05 0.40238110D+05 0.12017386D+01  1  2  5  5  6  2       21 -.272443501897D-04 0.100000000000D+01
0.738719630728D-06 0.000000000000D+00 0.000000000000D+00 0.870390725518D-07 0.000000000000D+00  6 -4 3 25 -24 3 -3 4 0.25448681D-01 0.67840347D-01 0.45615102D+05 0.45615102D+05 0.45615102D+05 0.11962498D+01  3  4 12  6  5  2       21 0.979531792168D-05 0.100000000000D+01
0.740061896109D-06 0.000000000000D+00 0.000000000000D+00 0.870390725518D-07 0.000000000000D+00  6 -4 3 25 -24 3 -3 4 0.25448681D-01 0.68300526D-01 0.45615102D+05 0.45615102D+05 0.45615102D+05 0.11962498D+01  3  4 12  6  5  2       21 0.967318795939D-05 0.100000000000D+01
-.205131217563D-05 0.000000000000D+00 -.309487194993D-06 0.878396412453D-07 0.000000000000D+00  6 -4 3 25 -24 3 -3 4 0.25448681D-01 0.68144647D-01 0.40238110D+05 0.40238110D+05 0.40238110D+05 0.12017386D+01  3  4  5  6  5  2       21 -.272693285652D-04 0.100000000000D+01
0.738719630728D-06 0.000000000000D+00 0.000000000000D+00 0.870390725518D-07 0.000000000000D+00  6 -4 -4 25 -24 -3 -4 4 0.25448681D-01 0.67840347D-01 0.45615102D+05 0.45615102D+05 0.45615102D+05 0.11962498D+01  1  2 12  7  6  2       21 0.800801305003D-05 0.100000000000D+01
0.740061896109D-06 0.000000000000D+00 0.000000000000D+00 0.870390725518D-07 0.000000000000D+00  6 -4 -4 25 -24 -3 -4 4 0.25448681D-01 0.68300526D-01 0.45615102D+05 0.45615102D+05 0.45615102D+05 0.11962498D+01  1  2 12  7  6  2       21 0.790587479205D-05 0.100000000000D+01
-.205131217563D-05 0.000000000000D+00 -.309487194993D-06 0.878396412453D-07 0.000000000000D+00  6 -4 -4 25 -24 -3 -4 4 0.25448681D-01 0.68144647D-01 0.40238110D+05 0.40238110D+05 0.40238110D+05 0.12017386D+01  1  2  5  7  6  2       21 -.222625809083D-04 0.100000000000D+01
0.738719630728D-06 0.000000000000D+00 0.000000000000D+00 0.870390725518D-07 0.000000000000D+00  6 -4 4 25 -24 4 -3 4 0.25448681D-01 0.67840347D-01 0.45615102D+05 0.45615102D+05 0.45615102D+05 0.11962498D+01  3  4 12  8  5  2       21 0.800801305003D-05 0.100000000000D+01
0.740061896109D-06 0.000000000000D+00 0.000000000000D+00 0.870390725518D-07 0.000000000000D+00  6 -4 4 25 -24 4 -3 4 0.25448681D-01 0.68300526D-01 0.45615102D+05 0.45615102D+05 0.45615102D+05 0.11962498D+01  3  4 12  8  5  2       21 0.790587479205D-05 0.100000000000D+01
-.205131217563D-05 0.000000000000D+00 -.309487194993D-06 0.878396412453D-07 0.000000000000D+00  6 -4 4 25 -24 4 -3 4 0.25448681D-01 0.68144647D-01 0.40238110D+05 0.40238110D+05 0.40238110D+05 0.12017386D+01  3  4  5  8  5  2       21 -.222625809083D-04 0.100000000000D+01
0.738719630728D-06 0.000000000000D+00 0.000000000000D+00 0.870390725518D-07 0.000000000000D+00  6 -4 -1 25 -24 -3 -1 4 0.25448681D-01 0.67840347D-01 0.45615102D+05 0.45615102D+05 0.45615102D+05 0.11962498D+01  1  2 12  9  6  2       21 0.197067123834D-04 0.100000000000D+01
0.738719630728D-06 0.000000000000D+00 0.000000000000D+00 0.870390725518D-07 0.000000000000D+00  6 -4 -2 25 -24 -3 -2 4 0.25448681D-01 0.67840347D-01 0.45615102D+05 0.45615102D+05 0.45615102D+05 0.11962498D+01  1  2 12  9  6  2       21 0.154431923054D-04 0.100000000000D+01
0.740061896109D-06 0.000000000000D+00 0.000000000000D+00 0.870390725518D-07 0.000000000000D+00  6 -4 -1 25 -24 -3 -1 4 0.25448681D-01 0.68300526D-01 0.45615102D+05 0.45615102D+05 0.45615102D+05 0.11962498D+01  1  2 12  9  6  2       21 0.194800266784D-04 0.100000000000D+01
0.740061896109D-06 0.000000000000D+00 0.000000000000D+00 0.870390725518D-07 0.000000000000D+00  6 -4 -2 25 -24 -3 -2 4 0.25448681D-01 0.68300526D-01 0.45615102D+05 0.45615102D+05 0.45615102D+05 0.11962498D+01  1  2 12  9  6  2       21 0.152503127682D-04 0.100000000000D+01
-.205131217563D-05 0.000000000000D+00 -.309487194993D-06 0.878396412453D-07 0.000000000000D+00  6 -4 -1 25 -24 -3 -1 4 0.25448681D-01 0.68144647D-01 0.40238110D+05 0.40238110D+05 0.40238110D+05 0.12017386D+01  1  2  5  9  6  2       21 -.550507396638D-04 0.100000000000D+01
-.205131217563D-05 0.000000000000D+00 -.309487194993D-06 0.878396412453D-07 0.000000000000D+00  6 -4 -2 25 -24 -3 -2 4 0.25448681D-01 0.68144647D-01 0.40238110D+05 0.40238110D+05 0.40238110D+05 0.12017386D+01  1  2  5  9  6  2       21 -.430899984303D-04 0.100000000000D+01
0.738719630728D-06 0.000000000000D+00 0.000000000000D+00 0.870390725518D-07 0.000000000000D+00  6 -4 1 25 -24 1 -3 4 0.25448681D-01 0.67840347D-01 0.45615102D+05 0.45615102D+05 0.45615102D+05 0.11962498D+01  3  4 12 10  5  2       21 0.545490995094D-04 0.100000000000D+01
0.738719630728D-06 0.000000000000D+00 0.000000000000D+00 0.870390725518D-07 0.000000000000D+00  6 -4 2 25 -24 2 -3 4 0.25448681D-01 0.67840347D-01 0.45615102D+05 0.45615102D+05 0.45615102D+05 0.11962498D+01  3  4 12 10  5  2       21 0.831261266472D-04 0.100000000000D+01
0.740061896109D-06 0.000000000000D+00 0.000000000000D+00 0.870390725518D-07 0.000000000000D+00  6 -4 1 25 -24 1 -3 4 0.25448681D-01 0.68300526D-01 0.45615102D+05 0.45615102D+05 0.45615102D+05 0.11962498D+01  3  4 12 10  5  2       21 0.541712511163D-04 0.100000000000D+01
0.740061896109D-06 0.000000000000D+00 0.000000000000D+00 0.870390725518D-07 0.000000000000D+00  6 -4 2 25 -24 2 -3 4 0.25448681D-01 0.68300526D-01 0.45615102D+05 0.45615102D+05 0.45615102D+05 0.11962498D+01  3  4 12 10  5  2       21 0.826619159770D-04 0.100000000000D+01
-.205131217563D-05 0.000000000000D+00 -.309487194993D-06 0.878396412453D-07 0.000000000000D+00  6 -4 1 25 -24 1 -3 4 0.25448681D-01 0.68144647D-01 0.40238110D+05 0.40238110D+05 0.40238110D+05 0.12017386D+01  3  4  5 10  5  2       21 -.152805486189D-03 0.100000000000D+01
-.205131217563D-05 0.000000000000D+00 -.309487194993D-06 0.878396412453D-07 0.000000000000D+00  6 -4 2 25 -24 2 -3 4 0.25448681D-01 0.68144647D-01 0.40238110D+05 0.40238110D+05 0.40238110D+05 0.12017386D+01  3  4  5 10  5  2       21 -.232951200691D-03 0.100000000000D+01
  </mgrwgt>
  </event>
  <event>
  5     66 -.35998833E-03 0.27473071E+02 0.75467711E-02 0.12027167E+00
       -2 -1    0    0    0  501 0.00000000E+00 0.00000000E+00 0.27069762E+03 0.27069781E+03 0.32000000E+00 0.0000E+00 0.9000E+01
       21 -1    0    0  501  502 0.00000000E+00 0.00000000E+00 -.15819674E+03 0.15819851E+03 0.75000000E+00 0.0000E+00 0.9000E+01
       25  1    1    2    0    0 -.53948162E+02 -.44478491E+02 0.74756631E+02 0.16156204E+03 0.12500000E+03 0.0000E+00 0.9000E+01
      -24  1    1    2    0    0 0.69321886E+02 0.67247202E+02 0.12415438E+03 0.17666136E+03 0.80419002E+02 0.0000E+00 0.9000E+01
       -1  1    1    2    0  502 -.15373724E+02 -.22768712E+02 -.86410128E+02 0.90672919E+02 0.32000000E+00 0.0000E+00 0.9000E+01
#aMCatNLO 1  0  0  5  2 0.77838901D+01 0.00000000D+00  -5  6  0 0.00000000D+00 0.00000000D+00 0.00000000D+00 0.00000000D+00 0.00000000D+00
  <mgrwgt>
 -.1205204834D-01    6    2    0
 0.206939368226585D+03 0.000000000000000D+00 0.000000000000000D+00 0.206939368226585D+03
 0.206939368226585D+03 -.000000000000000D+00 -.000000000000000D+00 -.206939368226585D+03
 0.147103926801765D+03 -.539481421285552D+02 -.444784608235633D+02 0.335533867760455D+02
 0.149323870478920D+03 0.693219067526623D+02 0.672472329227536D+02 0.806392289697933D+02
 0.117450939172486D+03 -.153737646241071D+02 -.227687720991903D+02 -.114192615745839D+03
 0.000000000000000D+00 -.000000000000000D+00 0.000000000000000D+00 0.000000000000000D+00
 0.206939368226585D+03 0.000000000000000D+00 0.000000000000000D+00 0.206939368226585D+03
 0.206939368226585D+03 -.000000000000000D+00 -.000000000000000D+00 -.206939368226585D+03
 0.147051702068604D+03 -.540083157027493D+02 -.445675787742225D+02 0.331064319797414D+02
 0.149010436355367D+03 0.692608783724955D+02 0.671568489918442D+02 0.801859248808874D+02
 0.849179190526504D+02 -.361483823774613D+01 -.146084496420471D+02 -.835737944561762D+02
 0.328986789765491D+02 -.116377244320001D+02 -.798082057557460D+01 -.297185624044527D+02
0.302566490900D-05 0.000000000000D+00 0.000000000000D+00 0.317663035691D-05 0.000000000000D+00  6 -2 21 25 -24 -1 21 2 0.41645939D-01 0.24338111D-01 0.21959851D+05 0.21959851D+05 0.21959851D+05 0.12293813D+01  1  2  2  3  6  5       -1 0.326030804953D-02 0.100000000000D+01
0.575044234399D-06 0.159668723898D-06 -.610794571857D-08 0.317663035691D-05 0.000000000000D+00  6 -2 21 25 -24 -1 21 4 0.41645939D-01 0.24338111D-01 0.21959851D+05 0.21959851D+05 0.21959851D+05 0.12293813D+01  1  2  3  3  6  5       -1 0.936509655125D-03 0.100000000000D+01
0.284426564064D-06 0.000000000000D+00 0.000000000000D+00 0.317663035691D-05 0.000000000000D+00  6 -2 21 25 -24 -1 21 4 0.41645939D-01 0.24338111D-01 0.21959851D+05 0.21959851D+05 0.21959851D+05 0.12293813D+01  1  2 15  3  6  5       -1 0.463213449480D-03 0.100000000000D+01
-.192278612539D-04 0.000000000000D+00 0.000000000000D+00 0.317663035691D-05 0.000000000000D+00  6 -2 21 25 -24 -1 21 4 0.41645939D-01 0.24338111D-01 0.21959851D+05 0.21959851D+05 0.21959851D+05 0.12293813D+01  1  2  4  3  6  5       -1 -.313142479038D-01 0.100000000000D+01
-.282569500420D-04 0.000000000000D+00 0.000000000000D+00 0.317663035691D-05 0.000000000000D+00  6 -2 21 25 -24 -1 21 4 0.41645939D-01 0.24338111D-01 0.21959851D+05 0.21959851D+05 0.21959851D+05 0.12293813D+01  1  2  5  3  6  5       -1 -.460189059478D-01 0.100000000000D+01
0.372231072060D-04 0.000000000000D+00 -.000000000000D+00 0.317663035691D-05 0.000000000000D+00  6 -2 21 25 -24 -1 21 4 0.41645939D-01 0.24338111D-01 0.21959851D+05 0.21959851D+05 0.21959851D+05 0.12293813D+01  1  2  6  3  6  5       -1 0.606210743572D-01 0.100000000000D+01
  </mgrwgt>
  </event>
  <event>
  5     66 0.35998833E-03 0.26989405E+02 0.75467711E-02 0.11992882E+00
       -2 -1    0    0    0  501 0.00000000E+00 0.00000000E+00 0.13604520E+04 0.13604521E+04 0.32000000E+00 0.0000E+00 0.9000E+01
       21 -1    0    0  501  502 0.00000000E+00 0.00000000E+00 -.34528082E+02 0.34536227E+02 0.75000000E+00 0.0000E+00 0.9000E+01
       25  1    1    2    0    0 -.62397942E+02 0.35310521E+02 0.10023622E+04 0.10126675E+04 0.12500000E+03 0.0000E+00 0.9000E+01
      -24  1    1    2    0    0 0.51473628E+02 -.10630874E+02 0.33822427E+03 0.35160407E+03 0.80419002E+02 0.0000E+00 0.9000E+01
       -1  1    1    2    0  502 0.10924314E+02 -.24679646E+02 -.14662568E+02 0.30716752E+02 0.32000000E+00 0.0000E+00 0.9000E+01
#aMCatNLO 1  0  0  1  2 0.52280793D+02 0.00000000D+00  -5  6  0 0.00000000D+00 0.00000000D+00 0.00000000D+00 0.00000000D+00 0.00000000D+00
  <mgrwgt>
 0.6168659969D-01    6    4    0
 0.216747564426023D+03 0.000000000000000D+00 0.000000000000000D+00 0.216747564426023D+03
 0.216747564426023D+03 0.000000000000000D+00 0.000000000000000D+00 -.216747564426023D+03
 0.192858480564061D+03 -.623979543975612D+02 0.353105480622643D+02 0.128175871395598D+03
 0.969420496352468D+02 0.514736218938756D+02 -.106308607997800D+02 0.129613302131437D+02
 0.143694598652738D+03 0.109243325036855D+02 -.246796872624842D+02 -.141137201608741D+03
 0.000000000000000D+00 -.000000000000000D+00 0.000000000000000D+00 0.000000000000000D+00
 0.432573793266829D+03 0.000000000000000D+00 0.000000000000000D+00 0.432573793266829D+03
 0.218142527044468D+03 0.000000000000000D+00 0.000000000000000D+00 -.218142527044468D+03
 0.188704842037649D+03 -.532260879561383D+02 0.268783734872216D+02 0.128175871395598D+03
 0.100096594679356D+03 0.562099579681345D+02 -.149852212649361D+02 0.129613302131437D+02
 0.145619040130522D+03 0.178787379651664D+02 -.310732344528356D+02 -.141137201608741D+03
 0.216295843463771D+03 -.208626079771627D+02 0.191800822305501D+02 0.214431266222360D+03
 0.216747564426023D+03 0.000000000000000D+00 0.000000000000000D+00 0.216747564426023D+03
 0.216747564426023D+03 0.000000000000000D+00 0.000000000000000D+00 -.216747564426023D+03
 0.192858480564061D+03 -.623979543975612D+02 0.353105480622643D+02 0.128175871395598D+03
 0.969420496352468D+02 0.514736218938756D+02 -.106308607997800D+02 0.129613302131437D+02
 0.000000000000000D+00 -.000000000000000D+00 0.000000000000000D+00 0.000000000000000D+00
 0.143694598652738D+03 0.109243325036855D+02 -.246796872624842D+02 -.141137201608741D+03
 0.432573793266829D+03 0.000000000000000D+00 0.000000000000000D+00 0.432573793266829D+03
 0.218142527044468D+03 0.000000000000000D+00 0.000000000000000D+00 -.218142527044468D+03
 0.188704842037649D+03 -.532260879561383D+02 0.268783734872216D+02 0.128175871395598D+03
 0.100096594679356D+03 0.562099579681345D+02 -.149852212649361D+02 0.129613302131437D+02
 0.216295843463771D+03 -.208626079771627D+02 0.191800822305501D+02 0.214431266222360D+03
 0.145619040130522D+03 0.178787379651664D+02 -.310732344528356D+02 -.141137201608741D+03
0.340434588788D-05 0.000000000000D+00 0.000000000000D+00 0.545661448636D-05 0.000000000000D+00  6 -2 21 25 -24 -1 21 2 0.20930094D+00 0.53126421D-02 0.17844005D+05 0.17844005D+05 0.17844005D+05 0.12393173D+01  1  2  2  1  6  1       -2 0.134401783921D-02 0.100000000000D+01
0.710585084286D-06 0.179652268171D-06 -.687239351211D-08 0.545661448636D-05 0.000000000000D+00  6 -2 21 25 -24 -1 21 4 0.20930094D+00 0.53126421D-02 0.17844005D+05 0.17844005D+05 0.17844005D+05 0.12393173D+01  1  2  3  1  6  1       -2 0.430876141734D-03 0.100000000000D+01
0.321857955130D-06 0.000000000000D+00 0.000000000000D+00 0.545661448636D-05 0.000000000000D+00  6 -2 21 25 -24 -1 21 4 0.20930094D+00 0.53126421D-02 0.17844005D+05 0.17844005D+05 0.17844005D+05 0.12393173D+01  1  2 15  1  6  1       -2 0.195164403194D-03 0.100000000000D+01
-.140039064998D-03 0.000000000000D+00 -.243200544180D-05 0.545661448636D-05 0.000000000000D+00  6 -2 21 25 -24 -1 21 4 0.41824358D+00 0.53126421D-02 0.17844005D+05 0.17844005D+05 0.17844005D+05 0.12393173D+01  1  2  5  1  6  1       -2 -.490319755619D-02 0.100000000000D+01
0.113824937292D-03 0.000000000000D+00 0.194660377579D-05 0.545661448636D-05 0.000000000000D+00  6 -2 21 25 -24 -1 21 4 0.20930094D+00 0.53126421D-02 0.17844005D+05 0.17844005D+05 0.17844005D+05 0.12393173D+01  1  2  6  1  6  1       -2 0.690198132471D-01 0.100000000000D+01
-.103445236482D-04 0.000000000000D+00 -.182181828987D-06 0.545661448636D-05 0.000000000000D+00  6 21 21 25 -24 2 -1 4 0.41824358D+00 0.53126421D-02 0.17844005D+05 0.17844005D+05 0.17844005D+05 0.12393173D+01  3  4  5  4  5  1       -2 -.440007438903D-02 0.100000000000D+01
  </mgrwgt>
  </event>
  <event>
  6     66 0.35998833E-03 0.26255636E+02 0.75467711E-02 0.12069148E+00
       -2 -1    0    0    0  501 0.00000000E+00 0.00000000E+00 0.23196876E+03 0.23196898E+03 0.32000000E+00 0.0000E+00 0.9000E+01
       21 -1    0    0  501  502 0.00000000E+00 0.00000000E+00 -.12026009E+03 0.12026243E+03 0.75000000E+00 0.0000E+00 0.9000E+01
       25  1    1    2    0    0 -.11701406E+02 -.49270084E+01 0.13586188E+03 0.18505310E+03 0.12500000E+03 0.0000E+00 0.9000E+01
      -24  1    1    2    0    0 -.24172688E+02 0.42088562E+02 -.49644356E+01 0.94061828E+02 0.80419002E+02 0.0000E+00 0.9000E+01
       -1  1    1    2    0  503 0.70345101E+01 -.40539072E+02 -.75920270E+01 0.41840673E+02 0.32000000E+00 0.0000E+00 0.9000E+01
       21  1    1    2  503  502 0.28839585E+02 0.33775179E+01 -.11596749E+02 0.31275811E+02 0.75000000E+00 0.0000E+00 0.9000E+01
#aMCatNLO 2  0  0  5  5 0.23836771D+02 0.00000000D+00  -5  6  0 0.00000000D+00 0.00000000D+00 0.00000000D+00 0.00000000D+00 0.00000000D+00
  <mgrwgt>
 0.2319494451D-01    1    2    0
 0.167024055077459D+03 0.000000000000000D+00 0.000000000000000D+00 0.167024055077459D+03
 0.167024055077459D+03 -.000000000000000D+00 -.000000000000000D+00 -.167024055077459D+03
 0.152499843903659D+03 -.154006173666692D+02 -.109503913189327D+01 0.859815344400500D+02
 0.101492326284944D+03 -.266495116300707D+02 0.446542747470124D+02 -.336046963541715D+02
 0.800559399663152D+02 0.420501289967399D+02 -.435592356151192D+02 -.523768380858785D+02
 0.000000000000000D+00 0.000000000000000D+00 0.000000000000000D+00 -.000000000000000D+00
 0.167024055077459D+03 0.000000000000000D+00 0.000000000000000D+00 0.167024055077459D+03
 0.167024055077459D+03 -.000000000000000D+00 -.000000000000000D+00 -.167024055077459D+03
 0.149688194810513D+03 -.116951576535201D+02 -.493348140444623D+01 0.813660845458439D+02
 0.100841142952928D+03 -.241684785551919D+02 0.420842016733739D+02 -.366950237978450D+02
 0.462896027087841D+02 0.675374396553380D+01 -.403359489351679D+02 -.216823772885866D+02
 0.372291696826930D+02 0.291098922431782D+02 0.318522866624019D+01 -.229886834594124D+02
0.634124639047D-05 0.000000000000D+00 0.000000000000D+00 0.449250894138D-06 0.793601126379D-08  6 -2 21 25 -24 -1 21 4 0.35687698D-01 0.18501749D-01 0.20988997D+05 0.20988997D+05 0.20988997D+05 0.12315250D+01  1  2  1  3  6  5       -1 0.231949445069D-01 0.100000000000D+01
  </mgrwgt>
  </event>
  <event>
  6     66 0.35998833E-03 0.85788449E+02 0.75467711E-02 0.11120219E+00
       -4 -1    0    0    0  501 0.00000000E+00 0.00000000E+00 0.79390672E+03 0.79390823E+03 0.15500000E+01 0.0000E+00 0.9000E+01
       21 -1    0    0  503  502 0.00000000E+00 0.00000000E+00 -.18298228E+03 0.18298382E+03 0.75000000E+00 0.0000E+00 0.9000E+01
       25  1    1    2    0    0 -.15099927E+02 0.78469197E+02 0.23919172E+03 0.28146599E+03 0.12500000E+03 0.0000E+00 0.9000E+01
      -24  1    1    2    0    0 0.41817810E+02 -.55550238E+02 0.42691833E+03 0.43995572E+03 0.80419002E+02 0.0000E+00 0.9000E+01
       -3  1    1    2    0  502 -.13439328E+03 -.40383811E+02 -.29329235E+02 0.14336268E+03 0.50000000E+00 0.0000E+00 0.9000E+01
       21  1    1    2  503  501 0.10767539E+03 0.17464851E+02 -.25856379E+02 0.11210766E+03 0.75000000E+00 0.0000E+00 0.9000E+01
#aMCatNLO 2  0  0  2  5 0.33001116D+01 0.00000000D+00  -5  6  0 0.00000000D+00 0.00000000D+00 0.00000000D+00 0.00000000D+00 0.00000000D+00
  <mgrwgt>
 0.7908705838D-03    1    2    0
 0.287429653592785D+03 0.000000000000000D+00 0.000000000000000D+00 0.287429653592785D+03
 0.287429653592785D+03 0.000000000000000D+00 0.000000000000000D+00 -.287429653592785D+03
 0.158020037705123D+03 0.140200673044151D+02 0.831924464388630D+02 0.471994373337746D+02
 0.195084428458468D+03 0.771575784178133D+02 -.498181431771854D+02 0.152169573094206D+03
 0.221754841021979D+03 -.911776457222285D+02 -.333743032616776D+02 -.199369010427981D+03
 0.000000000000000D+00 0.000000000000000D+00 0.000000000000000D+00 -.000000000000000D+00
 0.309362782655681D+03 0.000000000000000D+00 0.000000000000000D+00 0.309362782655681D+03
 0.469583629318071D+03 0.000000000000000D+00 0.000000000000000D+00 -.469583629318071D+03
 0.155686259207655D+03 -.150998731764648D+02 0.784692184968279D+02 0.471994373337746D+02
 0.185626923216511D+03 0.418178609487274D+02 -.555502133070406D+02 0.152169573094206D+03
 0.243804100400007D+03 -.134393382218328D+03 -.403838565362809D+02 -.199369010427981D+03
 0.193829129149579D+03 0.107675394446065D+03 0.174648513464936D+02 -.160220846662390D+03
0.151512611351D-04 0.000000000000D+00 0.000000000000D+00 0.742748784080D-06 0.809136862313D-09  6 -4 21 25 -24 -3 21 4 0.12213946D+00 0.28151291D-01 0.63524477D+05 0.63524477D+05 0.63524477D+05 0.11821201D+01  1  2  1  2  6  2       21 0.790870583781D-03 0.100000000000D+01
  </mgrwgt>
  </event>
  <event>
  5     66 0.35998833E-03 0.85876551E+02 0.75467711E-02 0.10812200E+00
       -2 -1    0    0    0  501 0.00000000E+00 0.00000000E+00 0.16367304E+03 0.16367336E+03 0.32000000E+00 0.0000E+00 0.9000E+01
       21 -1    0    0  501  502 0.00000000E+00 0.00000000E+00 -.22598356E+03 0.22598480E+03 0.75000000E+00 0.0000E+00 0.9000E+01
       25  1    1    2    0    0 -.18761260E+02 -.10350398E+03 -.92283845E+02 0.18763360E+03 0.12500000E+03 0.0000E+00 0.9000E+01
      -24  1    1    2    0    0 -.44697802E+02 0.45644832E+02 -.17056993E+02 0.10411292E+03 0.80419002E+02 0.0000E+00 0.9000E+01
       -1  1    1    2    0  502 0.63459062E+02 0.57859153E+02 0.47030323E+02 0.97911633E+02 0.32000000E+00 0.0000E+00 0.9000E+01
#aMCatNLO 1  0  0  2  1 0.20870778D+03 0.00000000D+00  -5  6  0 0.00000000D+00 0.00000000D+00 0.00000000D+00 0.00000000D+00 0.00000000D+00
  <mgrwgt>
 0.1696317893D-01    3    2    0
 0.192321917360088D+03 0.000000000000000D+00 0.000000000000000D+00 0.192321917360088D+03
 0.192321917360088D+03 0.000000000000000D+00 0.000000000000000D+00 -.192321917360088D+03
 0.175130219440187D+03 -.187613899912564D+02 -.103504103217437D+03 -.630912404690089D+02
 0.102707018462351D+03 -.446978779204047D+02 0.456447622001339D+02 -.413618376001043D+00
 0.106806596817637D+03 0.634592679116611D+02 0.578593410173033D+02 0.635048588450100D+02
 0.000000000000000D+00 -.000000000000000D+00 0.000000000000000D+00 0.000000000000000D+00
 0.119565620787493D+04 0.000000000000000D+00 0.000000000000000D+00 0.119565620787493D+04
 0.229957012255170D+03 0.000000000000000D+00 0.000000000000000D+00 -.229957012255170D+03
 0.248876379903165D+03 0.168593171277108D+02 -.205060262546827D+03 -.630912404690089D+02
 0.854539756209763D+02 -.288905115448912D+02 0.577284655453688D+00 -.413618376001043D+00
 0.103287989675910D+03 0.811092708700042D+02 0.753842777391501D+01 0.635048588450100D+02
 0.987994874930052D+03 -.690780764528238D+02 0.196944550117458D+03 0.965699195619763D+03
0.129430741876D-04 0.000000000000D+00 0.000000000000D+00 0.136837595012D-06 0.000000000000D+00  6 -2 21 25 -24 -1 21 2 0.25180588D-01 0.34766821D-01 0.30967861D+05 0.30967861D+05 0.30967861D+05 0.12134538D+01  1  2  2  2  6  2       21 0.170793503166D-01 0.100000000000D+01
-.146389660488D-05 0.683024789926D-06 -.261283377198D-07 0.136837595012D-06 0.000000000000D+00  6 -2 21 25 -24 -1 21 4 0.25180588D-01 0.34766821D-01 0.30967861D+05 0.30967861D+05 0.30967861D+05 0.12134538D+01  1  2  3  2  6  2       21 -.284440063654D-02 0.100000000000D+01
0.140410794810D-05 0.000000000000D+00 0.000000000000D+00 0.136837595012D-06 0.000000000000D+00  6 -2 21 25 -24 -1 21 4 0.25180588D-01 0.34766821D-01 0.30967861D+05 0.30967861D+05 0.30967861D+05 0.12134538D+01  1  2 15  2  6  2       21 0.272822925337D-02 0.100000000000D+01
  </mgrwgt>
  </event>
  <event>
  6     66 0.35998833E-03 0.56894712E+02 0.75467711E-02 0.12163869E+00
       -2 -1    0    0    0  501 0.00000000E+00 0.00000000E+00 0.13202742E+03 0.13202781E+03 0.32000000E+00 0.0000E+00 0.9000E+01
       21 -1    0    0  501  502 -.00000000E+00 -.00000000E+00 -.21640478E+03 0.21640608E+03 0.75000000E+00 0.0000E+00 0.9000E+01
       25  1    1    2    0    0 -.19968207E+02 -.40394444E+02 0.35364032E+02 0.13749929E+03 0.12500000E+03 0.0000E+00 0.9000E+01
      -24  1    1    2    0    0 -.68738062E+01 -.12774363E+02 -.63613116E+01 0.81964113E+02 0.80419002E+02 0.0000E+00 0.9000E+01
       -1  1    1    2    0  503 0.27792761E+02 0.46682905E+02 -.94954945E+02 0.10939961E+03 0.32000000E+00 0.0000E+00 0.9000E+01
       21  1    1    2  503  502 -.95074736E+00 0.64859016E+01 -.18425137E+02 0.19570872E+02 0.75000000E+00 0.0000E+00 0.9000E+01
#aMCatNLO 2  0  0  5  2 0.53456474D+01 0.00000000D+00  -5  6  0 0.00000000D+00 0.00000000D+00 0.00000000D+00 0.00000000D+00 0.00000000D+00
  <mgrwgt>
 0.1807318955D-01    5    2    0
 0.169031532102404D+03 0.000000000000000D+00 0.000000000000000D+00 0.169031532102404D+03
 0.169031532102404D+03 -.000000000000000D+00 -.000000000000000D+00 -.169031532102404D+03
 0.150820209142351D+03 -.200966402300086D+02 -.406488446406681D+02 0.711725506539340D+02
 0.829560658696967D+02 -.694448552145051D+01 -.129143651371813D+02 0.141239585156867D+02
 0.104286789192761D+03 0.270411257514591D+02 0.535632097778494D+02 -.852965091696207D+02
 0.000000000000000D+00 0.000000000000000D+00 0.000000000000000D+00 -.000000000000000D+00
 0.169031532102404D+03 0.000000000000000D+00 0.000000000000000D+00 0.169031532102404D+03
 0.169031532102404D+03 -.000000000000000D+00 -.000000000000000D+00 -.169031532102404D+03
 0.150543876835822D+03 -.199681904333369D+02 -.403944105809220D+02 0.707673782006735D+02
 0.828908093448970D+02 -.687379694775798D+01 -.127743448238116D+02 0.139009837538528D+02
 0.890993037794515D+02 0.278398577327862D+02 0.467121602597250D+02 -.705804671227881D+02
 0.155290742446371D+02 -.997870351691273D+00 0.645659514500859D+01 -.140878948317383D+02
-.323328330581D-05 0.000000000000D+00 0.000000000000D+00 0.110609599679D-05 0.000000000000D+00  6 -2 21 25 -24 -1 21 4 0.20312041D-01 0.33293173D-01 0.18975472D+05 0.18975472D+05 0.18975472D+05 0.12363482D+01  1  2 13  3  6  5       -1 -.107010983863D-01 0.100000000000D+01
-.734624866172D-07 0.000000000000D+00 0.000000000000D+00 0.110658779339D-05 0.000000000000D+00  6 -2 21 25 -24 -1 21 4 0.20312041D-01 0.33293173D-01 0.18867433D+05 0.18867433D+05 0.18867433D+05 0.12366230D+01  1  2  8  3  6  5       -1 -.243351298350D-03 0.100000000000D+01
-.104872555568D-08 0.000000000000D+00 0.000000000000D+00 0.110658779339D-05 0.000000000000D+00  6 -2 21 25 -24 -1 21 4 0.20312041D-01 0.33293173D-01 0.18867433D+05 0.18867433D+05 0.18867433D+05 0.12366230D+01  1  2  9  3  6  5       -1 -.347400064086D-05 0.100000000000D+01
0.121636595015D-08 0.000000000000D+00 0.000000000000D+00 0.110658779339D-05 0.000000000000D+00  6 -2 21 25 -24 -1 21 4 0.20312041D-01 0.33293173D-01 0.18867433D+05 0.18867433D+05 0.18867433D+05 0.12366230D+01  1  2 10  3  6  5       -1 0.402932499114D-05 0.100000000000D+01
0.876736663919D-05 0.000000000000D+00 0.000000000000D+00 0.110658779339D-05 0.738883845278D-06  6 -2 21 25 -24 -1 21 4 0.20312041D-01 0.33293173D-01 0.18975472D+05 0.18975472D+05 0.18975472D+05 0.12363482D+01  1  2  1  3  6  5       -1 0.290170839115D-01 0.100000000000D+01
  </mgrwgt>
  </event>
  <event>
  5     66 0.35998833E-03 0.44272411E+02 0.75467711E-02 0.11401321E+00
       -2 -1    0    0    0  501 0.00000000E+00 0.00000000E+00 0.14595230E+03 0.14595265E+03 0.32000000E+00 0.0000E+00 0.9000E+01
       21 -1    0    0  501  502 0.00000000E+00 0.00000000E+00 -.62200969E+03 0.62201014E+03 0.75000000E+00 0.0000E+00 0.9000E+01
       25  1    1    2    0    0 0.23502099E+02 -.65627569E+02 -.11208381E+02 0.14356167E+03 0.12500000E+03 0.0000E+00 0.9000E+01
      -24  1    1    2    0    0 -.46505667E+02 0.10345454E+03 0.17397331E+02 0.14012674E+03 0.80419002E+02 0.0000E+00 0.9000E+01
       -1  1    1    2    0  502 0.23003568E+02 -.37826975E+02 -.48224634E+03 0.48427438E+03 0.32000000E+00 0.0000E+00 0.9000E+01
#aMCatNLO 1  0  0  2  1 0.20724624D+02 0.00000000D+00  -5  6  0 0.00000000D+00 0.00000000D+00 0.00000000D+00 0.00000000D+00 0.00000000D+00
  <mgrwgt>
 0.9787709665D-01    4    2    0
 0.301303923488831D+03 0.000000000000000D+00 0.000000000000000D+00 0.301303923488831D+03
 0.301303923488831D+03 0.000000000000000D+00 0.000000000000000D+00 -.301303923488831D+03
 0.174100305230081D+03 0.235020928638689D+02 -.656275588695926D+02 0.991291653805457D+02
 0.192321230392053D+03 -.465056738084751D+02 0.103454555019367D+03 0.132870677933497D+03
 0.236186311355528D+03 0.230035809446062D+02 -.378269961497742D+02 -.231999843314043D+03
 0.000000000000000D+00 0.000000000000000D+00 0.000000000000000D+00 0.000000000000000D+00
 0.558387768212008D+03 0.000000000000000D+00 0.000000000000000D+00 0.558387768212008D+03
 0.311708929523074D+03 0.000000000000000D+00 0.000000000000000D+00 -.311708929523074D+03
 0.175177855687958D+03 -.455022642691162D+00 -.723566351399936D+02 0.991291653805457D+02
 0.196689211276641D+03 -.731880408360024D+02 0.959600099121357D+02 0.132870677933497D+03
 0.236889427542962D+03 -.944485525407701D+01 -.469411151669985D+02 -.231999843314043D+03
 0.261340203227522D+03 0.830879187327706D+02 0.233377403948563D+02 0.246678838688934D+03
0.385607003875D-03 0.000000000000D+00 0.000000000000D+00 0.428399480565D-05 0.000000000000D+00  6 -2 21 25 -24 -1 21 2 0.22454262D-01 0.95693860D-01 0.26640515D+05 0.26640515D+05 0.26640515D+05 0.12203493D+01  1  2  2  2  6  2       21 0.725371506350D-01 0.100000000000D+01
0.686000592844D-04 0.203490406528D-04 -.778429442522D-06 0.428399480565D-05 0.000000000000D+00  6 -2 21 25 -24 -1 21 4 0.22454262D-01 0.95693860D-01 0.26640515D+05 0.26640515D+05 0.26640515D+05 0.12203493D+01  1  2  3  2  6  2       21 0.192180091670D-01 0.100000000000D+01
0.364591221369D-04 0.000000000000D+00 0.000000000000D+00 0.428399480565D-05 0.000000000000D+00  6 -2 21 25 -24 -1 21 4 0.22454262D-01 0.95693860D-01 0.26640515D+05 0.26640515D+05 0.26640515D+05 0.12203493D+01  1  2 15  2  6  2       21 0.102138649843D-01 0.100000000000D+01
-.146064303784D-04 0.000000000000D+00 0.000000000000D+00 0.428399480565D-05 0.000000000000D+00  6 -2 21 25 -24 -1 21 4 0.22454262D-01 0.95693860D-01 0.26640515D+05 0.26640515D+05 0.26640515D+05 0.12203493D+01  1  2  4  2  6  2       21 -.409192813879D-02 0.100000000000D+01
  </mgrwgt>
  </event>
  <event>
  5     66 0.35998833E-03 0.62263685E+02 0.75467711E-02 0.11795376E+00
       -4 -1    0    0    0  501 0.00000000E+00 0.00000000E+00 0.67202382E+03 0.67202561E+03 0.15500000E+01 0.0000E+00 0.9000E+01
       21 -1    0    0  501  502 0.00000000E+00 0.00000000E+00 -.11023050E+03 0.11023306E+03 0.75000000E+00 0.0000E+00 0.9000E+01
       25  1    1    2    0    0 -.38563243E+02 0.49944620E+02 0.28819833E+03 0.32041359E+03 0.12500000E+03 0.0000E+00 0.9000E+01
      -24  1    1    2    0    0 0.75157157E+02 0.43036824E+00 0.34790160E+03 0.36489933E+03 0.80419002E+02 0.0000E+00 0.9000E+01
       -3  1    1    2    0  502 -.36593914E+02 -.50374988E+02 -.74306617E+02 0.96945744E+02 0.50000000E+00 0.0000E+00 0.9000E+01
#aMCatNLO 1  0  0  1  2 0.28752068D+02 0.00000000D+00  -5  6  0 0.00000000D+00 0.00000000D+00 0.00000000D+00 0.00000000D+00 0.00000000D+00
  <mgrwgt>
 0.7216372466D-02    9    4    0
 0.272174984903181D+03 0.000000000000000D+00 0.000000000000000D+00 0.272174984903181D+03
 0.272174984903181D+03 0.000000000000000D+00 0.000000000000000D+00 -.272174984903181D+03
 0.163017292772651D+03 -.385632138208086D+02 0.499446603242269D+02 0.834748296663869D+02
 0.165329203705561D+03 0.751571871241212D+02 0.430409226282883D+00 0.123360210825988D+03
 0.216003473328150D+03 -.365939733033127D+02 -.503750695505098D+02 -.206835040492375D+03
 0.000000000000000D+00 0.000000000000000D+00 -.000000000000000D+00 0.000000000000000D+00
 0.293100395205153D+03 0.000000000000000D+00 0.000000000000000D+00 0.293100395205153D+03
 0.282613289388989D+03 0.000000000000000D+00 0.000000000000000D+00 -.282613289388989D+03
 0.166168346658448D+03 -.399202393563015D+02 0.585256074988162D+02 0.834748296663869D+02
 0.164962036574756D+03 0.737956038910718D+02 0.904017631689205D+01 0.123360210825988D+03
 0.213978386685322D+03 -.383665183172612D+02 -.391666473569300D+02 -.206835040492375D+03
 0.306049146756156D+02 0.449115378249080D+01 -.283991364587783D+02 0.104871058161638D+02
 0.272174984903181D+03 0.000000000000000D+00 0.000000000000000D+00 0.272174984903181D+03
 0.272174984903181D+03 0.000000000000000D+00 0.000000000000000D+00 -.272174984903181D+03
 0.163017292772651D+03 -.385632138208086D+02 0.499446603242269D+02 0.834748296663869D+02
 0.165329203705561D+03 0.751571871241212D+02 0.430409226282883D+00 0.123360210825988D+03
 0.000000000000000D+00 0.000000000000000D+00 -.000000000000000D+00 0.000000000000000D+00
 0.216003473328150D+03 -.365939733033127D+02 -.503750695505098D+02 -.206835040492375D+03
 0.293100395205153D+03 0.000000000000000D+00 0.000000000000000D+00 0.293100395205153D+03
 0.282613289388989D+03 0.000000000000000D+00 0.000000000000000D+00 -.282613289388989D+03
 0.166168346658448D+03 -.399202393563015D+02 0.585256074988162D+02 0.834748296663869D+02
 0.164962036574756D+03 0.737956038910718D+02 0.904017631689205D+01 0.123360210825988D+03
 0.306049146756156D+02 0.449115378249080D+01 -.283991364587783D+02 0.104871058161638D+02
 0.213978386685322D+03 -.383665183172612D+02 -.391666473569300D+02 -.206835040492375D+03
0.120774093177D-04 0.000000000000D+00 0.000000000000D+00 0.256099869809D-05 0.000000000000D+00  6 -4 21 25 -24 -3 21 2 0.10338861D+00 0.16958873D-01 0.24392183D+05 0.24392183D+05 0.24392183D+05 0.12244453D+01  1  2  2  1  6  1       -4 0.187903737869D-02 0.100000000000D+01
0.997005100716D-06 0.637342399688D-06 -.243808097565D-07 0.256099869809D-05 0.000000000000D+00  6 -4 21 25 -24 -3 21 4 0.10338861D+00 0.16958873D-01 0.24392183D+05 0.24392183D+05 0.24392183D+05 0.12244453D+01  1  2  3  1  6  1       -4 0.232561497500D-03 0.100000000000D+01
0.123095350450D-05 0.000000000000D+00 0.000000000000D+00 0.256099869809D-05 0.000000000000D+00  6 -4 21 25 -24 -3 21 4 0.10338861D+00 0.16958873D-01 0.24392183D+05 0.24392183D+05 0.24392183D+05 0.12244453D+01  1  2 15  1  6  1       -4 0.287132322747D-03 0.100000000000D+01
0.701722492156D-04 0.000000000000D+00 0.000000000000D+00 0.253193294514D-05 0.000000000000D+00  6 -4 21 25 -24 -3 21 4 0.11320303D+00 0.16958873D-01 0.28355097D+05 0.28355097D+05 0.28355097D+05 0.12174772D+01  1  2 12  1  6  1       -4 0.129349208697D-01 0.100000000000D+01
-.445332013938D-04 0.000000000000D+00 0.000000000000D+00 0.256099869809D-05 0.000000000000D+00  6 -4 21 25 -24 -3 21 4 0.10338861D+00 0.16958873D-01 0.24392183D+05 0.24392183D+05 0.24392183D+05 0.12244453D+01  1  2  4  1  6  1       -4 -.103878184747D-01 0.100000000000D+01
-.172559278601D-03 0.000000000000D+00 -.406477691221D-04 0.256099869809D-05 0.000000000000D+00  6 -4 21 25 -24 -3 21 4 0.11446191D+00 0.16958873D-01 0.24392183D+05 0.24392183D+05 0.24392183D+05 0.12244453D+01  1  2  5  1  6  1       -4 -.316573250495D-01 0.100000000000D+01
0.175992807825D-03 0.000000000000D+00 0.404382697634D-04 0.256099869809D-05 0.000000000000D+00  6 -4 21 25 -24 -3 21 4 0.10338861D+00 0.16958873D-01 0.24392183D+05 0.24392183D+05 0.24392183D+05 0.12244453D+01  1  2  6  1  6  1       -4 0.410520978355D-01 0.100000000000D+01
0.104688773049D-05 0.000000000000D+00 0.000000000000D+00 0.253193294514D-05 0.000000000000D+00  6 21 21 25 -24 4 -3 4 0.11320303D+00 0.16958873D-01 0.28355097D+05 0.28355097D+05 0.28355097D+05 0.12174772D+01  3  4 12  4  5  1       -4 0.446083440581D-02 0.100000000000D+01
-.270649292752D-05 0.000000000000D+00 -.670154601477D-06 0.256099869809D-05 0.000000000000D+00  6 21 21 25 -24 4 -3 4 0.11446191D+00 0.16958873D-01 0.24392183D+05 0.24392183D+05 0.24392183D+05 0.12244453D+01  3  4  5  4  5  1       -4 -.115850683197D-01 0.100000000000D+01
  </mgrwgt>
  </event>
</LesHouchesEvents>
