<event>
 5    0  0.1856407E+000  0.2364308E+03  0.7546771E-02  0.1122194E+00
         21   -1    0    0  502  501  0.00000000000E+00  0.00000000000E+00  0.25234037615E+02  0.25234037615E+02  0.00000000000E+00 0.  1.
         21   -1    0    0  503  502 -0.00000000000E+00 -0.00000000000E+00 -0.19480105866E+04  0.19480105866E+04  0.00000000000E+00 0.  1.
         25    1    1    2    0    0  0.19165705707E+03 -0.59515514296E+02 -0.10035787917E+04  0.10310528188E+04  0.12500000000E+03 0.  0.
         21    1    1    2  503  504 -0.33191409961E+02 -0.98655286668E-01 -0.90971071406E+02  0.96837055205E+02  0.00000000000E+00 0.  1.
         21    1    1    2  504  501 -0.15846564711E+03  0.59614169583E+02 -0.82822668591E+03  0.84535475026E+03  0.00000000000E+00 0.  1.
<mgrwt>
<rscale>  4 0.23643080E+03</rscale>
<asrwt>0</asrwt>
<pdfrwt beam="1">  1       21 0.38821601E-02 0.23643080E+03</pdfrwt>
<pdfrwt beam="2">  1       21 0.29969390E+00 0.23643080E+03</pdfrwt>
<totfact> 0.13541371E+04</totfact>
</mgrwt>
</event>
<event>
 5    0  0.2791867E+000  0.2419793E+03  0.7546771E-02  0.1118481E+00
         21   -1    0    0  502  501  0.00000000000E+00  0.00000000000E+00  0.11297981400E+03  0.11297981400E+03  0.00000000000E+00 0.  1.
         21   -1    0    0  503  502 -0.00000000000E+00 -0.00000000000E+00 -0.89664935219E+03  0.89664935219E+03  0.00000000000E+00 0.  1.
         25    1    1    2    0    0 -0.12912104521E+03  0.19617186318E+03 -0.12022886358E+03  0.29195140667E+03  0.12500000000E+03 0.  0.
         21    1    1    2  503  504  0.50139618310E+02 -0.96520765409E+01 -0.49220302457E+02  0.70920956563E+02  0.00000000000E+00 0.  1.
         21    1    1    2  504  501  0.78981426904E+02 -0.18651978664E+03 -0.61422037215E+03  0.64675680295E+03  0.00000000000E+00 0.  1.
<mgrwt>
<rscale>  4 0.24197933E+03</rscale>
<asrwt>0</asrwt>
<pdfrwt beam="1">  1       21 0.17381510E-01 0.24197933E+03</pdfrwt>
<pdfrwt beam="2">  1       21 0.13794606E+00 0.24197933E+03</pdfrwt>
<totfact> 0.10768530E+04</totfact>
</mgrwt>
</event>
<event>
 5    0  0.1856407E+000  0.3283302E+03  0.7546771E-02  0.1071878E+00
         21   -1    0    0  502  501  0.00000000000E+00  0.00000000000E+00  0.42604974810E+03  0.42604974810E+03  0.00000000000E+00 0.  1.
         21   -1    0    0  503  502 -0.00000000000E+00 -0.00000000000E+00 -0.24849806571E+03  0.24849806571E+03  0.00000000000E+00 0.  1.
         25    1    1    2    0    0  0.16872589614E+03 -0.25240305322E+03  0.29462335215E+02  0.32964944790E+03  0.12500000000E+03 0.  0.
         21    1    1    2  503  504 -0.45193967169E+02  0.44520293715E+02  0.60626355162E+02  0.87750248781E+02  0.00000000000E+00 0.  1.
         21    1    1    2  504  501 -0.12353192897E+03  0.20788275951E+03  0.87462992013E+02  0.25714811714E+03  0.00000000000E+00 0.  1.
<mgrwt>
<rscale>  4 0.32833021E+03</rscale>
<asrwt>0</asrwt>
<pdfrwt beam="1">  1       21 0.65546115E-01 0.32833021E+03</pdfrwt>
<pdfrwt beam="2">  1       21 0.38230472E-01 0.32833021E+03</pdfrwt>
<totfact> 0.13178921E+04</totfact>
</mgrwt>
</event>
<event>
 5    0  0.1952724E+000  0.3200503E+03  0.7546771E-02  0.1075626E+00
         21   -1    0    0  502  501  0.00000000000E+00  0.00000000000E+00  0.13136967809E+04  0.13136967809E+04  0.00000000000E+00 0. -1.
         21   -1    0    0  503  502 -0.00000000000E+00 -0.00000000000E+00 -0.81597353144E+02  0.81597353144E+02  0.00000000000E+00 0.  1.
         25    1    1    2    0    0  0.59985049786E+02  0.28845966433E+03  0.85789189357E+03  0.91564768617E+03  0.12500000000E+03 0.  0.
         21    1    1    2  503  504 -0.62701513082E+02 -0.25710338114E+03  0.30622202180E+03  0.40472898954E+03  0.00000000000E+00 0.  1.
         21    1    1    2  504  501  0.27164632956E+01 -0.31356283194E+02  0.67985512380E+02  0.74917458327E+02  0.00000000000E+00 0.  1.
<mgrwt>
<rscale>  4 0.32005028E+03</rscale>
<asrwt>0</asrwt>
<pdfrwt beam="1">  1       21 0.20210718E+00 0.32005028E+03</pdfrwt>
<pdfrwt beam="2">  1       21 0.12553440E-01 0.32005028E+03</pdfrwt>
<totfact> 0.64444935E+03</totfact>
</mgrwt>
</event>
<event>
 5    0  0.1856407E+000  0.2815571E+03  0.7546771E-02  0.1094841E+00
         21   -1    0    0  502  501  0.00000000000E+00  0.00000000000E+00  0.49000455304E+03  0.49000455304E+03  0.00000000000E+00 0.  1.
         21   -1    0    0  503  502 -0.00000000000E+00 -0.00000000000E+00 -0.16272212303E+03  0.16272212303E+03  0.00000000000E+00 0.  1.
         25    1    1    2    0    0 -0.11490193507E+03 -0.22460402926E+03  0.84265402331E+02  0.29389638084E+03  0.12500000000E+03 0.  0.
         21    1    1    2  503  504  0.94426932272E+02  0.14595555739E+03  0.11940646090E+03  0.21089659356E+03  0.00000000000E+00 0.  1.
         21    1    1    2  504  501  0.20475002794E+02  0.78648471876E+02  0.12361056679E+03  0.14793370167E+03  0.00000000000E+00 0.  1.
<mgrwt>
<rscale>  4 0.28155714E+03</rscale>
<asrwt>0</asrwt>
<pdfrwt beam="1">  1       21 0.75385315E-01 0.28155714E+03</pdfrwt>
<pdfrwt beam="2">  1       21 0.25034173E-01 0.28155714E+03</pdfrwt>
<totfact> 0.22705911E+04</totfact>
</mgrwt>
</event>
<event>
 5    0  0.1856407E+000  0.2629475E+03  0.7546771E-02  0.1105385E+00
         21   -1    0    0  502  501  0.00000000000E+00  0.00000000000E+00  0.12640376710E+03  0.12640376710E+03  0.00000000000E+00 0.  1.
         21   -1    0    0  503  502 -0.00000000000E+00 -0.00000000000E+00 -0.51924002531E+03  0.51924002531E+03  0.00000000000E+00 0.  1.
         25    1    1    2    0    0  0.20728887191E+03 -0.10270215054E+03 -0.14406404800E+03  0.29982637988E+03  0.12500000000E+03 0.  0.
         21    1    1    2  503  504 -0.61399937730E+02  0.52742965611E+02 -0.12088130941E+03  0.14547873982E+03  0.00000000000E+00 0.  1.
         21    1    1    2  504  501 -0.14588893418E+03  0.49959184925E+02 -0.12789090080E+03  0.20033867271E+03  0.00000000000E+00 0.  1.
<mgrwt>
<rscale>  4 0.26294754E+03</rscale>
<asrwt>0</asrwt>
<pdfrwt beam="1">  1       21 0.19446733E-01 0.26294754E+03</pdfrwt>
<pdfrwt beam="2">  1       21 0.79883081E-01 0.26294754E+03</pdfrwt>
<totfact> 0.32432967E+04</totfact>
</mgrwt>
</event>
<event>
 5    0  0.1856407E+000  0.3193846E+03  0.7546771E-02  0.1075933E+00
         21   -1    0    0  502  501  0.00000000000E+00  0.00000000000E+00  0.50545992804E+03  0.50545992804E+03  0.00000000000E+00 0. -1.
         21   -1    0    0  503  502 -0.00000000000E+00 -0.00000000000E+00 -0.32758242362E+03  0.32758242362E+03  0.00000000000E+00 0. -1.
         25    1    1    2    0    0  0.15825918821E+03 -0.22419429963E+03  0.71888028771E+02  0.31000313438E+03  0.12500000000E+03 0.  0.
         21    1    1    2  503  504 -0.55043180810E+01 -0.41832686510E+02 -0.12957015339E+03  0.13626700197E+03  0.00000000000E+00 0. -1.
         21    1    1    2  504  501 -0.15275487013E+03  0.26602698614E+03  0.23555962904E+03  0.38677221531E+03  0.00000000000E+00 0. -1.
<mgrwt>
<rscale>  4 0.31938458E+03</rscale>
<asrwt>0</asrwt>
<pdfrwt beam="1">  1       21 0.77763066E-01 0.31938458E+03</pdfrwt>
<pdfrwt beam="2">  1       21 0.50397296E-01 0.31938458E+03</pdfrwt>
<totfact> 0.50862465E+03</totfact>
</mgrwt>
</event>
<event>
 5    0  0.2761111E+000  0.3205930E+03  0.7546771E-02  0.1075377E+00
         21   -1    0    0  502  501  0.00000000000E+00  0.00000000000E+00  0.13402211013E+03  0.13402211013E+03  0.00000000000E+00 0.  1.
         21   -1    0    0  503  502 -0.00000000000E+00 -0.00000000000E+00 -0.74080244472E+03  0.74080244472E+03  0.00000000000E+00 0.  1.
         25    1    1    2    0    0  0.28542088082E+03  0.75430724729E+02 -0.23954403631E+03  0.40020147273E+03  0.12500000000E+03 0.  0.
         21    1    1    2  503  504 -0.24822570334E+03 -0.81434413410E+02 -0.33646888975E+03  0.42597990241E+03  0.00000000000E+00 0.  1.
         21    1    1    2  504  501 -0.37195177481E+02  0.60036886808E+01 -0.30767408521E+02  0.48643179714E+02  0.00000000000E+00 0.  1.
<mgrwt>
<rscale>  4 0.32059300E+03</rscale>
<asrwt>0</asrwt>
<pdfrwt beam="1">  1       21 0.20618786E-01 0.32059300E+03</pdfrwt>
<pdfrwt beam="2">  1       21 0.11396961E+00 0.32059300E+03</pdfrwt>
<totfact> 0.12186251E+04</totfact>
</mgrwt>
</event>
<event>
 5    0  0.1856407E+000  0.3878822E+03  0.7546771E-02  0.1048058E+00
         21   -1    0    0  502  501  0.00000000000E+00  0.00000000000E+00  0.69706860671E+03  0.69706860671E+03  0.00000000000E+00 0.  1.
         21   -1    0    0  503  502 -0.00000000000E+00 -0.00000000000E+00 -0.22899761094E+03  0.22899761094E+03  0.00000000000E+00 0.  1.
         25    1    1    2    0    0 -0.57952550356E+02  0.36258670924E+03  0.94212358171E+02  0.39915985299E+03  0.12500000000E+03 0.  0.
         21    1    1    2  503  504  0.55889388167E+01 -0.20648281394E+02  0.43981453611E+02  0.48907627456E+02  0.00000000000E+00 0.  1.
         21    1    1    2  504  501  0.52363611539E+02 -0.34193842785E+03  0.32987718398E+03  0.47799873720E+03  0.00000000000E+00 0.  1.
<mgrwt>
<rscale>  4 0.38788222E+03</rscale>
<asrwt>0</asrwt>
<pdfrwt beam="1">  1       21 0.10724132E+00 0.38788222E+03</pdfrwt>
<pdfrwt beam="2">  1       21 0.35230402E-01 0.38788222E+03</pdfrwt>
<totfact> 0.48362255E+03</totfact>
</mgrwt>
</event>
<event>
 5    0  0.1856407E+000  0.2516733E+03  0.7546771E-02  0.1112252E+00
         21   -1    0    0  502  501  0.00000000000E+00  0.00000000000E+00  0.18566428101E+03  0.18566428101E+03  0.00000000000E+00 0.  1.
         21   -1    0    0  503  502 -0.00000000000E+00 -0.00000000000E+00 -0.35655339546E+03  0.35655339546E+03  0.00000000000E+00 0.  1.
         25    1    1    2    0    0 -0.53784840351E+02  0.21671920889E+03 -0.11908668529E+03  0.28225283553E+03  0.12500000000E+03 0.  0.
         21    1    1    2  503  504  0.33165887406E+02 -0.28590046357E+01  0.12715872154E+02  0.35634862138E+02  0.00000000000E+00 0.  1.
         21    1    1    2  504  501  0.20618952944E+02 -0.21386020425E+03 -0.64518301309E+02  0.22432997880E+03  0.00000000000E+00 0.  1.
<mgrwt>
<rscale>  4 0.25167332E+03</rscale>
<asrwt>0</asrwt>
<pdfrwt beam="1">  1       21 0.28563736E-01 0.25167332E+03</pdfrwt>
<pdfrwt beam="2">  1       21 0.54854368E-01 0.25167332E+03</pdfrwt>
<totfact> 0.35741684E+04</totfact>
</mgrwt>
</event>
<event>
 5    0  0.1856407E+000  0.2291759E+03  0.7546771E-02  0.1127221E+00
         21   -1    0    0  502  501  0.00000000000E+00  0.00000000000E+00  0.44684558979E+03  0.44684558979E+03  0.00000000000E+00 0. -1.
         21   -1    0    0  503  502 -0.00000000000E+00 -0.00000000000E+00 -0.37634842698E+03  0.37634842698E+03  0.00000000000E+00 0. -1.
         25    1    1    2    0    0 -0.13493852769E+03 -0.15290744714E+03  0.37348790102E+03  0.44351697358E+03  0.12500000000E+03 0.  0.
         21    1    1    2  503  504  0.86101878746E+02  0.11195083356E+03 -0.11808378965E+03  0.18409319389E+03  0.00000000000E+00 0. -1.
         21    1    1    2  504  501  0.48836648948E+02  0.40956613573E+02 -0.18490694857E+03  0.19558384929E+03  0.00000000000E+00 0. -1.
<mgrwt>
<rscale>  4 0.22917592E+03</rscale>
<asrwt>0</asrwt>
<pdfrwt beam="1">  1       21 0.68745475E-01 0.22917592E+03</pdfrwt>
<pdfrwt beam="2">  1       21 0.57899758E-01 0.22917592E+03</pdfrwt>
<totfact> 0.52501237E+03</totfact>
</mgrwt>
</event>
<event>
 5    0  0.1856407E+000  0.4376969E+03  0.7546771E-02  0.1031456E+00
         21   -1    0    0  502  501  0.00000000000E+00  0.00000000000E+00  0.32727554691E+03  0.32727554691E+03  0.00000000000E+00 0.  1.
         21   -1    0    0  503  502 -0.00000000000E+00 -0.00000000000E+00 -0.97669233448E+03  0.97669233448E+03  0.00000000000E+00 0.  1.
         25    1    1    2    0    0  0.41272831460E+03 -0.34028962847E+02  0.22773824652E+02  0.43318157749E+03  0.12500000000E+03 0.  0.
         21    1    1    2  503  504 -0.42210482403E+03  0.12218489342E+03 -0.43827275938E+03  0.62063245344E+03  0.00000000000E+00 0.  1.
         21    1    1    2  504  501  0.93765094321E+01 -0.88155930568E+02 -0.23391785284E+03  0.25015385046E+03  0.00000000000E+00 0.  1.
<mgrwt>
<rscale>  4 0.43769688E+03</rscale>
<asrwt>0</asrwt>
<pdfrwt beam="1">  1       21 0.50350084E-01 0.43769688E+03</pdfrwt>
<pdfrwt beam="2">  1       21 0.15026036E+00 0.43769688E+03</pdfrwt>
<totfact> 0.94774328E+02</totfact>
</mgrwt>
</event>
