<event>
 5    0  0.1911311E+001  0.2834006E+03  0.7546771E-02  0.1093846E+00
         21   -1    0    0  502  501  0.00000000000E+00  0.00000000000E+00  0.80534317225E+03  0.80534317225E+03  0.00000000000E+00 0.  1.
         21   -1    0    0  504  502 -0.00000000000E+00 -0.00000000000E+00 -0.47379085032E+03  0.47379085032E+03  0.00000000000E+00 0.  1.
         25    1    1    2    0    0 -0.27935536199E+03  0.33199877039E+02 -0.36544267481E+03  0.47782318767E+03  0.12500000000E+03 0.  0.
         21    1    1    2  503  501  0.24957876947E+03 -0.41328724778E+02  0.71978227562E+03  0.76294439506E+03  0.00000000000E+00 0.  1.
         21    1    1    2  504  503  0.29776592513E+02  0.81288477392E+01 -0.22787278880E+02  0.38366439841E+02  0.00000000000E+00 0.  1.
<mgrwt>
<rscale>  4 0.28340058E+03</rscale>
<asrwt>0</asrwt>
<pdfrwt beam="1">  1       21 0.12389895E+00 0.28340058E+03</pdfrwt>
<pdfrwt beam="2">  1       21 0.72890900E-01 0.28340058E+03</pdfrwt>
<totfact> 0.76302522E+02</totfact>
</mgrwt>
</event>
<event>
 5    0  0.1911311E+001  0.4067786E+03  0.7546771E-02  0.1041457E+00
         21   -1    0    0  502  501  0.00000000000E+00  0.00000000000E+00  0.18261465343E+03  0.18261465343E+03  0.00000000000E+00 0. -1.
         21   -1    0    0  504  502 -0.00000000000E+00 -0.00000000000E+00 -0.97424619687E+03  0.97424619687E+03  0.00000000000E+00 0.  1.
         25    1    1    2    0    0  0.29523386158E+03  0.23851938627E+03 -0.27871579638E+03  0.48719813814E+03  0.12500000000E+03 0.  0.
         21    1    1    2  503  501  0.30689880150E+02 -0.93410031772E+01 -0.36246634954E+02  0.48403942293E+02  0.00000000000E+00 0. -1.
         21    1    1    2  504  503 -0.32592374173E+03 -0.22917838310E+03 -0.47666911210E+03  0.62125876987E+03  0.00000000000E+00 0.  1.
<mgrwt>
<rscale>  4 0.40677864E+03</rscale>
<asrwt>0</asrwt>
<pdfrwt beam="1">  1       21 0.28094562E-01 0.40677864E+03</pdfrwt>
<pdfrwt beam="2">  1       21 0.14988403E+00 0.40677864E+03</pdfrwt>
<totfact> 0.31843783E+03</totfact>
</mgrwt>
</event>
<event>
 5    0  0.1911311E+001  0.2412968E+03  0.7546771E-02  0.1118932E+00
         21   -1    0    0  502  501  0.00000000000E+00  0.00000000000E+00  0.22443483942E+03  0.22443483942E+03  0.00000000000E+00 0.  1.
         21   -1    0    0  504  502 -0.00000000000E+00 -0.00000000000E+00 -0.10271838878E+04  0.10271838878E+04  0.00000000000E+00 0.  1.
         25    1    1    2    0    0  0.99315783319E+02 -0.20713097257E+03 -0.59552028294E+03  0.65041238611E+03  0.12500000000E+03 0.  0.
         21    1    1    2  503  501 -0.10066478001E+03  0.17794503747E+03  0.14317061042E+03  0.24959098137E+03  0.00000000000E+00 0.  1.
         21    1    1    2  504  503  0.13489966924E+01  0.29185935098E+02 -0.35039937589E+03  0.35161535977E+03  0.00000000000E+00 0.  1.
<mgrwt>
<rscale>  4 0.24129676E+03</rscale>
<asrwt>0</asrwt>
<pdfrwt beam="1">  1       21 0.34528436E-01 0.24129676E+03</pdfrwt>
<pdfrwt beam="2">  1       21 0.15802829E+00 0.24129676E+03</pdfrwt>
<totfact> 0.20153055E+03</totfact>
</mgrwt>
</event>
<event>
 5    0  0.1911311E+001  0.2684017E+03  0.7546771E-02  0.1102198E+00
         21   -1    0    0  504  501  0.00000000000E+00  0.00000000000E+00  0.62710282616E+03  0.62710282616E+03  0.00000000000E+00 0.  1.
         21   -1    0    0  503  502 -0.00000000000E+00 -0.00000000000E+00 -0.22354348363E+03  0.22354348363E+03  0.00000000000E+00 0.  1.
         25    1    1    2    0    0 -0.25701840378E+03 -0.78730026807E+01 -0.39131688394E+02  0.28857708344E+03  0.12500000000E+03 0.  0.
         21    1    1    2  503  501  0.22854720969E+02  0.26331397878E+01 -0.28049706846E+02  0.36277510249E+02  0.00000000000E+00 0. -1.
         21    1    1    2  504  502  0.23416368281E+03  0.52398628929E+01  0.47074073777E+03  0.52579171609E+03  0.00000000000E+00 0.  1.
<mgrwt>
<rscale>  4 0.26840166E+03</rscale>
<asrwt>0</asrwt>
<pdfrwt beam="1">  1       21 0.96477357E-01 0.26840166E+03</pdfrwt>
<pdfrwt beam="2">  1       21 0.34391305E-01 0.26840166E+03</pdfrwt>
<totfact> 0.69300283E+03</totfact>
</mgrwt>
</event>
<event>
 5    0  0.1911311E+001  0.2303616E+03  0.7546771E-02  0.1126385E+00
         21   -1    0    0  502  501  0.00000000000E+00  0.00000000000E+00  0.38559924650E+03  0.38559924650E+03  0.00000000000E+00 0.  1.
         21   -1    0    0  504  502 -0.00000000000E+00 -0.00000000000E+00 -0.33091927916E+03  0.33091927916E+03  0.00000000000E+00 0.  1.
         25    1    1    2    0    0 -0.71316861770E+02  0.20895161975E+03  0.11752267123E+03  0.27961304051E+03  0.12500000000E+03 0.  0.
         21    1    1    2  503  501  0.15566773236E+02 -0.17990071843E+03  0.13747867167E+03  0.22695148840E+03  0.00000000000E+00 0.  1.
         21    1    1    2  504  503  0.55750088534E+02 -0.29050901325E+02 -0.20032137557E+03  0.20995399675E+03  0.00000000000E+00 0.  1.
<mgrwt>
<rscale>  4 0.23036164E+03</rscale>
<asrwt>0</asrwt>
<pdfrwt beam="1">  1       21 0.59322961E-01 0.23036164E+03</pdfrwt>
<pdfrwt beam="2">  1       21 0.50910658E-01 0.23036164E+03</pdfrwt>
<totfact> 0.95039763E+03</totfact>
</mgrwt>
</event>
<event>
 5    0  0.1911311E+001  0.2433713E+03  0.7546771E-02  0.1117567E+00
         21   -1    0    0  504  501  0.00000000000E+00  0.00000000000E+00  0.16885152708E+03  0.16885152708E+03  0.00000000000E+00 0. -1.
         21   -1    0    0  503  502 -0.00000000000E+00 -0.00000000000E+00 -0.63621234561E+03  0.63621234561E+03  0.00000000000E+00 0. -1.
         25    1    1    2    0    0  0.39131938447E+02 -0.24599928408E+03 -0.18975155585E+03  0.33716110292E+03  0.12500000000E+03 0.  0.
         21    1    1    2  503  501 -0.36897572039E+02  0.19102653030E+03 -0.33563040345E+03  0.38794372507E+03  0.00000000000E+00 0. -1.
         21    1    1    2  504  502 -0.22343664084E+01  0.54972753783E+02  0.58021140774E+02  0.79959044694E+02  0.00000000000E+00 0. -1.
<mgrwt>
<rscale>  4 0.24337133E+03</rscale>
<asrwt>0</asrwt>
<pdfrwt beam="1">  1       21 0.25977158E-01 0.24337133E+03</pdfrwt>
<pdfrwt beam="2">  1       21 0.97878824E-01 0.24337133E+03</pdfrwt>
<totfact> 0.11774638E+04</totfact>
</mgrwt>
</event>
<event>
 5    0  0.1911311E+001  0.3417357E+03  0.7546771E-02  0.1066059E+00
         21   -1    0    0  504  501  0.00000000000E+00  0.00000000000E+00  0.16806710303E+04  0.16806710303E+04  0.00000000000E+00 0. -1.
         21   -1    0    0  503  502 -0.00000000000E+00 -0.00000000000E+00 -0.25610989469E+03  0.25610989469E+03  0.00000000000E+00 0.  1.
         25    1    1    2    0    0  0.10241396626E+03 -0.29095507584E+03 -0.30309965314E+01  0.33283278622E+03  0.12500000000E+03 0.  0.
         21    1    1    2  503  501 -0.40110477679E+02 -0.22212600943E+02 -0.63906764051E+02  0.78653191619E+02  0.00000000000E+00 0. -1.
         21    1    1    2  504  502 -0.62303488580E+02  0.31316767678E+03  0.14914988962E+04  0.15252949472E+04  0.00000000000E+00 0. -1.
<mgrwt>
<rscale>  4 0.34173569E+03</rscale>
<asrwt>0</asrwt>
<pdfrwt beam="1">  1       21 0.25856477E+00 0.34173569E+03</pdfrwt>
<pdfrwt beam="2">  1       21 0.39401523E-01 0.34173569E+03</pdfrwt>
<totfact> 0.31576291E+02</totfact>
</mgrwt>
</event>
<event>
 5    0  0.1911311E+001  0.2238367E+03  0.7546771E-02  0.1131055E+00
         21   -1    0    0  502  501  0.00000000000E+00  0.00000000000E+00  0.10751274092E+04  0.10751274092E+04  0.00000000000E+00 0.  1.
         21   -1    0    0  504  502 -0.00000000000E+00 -0.00000000000E+00 -0.82014475596E+02  0.82014475596E+02  0.00000000000E+00 0.  1.
         25    1    1    2    0    0 -0.21563635831E+03  0.65308606248E+02  0.26622501833E+03  0.37049293308E+03  0.12500000000E+03 0.  0.
         21    1    1    2  503  501  0.17044938295E+03 -0.49351474635E+02  0.71579165173E+03  0.73745932015E+03  0.00000000000E+00 0.  1.
         21    1    1    2  504  503  0.45186975360E+02 -0.15957131613E+02  0.11096263579E+02  0.49189631599E+02  0.00000000000E+00 0. -1.
<mgrwt>
<rscale>  4 0.22383671E+03</rscale>
<asrwt>0</asrwt>
<pdfrwt beam="1">  1       21 0.16540421E+00 0.22383671E+03</pdfrwt>
<pdfrwt beam="2">  1       21 0.12617612E-01 0.22383671E+03</pdfrwt>
<totfact> 0.12060449E+04</totfact>
</mgrwt>
</event>
<event>
 5    0  0.2443835E+001  0.2323047E+03  0.7546771E-02  0.1125028E+00
         21   -1    0    0  503  501  0.00000000000E+00  0.00000000000E+00  0.10411602567E+04  0.10411602567E+04  0.00000000000E+00 0.  1.
         21   -1    0    0  504  502 -0.00000000000E+00 -0.00000000000E+00 -0.94360508760E+02  0.94360508760E+02  0.00000000000E+00 0.  1.
         25    1    1    2    0    0  0.71942507780E+02  0.22131609043E+03  0.18115329649E+03  0.32030930854E+03  0.12500000000E+03 0.  0.
         21    1    1    2  503  502  0.34163184137E+01 -0.47369670518E+02  0.31510851725E+02  0.56995532219E+02  0.00000000000E+00 0. -1.
         21    1    1    2  504  501 -0.75358826194E+02 -0.17394641991E+03  0.73413559977E+03  0.75821592474E+03  0.00000000000E+00 0.  1.
<mgrwt>
<rscale>  4 0.23230470E+03</rscale>
<asrwt>0</asrwt>
<pdfrwt beam="1">  1       21 0.16017849E+00 0.23230470E+03</pdfrwt>
<pdfrwt beam="2">  1       21 0.14517002E-01 0.23230470E+03</pdfrwt>
<totfact> 0.10151459E+04</totfact>
</mgrwt>
</event>
