<LesHouchesEvents version="3.0">
  <!--
  <scalesfunctionalform>
    muR  H_T/2 := sum_i mT(i)/2, i=final state
    muF1 H_T/2 := sum_i mT(i)/2, i=final state
    muF2 H_T/2 := sum_i mT(i)/2, i=final state
    QES  H_T/2 := sum_i mT(i)/2, i=final state
  </scalesfunctionalform>
HERWIG6   
  -->
  <header>
       29
  </header>
  <init>
   2212   2212 0.65000000D+04 0.65000000D+04 -1 -1   244800   244800 -4   1
 0.21442590D-04 0.10948278D-05 0.14393686D-05     66
  </init>
  <event>
  6     66 0.14393686E-05 0.19364790E+03 0.75467711E-02 0.92074167E-01
       -2 -1    0    0    0  503 0.00000000E+00 0.00000000E+00 0.89778615E+03 0.89778620E+03 0.32000000E+00 0.0000E+00 0.9000E+01
       -1 -1    0    0    0  502 0.00000000E+00 0.00000000E+00 -.20090963E+04 0.20090963E+04 0.32000000E+00 0.0000E+00 0.9000E+01
       25  1    1    2    0    0 -.55886763E+03 -.26421937E+03 -.48448155E+03 0.79529383E+03 0.12500000E+03 0.0000E+00 0.9000E+01
       -2  1    1    2    0  502 0.36061474E+03 0.23159080E+03 -.13205562E+04 0.13883610E+04 0.32000000E+00 0.0000E+00 0.9000E+01
       -1  1    1    2    0  501 0.17236175E+03 0.27455463E+02 0.54791201E+03 0.57503917E+03 0.32000000E+00 0.0000E+00 0.9000E+01
       21  1    1    2  501  503 0.25891143E+02 0.51731048E+01 0.14581559E+03 0.14818860E+03 0.75000000E+00 0.0000E+00 0.9000E+01
#aMCatNLO 2  0  0  1  5 0.26402884D+02 0.00000000D+00  -5  6  0 0.00000000D+00 0.00000000D+00 0.00000000D+00 0.00000000D+00 0.00000000D+00
  <mgrwgt>
 0.8457299309D-04    3    2    0
 0.122773470102975D+04 0.000000000000000D+00 0.000000000000000D+00 0.122773470102975D+04
 0.122773470102975D+04 0.000000000000000D+00 0.000000000000000D+00 -.122773470102975D+04
 0.639037208414302D+03 -.552130484421382D+03 -.262891244605054D+03 -.137053549463558D+03
 0.888057229266733D+03 0.370002212804974D+03 0.233483920731067D+03 -.772806097111286D+03
 0.928374964378462D+03 0.182128271616409D+03 0.294073238739869D+02 0.909859646574844D+03
 0.000000000000000D+00 0.000000000000000D+00 0.000000000000000D+00 0.000000000000000D+00
 0.146820699807391D+04 0.000000000000000D+00 0.000000000000000D+00 0.146820699807391D+04
 0.122853062084145D+04 0.000000000000000D+00 0.000000000000000D+00 -.122853062084145D+04
 0.645449816348443D+03 -.558902280468164D+03 -.264244263686396D+03 -.137053549463558D+03
 0.883715265130739D+03 0.360661455177956D+03 0.231617617727221D+03 -.772806097111286D+03
 0.926446267400828D+03 0.172349682309779D+03 0.274535411804340D+02 0.909859646574844D+03
 0.241126270035348D+03 0.258911429804292D+02 0.517310477874038D+01 0.239676377232456D+03
-.630140892571D-08 0.000000000000D+00 0.000000000000D+00 0.974029364578D-05 0.000000000000D+00  6 -2 -1 25 -2 -1 21 2 0.13817316D+00 0.30889135D+00 0.39708035D+06 0.39708035D+06 0.39708035D+06 0.10756571D+01  1  2 13  1  6  1       -2 -.467137192978D-10 0.100000000000D+01
-.305653001138D-01 0.000000000000D+00 0.000000000000D+00 0.974029364578D-05 0.000000000000D+00  6 -2 -1 25 -2 -1 21 2 0.14332423D+00 0.30889135D+00 0.39708035D+06 0.39708035D+06 0.39708035D+06 0.10756571D+01  1  2 13  1  6  1       -2 -.205182567111D-03 0.100000000000D+01
0.392118905434D-01 0.000000000000D+00 0.000000000000D+00 0.974029364578D-05 0.545513434347D-06  6 -2 -1 25 -2 -1 21 2 0.13812089D+00 0.30909160D+00 0.39708035D+06 0.39708035D+06 0.39708035D+06 0.10756571D+01  1  2  1  1  6  1       -2 0.289755606914D-03 0.100000000000D+01
  </mgrwgt>
  </event>
  <event>
  5     66 0.14393686E-05 0.92280808E+02 0.75467711E-02 0.92047767E-01
       -2 -1    0    0    0  501 0.00000000E+00 0.00000000E+00 0.20598203E+04 0.20598203E+04 0.32000000E+00 0.0000E+00 0.9000E+01
       -1 -1    0    0    0  502 0.00000000E+00 0.00000000E+00 -.12042440E+04 0.12042440E+04 0.32000000E+00 0.0000E+00 0.9000E+01
       25  1    1    2    0    0 0.26641428E+03 -.39112066E+03 0.18393252E+03 0.52288441E+03 0.12500000E+03 0.0000E+00 0.9000E+01
       -2  1    1    2    0  502 -.89760421E+02 -.21388236E+02 -.10031118E+04 0.10073469E+04 0.32000000E+00 0.0000E+00 0.9000E+01
       -1  1    1    2    0  501 -.17665385E+03 0.41250889E+03 0.16747557E+04 0.17338330E+04 0.32000000E+00 0.0000E+00 0.9000E+01
#aMCatNLO 1  0  0  1  4 0.10966748D+03 0.00000000D+00  -5  6  0 0.00000000D+00 0.00000000D+00 0.00000000D+00 0.00000000D+00 0.00000000D+00
  <mgrwgt>
 0.3792146804D-02    7    4    0
 0.157496864632547D+04 0.000000000000000D+00 0.000000000000000D+00 0.157496864632547D+04
 0.157496864632547D+04 0.000000000000000D+00 0.000000000000000D+00 -.157496864632547D+04
 0.491868563755425D+03 0.266416751045506D+03 -.391108154069437D+03 0.486437107299386D+02
 0.131634449010209D+04 -.897676477015059D+02 -.213896438367295D+02 -.131310588650908D+04
 0.134172423879343D+04 -.176649103344001D+03 0.412497797906167D+03 0.126446217577914D+04
 0.000000000000000D+00 0.000000000000000D+00 -.000000000000000D+00 0.000000000000000D+00
 0.168602260303668D+04 0.000000000000000D+00 0.000000000000000D+00 0.168602260303668D+04
 0.162885348102513D+04 0.000000000000000D+00 0.000000000000000D+00 -.162885348102513D+04
 0.470004729024798D+03 0.250850617325221D+03 -.374148636907382D+03 0.486437107299386D+02
 0.132000569182397D+04 -.132432081544704D+03 0.250938446759093D+02 -.131310588650908D+04
 0.136353733804487D+04 -.220428740193776D+03 0.460196315459998D+03 0.126446217577914D+04
 0.161328325168160D+03 0.102010204413259D+03 -.111141523228526D+03 0.571691220115522D+02
 0.157496864632547D+04 0.000000000000000D+00 0.000000000000000D+00 0.157496864632547D+04
 0.157496864632547D+04 0.000000000000000D+00 0.000000000000000D+00 -.157496864632547D+04
 0.491868563755425D+03 0.266416751045506D+03 -.391108154069437D+03 0.486437107299386D+02
 0.000000000000000D+00 0.000000000000000D+00 -.000000000000000D+00 0.000000000000000D+00
 0.131634449010209D+04 -.897676477015059D+02 -.213896438367295D+02 -.131310588650908D+04
 0.134172423879343D+04 -.176649103344001D+03 0.412497797906167D+03 0.126446217577914D+04
 0.168602260303668D+04 0.000000000000000D+00 0.000000000000000D+00 0.168602260303668D+04
 0.162885348102513D+04 0.000000000000000D+00 0.000000000000000D+00 -.162885348102513D+04
 0.470004729024798D+03 0.250850617325221D+03 -.374148636907382D+03 0.486437107299386D+02
 0.161328325168160D+03 0.102010204413259D+03 -.111141523228526D+03 0.571691220115522D+02
 0.132000569182397D+04 -.132432081544704D+03 0.250938446759093D+02 -.131310588650908D+04
 0.136353733804487D+04 -.220428740193776D+03 0.460196315459998D+03 0.126446217577914D+04
0.276961930975D+00 0.000000000000D+00 0.000000000000D+00 0.491469531941D-03 0.000000000000D+00  6 -2 -1 25 -2 -1 21 0 0.31689543D+00 0.18526831D+00 0.26546656D+06 0.26546656D+06 0.26546656D+06 0.10885033D+01  1  2  2  1  6  1       -2 0.120527069418D-02 0.100000000000D+01
0.831678453851D-01 0.000000000000D+00 -.106360674070D-02 0.491469531941D-03 0.000000000000D+00  6 -2 -1 25 -2 -1 21 2 0.31689543D+00 0.18526831D+00 0.26546656D+06 0.26546656D+06 0.26546656D+06 0.10885033D+01  1  2  3  1  6  1       -2 0.428824371975D-03 0.100000000000D+01
-.195372235075D+00 0.000000000000D+00 0.000000000000D+00 0.491469531941D-03 0.000000000000D+00  6 -2 -1 25 -2 -1 21 2 0.31689543D+00 0.18526831D+00 0.26546656D+06 0.26546656D+06 0.26546656D+06 0.10885033D+01  1  2 15  1  6  1       -2 -.100736499328D-02 0.100000000000D+01
-.217453507987D-01 0.000000000000D+00 0.000000000000D+00 0.491469531941D-03 0.000000000000D+00  6 -2 -1 25 -2 -1 21 2 0.31689543D+00 0.18526831D+00 0.26546656D+06 0.26546656D+06 0.26546656D+06 0.10885033D+01  1  2  4  1  6  1       -2 -.112121894663D-03 0.100000000000D+01
-.214814427611D+01 0.000000000000D+00 -.601368379814D+00 0.491469531941D-03 0.000000000000D+00  6 -2 -1 25 -2 -1 21 2 0.34413775D+00 0.18526831D+00 0.26546656D+06 0.26546656D+06 0.26546656D+06 0.10885033D+01  1  2  5  1  6  1       -2 -.733586893791D-02 0.100000000000D+01
0.219231892804D+01 0.000000000000D+00 0.599329107786D+00 0.491469531941D-03 0.000000000000D+00  6 -2 -1 25 -2 -1 21 2 0.31689543D+00 0.18526831D+00 0.26546656D+06 0.26546656D+06 0.26546656D+06 0.10885033D+01  1  2  6  1  6  1       -2 0.113038853313D-01 0.100000000000D+01
-.280965568733D-01 0.000000000000D+00 -.825201019291D-02 0.491469531941D-03 0.000000000000D+00  6 21 -1 25 2 -2 -1 2 0.34413775D+00 0.18526831D+00 0.26546656D+06 0.26546656D+06 0.26546656D+06 0.10885033D+01  3  4  5  5  4  1       -2 -.690477767983D-03 0.100000000000D+01
  </mgrwgt>
  </event>
  <event>
  5     66 -.14393686E-05 0.13735242E+03 0.75467711E-02 0.92733725E-01
       -2 -1    0    0    0  501 0.00000000E+00 0.00000000E+00 0.20912584E+04 0.20912585E+04 0.32000000E+00 0.0000E+00 0.9000E+01
       -1 -1    0    0    0  502 0.00000000E+00 0.00000000E+00 -.14574073E+04 0.14574073E+04 0.32000000E+00 0.0000E+00 0.9000E+01
       25  1    1    2    0    0 0.38079192E+03 0.28715950E+03 0.17732940E+03 0.52395971E+03 0.12500000E+03 0.0000E+00 0.9000E+01
       -2  1    1    2    0  502 -.50493911E+03 -.22838388E+03 -.12213609E+04 0.13412104E+04 0.32000000E+00 0.0000E+00 0.9000E+01
       -1  1    1    2    0  501 0.12414719E+03 -.58775624E+02 0.16778827E+04 0.16834957E+04 0.32000000E+00 0.0000E+00 0.9000E+01
#aMCatNLO 1  0  0  5  1 0.10345730D+02 0.00000000D+00  -5  6  0 0.00000000D+00 0.00000000D+00 0.00000000D+00 0.00000000D+00 0.00000000D+00
  <mgrwgt>
 -.5572685586D-04    6    2    0
 0.174579934381325D+04 0.000000000000000D+00 0.000000000000000D+00 0.174579934381325D+04
 0.174579934381325D+04 -.000000000000000D+00 -.000000000000000D+00 -.174579934381325D+04
 0.500380404634535D+03 0.380834169855498D+03 0.287176245690888D+03 0.851509737089437D+02
 0.158485630902670D+04 -.504976715771860D+03 -.228402820269647D+03 -.148478961084824D+04
 0.140636197396527D+04 0.124142545916362D+03 -.587734254212409D+02 0.139963863713929D+04
 0.000000000000000D+00 0.000000000000000D+00 -.000000000000000D+00 0.000000000000000D+00
 0.174579934381325D+04 0.000000000000000D+00 0.000000000000000D+00 0.174579934381325D+04
 0.174579934381325D+04 -.000000000000000D+00 -.000000000000000D+00 -.174579934381325D+04
 0.500385457417829D+03 0.380836267982621D+03 0.287175252364087D+03 0.851746289333960D+02
 0.158478445453025D+04 -.504970070551923D+03 -.228405966349305D+03 -.148471468966383D+04
 0.501602837038908D+03 0.413287737453389D+02 -.110617666629045D+02 0.499774925245839D+03
 0.904825938639508D+03 0.828050288239636D+02 -.477075193518779D+02 0.899765135484600D+03
0.385283229467D-02 0.000000000000D+00 0.000000000000D+00 0.117517957349D-03 0.000000000000D+00  6 -2 -1 25 -2 -1 21 0 0.32173207D+00 0.22421651D+00 0.35085661D+06 0.35085661D+06 0.35085661D+06 0.10795559D+01  1  2  2  4  6  5       -1 0.730108372455D-05 0.100000000000D+01
0.839327422844D-03 0.000000000000D+00 -.147958904856D-04 0.117517957349D-03 0.000000000000D+00  6 -2 -1 25 -2 -1 21 2 0.32173207D+00 0.22421651D+00 0.35085661D+06 0.35085661D+06 0.35085661D+06 0.10795559D+01  1  2  3  4  6  5       -1 0.185365493622D-05 0.100000000000D+01
-.288620705551D-02 0.000000000000D+00 0.000000000000D+00 0.117517957349D-03 0.000000000000D+00  6 -2 -1 25 -2 -1 21 2 0.32173207D+00 0.22421651D+00 0.35085661D+06 0.35085661D+06 0.35085661D+06 0.10795559D+01  1  2 15  4  6  5       -1 -.637418939237D-05 0.100000000000D+01
0.481929956565D-08 0.000000000000D+00 0.000000000000D+00 0.117517957349D-03 0.000000000000D+00  6 -2 -1 25 -2 -1 21 2 0.32173207D+00 0.22421651D+00 0.35144472D+06 0.35144472D+06 0.35144472D+06 0.10795028D+01  1  2 12  4  6  5       -1 0.106403297295D-10 0.100000000000D+01
0.187625884160D+01 0.000000000000D+00 0.000000000000D+00 0.117517957349D-03 0.000000000000D+00  6 -2 -1 25 -2 -1 21 2 0.32173207D+00 0.22421651D+00 0.35144472D+06 0.35144472D+06 0.35144472D+06 0.10795028D+01  1  2 12  4  6  5       -1 0.414251333841D-02 0.100000000000D+01
-.190220512675D+01 0.000000000000D+00 0.000000000000D+00 0.117517957349D-03 0.000000000000D+00  6 -2 -1 25 -2 -1 21 2 0.32173207D+00 0.22421651D+00 0.35085661D+06 0.35085661D+06 0.35085661D+06 0.10795559D+01  1  2  5  4  6  5       -1 -.420102075418D-02 0.100000000000D+01
  </mgrwgt>
  </event>
  <event>
  5     66 0.14393686E-05 0.38976775E+02 0.75467711E-02 0.93414627E-01
       -2 -1    0    0    0  501 0.00000000E+00 0.00000000E+00 0.10464785E+04 0.10464786E+04 0.32000000E+00 0.0000E+00 0.9000E+01
       -1 -1    0    0    0  502 -.00000000E+00 -.00000000E+00 -.20702528E+04 0.20702528E+04 0.32000000E+00 0.0000E+00 0.9000E+01
       25  1    1    2    0    0 -.42406942E+03 -.27201672E+03 -.59596476E+02 0.52249852E+03 0.12500000E+03 0.0000E+00 0.9000E+01
       -2  1    1    2    0  502 -.38615490E+02 -.52699082E+01 -.16897058E+04 0.16901553E+04 0.32000000E+00 0.0000E+00 0.9000E+01
       -1  1    1    2    0  501 0.46268491E+03 0.27728663E+03 0.72552806E+03 0.90407758E+03 0.32000000E+00 0.0000E+00 0.9000E+01
#aMCatNLO 1  0  0  5  4 0.18351587D+03 0.00000000D+00  -5  6  0 0.00000000D+00 0.00000000D+00 0.00000000D+00 0.00000000D+00 0.00000000D+00
  <mgrwgt>
 0.3211041384D-02    6    2    0
 0.147189509699794D+04 0.000000000000000D+00 0.000000000000000D+00 0.147189509699794D+04
 0.147189509699794D+04 -.000000000000000D+00 -.000000000000000D+00 -.147189509699794D+04
 0.532465722374445D+03 -.424048744190767D+03 -.272005908368583D+03 0.118702122418072D+03
 0.120185979293782D+04 -.386188128394701D+02 -.527032161698696D+01 -.120122761077385D+04
 0.120946467868362D+04 0.462667557030238D+03 0.277276229985570D+03 0.108252548835578D+04
 0.000000000000000D+00 0.000000000000000D+00 0.000000000000000D+00 0.000000000000000D+00
 0.147189509699794D+04 0.000000000000000D+00 0.000000000000000D+00 0.147189509699794D+04
 0.147189509699794D+04 -.000000000000000D+00 -.000000000000000D+00 -.147189509699794D+04
 0.527092128705588D+03 -.413651432317081D+03 -.265774809181891D+03 0.143029212015395D+03
 0.114742620721156D+04 -.155655560501977D+02 0.854547340535768D+01 -.114728879945070D+04
 0.107545767165799D+04 0.243271647629759D+03 0.311737727077248D+03 0.100012384158376D+04
 0.193814186420739D+03 0.185945340737520D+03 -.545083913007147D+02 0.413574585154927D+01
0.768429619761D+00 0.000000000000D+00 0.000000000000D+00 0.602160362484D-03 0.000000000000D+00  6 -2 -1 25 -2 -1 21 0 0.16099670D+00 0.31850043D+00 0.30109061D+06 0.30109061D+06 0.30109061D+06 0.10844353D+01  1  2  2  4  6  5       -1 0.270662232963D-02 0.100000000000D+01
0.471973527504D+00 0.000000000000D+00 -.295097207205D-02 0.602160362484D-03 0.000000000000D+00  6 -2 -1 25 -2 -1 21 2 0.16099670D+00 0.31850043D+00 0.30109061D+06 0.30109061D+06 0.30109061D+06 0.10844353D+01  1  2  3  4  6  5       -1 0.195500776701D-02 0.100000000000D+01
-.543934282559D+00 0.000000000000D+00 0.000000000000D+00 0.602160362484D-03 0.000000000000D+00  6 -2 -1 25 -2 -1 21 2 0.16099670D+00 0.31850043D+00 0.30109061D+06 0.30109061D+06 0.30109061D+06 0.10844353D+01  1  2 15  4  6  5       -1 -.225308345739D-02 0.100000000000D+01
-.486575583112D-01 0.000000000000D+00 0.000000000000D+00 0.602160362484D-03 0.000000000000D+00  6 -2 -1 25 -2 -1 21 2 0.16099670D+00 0.31850043D+00 0.30109061D+06 0.30109061D+06 0.30109061D+06 0.10844353D+01  1  2  4  4  6  5       -1 -.201549237147D-03 0.100000000000D+01
-.140197849822D+01 0.000000000000D+00 0.000000000000D+00 0.602160362484D-03 0.000000000000D+00  6 -2 -1 25 -2 -1 21 2 0.16099670D+00 0.31850043D+00 0.30109061D+06 0.30109061D+06 0.30109061D+06 0.10844353D+01  1  2  5  4  6  5       -1 -.580727242840D-02 0.100000000000D+01
0.164437251222D+01 0.000000000000D+00 -.000000000000D+00 0.602160362484D-03 0.000000000000D+00  6 -2 -1 25 -2 -1 21 2 0.16099670D+00 0.31850043D+00 0.30109061D+06 0.30109061D+06 0.30109061D+06 0.10844353D+01  1  2  6  4  6  5       -1 0.681131641059D-02 0.100000000000D+01
  </mgrwgt>
  </event>
  <event>
  5     66 0.14393686E-05 0.23286237E+03 0.75467711E-02 0.94251755E-01
       -2 -1    0    0    0  501 0.00000000E+00 0.00000000E+00 0.74029363E+03 0.74029370E+03 0.32000000E+00 0.0000E+00 0.9000E+01
       -1 -1    0    0    0  502 0.00000000E+00 0.00000000E+00 -.70843889E+03 0.70843896E+03 0.32000000E+00 0.0000E+00 0.9000E+01
       25  1    1    2    0    0 0.21495435E+03 -.44132205E+03 0.69987407E+02 0.51136460E+03 0.12500000E+03 0.0000E+00 0.9000E+01
       -2  1    1    2    0  502 -.18875859E+03 0.20987722E+03 -.41048026E+03 0.49816905E+03 0.32000000E+00 0.0000E+00 0.9000E+01
       -1  1    1    2    0  501 -.26195752E+02 0.23144483E+03 0.37234760E+03 0.43919900E+03 0.32000000E+00 0.0000E+00 0.9000E+01
#aMCatNLO 1  0  0  5  1 0.37277580D+02 0.00000000D+00  -5  6  0 0.00000000D+00 0.00000000D+00 0.00000000D+00 0.00000000D+00 0.00000000D+00
  <mgrwgt>
 0.8721843839D-04    8    2    0
 0.724191200564957D+03 0.000000000000000D+00 0.000000000000000D+00 0.724191200564957D+03
 0.724191200564957D+03 -.000000000000000D+00 -.000000000000000D+00 -.724191200564957D+03
 0.509975850701778D+03 0.214986401097750D+03 -.441317315092047D+03 0.589087688038504D+02
 0.507402064080252D+03 -.188797420610870D+03 0.209932312351466D+03 -.421593184046362D+03
 0.431004486347884D+03 -.261889804868797D+02 0.231385002740582D+03 0.362684415242511D+03
 0.000000000000000D+00 0.000000000000000D+00 0.000000000000000D+00 0.000000000000000D+00
 0.724191200564957D+03 0.000000000000000D+00 0.000000000000000D+00 0.724191200564957D+03
 0.724191200564957D+03 -.000000000000000D+00 -.000000000000000D+00 -.724191200564957D+03
 0.508442077713356D+03 0.214747261273762D+03 -.439204465801999D+03 0.622205543568486D+02
 0.505634973832592D+03 -.189035296920959D+03 0.212033998237610D+03 -.418298896570460D+03
 0.802506120252158D+02 -.412238630554970D+02 0.409470088637631D+02 0.553542799638320D+02
 0.354054737558750D+03 0.155118987026938D+02 0.186223458700626D+03 0.300724062249779D+03
0.111459277593D-03 0.000000000000D+00 0.000000000000D+00 0.879822382283D-06 0.000000000000D+00  6 -2 -1 25 -2 -1 21 0 0.11389134D+00 0.10899061D+00 0.26100079D+06 0.26100079D+06 0.26100079D+06 0.10890550D+01  1  2  2  4  6  5       -1 0.590008588753D-04 0.100000000000D+01
0.736391816537D-05 0.000000000000D+00 -.428032973860D-06 0.879822382283D-06 0.000000000000D+00  6 -2 -1 25 -2 -1 21 2 0.11389134D+00 0.10899061D+00 0.26100079D+06 0.26100079D+06 0.26100079D+06 0.10890550D+01  1  2  3  4  6  5       -1 0.462328492008D-05 0.100000000000D+01
-.743479842159D-04 0.000000000000D+00 0.000000000000D+00 0.879822382283D-06 0.000000000000D+00  6 -2 -1 25 -2 -1 21 2 0.11389134D+00 0.10899061D+00 0.26100079D+06 0.26100079D+06 0.26100079D+06 0.10890550D+01  1  2 15  4  6  5       -1 -.466778563456D-04 0.100000000000D+01
0.242916550036D-08 0.000000000000D+00 0.000000000000D+00 0.879822382283D-06 0.000000000000D+00  6 -2 -1 25 -2 -1 21 2 0.11389134D+00 0.10899061D+00 0.26711201D+06 0.26711201D+06 0.26711201D+06 0.10883026D+01  1  2 12  4  6  5       -1 0.152114268297D-08 0.100000000000D+01
0.120847065885D-03 0.000000000000D+00 0.000000000000D+00 0.879822382283D-06 0.000000000000D+00  6 -2 -1 25 -2 -1 21 2 0.11389134D+00 0.10899061D+00 0.26711201D+06 0.26711201D+06 0.26711201D+06 0.10883026D+01  1  2 12  4  6  5       -1 0.756743951786D-04 0.100000000000D+01
-.121666489007D-03 0.000000000000D+00 0.000000000000D+00 0.879822382283D-06 0.000000000000D+00  6 -2 -1 25 -2 -1 21 2 0.11389134D+00 0.10899061D+00 0.26100079D+06 0.26100079D+06 0.26100079D+06 0.10890550D+01  1  2  4  4  6  5       -1 -.763858086517D-04 0.100000000000D+01
-.120504284338D-03 0.000000000000D+00 0.000000000000D+00 0.879822382283D-06 0.000000000000D+00  6 -2 -1 25 -2 -1 21 2 0.11389134D+00 0.10899061D+00 0.26100079D+06 0.26100079D+06 0.26100079D+06 0.10890550D+01  1  2  5  4  6  5       -1 -.756561422971D-04 0.100000000000D+01
0.233563714348D-03 0.000000000000D+00 -.000000000000D+00 0.879822382283D-06 0.000000000000D+00  6 -2 -1 25 -2 -1 21 2 0.11389134D+00 0.10899061D+00 0.26100079D+06 0.26100079D+06 0.26100079D+06 0.10890550D+01  1  2  6  4  6  5       -1 0.146638185566D-03 0.100000000000D+01
  </mgrwgt>
  </event>
  <event>
  6     66 0.14393686E-05 0.44049804E+02 0.75467711E-02 0.95354414E-01
       -2 -1    0    0    0  501 0.00000000E+00 0.00000000E+00 0.30906754E+03 0.30906771E+03 0.32000000E+00 0.0000E+00 0.9000E+01
       -1 -1    0    0    0  502 -.00000000E+00 -.00000000E+00 -.76888737E+03 0.76888743E+03 0.32000000E+00 0.0000E+00 0.9000E+01
       25  1    1    2    0    0 -.41896045E+03 -.17315904E+03 -.15697698E+03 0.49576071E+03 0.12500000E+03 0.0000E+00 0.9000E+01
       -2  1    1    2    0  503 0.28438565E+03 0.93227696E+02 -.24477196E+03 0.38662645E+03 0.32000000E+00 0.0000E+00 0.9000E+01
       -1  1    1    2    0  501 -.59373507E+01 0.98216992E+01 0.17787922E+02 0.21171454E+02 0.32000000E+00 0.0000E+00 0.9000E+01
       21  1    1    2  503  502 0.14051215E+03 0.70109646E+02 -.75858812E+02 0.17439652E+03 0.75000000E+00 0.0000E+00 0.9000E+01
#aMCatNLO 2  0  0  4  2 0.32418598D+02 0.00000000D+00  -5  6  0 0.00000000D+00 0.00000000D+00 0.00000000D+00 0.00000000D+00 0.00000000D+00
  <mgrwgt>
 0.1718945504D-02    1    2    0
 0.487481541423817D+03 0.000000000000000D+00 0.000000000000000D+00 0.487481541423817D+03
 0.487481541423817D+03 -.000000000000000D+00 -.000000000000000D+00 -.487481541423817D+03
 0.476652307160378D+03 -.421399517884584D+03 -.174033801539177D+03 0.608859932149766D+02
 0.466762784335929D+03 0.427433435455284D+03 0.164358825902154D+03 -.903013368892624D+02
 0.315479913513259D+02 -.603391757070018D+01 0.967497563702293D+01 0.294153436742857D+02
 0.000000000000000D+00 0.000000000000000D+00 0.000000000000000D+00 0.000000000000000D+00
 0.487481541423817D+03 0.000000000000000D+00 0.000000000000000D+00 0.487481541423817D+03
 0.487481541423817D+03 -.000000000000000D+00 -.000000000000000D+00 -.487481541423817D+03
 0.474267368446999D+03 -.419130862330123D+03 -.173161446846311D+03 0.604067077578368D+02
 0.311922697818240D+03 0.284303439880960D+03 0.932127163964282D+02 -.881970123533766D+02
 0.315077277474410D+02 -.588348245925656D+01 0.973282169266665D+01 0.293835621369711D+02
 0.157265288834954D+03 0.140710904908420D+03 0.702159087572158D+02 -.159325754143131D+01
0.475632422979D-03 0.000000000000D+00 0.000000000000D+00 0.419031790092D-06 0.100879486931D-08  6 -2 -1 25 -2 -1 21 2 0.47548870D-01 0.11829038D+00 0.22006833D+06 0.22006833D+06 0.22006833D+06 0.10946501D+01  1  2  1  3  6  4       -2 0.171894550368D-02 0.100000000000D+01
  </mgrwgt>
  </event>
  <event>
  6     66 0.14393686E-05 0.40356798E+02 0.75467711E-02 0.93377265E-01
       -2 -1    0    0    0  501 0.00000000E+00 0.00000000E+00 0.57783413E+03 0.57783422E+03 0.32000000E+00 0.0000E+00 0.9000E+01
       21 -1    0    0  503  502 0.00000000E+00 0.00000000E+00 -.80262967E+03 0.80263002E+03 0.75000000E+00 0.0000E+00 0.9000E+01
       25  1    1    2    0    0 -.28613398E+03 -.41154986E+03 0.16028941E+03 0.54089152E+03 0.12500000E+03 0.0000E+00 0.9000E+01
        1  1    1    2  503    0 -.40570516E+01 0.13739510E+02 -.66206443E+01 0.15785092E+02 0.32000000E+00 0.0000E+00 0.9000E+01
       -2  1    1    2    0  502 0.31349906E+03 0.43909158E+03 -.47333901E+03 0.71772766E+03 0.32000000E+00 0.0000E+00 0.9000E+01
       -1  1    1    2    0  501 -.23308031E+02 -.41281234E+02 0.94874708E+02 0.10605997E+03 0.32000000E+00 0.0000E+00 0.9000E+01
#aMCatNLO 2  0  0  2  4 0.14325983D+02 0.00000000D+00  -5  6  0 0.00000000D+00 0.00000000D+00 0.00000000D+00 0.00000000D+00 0.00000000D+00
  <mgrwgt>
 0.6138713211D-04    1    2    0
 0.673524993094055D+03 0.000000000000000D+00 0.000000000000000D+00 0.673524993094055D+03
 0.673524993094055D+03 0.000000000000000D+00 0.000000000000000D+00 -.673524993094055D+03
 0.570825802953795D+03 -.287966376497543D+03 -.405878267315660D+03 0.250110566441238D+03
 0.000000000000000D+00 -.000000000000000D+00 0.000000000000000D+00 -.000000000000000D+00
 0.654016659135716D+03 0.311594336247047D+03 0.445825147364867D+03 -.363162082303343D+03
 0.122207524098599D+03 -.236279597495032D+02 -.399468800492067D+02 0.113051515862105D+03
 0.678945416763192D+03 0.000000000000000D+00 0.000000000000000D+00 0.678945416763192D+03
 0.683095830172794D+03 0.000000000000000D+00 0.000000000000000D+00 -.683095830172794D+03
 0.574130622924449D+03 -.286242232644803D+03 -.411717209968902D+03 0.250110566441238D+03
 0.149150839185003D+02 -.405705155311023D+01 0.137395097991416D+02 -.415041340960193D+01
 0.650444821543203D+03 0.313558672349466D+03 0.439172775617876D+03 -.363162082303343D+03
 0.122550718549833D+03 -.232593881515525D+02 -.411950754481157D+02 0.113051515862105D+03
0.113926710312D-04 0.000000000000D+00 0.000000000000D+00 0.118188007000D-05 0.135079014453D-09  6 -2 21 25 1 -2 -1 2 0.88897369D-01 0.12348121D+00 0.31250589D+06 0.31250589D+06 0.31250589D+06 0.10832420D+01  1  2  1  6  4  2       -1 0.613871321085D-04 0.100000000000D+01
  </mgrwgt>
  </event>
  <event>
  5     66 0.14393686E-05 0.10728171E+03 0.75467711E-02 0.88441438E-01
       -2 -1    0    0    0  501 0.00000000E+00 0.00000000E+00 0.28181118E+04 0.28181118E+04 0.32000000E+00 0.0000E+00 0.9000E+01
       -1 -1    0    0    0  502 0.00000000E+00 0.00000000E+00 -.81526072E+03 0.81526078E+03 0.32000000E+00 0.0000E+00 0.9000E+01
       25  1    1    2    0    0 -.13992874E+03 0.77506788E+03 0.51989385E+03 0.95195845E+03 0.12500000E+03 0.0000E+00 0.9000E+01
       -2  1    1    2    0  502 0.14747490E+03 -.66804175E+03 -.40194142E+03 0.79346432E+03 0.32000000E+00 0.0000E+00 0.9000E+01
       -1  1    1    2    0  501 -.75461588E+01 -.10702613E+03 0.18848986E+04 0.18879498E+04 0.32000000E+00 0.0000E+00 0.9000E+01
#aMCatNLO 1  0  0  1  2 0.33330822D+03 0.00000000D+00  -5  6  0 0.00000000D+00 0.00000000D+00 0.00000000D+00 0.00000000D+00 0.00000000D+00
  <mgrwgt>
 0.1053739932D-03    4    2    0
 0.151574930810453D+04 0.000000000000000D+00 0.000000000000000D+00 0.151574930810453D+04
 0.151574930810453D+04 0.000000000000000D+00 0.000000000000000D+00 -.151574930810453D+04
 0.797536256752407D+03 -.139943503040219D+03 0.775127090874316D+03 -.573496156859039D+01
 0.121659001399523D+04 0.147488950353077D+03 -.668111054380972D+03 -.100596515381529D+04
 0.101737234546141D+04 -.754544731285808D+01 -.107016036493344D+03 0.101170011538388D+04
 0.000000000000000D+00 -.000000000000000D+00 -.000000000000000D+00 -.000000000000000D+00
 0.160536588725743D+04 0.000000000000000D+00 0.000000000000000D+00 0.160536588725743D+04
 0.186997233869600D+04 0.000000000000000D+00 0.000000000000000D+00 -.186997233869600D+04
 0.883981837220636D+03 -.125119840885690D+03 0.866089501245984D+03 -.573496156859039D+01
 0.115402835724870D+04 0.168387474108839D+03 -.539871482120287D+03 -.100596515381529D+04
 0.101175671920885D+04 0.103426288430975D+02 0.275053178752886D+01 0.101170011538388D+04
 0.425571312275246D+03 -.536102620662465D+02 -.328968550913226D+03 -.264606451438577D+03
0.947681732229D-01 0.000000000000D+00 0.000000000000D+00 0.216566712820D-04 0.000000000000D+00  6 -2 -1 25 -2 -1 21 0 0.43355566D+00 0.12542473D+00 0.63122567D+06 0.63122567D+06 0.63122567D+06 0.10614298D+01  1  2  2  1  6  1       -2 0.173796548417D-03 0.100000000000D+01
0.304561925309D-01 0.000000000000D+00 -.363934738209D-03 0.216566712820D-04 0.000000000000D+00  6 -2 -1 25 -2 -1 21 2 0.43355566D+00 0.12542473D+00 0.63122567D+06 0.63122567D+06 0.63122567D+06 0.10614298D+01  1  2  3  1  6  1       -2 0.629269637668D-04 0.100000000000D+01
-.596180050409D-01 0.000000000000D+00 0.000000000000D+00 0.216566712820D-04 0.000000000000D+00  6 -2 -1 25 -2 -1 21 2 0.43355566D+00 0.12542473D+00 0.63122567D+06 0.63122567D+06 0.63122567D+06 0.10614298D+01  1  2 15  1  6  1       -2 -.123179548437D-03 0.100000000000D+01
-.395420628877D-02 0.000000000000D+00 0.000000000000D+00 0.216566712820D-04 0.000000000000D+00  6 -2 -1 25 -2 -1 21 2 0.43355566D+00 0.12542473D+00 0.63122567D+06 0.63122567D+06 0.63122567D+06 0.10614298D+01  1  2  4  1  6  1       -2 -.816997054401D-05 0.100000000000D+01
  </mgrwgt>
  </event>
  <event>
  5     66 -.14393686E-05 0.16076837E+02 0.75467711E-02 0.93063854E-01
       -2 -1    0    0    0  501 0.00000000E+00 0.00000000E+00 0.18749856E+03 0.18749883E+03 0.32000000E+00 0.0000E+00 0.9000E+01
       -1 -1    0    0    0  502 -.00000000E+00 -.00000000E+00 -.20957666E+04 0.20957667E+04 0.32000000E+00 0.0000E+00 0.9000E+01
       25  1    1    2    0    0 0.47407893E+03 0.28597159E+03 -.76233321E+03 0.95042491E+03 0.12500000E+03 0.0000E+00 0.9000E+01
       -2  1    1    2    0  502 -.49007530E+03 -.28396957E+03 -.11722861E+04 0.13019475E+04 0.32000000E+00 0.0000E+00 0.9000E+01
       -1  1    1    2    0  501 0.15996369E+02 -.20020145E+01 0.26351230E+02 0.30893067E+02 0.32000000E+00 0.0000E+00 0.9000E+01
#aMCatNLO 1  0  0  5  2 0.15967885D+02 0.00000000D+00  -5  6  0 0.00000000D+00 0.00000000D+00 0.00000000D+00 0.00000000D+00 0.00000000D+00
  <mgrwgt>
 -.2319093919D-03    1    2    0
 0.626860077948561D+03 0.000000000000000D+00 0.000000000000000D+00 0.626860077948561D+03
 0.626860077948561D+03 -.000000000000000D+00 -.000000000000000D+00 -.626860077948561D+03
 0.570744344059711D+03 0.474228895028042D+03 0.286041288588673D+03 0.584075561820882D+02
 0.586870303195520D+03 -.490181281670725D+03 -.284044778733960D+03 -.153158831108176D+03
 0.961055086418919D+02 0.159523866426830D+02 -.199650985471250D+01 0.947512749260882D+02
 0.000000000000000D+00 -.000000000000000D+00 0.000000000000000D+00 0.000000000000000D+00
 0.626860077948561D+03 0.000000000000000D+00 0.000000000000000D+00 0.626860077948561D+03
 0.626860077948561D+03 -.000000000000000D+00 -.000000000000000D+00 -.626860077948561D+03
 0.578655627468579D+03 0.479400230911592D+03 0.285394073643048D+03 0.891233781473359D+02
 0.575447495441420D+03 -.484951826399216D+03 -.284699267571161D+03 -.122097801480256D+03
 0.598057602967792D+02 0.419128199775871D+02 0.137173933611295D+02 0.403965048683452D+02
 0.398112726903455D+02 -.363612244899635D+02 -.144121994330160D+02 -.742208153542497D+01
-.140428483954D-02 0.000000000000D+00 0.000000000000D+00 0.151914354735D-05 0.000000000000D+00  6 -2 -1 25 -2 -1 21 2 0.28845955D-01 0.32242566D+00 0.33083046D+06 0.33083046D+06 0.33083046D+06 0.10814226D+01  1  2 14  4  6  5       -1 -.231909391867D-03 0.100000000000D+01
  </mgrwgt>
  </event>
  <event>
  5     66 0.14393686E-05 0.13800915E+03 0.75467711E-02 0.92531866E-01
       -2 -1    0    0    0  501 0.00000000E+00 0.00000000E+00 0.16464419E+04 0.16464420E+04 0.32000000E+00 0.0000E+00 0.9000E+01
       -1 -1    0    0    0  502 0.00000000E+00 0.00000000E+00 -.58664535E+03 0.58664544E+03 0.32000000E+00 0.0000E+00 0.9000E+01
       25  1    1    2    0    0 -.58081011E+03 0.13845910E+03 0.24936796E+03 0.65903011E+03 0.12500000E+03 0.0000E+00 0.9000E+01
       -2  1    1    2    0  502 0.45004532E+03 -.94266032E+02 -.23719045E+03 0.51738408E+03 0.32000000E+00 0.0000E+00 0.9000E+01
       -1  1    1    2    0  501 0.13076479E+03 -.44193069E+02 0.10476191E+04 0.10566732E+04 0.32000000E+00 0.0000E+00 0.9000E+01
#aMCatNLO 1  0  0  4  2 0.89981232D+01 0.00000000D+00  -5  6  0 0.00000000D+00 0.00000000D+00 0.00000000D+00 0.00000000D+00 0.00000000D+00
  <mgrwgt>
 0.7508815791D-04    9    2    0
 0.982790738328789D+03 0.000000000000000D+00 0.000000000000000D+00 0.982790738328789D+03
 0.982790738328789D+03 -.000000000000000D+00 -.000000000000000D+00 -.982790738328789D+03
 0.614308527233469D+03 -.580864635094874D+03 0.138469089453837D+03 -.719204671402909D+02
 0.715742997249287D+03 0.450120203331661D+03 -.942828994349503D+02 -.548443776095778D+03
 0.635529952174822D+03 0.130744431763213D+03 -.441861900188868D+02 0.620364243236069D+03
 0.000000000000000D+00 0.000000000000000D+00 0.000000000000000D+00 0.000000000000000D+00
 0.982790738328789D+03 0.000000000000000D+00 0.000000000000000D+00 0.982790738328789D+03
 0.982790738328789D+03 -.000000000000000D+00 -.000000000000000D+00 -.982790738328789D+03
 0.614270656231729D+03 -.580820084000052D+03 0.138459757710090D+03 -.719747499085215D+02
 0.342713704787936D+03 0.208492434138011D+03 -.451950293240947D+02 -.268218190436581D+03
 0.635485290257865D+03 0.130790521686718D+03 -.441958440881568D+02 0.620308085499758D+03
 0.373111825380047D+03 0.241537128175323D+03 -.490688842978387D+02 -.280115145154655D+03
0.155975320074D-04 0.000000000000D+00 0.000000000000D+00 0.479968536864D-05 0.000000000000D+00  6 -2 -1 25 -2 -1 21 0 0.25329877D+00 0.90253140D-01 0.36480490D+06 0.36480490D+06 0.36480490D+06 0.10783231D+01  1  2  2  3  6  4       -2 0.114405935990D-05 0.100000000000D+01
0.270690196734D-05 0.000000000000D+00 -.598986298330D-07 0.479968536864D-05 0.000000000000D+00  6 -2 -1 25 -2 -1 21 2 0.25329877D+00 0.90253140D-01 0.36480490D+06 0.36480490D+06 0.36480490D+06 0.10783231D+01  1  2  3  3  6  4       -2 0.230867599436D-06 0.100000000000D+01
-.101165430688D-04 0.000000000000D+00 0.000000000000D+00 0.479968536864D-05 0.000000000000D+00  6 -2 -1 25 -2 -1 21 2 0.25329877D+00 0.90253140D-01 0.36480490D+06 0.36480490D+06 0.36480490D+06 0.10783231D+01  1  2 15  3  6  4       -2 -.862824749865D-06 0.100000000000D+01
0.417583402191D-08 0.000000000000D+00 0.000000000000D+00 0.479968536864D-05 0.000000000000D+00  6 -2 -1 25 -2 -1 21 2 0.25329877D+00 0.90253140D-01 0.36475618D+06 0.36475618D+06 0.36475618D+06 0.10783273D+01  1  2 12  3  6  4       -2 0.356156787894D-09 0.100000000000D+01
0.435567237454D-02 0.000000000000D+00 0.000000000000D+00 0.479968536864D-05 0.000000000000D+00  6 -2 -1 25 -2 -1 21 2 0.25329877D+00 0.90253140D-01 0.36475618D+06 0.36475618D+06 0.36475618D+06 0.10783273D+01  1  2 12  3  6  4       -2 0.371495196862D-03 0.100000000000D+01
-.621517366965D-02 0.000000000000D+00 0.000000000000D+00 0.479968536864D-05 0.000000000000D+00  6 -2 -1 25 -2 -1 21 2 0.25329877D+00 0.90253140D-01 0.36480490D+06 0.36480490D+06 0.36480490D+06 0.10783231D+01  1  2  4  3  6  4       -2 -.530082818847D-03 0.100000000000D+01
-.435802056827D-02 0.000000000000D+00 0.000000000000D+00 0.479968536864D-05 0.000000000000D+00  6 -2 -1 25 -2 -1 21 2 0.25329877D+00 0.90253140D-01 0.36480490D+06 0.36480490D+06 0.36480490D+06 0.10783231D+01  1  2  5  3  6  4       -2 -.371689022738D-03 0.100000000000D+01
0.709105280302D-02 0.000000000000D+00 -.000000000000D+00 0.479968536864D-05 0.000000000000D+00  6 -2 -1 25 -2 -1 21 2 0.25329877D+00 0.90253140D-01 0.36480490D+06 0.36480490D+06 0.36480490D+06 0.10783231D+01  1  2  6  3  6  4       -2 0.604785233399D-03 0.100000000000D+01
0.786855278966D-06 0.000000000000D+00 0.000000000000D+00 0.479968536864D-05 0.101092488314D-06  6 -2 -1 25 -2 -1 21 2 0.25329877D+00 0.90253140D-01 0.36475618D+06 0.36475618D+06 0.36475618D+06 0.10783273D+01  1  2 11  3  6  4       -2 0.671108686848D-07 0.100000000000D+01
  </mgrwgt>
  </event>
  <event>
  5     66 0.14393686E-05 0.16095759E+02 0.75467711E-02 0.92241450E-01
       -4 -1    0    0    0  501 0.00000000E+00 0.00000000E+00 0.12919776E+04 0.12919785E+04 0.15500000E+01 0.0000E+00 0.9000E+01
       -3 -1    0    0    0  502 0.00000000E+00 0.00000000E+00 -.53396735E+03 0.53396758E+03 0.50000000E+00 0.0000E+00 0.9000E+01
       25  1    1    2    0    0 0.40059807E+03 0.22522934E+03 -.21673471E+03 0.52326476E+03 0.12500000E+03 0.0000E+00 0.9000E+01
       -4  1    1    2    0  502 -.10398925E+02 -.12317742E+02 -.12002421E+03 0.12111184E+03 0.15500000E+01 0.0000E+00 0.9000E+01
       -3  1    1    2    0  501 -.39019915E+03 -.21291159E+03 0.10947692E+04 0.11815695E+04 0.50000000E+00 0.0000E+00 0.9000E+01
#aMCatNLO 1  0  0  1  4 0.22210852D+03 0.00000000D+00  -5  6  0 0.00000000D+00 0.00000000D+00 0.00000000D+00 0.00000000D+00 0.00000000D+00
  <mgrwgt>
 0.2566940300D-03    7    4    0
 0.830587089936633D+03 0.000000000000000D+00 0.000000000000000D+00 0.830587089936633D+03
 0.830587089936633D+03 0.000000000000000D+00 0.000000000000000D+00 -.830587089936633D+03
 0.674558566322936D+03 0.400632478897819D+03 0.225234374030193D+03 -.477668664460074D+03
 0.187302783508349D+03 -.103856900549324D+02 -.122967846221233D+02 -.186609911955436D+03
 0.799312830041981D+03 -.390246788842887D+03 -.212937589408069D+03 0.664278576415510D+03
 0.000000000000000D+00 0.000000000000000D+00 -.000000000000000D+00 0.000000000000000D+00
 0.117965315272939D+04 0.000000000000000D+00 0.000000000000000D+00 0.117965315272939D+04
 0.895148994510550D+03 0.000000000000000D+00 0.000000000000000D+00 -.895148994510550D+03
 0.702680870932424D+03 0.373131063409589D+03 0.332778098567361D+03 -.477668664460074D+03
 0.188236724980388D+03 -.178846533984281D+02 0.170277586353813D+02 -.186609911955436D+03
 0.791980457599200D+03 -.422022540163417D+03 -.886791617486264D+02 0.664278576415510D+03
 0.391904093727927D+03 0.667761301522564D+02 -.261126695454116D+03 0.284504158218839D+03
 0.830587089936633D+03 0.000000000000000D+00 0.000000000000000D+00 0.830587089936633D+03
 0.830587089936633D+03 0.000000000000000D+00 0.000000000000000D+00 -.830587089936633D+03
 0.674558566322936D+03 0.400632478897819D+03 0.225234374030193D+03 -.477668664460074D+03
 0.000000000000000D+00 0.000000000000000D+00 -.000000000000000D+00 0.000000000000000D+00
 0.187302783508349D+03 -.103856900549324D+02 -.122967846221233D+02 -.186609911955436D+03
 0.799312830041981D+03 -.390246788842887D+03 -.212937589408069D+03 0.664278576415510D+03
 0.117965315272939D+04 0.000000000000000D+00 0.000000000000000D+00 0.117965315272939D+04
 0.895148994510550D+03 0.000000000000000D+00 0.000000000000000D+00 -.895148994510550D+03
 0.702680870932424D+03 0.373131063409589D+03 0.332778098567361D+03 -.477668664460074D+03
 0.391904093727927D+03 0.667761301522564D+02 -.261126695454116D+03 0.284504158218839D+03
 0.188236724980388D+03 -.178846533984281D+02 0.170277586353813D+02 -.186609911955436D+03
 0.791980457599200D+03 -.422022540163417D+03 -.886791617486264D+02 0.664278576415510D+03
0.410902321155D-02 0.000000000000D+00 0.000000000000D+00 0.598362814414D-04 0.000000000000D+00  6 -4 -3 25 -4 -3 21 0 0.19876587D+00 0.82148912D-01 0.21947236D+06 0.21947236D+06 0.21947236D+06 0.10947398D+01  1  2  2  1  6  1       -4 0.129795477847D-03 0.100000000000D+01
0.197934543851D-02 0.000000000000D+00 -.157797310630D-04 0.598362814414D-04 0.000000000000D+00  6 -4 -3 25 -4 -3 21 2 0.19876587D+00 0.82148912D-01 0.21947236D+06 0.21947236D+06 0.21947236D+06 0.10947398D+01  1  2  3  1  6  1       -4 0.749314904107D-04 0.100000000000D+01
-.287646110542D-02 0.000000000000D+00 0.000000000000D+00 0.598362814414D-04 0.000000000000D+00  6 -4 -3 25 -4 -3 21 2 0.19876587D+00 0.82148912D-01 0.21947236D+06 0.21947236D+06 0.21947236D+06 0.10947398D+01  1  2 15  1  6  1       -4 -.108893330868D-03 0.100000000000D+01
-.118383703808D-02 0.000000000000D+00 0.000000000000D+00 0.598362814414D-04 0.000000000000D+00  6 -4 -3 25 -4 -3 21 2 0.19876587D+00 0.82148912D-01 0.21947236D+06 0.21947236D+06 0.21947236D+06 0.10947398D+01  1  2  4  1  6  1       -4 -.448161659613D-04 0.100000000000D+01
-.812968473301D-02 0.000000000000D+00 -.279995823361D-02 0.598362814414D-04 0.000000000000D+00  6 -4 -3 25 -4 -3 21 2 0.29078926D+00 0.82148912D-01 0.21947236D+06 0.21947236D+06 0.21947236D+06 0.10947398D+01  1  2  5  1  6  1       -4 -.576621477477D-04 0.100000000000D+01
0.874544234921D-02 0.000000000000D+00 0.260884346564D-02 0.598362814414D-04 0.000000000000D+00  6 -4 -3 25 -4 -3 21 2 0.19876587D+00 0.82148912D-01 0.21947236D+06 0.21947236D+06 0.21947236D+06 0.10947398D+01  1  2  6  1  6  1       -4 0.331073604828D-03 0.100000000000D+01
-.283870024658D-03 0.000000000000D+00 -.128491554042D-03 0.598362814414D-04 0.000000000000D+00  6 21 -3 25 4 -4 -3 2 0.29078926D+00 0.82148912D-01 0.21947236D+06 0.21947236D+06 0.21947236D+06 0.10947398D+01  3  4  5  5  4  1       -4 -.677348985350D-04 0.100000000000D+01
  </mgrwgt>
  </event>
  <event>
  5     66 0.14393686E-05 0.83399968E+02 0.75467711E-02 0.94881330E-01
       -2 -1    0    0    0  501 0.00000000E+00 0.00000000E+00 0.18952336E+04 0.18952336E+04 0.32000000E+00 0.0000E+00 0.9000E+01
       -1 -1    0    0    0  502 0.00000000E+00 0.00000000E+00 -.35943543E+03 0.35943557E+03 0.32000000E+00 0.0000E+00 0.9000E+01
       25  1    1    2    0    0 -.22108598E+03 -.41028208E+03 0.12737415E+04 0.13620766E+04 0.12500000E+03 0.0000E+00 0.9000E+01
       -2  1    1    2    0  502 0.14094010E+03 0.38686204E+03 -.17518086E+03 0.44745367E+03 0.32000000E+00 0.0000E+00 0.9000E+01
       -1  1    1    2    0  501 0.80145887E+02 0.23420042E+02 0.43723757E+03 0.44513892E+03 0.32000000E+00 0.0000E+00 0.9000E+01
#aMCatNLO 1  0  0  1  4 0.22210852D+03 0.00000000D+00  -5  6  0 0.00000000D+00 0.00000000D+00 0.00000000D+00 0.00000000D+00 0.00000000D+00
  <mgrwgt>
 0.1242052431D-03    1    2    0
 0.825357072083548D+03 0.000000000000000D+00 0.000000000000000D+00 0.825357072083548D+03
 0.825357072083548D+03 0.000000000000000D+00 0.000000000000000D+00 -.825357072083548D+03
 0.675532271194214D+03 -.221029418701512D+03 -.410331822421932D+03 0.472750083026096D+03
 0.774212321887329D+03 0.140977316044239D+03 0.386939185674546D+03 -.655597576499983D+03
 0.200969551085554D+03 0.800521026572729D+02 0.233926367473862D+02 0.182847493473887D+03
 0.000000000000000D+00 0.000000000000000D+00 0.000000000000000D+00 -.000000000000000D+00
 0.133042742228725D+04 0.000000000000000D+00 0.000000000000000D+00 0.133042742228725D+04
 0.271541580338012D+04 0.000000000000000D+00 0.000000000000000D+00 -.271541580338012D+04
 0.107728905005689D+04 -.838231659482298D+03 -.467762483973280D+03 0.472750083026096D+03
 0.853087357412174D+03 -.432026330310667D+03 0.333621202836591D+03 -.655597576499983D+03
 0.192235717947193D+03 -.584030668408942D+02 0.105093847853960D+02 0.182847493473887D+03
 0.192323110025111D+04 0.132866105663386D+04 0.123631896351293D+03 -.138498838109287D+04
0.920557737792D-03 0.000000000000D+00 0.000000000000D+00 0.322025961880D-05 0.000000000000D+00  6 -2 -1 25 -2 -1 21 2 0.29157441D+00 0.55297772D-01 0.23900735D+06 0.23900735D+06 0.23900735D+06 0.10919313D+01  1  2 14  1  6  1       -2 0.124205243093D-03 0.100000000000D+01
  </mgrwgt>
  </event>
  <event>
  5     66 0.14393686E-05 0.71596898E+02 0.75467711E-02 0.94782847E-01
       -4 -1    0    0    0  501 0.00000000E+00 0.00000000E+00 0.21891974E+04 0.21891980E+04 0.15500000E+01 0.0000E+00 0.9000E+01
       -3 -1    0    0    0  502 0.00000000E+00 0.00000000E+00 -.71187299E+03 0.71187317E+03 0.50000000E+00 0.0000E+00 0.9000E+01
       25  1    1    2    0    0 -.24765352E+03 0.40185852E+03 0.38180136E+03 0.61985468E+03 0.12500000E+03 0.0000E+00 0.9000E+01
       -4  1    1    2    0  502 -.18874242E+02 -.69058471E+02 -.56362676E+03 0.56815741E+03 0.15500000E+01 0.0000E+00 0.9000E+01
       -3  1    1    2    0  501 0.26652776E+03 -.33280005E+03 0.16591498E+04 0.17130591E+04 0.50000000E+00 0.0000E+00 0.9000E+01
#aMCatNLO 1  0  0  2  4 0.66350364D+02 0.00000000D+00  -5  6  0 0.00000000D+00 0.00000000D+00 0.00000000D+00 0.00000000D+00 0.00000000D+00
  <mgrwgt>
 0.2845835820D-03    7    4    0
 0.124837156794131D+04 0.000000000000000D+00 0.000000000000000D+00 0.124837156794131D+04
 0.124837156794131D+04 0.000000000000000D+00 0.000000000000000D+00 -.124837156794131D+04
 0.494324168617830D+03 -.247644496330187D+03 0.401853744109371D+03 0.769230489668503D+02
 0.993695128328620D+03 -.188749040298980D+02 -.690641286707913D+02 -.991112451840274D+03
 0.100872383893617D+04 0.266519400360085D+03 -.332789615438580D+03 0.914189402873424D+03
 0.000000000000000D+00 -.000000000000000D+00 -.000000000000000D+00 -.000000000000000D+00
 0.131652111116976D+04 0.000000000000000D+00 0.000000000000000D+00 0.131652111116976D+04
 0.203501527671491D+04 0.000000000000000D+00 0.000000000000000D+00 -.203501527671491D+04
 0.461693687992371D+03 -.171373874441812D+03 0.402802558617050D+03 0.769230489668503D+02
 0.100325849335967D+04 0.140441047607719D+03 -.670822215815898D+02 -.991112451840274D+03
 0.106378190031308D+04 0.431862861788984D+03 -.330732725497613D+03 0.914189402873424D+03
 0.822802306219550D+03 -.400930034954891D+03 -.498761153784723D+01 -.718494165545154D+03
 0.124837156794131D+04 0.000000000000000D+00 0.000000000000000D+00 0.124837156794131D+04
 0.124837156794131D+04 0.000000000000000D+00 0.000000000000000D+00 -.124837156794131D+04
 0.494324168617830D+03 -.247644496330187D+03 0.401853744109371D+03 0.769230489668503D+02
 0.000000000000000D+00 -.000000000000000D+00 -.000000000000000D+00 -.000000000000000D+00
 0.993695128328620D+03 -.188749040298980D+02 -.690641286707913D+02 -.991112451840274D+03
 0.100872383893617D+04 0.266519400360085D+03 -.332789615438580D+03 0.914189402873424D+03
 0.131652111116976D+04 0.000000000000000D+00 0.000000000000000D+00 0.131652111116976D+04
 0.203501527671491D+04 0.000000000000000D+00 0.000000000000000D+00 -.203501527671491D+04
 0.461693687992371D+03 -.171373874441812D+03 0.402802558617050D+03 0.769230489668503D+02
 0.822802306219550D+03 -.400930034954891D+03 -.498761153784723D+01 -.718494165545154D+03
 0.100325849335967D+04 0.140441047607719D+03 -.670822215815898D+02 -.991112451840274D+03
 0.106378190031308D+04 0.431862861788984D+03 -.330732725497613D+03 0.914189402873424D+03
0.928159100189D-01 0.000000000000D+00 0.000000000000D+00 0.301783605664D-03 0.000000000000D+00  6 -4 -3 25 -4 -3 21 0 0.33679966D+00 0.10951898D+00 0.24317608D+06 0.24317608D+06 0.24317608D+06 0.10913645D+01  1  2  2  2  6  2       -3 0.113410855364D-03 0.100000000000D+01
0.322419326711D-01 0.000000000000D+00 -.356437533463D-03 0.301783605664D-03 0.000000000000D+00  6 -4 -3 25 -4 -3 21 2 0.33679966D+00 0.10951898D+00 0.24317608D+06 0.24317608D+06 0.24317608D+06 0.10913645D+01  1  2  3  2  6  2       -3 0.469237678728D-04 0.100000000000D+01
-.678009561740D-01 0.000000000000D+00 0.000000000000D+00 0.301783605664D-03 0.000000000000D+00  6 -4 -3 25 -4 -3 21 2 0.33679966D+00 0.10951898D+00 0.24317608D+06 0.24317608D+06 0.24317608D+06 0.10913645D+01  1  2 15  2  6  2       -3 -.986751123612D-04 0.100000000000D+01
-.204036728773D-02 0.000000000000D+00 0.000000000000D+00 0.301783605664D-03 0.000000000000D+00  6 -4 -3 25 -4 -3 21 2 0.33679966D+00 0.10951898D+00 0.24317608D+06 0.24317608D+06 0.24317608D+06 0.10913645D+01  1  2  4  2  6  2       -3 -.296947834863D-05 0.100000000000D+01
-.227842205908D+00 0.000000000000D+00 -.579619940555D-01 0.301783605664D-03 0.000000000000D+00  6 -4 -3 25 -4 -3 21 2 0.33679966D+00 0.18261829D+00 0.24317608D+06 0.24317608D+06 0.24317608D+06 0.10913645D+01  1  2  5  2  6  2       -3 -.633149237435D-04 0.100000000000D+01
0.233161429167D+00 0.000000000000D+00 0.511315088195D-01 0.301783605664D-03 0.000000000000D+00  6 -4 -3 25 -4 -3 21 2 0.33679966D+00 0.10951898D+00 0.24317608D+06 0.24317608D+06 0.24317608D+06 0.10913645D+01  1  2  6  2  6  2       -3 0.339334893189D-03 0.100000000000D+01
-.103969272993D-01 0.000000000000D+00 -.332676517998D-02 0.301783605664D-03 0.000000000000D+00  6 -4 21 25 3 -4 -3 2 0.33679966D+00 0.18261829D+00 0.24317608D+06 0.24317608D+06 0.24317608D+06 0.10913645D+01  3  4  5  6  4  2       -3 -.501264199949D-04 0.100000000000D+01
  </mgrwgt>
  </event>
  <event>
  5     66 0.14393686E-05 0.12840705E+03 0.75467711E-02 0.82479267E-01
       -2 -1    0    0    0  501 0.00000000E+00 0.00000000E+00 0.16167582E+04 0.16167582E+04 0.32000000E+00 0.0000E+00 0.9000E+01
       -1 -1    0    0    0  502 0.00000000E+00 0.00000000E+00 -.89248618E+03 0.89248623E+03 0.32000000E+00 0.0000E+00 0.9000E+01
       25  1    1    2    0    0 0.85743168E+03 0.73861735E+01 0.29277258E+02 0.86702122E+03 0.12500000E+03 0.0000E+00 0.9000E+01
       -2  1    1    2    0  502 -.12828628E+03 0.52142508E+01 -.34722566E+03 0.37020308E+03 0.32000000E+00 0.0000E+00 0.9000E+01
       -1  1    1    2    0  501 -.72914540E+03 -.12600424E+02 0.10422204E+04 0.12720202E+04 0.32000000E+00 0.0000E+00 0.9000E+01
#aMCatNLO 1  0  0  2  4 0.66350364D+02 0.00000000D+00  -5  6  0 0.00000000D+00 0.00000000D+00 0.00000000D+00 0.00000000D+00 0.00000000D+00
  <mgrwgt>
 0.6050500121D-04    5    4    0
 0.120122206456217D+04 0.000000000000000D+00 0.000000000000000D+00 0.120122206456217D+04
 0.120122206456217D+04 0.000000000000000D+00 0.000000000000000D+00 -.120122206456217D+04
 0.896705014332731D+03 0.857421432971234D+03 0.738527633070856D+01 -.230713733237834D+03
 0.491407732559476D+03 -.128301123148019D+03 0.521471431478557D+01 -.474334468674603D+03
 0.101433138223212D+04 -.729120309823215D+03 -.125999906454941D+02 0.705048201912437D+03
 0.000000000000000D+00 -.000000000000000D+00 0.000000000000000D+00 -.000000000000000D+00
 0.193638974472574D+04 0.000000000000000D+00 0.000000000000000D+00 0.193638974472574D+04
 0.226783107999429D+04 0.000000000000000D+00 0.000000000000000D+00 -.226783107999429D+04
 0.143605081426373D+04 0.136565045663780D+04 -.358311240024597D+03 -.230713733237834D+03
 0.505700738809543D+03 0.889352711120858D+02 -.151097870970835D+03 -.474334468674603D+03
 0.833716024727307D+03 -.326492946163976D+03 -.302310765558074D+03 0.705048201912437D+03
 0.142875324691945D+04 -.112809278158591D+04 0.811719876553507D+03 -.331441335268541D+03
 0.120122206456217D+04 0.000000000000000D+00 0.000000000000000D+00 0.120122206456217D+04
 0.120122206456217D+04 0.000000000000000D+00 0.000000000000000D+00 -.120122206456217D+04
 0.896705014332731D+03 0.857421432971234D+03 0.738527633070856D+01 -.230713733237834D+03
 0.000000000000000D+00 -.000000000000000D+00 0.000000000000000D+00 -.000000000000000D+00
 0.491407732559476D+03 -.128301123148019D+03 0.521471431478557D+01 -.474334468674603D+03
 0.101433138223212D+04 -.729120309823215D+03 -.125999906454941D+02 0.705048201912437D+03
 0.193638974472574D+04 0.000000000000000D+00 0.000000000000000D+00 0.193638974472574D+04
 0.226783107999429D+04 0.000000000000000D+00 0.000000000000000D+00 -.226783107999429D+04
 0.143605081426373D+04 0.136565045663780D+04 -.358311240024597D+03 -.230713733237834D+03
 0.142875324691945D+04 -.112809278158591D+04 0.811719876553507D+03 -.331441335268541D+03
 0.505700738809543D+03 0.889352711120858D+02 -.151097870970835D+03 -.474334468674603D+03
 0.833716024727307D+03 -.326492946163976D+03 -.302310765558074D+03 0.705048201912437D+03
0.526882854410D-02 0.000000000000D+00 0.000000000000D+00 0.845456570683D-06 0.000000000000D+00  6 -2 -1 25 -2 -1 21 0 0.24873204D+00 0.13730557D+00 0.74317576D+06 0.74317576D+06 0.74317576D+06 0.10565543D+01  1  2  2  2  6  2       -1 0.143289996643D-03 0.100000000000D+01
0.101639705657D-02 0.000000000000D+00 -.202336889238D-04 0.845456570683D-06 0.000000000000D+00  6 -2 -1 25 -2 -1 21 2 0.24873204D+00 0.13730557D+00 0.74317576D+06 0.74317576D+06 0.74317576D+06 0.10565543D+01  1  2  3  2  6  2       -1 0.308566546988D-04 0.100000000000D+01
-.381081495346D-02 0.000000000000D+00 0.000000000000D+00 0.845456570683D-06 0.000000000000D+00  6 -2 -1 25 -2 -1 21 2 0.24873204D+00 0.13730557D+00 0.74317576D+06 0.74317576D+06 0.74317576D+06 0.10565543D+01  1  2 15  2  6  2       -1 -.115691992986D-03 0.100000000000D+01
0.117048785541D-02 0.000000000000D+00 -.272388306137D-02 0.845456570683D-06 0.000000000000D+00  6 -2 -1 25 -2 -1 21 2 0.24873204D+00 0.34978438D+00 0.74317576D+06 0.74317576D+06 0.74317576D+06 0.10565543D+01  1  2  5  2  6  2       -1 0.516689239888D-06 0.100000000000D+01
0.287335879992D-03 0.000000000000D+00 -.281238457360D-03 0.845456570683D-06 0.000000000000D+00  6 -2 21 25 1 -2 -1 2 0.24873204D+00 0.34978438D+00 0.74317576D+06 0.74317576D+06 0.74317576D+06 0.10565543D+01  3  4  5  6  4  2       -1 0.153365361808D-05 0.100000000000D+01
  </mgrwgt>
  </event>
  <event>
  6     66 -.14393686E-05 0.56857353E+02 0.75467711E-02 0.94407626E-01
       -2 -1    0    0    0  501 0.00000000E+00 0.00000000E+00 0.17905611E+04 0.17905611E+04 0.32000000E+00 0.0000E+00 0.9000E+01
       -1 -1    0    0    0  502 0.00000000E+00 0.00000000E+00 -.61523486E+03 0.61523494E+03 0.32000000E+00 0.0000E+00 0.9000E+01
       25  1    1    2    0    0 -.10423100E+03 0.48134067E+03 0.72354421E+03 0.88413470E+03 0.12500000E+03 0.0000E+00 0.9000E+01
       -2  1    1    2    0  503 0.48450175E+02 -.36580079E+03 -.40467322E+03 0.54764783E+03 0.32000000E+00 0.0000E+00 0.9000E+01
       -1  1    1    2    0  501 0.66715104E+01 -.83209675E+02 0.89809242E+03 0.90196367E+03 0.32000000E+00 0.0000E+00 0.9000E+01
       21  1    1    2  503  502 0.49109313E+02 -.32330209E+02 -.41637174E+02 0.72049870E+02 0.75000000E+00 0.0000E+00 0.9000E+01
#aMCatNLO 2  0  0  4  2 0.40038262D+02 0.00000000D+00  -5  6  0 0.00000000D+00 0.00000000D+00 0.00000000D+00 0.00000000D+00 0.00000000D+00
  <mgrwgt>
 -.4722723627D-03    3    2    0
 0.104957883946336D+04 0.000000000000000D+00 0.000000000000000D+00 0.104957883946336D+04
 0.104957883946336D+04 -.000000000000000D+00 -.000000000000000D+00 -.104957883946336D+04
 0.610430614720746D+03 -.104503961543901D+03 0.482443342180880D+03 0.336642063615527D+03
 0.956135838042333D+03 0.980628482087741D+02 -.400186966570164D+03 -.862803459878012D+03
 0.532591226163644D+03 0.644111333512662D+01 -.822563756107158D+02 0.526161396262484D+03
 0.000000000000000D+00 0.000000000000000D+00 0.000000000000000D+00 0.000000000000000D+00
 0.104957883946336D+04 0.000000000000000D+00 0.000000000000000D+00 0.104957883946336D+04
 0.104957883946336D+04 -.000000000000000D+00 -.000000000000000D+00 -.104957883946336D+04
 0.608267317210652D+03 -.104241516617666D+03 0.481372324554532D+03 0.334332948649783D+03
 0.854208579900048D+03 0.484336808983721D+02 -.365834813713492D+03 -.770383907934677D+03
 0.530749388187663D+03 0.667010227634286D+01 -.831908619267602D+02 0.524146642924558D+03
 0.105932393628361D+03 0.491377334429514D+02 -.323466489142800D+02 -.880956836396638D+02
-.164695749146D-08 0.000000000000D+00 0.000000000000D+00 0.630277217495D-04 0.000000000000D+00  6 -2 -1 25 -2 -1 21 2 0.27547095D+00 0.94651525D-01 0.25982359D+06 0.25982359D+06 0.25982359D+06 0.10892021D+01  1  2 13  3  6  4       -2 -.955274350564D-10 0.100000000000D+01
-.201041957457D-01 0.000000000000D+00 0.000000000000D+00 0.630277217495D-04 0.000000000000D+00  6 -2 -1 25 -2 -1 21 2 0.27547095D+00 0.94651525D-01 0.25982359D+06 0.25982359D+06 0.25982359D+06 0.10892021D+01  1  2 13  3  6  4       -2 -.116609096678D-02 0.100000000000D+01
0.119619029268D-01 0.000000000000D+00 0.000000000000D+00 0.630277217495D-04 0.105204150903D-06  6 -2 -1 25 -2 -1 21 2 0.27547095D+00 0.94651525D-01 0.25982359D+06 0.25982359D+06 0.25982359D+06 0.10892021D+01  1  2  1  3  6  4       -2 0.693818699586D-03 0.100000000000D+01
  </mgrwgt>
  </event>
  <event>
  5     66 0.14393686E-05 0.22605531E+02 0.75467711E-02 0.92081666E-01
       -2 -1    0    0    0  501 0.00000000E+00 0.00000000E+00 0.79430326E+03 0.79430332E+03 0.32000000E+00 0.0000E+00 0.9000E+01
       -1 -1    0    0    0  502 -.00000000E+00 -.00000000E+00 -.12591759E+04 0.12591759E+04 0.32000000E+00 0.0000E+00 0.9000E+01
       25  1    1    2    0    0 -.58912217E+03 -.11505460E+03 0.11730391E+03 0.62424971E+03 0.12500000E+03 0.0000E+00 0.9000E+01
       -2  1    1    2    0  502 0.58033949E+03 0.13589447E+03 -.91697631E+03 0.10936667E+04 0.32000000E+00 0.0000E+00 0.9000E+01
       -1  1    1    2    0  501 0.87826869E+01 -.20839869E+02 0.33479976E+03 0.33556283E+03 0.32000000E+00 0.0000E+00 0.9000E+01
#aMCatNLO 1  0  0  5  1 0.26990514D+02 0.00000000D+00  -5  6  0 0.00000000D+00 0.00000000D+00 0.00000000D+00 0.00000000D+00 0.00000000D+00
  <mgrwgt>
 0.3498674964D-02    6    2    0
 0.100008380729148D+04 0.000000000000000D+00 0.000000000000000D+00 0.100008380729148D+04
 0.100008380729148D+04 -.000000000000000D+00 -.000000000000000D+00 -.100008380729148D+04
 0.668290397424869D+03 -.589209039694661D+03 -.115081967503596D+03 0.265661257220328D+03
 0.909733248815551D+03 0.580430008772110D+03 0.135913161392225D+03 -.687199535417244D+03
 0.422143968342537D+03 0.877903092255120D+01 -.208311938886286D+02 0.421538278196916D+03
 0.000000000000000D+00 0.000000000000000D+00 0.000000000000000D+00 0.000000000000000D+00
 0.100008380729148D+04 0.000000000000000D+00 0.000000000000000D+00 0.100008380729148D+04
 0.100008380729148D+04 -.000000000000000D+00 -.000000000000000D+00 -.100008380729148D+04
 0.670360761820921D+03 -.589098774954764D+03 -.115343607563433D+03 0.270955783348825D+03
 0.904368286439368D+03 0.580579436375075D+03 0.135558594311058D+03 -.680024545942343D+03
 0.319471467418794D+02 -.137109377519472D+02 -.238632203440247D+02 0.162227336081791D+02
 0.393491419580788D+03 0.222302763316352D+02 0.364823359640056D+01 0.392846028985338D+03
0.290155377324D-01 0.000000000000D+00 0.000000000000D+00 0.560951227547D-04 0.000000000000D+00  6 -2 -1 25 -2 -1 21 0 0.12220051D+00 0.19371938D+00 0.37942750D+06 0.37942750D+06 0.37942750D+06 0.10770846D+01  1  2  2  4  6  5       -1 0.241642230855D-02 0.100000000000D+01
0.188764840295D-01 0.000000000000D+00 -.111427304859D-03 0.560951227547D-04 0.000000000000D+00  6 -2 -1 25 -2 -1 21 2 0.12220051D+00 0.19371938D+00 0.37942750D+06 0.37942750D+06 0.37942750D+06 0.10770846D+01  1  2  3  4  6  5       -1 0.182374018424D-02 0.100000000000D+01
-.177290182655D-01 0.000000000000D+00 0.000000000000D+00 0.560951227547D-04 0.000000000000D+00  6 -2 -1 25 -2 -1 21 2 0.12220051D+00 0.19371938D+00 0.37942750D+06 0.37942750D+06 0.37942750D+06 0.10770846D+01  1  2 15  4  6  5       -1 -.171287846759D-02 0.100000000000D+01
-.122100715425D-02 0.000000000000D+00 0.000000000000D+00 0.560951227547D-04 0.000000000000D+00  6 -2 -1 25 -2 -1 21 2 0.12220051D+00 0.19371938D+00 0.37942750D+06 0.37942750D+06 0.37942750D+06 0.10770846D+01  1  2  4  4  6  5       -1 -.117966873967D-03 0.100000000000D+01
-.863953542990D-02 0.000000000000D+00 0.000000000000D+00 0.560951227547D-04 0.000000000000D+00  6 -2 -1 25 -2 -1 21 2 0.12220051D+00 0.19371938D+00 0.37942750D+06 0.37942750D+06 0.37942750D+06 0.10770846D+01  1  2  5  4  6  5       -1 -.834703534409D-03 0.100000000000D+01
0.199148505900D-01 0.000000000000D+00 -.000000000000D+00 0.560951227547D-04 0.000000000000D+00  6 -2 -1 25 -2 -1 21 2 0.12220051D+00 0.19371938D+00 0.37942750D+06 0.37942750D+06 0.37942750D+06 0.10770846D+01  1  2  6  4  6  5       -1 0.192406134677D-02 0.100000000000D+01
  </mgrwgt>
  </event>
  <event>
  5     66 0.14393686E-05 0.12297540E+03 0.75467711E-02 0.88468721E-01
       -2 -1    0    0    0  501 0.00000000E+00 0.00000000E+00 0.51368418E+03 0.51368428E+03 0.32000000E+00 0.0000E+00 0.9000E+01
       -1 -1    0    0    0  502 0.00000000E+00 0.00000000E+00 -.27012168E+04 0.27012168E+04 0.32000000E+00 0.0000E+00 0.9000E+01
       25  1    1    2    0    0 0.40718034E+03 0.20003757E+03 -.47619267E+03 0.66947391E+03 0.12500000E+03 0.0000E+00 0.9000E+01
       -2  1    1    2    0  502 -.36059546E+03 -.86219275E+02 -.21027317E+04 0.21351683E+04 0.32000000E+00 0.0000E+00 0.9000E+01
       -1  1    1    2    0  501 -.46584875E+02 -.11381829E+03 0.39139176E+03 0.41025890E+03 0.32000000E+00 0.0000E+00 0.9000E+01
#aMCatNLO 1  0  0  2  2 0.43796057D+01 0.00000000D+00  -5  6  0 0.00000000D+00 0.00000000D+00 0.00000000D+00 0.00000000D+00 0.00000000D+00
  <mgrwgt>
 0.9513591006D-03    7    4    0
 0.117795267825298D+04 0.000000000000000D+00 0.000000000000000D+00 0.117795267825298D+04
 0.117795267825298D+04 0.000000000000000D+00 0.000000000000000D+00 -.117795267825298D+04
 0.471445269623630D+03 0.407218771335302D+03 0.200043114149133D+03 -.281294686082350D+02
 0.961250633698716D+03 -.360636676553825D+03 -.862316157232879D+02 -.886852905932064D+03
 0.923209453183605D+03 -.465820947814770D+02 -.113811498425846D+03 0.914982374540299D+03
 0.000000000000000D+00 0.000000000000000D+00 -.000000000000000D+00 -.000000000000000D+00
 0.150940537423779D+04 0.000000000000000D+00 0.000000000000000D+00 0.150940537423779D+04
 0.152940564301844D+04 0.000000000000000D+00 0.000000000000000D+00 -.152940564301844D+04
 0.470302426032599D+03 0.340094515228383D+03 0.298502639250539D+03 -.281294686082350D+02
 0.102645438222344D+04 -.502312861342144D+03 0.121582528990923D+03 -.886852905932064D+03
 0.935816713543420D+03 -.179086532116888D+03 0.805492994516419D+02 0.914982374540299D+03
 0.606237495456768D+03 0.341304878230650D+03 -.500634467693104D+03 -.200002687806548D+02
 0.117795267825298D+04 0.000000000000000D+00 0.000000000000000D+00 0.117795267825298D+04
 0.117795267825298D+04 0.000000000000000D+00 0.000000000000000D+00 -.117795267825298D+04
 0.471445269623630D+03 0.407218771335302D+03 0.200043114149133D+03 -.281294686082350D+02
 0.000000000000000D+00 0.000000000000000D+00 -.000000000000000D+00 -.000000000000000D+00
 0.961250633698716D+03 -.360636676553825D+03 -.862316157232879D+02 -.886852905932064D+03
 0.923209453183605D+03 -.465820947814770D+02 -.113811498425846D+03 0.914982374540299D+03
 0.150940537423779D+04 0.000000000000000D+00 0.000000000000000D+00 0.150940537423779D+04
 0.152940564301844D+04 0.000000000000000D+00 0.000000000000000D+00 -.152940564301844D+04
 0.470302426032599D+03 0.340094515228383D+03 0.298502639250539D+03 -.281294686082350D+02
 0.606237495456768D+03 0.341304878230650D+03 -.500634467693104D+03 -.200002687806548D+02
 0.102645438222344D+04 -.502312861342144D+03 0.121582528990923D+03 -.886852905932064D+03
 0.935816713543420D+03 -.179086532116888D+03 0.805492994516419D+02 0.914982374540299D+03
0.317334506828D+00 0.000000000000D+00 0.000000000000D+00 0.105646994317D-03 0.000000000000D+00  6 -2 -1 25 -2 -1 21 0 0.79028344D-01 0.41557182D+00 0.23250889D+06 0.23250889D+06 0.23250889D+06 0.10928368D+01  1  2  2  2  6  2       -1 0.907158817467D-03 0.100000000000D+01
0.621238477217D-01 0.000000000000D+00 -.121864806231D-02 0.105646994317D-03 0.000000000000D+00  6 -2 -1 25 -2 -1 21 2 0.79028344D-01 0.41557182D+00 0.23250889D+06 0.23250889D+06 0.23250889D+06 0.10928368D+01  1  2  3  2  6  2       -1 0.212097235664D-03 0.100000000000D+01
-.213433965878D+00 0.000000000000D+00 0.000000000000D+00 0.105646994317D-03 0.000000000000D+00  6 -2 -1 25 -2 -1 21 2 0.79028344D-01 0.41557182D+00 0.23250889D+06 0.23250889D+06 0.23250889D+06 0.10928368D+01  1  2 15  2  6  2       -1 -.728685614618D-03 0.100000000000D+01
-.287966386368D-02 0.000000000000D+00 0.000000000000D+00 0.105646994317D-03 0.000000000000D+00  6 -2 -1 25 -2 -1 21 2 0.79028344D-01 0.41557182D+00 0.23250889D+06 0.23250889D+06 0.23250889D+06 0.10928368D+01  1  2  4  2  6  2       -1 -.983146999945D-05 0.100000000000D+01
-.115711050169D+00 0.000000000000D+00 -.170801393738D+00 0.105646994317D-03 0.000000000000D+00  6 -2 -1 25 -2 -1 21 2 0.79028344D-01 0.58043577D+00 0.23250889D+06 0.23250889D+06 0.23250889D+06 0.10928368D+01  1  2  5  2  6  2       -1 -.163062808298D-04 0.100000000000D+01
0.172188444645D+00 0.000000000000D+00 0.161691598958D+00 0.105646994317D-03 0.000000000000D+00  6 -2 -1 25 -2 -1 21 2 0.79028344D-01 0.41557182D+00 0.23250889D+06 0.23250889D+06 0.23250889D+06 0.10928368D+01  1  2  6  2  6  2       -1 0.587869143039D-03 0.100000000000D+01
-.322927993334D-03 0.000000000000D+00 -.713558309285D-02 0.105646994317D-03 0.000000000000D+00  6 -2 21 25 1 -2 -1 2 0.79028344D-01 0.58043577D+00 0.23250889D+06 0.23250889D+06 0.23250889D+06 0.10928368D+01  3  4  5  6  4  2       -1 -.942730092154D-06 0.100000000000D+01
  </mgrwgt>
  </event>
  <event>
  5     66 0.14393686E-05 0.83914990E+02 0.75467711E-02 0.92190508E-01
       -4 -1    0    0    0  501 0.00000000E+00 0.00000000E+00 0.12519932E+04 0.12519941E+04 0.15500000E+01 0.0000E+00 0.9000E+01
       -3 -1    0    0    0  502 0.00000000E+00 0.00000000E+00 -.46386645E+03 0.46386672E+03 0.50000000E+00 0.0000E+00 0.9000E+01
       25  1    1    2    0    0 -.47968164E+03 0.14280352E+03 0.15022642E+03 0.53728977E+03 0.12500000E+03 0.0000E+00 0.9000E+01
       -4  1    1    2    0  502 0.48913476E+02 0.68205522E+02 -.19786577E+03 0.21493671E+03 0.15500000E+01 0.0000E+00 0.9000E+01
       -3  1    1    2    0  501 0.43076816E+03 -.21100904E+03 0.83576609E+03 0.96363439E+03 0.50000000E+00 0.0000E+00 0.9000E+01
#aMCatNLO 1  0  0  4  2 0.13915027D+02 0.00000000D+00  -5  6  0 0.00000000D+00 0.00000000D+00 0.00000000D+00 0.00000000D+00 0.00000000D+00
  <mgrwgt>
 0.3797306444D-04    6    2    0
 0.762075251098438D+03 0.000000000000000D+00 0.000000000000000D+00 0.762075251098438D+03
 0.762075251098438D+03 -.000000000000000D+00 -.000000000000000D+00 -.762075251098438D+03
 0.527237142353464D+03 -.479699910902493D+03 0.142830886141876D+03 -.108817910847037D+03
 0.344198296584764D+03 0.489043167156945D+02 0.681915929337974D+02 -.333812435106266D+03
 0.652715063258648D+03 0.430795594186799D+03 -.211022479075673D+03 0.442630345953304D+03
 0.000000000000000D+00 0.000000000000000D+00 0.000000000000000D+00 -.000000000000000D+00
 0.762075251098438D+03 0.000000000000000D+00 0.000000000000000D+00 0.762075251098438D+03
 0.762075251098438D+03 -.000000000000000D+00 -.000000000000000D+00 -.762075251098438D+03
 0.532620333000672D+03 -.474809733347369D+03 0.149649691098330D+03 -.142197419802616D+03
 0.207885856931723D+03 0.116139146510941D+03 0.106355952490770D+03 -.135707919922634D+03
 0.627444455402239D+03 0.436702244364496D+03 -.202786316880392D+03 0.402312570109498D+03
 0.156199856862242D+03 -.780316575280673D+02 -.532193267087087D+02 -.124407230384247D+03
0.126731916452D-02 0.000000000000D+00 0.000000000000D+00 0.401796143160D-05 0.000000000000D+00  6 -4 -3 25 -4 -3 21 0 0.19261443D+00 0.71364164D-01 0.29133205D+06 0.29133205D+06 0.29133205D+06 0.10854952D+01  1  2  2  3  6  4       -4 0.622716045334D-04 0.100000000000D+01
0.247696780473D-03 0.000000000000D+00 -.486683928454D-05 0.401796143160D-05 0.000000000000D+00  6 -4 -3 25 -4 -3 21 2 0.19261443D+00 0.71364164D-01 0.29133205D+06 0.29133205D+06 0.29133205D+06 0.10854952D+01  1  2  3  3  6  4       -4 0.143410253471D-04 0.100000000000D+01
-.923792803998D-03 0.000000000000D+00 0.000000000000D+00 0.401796143160D-05 0.000000000000D+00  6 -4 -3 25 -4 -3 21 2 0.19261443D+00 0.71364164D-01 0.29133205D+06 0.29133205D+06 0.29133205D+06 0.10854952D+01  1  2 15  3  6  4       -4 -.534852975979D-04 0.100000000000D+01
-.100667072152D-03 0.000000000000D+00 0.000000000000D+00 0.401796143160D-05 0.000000000000D+00  6 -4 -3 25 -4 -3 21 2 0.19261443D+00 0.71364164D-01 0.29133205D+06 0.29133205D+06 0.29133205D+06 0.10854952D+01  1  2  4  3  6  4       -4 -.582837221624D-05 0.100000000000D+01
-.583917755469D-03 0.000000000000D+00 0.000000000000D+00 0.401796143160D-05 0.000000000000D+00  6 -4 -3 25 -4 -3 21 2 0.19261443D+00 0.71364164D-01 0.29133205D+06 0.29133205D+06 0.29133205D+06 0.10854952D+01  1  2  5  3  6  4       -4 -.338073806039D-04 0.100000000000D+01
0.940998854564D-03 0.000000000000D+00 -.000000000000D+00 0.401796143160D-05 0.000000000000D+00  6 -4 -3 25 -4 -3 21 2 0.19261443D+00 0.71364164D-01 0.29133205D+06 0.29133205D+06 0.29133205D+06 0.10854952D+01  1  2  6  3  6  4       -4 0.544814849800D-04 0.100000000000D+01
  </mgrwgt>
  </event>
  <event>
  5     66 0.14393686E-05 0.23952655E+02 0.75467711E-02 0.94572352E-01
       -2 -1    0    0    0  501 0.00000000E+00 0.00000000E+00 0.12602424E+04 0.12602425E+04 0.32000000E+00 0.0000E+00 0.9000E+01
       -1 -1    0    0    0  502 0.00000000E+00 0.00000000E+00 -.67738927E+03 0.67738934E+03 0.32000000E+00 0.0000E+00 0.9000E+01
       25  1    1    2    0    0 0.24703891E+03 0.40607006E+03 0.17970929E+03 0.52329871E+03 0.12500000E+03 0.0000E+00 0.9000E+01
       -2  1    1    2    0  502 -.23706361E+03 -.42785148E+03 -.38706621E+03 0.62375988E+03 0.32000000E+00 0.0000E+00 0.9000E+01
       -1  1    1    2    0  501 -.99752994E+01 0.21781418E+02 0.79021009E+03 0.79057323E+03 0.32000000E+00 0.0000E+00 0.9000E+01
#aMCatNLO 1  0  0  1  5 0.16171955D+03 0.00000000D+00  -5  6  0 0.00000000D+00 0.00000000D+00 0.00000000D+00 0.00000000D+00 0.00000000D+00
  <mgrwgt>
 0.3167452065D-02    4    2    0
 0.923945245211603D+03 0.000000000000000D+00 0.000000000000000D+00 0.923945245211603D+03
 0.923945245211603D+03 0.000000000000000D+00 0.000000000000000D+00 -.923945245211603D+03
 0.492107747680594D+03 0.247074900481971D+03 0.406138855287319D+03 0.234576022857654D+02
 0.776165100309133D+03 -.237101400941291D+03 -.427916343131629D+03 -.602580112425242D+03
 0.579617642433480D+03 -.997349954068053D+01 0.217774878443095D+02 0.579122510139477D+03
 0.000000000000000D+00 0.000000000000000D+00 -.000000000000000D+00 -.000000000000000D+00
 0.122932041570981D+04 0.000000000000000D+00 0.000000000000000D+00 0.122932041570981D+04
 0.132079676331159D+04 0.000000000000000D+00 0.000000000000000D+00 -.132079676331159D+04
 0.443223842281055D+03 0.991239054103550D+02 0.412851748982105D+03 0.234576022857654D+02
 0.886725117488677D+03 -.500137809695677D+03 -.415981746483787D+03 -.602580112425242D+03
 0.612987045423709D+03 -.198620020399427D+03 0.303368357540888D+02 0.579122510139477D+03
 0.607181173827952D+03 0.599633924684749D+03 -.272068382524067D+02 -.914763476017818D+02
0.244397951440D-01 0.000000000000D+00 0.000000000000D+00 0.118389797194D-03 0.000000000000D+00  6 -2 -1 25 -2 -1 21 0 0.19388346D+00 0.10421374D+00 0.25236261D+06 0.25236261D+06 0.25236261D+06 0.10901519D+01  1  2  2  1  6  1       -2 0.330596757345D-02 0.100000000000D+01
0.166769329637D-01 0.000000000000D+00 -.938552484987D-04 0.118389797194D-03 0.000000000000D+00  6 -2 -1 25 -2 -1 21 2 0.19388346D+00 0.10421374D+00 0.25236261D+06 0.25236261D+06 0.25236261D+06 0.10901519D+01  1  2  3  1  6  1       -2 0.268096574426D-02 0.100000000000D+01
-.170575842397D-01 0.000000000000D+00 0.000000000000D+00 0.118389797194D-03 0.000000000000D+00  6 -2 -1 25 -2 -1 21 2 0.19388346D+00 0.10421374D+00 0.25236261D+06 0.25236261D+06 0.25236261D+06 0.10901519D+01  1  2 15  1  6  1       -2 -.274215883256D-02 0.100000000000D+01
-.480983697285D-03 0.000000000000D+00 0.000000000000D+00 0.118389797194D-03 0.000000000000D+00  6 -2 -1 25 -2 -1 21 2 0.19388346D+00 0.10421374D+00 0.25236261D+06 0.25236261D+06 0.25236261D+06 0.10901519D+01  1  2  4  1  6  1       -2 -.773224200622D-04 0.100000000000D+01
  </mgrwgt>
  </event>
  <event>
  6     66 0.14393686E-05 0.32173325E+02 0.75467711E-02 0.95133464E-01
       -4 -1    0    0    0  501 0.00000000E+00 0.00000000E+00 0.94805343E+03 0.94805469E+03 0.15500000E+01 0.0000E+00 0.9000E+01
       21 -1    0    0  503  502 0.00000000E+00 0.00000000E+00 -.50648167E+03 0.50648223E+03 0.75000000E+00 0.0000E+00 0.9000E+01
       25  1    1    2    0    0 -.25728132E+03 -.38330866E+03 0.18444515E+03 0.51260533E+03 0.12500000E+03 0.0000E+00 0.9000E+01
        3  1    1    2  503    0 0.34321166E+02 0.13344632E+02 -.25626195E+03 0.25889468E+03 0.50000000E+00 0.0000E+00 0.9000E+01
       -4  1    1    2    0  502 0.83486276E+01 -.45691108E+01 -.28987568E+01 0.10068845E+02 0.15500000E+01 0.0000E+00 0.9000E+01
       -3  1    1    2    0  501 0.21461153E+03 0.37453314E+03 0.51628731E+03 0.67296806E+03 0.50000000E+00 0.0000E+00 0.9000E+01
#aMCatNLO 2  0  0  2  5 0.49844442D+03 0.00000000D+00  -5  6  0 0.00000000D+00 0.00000000D+00 0.00000000D+00 0.00000000D+00 0.00000000D+00
  <mgrwgt>
 0.1095980586D-02    1    2    0
 0.485085679332039D+03 0.000000000000000D+00 0.000000000000000D+00 0.485085679332039D+03
 0.485085679332039D+03 0.000000000000000D+00 0.000000000000000D+00 -.485085679332039D+03
 0.485012076554762D+03 -.239807067254550D+03 -.376848897953825D+03 -.141736350347121D+03
 0.000000000000000D+00 0.000000000000000D+00 0.000000000000000D+00 -.000000000000000D+00
 0.142154348346345D+02 0.868489203885997D+01 -.422265899263340D+01 -.104317011480878D+02
 0.470943847274681D+03 0.231122175215690D+03 0.381071556946458D+03 0.152168051495209D+03
 0.486109818883426D+03 0.000000000000000D+00 0.000000000000000D+00 0.486109818883426D+03
 0.987786597673477D+03 0.000000000000000D+00 0.000000000000000D+00 -.987786597673477D+03
 0.499028363616798D+03 -.257206704875947D+03 -.383614162474738D+03 -.141736350347121D+03
 0.503026452635076D+03 0.343211663285540D+02 0.133446324533448D+02 -.501676778790051D+03
 0.139765133158821D+02 0.818640675143146D+01 -.441647824925345D+01 -.104317011480878D+02
 0.457865086989147D+03 0.214699131795961D+03 0.374686008270647D+03 0.152168051495209D+03
0.587828404494D-03 0.000000000000D+00 0.000000000000D+00 0.173372136088D-06 0.181136029237D-08  6 -4 21 25 3 -4 -3 2 0.14585448D+00 0.77920377D-01 0.22869546D+06 0.22869546D+06 0.22869546D+06 0.10933812D+01  1  2  1  6  4  2       -3 0.109598058629D-02 0.100000000000D+01
  </mgrwgt>
  </event>
  <event>
  5     66 0.14393686E-05 0.10505826E+03 0.75467711E-02 0.92498817E-01
       -2 -1    0    0    0  501 0.00000000E+00 0.00000000E+00 0.47164574E+03 0.47164585E+03 0.32000000E+00 0.0000E+00 0.9000E+01
       -1 -1    0    0    0  502 0.00000000E+00 0.00000000E+00 -.10342521E+04 0.10342522E+04 0.32000000E+00 0.0000E+00 0.9000E+01
       25  1    1    2    0    0 0.59827097E+02 -.47802968E+03 0.38009521E+02 0.49916068E+03 0.12500000E+03 0.0000E+00 0.9000E+01
       -2  1    1    2    0  502 -.28351782E+02 0.57842691E+03 -.66622292E+03 0.88274265E+03 0.32000000E+00 0.0000E+00 0.9000E+01
       -1  1    1    2    0  501 -.31475315E+02 -.10039722E+03 0.65607021E+02 0.12399468E+03 0.32000000E+00 0.0000E+00 0.9000E+01
#aMCatNLO 1  0  0  2  4 0.29272447D+02 0.00000000D+00  -5  6  0 0.00000000D+00 0.00000000D+00 0.00000000D+00 0.00000000D+00 0.00000000D+00
  <mgrwgt>
 0.2258428274D-03   11    4    0
 0.698427322653762D+03 0.000000000000000D+00 0.000000000000000D+00 0.698427322653762D+03
 0.698427322653762D+03 0.000000000000000D+00 0.000000000000000D+00 -.698427322653762D+03
 0.553663975651648D+03 0.598020289378605D+02 -.478261598062653D+03 0.242091633659369D+03
 0.683331769296077D+03 -.283737487863384D+02 0.578508795670521D+03 -.362580764300811D+03
 0.159858900359799D+03 -.314282801515221D+02 -.100247197607868D+03 0.120489130641442D+03
 0.000000000000000D+00 -.000000000000000D+00 0.000000000000000D+00 -.000000000000000D+00
 0.706452059171540D+03 0.000000000000000D+00 0.000000000000000D+00 0.706452059171540D+03
 0.725795538450714D+03 0.000000000000000D+00 0.000000000000000D+00 -.725795538450714D+03
 0.561835640073188D+03 0.679617922753143D+02 -.486628320342450D+03 0.242091633659369D+03
 0.674387571314386D+03 -.184421734259413D+02 0.568325322277376D+03 -.362580764300811D+03
 0.160938116536973D+03 -.290816834334785D+02 -.102653311882339D+03 0.120489130641442D+03
 0.350862696977062D+02 -.204379354158945D+02 0.209563099474131D+02 -.193434792791745D+02
 0.698427322653762D+03 0.000000000000000D+00 0.000000000000000D+00 0.698427322653762D+03
 0.698427322653762D+03 0.000000000000000D+00 0.000000000000000D+00 -.698427322653762D+03
 0.553663975651648D+03 0.598020289378605D+02 -.478261598062653D+03 0.242091633659369D+03
 0.000000000000000D+00 -.000000000000000D+00 0.000000000000000D+00 -.000000000000000D+00
 0.683331769296077D+03 -.283737487863384D+02 0.578508795670521D+03 -.362580764300811D+03
 0.159858900359799D+03 -.314282801515221D+02 -.100247197607868D+03 0.120489130641442D+03
 0.706452059171540D+03 0.000000000000000D+00 0.000000000000000D+00 0.706452059171540D+03
 0.725795538450714D+03 0.000000000000000D+00 0.000000000000000D+00 -.725795538450714D+03
 0.561835640073188D+03 0.679617922753143D+02 -.486628320342450D+03 0.242091633659369D+03
 0.350862696977062D+02 -.204379354158945D+02 0.209563099474131D+02 -.193434792791745D+02
 0.674387571314386D+03 -.184421734259413D+02 0.568325322277376D+03 -.362580764300811D+03
 0.160938116536973D+03 -.290816834334785D+02 -.102653311882339D+03 0.120489130641442D+03
0.685012768762D-04 0.000000000000D+00 0.000000000000D+00 0.129943653362D-06 0.000000000000D+00  6 -2 -1 25 -2 -1 21 0 0.72560895D-01 0.15911572D+00 0.34939543D+06 0.34939543D+06 0.34939543D+06 0.10796881D+01  1  2  2  2  6  2       -1 0.379365139493D-04 0.100000000000D+01
0.659647062337D-05 0.000000000000D+00 -.263062940005D-06 0.129943653362D-06 0.000000000000D+00  6 -2 -1 25 -2 -1 21 2 0.72560895D-01 0.15911572D+00 0.34939543D+06 0.34939543D+06 0.34939543D+06 0.10796881D+01  1  2  3  2  6  2       -1 0.425860171241D-05 0.100000000000D+01
-.450648133028D-04 0.000000000000D+00 0.000000000000D+00 0.129943653362D-06 0.000000000000D+00  6 -2 -1 25 -2 -1 21 2 0.72560895D-01 0.15911572D+00 0.34939543D+06 0.34939543D+06 0.34939543D+06 0.10796881D+01  1  2 15  2  6  2       -1 -.290932988348D-04 0.100000000000D+01
0.137443941328D-06 0.000000000000D+00 0.000000000000D+00 0.129943653362D-06 0.000000000000D+00  6 -2 -1 25 -2 -1 21 2 0.72560895D-01 0.16983351D+00 0.36698883D+06 0.36698883D+06 0.36698883D+06 0.10781347D+01  1  2 12  2  6  2       -1 0.720551857042D-07 0.100000000000D+01
0.259049394373D-03 0.000000000000D+00 0.000000000000D+00 0.129943653362D-06 0.000000000000D+00  6 -2 -1 25 -2 -1 21 2 0.72560895D-01 0.16927725D+00 0.36698883D+06 0.36698883D+06 0.36698883D+06 0.10781347D+01  1  2 12  2  6  2       -1 0.137236338555D-03 0.100000000000D+01
-.133591285911D-03 0.000000000000D+00 0.000000000000D+00 0.129943653362D-06 0.000000000000D+00  6 -2 -1 25 -2 -1 21 2 0.72560895D-01 0.15911572D+00 0.34939543D+06 0.34939543D+06 0.34939543D+06 0.10796881D+01  1  2  4  2  6  2       -1 -.862449196591D-04 0.100000000000D+01
-.238784207968D-02 0.000000000000D+00 -.324558307246D-03 0.129943653362D-06 0.000000000000D+00  6 -2 -1 25 -2 -1 21 2 0.72560895D-01 0.16643797D+00 0.34939543D+06 0.34939543D+06 0.34939543D+06 0.10796881D+01  1  2  5  2  6  2       -1 -.134212620771D-02 0.100000000000D+01
0.240034269258D-02 0.000000000000D+00 0.324230100981D-03 0.129943653362D-06 0.000000000000D+00  6 -2 -1 25 -2 -1 21 2 0.72560895D-01 0.15911572D+00 0.34939543D+06 0.34939543D+06 0.34939543D+06 0.10796881D+01  1  2  6  2  6  2       -1 0.154963223284D-02 0.100000000000D+01
0.323049482973D-08 0.000000000000D+00 0.000000000000D+00 0.129943653362D-06 0.000000000000D+00  6 -2 21 25 1 -2 -1 2 0.72560895D-01 0.16983351D+00 0.36698883D+06 0.36698883D+06 0.36698883D+06 0.10781347D+01  3  4 12  6  4  2       -1 0.104963678088D-07 0.100000000000D+01
0.580927057818D-05 0.000000000000D+00 0.000000000000D+00 0.129943653362D-06 0.000000000000D+00  6 -2 21 25 1 -2 -1 2 0.72560895D-01 0.16927725D+00 0.36698883D+06 0.36698883D+06 0.36698883D+06 0.10781347D+01  3  4 12  6  4  2       -1 0.190714417667D-04 0.100000000000D+01
-.186184652040D-04 0.000000000000D+00 -.256227723811D-05 0.129943653362D-06 0.000000000000D+00  6 -2 21 25 1 -2 -1 2 0.72560895D-01 0.16643797D+00 0.34939543D+06 0.34939543D+06 0.34939543D+06 0.10796881D+01  3  4  5  6  4  2       -1 -.649104268200D-04 0.100000000000D+01
  </mgrwgt>
  </event>
  <event>
  5     66 0.14393686E-05 0.17045208E+02 0.75467711E-02 0.94140170E-01
       -2 -1    0    0    0  501 0.00000000E+00 0.00000000E+00 0.38235233E+03 0.38235247E+03 0.32000000E+00 0.0000E+00 0.9000E+01
       -1 -1    0    0    0  502 -.00000000E+00 -.00000000E+00 -.14133061E+04 0.14133062E+04 0.32000000E+00 0.0000E+00 0.9000E+01
       25  1    1    2    0    0 -.25468431E+02 -.49872728E+03 -.10446984E+04 0.11646447E+04 0.12500000E+03 0.0000E+00 0.9000E+01
       -2  1    1    2    0  502 -.12521736E+02 -.11645485E+02 -.10438156E+03 0.10577345E+03 0.32000000E+00 0.0000E+00 0.9000E+01
       -1  1    1    2    0  501 0.37990167E+02 0.51037276E+03 0.11812621E+03 0.52524043E+03 0.32000000E+00 0.0000E+00 0.9000E+01
#aMCatNLO 1  0  0  5  1 0.13904849D+02 0.00000000D+00  -5  6  0 0.00000000D+00 0.00000000D+00 0.00000000D+00 0.00000000D+00 0.00000000D+00
  <mgrwgt>
 0.6901353683D-03    8    2    0
 0.735106146768564D+03 0.000000000000000D+00 0.000000000000000D+00 0.735106146768564D+03
 0.735106146768564D+03 -.000000000000000D+00 -.000000000000000D+00 -.735106146768564D+03
 0.690066337442136D+03 -.255115634699949D+02 -.498780198255266D+03 -.459493225225962D+03
 0.557802377189463D+02 -.124798985838440D+02 -.116099634987155D+02 -.531121059540819D+02
 0.724365718376047D+03 0.379914620538389D+02 0.510390161753982D+03 0.512605331180044D+03
 0.000000000000000D+00 0.000000000000000D+00 0.000000000000000D+00 0.000000000000000D+00
 0.735106146768564D+03 0.000000000000000D+00 0.000000000000000D+00 0.735106146768564D+03
 0.735106146768564D+03 -.000000000000000D+00 -.000000000000000D+00 -.735106146768564D+03
 0.689685456137210D+03 -.254912296849851D+02 -.498507027304236D+03 -.459218868672262D+03
 0.557541593364239D+02 -.124782548704881D+02 -.115878812970775D+02 -.530899279123953D+02
 0.577662983130123D+03 0.177881815644925D+02 0.403077810611813D+03 0.413408250120639D+03
 0.147109694933372D+03 0.201813029909807D+02 0.107017097989501D+03 0.989005464640187D+02
0.682224485591D-04 0.000000000000D+00 0.000000000000D+00 0.367362329456D-05 0.000000000000D+00  6 -2 -1 25 -2 -1 21 0 0.58823449D-01 0.21743172D+00 0.27231947D+06 0.27231947D+06 0.27231947D+06 0.10876761D+01  1  2  2  4  6  5       -1 0.201045931573D-04 0.100000000000D+01
0.244408773255D-04 0.000000000000D+00 -.261992165850D-06 0.367362329456D-05 0.000000000000D+00  6 -2 -1 25 -2 -1 21 2 0.58823449D-01 0.21743172D+00 0.27231947D+06 0.27231947D+06 0.27231947D+06 0.10876761D+01  1  2  3  4  6  5       -1 0.852087065903D-05 0.100000000000D+01
-.524864778187D-04 0.000000000000D+00 0.000000000000D+00 0.367362329456D-05 0.000000000000D+00  6 -2 -1 25 -2 -1 21 2 0.58823449D-01 0.21743172D+00 0.27231947D+06 0.27231947D+06 0.27231947D+06 0.10876761D+01  1  2 15  4  6  5       -1 -.182984629760D-04 0.100000000000D+01
0.322163116198D-06 0.000000000000D+00 0.000000000000D+00 0.367362329456D-05 0.000000000000D+00  6 -2 -1 25 -2 -1 21 2 0.58823449D-01 0.21743172D+00 0.27247053D+06 0.27247053D+06 0.27247053D+06 0.10876582D+01  1  2 12  4  6  5       -1 0.112308648426D-06 0.100000000000D+01
0.112228400208D-01 0.000000000000D+00 0.000000000000D+00 0.367362329456D-05 0.000000000000D+00  6 -2 -1 25 -2 -1 21 2 0.58823449D-01 0.21743172D+00 0.27247053D+06 0.27247053D+06 0.27247053D+06 0.10876582D+01  1  2 12  4  6  5       -1 0.391237212105D-02 0.100000000000D+01
-.117940734724D-01 0.000000000000D+00 0.000000000000D+00 0.367362329456D-05 0.000000000000D+00  6 -2 -1 25 -2 -1 21 2 0.58823449D-01 0.21743172D+00 0.27231947D+06 0.27231947D+06 0.27231947D+06 0.10876761D+01  1  2  4  4  6  5       -1 -.411179080290D-02 0.100000000000D+01
-.112980697674D-01 0.000000000000D+00 0.000000000000D+00 0.367362329456D-05 0.000000000000D+00  6 -2 -1 25 -2 -1 21 2 0.58823449D-01 0.21743172D+00 0.27231947D+06 0.27231947D+06 0.27231947D+06 0.10876761D+01  1  2  5  4  6  5       -1 -.393886806529D-02 0.100000000000D+01
0.138196824514D-01 0.000000000000D+00 -.000000000000D+00 0.367362329456D-05 0.000000000000D+00  6 -2 -1 25 -2 -1 21 2 0.58823449D-01 0.21743172D+00 0.27231947D+06 0.27231947D+06 0.27231947D+06 0.10876761D+01  1  2  6  4  6  5       -1 0.481798280599D-02 0.100000000000D+01
  </mgrwgt>
  </event>
  <event>
  6     66 -.14393686E-05 0.21676325E+02 0.75467711E-02 0.93708246E-01
       -2 -1    0    0    0  501 0.00000000E+00 0.00000000E+00 0.13856700E+03 0.13856737E+03 0.32000000E+00 0.0000E+00 0.9000E+01
       -1 -1    0    0    0  502 -.00000000E+00 -.00000000E+00 -.22886235E+04 0.22886235E+04 0.32000000E+00 0.0000E+00 0.9000E+01
       25  1    1    2    0    0 0.51850728E+03 -.54239815E+02 -.10999234E+04 0.12236210E+04 0.12500000E+03 0.0000E+00 0.9000E+01
       -2  1    1    2    0  502 -.50985085E+03 0.80101979E+02 -.10513601E+04 0.11712055E+04 0.32000000E+00 0.0000E+00 0.9000E+01
       -1  1    1    2    0  503 -.18253238E+01 -.25374432E+02 0.64103217E+00 0.25450087E+02 0.32000000E+00 0.0000E+00 0.9000E+01
       21  1    1    2  503  501 -.68311094E+01 -.48773234E+00 0.58596801E+00 0.69143183E+01 0.75000000E+00 0.0000E+00 0.9000E+01
#aMCatNLO 2  0  0  5  1 0.70809661D+01 0.00000000D+00  -5  6  0 0.00000000D+00 0.00000000D+00 0.00000000D+00 0.00000000D+00 0.00000000D+00
  <mgrwgt>
 -.1319625820D-04    4    2    0
 0.563141330126386D+03 0.000000000000000D+00 0.000000000000000D+00 0.563141330126386D+03
 0.563141330126386D+03 -.000000000000000D+00 -.000000000000000D+00 -.563141330126386D+03
 0.537785568660003D+03 0.519074065562359D+03 -.541045000923649D+02 -.349733525599468D+02
 0.517470506796561D+03 -.510285905216548D+03 0.803602155498081D+02 -.304344557764194D+02
 0.710265847962065D+02 -.878816034581081D+01 -.262557154574432D+02 0.654078083363662D+02
 0.000000000000000D+00 0.000000000000000D+00 0.000000000000000D+00 0.000000000000000D+00
 0.563141330126386D+03 0.000000000000000D+00 0.000000000000000D+00 0.563141330126386D+03
 0.563141330126386D+03 -.000000000000000D+00 -.000000000000000D+00 -.563141330126386D+03
 0.537643121841546D+03 0.518949245800806D+03 -.544774145606772D+02 -.340443541440107D+02
 0.517481558030006D+03 -.510406027053627D+03 0.800013367116365D+02 -.295404226924171D+02
 0.551808766433454D+02 -.172364289315952D+01 -.250355797821976D+02 0.491444599855790D+02
 0.159771037378729D+02 -.681957585401931D+01 -.488342368761550D+00 0.144403168508486D+02
-.122437091571D-06 0.000000000000D+00 0.000000000000D+00 0.224759503214D-06 0.000000000000D+00  6 -2 -1 25 -2 -1 21 2 0.21318029D-01 0.35209595D+00 0.29437882D+06 0.29437882D+06 0.29437882D+06 0.10851601D+01  1  2 13  4  6  5       -1 -.179632684085D-07 0.100000000000D+01
-.889757581143D-04 0.000000000000D+00 0.000000000000D+00 0.224759503214D-06 0.000000000000D+00  6 -2 -1 25 -2 -1 21 2 0.21318029D-01 0.35209595D+00 0.29437882D+06 0.29437882D+06 0.29437882D+06 0.10851601D+01  1  2 13  4  6  5       -1 -.130540133251D-04 0.100000000000D+01
-.507841491193D-03 0.000000000000D+00 0.000000000000D+00 0.224759503214D-06 0.000000000000D+00  6 -2 -1 25 -2 -1 21 2 0.21318029D-01 0.35209595D+00 0.29209126D+06 0.29209126D+06 0.29209126D+06 0.10854113D+01  1  2  8  4  6  5       -1 -.745831794535D-04 0.100000000000D+01
0.507509584956D-03 0.000000000000D+00 0.000000000000D+00 0.224759503214D-06 0.134692678805D-07  6 -2 -1 25 -2 -1 21 2 0.21318029D-01 0.35209595D+00 0.29437882D+06 0.29437882D+06 0.29437882D+06 0.10851601D+01  1  2  1  4  6  5       -1 0.744588978507D-04 0.100000000000D+01
  </mgrwgt>
  </event>
  <event>
  5     66 0.14393686E-05 0.65476778E+02 0.75467711E-02 0.94862654E-01
       -2 -1    0    0    0  501 0.00000000E+00 0.00000000E+00 0.94160966E+03 0.94160971E+03 0.32000000E+00 0.0000E+00 0.9000E+01
       -1 -1    0    0    0  502 0.00000000E+00 0.00000000E+00 -.15066651E+04 0.15066651E+04 0.32000000E+00 0.0000E+00 0.9000E+01
       25  1    1    2    0    0 0.13414773E+03 0.45706724E+03 -.33276583E+02 0.49359742E+03 0.12500000E+03 0.0000E+00 0.9000E+01
       -2  1    1    2    0  502 -.86266372E+02 -.41239781E+03 -.12058998E+04 0.12773834E+04 0.32000000E+00 0.0000E+00 0.9000E+01
       -1  1    1    2    0  501 -.47881354E+02 -.44669434E+02 0.67412098E+03 0.67729402E+03 0.32000000E+00 0.0000E+00 0.9000E+01
#aMCatNLO 1  0  0  2  5 0.40243575D+02 0.00000000D+00  -5  6  0 0.00000000D+00 0.00000000D+00 0.00000000D+00 0.00000000D+00 0.00000000D+00
  <mgrwgt>
 0.3714797049D-02    5    4    0
 0.119108794545205D+04 0.000000000000000D+00 0.000000000000000D+00 0.119108794545205D+04
 0.119108794545205D+04 0.000000000000000D+00 0.000000000000000D+00 -.119108794545205D+04
 0.499456697989086D+03 0.134154882281549D+03 0.457112975122355D+03 0.829589579308562D+02
 0.102680698360633D+04 -.862778494195648D+02 -.412447572238424D+03 -.936363024919765D+03
 0.855912209308678D+03 -.478770328619845D+02 -.446654028839314D+02 0.853404066988909D+03
 0.000000000000000D+00 0.000000000000000D+00 0.000000000000000D+00 -.000000000000000D+00
 0.143031963026565D+04 0.000000000000000D+00 0.000000000000000D+00 0.143031963026565D+04
 0.238545137436631D+04 0.000000000000000D+00 0.000000000000000D+00 -.238545137436631D+04
 0.415277423307437D+03 -.937597972205452D+01 0.387117863979618D+03 0.829589579308562D+02
 0.118439179553932D+04 -.433236883135559D+03 -.581647671700780D+03 -.936363024919765D+03
 0.932269105406751D+03 -.328460428128863D+03 -.181496364966626D+03 0.853404066988909D+03
 0.128383268037846D+04 0.771073290986477D+03 0.376026172687788D+03 -.955131744100669D+03
 0.119108794545205D+04 0.000000000000000D+00 0.000000000000000D+00 0.119108794545205D+04
 0.119108794545205D+04 0.000000000000000D+00 0.000000000000000D+00 -.119108794545205D+04
 0.499456697989086D+03 0.134154882281549D+03 0.457112975122355D+03 0.829589579308562D+02
 0.000000000000000D+00 0.000000000000000D+00 0.000000000000000D+00 -.000000000000000D+00
 0.102680698360633D+04 -.862778494195648D+02 -.412447572238424D+03 -.936363024919765D+03
 0.855912209308678D+03 -.478770328619845D+02 -.446654028839314D+02 0.853404066988909D+03
 0.143031963026565D+04 0.000000000000000D+00 0.000000000000000D+00 0.143031963026565D+04
 0.238545137436631D+04 0.000000000000000D+00 0.000000000000000D+00 -.238545137436631D+04
 0.415277423307437D+03 -.937597972205452D+01 0.387117863979618D+03 0.829589579308562D+02
 0.128383268037846D+04 0.771073290986477D+03 0.376026172687788D+03 -.955131744100669D+03
 0.118439179553932D+04 -.433236883135559D+03 -.581647671700780D+03 -.936363024919765D+03
 0.932269105406751D+03 -.328460428128863D+03 -.181496364966626D+03 0.853404066988909D+03
0.237917729603D+00 0.000000000000D+00 0.000000000000D+00 0.309506596981D-03 0.000000000000D+00  6 -2 -1 25 -2 -1 21 0 0.14486303D+00 0.23179463D+00 0.23979169D+06 0.23979169D+06 0.23979169D+06 0.10918238D+01  1  2  2  2  6  2       -1 0.642315131817D-02 0.100000000000D+01
0.829643373794D-01 0.000000000000D+00 -.913666726853D-03 0.309506596981D-03 0.000000000000D+00  6 -2 -1 25 -2 -1 21 2 0.14486303D+00 0.23179463D+00 0.23979169D+06 0.23979169D+06 0.23979169D+06 0.10918238D+01  1  2  3  2  6  2       -1 0.267004099948D-02 0.100000000000D+01
-.167312606023D+00 0.000000000000D+00 0.000000000000D+00 0.309506596981D-03 0.000000000000D+00  6 -2 -1 25 -2 -1 21 2 0.14486303D+00 0.23179463D+00 0.23979169D+06 0.23979169D+06 0.23979169D+06 0.10918238D+01  1  2 15  2  6  2       -1 -.538462105435D-02 0.100000000000D+01
-.443680180100D-01 0.000000000000D+00 -.111296134285D+00 0.309506596981D-03 0.000000000000D+00  6 -2 -1 25 -2 -1 21 2 0.14486303D+00 0.48680567D+00 0.23979169D+06 0.23979169D+06 0.23979169D+06 0.10918238D+01  1  2  5  2  6  2       -1 -.672277604392D-05 0.100000000000D+01
0.333248957123D-02 0.000000000000D+00 -.893150973203D-02 0.309506596981D-03 0.000000000000D+00  6 -2 21 25 1 -2 -1 2 0.14486303D+00 0.48680567D+00 0.23979169D+06 0.23979169D+06 0.23979169D+06 0.10918238D+01  3  4  5  6  4  2       -1 0.129485614356D-04 0.100000000000D+01
  </mgrwgt>
  </event>
  <event>
  5     66 0.14393686E-05 0.86049433E+02 0.75467711E-02 0.87453109E-01
       -2 -1    0    0    0  501 0.00000000E+00 0.00000000E+00 0.32754501E+04 0.32754502E+04 0.32000000E+00 0.0000E+00 0.9000E+01
       -1 -1    0    0    0  502 0.00000000E+00 0.00000000E+00 -.61331505E+03 0.61331514E+03 0.32000000E+00 0.0000E+00 0.9000E+01
       25  1    1    2    0    0 0.31334999E+03 0.85747499E+03 0.10309125E+04 0.13826992E+04 0.12500000E+03 0.0000E+00 0.9000E+01
       -2  1    1    2    0  502 -.26180181E+03 -.92640166E+03 0.94917572E+02 0.96735189E+03 0.32000000E+00 0.0000E+00 0.9000E+01
       -1  1    1    2    0  501 -.51548174E+02 0.68926675E+02 0.15363050E+04 0.15387142E+04 0.32000000E+00 0.0000E+00 0.9000E+01
#aMCatNLO 1  0  0  1  4 0.15003100D+02 0.00000000D+00  -5  6  0 0.00000000D+00 0.00000000D+00 0.00000000D+00 0.00000000D+00 0.00000000D+00
  <mgrwgt>
 0.6054642955D-04    9    4    0
 0.141735072534239D+04 0.000000000000000D+00 0.000000000000000D+00 0.141735072534239D+04
 0.141735072534239D+04 0.000000000000000D+00 0.000000000000000D+00 -.141735072534239D+04
 0.928813872106459D+03 0.313371562574834D+03 0.857585369812815D+03 0.115826621593736D+03
 0.123795589263374D+04 -.261835900768079D+03 -.926495314388692D+03 -.778192254903219D+03
 0.667931685944590D+03 -.515356618067545D+02 0.689099445758772D+02 0.662365633309483D+03
 0.000000000000000D+00 0.000000000000000D+00 0.000000000000000D+00 0.000000000000000D+00
 0.144897322113100D+04 0.000000000000000D+00 0.000000000000000D+00 0.144897322113100D+04
 0.141915122699063D+04 0.000000000000000D+00 0.000000000000000D+00 -.141915122699063D+04
 0.924251238857389D+03 0.313259434044023D+03 0.852682867918677D+03 0.115826621593736D+03
 0.124290725810501D+04 -.261986017209530D+03 -.933058729901528D+03 -.778192254903219D+03
 0.667582656571278D+03 -.516164734631917D+02 0.653766841658167D+02 0.662365633309483D+03
 0.333832945879463D+02 0.343056628698811D+00 0.149991778170349D+02 0.298219941403669D+02
 0.141735072534239D+04 0.000000000000000D+00 0.000000000000000D+00 0.141735072534239D+04
 0.141735072534239D+04 0.000000000000000D+00 0.000000000000000D+00 -.141735072534239D+04
 0.928813872106459D+03 0.313371562574834D+03 0.857585369812815D+03 0.115826621593736D+03
 0.000000000000000D+00 0.000000000000000D+00 0.000000000000000D+00 0.000000000000000D+00
 0.123795589263374D+04 -.261835900768079D+03 -.926495314388692D+03 -.778192254903219D+03
 0.667931685944590D+03 -.515356618067545D+02 0.689099445758772D+02 0.662365633309483D+03
 0.144897322113100D+04 0.000000000000000D+00 0.000000000000000D+00 0.144897322113100D+04
 0.141915122699063D+04 0.000000000000000D+00 0.000000000000000D+00 -.141915122699063D+04
 0.924251238857389D+03 0.313259434044023D+03 0.852682867918677D+03 0.115826621593736D+03
 0.333832945879463D+02 0.343056628698811D+00 0.149991778170349D+02 0.298219941403669D+02
 0.124290725810501D+04 -.261986017209530D+03 -.933058729901528D+03 -.778192254903219D+03
 0.667582656571278D+03 -.516164734631917D+02 0.653766841658167D+02 0.662365633309483D+03
0.423955235786D-02 0.000000000000D+00 0.000000000000D+00 0.331040355815D-05 0.000000000000D+00  6 -2 -1 25 -2 -1 21 0 0.50391541D+00 0.94356170D-01 0.97061535D+06 0.97061535D+06 0.97061535D+06 0.10487273D+01  1  2  2  1  6  1       -2 0.327231009993D-05 0.100000000000D+01
0.152328556010D-02 0.000000000000D+00 -.162809973540D-04 0.331040355815D-05 0.000000000000D+00  6 -2 -1 25 -2 -1 21 2 0.50391541D+00 0.94356170D-01 0.97061535D+06 0.97061535D+06 0.97061535D+06 0.10487273D+01  1  2  3  1  6  1       -2 0.129312616876D-05 0.100000000000D+01
-.281722282212D-02 0.000000000000D+00 0.000000000000D+00 0.331040355815D-05 0.000000000000D+00  6 -2 -1 25 -2 -1 21 2 0.50391541D+00 0.94356170D-01 0.97061535D+06 0.97061535D+06 0.97061535D+06 0.10487273D+01  1  2 15  1  6  1       -2 -.239155720367D-05 0.100000000000D+01
0.821910411634D-08 0.000000000000D+00 0.000000000000D+00 0.331040355815D-05 0.000000000000D+00  6 -2 -1 25 -2 -1 21 2 0.51560563D+00 0.94356170D-01 0.98446714D+06 0.98446714D+06 0.98446714D+06 0.10483168D+01  1  2 12  1  6  1       -2 0.539907738063D-11 0.100000000000D+01
-.335617763362D-03 0.000000000000D+00 0.000000000000D+00 0.331040355815D-05 0.000000000000D+00  6 -2 -1 25 -2 -1 21 2 0.50391541D+00 0.94356170D-01 0.97061535D+06 0.97061535D+06 0.97061535D+06 0.10487273D+01  1  2  4  1  6  1       -2 -.284907914755D-06 0.100000000000D+01
-.366419525368D+00 0.000000000000D+00 -.238400836948D-01 0.331040355815D-05 0.000000000000D+00  6 -2 -1 25 -2 -1 21 2 0.51531850D+00 0.94356170D-01 0.97061535D+06 0.97061535D+06 0.97061535D+06 0.10487273D+01  1  2  5  1  6  1       -2 -.242789242629D-03 0.100000000000D+01
0.366943703614D+00 0.000000000000D+00 0.238424743870D-01 0.331040355815D-05 0.000000000000D+00  6 -2 -1 25 -2 -1 21 2 0.50391541D+00 0.94356170D-01 0.97061535D+06 0.97061535D+06 0.97061535D+06 0.10487273D+01  1  2  6  1  6  1       -2 0.311500691685D-03 0.100000000000D+01
0.414195187089D-09 0.000000000000D+00 0.000000000000D+00 0.331040355815D-05 0.000000000000D+00  6 21 -1 25 2 -2 -1 2 0.51560563D+00 0.94356170D-01 0.98446714D+06 0.98446714D+06 0.98446714D+06 0.10483168D+01  3  4 12  5  4  1       -2 0.278614066221D-11 0.100000000000D+01
-.148268523442D-02 0.000000000000D+00 -.967500243632D-04 0.331040355815D-05 0.000000000000D+00  6 21 -1 25 2 -2 -1 2 0.51531850D+00 0.94356170D-01 0.97061535D+06 0.97061535D+06 0.97061535D+06 0.10487273D+01  3  4  5  5  4  1       -2 -.100539988426D-04 0.100000000000D+01
  </mgrwgt>
  </event>
  <event>
  5     66 -.14393686E-05 0.46926200E+02 0.75467711E-02 0.90666957E-01
       -4 -1    0    0    0  501 0.00000000E+00 0.00000000E+00 0.17179574E+04 0.17179581E+04 0.15500000E+01 0.0000E+00 0.9000E+01
       -3 -1    0    0    0  502 0.00000000E+00 0.00000000E+00 -.49130720E+03 0.49130746E+03 0.50000000E+00 0.0000E+00 0.9000E+01
       25  1    1    2    0    0 -.60035464E+03 0.29085406E+03 0.10233198E+02 0.67878678E+03 0.12500000E+03 0.0000E+00 0.9000E+01
       -4  1    1    2    0  502 0.19273147E+02 -.42830108E+02 -.77452457E+02 0.90593366E+02 0.15500000E+01 0.0000E+00 0.9000E+01
       -3  1    1    2    0  501 0.58108149E+03 -.24802395E+03 0.12938695E+04 0.14398854E+04 0.50000000E+00 0.0000E+00 0.9000E+01
#aMCatNLO 1  0  0  1  4 0.90553125D+02 0.00000000D+00  -5  6  0 0.00000000D+00 0.00000000D+00 0.00000000D+00 0.00000000D+00 0.00000000D+00
  <mgrwgt>
 -.2915889635D-04    7    4    0
 0.918719714499874D+03 0.000000000000000D+00 0.000000000000000D+00 0.918719714499874D+03
 0.918719714499874D+03 0.000000000000000D+00 0.000000000000000D+00 -.918719714499874D+03
 0.809498443704413D+03 -.600387763347444D+03 0.290838831819933D+03 -.441146277200812D+03
 0.160374010425788D+03 0.192559713432174D+02 -.427934089263509D+02 -.153354996462919D+03
 0.867566974869548D+03 0.581131792004227D+03 -.248045422893583D+03 0.594501273663731D+03
 0.000000000000000D+00 0.000000000000000D+00 -.000000000000000D+00 0.000000000000000D+00
 0.111664130646206D+04 0.000000000000000D+00 0.000000000000000D+00 0.111664130646206D+04
 0.930250853007246D+03 0.000000000000000D+00 0.000000000000000D+00 -.930250853007246D+03
 0.841342942153793D+03 -.628622574782870D+03 0.320088373573954D+03 -.441146277200812D+03
 0.158392221153322D+03 0.138040214964799D+02 -.371455215640542D+02 -.153354996462919D+03
 0.839934242762952D+03 0.551927911293088D+03 -.217791984502699D+03 0.594501273663731D+03
 0.207222753399236D+03 0.628906419933031D+02 -.651508675072004D+02 0.186390453454810D+03
 0.918719714499874D+03 0.000000000000000D+00 0.000000000000000D+00 0.918719714499874D+03
 0.918719714499874D+03 0.000000000000000D+00 0.000000000000000D+00 -.918719714499874D+03
 0.809498443704413D+03 -.600387763347444D+03 0.290838831819933D+03 -.441146277200812D+03
 0.000000000000000D+00 0.000000000000000D+00 -.000000000000000D+00 0.000000000000000D+00
 0.160374010425788D+03 0.192559713432174D+02 -.427934089263509D+02 -.153354996462919D+03
 0.867566974869548D+03 0.581131792004227D+03 -.248045422893583D+03 0.594501273663731D+03
 0.111664130646206D+04 0.000000000000000D+00 0.000000000000000D+00 0.111664130646206D+04
 0.930250853007246D+03 0.000000000000000D+00 0.000000000000000D+00 -.930250853007246D+03
 0.841342942153793D+03 -.628622574782870D+03 0.320088373573954D+03 -.441146277200812D+03
 0.207222753399236D+03 0.628906419933031D+02 -.651508675072004D+02 0.186390453454810D+03
 0.158392221153322D+03 0.138040214964799D+02 -.371455215640542D+02 -.153354996462919D+03
 0.839934242762952D+03 0.551927911293088D+03 -.217791984502699D+03 0.594501273663731D+03
0.344684907804D-03 0.000000000000D+00 0.000000000000D+00 0.182229572506D-05 0.000000000000D+00  6 -4 -3 25 -4 -3 21 0 0.26430122D+00 0.75585797D-01 0.46071078D+06 0.46071078D+06 0.46071078D+06 0.10710314D+01  1  2  2  1  6  1       -4 0.387424466499D-05 0.100000000000D+01
0.882896348611D-04 0.000000000000D+00 -.132368080359D-05 0.182229572506D-05 0.000000000000D+00  6 -4 -3 25 -4 -3 21 2 0.26430122D+00 0.75585797D-01 0.46071078D+06 0.46071078D+06 0.46071078D+06 0.10710314D+01  1  2  3  1  6  1       -4 0.113835807704D-05 0.100000000000D+01
-.252202304486D-03 0.000000000000D+00 0.000000000000D+00 0.182229572506D-05 0.000000000000D+00  6 -4 -3 25 -4 -3 21 2 0.26430122D+00 0.75585797D-01 0.46071078D+06 0.46071078D+06 0.46071078D+06 0.10710314D+01  1  2 15  1  6  1       -4 -.325175804396D-05 0.100000000000D+01
-.356574602536D-02 0.000000000000D+00 0.000000000000D+00 0.182229572506D-05 0.000000000000D+00  6 -4 -3 25 -4 -3 21 2 0.26430122D+00 0.75585797D-01 0.46071078D+06 0.46071078D+06 0.46071078D+06 0.10710314D+01  1  2  4  1  6  1       -4 -.459747715008D-04 0.100000000000D+01
-.369030160411D-02 0.000000000000D+00 -.359120149121D-03 0.182229572506D-05 0.000000000000D+00  6 -4 -3 25 -4 -3 21 2 0.32255343D+00 0.75585797D-01 0.46071078D+06 0.46071078D+06 0.46071078D+06 0.10710314D+01  1  2  5  1  6  1       -4 -.165493697322D-04 0.100000000000D+01
0.369529531734D-02 0.000000000000D+00 0.352112450852D-03 0.182229572506D-05 0.000000000000D+00  6 -4 -3 25 -4 -3 21 2 0.26430122D+00 0.75585797D-01 0.46071078D+06 0.46071078D+06 0.46071078D+06 0.10710314D+01  1  2  6  1  6  1       -4 0.476451089433D-04 0.100000000000D+01
-.101165372673D-03 0.000000000000D+00 -.102445065075D-04 0.182229572506D-05 0.000000000000D+00  6 21 -3 25 4 -4 -3 2 0.32255343D+00 0.75585797D-01 0.46071078D+06 0.46071078D+06 0.46071078D+06 0.10710314D+01  3  4  5  5  4  1       -4 -.160407087564D-04 0.100000000000D+01
  </mgrwgt>
  </event>
  <event>
  5     66 0.14393686E-05 0.69121735E+02 0.75467711E-02 0.94483601E-01
       -2 -1    0    0    0  501 0.00000000E+00 0.00000000E+00 0.70842036E+03 0.70842044E+03 0.32000000E+00 0.0000E+00 0.9000E+01
       -1 -1    0    0    0  502 0.00000000E+00 0.00000000E+00 -.68545622E+03 0.68545630E+03 0.32000000E+00 0.0000E+00 0.9000E+01
       25  1    1    2    0    0 0.46017197E+03 0.78360920E+02 0.47039736E+02 0.48552695E+03 0.12500000E+03 0.0000E+00 0.9000E+01
       -2  1    1    2    0  502 -.66311971E+02 0.19461425E+02 -.36920180E+03 0.37561429E+03 0.32000000E+00 0.0000E+00 0.9000E+01
       -1  1    1    2    0  501 -.39386000E+03 -.97822345E+02 0.34512620E+03 0.53273550E+03 0.32000000E+00 0.0000E+00 0.9000E+01
#aMCatNLO 1  0  0  4  1 0.45891672D+02 0.00000000D+00  -5  6  0 0.00000000D+00 0.00000000D+00 0.00000000D+00 0.00000000D+00 0.00000000D+00
  <mgrwgt>
 0.6523146896D-03    7    2    0
 0.696843776434193D+03 0.000000000000000D+00 0.000000000000000D+00 0.696843776434193D+03
 0.696843776434193D+03 -.000000000000000D+00 -.000000000000000D+00 -.696843776434193D+03
 0.484797986189386D+03 0.460144226779286D+03 0.783479052673117D+02 0.391533359396268D+02
 0.381822602687710D+03 -.663245870589056D+02 0.194644147415466D+02 -.375513895393302D+03
 0.527066963991290D+03 -.393819639720381D+03 -.978123200088583D+02 0.336360559453675D+03
 0.000000000000000D+00 -.000000000000000D+00 0.000000000000000D+00 0.000000000000000D+00
 0.696843776434193D+03 0.000000000000000D+00 0.000000000000000D+00 0.696843776434193D+03
 0.696843776434193D+03 -.000000000000000D+00 -.000000000000000D+00 -.696843776434193D+03
 0.483483743699851D+03 0.459153779905832D+03 0.786385737747126D+02 0.335456634289667D+02
 0.889371956431440D+02 0.120264281611901D+02 0.421176583243429D+02 -.774034408267778D+02
 0.523954381024601D+03 -.394894720219137D+03 -.974968138951189D+02 0.330273711666888D+03
 0.297312232500790D+03 -.762854878478854D+02 -.232594182039365D+02 -.286415934269077D+03
0.822680449730D-03 0.000000000000D+00 0.000000000000D+00 0.856668365757D-05 0.000000000000D+00  6 -2 -1 25 -2 -1 21 0 0.10898776D+00 0.10545481D+00 0.22949882D+06 0.22949882D+06 0.22949882D+06 0.10932657D+01  1  2  2  3  6  4       -2 0.527985016681D-03 0.100000000000D+01
0.204376288309D-03 0.000000000000D+00 -.315930954370D-05 0.856668365757D-05 0.000000000000D+00  6 -2 -1 25 -2 -1 21 2 0.10898776D+00 0.10545481D+00 0.22949882D+06 0.22949882D+06 0.22949882D+06 0.10932657D+01  1  2  3  3  6  4       -2 0.156773389575D-03 0.100000000000D+01
-.584643552648D-03 0.000000000000D+00 0.000000000000D+00 0.856668365757D-05 0.000000000000D+00  6 -2 -1 25 -2 -1 21 2 0.10898776D+00 0.10545481D+00 0.22949882D+06 0.22949882D+06 0.22949882D+06 0.10932657D+01  1  2 15  3  6  4       -2 -.448469595959D-03 0.100000000000D+01
0.196736588317D-08 0.000000000000D+00 0.000000000000D+00 0.856668365757D-05 0.000000000000D+00  6 -2 -1 25 -2 -1 21 2 0.10898776D+00 0.10545481D+00 0.25635213D+06 0.25635213D+06 0.25635213D+06 0.10896403D+01  1  2 12  3  6  4       -2 0.149078447128D-08 0.100000000000D+01
-.105032308250D-03 0.000000000000D+00 0.000000000000D+00 0.856668365757D-05 0.000000000000D+00  6 -2 -1 25 -2 -1 21 2 0.10898776D+00 0.10545481D+00 0.22949882D+06 0.22949882D+06 0.22949882D+06 0.10932657D+01  1  2  4  3  6  4       -2 -.805684021149D-04 0.100000000000D+01
-.714074925792D-03 0.000000000000D+00 0.000000000000D+00 0.856668365757D-05 0.000000000000D+00  6 -2 -1 25 -2 -1 21 2 0.10898776D+00 0.10545481D+00 0.22949882D+06 0.22949882D+06 0.22949882D+06 0.10932657D+01  1  2  5  3  6  4       -2 -.547754083671D-03 0.100000000000D+01
0.136145386956D-02 0.000000000000D+00 -.000000000000D+00 0.856668365757D-05 0.000000000000D+00  6 -2 -1 25 -2 -1 21 2 0.10898776D+00 0.10545481D+00 0.22949882D+06 0.22949882D+06 0.22949882D+06 0.10932657D+01  1  2  6  3  6  4       -2 0.104434687432D-02 0.100000000000D+01
  </mgrwgt>
  </event>
  <event>
  5     66 -.14393686E-05 0.38653654E+02 0.75467711E-02 0.94132762E-01
       -2 -1    0    0    0  501 0.00000000E+00 0.00000000E+00 0.67788982E+03 0.67788990E+03 0.32000000E+00 0.0000E+00 0.9000E+01
       -1 -1    0    0    0  502 -.00000000E+00 -.00000000E+00 -.17479151E+04 0.17479151E+04 0.32000000E+00 0.0000E+00 0.9000E+01
       25  1    1    2    0    0 0.27458996E+03 -.41413377E+03 0.32016161E+03 0.60418117E+03 0.12500000E+03 0.0000E+00 0.9000E+01
       -2  1    1    2    0  502 -.30248882E+03 0.38733532E+03 -.15661549E+04 0.16414535E+04 0.32000000E+00 0.0000E+00 0.9000E+01
       -1  1    1    2    0  501 0.27898861E+02 0.26798457E+02 0.17596806E+03 0.18017037E+03 0.32000000E+00 0.0000E+00 0.9000E+01
#aMCatNLO 1  0  0  4  1 0.55387366D+02 0.00000000D+00  -5  6  0 0.00000000D+00 0.00000000D+00 0.00000000D+00 0.00000000D+00 0.00000000D+00
  <mgrwgt>
 -.1042674745D-02    4    2    0
 0.108852835621105D+04 0.000000000000000D+00 0.000000000000000D+00 0.108852835621105D+04
 0.108852835621105D+04 -.000000000000000D+00 -.000000000000000D+00 -.108852835621105D+04
 0.830782879083652D+03 0.274654237245426D+03 -.414170406897599D+03 0.653913691699396D+03
 0.105925940757867D+04 -.302530729727246D+03 0.387393436257914D+03 -.938313367515830D+03
 0.287014425759787D+03 0.278764924818198D+02 0.267769706396853D+02 0.284399675816434D+03
 0.000000000000000D+00 0.000000000000000D+00 0.000000000000000D+00 -.000000000000000D+00
 0.108852835621105D+04 0.000000000000000D+00 0.000000000000000D+00 0.108852835621105D+04
 0.108852835621105D+04 -.000000000000000D+00 -.000000000000000D+00 -.108852835621105D+04
 0.829934496993534D+03 0.274405453584858D+03 -.413851837087388D+03 0.653142077409037D+03
 0.463835985258878D+03 -.165089174742293D+03 0.167577531321120D+03 -.399758873072633D+03
 0.286752225021920D+03 0.277905394053063D+02 0.268870343601460D+02 0.284133088284171D+03
 0.596534005147775D+03 -.137106818247872D+03 0.219387271406122D+03 -.537516292620574D+03
0.798484303221D-03 0.000000000000D+00 0.000000000000D+00 0.629349877921D-04 0.000000000000D+00  6 -2 -1 25 -2 -1 21 0 0.10429075D+00 0.26891002D+00 0.27176549D+06 0.27176549D+06 0.27176549D+06 0.10877421D+01  1  2  2  3  6  4       -2 0.244777195159D-04 0.100000000000D+01
0.215106949276D-03 0.000000000000D+00 -.306638997012D-05 0.629349877921D-04 0.000000000000D+00  6 -2 -1 25 -2 -1 21 2 0.10429075D+00 0.26891002D+00 0.27176549D+06 0.27176549D+06 0.27176549D+06 0.10877421D+01  1  2  3  3  6  4       -2 0.780208945724D-05 0.100000000000D+01
-.588973794577D-03 0.000000000000D+00 0.000000000000D+00 0.629349877921D-04 0.000000000000D+00  6 -2 -1 25 -2 -1 21 2 0.10429075D+00 0.26891002D+00 0.27176549D+06 0.27176549D+06 0.27176549D+06 0.10877421D+01  1  2 15  3  6  4       -2 -.213625187318D-04 0.100000000000D+01
-.290479838367D-01 0.000000000000D+00 0.000000000000D+00 0.629349877921D-04 0.000000000000D+00  6 -2 -1 25 -2 -1 21 2 0.10429075D+00 0.26891002D+00 0.27176549D+06 0.27176549D+06 0.27176549D+06 0.10877421D+01  1  2  5  3  6  4       -2 -.105359203508D-02 0.100000000000D+01
  </mgrwgt>
  </event>
  <event>
  6     66 0.14393686E-05 0.28306613E+03 0.75467711E-02 0.89533286E-01
       -4 -1    0    0    0  501 0.00000000E+00 0.00000000E+00 0.83230572E+03 0.83230717E+03 0.15500000E+01 0.0000E+00 0.9000E+01
       21 -1    0    0  503  502 0.00000000E+00 0.00000000E+00 -.12480562E+04 0.12480564E+04 0.75000000E+00 0.0000E+00 0.9000E+01
       25  1    1    2    0    0 -.15294031E+03 0.45734661E+03 0.70391446E+02 0.50312683E+03 0.12500000E+03 0.0000E+00 0.9000E+01
        3  1    1    2  503    0 -.28444384E+02 0.22656509E+03 -.46810971E+03 0.52083373E+03 0.50000000E+00 0.0000E+00 0.9000E+01
       -4  1    1    2    0  502 -.56443114E+02 0.70559144E+02 -.22180750E+03 0.23951073E+03 0.15500000E+01 0.0000E+00 0.9000E+01
       -3  1    1    2    0  501 0.23782780E+03 -.75447084E+03 0.20377534E+03 0.81689226E+03 0.50000000E+00 0.0000E+00 0.9000E+01
#aMCatNLO 2  0  0  2  1 0.22834366D+03 0.00000000D+00  -5  6  0 0.00000000D+00 0.00000000D+00 0.00000000D+00 0.00000000D+00 0.00000000D+00
  <mgrwgt>
 0.7961930009D-03    1    2    0
 0.770916814145266D+03 0.000000000000000D+00 0.000000000000000D+00 0.770916814145266D+03
 0.770916814145266D+03 0.000000000000000D+00 0.000000000000000D+00 -.770916814145266D+03
 0.576653946928600D+03 -.162885679188443D+03 0.536216903555632D+03 0.533335013369930D+02
 0.000000000000000D+00 -.000000000000000D+00 0.000000000000000D+00 -.000000000000000D+00
 0.261009200849464D+03 -.610710991023270D+02 0.107645321934505D+03 -.229801236828975D+03
 0.704170480512468D+03 0.223956778290770D+03 -.643862225490137D+03 0.176467735491982D+03
 0.804816507427625D+03 0.000000000000000D+00 0.000000000000000D+00 0.804816507427625D+03
 0.129068641162075D+04 0.000000000000000D+00 0.000000000000000D+00 -.129068641162075D+04
 0.501144094275965D+03 -.152997771610605D+03 0.457457782472879D+03 0.533335013369930D+02
 0.536852296830759D+03 -.284443843313196D+02 0.226565093983680D+03 -.485869904193129D+03
 0.246911433262245D+03 -.564113464446210D+02 0.705294790835343D+02 -.229801236828975D+03
 0.810595094679408D+03 0.237853502386545D+03 -.754552355540093D+03 0.176467735491982D+03
0.409172099608D-02 0.000000000000D+00 0.000000000000D+00 0.903476562292D-07 0.436538961553D-09  6 -4 21 25 3 -4 -3 2 0.12804714D+00 0.19200874D+00 0.64650377D+06 0.64650377D+06 0.64650377D+06 0.10607113D+01  1  2  1  6  4  2       -3 0.796193000887D-03 0.100000000000D+01
  </mgrwgt>
  </event>
</LesHouchesEvents>
