<event>
 5    0  0.4025551E-002  0.8333469E+03  0.7546771E-02  0.9512965E-01
          4   -1    0    0  503    0  0.00000000000E+00  0.00000000000E+00  0.13766304400E+04  0.13766304400E+04  0.00000000000E+00 0.  1.
         -4   -1    0    0    0  501 -0.00000000000E+00 -0.00000000000E+00 -0.38394866679E+03  0.38394866679E+03  0.00000000000E+00 0. -1.
         25    1    1    2    0    0 -0.30769099895E+03  0.12387331651E+03  0.31542472586E+03  0.47448509678E+03  0.12500000000E+03 0.  0.
         21    1    1    2  502  501  0.29467437518E+02 -0.19199623189E+03  0.90157986693E+03  0.92226739040E+03  0.00000000000E+00 0.  1.
         21    1    1    2  503  502  0.27822356143E+03  0.68122915374E+02 -0.22432281960E+03  0.36382661960E+03  0.00000000000E+00 0. -1.
<mgrwt>
<rscale>  4 0.83334685E+03</rscale>
<asrwt>0</asrwt>
<pdfrwt beam="1">  1        4 0.21178930E+00 0.83334685E+03</pdfrwt>
<pdfrwt beam="2">  1       -4 0.59069026E-01 0.83334685E+03</pdfrwt>
<totfact> 0.58877357E-01</totfact>
</mgrwt>
</event>
<event>
 5    0  0.4025551E-002  0.4715895E+03  0.7546771E-02  0.1021473E+00
         -1   -1    0    0    0  501 -0.00000000000E+00  0.00000000000E+00  0.39698012452E+03  0.39698012452E+03  0.00000000000E+00 0.  1.
          1   -1    0    0  502    0  0.00000000000E+00 -0.00000000000E+00 -0.22265283640E+03  0.22265283640E+03  0.00000000000E+00 0. -1.
         25    1    1    2    0    0 -0.62357337376E+02 -0.20425774542E+03 -0.22240809127E+02  0.24845385423E+03  0.12500000000E+03 0.  0.
         21    1    1    2  502  503  0.84135417536E+02 -0.69060381122E+01  0.11742852421E+03  0.14462337343E+03  0.00000000000E+00 0. -1.
         21    1    1    2  503  501 -0.21778080160E+02  0.21116378353E+03  0.79139573046E+02  0.22655573326E+03  0.00000000000E+00 0.  1.
<mgrwt>
<rscale>  4 0.47158948E+03</rscale>
<asrwt>0</asrwt>
<pdfrwt beam="1">  1        1 0.34254283E-01 0.47158948E+03</pdfrwt>
<pdfrwt beam="2">  1       -1 0.61073865E-01 0.47158948E+03</pdfrwt>
<totfact> 0.35804209E+02</totfact>
</mgrwt>
</event>
<event>
 5    0  0.4025551E-002  0.5226927E+03  0.7546771E-02  0.1008020E+00
         -2   -1    0    0    0  501 -0.00000000000E+00  0.00000000000E+00  0.43120558187E+02  0.43120558187E+02  0.00000000000E+00 0. -1.
          2   -1    0    0  502    0  0.00000000000E+00 -0.00000000000E+00 -0.19930909287E+04  0.19930909287E+04  0.00000000000E+00 0.  1.
         25    1    1    2    0    0 -0.92836909327E+01  0.26091362582E+03 -0.12270623632E+04  0.12607415081E+04  0.12500000000E+03 0.  0.
         21    1    1    2  502  503 -0.20241413545E+02 -0.36867181541E+02 -0.48442900565E+02  0.64153086536E+02  0.00000000000E+00 0.  1.
         21    1    1    2  503  501  0.29525104477E+02 -0.22404644428E+03 -0.67446510680E+03  0.71131689230E+03  0.00000000000E+00 0.  1.
<mgrwt>
<rscale>  4 0.52269266E+03</rscale>
<asrwt>0</asrwt>
<pdfrwt beam="1">  1        2 0.30662939E+00 0.52269266E+03</pdfrwt>
<pdfrwt beam="2">  1       -2 0.66339317E-02 0.52269266E+03</pdfrwt>
<totfact> 0.92744801E+02</totfact>
</mgrwt>
</event>
<event>
 5    0  0.4025551E-002  0.4704701E+03  0.7546771E-02  0.1021788E+00
         -2   -1    0    0    0  501 -0.00000000000E+00  0.00000000000E+00  0.58365838711E+02  0.58365838711E+02  0.00000000000E+00 0.  1.
          2   -1    0    0  502    0  0.00000000000E+00 -0.00000000000E+00 -0.34926124663E+04  0.34926124663E+04  0.00000000000E+00 0. -1.
         25    1    1    2    0    0  0.59922967257E+02  0.24423633645E+03 -0.17071203925E+04  0.17300656590E+04  0.12500000000E+03 0.  0.
         21    1    1    2  502  503  0.39886140731E+02 -0.96049679580E+02 -0.21812207184E+02  0.10626484627E+03  0.00000000000E+00 0.  1.
         21    1    1    2  503  501 -0.99809107988E+02 -0.14818665687E+03 -0.17053140279E+04  0.17146477997E+04  0.00000000000E+00 0.  1.
<mgrwt>
<rscale>  4 0.47047013E+03</rscale>
<asrwt>0</asrwt>
<pdfrwt beam="1">  1        2 0.53732508E+00 0.47047013E+03</pdfrwt>
<pdfrwt beam="2">  1       -2 0.89793584E-02 0.47047013E+03</pdfrwt>
<totfact> 0.76130607E+01</totfact>
</mgrwt>
</event>
<event>
 5    0  0.4025551E-002  0.4886365E+03  0.7546771E-02  0.1016788E+00
          1   -1    0    0  502    0  0.00000000000E+00  0.00000000000E+00  0.75258087326E+03  0.75258087326E+03  0.00000000000E+00 0.  1.
         -1   -1    0    0    0  501 -0.00000000000E+00 -0.00000000000E+00 -0.11500029539E+03  0.11500029539E+03  0.00000000000E+00 0. -1.
         25    1    1    2    0    0 -0.21489149496E+03 -0.61258558143E+02  0.24035173749E+03  0.35117648450E+03  0.12500000000E+03 0.  0.
         21    1    1    2  502  503  0.55103839474E+01  0.34897502789E+02 -0.25740203100E+02  0.43712218976E+02  0.00000000000E+00 0. -1.
         21    1    1    2  503  501  0.20938111101E+03  0.26361055355E+02  0.42296904347E+03  0.47269246517E+03  0.00000000000E+00 0.  1.
<mgrwt>
<rscale>  4 0.48863646E+03</rscale>
<asrwt>0</asrwt>
<pdfrwt beam="1">  1        1 0.11578167E+00 0.48863646E+03</pdfrwt>
<pdfrwt beam="2">  1       -1 0.17692354E-01 0.48863646E+03</pdfrwt>
<totfact> 0.61968663E+02</totfact>
</mgrwt>
</event>
<event>
 5    0  0.4025551E-002  0.1207814E+04  0.7546771E-02  0.9106044E-01
          2   -1    0    0  503    0  0.00000000000E+00  0.00000000000E+00  0.10374965501E+04  0.10374965501E+04  0.00000000000E+00 0.  1.
         -2   -1    0    0    0  501 -0.00000000000E+00 -0.00000000000E+00 -0.47409376941E+03  0.47409376941E+03  0.00000000000E+00 0. -1.
         25    1    1    2    0    0  0.41984101679E+03 -0.23321549272E+02  0.84183973186E+03  0.94927841447E+03  0.12500000000E+03 0.  0.
         21    1    1    2  502  501 -0.40705968216E+03  0.45324631546E+02 -0.15764133196E+03  0.43886523741E+03  0.00000000000E+00 0. -1.
         21    1    1    2  503  502 -0.12781334625E+02 -0.22003082273E+02 -0.12079561918E+03  0.12344666766E+03  0.00000000000E+00 0. -1.
<mgrwt>
<rscale>  4 0.12078143E+04</rscale>
<asrwt>0</asrwt>
<pdfrwt beam="1">  1        2 0.15961485E+00 0.12078143E+04</pdfrwt>
<pdfrwt beam="2">  1       -2 0.72937503E-01 0.12078143E+04</pdfrwt>
<totfact> 0.39814143E+01</totfact>
</mgrwt>
</event>
<event>
 5    0  0.4025551E-002  0.5521318E+03  0.7546771E-02  0.1001002E+00
         -2   -1    0    0    0  501 -0.00000000000E+00  0.00000000000E+00  0.22474379509E+03  0.22474379509E+03  0.00000000000E+00 0. -1.
          2   -1    0    0  503    0  0.00000000000E+00 -0.00000000000E+00 -0.44816763779E+03  0.44816763779E+03  0.00000000000E+00 0.  1.
         25    1    1    2    0    0 -0.26381396464E+03  0.93435663580E+02 -0.14296779942E+03  0.33822008048E+03  0.12500000000E+03 0.  0.
         21    1    1    2  502  501  0.22345214046E+03 -0.10177190991E+03 -0.12371450428E+03  0.27494301099E+03  0.00000000000E+00 0.  1.
         21    1    1    2  503  502  0.40361824180E+02  0.83362463290E+01  0.43258461007E+02  0.59748341422E+02  0.00000000000E+00 0. -1.
<mgrwt>
<rscale>  4 0.55213180E+03</rscale>
<asrwt>0</asrwt>
<pdfrwt beam="1">  1        2 0.68948867E-01 0.55213180E+03</pdfrwt>
<pdfrwt beam="2">  1       -2 0.34575969E-01 0.55213180E+03</pdfrwt>
<totfact> 0.55261271E+02</totfact>
</mgrwt>
</event>
<event>
 5    0  0.4025551E-002  0.6497305E+03  0.7546771E-02  0.9807285E-01
          1   -1    0    0  503    0  0.00000000000E+00  0.00000000000E+00  0.17598442377E+04  0.17598442377E+04  0.00000000000E+00 0.  1.
         -1   -1    0    0    0  501 -0.00000000000E+00 -0.00000000000E+00 -0.89920560681E+02  0.89920560681E+02  0.00000000000E+00 0. -1.
         25    1    1    2    0    0 -0.54540171709E+02  0.31797849580E+03  0.49794489294E+03  0.60634896761E+03  0.12500000000E+03 0.  0.
         21    1    1    2  502  501 -0.60454473450E+02 -0.23652331419E+03  0.94687975129E+03  0.97784420278E+03  0.00000000000E+00 0.  1.
         21    1    1    2  503  502  0.11499464516E+03 -0.81455181614E+02  0.22509903278E+03  0.26557162798E+03  0.00000000000E+00 0.  1.
<mgrwt>
<rscale>  4 0.64973052E+03</rscale>
<asrwt>0</asrwt>
<pdfrwt beam="1">  1        1 0.27074524E+00 0.64973052E+03</pdfrwt>
<pdfrwt beam="2">  1       -1 0.13833934E-01 0.64973052E+03</pdfrwt>
<totfact> 0.16820753E+02</totfact>
</mgrwt>
</event>
<event>
 5    0  0.4025551E-002  0.5480368E+03  0.7546771E-02  0.1001949E+00
          2   -1    0    0  502    0  0.00000000000E+00  0.00000000000E+00  0.12165227355E+04  0.12165227355E+04  0.00000000000E+00 0.  1.
         -2   -1    0    0    0  501 -0.00000000000E+00 -0.00000000000E+00 -0.11577518884E+03  0.11577518884E+03  0.00000000000E+00 0. -1.
         25    1    1    2    0    0 -0.17909936319E+03 -0.11580201336E+03  0.37607055110E+03  0.45004527284E+03  0.12500000000E+03 0.  0.
         21    1    1    2  502  503 -0.10332658400E+03  0.54657295540E+02  0.17347182885E+02  0.11817244887E+03  0.00000000000E+00 0. -1.
         21    1    1    2  503  501  0.28242594719E+03  0.61144717818E+02  0.70732981271E+03  0.76408020267E+03  0.00000000000E+00 0.  1.
<mgrwt>
<rscale>  4 0.54803679E+03</rscale>
<asrwt>0</asrwt>
<pdfrwt beam="1">  1        2 0.18715733E+00 0.54803679E+03</pdfrwt>
<pdfrwt beam="2">  1       -2 0.17811568E-01 0.54803679E+03</pdfrwt>
<totfact> 0.49264289E+02</totfact>
</mgrwt>
</event>
<event>
 5    0  0.6276143E-002  0.9732427E+03  0.7546771E-02  0.9338389E-01
         -2   -1    0    0    0  501 -0.00000000000E+00  0.00000000000E+00  0.49931475803E+03  0.49931475803E+03  0.00000000000E+00 0. -1.
          2   -1    0    0  502    0  0.00000000000E+00 -0.00000000000E+00 -0.51483428900E+03  0.51483428900E+03  0.00000000000E+00 0.  1.
         25    1    1    2    0    0  0.51889380367E+02  0.20256835916E+03  0.41376224159E+03  0.48015689154E+03  0.12500000000E+03 0.  0.
         21    1    1    2  502  503  0.13549255298E+02 -0.25776219056E+02  0.27367111654E+02  0.39961914221E+02  0.00000000000E+00 0. -1.
         21    1    1    2  503  501 -0.65438635665E+02 -0.17679214010E+03 -0.45664888421E+03  0.49403024127E+03  0.00000000000E+00 0.  1.
<mgrwt>
<rscale>  4 0.97324268E+03</rscale>
<asrwt>0</asrwt>
<pdfrwt beam="1">  1        2 0.79205275E-01 0.97324268E+03</pdfrwt>
<pdfrwt beam="2">  1       -2 0.76817655E-01 0.97324268E+03</pdfrwt>
<totfact> 0.90111857E+01</totfact>
</mgrwt>
</event>
<event>
 5    0  0.4025551E-002  0.7313446E+03  0.7546771E-02  0.9665081E-01
          1   -1    0    0  502    0  0.00000000000E+00  0.00000000000E+00  0.10383224217E+04  0.10383224217E+04  0.00000000000E+00 0. -1.
         -1   -1    0    0    0  501 -0.00000000000E+00 -0.00000000000E+00 -0.20598104964E+03  0.20598104964E+03  0.00000000000E+00 0.  1.
         25    1    1    2    0    0 -0.24432906651E+03  0.18170275182E+03  0.22209259926E+03  0.39706763329E+03  0.12500000000E+03 0.  0.
         21    1    1    2  502  503  0.29737198074E+03 -0.27059241127E+03  0.25240089486E+03  0.47471734716E+03  0.00000000000E+00 0. -1.
         21    1    1    2  503  501 -0.53042914237E+02  0.88889659454E+02  0.35784787791E+03  0.37251849086E+03  0.00000000000E+00 0.  1.
<mgrwt>
<rscale>  4 0.73134464E+03</rscale>
<asrwt>0</asrwt>
<pdfrwt beam="1">  1        1 0.15974191E+00 0.73134464E+03</pdfrwt>
<pdfrwt beam="2">  1       -1 0.31689393E-01 0.73134464E+03</pdfrwt>
<totfact> 0.13329102E+02</totfact>
</mgrwt>
</event>
<event>
 5    0  0.4025551E-002  0.6454473E+03  0.7546771E-02  0.9815360E-01
         -1   -1    0    0    0  501 -0.00000000000E+00  0.00000000000E+00  0.72041666057E+02  0.72041666057E+02  0.00000000000E+00 0. -1.
          1   -1    0    0  503    0  0.00000000000E+00 -0.00000000000E+00 -0.16063672909E+04  0.16063672909E+04  0.00000000000E+00 0.  1.
         25    1    1    2    0    0  0.20258937292E+03 -0.70823675292E+02 -0.19322865484E+03  0.31467564262E+03  0.12500000000E+03 0.  0.
         21    1    1    2  502  501 -0.18914803128E+03  0.38746641228E+02 -0.12699201825E+04  0.12845137407E+04  0.00000000000E+00 0.  1.
         21    1    1    2  503  502 -0.13441341645E+02  0.32077034063E+02 -0.71176787438E+02  0.79219573652E+02  0.00000000000E+00 0.  1.
<mgrwt>
<rscale>  4 0.64544726E+03</rscale>
<asrwt>0</asrwt>
<pdfrwt beam="1">  1        1 0.24713342E+00 0.64544726E+03</pdfrwt>
<pdfrwt beam="2">  1       -1 0.11083333E-01 0.64544726E+03</pdfrwt>
<totfact> 0.30417998E+02</totfact>
</mgrwt>
</event>
<event>
 5    0  0.4025551E-002  0.4119021E+03  0.7546771E-02  0.1039735E+00
         -2   -1    0    0    0  501 -0.00000000000E+00  0.00000000000E+00  0.28956335700E+02  0.28956335700E+02  0.00000000000E+00 0.  1.
          2   -1    0    0  503    0  0.00000000000E+00 -0.00000000000E+00 -0.29427939826E+04  0.29427939826E+04  0.00000000000E+00 0. -1.
         25    1    1    2    0    0  0.16992174906E+03  0.12903513836E+03 -0.68744795376E+03  0.73057043251E+03  0.12500000000E+03 0.  0.
         21    1    1    2  502  501 -0.36658760314E+02 -0.88647830139E+02 -0.13874544631E+04  0.13907667632E+04  0.00000000000E+00 0. -1.
         21    1    1    2  503  502 -0.13326298874E+03 -0.40387308220E+02 -0.83893523005E+03  0.85041312258E+03  0.00000000000E+00 0. -1.
<mgrwt>
<rscale>  4 0.41190215E+03</rscale>
<asrwt>0</asrwt>
<pdfrwt beam="1">  1        2 0.45273770E+00 0.41190215E+03</pdfrwt>
<pdfrwt beam="2">  1       -2 0.44548193E-02 0.41190215E+03</pdfrwt>
<totfact> 0.51180280E+02</totfact>
</mgrwt>
</event>
<event>
 5    0  0.4025551E-002  0.6780027E+03  0.7546771E-02  0.9755608E-01
         -2   -1    0    0    0  501 -0.00000000000E+00  0.00000000000E+00  0.24185097336E+03  0.24185097336E+03  0.00000000000E+00 0.  1.
          2   -1    0    0  503    0  0.00000000000E+00 -0.00000000000E+00 -0.14170748042E+04  0.14170748042E+04  0.00000000000E+00 0. -1.
         25    1    1    2    0    0  0.25034690875E+03  0.22980575723E+03 -0.70913863462E+03  0.79623292063E+03  0.12500000000E+03 0.  0.
         21    1    1    2  502  501 -0.24891608318E+03 -0.19451861552E+03 -0.62478592496E+03  0.70011010582E+03  0.00000000000E+00 0.  1.
         21    1    1    2  503  502 -0.14308255696E+01 -0.35287141716E+02  0.15870072878E+03  0.16258275108E+03  0.00000000000E+00 0.  1.
<mgrwt>
<rscale>  4 0.67800274E+03</rscale>
<asrwt>0</asrwt>
<pdfrwt beam="1">  1        2 0.21801151E+00 0.67800274E+03</pdfrwt>
<pdfrwt beam="2">  1       -2 0.37207842E-01 0.67800274E+03</pdfrwt>
<totfact> 0.98676746E+01</totfact>
</mgrwt>
</event>
<event>
 5    0  0.4025551E-002  0.5476475E+03  0.7546771E-02  0.1002040E+00
         -2   -1    0    0    0  501 -0.00000000000E+00  0.00000000000E+00  0.38507874975E+02  0.38507874975E+02  0.00000000000E+00 0.  1.
          2   -1    0    0  502    0  0.00000000000E+00 -0.00000000000E+00 -0.22624711773E+04  0.22624711773E+04  0.00000000000E+00 0. -1.
         25    1    1    2    0    0  0.21296447730E+03  0.51344387888E+02 -0.57854407431E+03  0.63113260150E+03  0.12500000000E+03 0.  0.
         21    1    1    2  502  503 -0.81251405066E+01  0.22902767197E+02 -0.25072996251E+02  0.34917184802E+02  0.00000000000E+00 0. -1.
         21    1    1    2  503  501 -0.20483933679E+03 -0.74247155085E+02 -0.16203462318E+04  0.16349292660E+04  0.00000000000E+00 0. -1.
<mgrwt>
<rscale>  4 0.54764752E+03</rscale>
<asrwt>0</asrwt>
<pdfrwt beam="1">  1        2 0.34807257E+00 0.54764752E+03</pdfrwt>
<pdfrwt beam="2">  1       -2 0.59242871E-02 0.54764752E+03</pdfrwt>
<totfact> 0.78914804E+02</totfact>
</mgrwt>
</event>
<event>
 5    0  0.4025551E-002  0.6348578E+03  0.7546771E-02  0.9835615E-01
         -2   -1    0    0    0  501 -0.00000000000E+00  0.00000000000E+00  0.65417661267E+03  0.65417661267E+03  0.00000000000E+00 0.  1.
          2   -1    0    0  503    0  0.00000000000E+00 -0.00000000000E+00 -0.26194043792E+03  0.26194043792E+03  0.00000000000E+00 0. -1.
         25    1    1    2    0    0  0.40980093323E+02  0.32430423530E+03  0.19028730971E+02  0.35048494644E+03  0.12500000000E+03 0.  0.
         21    1    1    2  502  501 -0.11992525278E+03 -0.70909809127E+02  0.21638038798E+03  0.25735333608E+03  0.00000000000E+00 0.  1.
         21    1    1    2  503  502  0.78945159459E+02 -0.25339442617E+03  0.15682705579E+03  0.30827876807E+03  0.00000000000E+00 0.  1.
<mgrwt>
<rscale>  4 0.63485776E+03</rscale>
<asrwt>0</asrwt>
<pdfrwt beam="1">  1        2 0.40298529E-01 0.63485776E+03</pdfrwt>
<pdfrwt beam="2">  1       -2 0.10064256E+00 0.63485776E+03</pdfrwt>
<totfact> 0.10542297E+02</totfact>
</mgrwt>
</event>
<event>
 5    0  0.4025551E-002  0.7550211E+03  0.7546771E-02  0.9627506E-01
         -2   -1    0    0    0  501 -0.00000000000E+00  0.00000000000E+00  0.79971932738E+02  0.79971932738E+02  0.00000000000E+00 0.  1.
          2   -1    0    0  502    0  0.00000000000E+00 -0.00000000000E+00 -0.19752252576E+04  0.19752252576E+04  0.00000000000E+00 0. -1.
         25    1    1    2    0    0 -0.49592855373E+02  0.32985748712E+03 -0.14384377719E+04  0.14818885372E+04  0.12500000000E+03 0.  0.
         21    1    1    2  502  503  0.21775355207E+02 -0.13529603965E+02 -0.16705771710E+02  0.30599004661E+02  0.00000000000E+00 0.  1.
         21    1    1    2  503  501  0.27817500166E+02 -0.31632788315E+03 -0.44010978126E+03  0.54270964846E+03  0.00000000000E+00 0.  1.
<mgrwt>
<rscale>  4 0.75502113E+03</rscale>
<asrwt>0</asrwt>
<pdfrwt beam="1">  1        2 0.30388081E+00 0.75502113E+03</pdfrwt>
<pdfrwt beam="2">  1       -2 0.12303374E-01 0.75502113E+03</pdfrwt>
<totfact> 0.34436762E+02</totfact>
</mgrwt>
</event>
<event>
 5    0  0.4025551E-002  0.5073660E+03  0.7546771E-02  0.1011874E+00
         -1   -1    0    0    0  501 -0.00000000000E+00  0.00000000000E+00  0.14110476748E+03  0.14110476748E+03  0.00000000000E+00 0.  1.
          1   -1    0    0  502    0  0.00000000000E+00 -0.00000000000E+00 -0.88872206978E+03  0.88872206978E+03  0.00000000000E+00 0. -1.
         25    1    1    2    0    0 -0.79093488938E+02 -0.21945016587E+03 -0.32693867739E+03  0.42062816604E+03  0.12500000000E+03 0.  0.
         21    1    1    2  502  503  0.21954002575E+02 -0.30730130091E+01  0.66753064046E+02  0.70337708219E+02  0.00000000000E+00 0.  1.
         21    1    1    2  503  501  0.57139486363E+02  0.22252317888E+03 -0.48743168896E+03  0.53886096300E+03  0.00000000000E+00 0.  1.
<mgrwt>
<rscale>  4 0.50736604E+03</rscale>
<asrwt>0</asrwt>
<pdfrwt beam="1">  1        1 0.13672647E+00 0.50736604E+03</pdfrwt>
<pdfrwt beam="2">  1       -1 0.21708426E-01 0.50736604E+03</pdfrwt>
<totfact> 0.33889693E+02</totfact>
</mgrwt>
</event>
<event>
 5    0  0.4025551E-002  0.4676142E+03  0.7546771E-02  0.1022596E+00
         -1   -1    0    0    0  501 -0.00000000000E+00  0.00000000000E+00  0.54863132905E+02  0.54863132905E+02  0.00000000000E+00 0. -1.
          1   -1    0    0  503    0  0.00000000000E+00 -0.00000000000E+00 -0.24490564713E+04  0.24490564713E+04  0.00000000000E+00 0.  1.
         25    1    1    2    0    0 -0.18433036207E+03 -0.10829053658E+03 -0.13508865542E+04  0.13733987058E+04  0.12500000000E+03 0.  0.
         21    1    1    2  502  501  0.21041690105E+03  0.60965256694E+02 -0.10530629565E+04  0.10756084906E+04  0.00000000000E+00 0.  1.
         21    1    1    2  503  502 -0.26086538983E+02  0.47325279887E+02  0.97561723048E+01  0.54912407801E+02  0.00000000000E+00 0. -1.
<mgrwt>
<rscale>  4 0.46761416E+03</rscale>
<asrwt>0</asrwt>
<pdfrwt beam="1">  1        1 0.37677792E+00 0.46761416E+03</pdfrwt>
<pdfrwt beam="2">  1       -1 0.84404819E-02 0.46761416E+03</pdfrwt>
<totfact> 0.13065374E+02</totfact>
</mgrwt>
</event>
<event>
 5    0  0.4025551E-002  0.5354799E+03  0.7546771E-02  0.1004912E+00
          3   -1    0    0  502    0  0.00000000000E+00  0.00000000000E+00  0.16738163726E+03  0.16738163726E+03  0.00000000000E+00 0. -1.
         -3   -1    0    0    0  501 -0.00000000000E+00 -0.00000000000E+00 -0.84468496383E+03  0.84468496383E+03  0.00000000000E+00 0.  1.
         25    1    1    2    0    0 -0.13854252999E+03  0.16085061629E+03  0.36008657654E+02  0.24897505257E+03  0.12500000000E+03 0.  0.
         21    1    1    2  502  503  0.13759374321E+02 -0.14250437598E+03 -0.33503014115E+03  0.36433777327E+03  0.00000000000E+00 0. -1.
         21    1    1    2  503  501  0.12478315567E+03 -0.18346240312E+02 -0.37828184308E+03  0.39875377525E+03  0.00000000000E+00 0.  1.
<mgrwt>
<rscale>  4 0.53547995E+03</rscale>
<asrwt>0</asrwt>
<pdfrwt beam="1">  1        3 0.25751021E-01 0.53547995E+03</pdfrwt>
<pdfrwt beam="2">  1       -3 0.12995153E+00 0.53547995E+03</pdfrwt>
<totfact> 0.17584074E+01</totfact>
</mgrwt>
</event>
<event>
 5    0  0.4025551E-002  0.5145595E+03  0.7546771E-02  0.1010047E+00
          1   -1    0    0  502    0  0.00000000000E+00  0.00000000000E+00  0.57496710133E+03  0.57496710133E+03  0.00000000000E+00 0. -1.
         -1   -1    0    0    0  501 -0.00000000000E+00 -0.00000000000E+00 -0.11512462109E+03  0.11512462109E+03  0.00000000000E+00 0.  1.
         25    1    1    2    0    0  0.10135168916E+03 -0.21282059145E+03  0.25282718398E+03  0.36757496378E+03  0.12500000000E+03 0.  0.
         21    1    1    2  502  503 -0.10092321305E+02  0.62682751953E+02  0.21562310783E+02  0.67051589004E+02  0.00000000000E+00 0.  1.
         21    1    1    2  503  501 -0.91259367853E+02  0.15013783950E+03  0.18545298548E+03  0.25546516963E+03  0.00000000000E+00 0. -1.
<mgrwt>
<rscale>  4 0.51455950E+03</rscale>
<asrwt>0</asrwt>
<pdfrwt beam="1">  1        1 0.88456475E-01 0.51455950E+03</pdfrwt>
<pdfrwt beam="2">  1       -1 0.17711481E-01 0.51455950E+03</pdfrwt>
<totfact> 0.91709200E+02</totfact>
</mgrwt>
</event>
<event>
 5    0  0.4025551E-002  0.4720900E+03  0.7546771E-02  0.1021332E+00
          1   -1    0    0  503    0  0.00000000000E+00  0.00000000000E+00  0.46152726535E+02  0.46152726535E+02  0.00000000000E+00 0.  1.
         -1   -1    0    0    0  501 -0.00000000000E+00 -0.00000000000E+00 -0.13401774609E+04  0.13401774609E+04  0.00000000000E+00 0. -1.
         25    1    1    2    0    0  0.19317157976E+03  0.10286233043E+03 -0.53214026512E+03  0.58880742183E+03  0.12500000000E+03 0.  0.
         21    1    1    2  502  501 -0.19637639406E+03 -0.80406728051E+02 -0.66583967430E+03  0.69883574746E+03  0.00000000000E+00 0. -1.
         21    1    1    2  503  502  0.32048142997E+01 -0.22455602374E+02 -0.96044794909E+02  0.98687018102E+02  0.00000000000E+00 0. -1.
<mgrwt>
<rscale>  4 0.47209003E+03</rscale>
<asrwt>0</asrwt>
<pdfrwt beam="1">  1        1 0.71004198E-02 0.47209003E+03</pdfrwt>
<pdfrwt beam="2">  1       -1 0.20618114E+00 0.47209003E+03</pdfrwt>
<totfact> 0.15333190E+02</totfact>
</mgrwt>
</event>
<event>
 5    0  0.4025551E-002  0.4108702E+03  0.7546771E-02  0.1040079E+00
         -1   -1    0    0    0  501 -0.00000000000E+00  0.00000000000E+00  0.91049813898E+02  0.91049813898E+02  0.00000000000E+00 0.  1.
          1   -1    0    0  503    0  0.00000000000E+00 -0.00000000000E+00 -0.74492507563E+03  0.74492507563E+03  0.00000000000E+00 0. -1.
         25    1    1    2    0    0 -0.20160476359E+03  0.15553400561E+01 -0.30984065660E+03  0.39022190132E+03  0.12500000000E+03 0.  0.
         21    1    1    2  502  501  0.15891487632E+03 -0.47920158500E+02 -0.34485720672E+03  0.38272284036E+03  0.00000000000E+00 0. -1.
         21    1    1    2  503  502  0.42689887276E+02  0.46364818444E+02  0.82260158675E+00  0.63030147853E+02  0.00000000000E+00 0. -1.
<mgrwt>
<rscale>  4 0.41087015E+03</rscale>
<asrwt>0</asrwt>
<pdfrwt beam="1">  1        1 0.11460386E+00 0.41087015E+03</pdfrwt>
<pdfrwt beam="2">  1       -1 0.14007663E-01 0.41087015E+03</pdfrwt>
<totfact> 0.92039555E+02</totfact>
</mgrwt>
</event>
<event>
 5    0  0.4025551E-002  0.5151181E+03  0.7546771E-02  0.1009906E+00
         -1   -1    0    0    0  501 -0.00000000000E+00  0.00000000000E+00  0.96141719611E+02  0.96141719611E+02  0.00000000000E+00 0.  1.
          1   -1    0    0  503    0  0.00000000000E+00 -0.00000000000E+00 -0.16748119751E+04  0.16748119751E+04  0.00000000000E+00 0. -1.
         25    1    1    2    0    0  0.73417566999E+02 -0.20717604537E+03 -0.10361827579E+04  0.10665888433E+04  0.12500000000E+03 0.  0.
         21    1    1    2  502  501 -0.76802094243E+02  0.23416659530E+03 -0.59566648029E+03  0.64463254012E+03  0.00000000000E+00 0. -1.
         21    1    1    2  503  502  0.33845272440E+01 -0.26990549926E+02  0.53178982699E+02  0.59732311280E+02  0.00000000000E+00 0.  1.
<mgrwt>
<rscale>  4 0.51511813E+03</rscale>
<asrwt>0</asrwt>
<pdfrwt beam="1">  1        1 0.25766337E+00 0.51511813E+03</pdfrwt>
<pdfrwt beam="2">  1       -1 0.14791035E-01 0.51511813E+03</pdfrwt>
<totfact> 0.17456287E+02</totfact>
</mgrwt>
</event>
<event>
 5    0  0.4025551E-002  0.5675408E+03  0.7546771E-02  0.9975135E-01
          2   -1    0    0  503    0  0.00000000000E+00  0.00000000000E+00  0.15548996225E+04  0.15548996225E+04  0.00000000000E+00 0.  1.
         -2   -1    0    0    0  501 -0.00000000000E+00 -0.00000000000E+00 -0.72321168805E+02  0.72321168805E+02  0.00000000000E+00 0. -1.
         25    1    1    2    0    0  0.25377285381E+03  0.67659509707E+02  0.56691098655E+03  0.63717465208E+03  0.12500000000E+03 0.  0.
         21    1    1    2  502  501 -0.25328094657E+03 -0.25611124387E+02  0.91309242720E+03  0.94791610821E+03  0.00000000000E+00 0.  1.
         21    1    1    2  503  502 -0.49190724221E+00 -0.42048385319E+02  0.25750399218E+01  0.42130030991E+02  0.00000000000E+00 0. -1.
<mgrwt>
<rscale>  4 0.56754085E+03</rscale>
<asrwt>0</asrwt>
<pdfrwt beam="1">  1        2 0.23921530E+00 0.56754085E+03</pdfrwt>
<pdfrwt beam="2">  1       -2 0.11126335E-01 0.56754085E+03</pdfrwt>
<totfact> 0.69745030E+02</totfact>
</mgrwt>
</event>
<event>
 5    0  0.4025551E-002  0.5312217E+03  0.7546771E-02  0.1005936E+00
         -2   -1    0    0    0  501 -0.00000000000E+00  0.00000000000E+00  0.86264280345E+02  0.86264280345E+02  0.00000000000E+00 0.  1.
          2   -1    0    0  502    0  0.00000000000E+00 -0.00000000000E+00 -0.81782558781E+03  0.81782558781E+03  0.00000000000E+00 0. -1.
         25    1    1    2    0    0 -0.58655092319E+02 -0.21992007114E+03 -0.21916674937E+03  0.33980041432E+03  0.12500000000E+03 0.  0.
         21    1    1    2  502  503  0.92357825059E+01  0.11269326951E+03 -0.19184034662E+03  0.22268316340E+03  0.00000000000E+00 0.  1.
         21    1    1    2  503  501  0.49419309813E+02  0.10722680163E+03 -0.32055421148E+03  0.34160629043E+03  0.00000000000E+00 0. -1.
<mgrwt>
<rscale>  4 0.53122175E+03</rscale>
<asrwt>0</asrwt>
<pdfrwt beam="1">  1        2 0.12581932E+00 0.53122175E+03</pdfrwt>
<pdfrwt beam="2">  1       -2 0.13271428E-01 0.53122175E+03</pdfrwt>
<totfact> 0.14454793E+03</totfact>
</mgrwt>
</event>
<event>
 5    0  0.4025551E-002  0.5989465E+03  0.7546771E-02  0.9907594E-01
         -2   -1    0    0    0  501 -0.00000000000E+00  0.00000000000E+00  0.51003116893E+02  0.51003116893E+02  0.00000000000E+00 0.  1.
          2   -1    0    0  502    0  0.00000000000E+00 -0.00000000000E+00 -0.30765738820E+04  0.30765738820E+04  0.00000000000E+00 0. -1.
         25    1    1    2    0    0 -0.20117482784E+03  0.79790172987E+02 -0.60308338570E+03  0.65281877513E+03  0.12500000000E+03 0.  0.
         21    1    1    2  502  503 -0.29695407543E+01 -0.39379084659E+02  0.36983909613E+01  0.39663693430E+02  0.00000000000E+00 0.  1.
         21    1    1    2  503  501  0.20414436859E+03 -0.40411088328E+02 -0.24261857703E+04  0.24350945303E+04  0.00000000000E+00 0. -1.
<mgrwt>
<rscale>  4 0.59894654E+03</rscale>
<asrwt>0</asrwt>
<pdfrwt beam="1">  1        2 0.47331907E+00 0.59894654E+03</pdfrwt>
<pdfrwt beam="2">  1       -2 0.78466333E-02 0.59894654E+03</pdfrwt>
<totfact> 0.17061457E+02</totfact>
</mgrwt>
</event>
<event>
 5    0  0.4025551E-002  0.4483199E+03  0.7546771E-02  0.1028224E+00
          1   -1    0    0  503    0  0.00000000000E+00  0.00000000000E+00  0.40838364785E+03  0.40838364785E+03  0.00000000000E+00 0. -1.
         -1   -1    0    0    0  501 -0.00000000000E+00 -0.00000000000E+00 -0.19155318340E+03  0.19155318340E+03  0.00000000000E+00 0.  1.
         25    1    1    2    0    0  0.97166412539E+02 -0.19220251573E+03  0.56246001929E+02  0.25528754672E+03  0.12500000000E+03 0.  0.
         21    1    1    2  502  501 -0.33550571810E+02  0.16305671572E+03  0.20322649456E+03  0.26270542724E+03  0.00000000000E+00 0. -1.
         21    1    1    2  503  502 -0.63615840729E+02  0.29145800010E+02 -0.42642032037E+02  0.81943857281E+02  0.00000000000E+00 0.  1.
<mgrwt>
<rscale>  4 0.44831991E+03</rscale>
<asrwt>0</asrwt>
<pdfrwt beam="1">  1        1 0.62828253E-01 0.44831991E+03</pdfrwt>
<pdfrwt beam="2">  1       -1 0.29469721E-01 0.44831991E+03</pdfrwt>
<totfact> 0.62132462E+02</totfact>
</mgrwt>
</event>
<event>
 5    0  0.4025551E-002  0.5569909E+03  0.7546771E-02  0.9998886E-01
         -1   -1    0    0    0  501 -0.00000000000E+00  0.00000000000E+00  0.23178668512E+03  0.23178668512E+03  0.00000000000E+00 0. -1.
          1   -1    0    0  503    0  0.00000000000E+00 -0.00000000000E+00 -0.47707557900E+03  0.47707557900E+03  0.00000000000E+00 0.  1.
         25    1    1    2    0    0 -0.11913470143E+03 -0.23755634884E+03 -0.61880431290E+02  0.30013377640E+03  0.12500000000E+03 0.  0.
         21    1    1    2  502  501  0.10386111686E+03  0.20441564361E+03 -0.24599347935E+03  0.33628214170E+03  0.00000000000E+00 0. -1.
         21    1    1    2  503  502  0.15273584563E+02  0.33140705232E+02  0.62585016755E+02  0.72446346015E+02  0.00000000000E+00 0. -1.
<mgrwt>
<rscale>  4 0.55699091E+03</rscale>
<asrwt>0</asrwt>
<pdfrwt beam="1">  1        1 0.73396243E-01 0.55699091E+03</pdfrwt>
<pdfrwt beam="2">  1       -1 0.35659490E-01 0.55699091E+03</pdfrwt>
<totfact> 0.36068201E+02</totfact>
</mgrwt>
</event>
<event>
 5    0  0.4025551E-002  0.4264367E+03  0.7546771E-02  0.1034992E+00
         -1   -1    0    0    0  501 -0.00000000000E+00  0.00000000000E+00  0.41047203593E+02  0.41047203593E+02  0.00000000000E+00 0. -1.
          1   -1    0    0  502    0  0.00000000000E+00 -0.00000000000E+00 -0.15955895099E+04  0.15955895099E+04  0.00000000000E+00 0.  1.
         25    1    1    2    0    0  0.18959034442E+03  0.80032942788E+02 -0.84516572152E+03  0.87879455361E+03  0.12500000000E+03 0.  0.
         21    1    1    2  502  503 -0.91851214481E+01 -0.36930095739E+02 -0.18149705233E+02  0.42161715185E+02  0.00000000000E+00 0.  1.
         21    1    1    2  503  501 -0.18040522297E+03 -0.43102847049E+02 -0.69122687952E+03  0.71568044466E+03  0.00000000000E+00 0.  1.
<mgrwt>
<rscale>  4 0.42643674E+03</rscale>
<asrwt>0</asrwt>
<pdfrwt beam="1">  1        1 0.24547525E+00 0.42643674E+03</pdfrwt>
<pdfrwt beam="2">  1       -1 0.63149558E-02 0.42643674E+03</pdfrwt>
<totfact> 0.75586895E+02</totfact>
</mgrwt>
</event>
