<event>
 5    0  0.1911311E+001  0.3546229E+03  0.7546771E-02  0.1060733E+00
         21   -1    0    0  502  501  0.00000000000E+00  0.00000000000E+00  0.26498670687E+03  0.26498670687E+03  0.00000000000E+00 0.  1.
         21   -1    0    0  504  502 -0.00000000000E+00 -0.00000000000E+00 -0.10625502983E+04  0.10625502983E+04  0.00000000000E+00 0.  1.
         25    1    1    2    0    0 -0.18904306965E+03 -0.28704337361E+03  0.67053078821E+02  0.37182293622E+03  0.12500000000E+03 0.  0.
         21    1    1    2  503  501 -0.27602933180E+01  0.92667853486E+02 -0.72024923453E+02  0.11739906255E+03  0.00000000000E+00 0.  1.
         21    1    1    2  504  503  0.19180336297E+03  0.19437552012E+03 -0.79259174677E+03  0.83831500638E+03  0.00000000000E+00 0.  1.
<mgrwt>
<rscale>  4 0.35462289E+03</rscale>
<asrwt>0</asrwt>
<pdfrwt beam="1">  1       21 0.40767185E-01 0.35462289E+03</pdfrwt>
<pdfrwt beam="2">  1       21 0.16346928E+00 0.35462289E+03</pdfrwt>
<totfact> 0.12181570E+03</totfact>
</mgrwt>
</event>
<event>
 5    0  0.1911311E+001  0.4218178E+03  0.7546771E-02  0.1036476E+00
         21   -1    0    0  504  501  0.00000000000E+00  0.00000000000E+00  0.96989959525E+03  0.96989959525E+03  0.00000000000E+00 0. -1.
         21   -1    0    0  503  502 -0.00000000000E+00 -0.00000000000E+00 -0.37422025875E+03  0.37422025875E+03  0.00000000000E+00 0. -1.
         25    1    1    2    0    0  0.15351138669E+03  0.33627323325E+03  0.69625553883E+03  0.79814923955E+03  0.12500000000E+03 0.  0.
         21    1    1    2  503  501 -0.15989444266E+03 -0.37613866107E+03 -0.18784630991E+03  0.44981414083E+03  0.00000000000E+00 0. -1.
         21    1    1    2  504  502  0.63830559786E+01  0.39865427819E+02  0.87270107587E+02  0.96156473609E+02  0.00000000000E+00 0.  1.
<mgrwt>
<rscale>  4 0.42181781E+03</rscale>
<asrwt>0</asrwt>
<pdfrwt beam="1">  1       21 0.14921532E+00 0.42181781E+03</pdfrwt>
<pdfrwt beam="2">  1       21 0.57572348E-01 0.42181781E+03</pdfrwt>
<totfact> 0.72932961E+02</totfact>
</mgrwt>
</event>
<event>
 5    0  0.1911311E+001  0.1978776E+03  0.7546771E-02  0.1151542E+00
         21   -1    0    0  504  501  0.00000000000E+00  0.00000000000E+00  0.49175744323E+03  0.49175744323E+03  0.00000000000E+00 0. -1.
         21   -1    0    0  503  502 -0.00000000000E+00 -0.00000000000E+00 -0.20529446713E+03  0.20529446713E+03  0.00000000000E+00 0. -1.
         25    1    1    2    0    0  0.20813809102E+03  0.11701667462E+02  0.18466487041E+03  0.30526137705E+03  0.12500000000E+03 0.  0.
         21    1    1    2  503  501 -0.75315183093E+02  0.17518979700E+02 -0.11337943168E+03  0.13723770248E+03  0.00000000000E+00 0. -1.
         21    1    1    2  504  502 -0.13282290793E+03 -0.29220647163E+02  0.21517753738E+03  0.25455283083E+03  0.00000000000E+00 0. -1.
<mgrwt>
<rscale>  4 0.19787764E+03</rscale>
<asrwt>0</asrwt>
<pdfrwt beam="1">  1       21 0.75654991E-01 0.19787764E+03</pdfrwt>
<pdfrwt beam="2">  1       21 0.31583764E-01 0.19787764E+03</pdfrwt>
<totfact> 0.14976377E+04</totfact>
</mgrwt>
</event>
<event>
 5    0  0.1911311E+001  0.1826543E+03  0.7546771E-02  0.1165259E+00
         21   -1    0    0  504  501  0.00000000000E+00  0.00000000000E+00  0.48120278149E+03  0.48120278149E+03  0.00000000000E+00 0. -1.
         21   -1    0    0  503  502 -0.00000000000E+00 -0.00000000000E+00 -0.44033139606E+03  0.44033139606E+03  0.00000000000E+00 0.  1.
         25    1    1    2    0    0 -0.64285436470E+02 -0.20111449176E+03 -0.20059891326E+03  0.31692992938E+03  0.12500000000E+03 0.  0.
         21    1    1    2  503  501  0.14740191866E+02  0.10944630057E+03 -0.15743957063E+03  0.19230960550E+03  0.00000000000E+00 0.  1.
         21    1    1    2  504  502  0.49545244605E+02  0.91668191186E+02  0.39890986931E+03  0.41229464267E+03  0.00000000000E+00 0. -1.
<mgrwt>
<rscale>  4 0.18265432E+03</rscale>
<asrwt>0</asrwt>
<pdfrwt beam="1">  1       21 0.74031198E-01 0.18265432E+03</pdfrwt>
<pdfrwt beam="2">  1       21 0.67743291E-01 0.18265432E+03</pdfrwt>
<totfact> 0.32869962E+03</totfact>
</mgrwt>
</event>
<event>
 5    0  0.1911311E+001  0.3103200E+03  0.7546771E-02  0.1080193E+00
         21   -1    0    0  502  501  0.00000000000E+00  0.00000000000E+00  0.45207785792E+03  0.45207785792E+03  0.00000000000E+00 0. -1.
         21   -1    0    0  504  502 -0.00000000000E+00 -0.00000000000E+00 -0.35756407917E+03  0.35756407917E+03  0.00000000000E+00 0. -1.
         25    1    1    2    0    0  0.17458726919E+03 -0.18348964190E+03  0.80284363841E+02  0.29363198451E+03  0.12500000000E+03 0.  0.
         21    1    1    2  503  501  0.62273827578E+02 -0.79412982870E+00  0.16773445609E+03  0.17892319023E+03  0.00000000000E+00 0. -1.
         21    1    1    2  504  503 -0.23686109677E+03  0.18428377173E+03 -0.15350504117E+03  0.33708676235E+03  0.00000000000E+00 0. -1.
<mgrwt>
<rscale>  4 0.31032000E+03</rscale>
<asrwt>0</asrwt>
<pdfrwt beam="1">  1       21 0.69550439E-01 0.31032000E+03</pdfrwt>
<pdfrwt beam="2">  1       21 0.55009859E-01 0.31032000E+03</pdfrwt>
<totfact> 0.54528159E+03</totfact>
</mgrwt>
</event>
