<event>
 4    0  0.1373521E-001  0.2424636E+03  0.7546771E-02  0.1118162E+00
         21   -1    0    0  501  502  0.00000000000E+00  0.00000000000E+00  0.11890304915E+03  0.11890304915E+03  0.00000000000E+00 0. -1.
          4   -1    0    0  502    0 -0.00000000000E+00 -0.00000000000E+00 -0.45978860067E+03  0.45978860067E+03  0.00000000000E+00 0. -1.
         25    1    1    2    0    0 -0.16647936096E+03 -0.12429089177E+03 -0.10461732471E+03  0.26407080117E+03  0.12500000000E+03 0.  0.
          4    1    1    2  501    0  0.16647936096E+03  0.12429089177E+03 -0.23626822681E+03  0.31462084865E+03  0.00000000000E+00 0. -1.
<mgrwt>
<rscale>  3 0.24246361E+03</rscale>
<asrwt>0</asrwt>
<pdfrwt beam="1">  1       21 0.18292777E-01 0.24246361E+03</pdfrwt>
<pdfrwt beam="2">  1        4 0.70736707E-01 0.24246361E+03</pdfrwt>
<totfact> 0.21455225E+03</totfact>
</mgrwt>
</event>
<event>
 4    0  0.1002184E-001  0.4186396E+03  0.7546771E-02  0.1037510E+00
          2   -1    0    0  502    0 -0.00000000000E+00  0.00000000000E+00  0.36936003057E+04  0.36936003057E+04  0.00000000000E+00 0.  1.
         21   -1    0    0  501  502  0.00000000000E+00 -0.00000000000E+00 -0.65168787606E+02  0.65168787606E+02  0.00000000000E+00 0.  1.
         25    1    1    2    0    0  0.39846003845E+03 -0.29388290556E+02  0.80638019655E+03  0.90857476041E+03  0.12500000000E+03 0.  0.
          2    1    1    2  501    0 -0.39846003845E+03  0.29388290556E+02  0.28220513215E+04  0.28501943329E+04  0.00000000000E+00 0.  1.
<mgrwt>
<rscale>  3 0.41863955E+03</rscale>
<asrwt>0</asrwt>
<pdfrwt beam="1">  1       21 0.10025970E-01 0.41863955E+03</pdfrwt>
<pdfrwt beam="2">  1        2 0.56824604E+00 0.41863955E+03</pdfrwt>
<totfact> 0.70746814E+02</totfact>
</mgrwt>
</event>
<event>
 4    0  0.1002184E-001  0.2380527E+03  0.7546771E-02  0.1121097E+00
          2   -1    0    0  502    0 -0.00000000000E+00  0.00000000000E+00  0.14140308404E+04  0.14140308404E+04  0.00000000000E+00 0. -1.
         21   -1    0    0  501  502  0.00000000000E+00 -0.00000000000E+00 -0.40907760343E+02  0.40907760343E+02  0.00000000000E+00 0.  1.
         25    1    1    2    0    0  0.17828669109E+03  0.96218102676E+02  0.44198620267E+03  0.50201680336E+03  0.12500000000E+03 0.  0.
          2    1    1    2  501    0 -0.17828669109E+03 -0.96218102676E+02  0.93113687737E+03  0.95292179737E+03  0.00000000000E+00 0. -1.
<mgrwt>
<rscale>  3 0.23805266E+03</rscale>
<asrwt>0</asrwt>
<pdfrwt beam="1">  1       21 0.62935027E-02 0.23805266E+03</pdfrwt>
<pdfrwt beam="2">  1        2 0.21754317E+00 0.23805266E+03</pdfrwt>
<totfact> 0.35097951E+04</totfact>
</mgrwt>
</event>
<event>
 4    0  0.1198286E-001  0.3065622E+03  0.7546771E-02  0.1082005E+00
         21   -1    0    0  501  502  0.00000000000E+00  0.00000000000E+00  0.14591231243E+03  0.14591231243E+03  0.00000000000E+00 0.  1.
         -4   -1    0    0    0  501 -0.00000000000E+00 -0.00000000000E+00 -0.11118593141E+04  0.11118593141E+04  0.00000000000E+00 0. -1.
         25    1    1    2    0    0 -0.25050715597E+03  0.12490611353E+03 -0.63714090767E+02  0.31311317084E+03  0.12500000000E+03 0.  0.
         -4    1    1    2    0  502  0.25050715597E+03 -0.12490611353E+03 -0.90223291088E+03  0.94465845566E+03  0.00000000000E+00 0. -1.
<mgrwt>
<rscale>  3 0.30656218E+03</rscale>
<asrwt>0</asrwt>
<pdfrwt beam="1">  1       21 0.22448047E-01 0.30656218E+03</pdfrwt>
<pdfrwt beam="2">  1       -4 0.17105529E+00 0.30656218E+03</pdfrwt>
<totfact> 0.17215154E+02</totfact>
</mgrwt>
</event>
<event>
 4    0  0.1238423E-001  0.2487765E+03  0.7546771E-02  0.1114080E+00
         -2   -1    0    0    0  501 -0.00000000000E+00  0.00000000000E+00  0.74805921601E+02  0.74805921601E+02  0.00000000000E+00 0. -1.
         21   -1    0    0  501  502  0.00000000000E+00 -0.00000000000E+00 -0.10265226811E+04  0.10265226811E+04  0.00000000000E+00 0. -1.
         25    1    1    2    0    0  0.18144304165E+03  0.11551261084E+03 -0.80085320539E+03  0.83860336107E+03  0.12500000000E+03 0.  0.
         -2    1    1    2    0  502 -0.18144304165E+03 -0.11551261084E+03 -0.15086355410E+03  0.26272524162E+03  0.00000000000E+00 0. -1.
<mgrwt>
<rscale>  3 0.24877649E+03</rscale>
<asrwt>0</asrwt>
<pdfrwt beam="1">  1       21 0.15792655E+00 0.24877649E+03</pdfrwt>
<pdfrwt beam="2">  1       -2 0.11508604E-01 0.24877649E+03</pdfrwt>
<totfact> 0.10589760E+03</totfact>
</mgrwt>
</event>
<event>
 4    0  0.1227332E-001  0.2402307E+03  0.7546771E-02  0.1119639E+00
          1   -1    0    0  502    0 -0.00000000000E+00  0.00000000000E+00  0.10386701707E+04  0.10386701707E+04  0.00000000000E+00 0.  1.
         21   -1    0    0  501  502  0.00000000000E+00 -0.00000000000E+00 -0.91433635227E+02  0.91433635227E+02  0.00000000000E+00 0. -1.
         25    1    1    2    0    0  0.17418089907E+03  0.10838262072E+03  0.10314050095E+03  0.26143592142E+03  0.12500000000E+03 0.  0.
          1    1    1    2  501    0 -0.17418089907E+03 -0.10838262072E+03  0.84409603449E+03  0.86866788447E+03  0.00000000000E+00 0.  1.
<mgrwt>
<rscale>  3 0.24023068E+03</rscale>
<asrwt>0</asrwt>
<pdfrwt beam="1">  1       21 0.14066714E-01 0.24023068E+03</pdfrwt>
<pdfrwt beam="2">  1        1 0.15979540E+00 0.24023068E+03</pdfrwt>
<totfact> 0.73108064E+03</totfact>
</mgrwt>
</event>
<event>
 4    0  0.1002184E-001  0.2449960E+03  0.7546771E-02  0.1116509E+00
         21   -1    0    0  501  502  0.00000000000E+00  0.00000000000E+00  0.36780881096E+02  0.36780881096E+02  0.00000000000E+00 0. -1.
          1   -1    0    0  502    0 -0.00000000000E+00 -0.00000000000E+00 -0.34894963745E+04  0.34894963745E+04  0.00000000000E+00 0. -1.
         25    1    1    2    0    0  0.20017345260E+03 -0.65792414047E+02 -0.41987159921E+03  0.48612263133E+03  0.12500000000E+03 0.  0.
          1    1    1    2  501    0 -0.20017345260E+03  0.65792414047E+02 -0.30328438942E+04  0.30401546242E+04  0.00000000000E+00 0. -1.
<mgrwt>
<rscale>  3 0.24499603E+03</rscale>
<asrwt>0</asrwt>
<pdfrwt beam="1">  1       21 0.56585958E-02 0.24499603E+03</pdfrwt>
<pdfrwt beam="2">  1        1 0.53684572E+00 0.24499603E+03</pdfrwt>
<totfact> 0.78669658E+02</totfact>
</mgrwt>
</event>
<event>
 4    0  0.1568645E-001  0.2749565E+03  0.7546771E-02  0.1098476E+00
          2   -1    0    0  502    0 -0.00000000000E+00  0.00000000000E+00  0.15754143008E+04  0.15754143008E+04  0.00000000000E+00 0.  1.
         21   -1    0    0  501  502  0.00000000000E+00 -0.00000000000E+00 -0.20324744731E+03  0.20324744731E+03  0.00000000000E+00 0.  1.
         25    1    1    2    0    0  0.13816520009E+03  0.20220403818E+03 -0.95221011152E+02  0.29097789699E+03  0.12500000000E+03 0.  0.
          2    1    1    2  501    0 -0.13816520009E+03 -0.20220403818E+03  0.14673878647E+04  0.14876838511E+04  0.00000000000E+00 0.  1.
<mgrwt>
<rscale>  3 0.27495653E+03</rscale>
<asrwt>0</asrwt>
<pdfrwt beam="1">  1       21 0.31268839E-01 0.27495653E+03</pdfrwt>
<pdfrwt beam="2">  1        2 0.24237142E+00 0.27495653E+03</pdfrwt>
<totfact> 0.15083169E+03</totfact>
</mgrwt>
</event>
<event>
 4    0  0.1002184E-001  0.3770421E+03  0.7546771E-02  0.1052032E+00
         21   -1    0    0  501  502  0.00000000000E+00  0.00000000000E+00  0.22505513102E+03  0.22505513102E+03  0.00000000000E+00 0.  1.
          2   -1    0    0  502    0 -0.00000000000E+00 -0.00000000000E+00 -0.23743510446E+04  0.23743510446E+04  0.00000000000E+00 0.  1.
         25    1    1    2    0    0  0.35389802378E+03  0.35943369117E+02  0.42046923656E+02  0.37937933629E+03  0.12500000000E+03 0.  0.
          2    1    1    2  501    0 -0.35389802378E+03 -0.35943369117E+02 -0.21913428372E+04  0.22200268393E+04  0.00000000000E+00 0.  1.
<mgrwt>
<rscale>  3 0.37704209E+03</rscale>
<asrwt>0</asrwt>
<pdfrwt beam="1">  1       21 0.34623866E-01 0.37704209E+03</pdfrwt>
<pdfrwt beam="2">  1        2 0.36528478E+00 0.37704209E+03</pdfrwt>
<totfact> 0.44200394E+02</totfact>
</mgrwt>
</event>
<event>
 4    0  0.1364090E-001  0.2886951E+03  0.7546771E-02  0.1091032E+00
         21   -1    0    0  501  502  0.00000000000E+00  0.00000000000E+00  0.65264980418E+03  0.65264980418E+03  0.00000000000E+00 0. -1.
         -4   -1    0    0    0  501 -0.00000000000E+00 -0.00000000000E+00 -0.12288340682E+03  0.12288340682E+03  0.00000000000E+00 0. -1.
         25    1    1    2    0    0  0.20016928060E+03  0.16628926877E+03  0.37321810691E+03  0.47184384825E+03  0.12500000000E+03 0.  0.
         -4    1    1    2    0  502 -0.20016928060E+03 -0.16628926877E+03  0.15654829045E+03  0.30368936275E+03  0.00000000000E+00 0. -1.
<mgrwt>
<rscale>  3 0.28869510E+03</rscale>
<asrwt>0</asrwt>
<pdfrwt beam="1">  1       21 0.10040766E+00 0.28869510E+03</pdfrwt>
<pdfrwt beam="2">  1       -4 0.18905140E-01 0.28869510E+03</pdfrwt>
<totfact> 0.84732193E+02</totfact>
</mgrwt>
</event>
<event>
 4    0  0.1564512E-001  0.2993549E+03  0.7546771E-02  0.1085564E+00
          1   -1    0    0  502    0 -0.00000000000E+00  0.00000000000E+00  0.12307657816E+04  0.12307657816E+04  0.00000000000E+00 0. -1.
         21   -1    0    0  501  502  0.00000000000E+00 -0.00000000000E+00 -0.87050497124E+02  0.87050497124E+02  0.00000000000E+00 0. -1.
         25    1    1    2    0    0 -0.86160212642E+01  0.27187146174E+03  0.27137512120E+03  0.40405170948E+03  0.12500000000E+03 0.  0.
          1    1    1    2  501    0  0.86160212642E+01 -0.27187146174E+03  0.87234016332E+03  0.91376456928E+03  0.00000000000E+00 0. -1.
<mgrwt>
<rscale>  3 0.29935485E+03</rscale>
<asrwt>0</asrwt>
<pdfrwt beam="1">  1       21 0.13392385E-01 0.29935485E+03</pdfrwt>
<pdfrwt beam="2">  1        1 0.18934857E+00 0.29935485E+03</pdfrwt>
<totfact> 0.57340911E+03</totfact>
</mgrwt>
</event>
<event>
 4    0  0.1109168E-001  0.2386054E+03  0.7546771E-02  0.1120725E+00
         21   -1    0    0  501  502  0.00000000000E+00  0.00000000000E+00  0.16801749347E+03  0.16801749347E+03  0.00000000000E+00 0. -1.
          2   -1    0    0  502    0 -0.00000000000E+00 -0.00000000000E+00 -0.40577658140E+03  0.40577658140E+03  0.00000000000E+00 0. -1.
         25    1    1    2    0    0  0.20269635642E+03  0.14890508662E+02  0.26880878656E+02  0.24011480961E+03  0.12500000000E+03 0.  0.
          2    1    1    2  501    0 -0.20269635642E+03 -0.14890508662E+02 -0.26463996658E+03  0.33367926526E+03  0.00000000000E+00 0. -1.
<mgrwt>
<rscale>  3 0.23860541E+03</rscale>
<asrwt>0</asrwt>
<pdfrwt beam="1">  1       21 0.25848845E-01 0.23860541E+03</pdfrwt>
<pdfrwt beam="2">  1        2 0.62427166E-01 0.23860541E+03</pdfrwt>
<totfact> 0.13807524E+04</totfact>
</mgrwt>
</event>
<event>
 4    0  0.1201468E-001  0.2634331E+03  0.7546771E-02  0.1105098E+00
          2   -1    0    0  502    0 -0.00000000000E+00  0.00000000000E+00  0.28920728910E+03  0.28920728910E+03  0.00000000000E+00 0. -1.
         21   -1    0    0  501  502  0.00000000000E+00 -0.00000000000E+00 -0.25073014233E+03  0.25073014233E+03  0.00000000000E+00 0. -1.
         25    1    1    2    0    0  0.23128888458E+03 -0.16657242716E+02 -0.85535054179E+02  0.27697158222E+03  0.12500000000E+03 0.  0.
          2    1    1    2  501    0 -0.23128888458E+03  0.16657242716E+02  0.12401220095E+03  0.26296584921E+03  0.00000000000E+00 0. -1.
<mgrwt>
<rscale>  3 0.26343313E+03</rscale>
<asrwt>0</asrwt>
<pdfrwt beam="1">  1       21 0.38573868E-01 0.26343313E+03</pdfrwt>
<pdfrwt beam="2">  1        2 0.44493429E-01 0.26343313E+03</pdfrwt>
<totfact> 0.90043836E+03</totfact>
</mgrwt>
</event>
<event>
 4    0  0.1002184E-001  0.3114100E+03  0.7546771E-02  0.1079672E+00
          2   -1    0    0  502    0 -0.00000000000E+00  0.00000000000E+00  0.10135709945E+03  0.10135709945E+03  0.00000000000E+00 0. -1.
         21   -1    0    0  501  502  0.00000000000E+00 -0.00000000000E+00 -0.14715307019E+04  0.14715307019E+04  0.00000000000E+00 0. -1.
         25    1    1    2    0    0  0.87218804184E+02  0.27155864040E+03 -0.12022036698E+04  0.12418815880E+04  0.12500000000E+03 0.  0.
          2    1    1    2  501    0 -0.87218804184E+02 -0.27155864040E+03 -0.16796993262E+03  0.33100621330E+03  0.00000000000E+00 0. -1.
<mgrwt>
<rscale>  3 0.31141004E+03</rscale>
<asrwt>0</asrwt>
<pdfrwt beam="1">  1       21 0.22638932E+00 0.31141004E+03</pdfrwt>
<pdfrwt beam="2">  1        2 0.15593401E-01 0.31141004E+03</pdfrwt>
<totfact> 0.38666098E+02</totfact>
</mgrwt>
</event>
<event>
 4    0  0.1638356E-001  0.3021713E+03  0.7546771E-02  0.1084160E+00
          2   -1    0    0  502    0 -0.00000000000E+00  0.00000000000E+00  0.17916663601E+04  0.17916663601E+04  0.00000000000E+00 0.  1.
         21   -1    0    0  501  502  0.00000000000E+00 -0.00000000000E+00 -0.27706356198E+03  0.27706356198E+03  0.00000000000E+00 0.  1.
         25    1    1    2    0    0 -0.60084395725E+02  0.26846291107E+03 -0.18014754730E+03  0.35179625926E+03  0.12500000000E+03 0.  0.
          2    1    1    2  501    0  0.60084395725E+02 -0.26846291107E+03  0.16947503455E+04  0.17169336629E+04  0.00000000000E+00 0.  1.
<mgrwt>
<rscale>  3 0.30217126E+03</rscale>
<asrwt>0</asrwt>
<pdfrwt beam="1">  1       21 0.42625165E-01 0.30217126E+03</pdfrwt>
<pdfrwt beam="2">  1        2 0.27564097E+00 0.30217126E+03</pdfrwt>
<totfact> 0.61290467E+02</totfact>
</mgrwt>
</event>
<event>
 4    0  0.1002184E-001  0.4765583E+03  0.7546771E-02  0.1020085E+00
         21   -1    0    0  501  502  0.00000000000E+00  0.00000000000E+00  0.23705684480E+03  0.23705684480E+03  0.00000000000E+00 0. -1.
          2   -1    0    0  502    0 -0.00000000000E+00 -0.00000000000E+00 -0.25254849581E+04  0.25254849581E+04  0.00000000000E+00 0.  1.
         25    1    1    2    0    0  0.14443592916E+03  0.43660176679E+03 -0.52074785041E+02  0.47939506009E+03  0.12500000000E+03 0.  0.
          2    1    1    2  501    0 -0.14443592916E+03 -0.43660176679E+03 -0.22363533283E+04  0.22831467428E+04  0.00000000000E+00 0.  1.
<mgrwt>
<rscale>  3 0.47655833E+03</rscale>
<asrwt>0</asrwt>
<pdfrwt beam="1">  1       21 0.36470283E-01 0.47655833E+03</pdfrwt>
<pdfrwt beam="2">  1        2 0.38853615E+00 0.47655833E+03</pdfrwt>
<totfact> 0.31597183E+02</totfact>
</mgrwt>
</event>
<event>
 4    0  0.1132304E-001  0.2669677E+03  0.7546771E-02  0.1103028E+00
          1   -1    0    0  502    0 -0.00000000000E+00  0.00000000000E+00  0.24752424126E+03  0.24752424126E+03  0.00000000000E+00 0.  1.
         21   -1    0    0  501  502  0.00000000000E+00 -0.00000000000E+00 -0.55740277910E+03  0.55740277910E+03  0.00000000000E+00 0.  1.
         25    1    1    2    0    0  0.36595843310E+02  0.23303969810E+03 -0.45530884143E+03  0.52780479130E+03  0.12500000000E+03 0.  0.
          1    1    1    2  501    0 -0.36595843310E+02 -0.23303969810E+03  0.14543030359E+03  0.27712222906E+03  0.00000000000E+00 0.  1.
<mgrwt>
<rscale>  3 0.26696771E+03</rscale>
<asrwt>0</asrwt>
<pdfrwt beam="1">  1       21 0.85754272E-01 0.26696771E+03</pdfrwt>
<pdfrwt beam="2">  1        1 0.38080653E-01 0.26696771E+03</pdfrwt>
<totfact> 0.13880759E+03</totfact>
</mgrwt>
</event>
<event>
 4    0  0.1481376E-001  0.2412318E+03  0.7546771E-02  0.1118975E+00
          2   -1    0    0  502    0 -0.00000000000E+00  0.00000000000E+00  0.16245121217E+04  0.16245121217E+04  0.00000000000E+00 0.  1.
         21   -1    0    0  501  502  0.00000000000E+00 -0.00000000000E+00 -0.19473846880E+03  0.19473846880E+03  0.00000000000E+00 0.  1.
         25    1    1    2    0    0  0.85823020796E+01  0.20614105478E+03 -0.11041786928E+03  0.26530151947E+03  0.12500000000E+03 0.  0.
          2    1    1    2  501    0 -0.85823020796E+01 -0.20614105478E+03  0.15401915222E+04  0.15539490710E+04  0.00000000000E+00 0.  1.
<mgrwt>
<rscale>  3 0.24123182E+03</rscale>
<asrwt>0</asrwt>
<pdfrwt beam="1">  1       21 0.29959765E-01 0.24123182E+03</pdfrwt>
<pdfrwt beam="2">  1        2 0.24992493E+00 0.24123182E+03</pdfrwt>
<totfact> 0.15697529E+03</totfact>
</mgrwt>
</event>
<event>
 4    0  0.1002184E-001  0.2454707E+03  0.7546771E-02  0.1116201E+00
         21   -1    0    0  501  502  0.00000000000E+00  0.00000000000E+00  0.47335234117E+03  0.47335234117E+03  0.00000000000E+00 0. -1.
         -4   -1    0    0    0  501 -0.00000000000E+00 -0.00000000000E+00 -0.11867605274E+03  0.11867605274E+03  0.00000000000E+00 0.  1.
         25    1    1    2    0    0 -0.61077540462E+02 -0.20223848248E+03  0.26869693871E+03  0.36394218581E+03  0.12500000000E+03 0.  0.
         -4    1    1    2    0  502  0.61077540462E+02  0.20223848248E+03  0.85979349727E+02  0.22808620810E+03  0.00000000000E+00 0.  1.
<mgrwt>
<rscale>  3 0.24547071E+03</rscale>
<asrwt>0</asrwt>
<pdfrwt beam="1">  1       21 0.72823436E-01 0.24547071E+03</pdfrwt>
<pdfrwt beam="2">  1       -4 0.18257855E-01 0.24547071E+03</pdfrwt>
<totfact> 0.19003300E+03</totfact>
</mgrwt>
</event>
<event>
 4    0  0.1333516E-001  0.2375437E+03  0.7546771E-02  0.1121440E+00
          2   -1    0    0  502    0 -0.00000000000E+00  0.00000000000E+00  0.21407607791E+04  0.21407607791E+04  0.00000000000E+00 0. -1.
         21   -1    0    0  501  502  0.00000000000E+00 -0.00000000000E+00 -0.45845587225E+02  0.45845587225E+02  0.00000000000E+00 0. -1.
         25    1    1    2    0    0  0.58858873662E+02 -0.19322951498E+03  0.31125039965E+03  0.39154032200E+03  0.12500000000E+03 0.  0.
          2    1    1    2  501    0 -0.58858873662E+02  0.19322951498E+03  0.17836647922E+04  0.17950660443E+04  0.00000000000E+00 0. -1.
<mgrwt>
<rscale>  3 0.23754371E+03</rscale>
<asrwt>0</asrwt>
<pdfrwt beam="1">  1       21 0.70531689E-02 0.23754371E+03</pdfrwt>
<pdfrwt beam="2">  1        2 0.32934773E+00 0.23754371E+03</pdfrwt>
<totfact> 0.11938304E+04</totfact>
</mgrwt>
</event>
<event>
 4    0  0.1396770E-001  0.2421366E+03  0.7546771E-02  0.1118378E+00
         21   -1    0    0  501  502  0.00000000000E+00  0.00000000000E+00  0.49900195624E+02  0.49900195624E+02  0.00000000000E+00 0.  1.
          2   -1    0    0  502    0 -0.00000000000E+00 -0.00000000000E+00 -0.16496607006E+04  0.16496607006E+04  0.00000000000E+00 0.  1.
         25    1    1    2    0    0  0.15364776752E+03 -0.13927489055E+03 -0.31061574480E+03  0.39384295413E+03  0.12500000000E+03 0.  0.
          2    1    1    2  501    0 -0.15364776752E+03  0.13927489055E+03 -0.12891447602E+04  0.13057179421E+04  0.00000000000E+00 0.  1.
<mgrwt>
<rscale>  3 0.24213660E+03</rscale>
<asrwt>0</asrwt>
<pdfrwt beam="1">  1       21 0.76769542E-02 0.24213660E+03</pdfrwt>
<pdfrwt beam="2">  1        2 0.25379392E+00 0.24213660E+03</pdfrwt>
<totfact> 0.18608861E+04</totfact>
</mgrwt>
</event>
<event>
 4    0  0.1410907E-001  0.2754406E+03  0.7546771E-02  0.1098206E+00
          1   -1    0    0  502    0 -0.00000000000E+00  0.00000000000E+00  0.49599808610E+03  0.49599808610E+03  0.00000000000E+00 0. -1.
         21   -1    0    0  501  502  0.00000000000E+00 -0.00000000000E+00 -0.13697065980E+03  0.13697065980E+03  0.00000000000E+00 0. -1.
         25    1    1    2    0    0 -0.22751832016E+03  0.92075582163E+02  0.20238294212E+03  0.34179870407E+03  0.12500000000E+03 0.  0.
          1    1    1    2  501    0  0.22751832016E+03 -0.92075582163E+02  0.15664448417E+03  0.29117004183E+03  0.00000000000E+00 0. -1.
<mgrwt>
<rscale>  3 0.27544055E+03</rscale>
<asrwt>0</asrwt>
<pdfrwt beam="1">  1       21 0.21072409E-01 0.27544055E+03</pdfrwt>
<pdfrwt beam="2">  1        1 0.76307397E-01 0.27544055E+03</pdfrwt>
<totfact> 0.10381287E+04</totfact>
</mgrwt>
</event>
<event>
 4    0  0.1491986E-001  0.2961348E+03  0.7546771E-02  0.1087189E+00
          1   -1    0    0  502    0 -0.00000000000E+00  0.00000000000E+00  0.68041282914E+03  0.68041282914E+03  0.00000000000E+00 0.  1.
         21   -1    0    0  501  502  0.00000000000E+00 -0.00000000000E+00 -0.23011502945E+03  0.23011502945E+03  0.00000000000E+00 0.  1.
         25    1    1    2    0    0  0.26073949178E+03  0.63919631722E+02 -0.88056819959E+02  0.30894951923E+03  0.12500000000E+03 0.  0.
          1    1    1    2  501    0 -0.26073949178E+03 -0.63919631722E+02  0.53835461965E+03  0.60157833936E+03  0.00000000000E+00 0.  1.
<mgrwt>
<rscale>  3 0.29613477E+03</rscale>
<asrwt>0</asrwt>
<pdfrwt beam="1">  1       21 0.35402313E-01 0.29613477E+03</pdfrwt>
<pdfrwt beam="2">  1        1 0.10467890E+00 0.29613477E+03</pdfrwt>
<totfact> 0.24255313E+03</totfact>
</mgrwt>
</event>
<event>
 4    0  0.1460487E-001  0.3987631E+03  0.7546771E-02  0.1044209E+00
          2   -1    0    0  502    0 -0.00000000000E+00  0.00000000000E+00  0.11432336042E+04  0.11432336042E+04  0.00000000000E+00 0. -1.
         21   -1    0    0  501  502  0.00000000000E+00 -0.00000000000E+00 -0.36835369937E+03  0.36835369937E+03  0.00000000000E+00 0. -1.
         25    1    1    2    0    0  0.31713144438E+03 -0.20691700519E+03 -0.21409207359E+03  0.45260072474E+03  0.12500000000E+03 0.  0.
          2    1    1    2  501    0 -0.31713144438E+03  0.20691700519E+03  0.98897197845E+03  0.10589865789E+04  0.00000000000E+00 0. -1.
<mgrwt>
<rscale>  3 0.39876309E+03</rscale>
<asrwt>0</asrwt>
<pdfrwt beam="1">  1       21 0.56669800E-01 0.39876309E+03</pdfrwt>
<pdfrwt beam="2">  1        2 0.17588209E+00 0.39876309E+03</pdfrwt>
<totfact> 0.73463049E+02</totfact>
</mgrwt>
</event>
<event>
 4    0  0.1588994E-001  0.2409429E+03  0.7546771E-02  0.1119166E+00
         -1   -1    0    0    0  501 -0.00000000000E+00  0.00000000000E+00  0.28010607044E+03  0.28010607044E+03  0.00000000000E+00 0.  1.
         21   -1    0    0  501  502  0.00000000000E+00 -0.00000000000E+00 -0.21931894561E+03  0.21931894561E+03  0.00000000000E+00 0.  1.
         25    1    1    2    0    0 -0.14426209629E+03  0.14702700329E+03 -0.75432742851E+02  0.25247493107E+03  0.12500000000E+03 0.  0.
         -1    1    1    2    0  502  0.14426209629E+03 -0.14702700329E+03  0.13621986768E+03  0.24695008499E+03  0.00000000000E+00 0.  1.
<mgrwt>
<rscale>  3 0.24094292E+03</rscale>
<asrwt>0</asrwt>
<pdfrwt beam="1">  1       21 0.33741376E-01 0.24094292E+03</pdfrwt>
<pdfrwt beam="2">  1       -1 0.43093242E-01 0.24094292E+03</pdfrwt>
<totfact> 0.41651385E+03</totfact>
</mgrwt>
</event>
<event>
 4    0  0.1002184E-001  0.2464580E+03  0.7546771E-02  0.1115564E+00
         21   -1    0    0  501  502  0.00000000000E+00  0.00000000000E+00  0.15052108230E+04  0.15052108230E+04  0.00000000000E+00 0.  1.
         -4   -1    0    0    0  501 -0.00000000000E+00 -0.00000000000E+00 -0.69604028186E+02  0.69604028186E+02  0.00000000000E+00 0.  1.
         25    1    1    2    0    0  0.16890478109E+03  0.12879340753E+03  0.12992226779E+04  0.13223922011E+04  0.12500000000E+03 0.  0.
         -4    1    1    2    0  502 -0.16890478109E+03 -0.12879340753E+03  0.13638411690E+03  0.25242265002E+03  0.00000000000E+00 0.  1.
<mgrwt>
<rscale>  3 0.24645804E+03</rscale>
<asrwt>0</asrwt>
<pdfrwt beam="1">  1       21 0.23157087E+00 0.24645804E+03</pdfrwt>
<pdfrwt beam="2">  1       -4 0.10708313E-01 0.24645804E+03</pdfrwt>
<totfact> 0.23782230E+02</totfact>
</mgrwt>
</event>
<event>
 4    0  0.1002184E-001  0.2686755E+03  0.7546771E-02  0.1102040E+00
         21   -1    0    0  501  502  0.00000000000E+00  0.00000000000E+00  0.70627307723E+02  0.70627307723E+02  0.00000000000E+00 0. -1.
         -4   -1    0    0    0  501 -0.00000000000E+00 -0.00000000000E+00 -0.14015018098E+04  0.14015018098E+04  0.00000000000E+00 0.  1.
         25    1    1    2    0    0  0.16321800393E+03  0.17297807696E+03 -0.25548296515E+03  0.37075339162E+03  0.12500000000E+03 0.  0.
         -4    1    1    2    0  502 -0.16321800393E+03 -0.17297807696E+03 -0.10753915369E+04  0.11013757259E+04  0.00000000000E+00 0.  1.
<mgrwt>
<rscale>  3 0.26867551E+03</rscale>
<asrwt>0</asrwt>
<pdfrwt beam="1">  1       21 0.10865741E-01 0.26867551E+03</pdfrwt>
<pdfrwt beam="2">  1       -4 0.21561564E+00 0.26867551E+03</pdfrwt>
<totfact> 0.33872914E+02</totfact>
</mgrwt>
</event>
<event>
 4    0  0.1223615E-001  0.4145757E+03  0.7546771E-02  0.1038846E+00
          2   -1    0    0  502    0 -0.00000000000E+00  0.00000000000E+00  0.22044859735E+04  0.22044859735E+04  0.00000000000E+00 0.  1.
         21   -1    0    0  501  502  0.00000000000E+00 -0.00000000000E+00 -0.74393333518E+02  0.74393333518E+02  0.00000000000E+00 0.  1.
         25    1    1    2    0    0  0.10363992868E+03 -0.38145353195E+03  0.11062235889E+04  0.11813567033E+04  0.12500000000E+03 0.  0.
          2    1    1    2  501    0 -0.10363992868E+03  0.38145353195E+03  0.10238690511E+04  0.10975226037E+04  0.00000000000E+00 0.  1.
<mgrwt>
<rscale>  3 0.41457573E+03</rscale>
<asrwt>0</asrwt>
<pdfrwt beam="1">  1       21 0.11445130E-01 0.41457573E+03</pdfrwt>
<pdfrwt beam="2">  1        2 0.33915164E+00 0.41457573E+03</pdfrwt>
<totfact> 0.44356386E+03</totfact>
</mgrwt>
</event>
<event>
 4    0  0.1546872E-001  0.3201558E+03  0.7546771E-02  0.1075578E+00
         21   -1    0    0  501  502  0.00000000000E+00  0.00000000000E+00  0.11101600994E+04  0.11101600994E+04  0.00000000000E+00 0.  1.
          2   -1    0    0  502    0 -0.00000000000E+00 -0.00000000000E+00 -0.20207379031E+04  0.20207379031E+04  0.00000000000E+00 0. -1.
         25    1    1    2    0    0 -0.24738358192E+03 -0.16023766717E+03  0.10759762584E+04  0.11225972809E+04  0.12500000000E+03 0.  0.
          2    1    1    2  501    0  0.24738358192E+03  0.16023766717E+03 -0.19865540621E+04  0.20083007216E+04  0.00000000000E+00 0. -1.
<mgrwt>
<rscale>  3 0.32015582E+03</rscale>
<asrwt>0</asrwt>
<pdfrwt beam="1">  1       21 0.17079386E+00 0.32015582E+03</pdfrwt>
<pdfrwt beam="2">  1        2 0.31088275E+00 0.32015582E+03</pdfrwt>
<totfact> 0.17427367E+01</totfact>
</mgrwt>
</event>
<event>
 4    0  0.1002184E-001  0.3658151E+03  0.7546771E-02  0.1056305E+00
          1   -1    0    0  502    0 -0.00000000000E+00  0.00000000000E+00  0.16375772015E+04  0.16375772015E+04  0.00000000000E+00 0. -1.
         21   -1    0    0  501  502  0.00000000000E+00 -0.00000000000E+00 -0.88518670341E+02  0.88518670341E+02  0.00000000000E+00 0.  1.
         25    1    1    2    0    0  0.34359446445E+03 -0.11770846698E+02  0.48250463813E+03  0.60550097824E+03  0.12500000000E+03 0.  0.
          1    1    1    2  501    0 -0.34359446445E+03  0.11770846698E+02  0.10665538930E+04  0.11205948936E+04  0.00000000000E+00 0. -1.
<mgrwt>
<rscale>  3 0.36581513E+03</rscale>
<asrwt>0</asrwt>
<pdfrwt beam="1">  1       21 0.13618258E-01 0.36581513E+03</pdfrwt>
<pdfrwt beam="2">  1        1 0.25193493E+00 0.36581513E+03</pdfrwt>
<totfact> 0.29005869E+03</totfact>
</mgrwt>
</event>
<event>
 4    0  0.1188334E-001  0.3630199E+03  0.7546771E-02  0.1057394E+00
          2   -1    0    0  502    0 -0.00000000000E+00  0.00000000000E+00  0.40435900318E+03  0.40435900318E+03  0.00000000000E+00 0.  1.
         21   -1    0    0  501  502  0.00000000000E+00 -0.00000000000E+00 -0.59425715330E+03  0.59425715330E+03  0.00000000000E+00 0.  1.
         25    1    1    2    0    0  0.51583131558E+02 -0.33689403716E+03 -0.44398702298E+03  0.57350491568E+03  0.12500000000E+03 0.  0.
          2    1    1    2  501    0 -0.51583131558E+02  0.33689403716E+03  0.25408887286E+03  0.42511124079E+03  0.00000000000E+00 0.  1.
<mgrwt>
<rscale>  3 0.36301985E+03</rscale>
<asrwt>0</asrwt>
<pdfrwt beam="1">  1       21 0.91424177E-01 0.36301985E+03</pdfrwt>
<pdfrwt beam="2">  1        2 0.62209078E-01 0.36301985E+03</pdfrwt>
<totfact> 0.93163143E+02</totfact>
</mgrwt>
</event>
<event>
 4    0  0.1402696E-001  0.2409476E+03  0.7546771E-02  0.1119163E+00
          2   -1    0    0  502    0 -0.00000000000E+00  0.00000000000E+00  0.10371801409E+04  0.10371801409E+04  0.00000000000E+00 0. -1.
         21   -1    0    0  501  502  0.00000000000E+00 -0.00000000000E+00 -0.81283021100E+02  0.81283021100E+02  0.00000000000E+00 0. -1.
         25    1    1    2    0    0  0.10660415564E+03  0.17625640902E+03  0.14368429018E+03  0.28053688343E+03  0.12500000000E+03 0.  0.
          2    1    1    2  501    0 -0.10660415564E+03 -0.17625640902E+03  0.81221282964E+03  0.83792627859E+03  0.00000000000E+00 0. -1.
<mgrwt>
<rscale>  3 0.24094765E+03</rscale>
<asrwt>0</asrwt>
<pdfrwt beam="1">  1       21 0.12505081E-01 0.24094765E+03</pdfrwt>
<pdfrwt beam="2">  1        2 0.15956617E+00 0.24094765E+03</pdfrwt>
<totfact> 0.17089210E+04</totfact>
</mgrwt>
</event>
<event>
 4    0  0.1587918E-001  0.2842195E+03  0.7546771E-02  0.1093406E+00
         21   -1    0    0  501  502  0.00000000000E+00  0.00000000000E+00  0.45563733882E+02  0.45563733882E+02  0.00000000000E+00 0.  1.
          1   -1    0    0  502    0 -0.00000000000E+00 -0.00000000000E+00 -0.16427272260E+04  0.16427272260E+04  0.00000000000E+00 0.  1.
         25    1    1    2    0    0  0.22621348988E+03  0.11825043892E+03 -0.69938826977E+03  0.75493354754E+03  0.12500000000E+03 0.  0.
          1    1    1    2  501    0 -0.22621348988E+03 -0.11825043892E+03 -0.89777522232E+03  0.93335741231E+03  0.00000000000E+00 0.  1.
<mgrwt>
<rscale>  3 0.28421947E+03</rscale>
<asrwt>0</asrwt>
<pdfrwt beam="1">  1       21 0.70098059E-02 0.28421947E+03</pdfrwt>
<pdfrwt beam="2">  1        1 0.25272724E+00 0.28421947E+03</pdfrwt>
<totfact> 0.96236781E+03</totfact>
</mgrwt>
</event>
<event>
 4    0  0.1002184E-001  0.3069601E+03  0.7546771E-02  0.1081812E+00
         21   -1    0    0  501  502  0.00000000000E+00  0.00000000000E+00  0.62431465312E+03  0.62431465312E+03  0.00000000000E+00 0. -1.
         -4   -1    0    0    0  501 -0.00000000000E+00 -0.00000000000E+00 -0.14849354429E+03  0.14849354429E+03  0.00000000000E+00 0.  1.
         25    1    1    2    0    0 -0.85048517805E+02 -0.26714462676E+03  0.34992994424E+03  0.46548412203E+03  0.12500000000E+03 0.  0.
         -4    1    1    2    0  502  0.85048517805E+02  0.26714462676E+03  0.12589116459E+03  0.30732407538E+03  0.00000000000E+00 0.  1.
<mgrwt>
<rscale>  3 0.30696010E+03</rscale>
<asrwt>0</asrwt>
<pdfrwt beam="1">  1       21 0.96048406E-01 0.30696010E+03</pdfrwt>
<pdfrwt beam="2">  1       -4 0.22845161E-01 0.30696010E+03</pdfrwt>
<totfact> 0.66459040E+02</totfact>
</mgrwt>
</event>
<event>
 4    0  0.1002184E-001  0.3038455E+03  0.7546771E-02  0.1083334E+00
          3   -1    0    0  502    0 -0.00000000000E+00  0.00000000000E+00  0.72957375125E+03  0.72957375125E+03  0.00000000000E+00 0.  1.
         21   -1    0    0  501  502  0.00000000000E+00 -0.00000000000E+00 -0.12545684391E+03  0.12545684391E+03  0.00000000000E+00 0. -1.
         25    1    1    2    0    0 -0.24676561455E+03 -0.12571315569E+03  0.19515174509E+03  0.36111808270E+03  0.12500000000E+03 0.  0.
          3    1    1    2  501    0  0.24676561455E+03  0.12571315569E+03  0.40896516225E+03  0.49391251247E+03  0.00000000000E+00 0.  1.
<mgrwt>
<rscale>  3 0.30384546E+03</rscale>
<asrwt>0</asrwt>
<pdfrwt beam="1">  1       21 0.19301053E-01 0.30384546E+03</pdfrwt>
<pdfrwt beam="2">  1        3 0.11224211E+00 0.30384546E+03</pdfrwt>
<totfact> 0.83705425E+02</totfact>
</mgrwt>
</event>
<event>
 4    0  0.1663044E-001  0.2778561E+03  0.7546771E-02  0.1096866E+00
         21   -1    0    0  501  502  0.00000000000E+00  0.00000000000E+00  0.65155236464E+02  0.65155236464E+02  0.00000000000E+00 0.  1.
          1   -1    0    0  502    0 -0.00000000000E+00 -0.00000000000E+00 -0.10651167223E+04  0.10651167223E+04  0.00000000000E+00 0.  1.
         25    1    1    2    0    0 -0.24738293863E+03 -0.19511629428E+02 -0.49585296051E+03  0.56839614747E+03  0.12500000000E+03 0.  0.
          1    1    1    2  501    0  0.24738293863E+03  0.19511629428E+02 -0.50410852531E+03  0.56187581127E+03  0.00000000000E+00 0.  1.
<mgrwt>
<rscale>  3 0.27785612E+03</rscale>
<asrwt>0</asrwt>
<pdfrwt beam="1">  1       21 0.10023883E-01 0.27785612E+03</pdfrwt>
<pdfrwt beam="2">  1        1 0.16386410E+00 0.27785612E+03</pdfrwt>
<totfact> 0.12750514E+04</totfact>
</mgrwt>
</event>
<event>
 4    0  0.1218661E-001  0.5315875E+03  0.7546771E-02  0.1005848E+00
         21   -1    0    0  501  502  0.00000000000E+00  0.00000000000E+00  0.53843100149E+03  0.53843100149E+03  0.00000000000E+00 0. -1.
          2   -1    0    0  502    0 -0.00000000000E+00 -0.00000000000E+00 -0.64676299197E+03  0.64676299197E+03  0.00000000000E+00 0. -1.
         25    1    1    2    0    0  0.51336474243E+03 -0.58454214731E+02  0.21749030771E+03  0.57435815301E+03  0.12500000000E+03 0.  0.
          2    1    1    2  501    0 -0.51336474243E+03  0.58454214731E+02 -0.32582229819E+03  0.61083584045E+03  0.00000000000E+00 0. -1.
<mgrwt>
<rscale>  3 0.53158748E+03</rscale>
<asrwt>0</asrwt>
<pdfrwt beam="1">  1       21 0.82835539E-01 0.53158748E+03</pdfrwt>
<pdfrwt beam="2">  1        2 0.99501999E-01 0.53158748E+03</pdfrwt>
<totfact> 0.65577907E+02</totfact>
</mgrwt>
</event>
<event>
 4    0  0.1541981E-001  0.2720693E+03  0.7546771E-02  0.1100101E+00
         21   -1    0    0  501  502  0.00000000000E+00  0.00000000000E+00  0.35714630688E+02  0.35714630688E+02  0.00000000000E+00 0. -1.
          2   -1    0    0  502    0 -0.00000000000E+00 -0.00000000000E+00 -0.18741321771E+04  0.18741321771E+04  0.00000000000E+00 0. -1.
         25    1    1    2    0    0  0.26579960045E+02 -0.24018786020E+03 -0.10867799871E+04  0.11203180097E+04  0.12500000000E+03 0.  0.
          2    1    1    2  501    0 -0.26579960045E+02  0.24018786020E+03 -0.75163755930E+03  0.78952879809E+03  0.00000000000E+00 0. -1.
<mgrwt>
<rscale>  3 0.27206930E+03</rscale>
<asrwt>0</asrwt>
<pdfrwt beam="1">  1       21 0.54945557E-02 0.27206930E+03</pdfrwt>
<pdfrwt beam="2">  1        2 0.28832818E+00 0.27206930E+03</pdfrwt>
<totfact> 0.25115910E+04</totfact>
</mgrwt>
</event>
<event>
 4    0  0.1354511E-001  0.3695614E+03  0.7546771E-02  0.1054861E+00
         21   -1    0    0  501  502  0.00000000000E+00  0.00000000000E+00  0.29728272263E+03  0.29728272263E+03  0.00000000000E+00 0.  1.
          1   -1    0    0  502    0 -0.00000000000E+00 -0.00000000000E+00 -0.93464059220E+03  0.93464059220E+03  0.00000000000E+00 0. -1.
         25    1    1    2    0    0 -0.15997991734E+03  0.30879932128E+03  0.12812479650E+03  0.39114135329E+03  0.12500000000E+03 0.  0.
          1    1    1    2  501    0  0.15997991734E+03 -0.30879932128E+03 -0.76548266608E+03  0.84078196154E+03  0.00000000000E+00 0. -1.
<mgrwt>
<rscale>  3 0.36956135E+03</rscale>
<asrwt>0</asrwt>
<pdfrwt beam="1">  1       21 0.45735804E-01 0.36956135E+03</pdfrwt>
<pdfrwt beam="2">  1        1 0.14379086E+00 0.36956135E+03</pdfrwt>
<totfact> 0.85619233E+02</totfact>
</mgrwt>
</event>
<event>
 4    0  0.1002184E-001  0.2524955E+03  0.7546771E-02  0.1111738E+00
         -3   -1    0    0    0  501 -0.00000000000E+00  0.00000000000E+00  0.97103669695E+02  0.97103669695E+02  0.00000000000E+00 0.  1.
         21   -1    0    0  501  502  0.00000000000E+00 -0.00000000000E+00 -0.20810275020E+04  0.20810275020E+04  0.00000000000E+00 0. -1.
         25    1    1    2    0    0  0.98165933650E+02  0.19619488909E+03 -0.19375082925E+04  0.19538915959E+04  0.12500000000E+03 0.  0.
         -3    1    1    2    0  502 -0.98165933650E+02 -0.19619488909E+03 -0.46415539852E+02  0.22423957584E+03  0.00000000000E+00 0.  1.
<mgrwt>
<rscale>  3 0.25249551E+03</rscale>
<asrwt>0</asrwt>
<pdfrwt beam="1">  1       21 0.32015811E+00 0.25249551E+03</pdfrwt>
<pdfrwt beam="2">  1       -3 0.14939025E-01 0.25249551E+03</pdfrwt>
<totfact> 0.45753333E+01</totfact>
</mgrwt>
</event>
<event>
 4    0  0.1002184E-001  0.3453377E+03  0.7546771E-02  0.1064545E+00
          2   -1    0    0  502    0 -0.00000000000E+00  0.00000000000E+00  0.31707749269E+03  0.31707749269E+03  0.00000000000E+00 0.  1.
         21   -1    0    0  501  502  0.00000000000E+00 -0.00000000000E+00 -0.20192020075E+04  0.20192020075E+04  0.00000000000E+00 0.  1.
         25    1    1    2    0    0  0.80762411576E+02 -0.31162564171E+03 -0.19178937396E+04  0.19487366431E+04  0.12500000000E+03 0.  0.
          2    1    1    2  501    0 -0.80762411576E+02  0.31162564171E+03  0.21576922482E+03  0.38754285708E+03  0.00000000000E+00 0.  1.
<mgrwt>
<rscale>  3 0.34533767E+03</rscale>
<asrwt>0</asrwt>
<pdfrwt beam="1">  1       21 0.31064647E+00 0.34533767E+03</pdfrwt>
<pdfrwt beam="2">  1        2 0.48781152E-01 0.34533767E+03</pdfrwt>
<totfact> 0.32706704E+01</totfact>
</mgrwt>
</event>
<event>
 4    0  0.1382923E-001  0.2527635E+03  0.7546771E-02  0.1111571E+00
         21   -1    0    0  501  502  0.00000000000E+00  0.00000000000E+00  0.27985620822E+03  0.27985620822E+03  0.00000000000E+00 0.  1.
          1   -1    0    0  502    0 -0.00000000000E+00 -0.00000000000E+00 -0.18252189032E+04  0.18252189032E+04  0.00000000000E+00 0.  1.
         25    1    1    2    0    0 -0.58892634355E+01 -0.21961257939E+03  0.21452548274E+03  0.33152760247E+03  0.12500000000E+03 0.  0.
          1    1    1    2  501    0  0.58892634355E+01  0.21961257939E+03 -0.17598881777E+04  0.17735475090E+04  0.00000000000E+00 0.  1.
<mgrwt>
<rscale>  3 0.25276346E+03</rscale>
<asrwt>0</asrwt>
<pdfrwt beam="1">  1       21 0.43054802E-01 0.25276346E+03</pdfrwt>
<pdfrwt beam="2">  1        1 0.28080290E+00 0.25276346E+03</pdfrwt>
<totfact> 0.24845483E+02</totfact>
</mgrwt>
</event>
<event>
 4    0  0.1685655E-001  0.2542757E+03  0.7546771E-02  0.1110632E+00
          2   -1    0    0  502    0 -0.00000000000E+00  0.00000000000E+00  0.97001495140E+03  0.97001495140E+03  0.00000000000E+00 0.  1.
         21   -1    0    0  501  502  0.00000000000E+00 -0.00000000000E+00 -0.63711967015E+02  0.63711967015E+02  0.00000000000E+00 0.  1.
         25    1    1    2    0    0 -0.21982961342E+03 -0.26571625029E+02  0.33179734768E+03  0.41802582470E+03  0.12500000000E+03 0.  0.
          2    1    1    2  501    0  0.21982961342E+03  0.26571625029E+02  0.57450563671E+03  0.61570109371E+03  0.00000000000E+00 0.  1.
<mgrwt>
<rscale>  3 0.25427566E+03</rscale>
<asrwt>0</asrwt>
<pdfrwt beam="1">  1       21 0.98018418E-02 0.25427566E+03</pdfrwt>
<pdfrwt beam="2">  1        2 0.14923306E+00 0.25427566E+03</pdfrwt>
<totfact> 0.28974289E+04</totfact>
</mgrwt>
</event>
<event>
 4    0  0.1442921E-001  0.3058225E+03  0.7546771E-02  0.1082366E+00
          1   -1    0    0  502    0 -0.00000000000E+00  0.00000000000E+00  0.12901924286E+04  0.12901924286E+04  0.00000000000E+00 0.  1.
         21   -1    0    0  501  502  0.00000000000E+00 -0.00000000000E+00 -0.68380478828E+02  0.68380478828E+02  0.00000000000E+00 0.  1.
         25    1    1    2    0    0  0.19359652285E+03  0.20105420325E+03  0.51951676756E+03  0.60284747497E+03  0.12500000000E+03 0.  0.
          1    1    1    2  501    0 -0.19359652285E+03 -0.20105420325E+03  0.70229518225E+03  0.75572543250E+03  0.00000000000E+00 0.  1.
<mgrwt>
<rscale>  3 0.30582251E+03</rscale>
<asrwt>0</asrwt>
<pdfrwt beam="1">  1       21 0.10520075E-01 0.30582251E+03</pdfrwt>
<pdfrwt beam="2">  1        1 0.19849112E+00 0.30582251E+03</pdfrwt>
<totfact> 0.80521918E+03</totfact>
</mgrwt>
</event>
<event>
 4    0  0.1271118E-001  0.2441267E+03  0.7546771E-02  0.1117074E+00
          2   -1    0    0  502    0 -0.00000000000E+00  0.00000000000E+00  0.27514146188E+04  0.27514146188E+04  0.00000000000E+00 0. -1.
         21   -1    0    0  501  502  0.00000000000E+00 -0.00000000000E+00 -0.30568748290E+02  0.30568748290E+02  0.00000000000E+00 0. -1.
         25    1    1    2    0    0 -0.15471550963E+03 -0.14154849420E+03  0.55889333657E+03  0.60988492914E+03  0.12500000000E+03 0.  0.
          2    1    1    2  501    0  0.15471550963E+03  0.14154849420E+03  0.21619525339E+04  0.21720984379E+04  0.00000000000E+00 0. -1.
<mgrwt>
<rscale>  3 0.24412674E+03</rscale>
<asrwt>0</asrwt>
<pdfrwt beam="1">  1       21 0.47028865E-02 0.24412674E+03</pdfrwt>
<pdfrwt beam="2">  1        2 0.42329436E+00 0.24412674E+03</pdfrwt>
<totfact> 0.11117920E+04</totfact>
</mgrwt>
</event>
<event>
 4    0  0.1480766E-001  0.2792300E+03  0.7546771E-02  0.1096110E+00
          3   -1    0    0  502    0 -0.00000000000E+00  0.00000000000E+00  0.80785276189E+03  0.80785276189E+03  0.00000000000E+00 0.  1.
         21   -1    0    0  501  502  0.00000000000E+00 -0.00000000000E+00 -0.78257985312E+03  0.78257985312E+03  0.00000000000E+00 0.  1.
         25    1    1    2    0    0 -0.42231251395E+02  0.24609132777E+03 -0.73709776318E+03  0.78821477574E+03  0.12500000000E+03 0.  0.
          3    1    1    2  501    0  0.42231251395E+02 -0.24609132777E+03  0.76237067195E+03  0.80221783928E+03  0.00000000000E+00 0.  1.
<mgrwt>
<rscale>  3 0.27923005E+03</rscale>
<asrwt>0</asrwt>
<pdfrwt beam="1">  1       21 0.12039690E+00 0.27923005E+03</pdfrwt>
<pdfrwt beam="2">  1        3 0.12428504E+00 0.27923005E+03</pdfrwt>
<totfact> 0.13466601E+01</totfact>
</mgrwt>
</event>
<event>
 4    0  0.1008215E-001  0.2781930E+03  0.7546771E-02  0.1096680E+00
         -1   -1    0    0    0  501 -0.00000000000E+00  0.00000000000E+00  0.75534343698E+03  0.75534343698E+03  0.00000000000E+00 0.  1.
         21   -1    0    0  501  502  0.00000000000E+00 -0.00000000000E+00 -0.17165950264E+03  0.17165950264E+03  0.00000000000E+00 0. -1.
         25    1    1    2    0    0  0.18648424522E+03 -0.16428632076E+03 -0.15190289513E+02  0.27860745467E+03  0.12500000000E+03 0.  0.
         -1    1    1    2    0  502 -0.18648424522E+03  0.16428632076E+03  0.59887422386E+03  0.64839548495E+03  0.00000000000E+00 0.  1.
<mgrwt>
<rscale>  3 0.27819304E+03</rscale>
<asrwt>0</asrwt>
<pdfrwt beam="1">  1       21 0.26409155E-01 0.27819304E+03</pdfrwt>
<pdfrwt beam="2">  1       -1 0.11620668E+00 0.27819304E+03</pdfrwt>
<totfact> 0.88906245E+02</totfact>
</mgrwt>
</event>
<event>
 4    0  0.1428139E-001  0.2875379E+03  0.7546771E-02  0.1091642E+00
         21   -1    0    0  501  502  0.00000000000E+00  0.00000000000E+00  0.26292353466E+03  0.26292353466E+03  0.00000000000E+00 0.  1.
          1   -1    0    0  502    0 -0.00000000000E+00 -0.00000000000E+00 -0.48226813505E+03  0.48226813505E+03  0.00000000000E+00 0.  1.
         25    1    1    2    0    0 -0.22202371048E+01 -0.25893651672E+03  0.12567954246E+03  0.31380471083E+03  0.12500000000E+03 0.  0.
          1    1    1    2  501    0  0.22202371048E+01  0.25893651672E+03 -0.34502414285E+03  0.43138695888E+03  0.00000000000E+00 0.  1.
<mgrwt>
<rscale>  3 0.28753791E+03</rscale>
<asrwt>0</asrwt>
<pdfrwt beam="1">  1       21 0.40449775E-01 0.28753791E+03</pdfrwt>
<pdfrwt beam="2">  1        1 0.74195097E-01 0.28753791E+03</pdfrwt>
<totfact> 0.29892057E+03</totfact>
</mgrwt>
</event>
<event>
 4    0  0.1486968E-001  0.2411519E+03  0.7546771E-02  0.1119028E+00
         21   -1    0    0  501  502  0.00000000000E+00  0.00000000000E+00  0.56564990659E+02  0.56564990659E+02  0.00000000000E+00 0.  1.
          2   -1    0    0  502    0 -0.00000000000E+00 -0.00000000000E+00 -0.99240813607E+03  0.99240813607E+03  0.00000000000E+00 0.  1.
         25    1    1    2    0    0  0.19550435019E+02 -0.20529740922E+03 -0.32807598069E+03  0.40717084234E+03  0.12500000000E+03 0.  0.
          2    1    1    2  501    0 -0.19550435019E+02  0.20529740922E+03 -0.60776716472E+03  0.64180228440E+03  0.00000000000E+00 0.  1.
<mgrwt>
<rscale>  3 0.24115191E+03</rscale>
<asrwt>0</asrwt>
<pdfrwt beam="1">  1       21 0.87023066E-02 0.24115191E+03</pdfrwt>
<pdfrwt beam="2">  1        2 0.15267817E+00 0.24115191E+03</pdfrwt>
<totfact> 0.34700727E+04</totfact>
</mgrwt>
</event>
<event>
 4    0  0.1321495E-001  0.4009452E+03  0.7546771E-02  0.1043453E+00
         21   -1    0    0  501  502  0.00000000000E+00  0.00000000000E+00  0.90216609734E+03  0.90216609734E+03  0.00000000000E+00 0.  1.
          2   -1    0    0  502    0 -0.00000000000E+00 -0.00000000000E+00 -0.80265058215E+03  0.80265058215E+03  0.00000000000E+00 0.  1.
         25    1    1    2    0    0 -0.64204809089E+00  0.38096151165E+03  0.80709526337E+03  0.90119911770E+03  0.12500000000E+03 0.  0.
          2    1    1    2  501    0  0.64204809089E+00 -0.38096151165E+03 -0.70757974818E+03  0.80361756179E+03  0.00000000000E+00 0.  1.
<mgrwt>
<rscale>  3 0.40094524E+03</rscale>
<asrwt>0</asrwt>
<pdfrwt beam="1">  1       21 0.13879478E+00 0.40094524E+03</pdfrwt>
<pdfrwt beam="2">  1        2 0.12348471E+00 0.40094524E+03</pdfrwt>
<totfact> 0.14481574E+02</totfact>
</mgrwt>
</event>
<event>
 4    0  0.1512046E-001  0.2480024E+03  0.7546771E-02  0.1114574E+00
          1   -1    0    0  502    0 -0.00000000000E+00  0.00000000000E+00  0.14931150730E+04  0.14931150730E+04  0.00000000000E+00 0. -1.
         21   -1    0    0  501  502  0.00000000000E+00 -0.00000000000E+00 -0.40495491770E+02  0.40495491770E+02  0.00000000000E+00 0. -1.
         25    1    1    2    0    0  0.20935639632E+03 -0.45277841753E+02  0.51187749464E+03  0.56879148478E+03  0.12500000000E+03 0.  0.
          1    1    1    2  501    0 -0.20935639632E+03  0.45277841753E+02  0.94074208656E+03  0.96481907997E+03  0.00000000000E+00 0. -1.
<mgrwt>
<rscale>  3 0.24800239E+03</rscale>
<asrwt>0</asrwt>
<pdfrwt beam="1">  1       21 0.62300768E-02 0.24800239E+03</pdfrwt>
<pdfrwt beam="2">  1        1 0.22970997E+00 0.24800239E+03</pdfrwt>
<totfact> 0.14954231E+04</totfact>
</mgrwt>
</event>
<event>
 4    0  0.1841985E-001  0.2744394E+03  0.7546771E-02  0.1098765E+00
         -3   -1    0    0    0  501 -0.00000000000E+00  0.00000000000E+00  0.46735981294E+03  0.46735981294E+03  0.00000000000E+00 0. -1.
         21   -1    0    0  501  502  0.00000000000E+00 -0.00000000000E+00 -0.15465321353E+03  0.15465321353E+03  0.00000000000E+00 0. -1.
         25    1    1    2    0    0  0.23250809258E+03 -0.75046319118E+02  0.83124020173E+02  0.28675174953E+03  0.12500000000E+03 0.  0.
         -3    1    1    2    0  502 -0.23250809258E+03  0.75046319118E+02  0.22958257924E+03  0.33526127694E+03  0.00000000000E+00 0. -1.
<mgrwt>
<rscale>  3 0.27443936E+03</rscale>
<asrwt>0</asrwt>
<pdfrwt beam="1">  1       21 0.23792802E-01 0.27443936E+03</pdfrwt>
<pdfrwt beam="2">  1       -3 0.71901509E-01 0.27443936E+03</pdfrwt>
<totfact> 0.15384480E+03</totfact>
</mgrwt>
</event>
<event>
 4    0  0.1233837E-001  0.2751099E+03  0.7546771E-02  0.1098390E+00
         21   -1    0    0  501  502  0.00000000000E+00  0.00000000000E+00  0.43320691962E+03  0.43320691962E+03  0.00000000000E+00 0.  1.
          3   -1    0    0  502    0 -0.00000000000E+00 -0.00000000000E+00 -0.26271344405E+03  0.26271344405E+03  0.00000000000E+00 0.  1.
         25    1    1    2    0    0  0.74843812682E+02 -0.23336419277E+03  0.30955945983E+03  0.41414067891E+03  0.12500000000E+03 0.  0.
          3    1    1    2  501    0 -0.74843812682E+02  0.23336419277E+03 -0.13906598425E+03  0.28177968475E+03  0.00000000000E+00 0.  1.
<mgrwt>
<rscale>  3 0.27510987E+03</rscale>
<asrwt>0</asrwt>
<pdfrwt beam="1">  1       21 0.66647218E-01 0.27510987E+03</pdfrwt>
<pdfrwt beam="2">  1        3 0.40417453E-01 0.27510987E+03</pdfrwt>
<totfact> 0.61133528E+02</totfact>
</mgrwt>
</event>
<event>
 4    0  0.1131187E-001  0.4043573E+03  0.7546771E-02  0.1042281E+00
          2   -1    0    0  502    0 -0.00000000000E+00  0.00000000000E+00  0.40172595753E+03  0.40172595753E+03  0.00000000000E+00 0.  1.
         21   -1    0    0  501  502  0.00000000000E+00 -0.00000000000E+00 -0.61525436295E+03  0.61525436295E+03  0.00000000000E+00 0.  1.
         25    1    1    2    0    0 -0.27903052211E+03  0.26461630755E+03 -0.41789352906E+03  0.58149791411E+03  0.12500000000E+03 0.  0.
          2    1    1    2  501    0  0.27903052211E+03 -0.26461630755E+03  0.20436512365E+03  0.43548240636E+03  0.00000000000E+00 0.  1.
<mgrwt>
<rscale>  3 0.40435730E+03</rscale>
<asrwt>0</asrwt>
<pdfrwt beam="1">  1       21 0.94654517E-01 0.40435730E+03</pdfrwt>
<pdfrwt beam="2">  1        2 0.61803994E-01 0.40435730E+03</pdfrwt>
<totfact> 0.85423302E+02</totfact>
</mgrwt>
</event>
<event>
 4    0  0.1211141E-001  0.2397884E+03  0.7546771E-02  0.1119934E+00
          2   -1    0    0  502    0 -0.00000000000E+00  0.00000000000E+00  0.55512113897E+03  0.55512113897E+03  0.00000000000E+00 0. -1.
         21   -1    0    0  501  502  0.00000000000E+00 -0.00000000000E+00 -0.28171433875E+03  0.28171433875E+03  0.00000000000E+00 0. -1.
         25    1    1    2    0    0 -0.35180234931E+02 -0.20158330652E+03 -0.20565540731E+03  0.31589970712E+03  0.12500000000E+03 0.  0.
          2    1    1    2  501    0  0.35180234931E+02  0.20158330652E+03  0.47906220754E+03  0.52093577060E+03  0.00000000000E+00 0. -1.
<mgrwt>
<rscale>  3 0.23978840E+03</rscale>
<asrwt>0</asrwt>
<pdfrwt beam="1">  1       21 0.43340668E-01 0.23978840E+03</pdfrwt>
<pdfrwt beam="2">  1        2 0.85403252E-01 0.23978840E+03</pdfrwt>
<totfact> 0.34884177E+03</totfact>
</mgrwt>
</event>
<event>
 4    0  0.1254695E-001  0.2412175E+03  0.7546771E-02  0.1118984E+00
         21   -1    0    0  501  502  0.00000000000E+00  0.00000000000E+00  0.21172755769E+03  0.21172755769E+03  0.00000000000E+00 0.  1.
          1   -1    0    0  502    0 -0.00000000000E+00 -0.00000000000E+00 -0.67332681421E+03  0.67332681421E+03  0.00000000000E+00 0.  1.
         25    1    1    2    0    0  0.12118318370E+03  0.16695966430E+03  0.11894074905E+03  0.26894756980E+03  0.12500000000E+03 0.  0.
          1    1    1    2  501    0 -0.12118318370E+03 -0.16695966430E+03 -0.58054000557E+03  0.61610680209E+03  0.00000000000E+00 0.  1.
<mgrwt>
<rscale>  3 0.24121752E+03</rscale>
<asrwt>0</asrwt>
<pdfrwt beam="1">  1       21 0.32573470E-01 0.24121752E+03</pdfrwt>
<pdfrwt beam="2">  1        1 0.10358874E+00 0.24121752E+03</pdfrwt>
<totfact> 0.29574221E+03</totfact>
</mgrwt>
</event>
<event>
 4    0  0.1104978E-001  0.2895884E+03  0.7546771E-02  0.1090564E+00
         21   -1    0    0  501  502  0.00000000000E+00  0.00000000000E+00  0.10432920031E+03  0.10432920031E+03  0.00000000000E+00 0.  1.
          2   -1    0    0  502    0 -0.00000000000E+00 -0.00000000000E+00 -0.94947411790E+03  0.94947411790E+03  0.00000000000E+00 0. -1.
         25    1    1    2    0    0  0.59790697548E+02  0.25428626902E+03 -0.18444624551E+03  0.34333926605E+03  0.12500000000E+03 0.  0.
          2    1    1    2  501    0 -0.59790697548E+02 -0.25428626902E+03 -0.66069867208E+03  0.71046405216E+03  0.00000000000E+00 0. -1.
<mgrwt>
<rscale>  3 0.28958839E+03</rscale>
<asrwt>0</asrwt>
<pdfrwt beam="1">  1       21 0.16050647E-01 0.28958839E+03</pdfrwt>
<pdfrwt beam="2">  1        2 0.14607293E+00 0.28958839E+03</pdfrwt>
<totfact> 0.12146734E+04</totfact>
</mgrwt>
</event>
<event>
 4    0  0.1140127E-001  0.4083367E+03  0.7546771E-02  0.1040931E+00
          2   -1    0    0  502    0 -0.00000000000E+00  0.00000000000E+00  0.22730117123E+04  0.22730117123E+04  0.00000000000E+00 0. -1.
         21   -1    0    0  501  502  0.00000000000E+00 -0.00000000000E+00 -0.27883413547E+03  0.27883413547E+03  0.00000000000E+00 0. -1.
         25    1    1    2    0    0  0.24955328867E+03  0.29805538225E+03 -0.10121976449E+03  0.42069501483E+03  0.12500000000E+03 0.  0.
          2    1    1    2  501    0 -0.24955328867E+03 -0.29805538225E+03  0.20953973413E+04  0.21311508330E+04  0.00000000000E+00 0. -1.
<mgrwt>
<rscale>  3 0.40833669E+03</rscale>
<asrwt>0</asrwt>
<pdfrwt beam="1">  1       21 0.42897561E-01 0.40833669E+03</pdfrwt>
<pdfrwt beam="2">  1        2 0.34969410E+00 0.40833669E+03</pdfrwt>
<totfact> 0.31978843E+02</totfact>
</mgrwt>
</event>
<event>
 4    0  0.1439978E-001  0.2916577E+03  0.7546771E-02  0.1089487E+00
          2   -1    0    0  502    0 -0.00000000000E+00  0.00000000000E+00  0.68695127292E+03  0.68695127292E+03  0.00000000000E+00 0.  1.
         21   -1    0    0  501  502  0.00000000000E+00 -0.00000000000E+00 -0.11293680649E+03  0.11293680649E+03  0.00000000000E+00 0.  1.
         25    1    1    2    0    0  0.24547037813E+03 -0.95830534380E+02  0.26849322500E+03  0.39642503671E+03  0.12500000000E+03 0.  0.
          2    1    1    2  501    0 -0.24547037813E+03  0.95830534380E+02  0.30552124143E+03  0.40346304270E+03  0.00000000000E+00 0.  1.
<mgrwt>
<rscale>  3 0.29165767E+03</rscale>
<asrwt>0</asrwt>
<pdfrwt beam="1">  1       21 0.17374894E-01 0.29165767E+03</pdfrwt>
<pdfrwt beam="2">  1        2 0.10568481E+00 0.29165767E+03</pdfrwt>
<totfact> 0.15919223E+04</totfact>
</mgrwt>
</event>
<event>
 4    0  0.1583611E-001  0.2978504E+03  0.7546771E-02  0.1086320E+00
         21   -1    0    0  501  502  0.00000000000E+00  0.00000000000E+00  0.66102845862E+02  0.66102845862E+02  0.00000000000E+00 0. -1.
          2   -1    0    0  502    0 -0.00000000000E+00 -0.00000000000E+00 -0.13451534089E+04  0.13451534089E+04  0.00000000000E+00 0. -1.
         25    1    1    2    0    0 -0.65560415321E+02 -0.26228171688E+03 -0.45349821037E+03  0.54256381549E+03  0.12500000000E+03 0.  0.
          2    1    1    2  501    0  0.65560415321E+02  0.26228171688E+03 -0.82555235271E+03  0.86869243932E+03  0.00000000000E+00 0. -1.
<mgrwt>
<rscale>  3 0.29785041E+03</rscale>
<asrwt>0</asrwt>
<pdfrwt beam="1">  1       21 0.10169669E-01 0.29785041E+03</pdfrwt>
<pdfrwt beam="2">  1        2 0.20694667E+00 0.29785041E+03</pdfrwt>
<totfact> 0.16297423E+04</totfact>
</mgrwt>
</event>
<event>
 4    0  0.1002184E-001  0.2690480E+03  0.7546771E-02  0.1101826E+00
         -2   -1    0    0    0  501 -0.00000000000E+00  0.00000000000E+00  0.11264338573E+03  0.11264338573E+03  0.00000000000E+00 0.  1.
         21   -1    0    0  501  502  0.00000000000E+00 -0.00000000000E+00 -0.65636174773E+03  0.65636174773E+03  0.00000000000E+00 0. -1.
         25    1    1    2    0    0  0.23592261419E+03  0.33201470798E+02 -0.42453448415E+03  0.50260953611E+03  0.12500000000E+03 0.  0.
         -2    1    1    2    0  502 -0.23592261419E+03 -0.33201470798E+02 -0.11918387785E+03  0.26639559735E+03  0.00000000000E+00 0.  1.
<mgrwt>
<rscale>  3 0.26904798E+03</rscale>
<asrwt>0</asrwt>
<pdfrwt beam="1">  1       21 0.10097873E+00 0.26904798E+03</pdfrwt>
<pdfrwt beam="2">  1       -2 0.17329752E-01 0.26904798E+03</pdfrwt>
<totfact> 0.16677459E+03</totfact>
</mgrwt>
</event>
<event>
 4    0  0.1002184E-001  0.2731406E+03  0.7546771E-02  0.1099495E+00
          2   -1    0    0  502    0 -0.00000000000E+00  0.00000000000E+00  0.10969099525E+03  0.10969099525E+03  0.00000000000E+00 0. -1.
         21   -1    0    0  501  502  0.00000000000E+00 -0.00000000000E+00 -0.14631923239E+04  0.14631923239E+04  0.00000000000E+00 0.  1.
         25    1    1    2    0    0 -0.19331526830E+03  0.14700344816E+03 -0.12944417147E+04  0.13229456374E+04  0.12500000000E+03 0.  0.
          2    1    1    2  501    0  0.19331526830E+03 -0.14700344816E+03 -0.59059613854E+02  0.24993768166E+03  0.00000000000E+00 0. -1.
<mgrwt>
<rscale>  3 0.27314064E+03</rscale>
<asrwt>0</asrwt>
<pdfrwt beam="1">  1       21 0.22510652E+00 0.27314064E+03</pdfrwt>
<pdfrwt beam="2">  1        2 0.16875537E-01 0.27314064E+03</pdfrwt>
<totfact> 0.36600512E+02</totfact>
</mgrwt>
</event>
<event>
 4    0  0.1374850E-001  0.3111091E+03  0.7546771E-02  0.1079815E+00
          1   -1    0    0  502    0 -0.00000000000E+00  0.00000000000E+00  0.49060214088E+03  0.49060214088E+03  0.00000000000E+00 0. -1.
         21   -1    0    0  501  502  0.00000000000E+00 -0.00000000000E+00 -0.78922943613E+03  0.78922943613E+03  0.00000000000E+00 0. -1.
         25    1    1    2    0    0 -0.24786310974E+03  0.14045543190E+03 -0.71245542470E+03  0.77741982333E+03  0.12500000000E+03 0.  0.
          1    1    1    2  501    0  0.24786310974E+03 -0.14045543190E+03  0.41382812945E+03  0.50241175368E+03  0.00000000000E+00 0. -1.
<mgrwt>
<rscale>  3 0.31110906E+03</rscale>
<asrwt>0</asrwt>
<pdfrwt beam="1">  1       21 0.12141991E+00 0.31110906E+03</pdfrwt>
<pdfrwt beam="2">  1        1 0.75477253E-01 0.31110906E+03</pdfrwt>
<totfact> 0.24513217E+02</totfact>
</mgrwt>
</event>
<event>
 4    0  0.1519779E-001  0.3309974E+03  0.7546771E-02  0.1070696E+00
          2   -1    0    0  502    0 -0.00000000000E+00  0.00000000000E+00  0.50156306101E+03  0.50156306101E+03  0.00000000000E+00 0.  1.
         21   -1    0    0  501  502  0.00000000000E+00 -0.00000000000E+00 -0.23112103871E+03  0.23112103871E+03  0.00000000000E+00 0.  1.
         25    1    1    2    0    0  0.30646154248E+03 -0.39485545790E+01  0.11079223091E+02  0.33118275512E+03  0.12500000000E+03 0.  0.
          2    1    1    2  501    0 -0.30646154248E+03  0.39485545790E+01  0.25936279922E+03  0.40150134460E+03  0.00000000000E+00 0.  1.
<mgrwt>
<rscale>  3 0.33099738E+03</rscale>
<asrwt>0</asrwt>
<pdfrwt beam="1">  1       21 0.35557083E-01 0.33099738E+03</pdfrwt>
<pdfrwt beam="2">  1        2 0.77163548E-01 0.33099738E+03</pdfrwt>
<totfact> 0.57240582E+03</totfact>
</mgrwt>
</event>
<event>
 4    0  0.1002184E-001  0.3064346E+03  0.7546771E-02  0.1082068E+00
         -4   -1    0    0    0  501 -0.00000000000E+00  0.00000000000E+00  0.11863074538E+03  0.11863074538E+03  0.00000000000E+00 0.  1.
         21   -1    0    0  501  502  0.00000000000E+00 -0.00000000000E+00 -0.79358087242E+03  0.79358087242E+03  0.00000000000E+00 0. -1.
         25    1    1    2    0    0 -0.26869652567E+03  0.77970212493E+02 -0.48621523150E+03  0.57472378434E+03  0.12500000000E+03 0.  0.
         -4    1    1    2    0  502  0.26869652567E+03 -0.77970212493E+02 -0.18873489554E+03  0.33748783346E+03  0.00000000000E+00 0.  1.
<mgrwt>
<rscale>  3 0.30643462E+03</rscale>
<asrwt>0</asrwt>
<pdfrwt beam="1">  1       21 0.12208936E+00 0.30643462E+03</pdfrwt>
<pdfrwt beam="2">  1       -4 0.18250884E-01 0.30643462E+03</pdfrwt>
<totfact> 0.55737371E+02</totfact>
</mgrwt>
</event>
<event>
 4    0  0.1417909E-001  0.2414248E+03  0.7546771E-02  0.1118847E+00
         21   -1    0    0  501  502  0.00000000000E+00  0.00000000000E+00  0.12739815196E+03  0.12739815196E+03  0.00000000000E+00 0. -1.
          2   -1    0    0  502    0 -0.00000000000E+00 -0.00000000000E+00 -0.89563962846E+03  0.89563962846E+03  0.00000000000E+00 0. -1.
         25    1    1    2    0    0 -0.11113743488E+03  0.17409593724E+03 -0.14888151227E+02  0.24188340547E+03  0.12500000000E+03 0.  0.
          2    1    1    2  501    0  0.11113743488E+03 -0.17409593724E+03 -0.75335332527E+03  0.78115437495E+03  0.00000000000E+00 0. -1.
<mgrwt>
<rscale>  3 0.24142478E+03</rscale>
<asrwt>0</asrwt>
<pdfrwt beam="1">  1       21 0.19599716E-01 0.24142478E+03</pdfrwt>
<pdfrwt beam="2">  1        2 0.13779071E+00 0.24142478E+03</pdfrwt>
<totfact> 0.91675170E+03</totfact>
</mgrwt>
</event>
<event>
 4    0  0.1002184E-001  0.6387524E+03  0.7546771E-02  0.9828117E-01
         21   -1    0    0  501  502  0.00000000000E+00  0.00000000000E+00  0.67406671105E+03  0.67406671105E+03  0.00000000000E+00 0.  1.
          2   -1    0    0  502    0 -0.00000000000E+00 -0.00000000000E+00 -0.63483083483E+03  0.63483083483E+03  0.00000000000E+00 0.  1.
         25    1    1    2    0    0  0.62504604412E+03  0.41194758847E+02  0.18649103444E+03  0.66541977078E+03  0.12500000000E+03 0.  0.
          2    1    1    2  501    0 -0.62504604412E+03 -0.41194758847E+02 -0.14725515822E+03  0.64347777510E+03  0.00000000000E+00 0.  1.
<mgrwt>
<rscale>  3 0.63875235E+03</rscale>
<asrwt>0</asrwt>
<pdfrwt beam="1">  1       21 0.10370257E+00 0.63875235E+03</pdfrwt>
<pdfrwt beam="2">  1        2 0.97666282E-01 0.63875235E+03</pdfrwt>
<totfact> 0.38252961E+02</totfact>
</mgrwt>
</event>
<event>
 4    0  0.1453001E-001  0.2498043E+03  0.7546771E-02  0.1113429E+00
          3   -1    0    0  502    0 -0.00000000000E+00  0.00000000000E+00  0.14707663038E+04  0.14707663038E+04  0.00000000000E+00 0.  1.
         21   -1    0    0  501  502  0.00000000000E+00 -0.00000000000E+00 -0.82871978251E+02  0.82871978251E+02  0.00000000000E+00 0.  1.
         25    1    1    2    0    0 -0.95046935352E+02  0.19427621634E+03  0.13843539732E+03  0.28559854234E+03  0.12500000000E+03 0.  0.
          3    1    1    2  501    0  0.95046935352E+02 -0.19427621634E+03  0.12494589282E+04  0.12680397397E+04  0.00000000000E+00 0.  1.
<mgrwt>
<rscale>  3 0.24980426E+03</rscale>
<asrwt>0</asrwt>
<pdfrwt beam="1">  1       21 0.12749536E-01 0.24980426E+03</pdfrwt>
<pdfrwt beam="2">  1        3 0.22627172E+00 0.24980426E+03</pdfrwt>
<totfact> 0.29078887E+02</totfact>
</mgrwt>
</event>
<event>
 4    0  0.1002184E-001  0.6414432E+03  0.7546771E-02  0.9822969E-01
         21   -1    0    0  501  502  0.00000000000E+00  0.00000000000E+00  0.34683894561E+03  0.34683894561E+03  0.00000000000E+00 0. -1.
         -2   -1    0    0    0  501 -0.00000000000E+00 -0.00000000000E+00 -0.19088139455E+04  0.19088139455E+04  0.00000000000E+00 0.  1.
         25    1    1    2    0    0 -0.45427065034E+02 -0.62750363079E+03 -0.80944606905E+02  0.64653031969E+03  0.12500000000E+03 0.  0.
         -2    1    1    2    0  502  0.45427065034E+02  0.62750363079E+03 -0.14810303930E+04  0.16091225714E+04  0.00000000000E+00 0.  1.
<mgrwt>
<rscale>  3 0.64144324E+03</rscale>
<asrwt>0</asrwt>
<pdfrwt beam="1">  1       21 0.53359839E-01 0.64144324E+03</pdfrwt>
<pdfrwt beam="2">  1       -2 0.29366368E+00 0.64144324E+03</pdfrwt>
<totfact> 0.90978368E+00</totfact>
</mgrwt>
</event>
<event>
 4    0  0.1838234E-001  0.2428219E+03  0.7546771E-02  0.1117927E+00
         21   -1    0    0  501  502  0.00000000000E+00  0.00000000000E+00  0.40066406547E+03  0.40066406547E+03  0.00000000000E+00 0. -1.
         -1   -1    0    0    0  501 -0.00000000000E+00 -0.00000000000E+00 -0.11510761807E+04  0.11510761807E+04  0.00000000000E+00 0. -1.
         25    1    1    2    0    0 -0.14931334520E+03 -0.14506197715E+03  0.35322667515E+03  0.42863916795E+03  0.12500000000E+03 0.  0.
         -1    1    1    2    0  502  0.14931334520E+03  0.14506197715E+03 -0.11036387904E+04  0.11231010782E+04  0.00000000000E+00 0. -1.
<mgrwt>
<rscale>  3 0.24282185E+03</rscale>
<asrwt>0</asrwt>
<pdfrwt beam="1">  1       21 0.61640625E-01 0.24282185E+03</pdfrwt>
<pdfrwt beam="2">  1       -1 0.17708864E+00 0.24282185E+03</pdfrwt>
<totfact> 0.53803273E+01</totfact>
</mgrwt>
</event>
<event>
 4    0  0.1648254E-001  0.3012166E+03  0.7546771E-02  0.1084634E+00
          2   -1    0    0  502    0 -0.00000000000E+00  0.00000000000E+00  0.97311419549E+03  0.97311419549E+03  0.00000000000E+00 0. -1.
         21   -1    0    0  501  502  0.00000000000E+00 -0.00000000000E+00 -0.89292529503E+02  0.89292529503E+02  0.00000000000E+00 0. -1.
         25    1    1    2    0    0 -0.21394951402E+03 -0.17126595307E+03  0.34570771282E+03  0.45852507448E+03  0.12500000000E+03 0.  0.
          2    1    1    2  501    0  0.21394951402E+03  0.17126595307E+03  0.53811395317E+03  0.60388165051E+03  0.00000000000E+00 0. -1.
<mgrwt>
<rscale>  3 0.30121657E+03</rscale>
<asrwt>0</asrwt>
<pdfrwt beam="1">  1       21 0.13737313E-01 0.30121657E+03</pdfrwt>
<pdfrwt beam="2">  1        2 0.14970987E+00 0.30121657E+03</pdfrwt>
<totfact> 0.15589056E+04</totfact>
</mgrwt>
</event>
<event>
 4    0  0.1608394E-001  0.2666705E+03  0.7546771E-02  0.1103200E+00
          2   -1    0    0  502    0 -0.00000000000E+00  0.00000000000E+00  0.10947593818E+04  0.10947593818E+04  0.00000000000E+00 0.  1.
         21   -1    0    0  501  502  0.00000000000E+00 -0.00000000000E+00 -0.93252504855E+02  0.93252504855E+02  0.00000000000E+00 0.  1.
         25    1    1    2    0    0 -0.12251896624E+02  0.23524040718E+03  0.15306492419E+03  0.30747687581E+03  0.12500000000E+03 0.  0.
          2    1    1    2  501    0  0.12251896624E+02 -0.23524040718E+03  0.84844195275E+03  0.88053501085E+03  0.00000000000E+00 0.  1.
<mgrwt>
<rscale>  3 0.26667050E+03</rscale>
<asrwt>0</asrwt>
<pdfrwt beam="1">  1       21 0.14346540E-01 0.26667050E+03</pdfrwt>
<pdfrwt beam="2">  1        2 0.16842451E+00 0.26667050E+03</pdfrwt>
<totfact> 0.12234232E+04</totfact>
</mgrwt>
</event>
<event>
 4    0  0.1002184E-001  0.2388563E+03  0.7546771E-02  0.1120557E+00
          2   -1    0    0  502    0 -0.00000000000E+00  0.00000000000E+00  0.56816541421E+03  0.56816541421E+03  0.00000000000E+00 0.  1.
         21   -1    0    0  501  502  0.00000000000E+00 -0.00000000000E+00 -0.10611262562E+03  0.10611262562E+03  0.00000000000E+00 0. -1.
         25    1    1    2    0    0 -0.19362107331E+03  0.62755330500E+02  0.10001929278E+03  0.25895213933E+03  0.12500000000E+03 0.  0.
          2    1    1    2  501    0  0.19362107331E+03 -0.62755330500E+02  0.36203349581E+03  0.41532590050E+03  0.00000000000E+00 0.  1.
<mgrwt>
<rscale>  3 0.23885634E+03</rscale>
<asrwt>0</asrwt>
<pdfrwt beam="1">  1       21 0.16325020E-01 0.23885634E+03</pdfrwt>
<pdfrwt beam="2">  1        2 0.87410062E-01 0.23885634E+03</pdfrwt>
<totfact> 0.22530943E+04</totfact>
</mgrwt>
</event>
<event>
 4    0  0.1547103E-001  0.3150042E+03  0.7546771E-02  0.1077972E+00
         21   -1    0    0  501  502  0.00000000000E+00  0.00000000000E+00  0.37642828855E+03  0.37642828855E+03  0.00000000000E+00 0. -1.
          1   -1    0    0  502    0 -0.00000000000E+00 -0.00000000000E+00 -0.73670798150E+03  0.73670798150E+03  0.00000000000E+00 0. -1.
         25    1    1    2    0    0  0.28762405553E+03 -0.29581430887E+02  0.27308301898E+03  0.41689566276E+03  0.12500000000E+03 0.  0.
          1    1    1    2  501    0 -0.28762405553E+03  0.29581430887E+02 -0.63336271194E+03  0.69624060729E+03  0.00000000000E+00 0. -1.
<mgrwt>
<rscale>  3 0.31500422E+03</rscale>
<asrwt>0</asrwt>
<pdfrwt beam="1">  1       21 0.57912045E-01 0.31500422E+03</pdfrwt>
<pdfrwt beam="2">  1        1 0.11333969E+00 0.31500422E+03</pdfrwt>
<totfact> 0.77013990E+02</totfact>
</mgrwt>
</event>
<event>
 4    0  0.1403210E-001  0.2393181E+03  0.7546771E-02  0.1120248E+00
         21   -1    0    0  501  502  0.00000000000E+00  0.00000000000E+00  0.11046918487E+03  0.11046918487E+03  0.00000000000E+00 0. -1.
          2   -1    0    0  502    0 -0.00000000000E+00 -0.00000000000E+00 -0.75002063286E+03  0.75002063286E+03  0.00000000000E+00 0. -1.
         25    1    1    2    0    0  0.17447085385E+03 -0.10586809655E+03 -0.60956945752E+02  0.24695927184E+03  0.12500000000E+03 0.  0.
          2    1    1    2  501    0 -0.17447085385E+03  0.10586809655E+03 -0.57859450224E+03  0.61353054589E+03  0.00000000000E+00 0. -1.
<mgrwt>
<rscale>  3 0.23931806E+03</rscale>
<asrwt>0</asrwt>
<pdfrwt beam="1">  1       21 0.16995260E-01 0.23931806E+03</pdfrwt>
<pdfrwt beam="2">  1        2 0.11538779E+00 0.23931806E+03</pdfrwt>
<totfact> 0.15026395E+04</totfact>
</mgrwt>
</event>
<event>
 4    0  0.1459821E-001  0.2469319E+03  0.7546771E-02  0.1115259E+00
          2   -1    0    0  502    0 -0.00000000000E+00  0.00000000000E+00  0.13146885565E+04  0.13146885565E+04  0.00000000000E+00 0.  1.
         21   -1    0    0  501  502  0.00000000000E+00 -0.00000000000E+00 -0.69622260119E+03  0.69622260119E+03  0.00000000000E+00 0.  1.
         25    1    1    2    0    0  0.90144930007E+02  0.19293591272E+03 -0.66527641590E+03  0.70962531266E+03  0.12500000000E+03 0.  0.
          2    1    1    2  501    0 -0.90144930007E+02 -0.19293591272E+03  0.12837423713E+04  0.13012858451E+04  0.00000000000E+00 0.  1.
<mgrwt>
<rscale>  3 0.24693192E+03</rscale>
<asrwt>0</asrwt>
<pdfrwt beam="1">  1       21 0.10711117E+00 0.24693192E+03</pdfrwt>
<pdfrwt beam="2">  1        2 0.20225978E+00 0.24693192E+03</pdfrwt>
<totfact> 0.14711065E+02</totfact>
</mgrwt>
</event>
<event>
 4    0  0.1002184E-001  0.4001173E+03  0.7546771E-02  0.1043739E+00
          2   -1    0    0  502    0 -0.00000000000E+00  0.00000000000E+00  0.48650854540E+03  0.48650854540E+03  0.00000000000E+00 0.  1.
         21   -1    0    0  501  502  0.00000000000E+00 -0.00000000000E+00 -0.49186821463E+03  0.49186821463E+03  0.00000000000E+00 0. -1.
         25    1    1    2    0    0 -0.30988397845E+03 -0.22009266144E+03 -0.29782205142E+03  0.49879037083E+03  0.12500000000E+03 0.  0.
          2    1    1    2  501    0  0.30988397845E+03  0.22009266144E+03  0.29246238219E+03  0.47958638921E+03  0.00000000000E+00 0.  1.
<mgrwt>
<rscale>  3 0.40011731E+03</rscale>
<asrwt>0</asrwt>
<pdfrwt beam="1">  1       21 0.75672033E-01 0.40011731E+03</pdfrwt>
<pdfrwt beam="2">  1        2 0.74847469E-01 0.40011731E+03</pdfrwt>
<totfact> 0.11630287E+03</totfact>
</mgrwt>
</event>
<event>
 4    0  0.1530220E-001  0.3028996E+03  0.7546771E-02  0.1083800E+00
          2   -1    0    0  502    0 -0.00000000000E+00  0.00000000000E+00  0.18651928300E+04  0.18651928300E+04  0.00000000000E+00 0. -1.
         21   -1    0    0  501  502  0.00000000000E+00 -0.00000000000E+00 -0.49780483308E+02  0.49780483308E+02  0.00000000000E+00 0. -1.
         25    1    1    2    0    0  0.12756395365E+03 -0.24464389031E+03  0.64649050017E+03  0.71393148281E+03  0.12500000000E+03 0.  0.
          2    1    1    2  501    0 -0.12756395365E+03  0.24464389031E+03  0.11689218466E+04  0.12010418305E+04  0.00000000000E+00 0. -1.
<mgrwt>
<rscale>  3 0.30289965E+03</rscale>
<asrwt>0</asrwt>
<pdfrwt beam="1">  1       21 0.76585373E-02 0.30289965E+03</pdfrwt>
<pdfrwt beam="2">  1        2 0.28695269E+00 0.30289965E+03</pdfrwt>
<totfact> 0.14165948E+04</totfact>
</mgrwt>
</event>
<event>
 4    0  0.1002184E-001  0.2456497E+03  0.7546771E-02  0.1116085E+00
         -4   -1    0    0    0  501 -0.00000000000E+00  0.00000000000E+00  0.90143565538E+03  0.90143565538E+03  0.00000000000E+00 0.  1.
         21   -1    0    0  501  502  0.00000000000E+00 -0.00000000000E+00 -0.80848666228E+02  0.80848666228E+02  0.00000000000E+00 0. -1.
         25    1    1    2    0    0  0.19030155104E+03  0.92217577553E+02  0.17143293499E+03  0.29955469139E+03  0.12500000000E+03 0.  0.
         -4    1    1    2    0  502 -0.19030155104E+03 -0.92217577553E+02  0.64915405417E+03  0.68272963022E+03  0.00000000000E+00 0.  1.
<mgrwt>
<rscale>  3 0.24564967E+03</rscale>
<asrwt>0</asrwt>
<pdfrwt beam="1">  1       21 0.12438257E-01 0.24564967E+03</pdfrwt>
<pdfrwt beam="2">  1       -4 0.13868240E+00 0.24564967E+03</pdfrwt>
<totfact> 0.89770350E+02</totfact>
</mgrwt>
</event>
<event>
 4    0  0.1139935E-001  0.2397305E+03  0.7546771E-02  0.1119972E+00
         21   -1    0    0  501  502  0.00000000000E+00  0.00000000000E+00  0.16492442526E+03  0.16492442526E+03  0.00000000000E+00 0. -1.
          4   -1    0    0  502    0 -0.00000000000E+00 -0.00000000000E+00 -0.63725265750E+03  0.63725265750E+03  0.00000000000E+00 0.  1.
         25    1    1    2    0    0  0.20148519405E+03  0.35347342002E+02  0.46749018188E+02  0.24424616416E+03  0.12500000000E+03 0.  0.
          4    1    1    2  501    0 -0.20148519405E+03 -0.35347342002E+02 -0.51907725043E+03  0.55793091860E+03  0.00000000000E+00 0.  1.
<mgrwt>
<rscale>  3 0.23973051E+03</rscale>
<asrwt>0</asrwt>
<pdfrwt beam="1">  1       21 0.25372989E-01 0.23973051E+03</pdfrwt>
<pdfrwt beam="2">  1        4 0.98038870E-01 0.23973051E+03</pdfrwt>
<totfact> 0.55326316E+02</totfact>
</mgrwt>
</event>
<event>
 4    0  0.1139696E-001  0.4786407E+03  0.7546771E-02  0.1019509E+00
          2   -1    0    0  502    0 -0.00000000000E+00  0.00000000000E+00  0.21432099457E+04  0.21432099457E+04  0.00000000000E+00 0.  1.
         21   -1    0    0  501  502  0.00000000000E+00 -0.00000000000E+00 -0.11665703805E+03  0.11665703805E+03  0.00000000000E+00 0.  1.
         25    1    1    2    0    0 -0.12891145660E+03 -0.44368202316E+03  0.64563015129E+03  0.80370093541E+03  0.12500000000E+03 0.  0.
          2    1    1    2  501    0  0.12891145660E+03  0.44368202316E+03  0.13809227564E+04  0.14561660484E+04  0.00000000000E+00 0.  1.
<mgrwt>
<rscale>  3 0.47864068E+03</rscale>
<asrwt>0</asrwt>
<pdfrwt beam="1">  1       21 0.17947238E-01 0.47864068E+03</pdfrwt>
<pdfrwt beam="2">  1        2 0.32972458E+00 0.47864068E+03</pdfrwt>
<totfact> 0.20509749E+03</totfact>
</mgrwt>
</event>
<event>
 4    0  0.1779961E-001  0.2546485E+03  0.7546771E-02  0.1110402E+00
          1   -1    0    0  502    0 -0.00000000000E+00  0.00000000000E+00  0.13798308043E+04  0.13798308043E+04  0.00000000000E+00 0.  1.
         21   -1    0    0  501  502  0.00000000000E+00 -0.00000000000E+00 -0.14410340919E+03  0.14410340919E+03  0.00000000000E+00 0.  1.
         25    1    1    2    0    0  0.32500007879E+02  0.21946437804E+03  0.12736512499E+04  0.12988584874E+04  0.12500000000E+03 0.  0.
          1    1    1    2  501    0 -0.32500007879E+02 -0.21946437804E+03 -0.37923854804E+02  0.22507572615E+03  0.00000000000E+00 0.  1.
<mgrwt>
<rscale>  3 0.25464851E+03</rscale>
<asrwt>0</asrwt>
<pdfrwt beam="1">  1       21 0.22169756E-01 0.25464851E+03</pdfrwt>
<pdfrwt beam="2">  1        1 0.21228165E+00 0.25464851E+03</pdfrwt>
<totfact> 0.18026766E+03</totfact>
</mgrwt>
</event>
<event>
 4    0  0.1045505E-001  0.2594094E+03  0.7546771E-02  0.1107499E+00
         -2   -1    0    0    0  501 -0.00000000000E+00  0.00000000000E+00  0.45387879148E+03  0.45387879148E+03  0.00000000000E+00 0. -1.
         21   -1    0    0  501  502  0.00000000000E+00 -0.00000000000E+00 -0.36571851995E+03  0.36571851995E+03  0.00000000000E+00 0.  1.
         25    1    1    2    0    0 -0.67548212412E+01 -0.22720608697E+03 -0.28328920393E+03  0.38411717825E+03  0.12500000000E+03 0.  0.
         -2    1    1    2    0  502  0.67548212412E+01  0.22720608697E+03  0.37144947546E+03  0.43548013317E+03  0.00000000000E+00 0. -1.
<mgrwt>
<rscale>  3 0.25940939E+03</rscale>
<asrwt>0</asrwt>
<pdfrwt beam="1">  1       21 0.56264387E-01 0.25940939E+03</pdfrwt>
<pdfrwt beam="2">  1       -2 0.69827507E-01 0.25940939E+03</pdfrwt>
<totfact> 0.45326828E+02</totfact>
</mgrwt>
</event>
<event>
 4    0  0.1710052E-001  0.3171650E+03  0.7546771E-02  0.1076961E+00
         21   -1    0    0  501  502  0.00000000000E+00  0.00000000000E+00  0.12198841487E+03  0.12198841487E+03  0.00000000000E+00 0.  1.
          2   -1    0    0  502    0 -0.00000000000E+00 -0.00000000000E+00 -0.12366400316E+04  0.12366400316E+04  0.00000000000E+00 0.  1.
         25    1    1    2    0    0  0.26786083633E+03  0.11497493354E+03 -0.14990456933E+03  0.35080627544E+03  0.12500000000E+03 0.  0.
          2    1    1    2  501    0 -0.26786083633E+03 -0.11497493354E+03 -0.96474704740E+03  0.10078221710E+04  0.00000000000E+00 0.  1.
<mgrwt>
<rscale>  3 0.31716504E+03</rscale>
<asrwt>0</asrwt>
<pdfrwt beam="1">  1       21 0.18767450E-01 0.31716504E+03</pdfrwt>
<pdfrwt beam="2">  1        2 0.19025230E+00 0.31716504E+03</pdfrwt>
<totfact> 0.60838807E+03</totfact>
</mgrwt>
</event>
<event>
 4    0  0.1215251E-001  0.4407439E+03  0.7546771E-02  0.1030519E+00
         21   -1    0    0  501  502  0.00000000000E+00  0.00000000000E+00  0.85348576806E+02  0.85348576806E+02  0.00000000000E+00 0.  1.
          2   -1    0    0  502    0 -0.00000000000E+00 -0.00000000000E+00 -0.22993185349E+04  0.22993185349E+04  0.00000000000E+00 0.  1.
         25    1    1    2    0    0 -0.18268932861E+03  0.38112312112E+03 -0.86150494673E+03  0.96770139892E+03  0.12500000000E+03 0.  0.
          2    1    1    2  501    0  0.18268932861E+03 -0.38112312112E+03 -0.13524650114E+04  0.14169657128E+04  0.00000000000E+00 0.  1.
<mgrwt>
<rscale>  3 0.44074394E+03</rscale>
<asrwt>0</asrwt>
<pdfrwt beam="1">  1       21 0.13130550E-01 0.44074394E+03</pdfrwt>
<pdfrwt beam="2">  1        2 0.35374133E+00 0.44074394E+03</pdfrwt>
<totfact> 0.30461050E+03</totfact>
</mgrwt>
</event>
<event>
 4    0  0.1002184E-001  0.2500484E+03  0.7546771E-02  0.1113274E+00
          1   -1    0    0  502    0 -0.00000000000E+00  0.00000000000E+00  0.17606619673E+03  0.17606619673E+03  0.00000000000E+00 0.  1.
         21   -1    0    0  501  502  0.00000000000E+00 -0.00000000000E+00 -0.61923034565E+03  0.61923034565E+03  0.00000000000E+00 0. -1.
         25    1    1    2    0    0 -0.19347124040E+03  0.97304192908E+02 -0.51054865917E+03  0.56849288492E+03  0.12500000000E+03 0.  0.
          1    1    1    2  501    0  0.19347124040E+03 -0.97304192908E+02  0.67384510244E+02  0.22680365747E+03  0.00000000000E+00 0.  1.
<mgrwt>
<rscale>  3 0.25004845E+03</rscale>
<asrwt>0</asrwt>
<pdfrwt beam="1">  1       21 0.95266208E-01 0.25004845E+03</pdfrwt>
<pdfrwt beam="2">  1        1 0.27087107E-01 0.25004845E+03</pdfrwt>
<totfact> 0.16801521E+03</totfact>
</mgrwt>
</event>
<event>
 4    0  0.1506904E-001  0.2361638E+03  0.7546771E-02  0.1122375E+00
         -4   -1    0    0    0  501 -0.00000000000E+00  0.00000000000E+00  0.50420047418E+03  0.50420047418E+03  0.00000000000E+00 0. -1.
         21   -1    0    0  501  502  0.00000000000E+00 -0.00000000000E+00 -0.20017259779E+03  0.20017259779E+03  0.00000000000E+00 0. -1.
         25    1    1    2    0    0  0.13621268601E+03  0.14695053854E+03 -0.97600510556E+02  0.25553711329E+03  0.12500000000E+03 0.  0.
         -4    1    1    2    0  502 -0.13621268601E+03 -0.14695053854E+03  0.40162838695E+03  0.44883595868E+03  0.00000000000E+00 0. -1.
<mgrwt>
<rscale>  3 0.23616383E+03</rscale>
<asrwt>0</asrwt>
<pdfrwt beam="1">  1       21 0.30795784E-01 0.23616383E+03</pdfrwt>
<pdfrwt beam="2">  1       -4 0.77569303E-01 0.23616383E+03</pdfrwt>
<totfact> 0.64710472E+02</totfact>
</mgrwt>
</event>
<event>
 4    0  0.1078025E-001  0.2591265E+03  0.7546771E-02  0.1107669E+00
         21   -1    0    0  501  502  0.00000000000E+00  0.00000000000E+00  0.77292659989E+03  0.77292659989E+03  0.00000000000E+00 0. -1.
          2   -1    0    0  502    0 -0.00000000000E+00 -0.00000000000E+00 -0.86337989857E+02  0.86337989857E+02  0.00000000000E+00 0. -1.
         25    1    1    2    0    0  0.22402915328E+03  0.36502955768E+02  0.50864036755E+03  0.57084284247E+03  0.12500000000E+03 0.  0.
          2    1    1    2  501    0 -0.22402915328E+03 -0.36502955768E+02  0.17794824248E+03  0.28842174728E+03  0.00000000000E+00 0. -1.
<mgrwt>
<rscale>  3 0.25912647E+03</rscale>
<asrwt>0</asrwt>
<pdfrwt beam="1">  1       21 0.11891178E+00 0.25912647E+03</pdfrwt>
<pdfrwt beam="2">  1        2 0.13282768E-01 0.25912647E+03</pdfrwt>
<totfact> 0.28947939E+03</totfact>
</mgrwt>
</event>
<event>
 4    0  0.1495130E-001  0.3186072E+03  0.7546771E-02  0.1076292E+00
          1   -1    0    0  502    0 -0.00000000000E+00  0.00000000000E+00  0.16294963233E+04  0.16294963233E+04  0.00000000000E+00 0.  1.
         21   -1    0    0  501  502  0.00000000000E+00 -0.00000000000E+00 -0.60292086009E+02  0.60292086009E+02  0.00000000000E+00 0.  1.
         25    1    1    2    0    0 -0.19892454733E+03  0.21520813690E+03  0.63094160702E+03  0.70682234627E+03  0.12500000000E+03 0.  0.
          1    1    1    2  501    0  0.19892454733E+03 -0.21520813690E+03  0.93826263023E+03  0.98296606300E+03  0.00000000000E+00 0.  1.
<mgrwt>
<rscale>  3 0.31860715E+03</rscale>
<asrwt>0</asrwt>
<pdfrwt beam="1">  1       21 0.92757068E-02 0.31860715E+03</pdfrwt>
<pdfrwt beam="2">  1        1 0.25069171E+00 0.31860715E+03</pdfrwt>
<totfact> 0.59452173E+03</totfact>
</mgrwt>
</event>
<event>
 4    0  0.1433914E-001  0.3021132E+03  0.7546771E-02  0.1084189E+00
         -2   -1    0    0    0  501 -0.00000000000E+00  0.00000000000E+00  0.15180393066E+03  0.15180393066E+03  0.00000000000E+00 0.  1.
         21   -1    0    0  501  502  0.00000000000E+00 -0.00000000000E+00 -0.55601690594E+03  0.55601690594E+03  0.00000000000E+00 0.  1.
         25    1    1    2    0    0  0.22175408733E+03  0.16270380320E+03 -0.17057529256E+03  0.34694139744E+03  0.12500000000E+03 0.  0.
         -2    1    1    2    0  502 -0.22175408733E+03 -0.16270380320E+03 -0.23363768272E+03  0.36087943916E+03  0.00000000000E+00 0.  1.
<mgrwt>
<rscale>  3 0.30211323E+03</rscale>
<asrwt>0</asrwt>
<pdfrwt beam="1">  1       21 0.85541063E-01 0.30211323E+03</pdfrwt>
<pdfrwt beam="2">  1       -2 0.23354451E-01 0.30211323E+03</pdfrwt>
<totfact> 0.14631721E+03</totfact>
</mgrwt>
</event>
<event>
 4    0  0.1431100E-001  0.3373636E+03  0.7546771E-02  0.1067924E+00
         21   -1    0    0  501  502  0.00000000000E+00  0.00000000000E+00  0.18789123177E+03  0.18789123177E+03  0.00000000000E+00 0. -1.
          1   -1    0    0  502    0 -0.00000000000E+00 -0.00000000000E+00 -0.90631424174E+03  0.90631424174E+03  0.00000000000E+00 0. -1.
         25    1    1    2    0    0 -0.31059665348E+03 -0.41460147977E+02 -0.70383869419E+03  0.78051465871E+03  0.12500000000E+03 0.  0.
          1    1    1    2  501    0  0.31059665348E+03  0.41460147977E+02 -0.14584315771E+02  0.31369081479E+03  0.00000000000E+00 0. -1.
<mgrwt>
<rscale>  3 0.33736364E+03</rscale>
<asrwt>0</asrwt>
<pdfrwt beam="1">  1       21 0.28906344E-01 0.33736364E+03</pdfrwt>
<pdfrwt beam="2">  1        1 0.13943296E+00 0.33736364E+03</pdfrwt>
<totfact> 0.23034972E+03</totfact>
</mgrwt>
</event>
<event>
 4    0  0.1513885E-001  0.2693873E+03  0.7546771E-02  0.1101631E+00
          2   -1    0    0  502    0 -0.00000000000E+00  0.00000000000E+00  0.17863800468E+04  0.17863800468E+04  0.00000000000E+00 0.  1.
         21   -1    0    0  501  502  0.00000000000E+00 -0.00000000000E+00 -0.59499684031E+02  0.59499684031E+02  0.00000000000E+00 0.  1.
         25    1    1    2    0    0 -0.22320734079E+03  0.84397735541E+02  0.31724942356E+03  0.41619309400E+03  0.12500000000E+03 0.  0.
          2    1    1    2  501    0  0.22320734079E+03 -0.84397735541E+02  0.14096309392E+04  0.14296866368E+04  0.00000000000E+00 0.  1.
<mgrwt>
<rscale>  3 0.26938726E+03</rscale>
<asrwt>0</asrwt>
<pdfrwt beam="1">  1       21 0.91537989E-02 0.26938726E+03</pdfrwt>
<pdfrwt beam="2">  1        2 0.27482766E+00 0.26938726E+03</pdfrwt>
<totfact> 0.11488312E+04</totfact>
</mgrwt>
</event>
<event>
 4    0  0.1107527E-001  0.3880650E+03  0.7546771E-02  0.1047993E+00
          2   -1    0    0  502    0 -0.00000000000E+00  0.00000000000E+00  0.18647037179E+04  0.18647037179E+04  0.00000000000E+00 0.  1.
         21   -1    0    0  501  502  0.00000000000E+00 -0.00000000000E+00 -0.15136880569E+03  0.15136880569E+03  0.00000000000E+00 0.  1.
         25    1    1    2    0    0  0.78489074997E+02  0.35889960806E+03  0.15772631383E+04  0.16243009177E+04  0.12500000000E+03 0.  0.
          2    1    1    2  501    0 -0.78489074997E+02 -0.35889960806E+03  0.13607177386E+03  0.39177160591E+03  0.00000000000E+00 0.  1.
<mgrwt>
<rscale>  3 0.38806502E+03</rscale>
<asrwt>0</asrwt>
<pdfrwt beam="1">  1       21 0.23287510E-01 0.38806502E+03</pdfrwt>
<pdfrwt beam="2">  1        2 0.28687748E+00 0.38806502E+03</pdfrwt>
<totfact> 0.18051605E+03</totfact>
</mgrwt>
</event>
<event>
 4    0  0.1559493E-001  0.2360299E+03  0.7546771E-02  0.1122466E+00
          2   -1    0    0  502    0 -0.00000000000E+00  0.00000000000E+00  0.18274217568E+04  0.18274217568E+04  0.00000000000E+00 0.  1.
         21   -1    0    0  501  502  0.00000000000E+00 -0.00000000000E+00 -0.31444517447E+02  0.31444517447E+02  0.00000000000E+00 0.  1.
         25    1    1    2    0    0 -0.13095772661E+03  0.15144364605E+03  0.57460924115E+03  0.62119713787E+03  0.12500000000E+03 0.  0.
          2    1    1    2  501    0  0.13095772661E+03 -0.15144364605E+03  0.12213679982E+04  0.12376691364E+04  0.00000000000E+00 0.  1.
<mgrwt>
<rscale>  3 0.23602988E+03</rscale>
<asrwt>0</asrwt>
<pdfrwt beam="1">  1       21 0.48376195E-02 0.23602988E+03</pdfrwt>
<pdfrwt beam="2">  1        2 0.28114173E+00 0.23602988E+03</pdfrwt>
<totfact> 0.33309975E+04</totfact>
</mgrwt>
</event>
<event>
 4    0  0.1134502E-001  0.2614242E+03  0.7546771E-02  0.1106291E+00
         21   -1    0    0  501  502  0.00000000000E+00  0.00000000000E+00  0.62615909128E+02  0.62615909128E+02  0.00000000000E+00 0.  1.
          2   -1    0    0  502    0 -0.00000000000E+00 -0.00000000000E+00 -0.16226773962E+04  0.16226773962E+04  0.00000000000E+00 0. -1.
         25    1    1    2    0    0 -0.62905113479E+02 -0.22081798631E+03 -0.27327201099E+03  0.37818015333E+03  0.12500000000E+03 0.  0.
          2    1    1    2  501    0  0.62905113479E+02  0.22081798631E+03 -0.12867894761E+04  0.13071131520E+04  0.00000000000E+00 0. -1.
<mgrwt>
<rscale>  3 0.26142425E+03</rscale>
<asrwt>0</asrwt>
<pdfrwt beam="1">  1       21 0.96332158E-02 0.26142425E+03</pdfrwt>
<pdfrwt beam="2">  1        2 0.24964270E+00 0.26142425E+03</pdfrwt>
<totfact> 0.12830139E+04</totfact>
</mgrwt>
</event>
<event>
 4    0  0.1002184E-001  0.2379310E+03  0.7546771E-02  0.1121179E+00
         -3   -1    0    0    0  501 -0.00000000000E+00  0.00000000000E+00  0.99913490258E+03  0.99913490258E+03  0.00000000000E+00 0.  1.
         21   -1    0    0  501  502  0.00000000000E+00 -0.00000000000E+00 -0.69547098138E+02  0.69547098138E+02  0.00000000000E+00 0. -1.
         25    1    1    2    0    0 -0.19621867765E+03 -0.49843543707E+02  0.78402667418E+03  0.81933447025E+03  0.12500000000E+03 0.  0.
         -3    1    1    2    0  502  0.19621867765E+03  0.49843543707E+02  0.14556113026E+03  0.24934753047E+03  0.00000000000E+00 0.  1.
<mgrwt>
<rscale>  3 0.23793097E+03</rscale>
<asrwt>0</asrwt>
<pdfrwt beam="1">  1       21 0.10699554E-01 0.23793097E+03</pdfrwt>
<pdfrwt beam="2">  1       -3 0.15371305E+00 0.23793097E+03</pdfrwt>
<totfact> 0.11432474E+03</totfact>
</mgrwt>
</event>
<event>
 4    0  0.1302014E-001  0.2662802E+03  0.7546771E-02  0.1103428E+00
         21   -1    0    0  501  502  0.00000000000E+00  0.00000000000E+00  0.45141801245E+03  0.45141801245E+03  0.00000000000E+00 0. -1.
          1   -1    0    0  502    0 -0.00000000000E+00 -0.00000000000E+00 -0.14127815762E+03  0.14127815762E+03  0.00000000000E+00 0. -1.
         25    1    1    2    0    0  0.59164636681E+02 -0.22755150560E+03  0.12893358745E+03  0.29585302417E+03  0.12500000000E+03 0.  0.
          1    1    1    2  501    0 -0.59164636681E+02  0.22755150560E+03  0.18120626738E+03  0.29684314591E+03  0.00000000000E+00 0. -1.
<mgrwt>
<rscale>  3 0.26628019E+03</rscale>
<asrwt>0</asrwt>
<pdfrwt beam="1">  1       21 0.69448924E-01 0.26628019E+03</pdfrwt>
<pdfrwt beam="2">  1        1 0.21735101E-01 0.26628019E+03</pdfrwt>
<totfact> 0.45674874E+03</totfact>
</mgrwt>
</event>
<event>
 4    0  0.1616304E-001  0.2887731E+03  0.7546771E-02  0.1090991E+00
          2   -1    0    0  502    0 -0.00000000000E+00  0.00000000000E+00  0.76512910816E+03  0.76512910816E+03  0.00000000000E+00 0.  1.
         21   -1    0    0  501  502  0.00000000000E+00 -0.00000000000E+00 -0.10729586133E+03  0.10729586133E+03  0.00000000000E+00 0.  1.
         25    1    1    2    0    0  0.20543086312E+03  0.15988445650E+03  0.21991613722E+03  0.36297794198E+03  0.12500000000E+03 0.  0.
          2    1    1    2  501    0 -0.20543086312E+03 -0.15988445650E+03  0.43791710960E+03  0.50944702751E+03  0.00000000000E+00 0.  1.
<mgrwt>
<rscale>  3 0.28877306E+03</rscale>
<asrwt>0</asrwt>
<pdfrwt beam="1">  1       21 0.16507056E-01 0.28877306E+03</pdfrwt>
<pdfrwt beam="2">  1        2 0.11771217E+00 0.28877306E+03</pdfrwt>
<totfact> 0.15329357E+04</totfact>
</mgrwt>
</event>
<event>
 4    0  0.1238488E-001  0.3090206E+03  0.7546771E-02  0.1080816E+00
          2   -1    0    0  502    0 -0.00000000000E+00  0.00000000000E+00  0.25643916226E+04  0.25643916226E+04  0.00000000000E+00 0. -1.
         21   -1    0    0  501  502  0.00000000000E+00 -0.00000000000E+00 -0.20057420350E+03  0.20057420350E+03  0.00000000000E+00 0. -1.
         25    1    1    2    0    0 -0.25683215459E+03 -0.11792354523E+03 -0.68304489286E+02  0.31647941703E+03  0.12500000000E+03 0.  0.
          2    1    1    2  501    0  0.25683215459E+03  0.11792354523E+03  0.24321219084E+04  0.24484864090E+04  0.00000000000E+00 0. -1.
<mgrwt>
<rscale>  3 0.30902058E+03</rscale>
<asrwt>0</asrwt>
<pdfrwt beam="1">  1       21 0.30857572E-01 0.30902058E+03</pdfrwt>
<pdfrwt beam="2">  1        2 0.39452176E+00 0.30902058E+03</pdfrwt>
<totfact> 0.45126904E+02</totfact>
</mgrwt>
</event>
<event>
 4    0  0.1002184E-001  0.3202941E+03  0.7546771E-02  0.1075514E+00
         21   -1    0    0  501  502  0.00000000000E+00  0.00000000000E+00  0.47715285905E+03  0.47715285905E+03  0.00000000000E+00 0.  1.
         -3   -1    0    0    0  501 -0.00000000000E+00 -0.00000000000E+00 -0.20083544612E+03  0.20083544612E+03  0.00000000000E+00 0. -1.
         25    1    1    2    0    0  0.27618863932E+03  0.10335920327E+03  0.18192424955E+03  0.36835407147E+03  0.12500000000E+03 0.  0.
         -3    1    1    2    0  502 -0.27618863932E+03 -0.10335920327E+03  0.94393163379E+02  0.30963423371E+03  0.00000000000E+00 0. -1.
<mgrwt>
<rscale>  3 0.32029407E+03</rscale>
<asrwt>0</asrwt>
<pdfrwt beam="1">  1       21 0.73408132E-01 0.32029407E+03</pdfrwt>
<pdfrwt beam="2">  1       -3 0.30897761E-01 0.32029407E+03</pdfrwt>
<totfact> 0.82067702E+02</totfact>
</mgrwt>
</event>
<event>
 4    0  0.1002184E-001  0.2474450E+03  0.7546771E-02  0.1114930E+00
          2   -1    0    0  502    0 -0.00000000000E+00  0.00000000000E+00  0.32695156104E+03  0.32695156104E+03  0.00000000000E+00 0. -1.
         21   -1    0    0  501  502  0.00000000000E+00 -0.00000000000E+00 -0.18942197019E+03  0.18942197019E+03  0.00000000000E+00 0.  1.
         25    1    1    2    0    0 -0.13614776633E+03  0.16452296332E+03 -0.24009445390E+02  0.24860706588E+03  0.12500000000E+03 0.  0.
          2    1    1    2  501    0  0.13614776633E+03 -0.16452296332E+03  0.16153903624E+03  0.26776646535E+03  0.00000000000E+00 0. -1.
<mgrwt>
<rscale>  3 0.24744498E+03</rscale>
<asrwt>0</asrwt>
<pdfrwt beam="1">  1       21 0.29141842E-01 0.24744498E+03</pdfrwt>
<pdfrwt beam="2">  1        2 0.50300240E-01 0.24744498E+03</pdfrwt>
<totfact> 0.13810640E+04</totfact>
</mgrwt>
</event>
<event>
 4    0  0.1515504E-001  0.3324908E+03  0.7546771E-02  0.1070040E+00
          2   -1    0    0  502    0 -0.00000000000E+00  0.00000000000E+00  0.11927590357E+04  0.11927590357E+04  0.00000000000E+00 0.  1.
         21   -1    0    0  501  502  0.00000000000E+00 -0.00000000000E+00 -0.10772151636E+03  0.10772151636E+03  0.00000000000E+00 0.  1.
         25    1    1    2    0    0  0.11029285428E+03  0.28768141883E+03  0.26725707999E+03  0.42658698908E+03  0.12500000000E+03 0.  0.
          2    1    1    2  501    0 -0.11029285428E+03 -0.28768141883E+03  0.81778043939E+03  0.87389356302E+03  0.00000000000E+00 0.  1.
<mgrwt>
<rscale>  3 0.33249077E+03</rscale>
<asrwt>0</asrwt>
<pdfrwt beam="1">  1       21 0.16572542E-01 0.33249077E+03</pdfrwt>
<pdfrwt beam="2">  1        2 0.18350138E+00 0.33249077E+03</pdfrwt>
<totfact> 0.81018360E+03</totfact>
</mgrwt>
</event>
<event>
 4    0  0.1002184E-001  0.2381139E+03  0.7546771E-02  0.1121056E+00
         21   -1    0    0  501  502  0.00000000000E+00  0.00000000000E+00  0.30918225337E+02  0.30918225337E+02  0.00000000000E+00 0.  1.
          2   -1    0    0  502    0 -0.00000000000E+00 -0.00000000000E+00 -0.16982341481E+04  0.16982341481E+04  0.00000000000E+00 0. -1.
         25    1    1    2    0    0  0.17089717915E+03  0.10893754810E+03 -0.65970924249E+03  0.70136618101E+03  0.12500000000E+03 0.  0.
          2    1    1    2  501    0 -0.17089717915E+03 -0.10893754810E+03 -0.10076066803E+04  0.10277861924E+04  0.00000000000E+00 0. -1.
<mgrwt>
<rscale>  3 0.23811391E+03</rscale>
<asrwt>0</asrwt>
<pdfrwt beam="1">  1       21 0.47566489E-02 0.23811391E+03</pdfrwt>
<pdfrwt beam="2">  1        2 0.26126685E+00 0.23811391E+03</pdfrwt>
<totfact> 0.40036587E+04</totfact>
</mgrwt>
</event>
<event>
 4    0  0.1896300E-001  0.2939958E+03  0.7546771E-02  0.1088281E+00
          2   -1    0    0  502    0 -0.00000000000E+00  0.00000000000E+00  0.11196204045E+04  0.11196204045E+04  0.00000000000E+00 0. -1.
         21   -1    0    0  501  502  0.00000000000E+00 -0.00000000000E+00 -0.15743734982E+03  0.15743734982E+03  0.00000000000E+00 0. -1.
         25    1    1    2    0    0  0.26609757081E+03 -0.78430290461E+00  0.16288790589E+02  0.29444669640E+03  0.12500000000E+03 0.  0.
          2    1    1    2  501    0 -0.26609757081E+03  0.78430290461E+00  0.94589426407E+03  0.98261105791E+03  0.00000000000E+00 0. -1.
<mgrwt>
<rscale>  3 0.29399580E+03</rscale>
<asrwt>0</asrwt>
<pdfrwt beam="1">  1       21 0.24221131E-01 0.29399580E+03</pdfrwt>
<pdfrwt beam="2">  1        2 0.17224929E+00 0.29399580E+03</pdfrwt>
<totfact> 0.44048929E+03</totfact>
</mgrwt>
</event>
<event>
 4    0  0.1434183E-001  0.3244641E+03  0.7546771E-02  0.1073613E+00
         21   -1    0    0  501  502  0.00000000000E+00  0.00000000000E+00  0.76429315721E+03  0.76429315721E+03  0.00000000000E+00 0. -1.
         -2   -1    0    0    0  501 -0.00000000000E+00 -0.00000000000E+00 -0.20202456130E+03  0.20202456130E+03  0.00000000000E+00 0. -1.
         25    1    1    2    0    0  0.23720243026E+02 -0.29847835549E+03  0.58190937119E+03  0.66625482730E+03  0.12500000000E+03 0.  0.
         -2    1    1    2    0  502 -0.23720243026E+02  0.29847835549E+03 -0.19640775280E+02  0.30006289121E+03  0.00000000000E+00 0. -1.
<mgrwt>
<rscale>  3 0.32446414E+03</rscale>
<asrwt>0</asrwt>
<pdfrwt beam="1">  1       21 0.11758356E+00 0.32446414E+03</pdfrwt>
<pdfrwt beam="2">  1       -2 0.31080702E-01 0.32446414E+03</pdfrwt>
<totfact> 0.40455964E+02</totfact>
</mgrwt>
</event>
<event>
 4    0  0.1398182E-001  0.3059354E+03  0.7546771E-02  0.1082311E+00
          1   -1    0    0  502    0 -0.00000000000E+00  0.00000000000E+00  0.49173911556E+03  0.49173911556E+03  0.00000000000E+00 0.  1.
         21   -1    0    0  501  502  0.00000000000E+00 -0.00000000000E+00 -0.38337995463E+03  0.38337995463E+03  0.00000000000E+00 0. -1.
         25    1    1    2    0    0  0.14124406791E+03 -0.24087664329E+03 -0.26784001412E+03  0.40661371984E+03  0.12500000000E+03 0.  0.
          1    1    1    2  501    0 -0.14124406791E+03  0.24087664329E+03  0.37619917504E+03  0.46850535035E+03  0.00000000000E+00 0.  1.
<mgrwt>
<rscale>  3 0.30593536E+03</rscale>
<asrwt>0</asrwt>
<pdfrwt beam="1">  1       21 0.58981531E-01 0.30593536E+03</pdfrwt>
<pdfrwt beam="2">  1        1 0.75652172E-01 0.30593536E+03</pdfrwt>
<totfact> 0.13115824E+03</totfact>
</mgrwt>
</event>
<event>
 4    0  0.1386253E-001  0.2589173E+03  0.7546771E-02  0.1107795E+00
          2   -1    0    0  502    0 -0.00000000000E+00  0.00000000000E+00  0.22487236254E+03  0.22487236254E+03  0.00000000000E+00 0. -1.
         21   -1    0    0  501  502  0.00000000000E+00 -0.00000000000E+00 -0.35829223418E+03  0.35829223418E+03  0.00000000000E+00 0. -1.
         25    1    1    2    0    0  0.13981637762E+02  0.22631321682E+03  0.80797774062E+02  0.27123133778E+03  0.12500000000E+03 0.  0.
          2    1    1    2  501    0 -0.13981637762E+02 -0.22631321682E+03 -0.21421764570E+03  0.31193325893E+03  0.00000000000E+00 0. -1.
<mgrwt>
<rscale>  3 0.25891728E+03</rscale>
<asrwt>0</asrwt>
<pdfrwt beam="1">  1       21 0.55121881E-01 0.25891728E+03</pdfrwt>
<pdfrwt beam="2">  1        2 0.34595749E-01 0.25891728E+03</pdfrwt>
<totfact> 0.56428419E+03</totfact>
</mgrwt>
</event>
<event>
 4    0  0.1166801E-001  0.2723142E+03  0.7546771E-02  0.1099962E+00
         21   -1    0    0  501  502  0.00000000000E+00  0.00000000000E+00  0.34562583166E+03  0.34562583166E+03  0.00000000000E+00 0. -1.
          2   -1    0    0  502    0 -0.00000000000E+00 -0.00000000000E+00 -0.25271536504E+04  0.25271536504E+04  0.00000000000E+00 0. -1.
         25    1    1    2    0    0 -0.93026205669E+02 -0.22332964881E+03  0.28513530522E+03  0.39428054639E+03  0.12500000000E+03 0.  0.
          2    1    1    2  501    0  0.93026205669E+02  0.22332964881E+03 -0.24666631239E+04  0.24784989356E+04  0.00000000000E+00 0. -1.
<mgrwt>
<rscale>  3 0.27231417E+03</rscale>
<asrwt>0</asrwt>
<pdfrwt beam="1">  1       21 0.53173204E-01 0.27231417E+03</pdfrwt>
<pdfrwt beam="2">  1        2 0.38879287E+00 0.27231417E+03</pdfrwt>
<totfact> 0.15893290E+02</totfact>
</mgrwt>
</event>
<event>
 4    0  0.1507871E-001  0.2613876E+03  0.7546771E-02  0.1106312E+00
         21   -1    0    0  501  502  0.00000000000E+00  0.00000000000E+00  0.15028570265E+03  0.15028570265E+03  0.00000000000E+00 0. -1.
          1   -1    0    0  502    0 -0.00000000000E+00 -0.00000000000E+00 -0.61664235500E+03  0.61664235500E+03  0.00000000000E+00 0. -1.
         25    1    1    2    0    0 -0.19565010129E+03 -0.12008137058E+03 -0.16528881652E+02  0.26190972037E+03  0.12500000000E+03 0.  0.
          1    1    1    2  501    0  0.19565010129E+03  0.12008137058E+03 -0.44982777070E+03  0.50501833728E+03  0.00000000000E+00 0. -1.
<mgrwt>
<rscale>  3 0.26138764E+03</rscale>
<asrwt>0</asrwt>
<pdfrwt beam="1">  1       21 0.23120877E-01 0.26138764E+03</pdfrwt>
<pdfrwt beam="2">  1        1 0.94868055E-01 0.26138764E+03</pdfrwt>
<totfact> 0.64829389E+03</totfact>
</mgrwt>
</event>
<event>
 4    0  0.1285870E-001  0.3112388E+03  0.7546771E-02  0.1079754E+00
         21   -1    0    0  501  502  0.00000000000E+00  0.00000000000E+00  0.53763384797E+03  0.53763384797E+03  0.00000000000E+00 0. -1.
          2   -1    0    0  502    0 -0.00000000000E+00 -0.00000000000E+00 -0.17857138772E+03  0.17857138772E+03  0.00000000000E+00 0. -1.
         25    1    1    2    0    0  0.27149316068E+03  0.86810583695E+02  0.89398174313E+02  0.32382348171E+03  0.12500000000E+03 0.  0.
          2    1    1    2  501    0 -0.27149316068E+03 -0.86810583695E+02  0.26966428594E+03  0.39238175397E+03  0.00000000000E+00 0. -1.
<mgrwt>
<rscale>  3 0.31123884E+03</rscale>
<asrwt>0</asrwt>
<pdfrwt beam="1">  1       21 0.82712899E-01 0.31123884E+03</pdfrwt>
<pdfrwt beam="2">  1        2 0.27472521E-01 0.31123884E+03</pdfrwt>
<totfact> 0.29267422E+03</totfact>
</mgrwt>
</event>
<event>
 4    0  0.1546195E-001  0.2909610E+03  0.7546771E-02  0.1089848E+00
         21   -1    0    0  501  502  0.00000000000E+00  0.00000000000E+00  0.51834011185E+02  0.51834011185E+02  0.00000000000E+00 0.  1.
          2   -1    0    0  502    0 -0.00000000000E+00 -0.00000000000E+00 -0.16719656632E+04  0.16719656632E+04  0.00000000000E+00 0.  1.
         25    1    1    2    0    0  0.63901138120E+02 -0.25485276643E+03 -0.55387558223E+03  0.62564882211E+03  0.12500000000E+03 0.  0.
          2    1    1    2  501    0 -0.63901138120E+02  0.25485276643E+03 -0.10662560698E+04  0.10981508523E+04  0.00000000000E+00 0.  1.
<mgrwt>
<rscale>  3 0.29096097E+03</rscale>
<asrwt>0</asrwt>
<pdfrwt beam="1">  1       21 0.79744632E-02 0.29096097E+03</pdfrwt>
<pdfrwt beam="2">  1        2 0.25722549E+00 0.29096097E+03</pdfrwt>
<totfact> 0.16739488E+04</totfact>
</mgrwt>
</event>
<event>
 4    0  0.1538781E-001  0.2545174E+03  0.7546771E-02  0.1110483E+00
          1   -1    0    0  502    0 -0.00000000000E+00  0.00000000000E+00  0.12429767635E+04  0.12429767635E+04  0.00000000000E+00 0. -1.
         21   -1    0    0  501  502  0.00000000000E+00 -0.00000000000E+00 -0.33952684766E+03  0.33952684766E+03  0.00000000000E+00 0. -1.
         25    1    1    2    0    0  0.29674441001E+02 -0.21971244522E+03 -0.28004370004E+03  0.37842252175E+03  0.12500000000E+03 0.  0.
          1    1    1    2  501    0 -0.29674441001E+02  0.21971244522E+03  0.11834936159E+04  0.12040810895E+04  0.00000000000E+00 0. -1.
<mgrwt>
<rscale>  3 0.25451745E+03</rscale>
<asrwt>0</asrwt>
<pdfrwt beam="1">  1       21 0.52234900E-01 0.25451745E+03</pdfrwt>
<pdfrwt beam="2">  1        1 0.19122719E+00 0.25451745E+03</pdfrwt>
<totfact> 0.40390062E+02</totfact>
</mgrwt>
</event>
<event>
 4    0  0.1002184E-001  0.3577377E+03  0.7546771E-02  0.1059483E+00
          2   -1    0    0  502    0 -0.00000000000E+00  0.00000000000E+00  0.36048386160E+03  0.36048386160E+03  0.00000000000E+00 0.  1.
         21   -1    0    0  501  502  0.00000000000E+00 -0.00000000000E+00 -0.37204438685E+03  0.37204438685E+03  0.00000000000E+00 0. -1.
         25    1    1    2    0    0 -0.77627470405E+02  0.32607551360E+03 -0.12456358236E+03  0.37880384209E+03  0.12500000000E+03 0.  0.
          2    1    1    2  501    0  0.77627470405E+02 -0.32607551360E+03  0.11300305711E+03  0.35372440635E+03  0.00000000000E+00 0.  1.
<mgrwt>
<rscale>  3 0.35773770E+03</rscale>
<asrwt>0</asrwt>
<pdfrwt beam="1">  1       21 0.57237598E-01 0.35773770E+03</pdfrwt>
<pdfrwt beam="2">  1        2 0.55459055E-01 0.35773770E+03</pdfrwt>
<totfact> 0.30458612E+03</totfact>
</mgrwt>
</event>
<event>
 4    0  0.1623011E-001  0.2807465E+03  0.7546771E-02  0.1095282E+00
          2   -1    0    0  502    0 -0.00000000000E+00  0.00000000000E+00  0.11205406413E+04  0.11205406413E+04  0.00000000000E+00 0. -1.
         21   -1    0    0  501  502  0.00000000000E+00 -0.00000000000E+00 -0.70337154482E+02  0.70337154482E+02  0.00000000000E+00 0. -1.
         25    1    1    2    0    0  0.60025845246E+02  0.24411167761E+03  0.36138589795E+03  0.45762253056E+03  0.12500000000E+03 0.  0.
          2    1    1    2  501    0 -0.60025845246E+02 -0.24411167761E+03  0.68881758892E+03  0.73325526527E+03  0.00000000000E+00 0. -1.
<mgrwt>
<rscale>  3 0.28074653E+03</rscale>
<asrwt>0</asrwt>
<pdfrwt beam="1">  1       21 0.10821102E-01 0.28074653E+03</pdfrwt>
<pdfrwt beam="2">  1        2 0.17239085E+00 0.28074653E+03</pdfrwt>
<totfact> 0.19620913E+04</totfact>
</mgrwt>
</event>
<event>
 4    0  0.1002184E-001  0.2755766E+03  0.7546771E-02  0.1098130E+00
          1   -1    0    0  502    0 -0.00000000000E+00  0.00000000000E+00  0.47912566893E+03  0.47912566893E+03  0.00000000000E+00 0.  1.
         21   -1    0    0  501  502  0.00000000000E+00 -0.00000000000E+00 -0.14196392931E+03  0.14196392931E+03  0.00000000000E+00 0. -1.
         25    1    1    2    0    0 -0.14646659071E+03 -0.19714205811E+03  0.19091663707E+03  0.33524858774E+03  0.12500000000E+03 0.  0.
          1    1    1    2  501    0  0.14646659071E+03  0.19714205811E+03  0.14624510254E+03  0.28584101051E+03  0.00000000000E+00 0.  1.
<mgrwt>
<rscale>  3 0.27557658E+03</rscale>
<asrwt>0</asrwt>
<pdfrwt beam="1">  1       21 0.21840605E-01 0.27557658E+03</pdfrwt>
<pdfrwt beam="2">  1        1 0.73711640E-01 0.27557658E+03</pdfrwt>
<totfact> 0.10156158E+04</totfact>
</mgrwt>
</event>
<event>
 4    0  0.1373040E-001  0.2491798E+03  0.7546771E-02  0.1113824E+00
         21   -1    0    0  501  502  0.00000000000E+00  0.00000000000E+00  0.74683227183E+03  0.74683227183E+03  0.00000000000E+00 0. -1.
         -3   -1    0    0    0  501 -0.00000000000E+00 -0.00000000000E+00 -0.11510629676E+03  0.11510629676E+03  0.00000000000E+00 0. -1.
         25    1    1    2    0    0 -0.20841136651E+03  0.55047965853E+02  0.59260074520E+03  0.64285785322E+03  0.12500000000E+03 0.  0.
         -3    1    1    2    0  502  0.20841136651E+03 -0.55047965853E+02  0.39125229872E+02  0.21908071537E+03  0.00000000000E+00 0. -1.
<mgrwt>
<rscale>  3 0.24917981E+03</rscale>
<asrwt>0</asrwt>
<pdfrwt beam="1">  1       21 0.11489727E+00 0.24917981E+03</pdfrwt>
<pdfrwt beam="2">  1       -3 0.17708662E-01 0.24917981E+03</pdfrwt>
<totfact> 0.79625807E+02</totfact>
</mgrwt>
</event>
<event>
 4    0  0.1418182E-001  0.3327798E+03  0.7546771E-02  0.1069913E+00
         21   -1    0    0  501  502  0.00000000000E+00  0.00000000000E+00  0.27533996392E+03  0.27533996392E+03  0.00000000000E+00 0.  1.
          3   -1    0    0  502    0 -0.00000000000E+00 -0.00000000000E+00 -0.52381797716E+03  0.52381797716E+03  0.00000000000E+00 0.  1.
         25    1    1    2    0    0 -0.20031983538E+03  0.23449807289E+03  0.86487224005E+02  0.34383487687E+03  0.12500000000E+03 0.  0.
          3    1    1    2  501    0  0.20031983538E+03 -0.23449807289E+03 -0.33496523725E+03  0.45532306421E+03  0.00000000000E+00 0.  1.
<mgrwt>
<rscale>  3 0.33277978E+03</rscale>
<asrwt>0</asrwt>
<pdfrwt beam="1">  1       21 0.42359994E-01 0.33277978E+03</pdfrwt>
<pdfrwt beam="2">  1        3 0.80587382E-01 0.33277978E+03</pdfrwt>
<totfact> 0.37979899E+02</totfact>
</mgrwt>
</event>
<event>
 4    0  0.1592188E-001  0.3723450E+03  0.7546771E-02  0.1053800E+00
          2   -1    0    0  502    0 -0.00000000000E+00  0.00000000000E+00  0.97342719828E+03  0.97342719828E+03  0.00000000000E+00 0.  1.
         21   -1    0    0  501  502  0.00000000000E+00 -0.00000000000E+00 -0.50841429737E+03  0.50841429737E+03  0.00000000000E+00 0. -1.
         25    1    1    2    0    0 -0.33830647630E+03  0.92544542493E+02 -0.40117305813E+03  0.54733955350E+03  0.12500000000E+03 0.  0.
          2    1    1    2  501    0  0.33830647630E+03 -0.92544542493E+02  0.86618595904E+03  0.93450194216E+03  0.00000000000E+00 0.  1.
<mgrwt>
<rscale>  3 0.37234495E+03</rscale>
<asrwt>0</asrwt>
<pdfrwt beam="1">  1       21 0.78217584E-01 0.37234495E+03</pdfrwt>
<pdfrwt beam="2">  1        2 0.14975803E+00 0.37234495E+03</pdfrwt>
<totfact> 0.45898673E+02</totfact>
</mgrwt>
</event>
<event>
 4    0  0.1173115E-001  0.3671469E+03  0.7546771E-02  0.1055789E+00
         21   -1    0    0  501  502  0.00000000000E+00  0.00000000000E+00  0.18645480211E+03  0.18645480211E+03  0.00000000000E+00 0. -1.
          2   -1    0    0  502    0 -0.00000000000E+00 -0.00000000000E+00 -0.27528552596E+04  0.27528552596E+04  0.00000000000E+00 0.  1.
         25    1    1    2    0    0 -0.34345984936E+03  0.34744223532E+02 -0.17950797729E+02  0.36758544630E+03  0.12500000000E+03 0.  0.
          2    1    1    2  501    0  0.34345984936E+03 -0.34744223532E+02 -0.25484496598E+04  0.25717246154E+04  0.00000000000E+00 0.  1.
<mgrwt>
<rscale>  3 0.36714688E+03</rscale>
<asrwt>0</asrwt>
<pdfrwt beam="1">  1       21 0.28685358E-01 0.36714688E+03</pdfrwt>
<pdfrwt beam="2">  1        2 0.42351614E+00 0.36714688E+03</pdfrwt>
<totfact> 0.39653352E+02</totfact>
</mgrwt>
</event>
<event>
 4    0  0.1002184E-001  0.2991342E+03  0.7546771E-02  0.1085674E+00
         21   -1    0    0  501  502  0.00000000000E+00  0.00000000000E+00  0.58598661962E+02  0.58598661962E+02  0.00000000000E+00 0. -1.
          1   -1    0    0  502    0 -0.00000000000E+00 -0.00000000000E+00 -0.16142775085E+04  0.16142775085E+04  0.00000000000E+00 0.  1.
         25    1    1    2    0    0 -0.25734674532E+03  0.87343719278E+02 -0.49884465317E+03  0.58165905875E+03  0.12500000000E+03 0.  0.
          1    1    1    2  501    0  0.25734674532E+03 -0.87343719278E+02 -0.10568341933E+04  0.10912171117E+04  0.00000000000E+00 0.  1.
<mgrwt>
<rscale>  3 0.29913421E+03</rscale>
<asrwt>0</asrwt>
<pdfrwt beam="1">  1       21 0.90151787E-02 0.29913421E+03</pdfrwt>
<pdfrwt beam="2">  1        1 0.24835039E+00 0.29913421E+03</pdfrwt>
<totfact> 0.64331976E+03</totfact>
</mgrwt>
</event>
<event>
 4    0  0.1165390E-001  0.2652231E+03  0.7546771E-02  0.1104045E+00
         21   -1    0    0  501  502  0.00000000000E+00  0.00000000000E+00  0.10080535312E+04  0.10080535312E+04  0.00000000000E+00 0. -1.
          1   -1    0    0  502    0 -0.00000000000E+00 -0.00000000000E+00 -0.73013636861E+02  0.73013636861E+02  0.00000000000E+00 0. -1.
         25    1    1    2    0    0 -0.23368411623E+03 -0.10490107080E+02  0.28074114552E+03  0.38621095183E+03  0.12500000000E+03 0.  0.
          1    1    1    2  501    0  0.23368411623E+03  0.10490107080E+02  0.65429874878E+03  0.69485621619E+03  0.00000000000E+00 0. -1.
<mgrwt>
<rscale>  3 0.26522313E+03</rscale>
<asrwt>0</asrwt>
<pdfrwt beam="1">  1       21 0.15508515E+00 0.26522313E+03</pdfrwt>
<pdfrwt beam="2">  1        1 0.11232868E-01 0.26522313E+03</pdfrwt>
<totfact> 0.15492978E+03</totfact>
</mgrwt>
</event>
<event>
 4    0  0.1002184E-001  0.2487055E+03  0.7546771E-02  0.1114126E+00
         -1   -1    0    0    0  501 -0.00000000000E+00  0.00000000000E+00  0.19400691046E+03  0.19400691046E+03  0.00000000000E+00 0.  1.
         21   -1    0    0  501  502  0.00000000000E+00 -0.00000000000E+00 -0.77080861848E+03  0.77080861848E+03  0.00000000000E+00 0. -1.
         25    1    1    2    0    0  0.18281880341E+03  0.11316680730E+03 -0.68164931802E+03  0.72560335853E+03  0.12500000000E+03 0.  0.
         -1    1    1    2    0  502 -0.18281880341E+03 -0.11316680730E+03  0.10484760999E+03  0.23921217041E+03  0.00000000000E+00 0.  1.
<mgrwt>
<rscale>  3 0.24870553E+03</rscale>
<asrwt>0</asrwt>
<pdfrwt beam="1">  1       21 0.11858594E+00 0.24870553E+03</pdfrwt>
<pdfrwt beam="2">  1       -1 0.29847217E-01 0.24870553E+03</pdfrwt>
<totfact> 0.49870083E+02</totfact>
</mgrwt>
</event>
<event>
 4    0  0.1444526E-001  0.4261436E+03  0.7546771E-02  0.1035085E+00
          1   -1    0    0  502    0 -0.00000000000E+00  0.00000000000E+00  0.72079458302E+03  0.72079458302E+03  0.00000000000E+00 0. -1.
         21   -1    0    0  501  502  0.00000000000E+00 -0.00000000000E+00 -0.24616890245E+03  0.24616890245E+03  0.00000000000E+00 0. -1.
         25    1    1    2    0    0  0.12983845615E+03  0.38615451606E+03  0.17236895374E+03  0.45968401232E+03  0.12500000000E+03 0.  0.
          1    1    1    2  501    0 -0.12983845615E+03 -0.38615451606E+03  0.30225672682E+03  0.50727947315E+03  0.00000000000E+00 0. -1.
<mgrwt>
<rscale>  3 0.42614356E+03</rscale>
<asrwt>0</asrwt>
<pdfrwt beam="1">  1       21 0.37872139E-01 0.42614356E+03</pdfrwt>
<pdfrwt beam="2">  1        1 0.11089147E+00 0.42614356E+03</pdfrwt>
<totfact> 0.18815559E+03</totfact>
</mgrwt>
</event>
<event>
 4    0  0.1002184E-001  0.2462589E+03  0.7546771E-02  0.1115692E+00
          1   -1    0    0  502    0 -0.00000000000E+00  0.00000000000E+00  0.52860314416E+03  0.52860314416E+03  0.00000000000E+00 0. -1.
         21   -1    0    0  501  502  0.00000000000E+00 -0.00000000000E+00 -0.23173429686E+04  0.23173429686E+04  0.00000000000E+00 0.  1.
         25    1    1    2    0    0 -0.44158631278E+02 -0.20752945252E+03 -0.22891785876E+04  0.23023861675E+04  0.12500000000E+03 0.  0.
          1    1    1    2  501    0  0.44158631278E+02  0.20752945252E+03  0.50043876318E+03  0.54355994524E+03  0.00000000000E+00 0. -1.
<mgrwt>
<rscale>  3 0.24625893E+03</rscale>
<asrwt>0</asrwt>
<pdfrwt beam="1">  1       21 0.35651430E+00 0.24625893E+03</pdfrwt>
<pdfrwt beam="2">  1        1 0.81323561E-01 0.24625893E+03</pdfrwt>
<totfact> 0.68655376E+00</totfact>
</mgrwt>
</event>
<event>
 4    0  0.1964257E-001  0.2613994E+03  0.7546771E-02  0.1106305E+00
         -2   -1    0    0    0  501 -0.00000000000E+00  0.00000000000E+00  0.62644998853E+03  0.62644998853E+03  0.00000000000E+00 0.  1.
         21   -1    0    0  501  502  0.00000000000E+00 -0.00000000000E+00 -0.11296930123E+03  0.11296930123E+03  0.00000000000E+00 0.  1.
         25    1    1    2    0    0 -0.68411075240E+02  0.21914505763E+03  0.12872084733E+03  0.29137379435E+03  0.12500000000E+03 0.  0.
         -2    1    1    2    0  502  0.68411075240E+02 -0.21914505763E+03  0.38475983997E+03  0.44804549541E+03  0.00000000000E+00 0.  1.
<mgrwt>
<rscale>  3 0.26139937E+03</rscale>
<asrwt>0</asrwt>
<pdfrwt beam="1">  1       21 0.17379893E-01 0.26139937E+03</pdfrwt>
<pdfrwt beam="2">  1       -2 0.96376919E-01 0.26139937E+03</pdfrwt>
<totfact> 0.22666461E+03</totfact>
</mgrwt>
</event>
<event>
 4    0  0.1603467E-001  0.3138593E+03  0.7546771E-02  0.1078511E+00
          2   -1    0    0  502    0 -0.00000000000E+00  0.00000000000E+00  0.11453065639E+04  0.11453065639E+04  0.00000000000E+00 0. -1.
         21   -1    0    0  501  502  0.00000000000E+00 -0.00000000000E+00 -0.98110932435E+02  0.98110932435E+02  0.00000000000E+00 0. -1.
         25    1    1    2    0    0  0.17525524199E+03  0.22840367923E+03  0.81568768038E+03  0.87398743267E+03  0.12500000000E+03 0.  0.
          2    1    1    2  501    0 -0.17525524199E+03 -0.22840367923E+03  0.23150795111E+03  0.36943006369E+03  0.00000000000E+00 0. -1.
<mgrwt>
<rscale>  3 0.31385927E+03</rscale>
<asrwt>0</asrwt>
<pdfrwt beam="1">  1       21 0.15093990E-01 0.31385927E+03</pdfrwt>
<pdfrwt beam="2">  1        2 0.17620100E+00 0.31385927E+03</pdfrwt>
<totfact> 0.10302068E+04</totfact>
</mgrwt>
</event>
<event>
 4    0  0.1522874E-001  0.2575937E+03  0.7546771E-02  0.1108598E+00
         21   -1    0    0  501  502  0.00000000000E+00  0.00000000000E+00  0.15636049245E+03  0.15636049245E+03  0.00000000000E+00 0.  1.
          2   -1    0    0  502    0 -0.00000000000E+00 -0.00000000000E+00 -0.19682870200E+04  0.19682870200E+04  0.00000000000E+00 0.  1.
         25    1    1    2    0    0 -0.13685433992E+03  0.17888649535E+03  0.38595559819E+02  0.26046901123E+03  0.12500000000E+03 0.  0.
          2    1    1    2  501    0  0.13685433992E+03 -0.17888649535E+03 -0.18505220874E+04  0.18641785012E+04  0.00000000000E+00 0.  1.
<mgrwt>
<rscale>  3 0.25759365E+03</rscale>
<asrwt>0</asrwt>
<pdfrwt beam="1">  1       21 0.24055459E-01 0.25759365E+03</pdfrwt>
<pdfrwt beam="2">  1        2 0.30281341E+00 0.25759365E+03</pdfrwt>
<totfact> 0.15722347E+03</totfact>
</mgrwt>
</event>
<event>
 4    0  0.1305160E-001  0.2400015E+03  0.7546771E-02  0.1119792E+00
         21   -1    0    0  501  502  0.00000000000E+00  0.00000000000E+00  0.20874616669E+03  0.20874616669E+03  0.00000000000E+00 0.  1.
          1   -1    0    0  502    0 -0.00000000000E+00 -0.00000000000E+00 -0.54635018468E+03  0.54635018468E+03  0.00000000000E+00 0.  1.
         25    1    1    2    0    0 -0.19943306958E+03 -0.46927444608E+02  0.10911061499E+03  0.26363964156E+03  0.12500000000E+03 0.  0.
          1    1    1    2  501    0  0.19943306958E+03  0.46927444608E+02 -0.44671463298E+03  0.49145670981E+03  0.00000000000E+00 0.  1.
<mgrwt>
<rscale>  3 0.24000153E+03</rscale>
<asrwt>0</asrwt>
<pdfrwt beam="1">  1       21 0.32114795E-01 0.24000153E+03</pdfrwt>
<pdfrwt beam="2">  1        1 0.84053875E-01 0.24000153E+03</pdfrwt>
<totfact> 0.40724368E+03</totfact>
</mgrwt>
</event>
<event>
 4    0  0.1002184E-001  0.2421034E+03  0.7546771E-02  0.1118399E+00
         21   -1    0    0  501  502  0.00000000000E+00  0.00000000000E+00  0.70693505463E+03  0.70693505463E+03  0.00000000000E+00 0. -1.
          3   -1    0    0  502    0 -0.00000000000E+00 -0.00000000000E+00 -0.13584697427E+03  0.13584697427E+03  0.00000000000E+00 0.  1.
         25    1    1    2    0    0  0.12474822261E+00 -0.20733798114E+03  0.58686745017E+03  0.63484443611E+03  0.12500000000E+03 0.  0.
          3    1    1    2  501    0 -0.12474822261E+00  0.20733798114E+03 -0.15779369820E+02  0.20793759279E+03  0.00000000000E+00 0.  1.
<mgrwt>
<rscale>  3 0.24210340E+03</rscale>
<asrwt>0</asrwt>
<pdfrwt beam="1">  1       21 0.10875924E+00 0.24210340E+03</pdfrwt>
<pdfrwt beam="2">  1        3 0.20899535E-01 0.24210340E+03</pdfrwt>
<totfact> 0.67942972E+02</totfact>
</mgrwt>
</event>
<event>
 4    0  0.1087868E-001  0.2733136E+03  0.7546771E-02  0.1099398E+00
         21   -1    0    0  501  502  0.00000000000E+00  0.00000000000E+00  0.27759123665E+03  0.27759123665E+03  0.00000000000E+00 0. -1.
          1   -1    0    0  502    0 -0.00000000000E+00 -0.00000000000E+00 -0.30098523710E+04  0.30098523710E+04  0.00000000000E+00 0.  1.
         25    1    1    2    0    0  0.87998035114E+02  0.22656489803E+03  0.20405534663E+03  0.34108487462E+03  0.12500000000E+03 0.  0.
          1    1    1    2  501    0 -0.87998035114E+02 -0.22656489803E+03 -0.29363164810E+04  0.29463587330E+04  0.00000000000E+00 0.  1.
<mgrwt>
<rscale>  3 0.27331357E+03</rscale>
<asrwt>0</asrwt>
<pdfrwt beam="1">  1       21 0.42706344E-01 0.27331357E+03</pdfrwt>
<pdfrwt beam="2">  1        1 0.46305422E+00 0.27331357E+03</pdfrwt>
<totfact> 0.40542715E+01</totfact>
</mgrwt>
</event>
<event>
 4    0  0.1453480E-001  0.2775313E+03  0.7546771E-02  0.1097045E+00
          2   -1    0    0  502    0 -0.00000000000E+00  0.00000000000E+00  0.19845819493E+04  0.19845819493E+04  0.00000000000E+00 0. -1.
         21   -1    0    0  501  502  0.00000000000E+00 -0.00000000000E+00 -0.59680892433E+03  0.59680892433E+03  0.00000000000E+00 0.  1.
         25    1    1    2    0    0  0.23533860648E+03  0.77552231598E+02 -0.55624932421E+03  0.62164050625E+03  0.12500000000E+03 0.  0.
          2    1    1    2  501    0 -0.23533860648E+03 -0.77552231598E+02  0.19440223491E+04  0.19597503673E+04  0.00000000000E+00 0. -1.
<mgrwt>
<rscale>  3 0.27753127E+03</rscale>
<asrwt>0</asrwt>
<pdfrwt beam="1">  1       21 0.91816758E-01 0.27753127E+03</pdfrwt>
<pdfrwt beam="2">  1        2 0.30532030E+00 0.27753127E+03</pdfrwt>
<totfact> 0.91587675E+01</totfact>
</mgrwt>
</event>
<event>
 4    0  0.1941020E-001  0.2427368E+03  0.7546771E-02  0.1117983E+00
          1   -1    0    0  502    0 -0.00000000000E+00  0.00000000000E+00  0.11258405309E+04  0.11258405309E+04  0.00000000000E+00 0. -1.
         21   -1    0    0  501  502  0.00000000000E+00 -0.00000000000E+00 -0.56449211776E+03  0.56449211776E+03  0.00000000000E+00 0.  1.
         25    1    1    2    0    0 -0.19938407803E+03  0.59516045198E+02 -0.52808763276E+03  0.58120368037E+03  0.12500000000E+03 0.  0.
          1    1    1    2  501    0  0.19938407803E+03 -0.59516045198E+02  0.10894360459E+04  0.11091289683E+04  0.00000000000E+00 0. -1.
<mgrwt>
<rscale>  3 0.24273683E+03</rscale>
<asrwt>0</asrwt>
<pdfrwt beam="1">  1       21 0.86844942E-01 0.24273683E+03</pdfrwt>
<pdfrwt beam="2">  1        1 0.17320623E+00 0.24273683E+03</pdfrwt>
<totfact> 0.16008307E+02</totfact>
</mgrwt>
</event>
<event>
 4    0  0.1002184E-001  0.2849025E+03  0.7546771E-02  0.1093041E+00
          1   -1    0    0  502    0 -0.00000000000E+00  0.00000000000E+00  0.12421187009E+03  0.12421187009E+03  0.00000000000E+00 0. -1.
         21   -1    0    0  501  502  0.00000000000E+00 -0.00000000000E+00 -0.94224684998E+03  0.94224684998E+03  0.00000000000E+00 0.  1.
         25    1    1    2    0    0  0.23614278451E+03 -0.98899103660E+02 -0.74891469312E+03  0.80127564855E+03  0.12500000000E+03 0.  0.
          1    1    1    2  501    0 -0.23614278451E+03  0.98899103660E+02 -0.69120286777E+02  0.26518307153E+03  0.00000000000E+00 0. -1.
<mgrwt>
<rscale>  3 0.28490252E+03</rscale>
<asrwt>0</asrwt>
<pdfrwt beam="1">  1       21 0.14496105E+00 0.28490252E+03</pdfrwt>
<pdfrwt beam="2">  1        1 0.19109518E-01 0.28490252E+03</pdfrwt>
<totfact> 0.91256311E+02</totfact>
</mgrwt>
</event>
<event>
 4    0  0.1002184E-001  0.2467082E+03  0.7546771E-02  0.1115403E+00
         21   -1    0    0  501  502  0.00000000000E+00  0.00000000000E+00  0.28704597501E+03  0.28704597501E+03  0.00000000000E+00 0. -1.
          2   -1    0    0  502    0 -0.00000000000E+00 -0.00000000000E+00 -0.31859721819E+03  0.31859721819E+03  0.00000000000E+00 0.  1.
         25    1    1    2    0    0  0.20853700786E+03 -0.41859703541E+02  0.18020107831E+03  0.30551161525E+03  0.12500000000E+03 0.  0.
          2    1    1    2  501    0 -0.20853700786E+03  0.41859703541E+02 -0.21175232149E+03  0.30013157795E+03  0.00000000000E+00 0.  1.
<mgrwt>
<rscale>  3 0.24670816E+03</rscale>
<asrwt>0</asrwt>
<pdfrwt beam="1">  1       21 0.44160919E-01 0.24670816E+03</pdfrwt>
<pdfrwt beam="2">  1        2 0.49014956E-01 0.24670816E+03</pdfrwt>
<totfact> 0.61736637E+03</totfact>
</mgrwt>
</event>
<event>
 4    0  0.1644223E-001  0.2617608E+03  0.7546771E-02  0.1106090E+00
          1   -1    0    0  502    0 -0.00000000000E+00  0.00000000000E+00  0.95770418899E+03  0.95770418899E+03  0.00000000000E+00 0.  1.
         21   -1    0    0  501  502  0.00000000000E+00 -0.00000000000E+00 -0.82345350020E+02  0.82345350020E+02  0.00000000000E+00 0.  1.
         25    1    1    2    0    0 -0.14945721734E+03 -0.17480355118E+03  0.20851477917E+03  0.33465975924E+03  0.12500000000E+03 0.  0.
          1    1    1    2  501    0  0.14945721734E+03  0.17480355118E+03  0.66684405980E+03  0.70538977977E+03  0.00000000000E+00 0.  1.
<mgrwt>
<rscale>  3 0.26176085E+03</rscale>
<asrwt>0</asrwt>
<pdfrwt beam="1">  1       21 0.12668516E-01 0.26176085E+03</pdfrwt>
<pdfrwt beam="2">  1        1 0.14733910E+00 0.26176085E+03</pdfrwt>
<totfact> 0.10111007E+04</totfact>
</mgrwt>
</event>
<event>
 4    0  0.1002184E-001  0.3230587E+03  0.7546771E-02  0.1074250E+00
          1   -1    0    0  502    0 -0.00000000000E+00  0.00000000000E+00  0.12304384128E+03  0.12304384128E+03  0.00000000000E+00 0.  1.
         21   -1    0    0  501  502  0.00000000000E+00 -0.00000000000E+00 -0.15874631855E+04  0.15874631855E+04  0.00000000000E+00 0.  1.
         25    1    1    2    0    0  0.19379201967E+03 -0.22624449769E+03 -0.13552737654E+04  0.13932458142E+04  0.12500000000E+03 0.  0.
          1    1    1    2  501    0 -0.19379201967E+03  0.22624449769E+03 -0.10914557881E+03  0.31726121256E+03  0.00000000000E+00 0.  1.
<mgrwt>
<rscale>  3 0.32305869E+03</rscale>
<asrwt>0</asrwt>
<pdfrwt beam="1">  1       21 0.24422510E+00 0.32305869E+03</pdfrwt>
<pdfrwt beam="2">  1        1 0.18929822E-01 0.32305869E+03</pdfrwt>
<totfact> 0.19346819E+02</totfact>
</mgrwt>
</event>
<event>
 4    0  0.1419353E-001  0.3220849E+03  0.7546771E-02  0.1074694E+00
         21   -1    0    0  501  502  0.00000000000E+00  0.00000000000E+00  0.70802404546E+02  0.70802404546E+02  0.00000000000E+00 0. -1.
          4   -1    0    0  502    0 -0.00000000000E+00 -0.00000000000E+00 -0.24490609117E+04  0.24490609117E+04  0.00000000000E+00 0. -1.
         25    1    1    2    0    0 -0.14864951714E+03 -0.25693768273E+03 -0.37327051131E+03  0.49302081738E+03  0.12500000000E+03 0.  0.
          4    1    1    2  501    0  0.14864951714E+03  0.25693768273E+03 -0.20049879958E+04  0.20268424988E+04  0.00000000000E+00 0. -1.
<mgrwt>
<rscale>  3 0.32208485E+03</rscale>
<asrwt>0</asrwt>
<pdfrwt beam="1">  1       21 0.10892676E-01 0.32208485E+03</pdfrwt>
<pdfrwt beam="2">  1        4 0.37677865E+00 0.32208485E+03</pdfrwt>
<totfact> 0.34900898E+01</totfact>
</mgrwt>
</event>
<event>
 4    0  0.1665014E-001  0.2389585E+03  0.7546771E-02  0.1120489E+00
          1   -1    0    0  502    0 -0.00000000000E+00  0.00000000000E+00  0.79758494233E+03  0.79758494233E+03  0.00000000000E+00 0. -1.
         21   -1    0    0  501  502  0.00000000000E+00 -0.00000000000E+00 -0.28328898534E+03  0.28328898534E+03  0.00000000000E+00 0.  1.
         25    1    1    2    0    0 -0.11574493110E+03 -0.16756864935E+03 -0.21636669043E+03  0.32235956019E+03  0.12500000000E+03 0.  0.
          1    1    1    2  501    0  0.11574493110E+03  0.16756864935E+03  0.73066264742E+03  0.75851436747E+03  0.00000000000E+00 0. -1.
<mgrwt>
<rscale>  3 0.23895845E+03</rscale>
<asrwt>0</asrwt>
<pdfrwt beam="1">  1       21 0.43582921E-01 0.23895845E+03</pdfrwt>
<pdfrwt beam="2">  1        1 0.12270537E+00 0.23895845E+03</pdfrwt>
<totfact> 0.12799691E+03</totfact>
</mgrwt>
</event>
<event>
 4    0  0.1469600E-001  0.2419619E+03  0.7546771E-02  0.1118493E+00
          1   -1    0    0  502    0 -0.00000000000E+00  0.00000000000E+00  0.11529801018E+04  0.11529801018E+04  0.00000000000E+00 0. -1.
         21   -1    0    0  501  502  0.00000000000E+00 -0.00000000000E+00 -0.50805181296E+02  0.50805181296E+02  0.00000000000E+00 0. -1.
         25    1    1    2    0    0 -0.16319318431E+03 -0.12762649876E+03  0.36395156448E+03  0.43704265225E+03  0.12500000000E+03 0.  0.
          1    1    1    2  501    0  0.16319318431E+03  0.12762649876E+03  0.73822335606E+03  0.76674263089E+03  0.00000000000E+00 0. -1.
<mgrwt>
<rscale>  3 0.24196185E+03</rscale>
<asrwt>0</asrwt>
<pdfrwt beam="1">  1       21 0.78161826E-02 0.24196185E+03</pdfrwt>
<pdfrwt beam="2">  1        1 0.17738153E+00 0.24196185E+03</pdfrwt>
<totfact> 0.17224846E+04</totfact>
</mgrwt>
</event>
<event>
 4    0  0.1984195E-001  0.3436668E+03  0.7546771E-02  0.1065245E+00
         21   -1    0    0  501  502  0.00000000000E+00  0.00000000000E+00  0.78012122840E+03  0.78012122840E+03  0.00000000000E+00 0.  1.
         -1   -1    0    0    0  501 -0.00000000000E+00 -0.00000000000E+00 -0.79422868583E+03  0.79422868583E+03  0.00000000000E+00 0.  1.
         25    1    1    2    0    0 -0.25379810467E+03 -0.19511116195E+03  0.70660050605E+03  0.78574239964E+03  0.12500000000E+03 0.  0.
         -1    1    1    2    0  502  0.25379810467E+03  0.19511116195E+03 -0.72070796348E+03  0.78860751459E+03  0.00000000000E+00 0.  1.
<mgrwt>
<rscale>  3 0.34366676E+03</rscale>
<asrwt>0</asrwt>
<pdfrwt beam="1">  1       21 0.12001865E+00 0.34366676E+03</pdfrwt>
<pdfrwt beam="2">  1       -1 0.12218903E+00 0.34366676E+03</pdfrwt>
<totfact> 0.28564510E+01</totfact>
</mgrwt>
</event>
<event>
 4    0  0.1439634E-001  0.2381020E+03  0.7546771E-02  0.1121064E+00
          2   -1    0    0  502    0 -0.00000000000E+00  0.00000000000E+00  0.12851244175E+04  0.12851244175E+04  0.00000000000E+00 0. -1.
         21   -1    0    0  501  502  0.00000000000E+00 -0.00000000000E+00 -0.24888572380E+03  0.24888572380E+03  0.00000000000E+00 0. -1.
         25    1    1    2    0    0  0.19299381550E+03  0.61813887936E+02 -0.18158390016E+03  0.29944161761E+03  0.12500000000E+03 0.  0.
          2    1    1    2  501    0 -0.19299381550E+03 -0.61813887936E+02  0.12178225939E+04  0.12345685237E+04  0.00000000000E+00 0. -1.
<mgrwt>
<rscale>  3 0.23810202E+03</rscale>
<asrwt>0</asrwt>
<pdfrwt beam="1">  1       21 0.38290112E-01 0.23810202E+03</pdfrwt>
<pdfrwt beam="2">  1        2 0.19771144E+00 0.23810202E+03</pdfrwt>
<totfact> 0.14702056E+03</totfact>
</mgrwt>
</event>
<event>
 4    0  0.1426193E-001  0.3042747E+03  0.7546771E-02  0.1083123E+00
          2   -1    0    0  502    0 -0.00000000000E+00  0.00000000000E+00  0.22133031476E+04  0.22133031476E+04  0.00000000000E+00 0. -1.
         21   -1    0    0  501  502  0.00000000000E+00 -0.00000000000E+00 -0.39471529589E+02  0.39471529589E+02  0.00000000000E+00 0. -1.
         25    1    1    2    0    0 -0.22685909657E+03 -0.15966548646E+03  0.93507218344E+03  0.98333265252E+03  0.12500000000E+03 0.  0.
          2    1    1    2  501    0  0.22685909657E+03  0.15966548646E+03  0.12387594345E+04  0.12694420246E+04  0.00000000000E+00 0. -1.
<mgrwt>
<rscale>  3 0.30427474E+03</rscale>
<asrwt>0</asrwt>
<pdfrwt beam="1">  1       21 0.60725447E-02 0.30427474E+03</pdfrwt>
<pdfrwt beam="2">  1        2 0.34050808E+00 0.30427474E+03</pdfrwt>
<totfact> 0.13870059E+04</totfact>
</mgrwt>
</event>
<event>
 4    0  0.1520269E-001  0.2570432E+03  0.7546771E-02  0.1108933E+00
         -4   -1    0    0    0  501 -0.00000000000E+00  0.00000000000E+00  0.21383876861E+03  0.21383876861E+03  0.00000000000E+00 0.  1.
         21   -1    0    0  501  502  0.00000000000E+00 -0.00000000000E+00 -0.32602158031E+03  0.32602158031E+03  0.00000000000E+00 0.  1.
         25    1    1    2    0    0  0.16101773220E+03 -0.15658700454E+03 -0.16970219200E+03  0.30800979537E+03  0.12500000000E+03 0.  0.
         -4    1    1    2    0  502 -0.16101773220E+03  0.15658700454E+03  0.57519380297E+02  0.23185055355E+03  0.00000000000E+00 0.  1.
<mgrwt>
<rscale>  3 0.25704319E+03</rscale>
<asrwt>0</asrwt>
<pdfrwt beam="1">  1       21 0.50157166E-01 0.25704319E+03</pdfrwt>
<pdfrwt beam="2">  1       -4 0.32898272E-01 0.25704319E+03</pdfrwt>
<totfact> 0.14197203E+03</totfact>
</mgrwt>
</event>
<event>
 4    0  0.1233388E-001  0.2480545E+03  0.7546771E-02  0.1114541E+00
         21   -1    0    0  501  502  0.00000000000E+00  0.00000000000E+00  0.66352689762E+02  0.66352689762E+02  0.00000000000E+00 0.  1.
          1   -1    0    0  502    0 -0.00000000000E+00 -0.00000000000E+00 -0.17290052097E+04  0.17290052097E+04  0.00000000000E+00 0. -1.
         25    1    1    2    0    0 -0.18434429324E+03 -0.10919344652E+03 -0.20431511698E+03  0.32136535942E+03  0.12500000000E+03 0.  0.
          1    1    1    2  501    0  0.18434429324E+03  0.10919344652E+03 -0.14583374029E+04  0.14739925400E+04  0.00000000000E+00 0. -1.
<mgrwt>
<rscale>  3 0.24805448E+03</rscale>
<asrwt>0</asrwt>
<pdfrwt beam="1">  1       21 0.10208108E-01 0.24805448E+03</pdfrwt>
<pdfrwt beam="2">  1        1 0.26600075E+00 0.24805448E+03</pdfrwt>
<totfact> 0.44113576E+03</totfact>
</mgrwt>
</event>
<event>
 4    0  0.1002184E-001  0.4797815E+03  0.7546771E-02  0.1019195E+00
         21   -1    0    0  501  502  0.00000000000E+00  0.00000000000E+00  0.13318137625E+04  0.13318137625E+04  0.00000000000E+00 0. -1.
          2   -1    0    0  502    0 -0.00000000000E+00 -0.00000000000E+00 -0.18386918043E+04  0.18386918043E+04  0.00000000000E+00 0. -1.
         25    1    1    2    0    0  0.70338971835E+02 -0.45784030416E+03  0.12577194833E+04  0.13461235507E+04  0.12500000000E+03 0.  0.
          2    1    1    2  501    0 -0.70338971835E+02  0.45784030416E+03 -0.17645975251E+04  0.18243820161E+04  0.00000000000E+00 0. -1.
<mgrwt>
<rscale>  3 0.47978153E+03</rscale>
<asrwt>0</asrwt>
<pdfrwt beam="1">  1       21 0.20489443E+00 0.47978153E+03</pdfrwt>
<pdfrwt beam="2">  1        2 0.28287566E+00 0.47978153E+03</pdfrwt>
<totfact> 0.11498608E+01</totfact>
</mgrwt>
</event>
<event>
 4    0  0.1548144E-001  0.2701475E+03  0.7546771E-02  0.1101195E+00
         21   -1    0    0  501  502  0.00000000000E+00  0.00000000000E+00  0.14237650303E+03  0.14237650303E+03  0.00000000000E+00 0. -1.
          1   -1    0    0  502    0 -0.00000000000E+00 -0.00000000000E+00 -0.57393027987E+03  0.57393027987E+03  0.00000000000E+00 0. -1.
         25    1    1    2    0    0 -0.54544652784E+02 -0.23319427027E+03 -0.64016576358E+02  0.27762890498E+03  0.12500000000E+03 0.  0.
          1    1    1    2  501    0  0.54544652784E+02  0.23319427027E+03 -0.36753720048E+03  0.43867787791E+03  0.00000000000E+00 0. -1.
<mgrwt>
<rscale>  3 0.27014753E+03</rscale>
<asrwt>0</asrwt>
<pdfrwt beam="1">  1       21 0.21904077E-01 0.27014753E+03</pdfrwt>
<pdfrwt beam="2">  1        1 0.88296967E-01 0.27014753E+03</pdfrwt>
<totfact> 0.79244908E+03</totfact>
</mgrwt>
</event>
<event>
 4    0  0.1120097E-001  0.5183581E+03  0.7546771E-02  0.1009095E+00
          2   -1    0    0  502    0 -0.00000000000E+00  0.00000000000E+00  0.22547144943E+04  0.22547144943E+04  0.00000000000E+00 0.  1.
         21   -1    0    0  501  502  0.00000000000E+00 -0.00000000000E+00 -0.13116538852E+03  0.13116538852E+03  0.00000000000E+00 0.  1.
         25    1    1    2    0    0  0.68891786034E+02 -0.49832123723E+03  0.66593958875E+03  0.84390204972E+03  0.12500000000E+03 0.  0.
          2    1    1    2  501    0 -0.68891786034E+02  0.49832123723E+03  0.14576095170E+04  0.15419778331E+04  0.00000000000E+00 0.  1.
<mgrwt>
<rscale>  3 0.51835811E+03</rscale>
<asrwt>0</asrwt>
<pdfrwt beam="1">  1       21 0.20179292E-01 0.51835811E+03</pdfrwt>
<pdfrwt beam="2">  1        2 0.34687913E+00 0.51835811E+03</pdfrwt>
<totfact> 0.14138250E+03</totfact>
</mgrwt>
</event>
<event>
 4    0  0.1005645E-001  0.2384469E+03  0.7546771E-02  0.1120832E+00
          2   -1    0    0  502    0 -0.00000000000E+00  0.00000000000E+00  0.49105917334E+03  0.49105917334E+03  0.00000000000E+00 0.  1.
         21   -1    0    0  501  502  0.00000000000E+00 -0.00000000000E+00 -0.17483174598E+03  0.17483174598E+03  0.00000000000E+00 0. -1.
         25    1    1    2    0    0  0.19214766219E+03 -0.65659833809E+02 -0.53224120485E+02  0.24431484781E+03  0.12500000000E+03 0.  0.
          2    1    1    2  501    0 -0.19214766219E+03  0.65659833809E+02  0.36945154785E+03  0.42157607151E+03  0.00000000000E+00 0.  1.
<mgrwt>
<rscale>  3 0.23844693E+03</rscale>
<asrwt>0</asrwt>
<pdfrwt beam="1">  1       21 0.26897192E-01 0.23844693E+03</pdfrwt>
<pdfrwt beam="2">  1        2 0.75547565E-01 0.23844693E+03</pdfrwt>
<totfact> 0.10362097E+04</totfact>
</mgrwt>
</event>
<event>
 4    0  0.1002184E-001  0.2556369E+03  0.7546771E-02  0.1109793E+00
         21   -1    0    0  501  502  0.00000000000E+00  0.00000000000E+00  0.28166392562E+02  0.28166392562E+02  0.00000000000E+00 0.  1.
          2   -1    0    0  502    0 -0.00000000000E+00 -0.00000000000E+00 -0.22548984883E+04  0.22548984883E+04  0.00000000000E+00 0. -1.
         25    1    1    2    0    0  0.70689682450E+02  0.21149035803E+03 -0.82475340796E+03  0.86346301987E+03  0.12500000000E+03 0.  0.
          2    1    1    2  501    0 -0.70689682450E+02 -0.21149035803E+03 -0.14019786878E+04  0.14196018610E+04  0.00000000000E+00 0. -1.
<mgrwt>
<rscale>  3 0.25563686E+03</rscale>
<asrwt>0</asrwt>
<pdfrwt beam="1">  1       21 0.43332919E-02 0.25563686E+03</pdfrwt>
<pdfrwt beam="2">  1        2 0.34690740E+00 0.25563686E+03</pdfrwt>
<totfact> 0.23798793E+04</totfact>
</mgrwt>
</event>
<event>
 4    0  0.1763872E-001  0.2545176E+03  0.7546771E-02  0.1110483E+00
         -2   -1    0    0    0  501 -0.00000000000E+00  0.00000000000E+00  0.63151528249E+03  0.63151528249E+03  0.00000000000E+00 0. -1.
         21   -1    0    0  501  502  0.00000000000E+00 -0.00000000000E+00 -0.92112832582E+02  0.92112832582E+02  0.00000000000E+00 0. -1.
         25    1    1    2    0    0  0.15691588815E+03 -0.15662571063E+03  0.23036878016E+03  0.34329139817E+03  0.12500000000E+03 0.  0.
         -2    1    1    2    0  502 -0.15691588815E+03  0.15662571063E+03  0.30903366974E+03  0.38033671689E+03  0.00000000000E+00 0. -1.
<mgrwt>
<rscale>  3 0.25451760E+03</rscale>
<asrwt>0</asrwt>
<pdfrwt beam="1">  1       21 0.14171205E-01 0.25451760E+03</pdfrwt>
<pdfrwt beam="2">  1       -2 0.97156194E-01 0.25451760E+03</pdfrwt>
<totfact> 0.32425419E+03</totfact>
</mgrwt>
</event>
<event>
 4    0  0.1055295E-001  0.3523337E+03  0.7546771E-02  0.1061661E+00
         21   -1    0    0  501  502  0.00000000000E+00  0.00000000000E+00  0.13024045913E+03  0.13024045913E+03  0.00000000000E+00 0.  1.
          1   -1    0    0  502    0 -0.00000000000E+00 -0.00000000000E+00 -0.11610999963E+04  0.11610999963E+04  0.00000000000E+00 0. -1.
         25    1    1    2    0    0  0.23748390799E+03 -0.22828805334E+03 -0.21813377651E+03  0.41439279230E+03  0.12500000000E+03 0.  0.
          1    1    1    2  501    0 -0.23748390799E+03  0.22828805334E+03 -0.81272576066E+03  0.87694766314E+03  0.00000000000E+00 0. -1.
<mgrwt>
<rscale>  3 0.35233371E+03</rscale>
<asrwt>0</asrwt>
<pdfrwt beam="1">  1       21 0.20036992E-01 0.35233371E+03</pdfrwt>
<pdfrwt beam="2">  1        1 0.17863078E+00 0.35233371E+03</pdfrwt>
<totfact> 0.29980943E+03</totfact>
</mgrwt>
</event>
<event>
 4    0  0.1212060E-001  0.2883358E+03  0.7546771E-02  0.1091221E+00
          1   -1    0    0  502    0 -0.00000000000E+00  0.00000000000E+00  0.33387391847E+04  0.33387391847E+04  0.00000000000E+00 0.  1.
         21   -1    0    0  501  502  0.00000000000E+00 -0.00000000000E+00 -0.11285444215E+03  0.11285444215E+03  0.00000000000E+00 0. -1.
         25    1    1    2    0    0 -0.17222573204E+03 -0.19455283002E+03  0.85875423487E+02  0.30085228071E+03  0.12500000000E+03 0.  0.
          1    1    1    2  501    0  0.17222573204E+03  0.19455283002E+03  0.31400093191E+04  0.31507413461E+04  0.00000000000E+00 0.  1.
<mgrwt>
<rscale>  3 0.28833575E+03</rscale>
<asrwt>0</asrwt>
<pdfrwt beam="1">  1       21 0.17362224E-01 0.28833575E+03</pdfrwt>
<pdfrwt beam="2">  1        1 0.51365211E+00 0.28833575E+03</pdfrwt>
<totfact> 0.13461567E+02</totfact>
</mgrwt>
</event>
<event>
 4    0  0.1002184E-001  0.2471156E+03  0.7546771E-02  0.1115141E+00
          1   -1    0    0  502    0 -0.00000000000E+00  0.00000000000E+00  0.21243748206E+04  0.21243748206E+04  0.00000000000E+00 0.  1.
         21   -1    0    0  501  502  0.00000000000E+00 -0.00000000000E+00 -0.28956893099E+02  0.28956893099E+02  0.00000000000E+00 0. -1.
         25    1    1    2    0    0  0.72142340460E+02 -0.20059068452E+03  0.71379054309E+03  0.75535625992E+03  0.12500000000E+03 0.  0.
          1    1    1    2  501    0 -0.72142340460E+02  0.20059068452E+03  0.13816273844E+04  0.13979754538E+04  0.00000000000E+00 0.  1.
<mgrwt>
<rscale>  3 0.24711564E+03</rscale>
<asrwt>0</asrwt>
<pdfrwt beam="1">  1       21 0.44549083E-02 0.24711564E+03</pdfrwt>
<pdfrwt beam="2">  1        1 0.32682677E+00 0.24711564E+03</pdfrwt>
<totfact> 0.10298837E+04</totfact>
</mgrwt>
</event>
<event>
 4    0  0.1002184E-001  0.3343061E+03  0.7546771E-02  0.1069247E+00
         -3   -1    0    0    0  501 -0.00000000000E+00  0.00000000000E+00  0.14451865664E+04  0.14451865664E+04  0.00000000000E+00 0. -1.
         21   -1    0    0  501  502  0.00000000000E+00 -0.00000000000E+00 -0.73824960747E+02  0.73824960747E+02  0.00000000000E+00 0.  1.
         25    1    1    2    0    0  0.23647190043E+03  0.20054072855E+03  0.58587415044E+03  0.67454359655E+03  0.12500000000E+03 0.  0.
         -3    1    1    2    0  502 -0.23647190043E+03 -0.20054072855E+03  0.78548745524E+03  0.84446793062E+03  0.00000000000E+00 0. -1.
<mgrwt>
<rscale>  3 0.33430606E+03</rscale>
<asrwt>0</asrwt>
<pdfrwt beam="1">  1       21 0.11357687E-01 0.33430606E+03</pdfrwt>
<pdfrwt beam="2">  1       -3 0.22233637E+00 0.33430606E+03</pdfrwt>
<totfact> 0.36852186E+02</totfact>
</mgrwt>
</event>
<event>
 4    0  0.1054688E-001  0.3754279E+03  0.7546771E-02  0.1052637E+00
         21   -1    0    0  501  502  0.00000000000E+00  0.00000000000E+00  0.11746115080E+03  0.11746115080E+03  0.00000000000E+00 0. -1.
          1   -1    0    0  502    0 -0.00000000000E+00 -0.00000000000E+00 -0.20214145641E+04  0.20214145641E+04  0.00000000000E+00 0.  1.
         25    1    1    2    0    0  0.32676679443E+03 -0.13617854210E+03 -0.25860759051E+03  0.45587719743E+03  0.12500000000E+03 0.  0.
          1    1    1    2  501    0 -0.32676679443E+03  0.13617854210E+03 -0.16453458228E+04  0.16829985175E+04  0.00000000000E+00 0.  1.
<mgrwt>
<rscale>  3 0.37542793E+03</rscale>
<asrwt>0</asrwt>
<pdfrwt beam="1">  1       21 0.18070947E-01 0.37542793E+03</pdfrwt>
<pdfrwt beam="2">  1        1 0.31098685E+00 0.37542793E+03</pdfrwt>
<totfact> 0.95728684E+02</totfact>
</mgrwt>
</event>
<event>
 4    0  0.1458316E-001  0.3557884E+03  0.7546771E-02  0.1060264E+00
          1   -1    0    0  502    0 -0.00000000000E+00  0.00000000000E+00  0.10146477844E+04  0.10146477844E+04  0.00000000000E+00 0. -1.
         21   -1    0    0  501  502  0.00000000000E+00 -0.00000000000E+00 -0.13853816766E+03  0.13853816766E+03  0.00000000000E+00 0. -1.
         25    1    1    2    0    0 -0.25850854309E+03 -0.21008028056E+03  0.22262401866E+03  0.41969851657E+03  0.12500000000E+03 0.  0.
          1    1    1    2  501    0  0.25850854309E+03  0.21008028056E+03  0.65348559811E+03  0.73348743552E+03  0.00000000000E+00 0. -1.
<mgrwt>
<rscale>  3 0.35578841E+03</rscale>
<asrwt>0</asrwt>
<pdfrwt beam="1">  1       21 0.21313565E-01 0.35578841E+03</pdfrwt>
<pdfrwt beam="2">  1        1 0.15609965E+00 0.35578841E+03</pdfrwt>
<totfact> 0.34106130E+03</totfact>
</mgrwt>
</event>
<event>
 4    0  0.1607243E-001  0.2571641E+03  0.7546771E-02  0.1108859E+00
         21   -1    0    0  501  502  0.00000000000E+00  0.00000000000E+00  0.24357248382E+02  0.24357248382E+02  0.00000000000E+00 0.  1.
          1   -1    0    0  502    0 -0.00000000000E+00 -0.00000000000E+00 -0.26276629334E+04  0.26276629334E+04  0.00000000000E+00 0.  1.
         25    1    1    2    0    0  0.11059081928E+03 -0.19564778855E+03 -0.97780875637E+03  0.10110605078E+04  0.12500000000E+03 0.  0.
          1    1    1    2  501    0 -0.11059081928E+03  0.19564778855E+03 -0.16254969287E+04  0.16409596740E+04  0.00000000000E+00 0.  1.
<mgrwt>
<rscale>  3 0.25716412E+03</rscale>
<asrwt>0</asrwt>
<pdfrwt beam="1">  1       21 0.37472713E-02 0.25716412E+03</pdfrwt>
<pdfrwt beam="2">  1        1 0.40425558E+00 0.25716412E+03</pdfrwt>
<totfact> 0.64035184E+03</totfact>
</mgrwt>
</event>
<event>
 4    0  0.1002184E-001  0.3200233E+03  0.7546771E-02  0.1075639E+00
         -3   -1    0    0    0  501 -0.00000000000E+00  0.00000000000E+00  0.21408928389E+03  0.21408928389E+03  0.00000000000E+00 0.  1.
         21   -1    0    0  501  502  0.00000000000E+00 -0.00000000000E+00 -0.61848480979E+03  0.61848480979E+03  0.00000000000E+00 0. -1.
         25    1    1    2    0    0  0.28199783104E+03 -0.85247605390E+02 -0.43094818012E+03  0.53677859950E+03  0.12500000000E+03 0.  0.
         -3    1    1    2    0  502 -0.28199783104E+03  0.85247605390E+02  0.26552654222E+02  0.29579549419E+03  0.00000000000E+00 0.  1.
<mgrwt>
<rscale>  3 0.32002333E+03</rscale>
<asrwt>0</asrwt>
<pdfrwt beam="1">  1       21 0.95151510E-01 0.32002333E+03</pdfrwt>
<pdfrwt beam="2">  1       -3 0.32936813E-01 0.32002333E+03</pdfrwt>
<totfact> 0.39900633E+02</totfact>
</mgrwt>
</event>
<event>
 4    0  0.1430926E-001  0.2533912E+03  0.7546771E-02  0.1111180E+00
          2   -1    0    0  502    0 -0.00000000000E+00  0.00000000000E+00  0.13019850134E+04  0.13019850134E+04  0.00000000000E+00 0.  1.
         21   -1    0    0  501  502  0.00000000000E+00 -0.00000000000E+00 -0.60152773316E+02  0.60152773316E+02  0.00000000000E+00 0.  1.
         25    1    1    2    0    0 -0.19997069278E+03 -0.92702815482E+02  0.28994622443E+03  0.38506610216E+03  0.12500000000E+03 0.  0.
          2    1    1    2  501    0  0.19997069278E+03  0.92702815482E+02  0.95188601570E+03  0.97707168460E+03  0.00000000000E+00 0.  1.
<mgrwt>
<rscale>  3 0.25339118E+03</rscale>
<asrwt>0</asrwt>
<pdfrwt beam="1">  1       21 0.92542738E-02 0.25339118E+03</pdfrwt>
<pdfrwt beam="2">  1        2 0.20030537E+00 0.25339118E+03</pdfrwt>
<totfact> 0.20551599E+04</totfact>
</mgrwt>
</event>
<event>
 4    0  0.1560397E-001  0.3534487E+03  0.7546771E-02  0.1061208E+00
          1   -1    0    0  502    0 -0.00000000000E+00  0.00000000000E+00  0.11911124210E+04  0.11911124210E+04  0.00000000000E+00 0. -1.
         21   -1    0    0  501  502  0.00000000000E+00 -0.00000000000E+00 -0.21427820491E+03  0.21427820491E+03  0.00000000000E+00 0. -1.
         25    1    1    2    0    0  0.29269981084E+03  0.15371331637E+03 -0.21139948924E+02  0.35408030210E+03  0.12500000000E+03 0.  0.
          1    1    1    2  501    0 -0.29269981084E+03 -0.15371331637E+03  0.99797416497E+03  0.10513103238E+04  0.00000000000E+00 0. -1.
<mgrwt>
<rscale>  3 0.35344867E+03</rscale>
<asrwt>0</asrwt>
<pdfrwt beam="1">  1       21 0.32965878E-01 0.35344867E+03</pdfrwt>
<pdfrwt beam="2">  1        1 0.18324806E+00 0.35344867E+03</pdfrwt>
<totfact> 0.10841408E+03</totfact>
</mgrwt>
</event>
<event>
 4    0  0.1173165E-001  0.2926662E+03  0.7546771E-02  0.1088965E+00
         21   -1    0    0  501  502  0.00000000000E+00  0.00000000000E+00  0.55676171364E+03  0.55676171364E+03  0.00000000000E+00 0. -1.
          1   -1    0    0  502    0 -0.00000000000E+00 -0.00000000000E+00 -0.13984190464E+03  0.13984190464E+03  0.00000000000E+00 0. -1.
         25    1    1    2    0    0  0.20956364076E+03  0.16159086309E+03  0.20067644560E+03  0.35485851037E+03  0.12500000000E+03 0.  0.
          1    1    1    2  501    0 -0.20956364076E+03 -0.16159086309E+03  0.21624336340E+03  0.34174510791E+03  0.00000000000E+00 0. -1.
<mgrwt>
<rscale>  3 0.29266624E+03</rscale>
<asrwt>0</asrwt>
<pdfrwt beam="1">  1       21 0.85655647E-01 0.29266624E+03</pdfrwt>
<pdfrwt beam="2">  1        1 0.21514140E-01 0.29266624E+03</pdfrwt>
<totfact> 0.28584537E+03</totfact>
</mgrwt>
</event>
<event>
 4    0  0.1702283E-001  0.2424149E+03  0.7546771E-02  0.1118194E+00
         -2   -1    0    0    0  501 -0.00000000000E+00  0.00000000000E+00  0.88862578094E+03  0.88862578094E+03  0.00000000000E+00 0.  1.
         21   -1    0    0  501  502  0.00000000000E+00 -0.00000000000E+00 -0.30352203621E+03  0.30352203621E+03  0.00000000000E+00 0.  1.
         25    1    1    2    0    0 -0.91322213125E+01  0.20750079707E+03 -0.24010775674E+03  0.34119893478E+03  0.12500000000E+03 0.  0.
         -2    1    1    2    0  502  0.91322213125E+01 -0.20750079707E+03  0.82521150147E+03  0.85094888237E+03  0.00000000000E+00 0.  1.
<mgrwt>
<rscale>  3 0.24241489E+03</rscale>
<asrwt>0</asrwt>
<pdfrwt beam="1">  1       21 0.46695698E-01 0.24241489E+03</pdfrwt>
<pdfrwt beam="2">  1       -2 0.13671166E+00 0.24241489E+03</pdfrwt>
<totfact> 0.14230351E+02</totfact>
</mgrwt>
</event>
<event>
 4    0  0.1386520E-001  0.2427987E+03  0.7546771E-02  0.1117942E+00
          1   -1    0    0  502    0 -0.00000000000E+00  0.00000000000E+00  0.78557962349E+03  0.78557962349E+03  0.00000000000E+00 0. -1.
         21   -1    0    0  501  502  0.00000000000E+00 -0.00000000000E+00 -0.23500456672E+03  0.23500456672E+03  0.00000000000E+00 0. -1.
         25    1    1    2    0    0 -0.19571944791E+03  0.70852569538E+02 -0.15291971192E+03  0.28694185333E+03  0.12500000000E+03 0.  0.
          1    1    1    2  501    0  0.19571944791E+03 -0.70852569538E+02  0.70349476869E+03  0.73364233689E+03  0.00000000000E+00 0. -1.
<mgrwt>
<rscale>  3 0.24279866E+03</rscale>
<asrwt>0</asrwt>
<pdfrwt beam="1">  1       21 0.36154549E-01 0.24279866E+03</pdfrwt>
<pdfrwt beam="2">  1        1 0.12085840E+00 0.24279866E+03</pdfrwt>
<totfact> 0.19111036E+03</totfact>
</mgrwt>
</event>
<event>
 4    0  0.1002184E-001  0.4210881E+03  0.7546771E-02  0.1036713E+00
         21   -1    0    0  501  502  0.00000000000E+00  0.00000000000E+00  0.25883970238E+03  0.25883970238E+03  0.00000000000E+00 0.  1.
          2   -1    0    0  502    0 -0.00000000000E+00 -0.00000000000E+00 -0.89273090348E+03  0.89273090348E+03  0.00000000000E+00 0. -1.
         25    1    1    2    0    0 -0.14272336501E+03 -0.37592587052E+03 -0.24926460689E+02  0.42182525705E+03  0.12500000000E+03 0.  0.
          2    1    1    2  501    0  0.14272336501E+03  0.37592587052E+03 -0.60896474041E+03  0.72974534881E+03  0.00000000000E+00 0. -1.
<mgrwt>
<rscale>  3 0.42108814E+03</rscale>
<asrwt>0</asrwt>
<pdfrwt beam="1">  1       21 0.39821493E-01 0.42108814E+03</pdfrwt>
<pdfrwt beam="2">  1        2 0.13734322E+00 0.42108814E+03</pdfrwt>
<totfact> 0.21989312E+03</totfact>
</mgrwt>
</event>
<event>
 4    0  0.1603947E-001  0.3079828E+03  0.7546771E-02  0.1081317E+00
         21   -1    0    0  501  502  0.00000000000E+00  0.00000000000E+00  0.88222225197E+02  0.88222225197E+02  0.00000000000E+00 0.  1.
          2   -1    0    0  502    0 -0.00000000000E+00 -0.00000000000E+00 -0.12133891016E+04  0.12133891016E+04  0.00000000000E+00 0.  1.
         25    1    1    2    0    0  0.26014968160E+03  0.10747338941E+03 -0.30075789140E+03  0.43047496502E+03  0.12500000000E+03 0.  0.
          2    1    1    2  501    0 -0.26014968160E+03 -0.10747338941E+03 -0.82440898501E+03  0.87113636179E+03  0.00000000000E+00 0.  1.
<mgrwt>
<rscale>  3 0.30798277E+03</rscale>
<asrwt>0</asrwt>
<pdfrwt beam="1">  1       21 0.13572649E-01 0.30798277E+03</pdfrwt>
<pdfrwt beam="2">  1        2 0.18667525E+00 0.30798277E+03</pdfrwt>
<totfact> 0.11450267E+04</totfact>
</mgrwt>
</event>
<event>
 4    0  0.1124191E-001  0.3540873E+03  0.7546771E-02  0.1060950E+00
         21   -1    0    0  501  502  0.00000000000E+00  0.00000000000E+00  0.17602534276E+03  0.17602534276E+03  0.00000000000E+00 0.  1.
          2   -1    0    0  502    0 -0.00000000000E+00 -0.00000000000E+00 -0.98160736216E+03  0.98160736216E+03  0.00000000000E+00 0. -1.
         25    1    1    2    0    0  0.19442777484E+03 -0.26823621638E+03 -0.84413750564E+02  0.36401031399E+03  0.12500000000E+03 0.  0.
          2    1    1    2  501    0 -0.19442777484E+03  0.26823621638E+03 -0.72116826884E+03  0.79362239093E+03  0.00000000000E+00 0. -1.
<mgrwt>
<rscale>  3 0.35408732E+03</rscale>
<asrwt>0</asrwt>
<pdfrwt beam="1">  1       21 0.27080822E-01 0.35408732E+03</pdfrwt>
<pdfrwt beam="2">  1        2 0.15101652E+00 0.35408732E+03</pdfrwt>
<totfact> 0.42357164E+03</totfact>
</mgrwt>
</event>
<event>
 4    0  0.1514821E-001  0.2750327E+03  0.7546771E-02  0.1098433E+00
          2   -1    0    0  502    0 -0.00000000000E+00  0.00000000000E+00  0.21911319944E+04  0.21911319944E+04  0.00000000000E+00 0. -1.
         21   -1    0    0  501  502  0.00000000000E+00 -0.00000000000E+00 -0.42687680105E+02  0.42687680105E+02  0.00000000000E+00 0. -1.
         25    1    1    2    0    0  0.23764575250E+03 -0.59518578892E+02  0.53172280404E+03  0.59864188398E+03  0.12500000000E+03 0.  0.
          2    1    1    2  501    0 -0.23764575250E+03  0.59518578892E+02  0.16167215103E+04  0.16351777906E+04  0.00000000000E+00 0. -1.
<mgrwt>
<rscale>  3 0.27503266E+03</rscale>
<asrwt>0</asrwt>
<pdfrwt beam="1">  1       21 0.65673371E-02 0.27503266E+03</pdfrwt>
<pdfrwt beam="2">  1        2 0.33709714E+00 0.27503266E+03</pdfrwt>
<totfact> 0.12550160E+04</totfact>
</mgrwt>
</event>
<event>
 4    0  0.1474023E-001  0.4474771E+03  0.7546771E-02  0.1028477E+00
         21   -1    0    0  501  502  0.00000000000E+00  0.00000000000E+00  0.19960338125E+03  0.19960338125E+03  0.00000000000E+00 0. -1.
          2   -1    0    0  502    0 -0.00000000000E+00 -0.00000000000E+00 -0.96901774326E+03  0.96901774326E+03  0.00000000000E+00 0. -1.
         25    1    1    2    0    0  0.33473732408E+03 -0.26937277911E+03 -0.34891889904E+03  0.56743296376E+03  0.12500000000E+03 0.  0.
          2    1    1    2  501    0 -0.33473732408E+03  0.26937277911E+03 -0.42049546296E+03  0.60118816075E+03  0.00000000000E+00 0. -1.
<mgrwt>
<rscale>  3 0.44747712E+03</rscale>
<asrwt>0</asrwt>
<pdfrwt beam="1">  1       21 0.30708212E-01 0.44747712E+03</pdfrwt>
<pdfrwt beam="2">  1        2 0.14907965E+00 0.44747712E+03</pdfrwt>
<totfact> 0.33006822E+03</totfact>
</mgrwt>
</event>
<event>
 4    0  0.1490155E-001  0.2773078E+03  0.7546771E-02  0.1097169E+00
         -3   -1    0    0    0  501 -0.00000000000E+00  0.00000000000E+00  0.14497428729E+04  0.14497428729E+04  0.00000000000E+00 0.  1.
         21   -1    0    0  501  502  0.00000000000E+00 -0.00000000000E+00 -0.52281659348E+03  0.52281659348E+03  0.00000000000E+00 0. -1.
         25    1    1    2    0    0  0.36119945996E+02  0.24488767356E+03 -0.47441825603E+03  0.54952006771E+03  0.12500000000E+03 0.  0.
         -3    1    1    2    0  502 -0.36119945996E+02 -0.24488767356E+03  0.14013445354E+04  0.14230393987E+04  0.00000000000E+00 0.  1.
<mgrwt>
<rscale>  3 0.27730781E+03</rscale>
<asrwt>0</asrwt>
<pdfrwt beam="1">  1       21 0.80433322E-01 0.27730781E+03</pdfrwt>
<pdfrwt beam="2">  1       -3 0.22303736E+00 0.27730781E+03</pdfrwt>
<totfact> 0.74797823E+00</totfact>
</mgrwt>
</event>
<event>
 4    0  0.1308804E-001  0.2530100E+03  0.7546771E-02  0.1111417E+00
          2   -1    0    0  502    0 -0.00000000000E+00  0.00000000000E+00  0.24519815291E+04  0.24519815291E+04  0.00000000000E+00 0. -1.
         21   -1    0    0  501  502  0.00000000000E+00 -0.00000000000E+00 -0.53204138423E+02  0.53204138423E+02  0.00000000000E+00 0. -1.
         25    1    1    2    0    0  0.10535899587E+03  0.19310235240E+03  0.28954332444E+03  0.38451186359E+03  0.12500000000E+03 0.  0.
          2    1    1    2  501    0 -0.10535899587E+03 -0.19310235240E+03  0.21092340662E+04  0.21206738039E+04  0.00000000000E+00 0. -1.
<mgrwt>
<rscale>  3 0.25300995E+03</rscale>
<asrwt>0</asrwt>
<pdfrwt beam="1">  1       21 0.81852539E-02 0.25300995E+03</pdfrwt>
<pdfrwt beam="2">  1        2 0.37722784E+00 0.25300995E+03</pdfrwt>
<totfact> 0.62390916E+03</totfact>
</mgrwt>
</event>
<event>
 4    0  0.1002184E-001  0.2514832E+03  0.7546771E-02  0.1112371E+00
          2   -1    0    0  502    0 -0.00000000000E+00  0.00000000000E+00  0.88438901873E+02  0.88438901873E+02  0.00000000000E+00 0.  1.
         21   -1    0    0  501  502  0.00000000000E+00 -0.00000000000E+00 -0.12258539730E+04  0.12258539730E+04  0.00000000000E+00 0.  1.
         25    1    1    2    0    0 -0.78912293287E+02  0.20344933663E+03 -0.10492020231E+04  0.10789201397E+04  0.12500000000E+03 0.  0.
          2    1    1    2  501    0  0.78912293287E+02 -0.20344933663E+03 -0.88213047998E+02  0.23537273513E+03  0.00000000000E+00 0.  1.
<mgrwt>
<rscale>  3 0.25148317E+03</rscale>
<asrwt>0</asrwt>
<pdfrwt beam="1">  1       21 0.18859291E+00 0.25148317E+03</pdfrwt>
<pdfrwt beam="2">  1        2 0.13605986E-01 0.25148317E+03</pdfrwt>
<totfact> 0.82102250E+02</totfact>
</mgrwt>
</event>
<event>
 4    0  0.1180793E-001  0.2482612E+03  0.7546771E-02  0.1114409E+00
          2   -1    0    0  502    0 -0.00000000000E+00  0.00000000000E+00  0.29371260457E+03  0.29371260457E+03  0.00000000000E+00 0.  1.
         21   -1    0    0  501  502  0.00000000000E+00 -0.00000000000E+00 -0.22829946442E+03  0.22829946442E+03  0.00000000000E+00 0.  1.
         25    1    1    2    0    0  0.91109924020E+02  0.19418451790E+03 -0.82330765160E+02  0.26155687745E+03  0.12500000000E+03 0.  0.
          2    1    1    2  501    0 -0.91109924020E+02 -0.19418451790E+03  0.14774390530E+03  0.26045519154E+03  0.00000000000E+00 0.  1.
<mgrwt>
<rscale>  3 0.24826124E+03</rscale>
<asrwt>0</asrwt>
<pdfrwt beam="1">  1       21 0.35122995E-01 0.24826124E+03</pdfrwt>
<pdfrwt beam="2">  1        2 0.45186554E-01 0.24826124E+03</pdfrwt>
<totfact> 0.10721562E+04</totfact>
</mgrwt>
</event>
<event>
 4    0  0.1410136E-001  0.3013554E+03  0.7546771E-02  0.1084565E+00
          2   -1    0    0  502    0 -0.00000000000E+00  0.00000000000E+00  0.15536552712E+04  0.15536552712E+04  0.00000000000E+00 0. -1.
         21   -1    0    0  501  502  0.00000000000E+00 -0.00000000000E+00 -0.93727281884E+02  0.93727281884E+02  0.00000000000E+00 0. -1.
         25    1    1    2    0    0 -0.52562407954E+01 -0.27415769827E+03  0.12901307905E+04  0.13248594371E+04  0.12500000000E+03 0.  0.
          2    1    1    2  501    0  0.52562407954E+01  0.27415769827E+03  0.16979719880E+03  0.32252311592E+03  0.00000000000E+00 0. -1.
<mgrwt>
<rscale>  3 0.30135539E+03</rscale>
<asrwt>0</asrwt>
<pdfrwt beam="1">  1       21 0.14419583E-01 0.30135539E+03</pdfrwt>
<pdfrwt beam="2">  1        2 0.23902387E+00 0.30135539E+03</pdfrwt>
<totfact> 0.66724282E+03</totfact>
</mgrwt>
</event>
<event>
 4    0  0.1298064E-001  0.2496340E+03  0.7546771E-02  0.1113536E+00
          2   -1    0    0  502    0 -0.00000000000E+00  0.00000000000E+00  0.12824861546E+03  0.12824861546E+03  0.00000000000E+00 0. -1.
         21   -1    0    0  501  502  0.00000000000E+00 -0.00000000000E+00 -0.42897264319E+03  0.42897264319E+03  0.00000000000E+00 0. -1.
         25    1    1    2    0    0 -0.11216026221E+03 -0.18469490841E+03 -0.19437959501E+03  0.31638672628E+03  0.12500000000E+03 0.  0.
          2    1    1    2  501    0  0.11216026221E+03  0.18469490841E+03 -0.10634443272E+03  0.24083453237E+03  0.00000000000E+00 0. -1.
<mgrwt>
<rscale>  3 0.24963400E+03</rscale>
<asrwt>0</asrwt>
<pdfrwt beam="1">  1       21 0.65995792E-01 0.24963400E+03</pdfrwt>
<pdfrwt beam="2">  1        2 0.19730556E-01 0.24963400E+03</pdfrwt>
<totfact> 0.71780720E+03</totfact>
</mgrwt>
</event>
<event>
 4    0  0.1694529E-001  0.2706872E+03  0.7546771E-02  0.1100887E+00
         21   -1    0    0  501  502  0.00000000000E+00  0.00000000000E+00  0.29821677714E+02  0.29821677714E+02  0.00000000000E+00 0. -1.
          1   -1    0    0  502    0 -0.00000000000E+00 -0.00000000000E+00 -0.23122249937E+04  0.23122249937E+04  0.00000000000E+00 0. -1.
         25    1    1    2    0    0  0.39903613107E+02 -0.23675778605E+03 -0.93398035092E+03  0.97241495438E+03  0.12500000000E+03 0.  0.
          1    1    1    2  501    0 -0.39903613107E+02  0.23675778605E+03 -0.13484229650E+04  0.13696317170E+04  0.00000000000E+00 0. -1.
<mgrwt>
<rscale>  3 0.27068718E+03</rscale>
<asrwt>0</asrwt>
<pdfrwt beam="1">  1       21 0.45879499E-02 0.27068718E+03</pdfrwt>
<pdfrwt beam="2">  1        1 0.35572696E+00 0.27068718E+03</pdfrwt>
<totfact> 0.73294442E+03</totfact>
</mgrwt>
</event>
<event>
 4    0  0.1619667E-001  0.2697950E+03  0.7546771E-02  0.1101397E+00
         21   -1    0    0  501  502  0.00000000000E+00  0.00000000000E+00  0.10367378677E+03  0.10367378677E+03  0.00000000000E+00 0. -1.
          2   -1    0    0  502    0 -0.00000000000E+00 -0.00000000000E+00 -0.10097765597E+04  0.10097765597E+04  0.00000000000E+00 0. -1.
         25    1    1    2    0    0  0.18609718576E+03 -0.15010729482E+03 -0.12644426704E+03  0.29795555906E+03  0.12500000000E+03 0.  0.
          2    1    1    2  501    0 -0.18609718576E+03  0.15010729482E+03 -0.77965850583E+03  0.81549478737E+03  0.00000000000E+00 0. -1.
<mgrwt>
<rscale>  3 0.26979504E+03</rscale>
<asrwt>0</asrwt>
<pdfrwt beam="1">  1       21 0.15949813E-01 0.26979504E+03</pdfrwt>
<pdfrwt beam="2">  1        2 0.15535024E+00 0.26979504E+03</pdfrwt>
<totfact> 0.11319760E+04</totfact>
</mgrwt>
</event>
<event>
 4    0  0.1478410E-001  0.2448894E+03  0.7546771E-02  0.1116578E+00
         21   -1    0    0  501  502  0.00000000000E+00  0.00000000000E+00  0.93589186061E+02  0.93589186061E+02  0.00000000000E+00 0.  1.
          2   -1    0    0  502    0 -0.00000000000E+00 -0.00000000000E+00 -0.82925535703E+03  0.82925535703E+03  0.00000000000E+00 0.  1.
         25    1    1    2    0    0  0.25083104856E+02  0.20908524050E+03 -0.12109088072E+03  0.27319187641E+03  0.12500000000E+03 0.  0.
          2    1    1    2  501    0 -0.25083104856E+02 -0.20908524050E+03 -0.61457529026E+03  0.64965266669E+03  0.00000000000E+00 0.  1.
<mgrwt>
<rscale>  3 0.24488936E+03</rscale>
<asrwt>0</asrwt>
<pdfrwt beam="1">  1       21 0.14398337E-01 0.24488936E+03</pdfrwt>
<pdfrwt beam="2">  1        2 0.12757774E+00 0.24488936E+03</pdfrwt>
<totfact> 0.17923541E+04</totfact>
</mgrwt>
</event>
<event>
 4    0  0.1396156E-001  0.2747455E+03  0.7546771E-02  0.1098594E+00
         21   -1    0    0  501  502  0.00000000000E+00  0.00000000000E+00  0.24591610102E+03  0.24591610102E+03  0.00000000000E+00 0.  1.
         -1   -1    0    0    0  501 -0.00000000000E+00 -0.00000000000E+00 -0.27465485837E+03  0.27465485837E+03  0.00000000000E+00 0.  1.
         25    1    1    2    0    0  0.24353685013E+03  0.23449397780E+02 -0.54184340567E+01  0.27479889202E+03  0.12500000000E+03 0.  0.
         -1    1    1    2    0  502 -0.24353685013E+03 -0.23449397780E+02 -0.23320323289E+02  0.24577206738E+03  0.00000000000E+00 0.  1.
<mgrwt>
<rscale>  3 0.27474547E+03</rscale>
<asrwt>0</asrwt>
<pdfrwt beam="1">  1       21 0.37833246E-01 0.27474547E+03</pdfrwt>
<pdfrwt beam="2">  1       -1 0.42254594E-01 0.27474547E+03</pdfrwt>
<totfact> 0.34072378E+03</totfact>
</mgrwt>
</event>
<event>
 4    0  0.1002184E-001  0.2618659E+03  0.7546771E-02  0.1106027E+00
         21   -1    0    0  501  502  0.00000000000E+00  0.00000000000E+00  0.15332937137E+04  0.15332937137E+04  0.00000000000E+00 0. -1.
          2   -1    0    0  502    0 -0.00000000000E+00 -0.00000000000E+00 -0.77667184150E+02  0.77667184150E+02  0.00000000000E+00 0.  1.
         25    1    1    2    0    0 -0.16233507454E+03 -0.16308301647E+03  0.13160111438E+04  0.13418118636E+04  0.12500000000E+03 0.  0.
          2    1    1    2  501    0  0.16233507454E+03  0.16308301647E+03  0.13961538570E+03  0.26914903421E+03  0.00000000000E+00 0.  1.
<mgrwt>
<rscale>  3 0.26186589E+03</rscale>
<asrwt>0</asrwt>
<pdfrwt beam="1">  1       21 0.23589132E+00 0.26186589E+03</pdfrwt>
<pdfrwt beam="2">  1        2 0.11948799E-01 0.26186589E+03</pdfrwt>
<totfact> 0.47883157E+02</totfact>
</mgrwt>
</event>
<event>
 4    0  0.1002184E-001  0.2404486E+03  0.7546771E-02  0.1119494E+00
         21   -1    0    0  501  502  0.00000000000E+00  0.00000000000E+00  0.11674879430E+04  0.11674879430E+04  0.00000000000E+00 0. -1.
          1   -1    0    0  502    0 -0.00000000000E+00 -0.00000000000E+00 -0.14997576378E+03  0.14997576378E+03  0.00000000000E+00 0. -1.
         25    1    1    2    0    0 -0.17687606767E+03 -0.10442884085E+03  0.10770836436E+04  0.11035962584E+04  0.12500000000E+03 0.  0.
          1    1    1    2  501    0  0.17687606767E+03  0.10442884085E+03 -0.59571464409E+02  0.21386744841E+03  0.00000000000E+00 0. -1.
<mgrwt>
<rscale>  3 0.24044859E+03</rscale>
<asrwt>0</asrwt>
<pdfrwt beam="1">  1       21 0.17961352E+00 0.24044859E+03</pdfrwt>
<pdfrwt beam="2">  1        1 0.23073195E-01 0.24044859E+03</pdfrwt>
<totfact> 0.40623974E+02</totfact>
</mgrwt>
</event>
<event>
 4    0  0.1396043E-001  0.2887862E+03  0.7546771E-02  0.1090985E+00
          2   -1    0    0  502    0 -0.00000000000E+00  0.00000000000E+00  0.48160662433E+03  0.48160662433E+03  0.00000000000E+00 0. -1.
         21   -1    0    0  501  502  0.00000000000E+00 -0.00000000000E+00 -0.42527633885E+03  0.42527633885E+03  0.00000000000E+00 0. -1.
         25    1    1    2    0    0 -0.26003411522E+03 -0.12439227719E+02 -0.33158402365E+03  0.43971063236E+03  0.12500000000E+03 0.  0.
          2    1    1    2  501    0  0.26003411522E+03  0.12439227719E+02  0.38791430913E+03  0.46717233083E+03  0.00000000000E+00 0. -1.
<mgrwt>
<rscale>  3 0.28878621E+03</rscale>
<asrwt>0</asrwt>
<pdfrwt beam="1">  1       21 0.65427129E-01 0.28878621E+03</pdfrwt>
<pdfrwt beam="2">  1        2 0.74093327E-01 0.28878621E+03</pdfrwt>
<totfact> 0.16814873E+03</totfact>
</mgrwt>
</event>
<event>
 4    0  0.1220898E-001  0.3334089E+03  0.7546771E-02  0.1069638E+00
         21   -1    0    0  501  502  0.00000000000E+00  0.00000000000E+00  0.44534658073E+03  0.44534658073E+03  0.00000000000E+00 0. -1.
          3   -1    0    0  502    0 -0.00000000000E+00 -0.00000000000E+00 -0.23333142586E+03  0.23333142586E+03  0.00000000000E+00 0. -1.
         25    1    1    2    0    0  0.27394688451E+03  0.14314185805E+03  0.13806602508E+03  0.36086523017E+03  0.12500000000E+03 0.  0.
          3    1    1    2  501    0 -0.27394688451E+03 -0.14314185805E+03  0.73949129785E+02  0.31781277642E+03  0.00000000000E+00 0. -1.
<mgrwt>
<rscale>  3 0.33340889E+03</rscale>
<asrwt>0</asrwt>
<pdfrwt beam="1">  1       21 0.68514859E-01 0.33340889E+03</pdfrwt>
<pdfrwt beam="2">  1        3 0.35897142E-01 0.33340889E+03</pdfrwt>
<totfact> 0.71825729E+02</totfact>
</mgrwt>
</event>
<event>
 4    0  0.1002184E-001  0.3418439E+03  0.7546771E-02  0.1066013E+00
         21   -1    0    0  501  502  0.00000000000E+00  0.00000000000E+00  0.78560314010E+02  0.78560314010E+02  0.00000000000E+00 0.  1.
          2   -1    0    0  502    0 -0.00000000000E+00 -0.00000000000E+00 -0.16093719426E+04  0.16093719426E+04  0.00000000000E+00 0. -1.
         25    1    1    2    0    0  0.88284003918E+02 -0.30567660215E+03 -0.47498678906E+03  0.58520910812E+03  0.12500000000E+03 0.  0.
          2    1    1    2  501    0 -0.88284003918E+02  0.30567660215E+03 -0.10558248396E+04  0.11027231485E+04  0.00000000000E+00 0. -1.
<mgrwt>
<rscale>  3 0.34184390E+03</rscale>
<asrwt>0</asrwt>
<pdfrwt beam="1">  1       21 0.12086203E-01 0.34184390E+03</pdfrwt>
<pdfrwt beam="2">  1        2 0.24759567E+00 0.34184390E+03</pdfrwt>
<totfact> 0.85050980E+03</totfact>
</mgrwt>
</event>
<event>
 4    0  0.1002184E-001  0.2498725E+03  0.7546771E-02  0.1113385E+00
         21   -1    0    0  501  502  0.00000000000E+00  0.00000000000E+00  0.14205208818E+03  0.14205208818E+03  0.00000000000E+00 0. -1.
         -1   -1    0    0    0  501 -0.00000000000E+00 -0.00000000000E+00 -0.75280018239E+03  0.75280018239E+03  0.00000000000E+00 0.  1.
         25    1    1    2    0    0  0.21355557076E+03 -0.34717344644E+02 -0.31612195353E+01  0.24989251516E+03  0.12500000000E+03 0.  0.
         -1    1    1    2    0  502 -0.21355557076E+03  0.34717344644E+02 -0.60758687468E+03  0.64495975541E+03  0.00000000000E+00 0.  1.
<mgrwt>
<rscale>  3 0.24987252E+03</rscale>
<asrwt>0</asrwt>
<pdfrwt beam="1">  1       21 0.21854167E-01 0.24987252E+03</pdfrwt>
<pdfrwt beam="2">  1       -1 0.11581541E+00 0.24987252E+03</pdfrwt>
<totfact> 0.12988390E+03</totfact>
</mgrwt>
</event>
<event>
 4    0  0.1418447E-001  0.2366740E+03  0.7546771E-02  0.1122029E+00
         21   -1    0    0  501  502  0.00000000000E+00  0.00000000000E+00  0.38661288524E+03  0.38661288524E+03  0.00000000000E+00 0.  1.
          1   -1    0    0  502    0 -0.00000000000E+00 -0.00000000000E+00 -0.50347284667E+03  0.50347284667E+03  0.00000000000E+00 0. -1.
         25    1    1    2    0    0  0.71337573758E+01  0.20084490818E+03  0.32652618122E+03  0.40327895389E+03  0.12500000000E+03 0.  0.
          1    1    1    2  501    0 -0.71337573758E+01 -0.20084490818E+03 -0.44338614264E+03  0.48680677801E+03  0.00000000000E+00 0. -1.
<mgrwt>
<rscale>  3 0.23667397E+03</rscale>
<asrwt>0</asrwt>
<pdfrwt beam="1">  1       21 0.59478906E-01 0.23667397E+03</pdfrwt>
<pdfrwt beam="2">  1        1 0.77457360E-01 0.23667397E+03</pdfrwt>
<totfact> 0.12795465E+03</totfact>
</mgrwt>
</event>
<event>
 4    0  0.1002184E-001  0.3226311E+03  0.7546771E-02  0.1074445E+00
          1   -1    0    0  502    0 -0.00000000000E+00  0.00000000000E+00  0.35516860152E+04  0.35516860152E+04  0.00000000000E+00 0.  1.
         21   -1    0    0  501  502  0.00000000000E+00 -0.00000000000E+00 -0.56960028007E+03  0.56960028007E+03  0.00000000000E+00 0. -1.
         25    1    1    2    0    0 -0.28092012610E+03 -0.97722640844E+02 -0.51709357291E+03  0.60948879803E+03  0.12500000000E+03 0.  0.
          1    1    1    2  501    0  0.28092012610E+03  0.97722640844E+02  0.34991793080E+04  0.35117974972E+04  0.00000000000E+00 0.  1.
<mgrwt>
<rscale>  3 0.32263111E+03</rscale>
<asrwt>0</asrwt>
<pdfrwt beam="1">  1       21 0.87630815E-01 0.32263111E+03</pdfrwt>
<pdfrwt beam="2">  1        1 0.54641322E+00 0.32263111E+03</pdfrwt>
<totfact> 0.32594547E+00</totfact>
</mgrwt>
</event>
<event>
 4    0  0.1624218E-001  0.2527050E+03  0.7546771E-02  0.1111607E+00
         21   -1    0    0  501  502  0.00000000000E+00  0.00000000000E+00  0.36787700765E+03  0.36787700765E+03  0.00000000000E+00 0.  1.
         -2   -1    0    0    0  501 -0.00000000000E+00 -0.00000000000E+00 -0.40949185991E+03  0.40949185991E+03  0.00000000000E+00 0.  1.
         25    1    1    2    0    0  0.13268955351E+03 -0.17500946038E+03  0.28682304642E+03  0.38226599220E+03  0.12500000000E+03 0.  0.
         -2    1    1    2    0  502 -0.13268955351E+03  0.17500946038E+03 -0.32843789868E+03  0.39510287536E+03  0.00000000000E+00 0.  1.
<mgrwt>
<rscale>  3 0.25270502E+03</rscale>
<asrwt>0</asrwt>
<pdfrwt beam="1">  1       21 0.56596463E-01 0.25270502E+03</pdfrwt>
<pdfrwt beam="2">  1       -2 0.62998748E-01 0.25270502E+03</pdfrwt>
<totfact> 0.55809581E+02</totfact>
</mgrwt>
</event>
<event>
 4    0  0.1002184E-001  0.4009170E+03  0.7546771E-02  0.1043463E+00
         21   -1    0    0  501  502  0.00000000000E+00  0.00000000000E+00  0.66566022359E+03  0.66566022359E+03  0.00000000000E+00 0. -1.
          2   -1    0    0  502    0 -0.00000000000E+00 -0.00000000000E+00 -0.41042650124E+03  0.41042650124E+03  0.00000000000E+00 0.  1.
         25    1    1    2    0    0  0.30095826748E+03  0.23352421580E+03  0.48652978915E+03  0.63043292574E+03  0.12500000000E+03 0.  0.
          2    1    1    2  501    0 -0.30095826748E+03 -0.23352421580E+03 -0.23129606680E+03  0.44565379909E+03  0.00000000000E+00 0.  1.
<mgrwt>
<rscale>  3 0.40091700E+03</rscale>
<asrwt>0</asrwt>
<pdfrwt beam="1">  1       21 0.10240927E+00 0.40091700E+03</pdfrwt>
<pdfrwt beam="2">  1        2 0.63142539E-01 0.40091700E+03</pdfrwt>
<totfact> 0.69048770E+02</totfact>
</mgrwt>
</event>
<event>
 4    0  0.1014279E-001  0.3065462E+03  0.7546771E-02  0.1082013E+00
         21   -1    0    0  501  502  0.00000000000E+00  0.00000000000E+00  0.12557551976E+04  0.12557551976E+04  0.00000000000E+00 0.  1.
         -1   -1    0    0    0  501 -0.00000000000E+00 -0.00000000000E+00 -0.25303016144E+03  0.25303016144E+03  0.00000000000E+00 0. -1.
         25    1    1    2    0    0  0.18292170397E+03 -0.21186137039E+03  0.11516358525E+04  0.11917364334E+04  0.12500000000E+03 0.  0.
         -1    1    1    2    0  502 -0.18292170397E+03  0.21186137039E+03 -0.14891081628E+03  0.31704892565E+03  0.00000000000E+00 0. -1.
<mgrwt>
<rscale>  3 0.30654623E+03</rscale>
<asrwt>0</asrwt>
<pdfrwt beam="1">  1       21 0.19319310E+00 0.30654623E+03</pdfrwt>
<pdfrwt beam="2">  1       -1 0.38927718E-01 0.30654623E+03</pdfrwt>
<totfact> 0.81942030E+01</totfact>
</mgrwt>
</event>
<event>
 4    0  0.1002405E-001  0.2751573E+03  0.7546771E-02  0.1098364E+00
         21   -1    0    0  501  502  0.00000000000E+00  0.00000000000E+00  0.10354690784E+04  0.10354690784E+04  0.00000000000E+00 0. -1.
          1   -1    0    0  502    0 -0.00000000000E+00 -0.00000000000E+00 -0.10469333835E+03  0.10469333835E+03  0.00000000000E+00 0. -1.
         25    1    1    2    0    0 -0.46288242378E+02  0.24071546559E+03  0.83124180083E+03  0.87559949075E+03  0.12500000000E+03 0.  0.
          1    1    1    2  501    0  0.46288242378E+02 -0.24071546559E+03  0.99533939227E+02  0.26456292600E+03  0.00000000000E+00 0. -1.
<mgrwt>
<rscale>  3 0.27515729E+03</rscale>
<asrwt>0</asrwt>
<pdfrwt beam="1">  1       21 0.15930293E+00 0.27515729E+03</pdfrwt>
<pdfrwt beam="2">  1        1 0.16106668E-01 0.27515729E+03</pdfrwt>
<totfact> 0.88918199E+02</totfact>
</mgrwt>
</event>
<event>
 4    0  0.1034335E-001  0.3032530E+03  0.7546771E-02  0.1083626E+00
         21   -1    0    0  501  502  0.00000000000E+00  0.00000000000E+00  0.59517380242E+03  0.59517380242E+03  0.00000000000E+00 0. -1.
         -1   -1    0    0    0  501 -0.00000000000E+00 -0.00000000000E+00 -0.32780910378E+03  0.32780910378E+03  0.00000000000E+00 0.  1.
         25    1    1    2    0    0 -0.69320859958E+02 -0.26745467531E+03  0.48449954464E+03  0.57157868551E+03  0.12500000000E+03 0.  0.
         -1    1    1    2    0  502  0.69320859958E+02  0.26745467531E+03 -0.21713484601E+03  0.35140422069E+03  0.00000000000E+00 0.  1.
<mgrwt>
<rscale>  3 0.30325300E+03</rscale>
<asrwt>0</asrwt>
<pdfrwt beam="1">  1       21 0.91565200E-01 0.30325300E+03</pdfrwt>
<pdfrwt beam="2">  1       -1 0.50432170E-01 0.30325300E+03</pdfrwt>
<totfact> 0.35916705E+02</totfact>
</mgrwt>
</event>
<event>
 4    0  0.1307156E-001  0.2802640E+03  0.7546771E-02  0.1095545E+00
          2   -1    0    0  502    0 -0.00000000000E+00  0.00000000000E+00  0.39879003156E+03  0.39879003156E+03  0.00000000000E+00 0.  1.
         21   -1    0    0  501  502  0.00000000000E+00 -0.00000000000E+00 -0.47839455197E+03  0.47839455197E+03  0.00000000000E+00 0. -1.
         25    1    1    2    0    0  0.18342324775E+03  0.17111052978E+03 -0.38864173163E+03  0.47915581681E+03  0.12500000000E+03 0.  0.
          2    1    1    2  501    0 -0.18342324775E+03 -0.17111052978E+03  0.30903721122E+03  0.39802876672E+03  0.00000000000E+00 0.  1.
<mgrwt>
<rscale>  3 0.28026398E+03</rscale>
<asrwt>0</asrwt>
<pdfrwt beam="1">  1       21 0.73599162E-01 0.28026398E+03</pdfrwt>
<pdfrwt beam="2">  1        2 0.61352313E-01 0.28026398E+03</pdfrwt>
<totfact> 0.15992114E+03</totfact>
</mgrwt>
</event>
<event>
 4    0  0.1818612E-001  0.2690240E+03  0.7546771E-02  0.1101839E+00
         21   -1    0    0  501  502  0.00000000000E+00  0.00000000000E+00  0.50858698976E+02  0.50858698976E+02  0.00000000000E+00 0.  1.
         -2   -1    0    0    0  501 -0.00000000000E+00 -0.00000000000E+00 -0.18958333087E+04  0.18958333087E+04  0.00000000000E+00 0.  1.
         25    1    1    2    0    0 -0.74710772050E+02  0.22620176726E+03 -0.39897869166E+03  0.48120467098E+03  0.12500000000E+03 0.  0.
         -2    1    1    2    0  502  0.74710772050E+02 -0.22620176726E+03 -0.14459959181E+04  0.14654873367E+04  0.00000000000E+00 0.  1.
<mgrwt>
<rscale>  3 0.26902405E+03</rscale>
<asrwt>0</asrwt>
<pdfrwt beam="1">  1       21 0.78244163E-02 0.26902405E+03</pdfrwt>
<pdfrwt beam="2">  1       -2 0.29166662E+00 0.26902405E+03</pdfrwt>
<totfact> 0.41742239E+02</totfact>
</mgrwt>
</event>
<event>
 4    0  0.1002184E-001  0.3145310E+03  0.7546771E-02  0.1078194E+00
         21   -1    0    0  501  502  0.00000000000E+00  0.00000000000E+00  0.18849665996E+04  0.18849665996E+04  0.00000000000E+00 0.  1.
          1   -1    0    0  502    0 -0.00000000000E+00 -0.00000000000E+00 -0.11955136906E+03  0.11955136906E+03  0.00000000000E+00 0.  1.
         25    1    1    2    0    0 -0.18336702895E+03  0.22289295592E+03  0.16717398842E+04  0.17010714205E+04  0.12500000000E+03 0.  0.
          1    1    1    2  501    0  0.18336702895E+03 -0.22289295592E+03  0.93675346339E+02  0.30344654820E+03  0.00000000000E+00 0.  1.
<mgrwt>
<rscale>  3 0.31453098E+03</rscale>
<asrwt>0</asrwt>
<pdfrwt beam="1">  1       21 0.28999484E+00 0.31453098E+03</pdfrwt>
<pdfrwt beam="2">  1        1 0.18392520E-01 0.31453098E+03</pdfrwt>
<totfact> 0.10759700E+02</totfact>
</mgrwt>
</event>
<event>
 4    0  0.1002184E-001  0.2543465E+03  0.7546771E-02  0.1110588E+00
         21   -1    0    0  501  502  0.00000000000E+00  0.00000000000E+00  0.13528259209E+03  0.13528259209E+03  0.00000000000E+00 0. -1.
         -1   -1    0    0    0  501 -0.00000000000E+00 -0.00000000000E+00 -0.42312342563E+03  0.42312342563E+03  0.00000000000E+00 0.  1.
         25    1    1    2    0    0  0.22017101899E+03  0.24328572885E+02 -0.18298981399E+03  0.31333277691E+03  0.12500000000E+03 0.  0.
         -1    1    1    2    0  502 -0.22017101899E+03 -0.24328572885E+02 -0.10485101955E+03  0.24507324081E+03  0.00000000000E+00 0.  1.
<mgrwt>
<rscale>  3 0.25434653E+03</rscale>
<asrwt>0</asrwt>
<pdfrwt beam="1">  1       21 0.20812707E-01 0.25434653E+03</pdfrwt>
<pdfrwt beam="2">  1       -1 0.65095911E-01 0.25434653E+03</pdfrwt>
<totfact> 0.48775613E+03</totfact>
</mgrwt>
</event>
<event>
 4    0  0.1386815E-001  0.2580724E+03  0.7546771E-02  0.1108307E+00
          2   -1    0    0  502    0 -0.00000000000E+00  0.00000000000E+00  0.20892130553E+04  0.20892130553E+04  0.00000000000E+00 0. -1.
         21   -1    0    0  501  502  0.00000000000E+00 -0.00000000000E+00 -0.14141223282E+03  0.14141223282E+03  0.00000000000E+00 0. -1.
         25    1    1    2    0    0  0.15251678493E+03  0.16647818346E+03 -0.11528970490E+02  0.25832977454E+03  0.12500000000E+03 0.  0.
          2    1    1    2  501    0 -0.15251678493E+03 -0.16647818346E+03  0.19593297930E+04  0.19722955136E+04  0.00000000000E+00 0. -1.
<mgrwt>
<rscale>  3 0.25807238E+03</rscale>
<asrwt>0</asrwt>
<pdfrwt beam="1">  1       21 0.21755730E-01 0.25807238E+03</pdfrwt>
<pdfrwt beam="2">  1        2 0.32141737E+00 0.25807238E+03</pdfrwt>
<totfact> 0.16441235E+03</totfact>
</mgrwt>
</event>
<event>
 4    0  0.1002184E-001  0.3252387E+03  0.7546771E-02  0.1073263E+00
         21   -1    0    0  501  502  0.00000000000E+00  0.00000000000E+00  0.83383519306E+03  0.83383519306E+03  0.00000000000E+00 0.  1.
         -3   -1    0    0    0  501 -0.00000000000E+00 -0.00000000000E+00 -0.27938402121E+03  0.27938402121E+03  0.00000000000E+00 0. -1.
         25    1    1    2    0    0  0.12381106465E+03 -0.27354350337E+03  0.70568286619E+03  0.77702544077E+03  0.12500000000E+03 0.  0.
         -3    1    1    2    0  502 -0.12381106465E+03  0.27354350337E+03 -0.15123169434E+03  0.33619377350E+03  0.00000000000E+00 0. -1.
<mgrwt>
<rscale>  3 0.32523872E+03</rscale>
<asrwt>0</asrwt>
<pdfrwt beam="1">  1       21 0.12828234E+00 0.32523872E+03</pdfrwt>
<pdfrwt beam="2">  1       -3 0.42982158E-01 0.32523872E+03</pdfrwt>
<totfact> 0.11375432E+02</totfact>
</mgrwt>
</event>
<event>
 4    0  0.1610536E-001  0.2458351E+03  0.7546771E-02  0.1115966E+00
          2   -1    0    0  502    0 -0.00000000000E+00  0.00000000000E+00  0.14617229746E+04  0.14617229746E+04  0.00000000000E+00 0. -1.
         21   -1    0    0  501  502  0.00000000000E+00 -0.00000000000E+00 -0.36742062768E+02  0.36742062768E+02  0.00000000000E+00 0. -1.
         25    1    1    2    0    0 -0.21146235531E+03  0.96736143438E+01  0.88390691361E+03  0.91745645044E+03  0.12500000000E+03 0.  0.
          2    1    1    2  501    0  0.21146235531E+03 -0.96736143438E+01  0.54107399818E+03  0.58100858688E+03  0.00000000000E+00 0. -1.
<mgrwt>
<rscale>  3 0.24583512E+03</rscale>
<asrwt>0</asrwt>
<pdfrwt beam="1">  1       21 0.56526261E-02 0.24583512E+03</pdfrwt>
<pdfrwt beam="2">  1        2 0.22488041E+00 0.24583512E+03</pdfrwt>
<totfact> 0.39736613E+04</totfact>
</mgrwt>
</event>
<event>
 4    0  0.1002184E-001  0.2604095E+03  0.7546771E-02  0.1106897E+00
          1   -1    0    0  502    0 -0.00000000000E+00  0.00000000000E+00  0.46957985243E+03  0.46957985243E+03  0.00000000000E+00 0. -1.
         21   -1    0    0  501  502  0.00000000000E+00 -0.00000000000E+00 -0.20677797205E+03  0.20677797205E+03  0.00000000000E+00 0.  1.
         25    1    1    2    0    0 -0.15407955850E+02  0.22792701790E+03 -0.72788526316E+02  0.27039101345E+03  0.12500000000E+03 0.  0.
          1    1    1    2  501    0  0.15407955850E+02 -0.22792701790E+03  0.33559040670E+03  0.40596681103E+03  0.00000000000E+00 0. -1.
<mgrwt>
<rscale>  3 0.26040954E+03</rscale>
<asrwt>0</asrwt>
<pdfrwt beam="1">  1       21 0.31811996E-01 0.26040954E+03</pdfrwt>
<pdfrwt beam="2">  1        1 0.72243054E-01 0.26040954E+03</pdfrwt>
<totfact> 0.50514403E+03</totfact>
</mgrwt>
</event>
<event>
 4    0  0.1286744E-001  0.2486075E+03  0.7546771E-02  0.1114188E+00
          1   -1    0    0  502    0 -0.00000000000E+00  0.00000000000E+00  0.51947552031E+03  0.51947552031E+03  0.00000000000E+00 0. -1.
         21   -1    0    0  501  502  0.00000000000E+00 -0.00000000000E+00 -0.26315146721E+03  0.26315146721E+03  0.00000000000E+00 0.  1.
         25    1    1    2    0    0 -0.21458794924E+03  0.11518793552E+02 -0.17275817862E+03  0.30273925884E+03  0.12500000000E+03 0.  0.
          1    1    1    2  501    0  0.21458794924E+03 -0.11518793552E+02  0.42908223172E+03  0.47988772868E+03  0.00000000000E+00 0. -1.
<mgrwt>
<rscale>  3 0.24860746E+03</rscale>
<asrwt>0</asrwt>
<pdfrwt beam="1">  1       21 0.40484841E-01 0.24860746E+03</pdfrwt>
<pdfrwt beam="2">  1        1 0.79919311E-01 0.24860746E+03</pdfrwt>
<totfact> 0.27330390E+03</totfact>
</mgrwt>
</event>
<event>
 4    0  0.1896176E-001  0.2409947E+03  0.7546771E-02  0.1119132E+00
         21   -1    0    0  501  502  0.00000000000E+00  0.00000000000E+00  0.32204108309E+02  0.32204108309E+02  0.00000000000E+00 0. -1.
         -2   -1    0    0    0  501 -0.00000000000E+00 -0.00000000000E+00 -0.16298476943E+04  0.16298476943E+04  0.00000000000E+00 0. -1.
         25    1    1    2    0    0  0.10399565180E+03 -0.17787167078E+03 -0.67645035559E+03  0.71809714554E+03  0.12500000000E+03 0.  0.
         -2    1    1    2    0  502 -0.10399565180E+03  0.17787167078E+03 -0.92119323045E+03  0.94395465711E+03  0.00000000000E+00 0. -1.
<mgrwt>
<rscale>  3 0.24099466E+03</rscale>
<asrwt>0</asrwt>
<pdfrwt beam="1">  1       21 0.49544790E-02 0.24099466E+03</pdfrwt>
<pdfrwt beam="2">  1       -2 0.25074576E+00 0.24099466E+03</pdfrwt>
<totfact> 0.16046959E+03</totfact>
</mgrwt>
</event>
<event>
 4    0  0.1259085E-001  0.3236781E+03  0.7546771E-02  0.1073969E+00
         21   -1    0    0  501  502  0.00000000000E+00  0.00000000000E+00  0.20049240314E+04  0.20049240314E+04  0.00000000000E+00 0.  1.
          2   -1    0    0  502    0 -0.00000000000E+00 -0.00000000000E+00 -0.77314935721E+03  0.77314935721E+03  0.00000000000E+00 0. -1.
         25    1    1    2    0    0  0.16396982643E+03 -0.24951234568E+03  0.19623389493E+04  0.19888543603E+04  0.12500000000E+03 0.  0.
          2    1    1    2  501    0 -0.16396982643E+03  0.24951234568E+03 -0.73056427508E+03  0.78921902831E+03  0.00000000000E+00 0. -1.
<mgrwt>
<rscale>  3 0.32367810E+03</rscale>
<asrwt>0</asrwt>
<pdfrwt beam="1">  1       21 0.30844985E+00 0.32367810E+03</pdfrwt>
<pdfrwt beam="2">  1        2 0.11894606E+00 0.32367810E+03</pdfrwt>
<totfact> 0.12327302E+01</totfact>
</mgrwt>
</event>
<event>
 4    0  0.1104925E-001  0.4503594E+03  0.7546771E-02  0.1027615E+00
          1   -1    0    0  502    0 -0.00000000000E+00  0.00000000000E+00  0.27203824128E+04  0.27203824128E+04  0.00000000000E+00 0. -1.
         21   -1    0    0  501  502  0.00000000000E+00 -0.00000000000E+00 -0.95373576687E+02  0.95373576687E+02  0.00000000000E+00 0. -1.
         25    1    1    2    0    0 -0.42067350866E+03  0.10115546658E+03  0.63029794452E+03  0.77466065356E+03  0.12500000000E+03 0.  0.
          1    1    1    2  501    0  0.42067350866E+03 -0.10115546658E+03  0.19947108916E+04  0.20410953360E+04  0.00000000000E+00 0. -1.
<mgrwt>
<rscale>  3 0.45035944E+03</rscale>
<asrwt>0</asrwt>
<pdfrwt beam="1">  1       21 0.14672860E-01 0.45035944E+03</pdfrwt>
<pdfrwt beam="2">  1        1 0.41852031E+00 0.45035944E+03</pdfrwt>
<totfact> 0.46958870E+02</totfact>
</mgrwt>
</event>
<event>
 4    0  0.1368882E-001  0.2554695E+03  0.7546771E-02  0.1109896E+00
         21   -1    0    0  501  502  0.00000000000E+00  0.00000000000E+00  0.95267951677E+03  0.95267951677E+03  0.00000000000E+00 0. -1.
          4   -1    0    0  502    0 -0.00000000000E+00 -0.00000000000E+00 -0.31356534255E+03  0.31356534255E+03  0.00000000000E+00 0.  1.
         25    1    1    2    0    0  0.22268814415E+03 -0.70456183462E+01  0.89278843269E+03  0.92862039383E+03  0.12500000000E+03 0.  0.
          4    1    1    2  501    0 -0.22268814415E+03  0.70456183462E+01 -0.25367425847E+03  0.33762446549E+03  0.00000000000E+00 0.  1.
<mgrwt>
<rscale>  3 0.25546947E+03</rscale>
<asrwt>0</asrwt>
<pdfrwt beam="1">  1       21 0.14656608E+00 0.25546947E+03</pdfrwt>
<pdfrwt beam="2">  1        4 0.48240822E-01 0.25546947E+03</pdfrwt>
<totfact> 0.54440793E+01</totfact>
</mgrwt>
</event>
<event>
 4    0  0.1037463E-001  0.2748605E+03  0.7546771E-02  0.1098530E+00
          2   -1    0    0  502    0 -0.00000000000E+00  0.00000000000E+00  0.12067261284E+04  0.12067261284E+04  0.00000000000E+00 0.  1.
         21   -1    0    0  501  502  0.00000000000E+00 -0.00000000000E+00 -0.72528642382E+02  0.72528642382E+02  0.00000000000E+00 0. -1.
         25    1    1    2    0    0 -0.13540212648E+03 -0.20393516057E+03  0.28694771394E+03  0.39735031912E+03  0.12500000000E+03 0.  0.
          2    1    1    2  501    0  0.13540212648E+03  0.20393516057E+03  0.84724977212E+03  0.88190445170E+03  0.00000000000E+00 0.  1.
<mgrwt>
<rscale>  3 0.27486048E+03</rscale>
<asrwt>0</asrwt>
<pdfrwt beam="1">  1       21 0.11158254E-01 0.27486048E+03</pdfrwt>
<pdfrwt beam="2">  1        2 0.18565016E+00 0.27486048E+03</pdfrwt>
<totfact> 0.16580128E+04</totfact>
</mgrwt>
</event>
<event>
 4    0  0.1002184E-001  0.2438149E+03  0.7546771E-02  0.1117277E+00
         21   -1    0    0  501  502  0.00000000000E+00  0.00000000000E+00  0.65123634166E+03  0.65123634166E+03  0.00000000000E+00 0. -1.
          3   -1    0    0  502    0 -0.00000000000E+00 -0.00000000000E+00 -0.10313608556E+03  0.10313608556E+03  0.00000000000E+00 0.  1.
         25    1    1    2    0    0 -0.11739027994E+03  0.17332117981E+03  0.47269674757E+03  0.53187209398E+03  0.12500000000E+03 0.  0.
          3    1    1    2  501    0  0.11739027994E+03 -0.17332117981E+03  0.75403508524E+02  0.22250033324E+03  0.00000000000E+00 0.  1.
<mgrwt>
<rscale>  3 0.24381491E+03</rscale>
<asrwt>0</asrwt>
<pdfrwt beam="1">  1       21 0.10019020E+00 0.24381491E+03</pdfrwt>
<pdfrwt beam="2">  1        3 0.15867091E-01 0.24381491E+03</pdfrwt>
<totfact> 0.13466738E+03</totfact>
</mgrwt>
</event>
<event>
 4    0  0.1600248E-001  0.2942943E+03  0.7546771E-02  0.1088128E+00
          2   -1    0    0  502    0 -0.00000000000E+00  0.00000000000E+00  0.10391719801E+04  0.10391719801E+04  0.00000000000E+00 0.  1.
         21   -1    0    0  501  502  0.00000000000E+00 -0.00000000000E+00 -0.15268714527E+03  0.15268714527E+03  0.00000000000E+00 0.  1.
         25    1    1    2    0    0 -0.12790468658E+03  0.23371889311E+03  0.31089308024E+02  0.29593187547E+03  0.12500000000E+03 0.  0.
          2    1    1    2  501    0  0.12790468658E+03 -0.23371889311E+03  0.85539552684E+03  0.89592724994E+03  0.00000000000E+00 0.  1.
<mgrwt>
<rscale>  3 0.29429429E+03</rscale>
<asrwt>0</asrwt>
<pdfrwt beam="1">  1       21 0.23490331E-01 0.29429429E+03</pdfrwt>
<pdfrwt beam="2">  1        2 0.15987261E+00 0.29429429E+03</pdfrwt>
<totfact> 0.52166601E+03</totfact>
</mgrwt>
</event>
<event>
 4    0  0.1111531E-001  0.3956905E+03  0.7546771E-02  0.1045282E+00
          1   -1    0    0  502    0 -0.00000000000E+00  0.00000000000E+00  0.26459278648E+04  0.26459278648E+04  0.00000000000E+00 0.  1.
         21   -1    0    0  501  502  0.00000000000E+00 -0.00000000000E+00 -0.15600492897E+03  0.15600492897E+03  0.00000000000E+00 0.  1.
         25    1    1    2    0    0  0.19662035521E+03 -0.31982243227E+03  0.13622754789E+03  0.41848404638E+03  0.12500000000E+03 0.  0.
          1    1    1    2  501    0 -0.19662035521E+03  0.31982243227E+03  0.23536953880E+04  0.23834487474E+04  0.00000000000E+00 0.  1.
<mgrwt>
<rscale>  3 0.39569048E+03</rscale>
<asrwt>0</asrwt>
<pdfrwt beam="1">  1       21 0.24000760E-01 0.39569048E+03</pdfrwt>
<pdfrwt beam="2">  1        1 0.40706579E+00 0.39569048E+03</pdfrwt>
<totfact> 0.21247799E+02</totfact>
</mgrwt>
</event>
<event>
 4    0  0.1356659E-001  0.2661351E+03  0.7546771E-02  0.1103512E+00
         -3   -1    0    0    0  501 -0.00000000000E+00  0.00000000000E+00  0.70944776401E+03  0.70944776401E+03  0.00000000000E+00 0. -1.
         21   -1    0    0  501  502  0.00000000000E+00 -0.00000000000E+00 -0.59502491656E+03  0.59502491656E+03  0.00000000000E+00 0.  1.
         25    1    1    2    0    0  0.11759154496E+03  0.20340875570E+03 -0.54387755078E+03  0.60550035804E+03  0.12500000000E+03 0.  0.
         -3    1    1    2    0  502 -0.11759154496E+03 -0.20340875570E+03  0.65830039824E+03  0.69897232253E+03  0.00000000000E+00 0. -1.
<mgrwt>
<rscale>  3 0.26613510E+03</rscale>
<asrwt>0</asrwt>
<pdfrwt beam="1">  1       21 0.91542295E-01 0.26613510E+03</pdfrwt>
<pdfrwt beam="2">  1       -3 0.10914581E+00 0.26613510E+03</pdfrwt>
<totfact> 0.35715911E+01</totfact>
</mgrwt>
</event>
<event>
 4    0  0.1152450E-001  0.2383499E+03  0.7546771E-02  0.1120897E+00
          2   -1    0    0  502    0 -0.00000000000E+00  0.00000000000E+00  0.32598432236E+04  0.32598432236E+04  0.00000000000E+00 0.  1.
         21   -1    0    0  501  502  0.00000000000E+00 -0.00000000000E+00 -0.21451898932E+02  0.21451898932E+02  0.00000000000E+00 0.  1.
         25    1    1    2    0    0 -0.15083768745E+03 -0.13577070953E+03  0.80737105972E+03  0.84181869877E+03  0.12500000000E+03 0.  0.
          2    1    1    2  501    0  0.15083768745E+03  0.13577070953E+03  0.24310202649E+04  0.24394764237E+04  0.00000000000E+00 0.  1.
<mgrwt>
<rscale>  3 0.23834994E+03</rscale>
<asrwt>0</asrwt>
<pdfrwt beam="1">  1       21 0.33002947E-02 0.23834994E+03</pdfrwt>
<pdfrwt beam="2">  1        2 0.50151395E+00 0.23834994E+03</pdfrwt>
<totfact> 0.10116049E+04</totfact>
</mgrwt>
</event>
<event>
 4    0  0.1002184E-001  0.3379751E+03  0.7546771E-02  0.1067662E+00
         -1   -1    0    0    0  501 -0.00000000000E+00  0.00000000000E+00  0.86856175127E+03  0.86856175127E+03  0.00000000000E+00 0.  1.
         21   -1    0    0  501  502  0.00000000000E+00 -0.00000000000E+00 -0.18347552258E+03  0.18347552258E+03  0.00000000000E+00 0. -1.
         25    1    1    2    0    0  0.25496957920E+03  0.18328306716E+03  0.47468597940E+02  0.34129230407E+03  0.12500000000E+03 0.  0.
         -1    1    1    2    0  502 -0.25496957920E+03 -0.18328306716E+03  0.63761763075E+03  0.71074496978E+03  0.00000000000E+00 0.  1.
<mgrwt>
<rscale>  3 0.33797510E+03</rscale>
<asrwt>0</asrwt>
<pdfrwt beam="1">  1       21 0.28227004E-01 0.33797510E+03</pdfrwt>
<pdfrwt beam="2">  1       -1 0.13362488E+00 0.33797510E+03</pdfrwt>
<totfact> 0.54655157E+02</totfact>
</mgrwt>
</event>
<event>
 4    0  0.1328005E-001  0.2730675E+03  0.7546771E-02  0.1099537E+00
         21   -1    0    0  501  502  0.00000000000E+00  0.00000000000E+00  0.32820242220E+03  0.32820242220E+03  0.00000000000E+00 0. -1.
          1   -1    0    0  502    0 -0.00000000000E+00 -0.00000000000E+00 -0.30758366779E+03  0.30758366779E+03  0.00000000000E+00 0. -1.
         25    1    1    2    0    0  0.21779557659E+03  0.10726583670E+03  0.19613657718E+03  0.33620742082E+03  0.12500000000E+03 0.  0.
          1    1    1    2  501    0 -0.21779557659E+03 -0.10726583670E+03 -0.17551782277E+03  0.29957866916E+03  0.00000000000E+00 0. -1.
<mgrwt>
<rscale>  3 0.27306752E+03</rscale>
<asrwt>0</asrwt>
<pdfrwt beam="1">  1       21 0.50492680E-01 0.27306752E+03</pdfrwt>
<pdfrwt beam="2">  1        1 0.47320564E-01 0.27306752E+03</pdfrwt>
<totfact> 0.33827775E+03</totfact>
</mgrwt>
</event>
<event>
 4    0  0.1636327E-001  0.2993739E+03  0.7546771E-02  0.1085554E+00
          1   -1    0    0  502    0 -0.00000000000E+00  0.00000000000E+00  0.10417314223E+04  0.10417314223E+04  0.00000000000E+00 0. -1.
         21   -1    0    0  501  502  0.00000000000E+00 -0.00000000000E+00 -0.40932895905E+03  0.40932895905E+03  0.00000000000E+00 0. -1.
         25    1    1    2    0    0 -0.10979783938E+03 -0.24888589729E+03 -0.33316199839E+03  0.44790810729E+03  0.12500000000E+03 0.  0.
          1    1    1    2  501    0  0.10979783938E+03  0.24888589729E+03  0.96556446164E+03  0.10031522741E+04  0.00000000000E+00 0. -1.
<mgrwt>
<rscale>  3 0.29937394E+03</rscale>
<asrwt>0</asrwt>
<pdfrwt beam="1">  1       21 0.62973686E-01 0.29937394E+03</pdfrwt>
<pdfrwt beam="2">  1        1 0.16026637E+00 0.29937394E+03</pdfrwt>
<totfact> 0.36785719E+02</totfact>
</mgrwt>
</event>
<event>
 4    0  0.1002184E-001  0.3361413E+03  0.7546771E-02  0.1068451E+00
         -3   -1    0    0    0  501 -0.00000000000E+00  0.00000000000E+00  0.21931436682E+03  0.21931436682E+03  0.00000000000E+00 0.  1.
         21   -1    0    0  501  502  0.00000000000E+00 -0.00000000000E+00 -0.49838877053E+03  0.49838877053E+03  0.00000000000E+00 0. -1.
         25    1    1    2    0    0  0.28707108700E+03  0.12229542197E+03 -0.21540878999E+03  0.39923918398E+03  0.12500000000E+03 0.  0.
         -3    1    1    2    0  502 -0.28707108700E+03 -0.12229542197E+03 -0.63665613732E+02  0.31846395337E+03  0.00000000000E+00 0.  1.
<mgrwt>
<rscale>  3 0.33614131E+03</rscale>
<asrwt>0</asrwt>
<pdfrwt beam="1">  1       21 0.76675195E-01 0.33614131E+03</pdfrwt>
<pdfrwt beam="2">  1       -3 0.33740672E-01 0.33614131E+03</pdfrwt>
<totfact> 0.62774741E+02</totfact>
</mgrwt>
</event>
<event>
 4    0  0.1222017E-001  0.2591707E+03  0.7546771E-02  0.1107643E+00
         21   -1    0    0  501  502  0.00000000000E+00  0.00000000000E+00  0.57975031818E+03  0.57975031818E+03  0.00000000000E+00 0.  1.
          2   -1    0    0  502    0 -0.00000000000E+00 -0.00000000000E+00 -0.29023206623E+03  0.29023206623E+03  0.00000000000E+00 0.  1.
         25    1    1    2    0    0 -0.20607222952E+03 -0.95282055775E+02  0.49821991337E+03  0.56159818020E+03  0.12500000000E+03 0.  0.
          2    1    1    2  501    0  0.20607222952E+03  0.95282055775E+02 -0.20870166142E+03  0.30838420421E+03  0.00000000000E+00 0.  1.
<mgrwt>
<rscale>  3 0.25917067E+03</rscale>
<asrwt>0</asrwt>
<pdfrwt beam="1">  1       21 0.89192357E-01 0.25917067E+03</pdfrwt>
<pdfrwt beam="2">  1        2 0.44651087E-01 0.25917067E+03</pdfrwt>
<totfact> 0.14657555E+03</totfact>
</mgrwt>
</event>
<event>
 4    0  0.1238444E-001  0.2432512E+03  0.7546771E-02  0.1117646E+00
         21   -1    0    0  501  502  0.00000000000E+00  0.00000000000E+00  0.10135420002E+04  0.10135420002E+04  0.00000000000E+00 0.  1.
         -1   -1    0    0    0  501 -0.00000000000E+00 -0.00000000000E+00 -0.11916728683E+03  0.11916728683E+03  0.00000000000E+00 0.  1.
         25    1    1    2    0    0  0.20473788997E+03 -0.40355124152E+02  0.89141774415E+03  0.92401121975E+03  0.12500000000E+03 0.  0.
         -1    1    1    2    0  502 -0.20473788997E+03  0.40355124152E+02  0.29569692573E+01  0.20869806732E+03  0.00000000000E+00 0.  1.
<mgrwt>
<rscale>  3 0.24325119E+03</rscale>
<asrwt>0</asrwt>
<pdfrwt beam="1">  1       21 0.15592953E+00 0.24325119E+03</pdfrwt>
<pdfrwt beam="2">  1       -1 0.18333429E-01 0.24325119E+03</pdfrwt>
<totfact> 0.55234467E+02</totfact>
</mgrwt>
</event>
<event>
 4    0  0.1400736E-001  0.3883279E+03  0.7546771E-02  0.1047898E+00
          2   -1    0    0  502    0 -0.00000000000E+00  0.00000000000E+00  0.16524188533E+04  0.16524188533E+04  0.00000000000E+00 0.  1.
         21   -1    0    0  501  502  0.00000000000E+00 -0.00000000000E+00 -0.12615593153E+03  0.12615593153E+03  0.00000000000E+00 0.  1.
         25    1    1    2    0    0 -0.16562846475E+03 -0.32823885476E+03  0.27876129520E+03  0.47802342392E+03  0.12500000000E+03 0.  0.
          2    1    1    2  501    0  0.16562846475E+03  0.32823885476E+03  0.12475016266E+04  0.13005513609E+04  0.00000000000E+00 0.  1.
<mgrwt>
<rscale>  3 0.38832787E+03</rscale>
<asrwt>0</asrwt>
<pdfrwt beam="1">  1       21 0.19408606E-01 0.38832787E+03</pdfrwt>
<pdfrwt beam="2">  1        2 0.25421827E+00 0.38832787E+03</pdfrwt>
<totfact> 0.33177253E+03</totfact>
</mgrwt>
</event>
<event>
 4    0  0.1316941E-001  0.2723154E+03  0.7546771E-02  0.1099962E+00
          1   -1    0    0  502    0 -0.00000000000E+00  0.00000000000E+00  0.50145061216E+03  0.50145061216E+03  0.00000000000E+00 0.  1.
         21   -1    0    0  501  502  0.00000000000E+00 -0.00000000000E+00 -0.86269612686E+03  0.86269612686E+03  0.00000000000E+00 0.  1.
         25    1    1    2    0    0 -0.51976291125E+02 -0.23628197011E+03 -0.80988062732E+03  0.85443685241E+03  0.12500000000E+03 0.  0.
          1    1    1    2  501    0  0.51976291125E+02  0.23628197011E+03  0.44863511262E+03  0.50970988661E+03  0.00000000000E+00 0.  1.
<mgrwt>
<rscale>  3 0.27231545E+03</rscale>
<asrwt>0</asrwt>
<pdfrwt beam="1">  1       21 0.13272248E+00 0.27231545E+03</pdfrwt>
<pdfrwt beam="2">  1        1 0.77146249E-01 0.27231545E+03</pdfrwt>
<totfact> 0.19350607E+02</totfact>
</mgrwt>
</event>
<event>
 4    0  0.1171993E-001  0.4615302E+03  0.7546771E-02  0.1024338E+00
          2   -1    0    0  502    0 -0.00000000000E+00  0.00000000000E+00  0.14584359934E+04  0.14584359934E+04  0.00000000000E+00 0. -1.
         21   -1    0    0  501  502  0.00000000000E+00 -0.00000000000E+00 -0.15143794456E+03  0.15143794456E+03  0.00000000000E+00 0. -1.
         25    1    1    2    0    0  0.37185257349E+03  0.24312712585E+03  0.87989963798E+03  0.99359625032E+03  0.12500000000E+03 0.  0.
          2    1    1    2  501    0 -0.37185257349E+03 -0.24312712585E+03  0.42709841088E+03  0.61627768766E+03  0.00000000000E+00 0. -1.
<mgrwt>
<rscale>  3 0.46153021E+03</rscale>
<asrwt>0</asrwt>
<pdfrwt beam="1">  1       21 0.23298146E-01 0.46153021E+03</pdfrwt>
<pdfrwt beam="2">  1        2 0.22437476E+00 0.46153021E+03</pdfrwt>
<totfact> 0.29300016E+03</totfact>
</mgrwt>
</event>
<event>
 4    0  0.1454712E-001  0.2412122E+03  0.7546771E-02  0.1118988E+00
          2   -1    0    0  502    0 -0.00000000000E+00  0.00000000000E+00  0.12390258443E+04  0.12390258443E+04  0.00000000000E+00 0. -1.
         21   -1    0    0  501  502  0.00000000000E+00 -0.00000000000E+00 -0.14537365124E+03  0.14537365124E+03  0.00000000000E+00 0. -1.
         25    1    1    2    0    0 -0.20626820260E+03  0.34259595446E+01 -0.29001011325E+02  0.24294931007E+03  0.12500000000E+03 0.  0.
          2    1    1    2  501    0  0.20626820260E+03 -0.34259595446E+01  0.11226532044E+04  0.11414501855E+04  0.00000000000E+00 0. -1.
<mgrwt>
<rscale>  3 0.24121217E+03</rscale>
<asrwt>0</asrwt>
<pdfrwt beam="1">  1       21 0.22365178E-01 0.24121217E+03</pdfrwt>
<pdfrwt beam="2">  1        2 0.19061935E+00 0.24121217E+03</pdfrwt>
<totfact> 0.44564147E+03</totfact>
</mgrwt>
</event>
<event>
 4    0  0.1094267E-001  0.4519956E+03  0.7546771E-02  0.1027129E+00
          1   -1    0    0  502    0 -0.00000000000E+00  0.00000000000E+00  0.81384291108E+03  0.81384291108E+03  0.00000000000E+00 0.  1.
         21   -1    0    0  501  502  0.00000000000E+00 -0.00000000000E+00 -0.35722211053E+03  0.35722211053E+03  0.00000000000E+00 0. -1.
         25    1    1    2    0    0  0.79050478710E+02  0.42711356720E+03 -0.10207834047E+03  0.46337885695E+03  0.12500000000E+03 0.  0.
          1    1    1    2  501    0 -0.79050478710E+02 -0.42711356720E+03  0.55869914103E+03  0.70768616466E+03  0.00000000000E+00 0.  1.
<mgrwt>
<rscale>  3 0.45199555E+03</rscale>
<asrwt>0</asrwt>
<pdfrwt beam="1">  1       21 0.54957248E-01 0.45199555E+03</pdfrwt>
<pdfrwt beam="2">  1        1 0.12520660E+00 0.45199555E+03</pdfrwt>
<totfact> 0.71002277E+02</totfact>
</mgrwt>
</event>
<event>
 4    0  0.1428157E-001  0.2442188E+03  0.7546771E-02  0.1117014E+00
         21   -1    0    0  501  502  0.00000000000E+00  0.00000000000E+00  0.29412151738E+03  0.29412151738E+03  0.00000000000E+00 0. -1.
          1   -1    0    0  502    0 -0.00000000000E+00 -0.00000000000E+00 -0.17753294136E+03  0.17753294136E+03  0.00000000000E+00 0. -1.
         25    1    1    2    0    0  0.29693652197E+02 -0.20769237786E+03  0.35780004357E+02  0.24682594174E+03  0.12500000000E+03 0.  0.
          1    1    1    2  501    0 -0.29693652197E+02  0.20769237786E+03  0.80808571666E+02  0.22482851700E+03  0.00000000000E+00 0. -1.
<mgrwt>
<rscale>  3 0.24421883E+03</rscale>
<asrwt>0</asrwt>
<pdfrwt beam="1">  1       21 0.45249464E-01 0.24421883E+03</pdfrwt>
<pdfrwt beam="2">  1        1 0.27312760E-01 0.24421883E+03</pdfrwt>
<totfact> 0.85676821E+03</totfact>
</mgrwt>
</event>
<event>
 4    0  0.1653282E-001  0.2669503E+03  0.7546771E-02  0.1103038E+00
          2   -1    0    0  502    0 -0.00000000000E+00  0.00000000000E+00  0.12263602793E+04  0.12263602793E+04  0.00000000000E+00 0.  1.
         21   -1    0    0  501  502  0.00000000000E+00 -0.00000000000E+00 -0.61279891104E+02  0.61279891104E+02  0.00000000000E+00 0.  1.
         25    1    1    2    0    0 -0.85407764242E+02 -0.21987033756E+03  0.35657874235E+03  0.44543332949E+03  0.12500000000E+03 0.  0.
          2    1    1    2  501    0  0.85407764242E+02  0.21987033756E+03  0.80850164580E+03  0.84220684086E+03  0.00000000000E+00 0.  1.
<mgrwt>
<rscale>  3 0.26695028E+03</rscale>
<asrwt>0</asrwt>
<pdfrwt beam="1">  1       21 0.94276764E-02 0.26695028E+03</pdfrwt>
<pdfrwt beam="2">  1        2 0.18867079E+00 0.26695028E+03</pdfrwt>
<totfact> 0.21860682E+04</totfact>
</mgrwt>
</event>
<event>
 4    0  0.1002184E-001  0.2902909E+03  0.7546771E-02  0.1090197E+00
         21   -1    0    0  501  502  0.00000000000E+00  0.00000000000E+00  0.24295898341E+04  0.24295898341E+04  0.00000000000E+00 0. -1.
          1   -1    0    0  502    0 -0.00000000000E+00 -0.00000000000E+00 -0.67901123615E+02  0.67901123615E+02  0.00000000000E+00 0. -1.
         25    1    1    2    0    0 -0.19254827446E+03  0.17767653481E+03  0.21239828606E+04  0.21437285232E+04  0.12500000000E+03 0.  0.
          1    1    1    2  501    0  0.19254827446E+03 -0.17767653481E+03  0.23770584993E+03  0.35376243457E+03  0.00000000000E+00 0. -1.
<mgrwt>
<rscale>  3 0.29029087E+03</rscale>
<asrwt>0</asrwt>
<pdfrwt beam="1">  1       21 0.37378298E+00 0.29029087E+03</pdfrwt>
<pdfrwt beam="2">  1        1 0.10446329E-01 0.29029087E+03</pdfrwt>
<totfact> 0.73233544E+01</totfact>
</mgrwt>
</event>
<event>
 4    0  0.1309390E-001  0.2439371E+03  0.7546771E-02  0.1117197E+00
          1   -1    0    0  502    0 -0.00000000000E+00  0.00000000000E+00  0.73217419264E+03  0.73217419264E+03  0.00000000000E+00 0. -1.
         21   -1    0    0  501  502  0.00000000000E+00 -0.00000000000E+00 -0.15565423369E+03  0.15565423369E+03  0.00000000000E+00 0.  1.
         25    1    1    2    0    0 -0.71789620898E+02 -0.19679066017E+03 -0.30354419855E+02  0.24581843789E+03  0.12500000000E+03 0.  0.
          1    1    1    2  501    0  0.71789620898E+02  0.19679066017E+03  0.60687437881E+03  0.64200998844E+03  0.00000000000E+00 0. -1.
<mgrwt>
<rscale>  3 0.24393711E+03</rscale>
<asrwt>0</asrwt>
<pdfrwt beam="1">  1       21 0.23946806E-01 0.24393711E+03</pdfrwt>
<pdfrwt beam="2">  1        1 0.11264218E+00 0.24393711E+03</pdfrwt>
<totfact> 0.47545228E+03</totfact>
</mgrwt>
</event>
<event>
 4    0  0.1591477E-001  0.2673364E+03  0.7546771E-02  0.1102814E+00
         21   -1    0    0  501  502  0.00000000000E+00  0.00000000000E+00  0.12956723363E+03  0.12956723363E+03  0.00000000000E+00 0.  1.
          2   -1    0    0  502    0 -0.00000000000E+00 -0.00000000000E+00 -0.74747538374E+03  0.74747538374E+03  0.00000000000E+00 0.  1.
         25    1    1    2    0    0  0.23030805852E+03 -0.52933261712E+02 -0.57874522055E+03  0.63750667630E+03  0.12500000000E+03 0.  0.
          2    1    1    2  501    0 -0.23030805852E+03  0.52933261712E+02 -0.39162929571E+02  0.23953594108E+03  0.00000000000E+00 0.  1.
<mgrwt>
<rscale>  3 0.26733636E+03</rscale>
<asrwt>0</asrwt>
<pdfrwt beam="1">  1       21 0.19933420E-01 0.26733636E+03</pdfrwt>
<pdfrwt beam="2">  1        2 0.11499622E+00 0.26733636E+03</pdfrwt>
<totfact> 0.11144715E+04</totfact>
</mgrwt>
</event>
<event>
 4    0  0.1002184E-001  0.2766782E+03  0.7546771E-02  0.1097517E+00
         -2   -1    0    0    0  501 -0.00000000000E+00  0.00000000000E+00  0.17341571350E+03  0.17341571350E+03  0.00000000000E+00 0.  1.
         21   -1    0    0  501  502  0.00000000000E+00 -0.00000000000E+00 -0.43471476703E+03  0.43471476703E+03  0.00000000000E+00 0. -1.
         25    1    1    2    0    0 -0.10541639992E+03 -0.22318878386E+03 -0.22907918281E+03  0.35920484770E+03  0.12500000000E+03 0.  0.
         -2    1    1    2    0  502  0.10541639992E+03  0.22318878386E+03 -0.32219870715E+02  0.24892563284E+03  0.00000000000E+00 0.  1.
<mgrwt>
<rscale>  3 0.27667824E+03</rscale>
<asrwt>0</asrwt>
<pdfrwt beam="1">  1       21 0.66879194E-01 0.27667824E+03</pdfrwt>
<pdfrwt beam="2">  1       -2 0.26679341E-01 0.27667824E+03</pdfrwt>
<totfact> 0.20280473E+03</totfact>
</mgrwt>
</event>
<event>
 4    0  0.1002184E-001  0.2823845E+03  0.7546771E-02  0.1094394E+00
         21   -1    0    0  501  502  0.00000000000E+00  0.00000000000E+00  0.95591284925E+02  0.95591284925E+02  0.00000000000E+00 0. -1.
          2   -1    0    0  502    0 -0.00000000000E+00 -0.00000000000E+00 -0.41215706429E+04  0.41215706429E+04  0.00000000000E+00 0. -1.
         25    1    1    2    0    0  0.23718266499E+03  0.88658710877E+02 -0.12642177756E+03  0.30939206426E+03  0.12500000000E+03 0.  0.
          2    1    1    2  501    0 -0.23718266499E+03 -0.88658710877E+02 -0.38995575804E+04  0.39077698636E+04  0.00000000000E+00 0. -1.
<mgrwt>
<rscale>  3 0.28238446E+03</rscale>
<asrwt>0</asrwt>
<pdfrwt beam="1">  1       21 0.14706355E-01 0.28238446E+03</pdfrwt>
<pdfrwt beam="2">  1        2 0.63408766E+00 0.28238446E+03</pdfrwt>
<totfact> 0.18128363E+02</totfact>
</mgrwt>
</event>
<event>
 4    0  0.1719460E-001  0.2884215E+03  0.7546771E-02  0.1091176E+00
          3   -1    0    0  502    0 -0.00000000000E+00  0.00000000000E+00  0.11924320688E+04  0.11924320688E+04  0.00000000000E+00 0. -1.
         21   -1    0    0  501  502  0.00000000000E+00 -0.00000000000E+00 -0.15752413829E+03  0.15752413829E+03  0.00000000000E+00 0. -1.
         25    1    1    2    0    0 -0.25923078538E+03 -0.19009600881E+02  0.57469047759E+01  0.28847875472E+03  0.12500000000E+03 0.  0.
          3    1    1    2  501    0  0.25923078538E+03  0.19009600881E+02  0.10291610258E+04  0.10614774524E+04  0.00000000000E+00 0. -1.
<mgrwt>
<rscale>  3 0.28842151E+03</rscale>
<asrwt>0</asrwt>
<pdfrwt beam="1">  1       21 0.24234484E-01 0.28842151E+03</pdfrwt>
<pdfrwt beam="2">  1        3 0.18345108E+00 0.28842151E+03</pdfrwt>
<totfact> 0.15809783E+02</totfact>
</mgrwt>
</event>
<event>
 4    0  0.1164882E-001  0.3422810E+03  0.7546771E-02  0.1065829E+00
         21   -1    0    0  501  502  0.00000000000E+00  0.00000000000E+00  0.42258575706E+03  0.42258575706E+03  0.00000000000E+00 0.  1.
         -2   -1    0    0    0  501 -0.00000000000E+00 -0.00000000000E+00 -0.57926821013E+03  0.57926821013E+03  0.00000000000E+00 0. -1.
         25    1    1    2    0    0  0.31861777883E+03  0.37451053203E+01  0.29311023064E+03  0.45063280185E+03  0.12500000000E+03 0.  0.
         -2    1    1    2    0  502 -0.31861777883E+03 -0.37451053203E+01 -0.44979268371E+03  0.55122116534E+03  0.00000000000E+00 0. -1.
<mgrwt>
<rscale>  3 0.34228105E+03</rscale>
<asrwt>0</asrwt>
<pdfrwt beam="1">  1       21 0.65013194E-01 0.34228105E+03</pdfrwt>
<pdfrwt beam="2">  1       -2 0.89118186E-01 0.34228105E+03</pdfrwt>
<totfact> 0.18804055E+02</totfact>
</mgrwt>
</event>
<event>
 4    0  0.1662139E-001  0.2540886E+03  0.7546771E-02  0.1110748E+00
         21   -1    0    0  501  502  0.00000000000E+00  0.00000000000E+00  0.40368451428E+03  0.40368451428E+03  0.00000000000E+00 0. -1.
          2   -1    0    0  502    0 -0.00000000000E+00 -0.00000000000E+00 -0.78996997934E+03  0.78996997934E+03  0.00000000000E+00 0. -1.
         25    1    1    2    0    0  0.12085664768E+03  0.18528273230E+03  0.34566548392E+03  0.42900541600E+03  0.12500000000E+03 0.  0.
          2    1    1    2  501    0 -0.12085664768E+03 -0.18528273230E+03 -0.73195094899E+03  0.76464907762E+03  0.00000000000E+00 0. -1.
<mgrwt>
<rscale>  3 0.25408861E+03</rscale>
<asrwt>0</asrwt>
<pdfrwt beam="1">  1       21 0.62105310E-01 0.25408861E+03</pdfrwt>
<pdfrwt beam="2">  1        2 0.12153384E+00 0.25408861E+03</pdfrwt>
<totfact> 0.10634875E+03</totfact>
</mgrwt>
</event>
<event>
 4    0  0.1380181E-001  0.2468632E+03  0.7546771E-02  0.1115303E+00
         21   -1    0    0  501  502  0.00000000000E+00  0.00000000000E+00  0.66223019945E+02  0.66223019945E+02  0.00000000000E+00 0.  1.
          1   -1    0    0  502    0 -0.00000000000E+00 -0.00000000000E+00 -0.17216773057E+04  0.17216773057E+04  0.00000000000E+00 0.  1.
         25    1    1    2    0    0  0.41694580075E+02  0.20875346114E+03 -0.20210134132E+03  0.31903980584E+03  0.12500000000E+03 0.  0.
          1    1    1    2  501    0 -0.41694580075E+02 -0.20875346114E+03 -0.14533529445E+04  0.14688605198E+04  0.00000000000E+00 0.  1.
<mgrwt>
<rscale>  3 0.24686321E+03</rscale>
<asrwt>0</asrwt>
<pdfrwt beam="1">  1       21 0.10188155E-01 0.24686321E+03</pdfrwt>
<pdfrwt beam="2">  1        1 0.26487348E+00 0.24686321E+03</pdfrwt>
<totfact> 0.44775706E+03</totfact>
</mgrwt>
</event>
<event>
 4    0  0.1002184E-001  0.4197625E+03  0.7546771E-02  0.1037144E+00
          2   -1    0    0  502    0 -0.00000000000E+00  0.00000000000E+00  0.33534510325E+04  0.33534510325E+04  0.00000000000E+00 0.  1.
         21   -1    0    0  501  502  0.00000000000E+00 -0.00000000000E+00 -0.40119788883E+03  0.40119788883E+03  0.00000000000E+00 0.  1.
         25    1    1    2    0    0 -0.27660464479E+03  0.28994045416E+03 -0.27551312898E+03  0.50210365535E+03  0.12500000000E+03 0.  0.
          2    1    1    2  501    0  0.27660464479E+03 -0.28994045416E+03  0.32277662726E+04  0.32525452660E+04  0.00000000000E+00 0.  1.
<mgrwt>
<rscale>  3 0.41976255E+03</rscale>
<asrwt>0</asrwt>
<pdfrwt beam="1">  1       21 0.61722754E-01 0.41976255E+03</pdfrwt>
<pdfrwt beam="2">  1        2 0.51591552E+00 0.41976255E+03</pdfrwt>
<totfact> 0.34039697E+01</totfact>
</mgrwt>
</event>
<event>
 4    0  0.1010286E-001  0.2578805E+03  0.7546771E-02  0.1108423E+00
         21   -1    0    0  501  502  0.00000000000E+00  0.00000000000E+00  0.18000506844E+03  0.18000506844E+03  0.00000000000E+00 0.  1.
          2   -1    0    0  502    0 -0.00000000000E+00 -0.00000000000E+00 -0.48540510601E+03  0.48540510601E+03  0.00000000000E+00 0. -1.
         25    1    1    2    0    0 -0.15465544995E+03 -0.16419213132E+03  0.31684876121E+02  0.25981973667E+03  0.12500000000E+03 0.  0.
          2    1    1    2  501    0  0.15465544995E+03  0.16419213132E+03 -0.33708491369E+03  0.40559043779E+03  0.00000000000E+00 0. -1.
<mgrwt>
<rscale>  3 0.25788052E+03</rscale>
<asrwt>0</asrwt>
<pdfrwt beam="1">  1       21 0.27693087E-01 0.25788052E+03</pdfrwt>
<pdfrwt beam="2">  1        2 0.74677709E-01 0.25788052E+03</pdfrwt>
<totfact> 0.98807098E+03</totfact>
</mgrwt>
</event>
<event>
 4    0  0.1404842E-001  0.2818344E+03  0.7546771E-02  0.1094691E+00
         21   -1    0    0  501  502  0.00000000000E+00  0.00000000000E+00  0.66779641624E+03  0.66779641624E+03  0.00000000000E+00 0. -1.
         -3   -1    0    0    0  501 -0.00000000000E+00 -0.00000000000E+00 -0.10840674333E+03  0.10840674333E+03  0.00000000000E+00 0. -1.
         25    1    1    2    0    0  0.13301594002E+03  0.21473799145E+03  0.24948739331E+03  0.37639687126E+03  0.12500000000E+03 0.  0.
         -3    1    1    2    0  502 -0.13301594002E+03 -0.21473799145E+03  0.30990227961E+03  0.39980628832E+03  0.00000000000E+00 0. -1.
<mgrwt>
<rscale>  3 0.28183443E+03</rscale>
<asrwt>0</asrwt>
<pdfrwt beam="1">  1       21 0.10273791E+00 0.28183443E+03</pdfrwt>
<pdfrwt beam="2">  1       -3 0.16677961E-01 0.28183443E+03</pdfrwt>
<totfact> 0.11562733E+03</totfact>
</mgrwt>
</event>
<event>
 4    0  0.1339421E-001  0.3509400E+03  0.7546771E-02  0.1062230E+00
          2   -1    0    0  502    0 -0.00000000000E+00  0.00000000000E+00  0.57622430119E+03  0.57622430119E+03  0.00000000000E+00 0. -1.
         21   -1    0    0  501  502  0.00000000000E+00 -0.00000000000E+00 -0.32253894285E+03  0.32253894285E+03  0.00000000000E+00 0. -1.
         25    1    1    2    0    0 -0.16984164400E+03  0.28051327991E+03 -0.14744148890E+03  0.38065453747E+03  0.12500000000E+03 0.  0.
          2    1    1    2  501    0  0.16984164400E+03 -0.28051327991E+03  0.40112684725E+03  0.51810870657E+03  0.00000000000E+00 0. -1.
<mgrwt>
<rscale>  3 0.35094000E+03</rscale>
<asrwt>0</asrwt>
<pdfrwt beam="1">  1       21 0.49621376E-01 0.35094000E+03</pdfrwt>
<pdfrwt beam="2">  1        2 0.88649892E-01 0.35094000E+03</pdfrwt>
<totfact> 0.24436803E+03</totfact>
</mgrwt>
</event>
<event>
 4    0  0.1294227E-001  0.3315839E+03  0.7546771E-02  0.1070438E+00
          2   -1    0    0  502    0 -0.00000000000E+00  0.00000000000E+00  0.45477134824E+03  0.45477134824E+03  0.00000000000E+00 0.  1.
         21   -1    0    0  501  502  0.00000000000E+00 -0.00000000000E+00 -0.27544948444E+03  0.27544948444E+03  0.00000000000E+00 0.  1.
         25    1    1    2    0    0 -0.88400125867E+02 -0.29412297786E+03 -0.64849234539E+02  0.33786584849E+03  0.12500000000E+03 0.  0.
          2    1    1    2  501    0  0.88400125867E+02  0.29412297786E+03  0.24417109834E+03  0.39235498419E+03  0.00000000000E+00 0.  1.
<mgrwt>
<rscale>  3 0.33158394E+03</rscale>
<asrwt>0</asrwt>
<pdfrwt beam="1">  1       21 0.42376844E-01 0.33158394E+03</pdfrwt>
<pdfrwt beam="2">  1        2 0.69964823E-01 0.33158394E+03</pdfrwt>
<totfact> 0.44687979E+03</totfact>
</mgrwt>
</event>
<event>
 4    0  0.1468818E-001  0.3023162E+03  0.7546771E-02  0.1084088E+00
          2   -1    0    0  502    0 -0.00000000000E+00  0.00000000000E+00  0.17090566502E+04  0.17090566502E+04  0.00000000000E+00 0.  1.
         21   -1    0    0  501  502  0.00000000000E+00 -0.00000000000E+00 -0.52100832098E+02  0.52100832098E+02  0.00000000000E+00 0.  1.
         25    1    1    2    0    0  0.27077012809E+03  0.49533949878E+02  0.64335940040E+03  0.71084906453E+03  0.12500000000E+03 0.  0.
          2    1    1    2  501    0 -0.27077012809E+03 -0.49533949878E+02  0.10135964177E+04  0.10503084178E+04  0.00000000000E+00 0.  1.
<mgrwt>
<rscale>  3 0.30231618E+03</rscale>
<asrwt>0</asrwt>
<pdfrwt beam="1">  1       21 0.80155140E-02 0.30231618E+03</pdfrwt>
<pdfrwt beam="2">  1        2 0.26293175E+00 0.30231618E+03</pdfrwt>
<totfact> 0.15813839E+04</totfact>
</mgrwt>
</event>
<event>
 4    0  0.1002184E-001  0.2363087E+03  0.7546771E-02  0.1122277E+00
          1   -1    0    0  502    0 -0.00000000000E+00  0.00000000000E+00  0.14004371877E+04  0.14004371877E+04  0.00000000000E+00 0. -1.
         21   -1    0    0  501  502  0.00000000000E+00 -0.00000000000E+00 -0.34339878663E+02  0.34339878663E+02  0.00000000000E+00 0. -1.
         25    1    1    2    0    0  0.94783599912E+02  0.17672828667E+03  0.80220066021E+03  0.83628208002E+03  0.12500000000E+03 0.  0.
          1    1    1    2  501    0 -0.94783599912E+02 -0.17672828667E+03  0.56389664884E+03  0.59849498635E+03  0.00000000000E+00 0. -1.
<mgrwt>
<rscale>  3 0.23630873E+03</rscale>
<asrwt>0</asrwt>
<pdfrwt beam="1">  1       21 0.52830593E-02 0.23630873E+03</pdfrwt>
<pdfrwt beam="2">  1        1 0.21545183E+00 0.23630873E+03</pdfrwt>
<totfact> 0.22937829E+04</totfact>
</mgrwt>
</event>
<event>
 4    0  0.1296995E-001  0.3348763E+03  0.7546771E-02  0.1068999E+00
          1   -1    0    0  502    0 -0.00000000000E+00  0.00000000000E+00  0.25080274057E+04  0.25080274057E+04  0.00000000000E+00 0.  1.
         21   -1    0    0  501  502  0.00000000000E+00 -0.00000000000E+00 -0.41823497779E+02  0.41823497779E+02  0.00000000000E+00 0.  1.
         25    1    1    2    0    0  0.19916020133E+03 -0.23843733757E+03  0.11741096426E+04  0.12209322678E+04  0.12500000000E+03 0.  0.
          1    1    1    2  501    0 -0.19916020133E+03  0.23843733757E+03  0.12920942653E+04  0.13289186357E+04  0.00000000000E+00 0.  1.
<mgrwt>
<rscale>  3 0.33487632E+03</rscale>
<asrwt>0</asrwt>
<pdfrwt beam="1">  1       21 0.64343862E-02 0.33487632E+03</pdfrwt>
<pdfrwt beam="2">  1        1 0.38585025E+00 0.33487632E+03</pdfrwt>
<totfact> 0.29754629E+03</totfact>
</mgrwt>
</event>
<event>
 4    0  0.1381292E-001  0.2565244E+03  0.7546771E-02  0.1109250E+00
          2   -1    0    0  502    0 -0.00000000000E+00  0.00000000000E+00  0.44732036067E+03  0.44732036067E+03  0.00000000000E+00 0.  1.
         21   -1    0    0  501  502  0.00000000000E+00 -0.00000000000E+00 -0.63101757972E+03  0.63101757972E+03  0.00000000000E+00 0. -1.
         25    1    1    2    0    0 -0.14699989354E+03 -0.16902895190E+03 -0.57377899743E+03  0.62851180830E+03  0.12500000000E+03 0.  0.
          2    1    1    2  501    0  0.14699989354E+03  0.16902895190E+03  0.39008177838E+03  0.44982613208E+03  0.00000000000E+00 0.  1.
<mgrwt>
<rscale>  3 0.25652438E+03</rscale>
<asrwt>0</asrwt>
<pdfrwt beam="1">  1       21 0.97079627E-01 0.25652438E+03</pdfrwt>
<pdfrwt beam="2">  1        2 0.68818517E-01 0.25652438E+03</pdfrwt>
<totfact> 0.75096916E+02</totfact>
</mgrwt>
</event>
<event>
 4    0  0.1344431E-001  0.2504533E+03  0.7546771E-02  0.1113019E+00
          1   -1    0    0  502    0 -0.00000000000E+00  0.00000000000E+00  0.18802795152E+04  0.18802795152E+04  0.00000000000E+00 0.  1.
         21   -1    0    0  501  502  0.00000000000E+00 -0.00000000000E+00 -0.42306628630E+03  0.42306628630E+03  0.00000000000E+00 0.  1.
         25    1    1    2    0    0 -0.59827270019E+02  0.20862062068E+03 -0.37904046195E+03  0.45431105798E+03  0.12500000000E+03 0.  0.
          1    1    1    2  501    0  0.59827270019E+02 -0.20862062068E+03  0.18362536908E+04  0.18490347435E+04  0.00000000000E+00 0.  1.
<mgrwt>
<rscale>  3 0.25045332E+03</rscale>
<asrwt>0</asrwt>
<pdfrwt beam="1">  1       21 0.65087122E-01 0.25045332E+03</pdfrwt>
<pdfrwt beam="2">  1        1 0.28927377E+00 0.25045332E+03</pdfrwt>
<totfact> 0.95463736E+01</totfact>
</mgrwt>
</event>
<event>
 4    0  0.1535235E-001  0.2557476E+03  0.7546771E-02  0.1109725E+00
         21   -1    0    0  501  502  0.00000000000E+00  0.00000000000E+00  0.90539037451E+02  0.90539037451E+02  0.00000000000E+00 0.  1.
          2   -1    0    0  502    0 -0.00000000000E+00 -0.00000000000E+00 -0.10967113984E+04  0.10967113984E+04  0.00000000000E+00 0.  1.
         25    1    1    2    0    0 -0.73512583501E+02 -0.21066018189E+03 -0.13747048916E+03  0.29035314283E+03  0.12500000000E+03 0.  0.
          2    1    1    2  501    0  0.73512583501E+02  0.21066018189E+03 -0.86870187183E+03  0.89689729305E+03  0.00000000000E+00 0.  1.
<mgrwt>
<rscale>  3 0.25574756E+03</rscale>
<asrwt>0</asrwt>
<pdfrwt beam="1">  1       21 0.13929082E-01 0.25574756E+03</pdfrwt>
<pdfrwt beam="2">  1        2 0.16872484E+00 0.25574756E+03</pdfrwt>
<totfact> 0.12910178E+04</totfact>
</mgrwt>
</event>
<event>
 4    0  0.1100168E-001  0.5700344E+03  0.7546771E-02  0.9969603E-01
         -1   -1    0    0    0  501 -0.00000000000E+00  0.00000000000E+00  0.32590208949E+03  0.32590208949E+03  0.00000000000E+00 0. -1.
         21   -1    0    0  501  502  0.00000000000E+00 -0.00000000000E+00 -0.10624164398E+04  0.10624164398E+04  0.00000000000E+00 0. -1.
         25    1    1    2    0    0  0.30994366588E+03  0.46178903931E+03 -0.57386314292E+03  0.80886222538E+03  0.12500000000E+03 0.  0.
         -1    1    1    2    0  502 -0.30994366588E+03 -0.46178903931E+03 -0.16265120735E+03  0.57945630387E+03  0.00000000000E+00 0. -1.
<mgrwt>
<rscale>  3 0.57003438E+03</rscale>
<asrwt>0</asrwt>
<pdfrwt beam="1">  1       21 0.16344868E+00 0.57003438E+03</pdfrwt>
<pdfrwt beam="2">  1       -1 0.50138783E-01 0.57003438E+03</pdfrwt>
<totfact> 0.75889942E+01</totfact>
</mgrwt>
</event>
<event>
 4    0  0.1329518E-001  0.3204805E+03  0.7546771E-02  0.1075428E+00
         21   -1    0    0  501  502  0.00000000000E+00  0.00000000000E+00  0.53641223145E+03  0.53641223145E+03  0.00000000000E+00 0. -1.
          1   -1    0    0  502    0 -0.00000000000E+00 -0.00000000000E+00 -0.31540829879E+03  0.31540829879E+03  0.00000000000E+00 0. -1.
         25    1    1    2    0    0 -0.96935815428E+02 -0.27872248486E+03  0.39545756943E+03  0.50901322684E+03  0.12500000000E+03 0.  0.
          1    1    1    2  501    0  0.96935815428E+02  0.27872248486E+03 -0.17445363677E+03  0.34280730339E+03  0.00000000000E+00 0. -1.
<mgrwt>
<rscale>  3 0.32048054E+03</rscale>
<asrwt>0</asrwt>
<pdfrwt beam="1">  1       21 0.82524959E-01 0.32048054E+03</pdfrwt>
<pdfrwt beam="2">  1        1 0.48524353E-01 0.32048054E+03</pdfrwt>
<totfact> 0.10970666E+03</totfact>
</mgrwt>
</event>
<event>
 4    0  0.1398667E-001  0.2623153E+03  0.7546771E-02  0.1105760E+00
         21   -1    0    0  501  502  0.00000000000E+00  0.00000000000E+00  0.43898267624E+03  0.43898267624E+03  0.00000000000E+00 0.  1.
          2   -1    0    0  502    0 -0.00000000000E+00 -0.00000000000E+00 -0.61227238196E+03  0.61227238196E+03  0.00000000000E+00 0.  1.
         25    1    1    2    0    0 -0.21207314676E+03 -0.90605092412E+02  0.37431027163E+03  0.45707491924E+03  0.12500000000E+03 0.  0.
          2    1    1    2  501    0  0.21207314676E+03  0.90605092412E+02 -0.54759997734E+03  0.59418013896E+03  0.00000000000E+00 0.  1.
<mgrwt>
<rscale>  3 0.26231527E+03</rscale>
<asrwt>0</asrwt>
<pdfrwt beam="1">  1       21 0.67535797E-01 0.26231527E+03</pdfrwt>
<pdfrwt beam="2">  1        2 0.94195750E-01 0.26231527E+03</pdfrwt>
<totfact> 0.12026555E+03</totfact>
</mgrwt>
</event>
<event>
 4    0  0.1006584E-001  0.2406498E+03  0.7546771E-02  0.1119361E+00
          1   -1    0    0  502    0 -0.00000000000E+00  0.00000000000E+00  0.15554811320E+04  0.15554811320E+04  0.00000000000E+00 0.  1.
         21   -1    0    0  501  502  0.00000000000E+00 -0.00000000000E+00 -0.47857429466E+02  0.47857429466E+02  0.00000000000E+00 0. -1.
         25    1    1    2    0    0  0.14673300642E+03  0.14407210358E+03  0.33302339639E+03  0.41087337313E+03  0.12500000000E+03 0.  0.
          1    1    1    2  501    0 -0.14673300642E+03 -0.14407210358E+03  0.11746003062E+04  0.11924651884E+04  0.00000000000E+00 0.  1.
<mgrwt>
<rscale>  3 0.24064984E+03</rscale>
<asrwt>0</asrwt>
<pdfrwt beam="1">  1       21 0.73626826E-02 0.24064984E+03</pdfrwt>
<pdfrwt beam="2">  1        1 0.23930475E+00 0.24064984E+03</pdfrwt>
<totfact> 0.10203279E+04</totfact>
</mgrwt>
</event>
<event>
 4    0  0.1111640E-001  0.2381105E+03  0.7546771E-02  0.1121058E+00
         21   -1    0    0  501  502  0.00000000000E+00  0.00000000000E+00  0.61147513080E+02  0.61147513080E+02  0.00000000000E+00 0. -1.
          2   -1    0    0  502    0 -0.00000000000E+00 -0.00000000000E+00 -0.14643698062E+04  0.14643698062E+04  0.00000000000E+00 0.  1.
         25    1    1    2    0    0  0.19393423037E+02 -0.20173123953E+03 -0.21716061477E+03  0.32226593129E+03  0.12500000000E+03 0.  0.
          2    1    1    2  501    0 -0.19393423037E+02  0.20173123953E+03 -0.11860616783E+04  0.12032513880E+04  0.00000000000E+00 0.  1.
<mgrwt>
<rscale>  3 0.23811047E+03</rscale>
<asrwt>0</asrwt>
<pdfrwt beam="1">  1       21 0.94073116E-02 0.23811047E+03</pdfrwt>
<pdfrwt beam="2">  1        2 0.22528762E+00 0.23811047E+03</pdfrwt>
<totfact> 0.16348562E+04</totfact>
</mgrwt>
</event>
<event>
 4    0  0.1144094E-001  0.2707059E+03  0.7546771E-02  0.1100876E+00
         21   -1    0    0  501  502  0.00000000000E+00  0.00000000000E+00  0.14160081408E+04  0.14160081408E+04  0.00000000000E+00 0.  1.
          2   -1    0    0  502    0 -0.00000000000E+00 -0.00000000000E+00 -0.36111824556E+03  0.36111824556E+03  0.00000000000E+00 0.  1.
         25    1    1    2    0    0 -0.19843434923E+03  0.13520544407E+03  0.13612349122E+04  0.13878912743E+04  0.12500000000E+03 0.  0.
          2    1    1    2  501    0  0.19843434923E+03 -0.13520544407E+03 -0.30634501695E+03  0.38923511207E+03  0.00000000000E+00 0.  1.
<mgrwt>
<rscale>  3 0.27070593E+03</rscale>
<asrwt>0</asrwt>
<pdfrwt beam="1">  1       21 0.21784740E+00 0.27070593E+03</pdfrwt>
<pdfrwt beam="2">  1        2 0.55556654E-01 0.27070593E+03</pdfrwt>
<totfact> 0.10804554E+02</totfact>
</mgrwt>
</event>
<event>
 4    0  0.1002184E-001  0.4211682E+03  0.7546771E-02  0.1036687E+00
          2   -1    0    0  502    0 -0.00000000000E+00  0.00000000000E+00  0.20893184970E+04  0.20893184970E+04  0.00000000000E+00 0. -1.
         21   -1    0    0  501  502  0.00000000000E+00 -0.00000000000E+00 -0.98671227407E+02  0.98671227407E+02  0.00000000000E+00 0.  1.
         25    1    1    2    0    0  0.56762822267E+02  0.39816537040E+03  0.55285414865E+03  0.69500387759E+03  0.12500000000E+03 0.  0.
          2    1    1    2  501    0 -0.56762822267E+02 -0.39816537040E+03  0.14377931209E+04  0.14929858468E+04  0.00000000000E+00 0. -1.
<mgrwt>
<rscale>  3 0.42116823E+03</rscale>
<asrwt>0</asrwt>
<pdfrwt beam="1">  1       21 0.15180190E-01 0.42116823E+03</pdfrwt>
<pdfrwt beam="2">  1        2 0.32143358E+00 0.42116823E+03</pdfrwt>
<totfact> 0.30436846E+03</totfact>
</mgrwt>
</event>
<event>
 4    0  0.1350518E-001  0.2377841E+03  0.7546771E-02  0.1121278E+00
         21   -1    0    0  501  502  0.00000000000E+00  0.00000000000E+00  0.10083217217E+03  0.10083217217E+03  0.00000000000E+00 0. -1.
          1   -1    0    0  502    0 -0.00000000000E+00 -0.00000000000E+00 -0.56690504183E+03  0.56690504183E+03  0.00000000000E+00 0. -1.
         25    1    1    2    0    0 -0.12802947055E+03 -0.15660378575E+03 -0.11870732536E+03  0.26576816990E+03  0.12500000000E+03 0.  0.
          1    1    1    2  501    0  0.12802947055E+03  0.15660378575E+03 -0.34736554431E+03  0.40196904409E+03  0.00000000000E+00 0. -1.
<mgrwt>
<rscale>  3 0.23778413E+03</rscale>
<asrwt>0</asrwt>
<pdfrwt beam="1">  1       21 0.15512642E-01 0.23778413E+03</pdfrwt>
<pdfrwt beam="2">  1        1 0.87216161E-01 0.23778413E+03</pdfrwt>
<totfact> 0.15437045E+04</totfact>
</mgrwt>
</event>
<event>
 4    0  0.1302494E-001  0.2376202E+03  0.7546771E-02  0.1121388E+00
         21   -1    0    0  501  502  0.00000000000E+00  0.00000000000E+00  0.63931912538E+02  0.63931912538E+02  0.00000000000E+00 0. -1.
          1   -1    0    0  502    0 -0.00000000000E+00 -0.00000000000E+00 -0.18099199072E+04  0.18099199072E+04  0.00000000000E+00 0. -1.
         25    1    1    2    0    0 -0.18222692929E+02 -0.20126173561E+03 -0.18849878839E+03  0.30330701605E+03  0.12500000000E+03 0.  0.
          1    1    1    2  501    0  0.18222692929E+02  0.20126173561E+03 -0.15574892063E+04  0.15705448037E+04  0.00000000000E+00 0. -1.
<mgrwt>
<rscale>  3 0.23762019E+03</rscale>
<asrwt>0</asrwt>
<pdfrwt beam="1">  1       21 0.98356788E-02 0.23762019E+03</pdfrwt>
<pdfrwt beam="2">  1        1 0.27844922E+00 0.23762019E+03</pdfrwt>
<totfact> 0.41922354E+03</totfact>
</mgrwt>
</event>
<event>
 4    0  0.1446557E-001  0.2488677E+03  0.7546771E-02  0.1114022E+00
         21   -1    0    0  501  502  0.00000000000E+00  0.00000000000E+00  0.15321013514E+03  0.15321013514E+03  0.00000000000E+00 0.  1.
          2   -1    0    0  502    0 -0.00000000000E+00 -0.00000000000E+00 -0.35456004623E+03  0.35456004623E+03  0.00000000000E+00 0.  1.
         25    1    1    2    0    0  0.21387403007E+03 -0.23833477365E+02 -0.13179102702E+03  0.28160967701E+03  0.12500000000E+03 0.  0.
          2    1    1    2  501    0 -0.21387403007E+03  0.23833477365E+02 -0.69558884066E+02  0.22616050436E+03  0.00000000000E+00 0.  1.
<mgrwt>
<rscale>  3 0.24886771E+03</rscale>
<asrwt>0</asrwt>
<pdfrwt beam="1">  1       21 0.23570790E-01 0.24886771E+03</pdfrwt>
<pdfrwt beam="2">  1        2 0.54547699E-01 0.24886771E+03</pdfrwt>
<totfact> 0.19051937E+04</totfact>
</mgrwt>
</event>
<event>
 4    0  0.1520888E-001  0.2426059E+03  0.7546771E-02  0.1118069E+00
          2   -1    0    0  502    0 -0.00000000000E+00  0.00000000000E+00  0.10661156012E+04  0.10661156012E+04  0.00000000000E+00 0. -1.
         21   -1    0    0  501  502  0.00000000000E+00 -0.00000000000E+00 -0.64471071466E+03  0.64471071466E+03  0.00000000000E+00 0. -1.
         25    1    1    2    0    0 -0.15435644573E+03  0.13930789511E+03 -0.61115122921E+03  0.65754347913E+03  0.12500000000E+03 0.  0.
          2    1    1    2  501    0  0.15435644573E+03 -0.13930789511E+03  0.10325561158E+04  0.10532828368E+04  0.00000000000E+00 0. -1.
<mgrwt>
<rscale>  3 0.24260586E+03</rscale>
<asrwt>0</asrwt>
<pdfrwt beam="1">  1       21 0.99186264E-01 0.24260586E+03</pdfrwt>
<pdfrwt beam="2">  1        2 0.16401778E+00 0.24260586E+03</pdfrwt>
<totfact> 0.24611024E+02</totfact>
</mgrwt>
</event>
<event>
 4    0  0.1367990E-001  0.2494172E+03  0.7546771E-02  0.1113674E+00
          2   -1    0    0  502    0 -0.00000000000E+00  0.00000000000E+00  0.11558862876E+04  0.11558862876E+04  0.00000000000E+00 0.  1.
         21   -1    0    0  501  502  0.00000000000E+00 -0.00000000000E+00 -0.24047119258E+03  0.24047119258E+03  0.00000000000E+00 0.  1.
         25    1    1    2    0    0 -0.18109302057E+03 -0.11742770643E+03 -0.16208276144E+03  0.29745549229E+03  0.12500000000E+03 0.  0.
          2    1    1    2  501    0  0.18109302057E+03  0.11742770643E+03  0.10774978564E+04  0.10989019879E+04  0.00000000000E+00 0.  1.
<mgrwt>
<rscale>  3 0.24941722E+03</rscale>
<asrwt>0</asrwt>
<pdfrwt beam="1">  1       21 0.36995569E-01 0.24941722E+03</pdfrwt>
<pdfrwt beam="2">  1        2 0.17782866E+00 0.24941722E+03</pdfrwt>
<totfact> 0.18544165E+03</totfact>
</mgrwt>
</event>
<event>
 4    0  0.1545395E-001  0.3067544E+03  0.7546771E-02  0.1081912E+00
          2   -1    0    0  502    0 -0.00000000000E+00  0.00000000000E+00  0.76318171446E+03  0.76318171446E+03  0.00000000000E+00 0.  1.
         21   -1    0    0  501  502  0.00000000000E+00 -0.00000000000E+00 -0.18905687799E+03  0.18905687799E+03  0.00000000000E+00 0.  1.
         25    1    1    2    0    0  0.18617961427E+03 -0.20930930727E+03 -0.73081375149E+01  0.30684139837E+03  0.12500000000E+03 0.  0.
          2    1    1    2  501    0 -0.18617961427E+03  0.20930930727E+03  0.58143297398E+03  0.64539719407E+03  0.00000000000E+00 0.  1.
<mgrwt>
<rscale>  3 0.30675436E+03</rscale>
<asrwt>0</asrwt>
<pdfrwt beam="1">  1       21 0.29085674E-01 0.30675436E+03</pdfrwt>
<pdfrwt beam="2">  1        2 0.11741257E+00 0.30675436E+03</pdfrwt>
<totfact> 0.52093651E+03</totfact>
</mgrwt>
</event>
<event>
 4    0  0.1435976E-001  0.2513334E+03  0.7546771E-02  0.1112465E+00
         21   -1    0    0  501  502  0.00000000000E+00  0.00000000000E+00  0.55964442313E+03  0.55964442313E+03  0.00000000000E+00 0.  1.
          2   -1    0    0  502    0 -0.00000000000E+00 -0.00000000000E+00 -0.12746879250E+04  0.12746879250E+04  0.00000000000E+00 0.  1.
         25    1    1    2    0    0  0.19100491217E+03  0.10516933748E+03  0.52139759918E+03  0.57881251062E+03  0.12500000000E+03 0.  0.
          2    1    1    2  501    0 -0.19100491217E+03 -0.10516933748E+03 -0.12364411010E+04  0.12555198375E+04  0.00000000000E+00 0.  1.
<mgrwt>
<rscale>  3 0.25133338E+03</rscale>
<asrwt>0</asrwt>
<pdfrwt beam="1">  1       21 0.86099142E-01 0.25133338E+03</pdfrwt>
<pdfrwt beam="2">  1        2 0.19610584E+00 0.25133338E+03</pdfrwt>
<totfact> 0.25887885E+02</totfact>
</mgrwt>
</event>
<event>
 4    0  0.1200207E-001  0.2393035E+03  0.7546771E-02  0.1120258E+00
         21   -1    0    0  501  502  0.00000000000E+00  0.00000000000E+00  0.91104163529E+02  0.91104163529E+02  0.00000000000E+00 0. -1.
          1   -1    0    0  502    0 -0.00000000000E+00 -0.00000000000E+00 -0.32817884030E+04  0.32817884030E+04  0.00000000000E+00 0.  1.
         25    1    1    2    0    0 -0.10495589154E+03  0.17500121723E+03 -0.75355423512E+02  0.25088763432E+03  0.12500000000E+03 0.  0.
          1    1    1    2  501    0  0.10495589154E+03 -0.17500121723E+03 -0.31153288159E+04  0.31220049322E+04  0.00000000000E+00 0.  1.
<mgrwt>
<rscale>  3 0.23930350E+03</rscale>
<asrwt>0</asrwt>
<pdfrwt beam="1">  1       21 0.14016025E-01 0.23930350E+03</pdfrwt>
<pdfrwt beam="2">  1        1 0.50489053E+00 0.23930350E+03</pdfrwt>
<totfact> 0.22705503E+02</totfact>
</mgrwt>
</event>
<event>
 4    0  0.1434608E-001  0.2540112E+03  0.7546771E-02  0.1110796E+00
          1   -1    0    0  502    0 -0.00000000000E+00  0.00000000000E+00  0.29211263096E+03  0.29211263096E+03  0.00000000000E+00 0. -1.
         21   -1    0    0  501  502  0.00000000000E+00 -0.00000000000E+00 -0.20978785046E+03  0.20978785046E+03  0.00000000000E+00 0. -1.
         25    1    1    2    0    0 -0.20888038233E+03 -0.72565124662E+02  0.11417631067E+03  0.27849226445E+03  0.12500000000E+03 0.  0.
          1    1    1    2  501    0  0.20888038233E+03  0.72565124662E+02 -0.31851530166E+02  0.22340821698E+03  0.00000000000E+00 0. -1.
<mgrwt>
<rscale>  3 0.25401124E+03</rscale>
<asrwt>0</asrwt>
<pdfrwt beam="1">  1       21 0.32275054E-01 0.25401124E+03</pdfrwt>
<pdfrwt beam="2">  1        1 0.44940405E-01 0.25401124E+03</pdfrwt>
<totfact> 0.90321180E+03</totfact>
</mgrwt>
</event>
<event>
 4    0  0.1436420E-001  0.2936426E+03  0.7546771E-02  0.1088462E+00
         21   -1    0    0  501  502  0.00000000000E+00  0.00000000000E+00  0.12644911538E+03  0.12644911538E+03  0.00000000000E+00 0. -1.
          2   -1    0    0  502    0 -0.00000000000E+00 -0.00000000000E+00 -0.21904473441E+04  0.21904473441E+04  0.00000000000E+00 0.  1.
         25    1    1    2    0    0 -0.26554572074E+03 -0.92977056247E+01 -0.65560828436E+02  0.30087239713E+03  0.12500000000E+03 0.  0.
          2    1    1    2  501    0  0.26554572074E+03  0.92977056247E+01 -0.19984374003E+04  0.20160240623E+04  0.00000000000E+00 0.  1.
<mgrwt>
<rscale>  3 0.29364260E+03</rscale>
<asrwt>0</asrwt>
<pdfrwt beam="1">  1       21 0.19453711E-01 0.29364260E+03</pdfrwt>
<pdfrwt beam="2">  1        2 0.33699188E+00 0.29364260E+03</pdfrwt>
<totfact> 0.17652629E+03</totfact>
</mgrwt>
</event>
<event>
 4    0  0.1620681E-001  0.2880659E+03  0.7546771E-02  0.1091363E+00
         21   -1    0    0  501  502  0.00000000000E+00  0.00000000000E+00  0.14329091378E+04  0.14329091378E+04  0.00000000000E+00 0.  1.
          2   -1    0    0  502    0 -0.00000000000E+00 -0.00000000000E+00 -0.73413546114E+03  0.73413546114E+03  0.00000000000E+00 0. -1.
         25    1    1    2    0    0  0.16099391694E+03  0.20356300099E+03  0.13947840608E+04  0.14242206686E+04  0.12500000000E+03 0.  0.
          2    1    1    2  501    0 -0.16099391694E+03 -0.20356300099E+03 -0.69601038413E+03  0.74282393034E+03  0.00000000000E+00 0. -1.
<mgrwt>
<rscale>  3 0.28806585E+03</rscale>
<asrwt>0</asrwt>
<pdfrwt beam="1">  1       21 0.22044756E+00 0.28806585E+03</pdfrwt>
<pdfrwt beam="2">  1        2 0.11294392E+00 0.28806585E+03</pdfrwt>
<totfact> 0.45683528E+01</totfact>
</mgrwt>
</event>
<event>
 4    0  0.1008549E-001  0.2754441E+03  0.7546771E-02  0.1098204E+00
         21   -1    0    0  501  502  0.00000000000E+00  0.00000000000E+00  0.84304807382E+02  0.84304807382E+02  0.00000000000E+00 0. -1.
          2   -1    0    0  502    0 -0.00000000000E+00 -0.00000000000E+00 -0.10244407686E+04  0.10244407686E+04  0.00000000000E+00 0.  1.
         25    1    1    2    0    0 -0.17489285976E+03  0.17221189850E+03 -0.23485558789E+03  0.36197596266E+03  0.12500000000E+03 0.  0.
          2    1    1    2  501    0  0.17489285976E+03 -0.17221189850E+03 -0.70528037334E+03  0.74676961334E+03  0.00000000000E+00 0.  1.
<mgrwt>
<rscale>  3 0.27544410E+03</rscale>
<asrwt>0</asrwt>
<pdfrwt beam="1">  1       21 0.12969970E-01 0.27544410E+03</pdfrwt>
<pdfrwt beam="2">  1        2 0.15760628E+00 0.27544410E+03</pdfrwt>
<totfact> 0.16169320E+04</totfact>
</mgrwt>
</event>
<event>
 4    0  0.1304727E-001  0.2849274E+03  0.7546771E-02  0.1093028E+00
          2   -1    0    0  502    0 -0.00000000000E+00  0.00000000000E+00  0.21234764123E+04  0.21234764123E+04  0.00000000000E+00 0.  1.
         21   -1    0    0  501  502  0.00000000000E+00 -0.00000000000E+00 -0.91368636943E+02  0.91368636943E+02  0.00000000000E+00 0. -1.
         25    1    1    2    0    0 -0.15456173658E+03  0.20413061892E+03  0.16295063655E+03  0.32823246327E+03  0.12500000000E+03 0.  0.
          2    1    1    2  501    0  0.15456173658E+03 -0.20413061892E+03  0.18691571389E+04  0.18866125860E+04  0.00000000000E+00 0.  1.
<mgrwt>
<rscale>  3 0.28492743E+03</rscale>
<asrwt>0</asrwt>
<pdfrwt beam="1">  1       21 0.14056715E-01 0.28492743E+03</pdfrwt>
<pdfrwt beam="2">  1        2 0.32668864E+00 0.28492743E+03</pdfrwt>
<totfact> 0.35116154E+03</totfact>
</mgrwt>
</event>
<event>
 4    0  0.1002184E-001  0.3460290E+03  0.7546771E-02  0.1064257E+00
         21   -1    0    0  501  502  0.00000000000E+00  0.00000000000E+00  0.30879822973E+03  0.30879822973E+03  0.00000000000E+00 0.  1.
         -4   -1    0    0    0  501 -0.00000000000E+00 -0.00000000000E+00 -0.59928406961E+03  0.59928406961E+03  0.00000000000E+00 0. -1.
         25    1    1    2    0    0 -0.51140985450E+02  0.31858381533E+03  0.13728370197E+03  0.37226719250E+03  0.12500000000E+03 0.  0.
         -4    1    1    2    0  502  0.51140985450E+02 -0.31858381533E+03 -0.42776954186E+03  0.53581510685E+03  0.00000000000E+00 0. -1.
<mgrwt>
<rscale>  3 0.34602897E+03</rscale>
<asrwt>0</asrwt>
<pdfrwt beam="1">  1       21 0.47507421E-01 0.34602897E+03</pdfrwt>
<pdfrwt beam="2">  1       -4 0.92197548E-01 0.34602897E+03</pdfrwt>
<totfact> 0.17958179E+02</totfact>
</mgrwt>
</event>
<event>
 4    0  0.1725844E-001  0.2635730E+03  0.7546771E-02  0.1105015E+00
          2   -1    0    0  502    0 -0.00000000000E+00  0.00000000000E+00  0.10427578957E+04  0.10427578957E+04  0.00000000000E+00 0. -1.
         21   -1    0    0  501  502  0.00000000000E+00 -0.00000000000E+00 -0.18617051256E+03  0.18617051256E+03  0.00000000000E+00 0.  1.
         25    1    1    2    0    0 -0.18394837511E+03 -0.14145218538E+03 -0.70828015471E+02  0.27292367656E+03  0.12500000000E+03 0.  0.
          2    1    1    2  501    0  0.18394837511E+03  0.14145218538E+03  0.92741539861E+03  0.95600473170E+03  0.00000000000E+00 0. -1.
<mgrwt>
<rscale>  3 0.26357300E+03</rscale>
<asrwt>0</asrwt>
<pdfrwt beam="1">  1       21 0.28641618E-01 0.26357300E+03</pdfrwt>
<pdfrwt beam="2">  1        2 0.16042429E+00 0.26357300E+03</pdfrwt>
<totfact> 0.35703362E+03</totfact>
</mgrwt>
</event>
<event>
 4    0  0.1002184E-001  0.2948270E+03  0.7546771E-02  0.1087856E+00
          2   -1    0    0  502    0 -0.00000000000E+00  0.00000000000E+00  0.47803470541E+03  0.47803470541E+03  0.00000000000E+00 0. -1.
         21   -1    0    0  501  502  0.00000000000E+00 -0.00000000000E+00 -0.28454403325E+03  0.28454403325E+03  0.00000000000E+00 0.  1.
         25    1    1    2    0    0  0.25972543157E+03 -0.61973089360E+02  0.34639898477E+03  0.45487934693E+03  0.12500000000E+03 0.  0.
          2    1    1    2  501    0 -0.25972543157E+03  0.61973089360E+02 -0.15290831260E+03  0.30769939173E+03  0.00000000000E+00 0. -1.
<mgrwt>
<rscale>  3 0.29482701E+03</rscale>
<asrwt>0</asrwt>
<pdfrwt beam="1">  1       21 0.43776005E-01 0.29482701E+03</pdfrwt>
<pdfrwt beam="2">  1        2 0.73543801E-01 0.29482701E+03</pdfrwt>
<totfact> 0.39849192E+03</totfact>
</mgrwt>
</event>
<event>
 4    0  0.1478901E-001  0.3295006E+03  0.7546771E-02  0.1071358E+00
         21   -1    0    0  501  502  0.00000000000E+00  0.00000000000E+00  0.77226433819E+02  0.77226433819E+02  0.00000000000E+00 0.  1.
          2   -1    0    0  502    0 -0.00000000000E+00 -0.00000000000E+00 -0.20498588344E+04  0.20498588344E+04  0.00000000000E+00 0.  1.
         25    1    1    2    0    0 -0.19585621009E+03  0.23363649840E+03 -0.36888694466E+03  0.49461929436E+03  0.12500000000E+03 0.  0.
          2    1    1    2  501    0  0.19585621009E+03 -0.23363649840E+03 -0.16037454559E+04  0.16324659738E+04  0.00000000000E+00 0.  1.
<mgrwt>
<rscale>  3 0.32950063E+03</rscale>
<asrwt>0</asrwt>
<pdfrwt beam="1">  1       21 0.11880991E-01 0.32950063E+03</pdfrwt>
<pdfrwt beam="2">  1        2 0.31536286E+00 0.32950063E+03</pdfrwt>
<totfact> 0.51371263E+03</totfact>
</mgrwt>
</event>
<event>
 4    0  0.1220809E-001  0.2474401E+03  0.7546771E-02  0.1114933E+00
         -1   -1    0    0    0  501 -0.00000000000E+00  0.00000000000E+00  0.62930809801E+02  0.62930809801E+02  0.00000000000E+00 0. -1.
         21   -1    0    0  501  502  0.00000000000E+00 -0.00000000000E+00 -0.91046058070E+03  0.91046058070E+03  0.00000000000E+00 0. -1.
         25    1    1    2    0    0 -0.11328715819E+03 -0.18101823081E+03 -0.58361255551E+03  0.63390077697E+03  0.12500000000E+03 0.  0.
         -1    1    1    2    0  502  0.11328715819E+03  0.18101823081E+03 -0.26391721539E+03  0.33949061353E+03  0.00000000000E+00 0. -1.
<mgrwt>
<rscale>  3 0.24744005E+03</rscale>
<asrwt>0</asrwt>
<pdfrwt beam="1">  1       21 0.14007085E+00 0.24744005E+03</pdfrwt>
<pdfrwt beam="2">  1       -1 0.96816638E-02 0.24744005E+03</pdfrwt>
<totfact> 0.20056233E+03</totfact>
</mgrwt>
</event>
<event>
 4    0  0.1496495E-001  0.2456387E+03  0.7546771E-02  0.1116092E+00
          2   -1    0    0  502    0 -0.00000000000E+00  0.00000000000E+00  0.55817508671E+03  0.55817508671E+03  0.00000000000E+00 0.  1.
         21   -1    0    0  501  502  0.00000000000E+00 -0.00000000000E+00 -0.95566090395E+02  0.95566090395E+02  0.00000000000E+00 0.  1.
         25    1    1    2    0    0  0.13105843269E+03  0.16594297378E+03  0.29524120766E+03  0.38406477843E+03  0.12500000000E+03 0.  0.
          2    1    1    2  501    0 -0.13105843269E+03 -0.16594297378E+03  0.16736778866E+03  0.26967639868E+03  0.00000000000E+00 0.  1.
<mgrwt>
<rscale>  3 0.24563873E+03</rscale>
<asrwt>0</asrwt>
<pdfrwt beam="1">  1       21 0.14702476E-01 0.24563873E+03</pdfrwt>
<pdfrwt beam="2">  1        2 0.85873089E-01 0.24563873E+03</pdfrwt>
<totfact> 0.27840081E+04</totfact>
</mgrwt>
</event>
<event>
 4    0  0.1272476E-001  0.3281357E+03  0.7546771E-02  0.1071965E+00
          2   -1    0    0  502    0 -0.00000000000E+00  0.00000000000E+00  0.24036338682E+04  0.24036338682E+04  0.00000000000E+00 0. -1.
         21   -1    0    0  501  502  0.00000000000E+00 -0.00000000000E+00 -0.11998166384E+03  0.11998166384E+03  0.00000000000E+00 0. -1.
         25    1    1    2    0    0  0.23987018161E+03  0.18576963132E+03  0.13692973979E+03  0.35555985936E+03  0.12500000000E+03 0.  0.
          2    1    1    2  501    0 -0.23987018161E+03 -0.18576963132E+03  0.21467224646E+04  0.21680556727E+04  0.00000000000E+00 0. -1.
<mgrwt>
<rscale>  3 0.32813573E+03</rscale>
<asrwt>0</asrwt>
<pdfrwt beam="1">  1       21 0.18458719E-01 0.32813573E+03</pdfrwt>
<pdfrwt beam="2">  1        2 0.36978979E+00 0.32813573E+03</pdfrwt>
<totfact> 0.14735977E+03</totfact>
</mgrwt>
</event>
<event>
 4    0  0.1506385E-001  0.3367622E+03  0.7546771E-02  0.1068183E+00
          2   -1    0    0  502    0 -0.00000000000E+00  0.00000000000E+00  0.98085773287E+03  0.98085773287E+03  0.00000000000E+00 0.  1.
         21   -1    0    0  501  502  0.00000000000E+00 -0.00000000000E+00 -0.27442738332E+03  0.27442738332E+03  0.00000000000E+00 0. -1.
         25    1    1    2    0    0  0.19840856473E+03 -0.24169782759E+03 -0.13102434604E+03  0.36135325884E+03  0.12500000000E+03 0.  0.
          2    1    1    2  501    0 -0.19840856473E+03  0.24169782759E+03  0.83745469559E+03  0.89393185735E+03  0.00000000000E+00 0.  1.
<mgrwt>
<rscale>  3 0.33676223E+03</rscale>
<asrwt>0</asrwt>
<pdfrwt beam="1">  1       21 0.42219598E-01 0.33676223E+03</pdfrwt>
<pdfrwt beam="2">  1        2 0.15090119E+00 0.33676223E+03</pdfrwt>
<totfact> 0.17485229E+03</totfact>
</mgrwt>
</event>
<event>
 4    0  0.1139495E-001  0.3611395E+03  0.7546771E-02  0.1058134E+00
         21   -1    0    0  501  502  0.00000000000E+00  0.00000000000E+00  0.38625023779E+03  0.38625023779E+03  0.00000000000E+00 0. -1.
          1   -1    0    0  502    0 -0.00000000000E+00 -0.00000000000E+00 -0.61361170964E+03  0.61361170964E+03  0.00000000000E+00 0.  1.
         25    1    1    2    0    0 -0.49177097425E+01 -0.33878098863E+03  0.23187061232E+03  0.42916864166E+03  0.12500000000E+03 0.  0.
          1    1    1    2  501    0  0.49177097425E+01  0.33878098863E+03 -0.45923208417E+03  0.57069330577E+03  0.00000000000E+00 0.  1.
<mgrwt>
<rscale>  3 0.36113951E+03</rscale>
<asrwt>0</asrwt>
<pdfrwt beam="1">  1       21 0.59423114E-01 0.36113951E+03</pdfrwt>
<pdfrwt beam="2">  1        1 0.94401801E-01 0.36113951E+03</pdfrwt>
<totfact> 0.93641900E+02</totfact>
</mgrwt>
</event>
<event>
 4    0  0.1245851E-001  0.2412643E+03  0.7546771E-02  0.1118953E+00
          2   -1    0    0  502    0 -0.00000000000E+00  0.00000000000E+00  0.34312297149E+03  0.34312297149E+03  0.00000000000E+00 0. -1.
         21   -1    0    0  501  502  0.00000000000E+00 -0.00000000000E+00 -0.29730037071E+03  0.29730037071E+03  0.00000000000E+00 0. -1.
         25    1    1    2    0    0  0.14685972344E+03 -0.14496788374E+03 -0.20431347175E+03  0.31615259041E+03  0.12500000000E+03 0.  0.
          2    1    1    2  501    0 -0.14685972344E+03  0.14496788374E+03  0.25013607253E+03  0.32427075179E+03  0.00000000000E+00 0. -1.
<mgrwt>
<rscale>  3 0.24126431E+03</rscale>
<asrwt>0</asrwt>
<pdfrwt beam="1">  1       21 0.45738518E-01 0.24126431E+03</pdfrwt>
<pdfrwt beam="2">  1        2 0.52788150E-01 0.24126431E+03</pdfrwt>
<totfact> 0.53068370E+03</totfact>
</mgrwt>
</event>
<event>
 4    0  0.1387183E-001  0.2414959E+03  0.7546771E-02  0.1118800E+00
          2   -1    0    0  502    0 -0.00000000000E+00  0.00000000000E+00  0.11031402515E+04  0.11031402515E+04  0.00000000000E+00 0.  1.
         21   -1    0    0  501  502  0.00000000000E+00 -0.00000000000E+00 -0.18350246553E+03  0.18350246553E+03  0.00000000000E+00 0.  1.
         25    1    1    2    0    0 -0.14869034941E+03  0.14347985794E+03 -0.88761356329E+02  0.25729140681E+03  0.12500000000E+03 0.  0.
          2    1    1    2  501    0  0.14869034941E+03 -0.14347985794E+03  0.10083991423E+04  0.10293513102E+04  0.00000000000E+00 0.  1.
<mgrwt>
<rscale>  3 0.24149594E+03</rscale>
<asrwt>0</asrwt>
<pdfrwt beam="1">  1       21 0.28231149E-01 0.24149594E+03</pdfrwt>
<pdfrwt beam="2">  1        2 0.16971388E+00 0.24149594E+03</pdfrwt>
<totfact> 0.34076523E+03</totfact>
</mgrwt>
</event>
<event>
 4    0  0.1383223E-001  0.4047341E+03  0.7546771E-02  0.1042153E+00
         21   -1    0    0  501  502  0.00000000000E+00  0.00000000000E+00  0.26946355691E+03  0.26946355691E+03  0.00000000000E+00 0.  1.
          4   -1    0    0  502    0 -0.00000000000E+00 -0.00000000000E+00 -0.58193407805E+03  0.58193407805E+03  0.00000000000E+00 0.  1.
         25    1    1    2    0    0 -0.38384441206E+03  0.29123101531E+02 -0.12769538613E+03  0.42440051761E+03  0.12500000000E+03 0.  0.
          4    1    1    2  501    0  0.38384441206E+03 -0.29123101531E+02 -0.18477513501E+03  0.42699711735E+03  0.00000000000E+00 0.  1.
<mgrwt>
<rscale>  3 0.40473410E+03</rscale>
<asrwt>0</asrwt>
<pdfrwt beam="1">  1       21 0.41455932E-01 0.40473410E+03</pdfrwt>
<pdfrwt beam="2">  1        4 0.89528319E-01 0.40473410E+03</pdfrwt>
<totfact> 0.25361031E+02</totfact>
</mgrwt>
</event>
<event>
 4    0  0.1028945E-001  0.2513492E+03  0.7546771E-02  0.1112455E+00
          1   -1    0    0  502    0 -0.00000000000E+00  0.00000000000E+00  0.34187893165E+04  0.34187893165E+04  0.00000000000E+00 0.  1.
         21   -1    0    0  501  502  0.00000000000E+00 -0.00000000000E+00 -0.78822119405E+02  0.78822119405E+02  0.00000000000E+00 0.  1.
         25    1    1    2    0    0  0.15659883229E+03  0.15175059284E+03  0.13514296852E+03  0.28537704646E+03  0.12500000000E+03 0.  0.
          1    1    1    2  501    0 -0.15659883229E+03 -0.15175059284E+03  0.32048242286E+04  0.32122343895E+04  0.00000000000E+00 0.  1.
<mgrwt>
<rscale>  3 0.25134923E+03</rscale>
<asrwt>0</asrwt>
<pdfrwt beam="1">  1       21 0.12126483E-01 0.25134923E+03</pdfrwt>
<pdfrwt beam="2">  1        1 0.52596747E+00 0.25134923E+03</pdfrwt>
<totfact> 0.23210813E+02</totfact>
</mgrwt>
</event>
<event>
 4    0  0.1002184E-001  0.2370141E+03  0.7546771E-02  0.1121798E+00
          3   -1    0    0  502    0 -0.00000000000E+00  0.00000000000E+00  0.72994125578E+02  0.72994125578E+02  0.00000000000E+00 0.  1.
         21   -1    0    0  501  502  0.00000000000E+00 -0.00000000000E+00 -0.66351853787E+03  0.66351853787E+03  0.00000000000E+00 0.  1.
         25    1    1    2    0    0 -0.17670642715E+03  0.96568660738E+02 -0.35190194649E+03  0.42427661681E+03  0.12500000000E+03 0.  0.
          3    1    1    2  501    0  0.17670642715E+03 -0.96568660738E+02 -0.23862246580E+03  0.31223604663E+03  0.00000000000E+00 0.  1.
<mgrwt>
<rscale>  3 0.23701407E+03</rscale>
<asrwt>0</asrwt>
<pdfrwt beam="1">  1       21 0.10207978E+00 0.23701407E+03</pdfrwt>
<pdfrwt beam="2">  1        3 0.11229865E-01 0.23701407E+03</pdfrwt>
<totfact> 0.23296080E+03</totfact>
</mgrwt>
</event>
<event>
 4    0  0.1002184E-001  0.2486272E+03  0.7546771E-02  0.1114176E+00
          4   -1    0    0  502    0 -0.00000000000E+00  0.00000000000E+00  0.21821610698E+03  0.21821610698E+03  0.00000000000E+00 0. -1.
         21   -1    0    0  501  502  0.00000000000E+00 -0.00000000000E+00 -0.28362019009E+03  0.28362019009E+03  0.00000000000E+00 0.  1.
         25    1    1    2    0    0 -0.16604257423E+03  0.13645631938E+03 -0.12573101965E+03  0.27861039618E+03  0.12500000000E+03 0.  0.
          4    1    1    2  501    0  0.16604257423E+03 -0.13645631938E+03  0.60326936536E+02  0.22322590089E+03  0.00000000000E+00 0. -1.
<mgrwt>
<rscale>  3 0.24862716E+03</rscale>
<asrwt>0</asrwt>
<pdfrwt beam="1">  1       21 0.43633875E-01 0.24862716E+03</pdfrwt>
<pdfrwt beam="2">  1        4 0.33571709E-01 0.24862716E+03</pdfrwt>
<totfact> 0.18234289E+03</totfact>
</mgrwt>
</event>
<event>
 4    0  0.1610820E-001  0.2438485E+03  0.7546771E-02  0.1117255E+00
         21   -1    0    0  501  502  0.00000000000E+00  0.00000000000E+00  0.12450094857E+03  0.12450094857E+03  0.00000000000E+00 0. -1.
         -2   -1    0    0    0  501 -0.00000000000E+00 -0.00000000000E+00 -0.43773900021E+03  0.43773900021E+03  0.00000000000E+00 0. -1.
         25    1    1    2    0    0 -0.12954496069E+03 -0.16448463641E+03 -0.10048169424E+03  0.26373976442E+03  0.12500000000E+03 0.  0.
         -2    1    1    2    0  502  0.12954496069E+03  0.16448463641E+03 -0.21275635740E+03  0.29850018437E+03  0.00000000000E+00 0. -1.
<mgrwt>
<rscale>  3 0.24384850E+03</rscale>
<asrwt>0</asrwt>
<pdfrwt beam="1">  1       21 0.19153992E-01 0.24384850E+03</pdfrwt>
<pdfrwt beam="2">  1       -2 0.67344461E-01 0.24384850E+03</pdfrwt>
<totfact> 0.41950667E+03</totfact>
</mgrwt>
</event>
<event>
 4    0  0.1002184E-001  0.2800537E+03  0.7546771E-02  0.1095660E+00
         21   -1    0    0  501  502  0.00000000000E+00  0.00000000000E+00  0.37273667812E+03  0.37273667812E+03  0.00000000000E+00 0.  1.
          1   -1    0    0  502    0 -0.00000000000E+00 -0.00000000000E+00 -0.22721031929E+03  0.22721031929E+03  0.00000000000E+00 0. -1.
         25    1    1    2    0    0 -0.12520746190E+02  0.25029644770E+03  0.19917707003E+03  0.34365911314E+03  0.12500000000E+03 0.  0.
          1    1    1    2  501    0  0.12520746190E+02 -0.25029644770E+03 -0.53650711206E+02  0.25628788428E+03  0.00000000000E+00 0. -1.
<mgrwt>
<rscale>  3 0.28005371E+03</rscale>
<asrwt>0</asrwt>
<pdfrwt beam="1">  1       21 0.57344104E-01 0.28005371E+03</pdfrwt>
<pdfrwt beam="2">  1        1 0.34955434E-01 0.28005371E+03</pdfrwt>
<totfact> 0.37763998E+03</totfact>
</mgrwt>
</event>
<event>
 4    0  0.1002184E-001  0.3047693E+03  0.7546771E-02  0.1082880E+00
          2   -1    0    0  502    0 -0.00000000000E+00  0.00000000000E+00  0.19007820408E+04  0.19007820408E+04  0.00000000000E+00 0.  1.
         21   -1    0    0  501  502  0.00000000000E+00 -0.00000000000E+00 -0.44822960438E+02  0.44822960438E+02  0.00000000000E+00 0. -1.
         25    1    1    2    0    0  0.20972469498E+03  0.18241408852E+03  0.91223307317E+03  0.96179703012E+03  0.12500000000E+03 0.  0.
          2    1    1    2  501    0 -0.20972469498E+03 -0.18241408852E+03  0.94372600722E+03  0.98380797114E+03  0.00000000000E+00 0.  1.
<mgrwt>
<rscale>  3 0.30476933E+03</rscale>
<asrwt>0</asrwt>
<pdfrwt beam="1">  1       21 0.68958415E-02 0.30476933E+03</pdfrwt>
<pdfrwt beam="2">  1        2 0.29242794E+00 0.30476933E+03</pdfrwt>
<totfact> 0.16289780E+04</totfact>
</mgrwt>
</event>
<event>
 4    0  0.1305136E-001  0.2538912E+03  0.7546771E-02  0.1110870E+00
         21   -1    0    0  501  502  0.00000000000E+00  0.00000000000E+00  0.20576691888E+03  0.20576691888E+03  0.00000000000E+00 0. -1.
         -3   -1    0    0    0  501 -0.00000000000E+00 -0.00000000000E+00 -0.11361827725E+04  0.11361827725E+04  0.00000000000E+00 0.  1.
         25    1    1    2    0    0  0.17482332902E+03  0.13517599994E+03  0.11118128193E+03  0.27716786390E+03  0.12500000000E+03 0.  0.
         -3    1    1    2    0  502 -0.17482332902E+03 -0.13517599994E+03 -0.10415971356E+04  0.10647818275E+04  0.00000000000E+00 0.  1.
<mgrwt>
<rscale>  3 0.25389121E+03</rscale>
<asrwt>0</asrwt>
<pdfrwt beam="1">  1       21 0.31656449E-01 0.25389121E+03</pdfrwt>
<pdfrwt beam="2">  1       -3 0.17479735E+00 0.25389121E+03</pdfrwt>
<totfact> 0.10742595E+02</totfact>
</mgrwt>
</event>
<event>
 4    0  0.1002184E-001  0.2830518E+03  0.7546771E-02  0.1094034E+00
          1   -1    0    0  502    0 -0.00000000000E+00  0.00000000000E+00  0.47659096147E+03  0.47659096147E+03  0.00000000000E+00 0.  1.
         21   -1    0    0  501  502  0.00000000000E+00 -0.00000000000E+00 -0.15764400779E+03  0.15764400779E+03  0.00000000000E+00 0. -1.
         25    1    1    2    0    0  0.25259619685E+03 -0.26239294838E+02  0.10409178449E+03  0.30158487836E+03  0.12500000000E+03 0.  0.
          1    1    1    2  501    0 -0.25259619685E+03  0.26239294838E+02  0.21485516918E+03  0.33265009091E+03  0.00000000000E+00 0.  1.
<mgrwt>
<rscale>  3 0.28305183E+03</rscale>
<asrwt>0</asrwt>
<pdfrwt beam="1">  1       21 0.24252925E-01 0.28305183E+03</pdfrwt>
<pdfrwt beam="2">  1        1 0.73321686E-01 0.28305183E+03</pdfrwt>
<totfact> 0.83617762E+03</totfact>
</mgrwt>
</event>
<event>
 4    0  0.1002184E-001  0.2403886E+03  0.7546771E-02  0.1119534E+00
         21   -1    0    0  501  502  0.00000000000E+00  0.00000000000E+00  0.50267069749E+02  0.50267069749E+02  0.00000000000E+00 0. -1.
          2   -1    0    0  502    0 -0.00000000000E+00 -0.00000000000E+00 -0.36739632716E+04  0.36739632716E+04  0.00000000000E+00 0. -1.
         25    1    1    2    0    0 -0.19659124149E+03 -0.59275494849E+02 -0.25934564850E+03  0.35361966279E+03  0.12500000000E+03 0.  0.
          2    1    1    2  501    0  0.19659124149E+03  0.59275494849E+02 -0.33643505533E+04  0.33706106785E+04  0.00000000000E+00 0. -1.
<mgrwt>
<rscale>  3 0.24038864E+03</rscale>
<asrwt>0</asrwt>
<pdfrwt beam="1">  1       21 0.77333939E-02 0.24038864E+03</pdfrwt>
<pdfrwt beam="2">  1        2 0.56522522E+00 0.24038864E+03</pdfrwt>
<totfact> 0.12661820E+03</totfact>
</mgrwt>
</event>
<event>
 4    0  0.1141754E-001  0.2603142E+03  0.7546771E-02  0.1106955E+00
         21   -1    0    0  501  502  0.00000000000E+00  0.00000000000E+00  0.65970420062E+02  0.65970420062E+02  0.00000000000E+00 0.  1.
          2   -1    0    0  502    0 -0.00000000000E+00 -0.00000000000E+00 -0.15470631928E+04  0.15470631928E+04  0.00000000000E+00 0. -1.
         25    1    1    2    0    0 -0.18335946625E+03 -0.13608004609E+03 -0.24991779466E+03  0.36086337705E+03  0.12500000000E+03 0.  0.
          2    1    1    2  501    0  0.18335946625E+03  0.13608004609E+03 -0.12311749781E+04  0.12521702358E+04  0.00000000000E+00 0. -1.
<mgrwt>
<rscale>  3 0.26031418E+03</rscale>
<asrwt>0</asrwt>
<pdfrwt beam="1">  1       21 0.10149296E-01 0.26031418E+03</pdfrwt>
<pdfrwt beam="2">  1        2 0.23800972E+00 0.26031418E+03</pdfrwt>
<totfact> 0.12829680E+04</totfact>
</mgrwt>
</event>
<event>
 4    0  0.1461595E-001  0.3319924E+03  0.7546771E-02  0.1070259E+00
         21   -1    0    0  501  502  0.00000000000E+00  0.00000000000E+00  0.10356429482E+03  0.10356429482E+03  0.00000000000E+00 0. -1.
          1   -1    0    0  502    0 -0.00000000000E+00 -0.00000000000E+00 -0.17076880533E+04  0.17076880533E+04  0.00000000000E+00 0. -1.
         25    1    1    2    0    0 -0.26408933067E+03 -0.15764135150E+03 -0.23185384583E+03  0.40493848434E+03  0.12500000000E+03 0.  0.
          1    1    1    2  501    0  0.26408933067E+03  0.15764135150E+03 -0.13722699126E+04  0.14063138638E+04  0.00000000000E+00 0. -1.
<mgrwt>
<rscale>  3 0.33199243E+03</rscale>
<asrwt>0</asrwt>
<pdfrwt beam="1">  1       21 0.15932970E-01 0.33199243E+03</pdfrwt>
<pdfrwt beam="2">  1        1 0.26272121E+00 0.33199243E+03</pdfrwt>
<totfact> 0.19722851E+03</totfact>
</mgrwt>
</event>
<event>
 4    0  0.1207912E-001  0.3098844E+03  0.7546771E-02  0.1080401E+00
         -1   -1    0    0    0  501 -0.00000000000E+00  0.00000000000E+00  0.49165617982E+03  0.49165617982E+03  0.00000000000E+00 0. -1.
         21   -1    0    0  501  502  0.00000000000E+00 -0.00000000000E+00 -0.11861839305E+04  0.11861839305E+04  0.00000000000E+00 0.  1.
         25    1    1    2    0    0 -0.28354967961E+03  0.17165739317E+01 -0.11224814452E+04  0.11644711084E+04  0.12500000000E+03 0.  0.
         -1    1    1    2    0  502  0.28354967961E+03 -0.17165739317E+01  0.42795369455E+03  0.51336900190E+03  0.00000000000E+00 0. -1.
<mgrwt>
<rscale>  3 0.30988444E+03</rscale>
<asrwt>0</asrwt>
<pdfrwt beam="1">  1       21 0.18248983E+00 0.30988444E+03</pdfrwt>
<pdfrwt beam="2">  1       -1 0.75639413E-01 0.30988444E+03</pdfrwt>
<totfact> 0.27351350E+01</totfact>
</mgrwt>
</event>
<event>
 4    0  0.1070947E-001  0.2374613E+03  0.7546771E-02  0.1121496E+00
          1   -1    0    0  502    0 -0.00000000000E+00  0.00000000000E+00  0.70576649644E+03  0.70576649644E+03  0.00000000000E+00 0.  1.
         21   -1    0    0  501  502  0.00000000000E+00 -0.00000000000E+00 -0.12764906925E+03  0.12764906925E+03  0.00000000000E+00 0. -1.
         25    1    1    2    0    0  0.11950343940E+02 -0.20154424223E+03  0.18140330647E+02  0.23815323616E+03  0.12500000000E+03 0.  0.
          1    1    1    2  501    0 -0.11950343940E+02  0.20154424223E+03  0.55997709654E+03  0.59526232952E+03  0.00000000000E+00 0.  1.
<mgrwt>
<rscale>  3 0.23746135E+03</rscale>
<asrwt>0</asrwt>
<pdfrwt beam="1">  1       21 0.19638319E-01 0.23746135E+03</pdfrwt>
<pdfrwt beam="2">  1        1 0.10857946E+00 0.23746135E+03</pdfrwt>
<totfact> 0.73181323E+03</totfact>
</mgrwt>
</event>
<event>
 4    0  0.1002184E-001  0.2647778E+03  0.7546771E-02  0.1104306E+00
         21   -1    0    0  501  502  0.00000000000E+00  0.00000000000E+00  0.65841169936E+03  0.65841169936E+03  0.00000000000E+00 0.  1.
          1   -1    0    0  502    0 -0.00000000000E+00 -0.00000000000E+00 -0.17124334191E+03  0.17124334191E+03  0.00000000000E+00 0. -1.
         25    1    1    2    0    0 -0.16035076616E+03 -0.16961691689E+03  0.52989275950E+03  0.59236272948E+03  0.12500000000E+03 0.  0.
          1    1    1    2  501    0  0.16035076616E+03  0.16961691689E+03 -0.42724402051E+02  0.23729231179E+03  0.00000000000E+00 0. -1.
<mgrwt>
<rscale>  3 0.26477777E+03</rscale>
<asrwt>0</asrwt>
<pdfrwt beam="1">  1       21 0.10129411E+00 0.26477777E+03</pdfrwt>
<pdfrwt beam="2">  1        1 0.26345130E-01 0.26477777E+03</pdfrwt>
<totfact> 0.14964763E+03</totfact>
</mgrwt>
</event>
<event>
 4    0  0.1383835E-001  0.2667422E+03  0.7546771E-02  0.1103159E+00
          2   -1    0    0  502    0 -0.00000000000E+00  0.00000000000E+00  0.22907491782E+04  0.22907491782E+04  0.00000000000E+00 0. -1.
         21   -1    0    0  501  502  0.00000000000E+00 -0.00000000000E+00 -0.99228412510E+02  0.99228412510E+02  0.00000000000E+00 0.  1.
         25    1    1    2    0    0 -0.21912507011E+03  0.86663749191E+02  0.99450428835E+02  0.28467839674E+03  0.12500000000E+03 0.  0.
          2    1    1    2  501    0  0.21912507011E+03 -0.86663749191E+02  0.20920703368E+04  0.21052991939E+04  0.00000000000E+00 0. -1.
<mgrwt>
<rscale>  3 0.26674220E+03</rscale>
<asrwt>0</asrwt>
<pdfrwt beam="1">  1       21 0.15265911E-01 0.26674220E+03</pdfrwt>
<pdfrwt beam="2">  1        2 0.35242291E+00 0.26674220E+03</pdfrwt>
<totfact> 0.24776489E+03</totfact>
</mgrwt>
</event>
<event>
 4    0  0.1482859E-001  0.2772294E+03  0.7546771E-02  0.1097212E+00
          2   -1    0    0  502    0 -0.00000000000E+00  0.00000000000E+00  0.69812639296E+03  0.69812639296E+03  0.00000000000E+00 0.  1.
         21   -1    0    0  501  502  0.00000000000E+00 -0.00000000000E+00 -0.53649122084E+03  0.53649122084E+03  0.00000000000E+00 0.  1.
         25    1    1    2    0    0 -0.23616599911E+03 -0.73869956588E+02 -0.47589125569E+03  0.55075279107E+03  0.12500000000E+03 0.  0.
          2    1    1    2  501    0  0.23616599911E+03  0.73869956588E+02  0.63752642781E+03  0.68386482274E+03  0.00000000000E+00 0.  1.
<mgrwt>
<rscale>  3 0.27722942E+03</rscale>
<asrwt>0</asrwt>
<pdfrwt beam="1">  1       21 0.82537111E-01 0.27722942E+03</pdfrwt>
<pdfrwt beam="2">  1        2 0.10740406E+00 0.27722942E+03</pdfrwt>
<totfact> 0.65040318E+02</totfact>
</mgrwt>
</event>
<event>
 4    0  0.1462918E-001  0.2468378E+03  0.7546771E-02  0.1115320E+00
          2   -1    0    0  502    0 -0.00000000000E+00  0.00000000000E+00  0.50517523904E+03  0.50517523904E+03  0.00000000000E+00 0.  1.
         21   -1    0    0  501  502  0.00000000000E+00 -0.00000000000E+00 -0.12354742612E+03  0.12354742612E+03  0.00000000000E+00 0.  1.
         25    1    1    2    0    0  0.19146186468E+03  0.92985224886E+02  0.79844924096E+02  0.25943035593E+03  0.12500000000E+03 0.  0.
          2    1    1    2  501    0 -0.19146186468E+03 -0.92985224886E+02  0.30178288882E+03  0.36929230923E+03  0.00000000000E+00 0.  1.
<mgrwt>
<rscale>  3 0.24683780E+03</rscale>
<asrwt>0</asrwt>
<pdfrwt beam="1">  1       21 0.19007297E-01 0.24683780E+03</pdfrwt>
<pdfrwt beam="2">  1        2 0.77719267E-01 0.24683780E+03</pdfrwt>
<totfact> 0.19392122E+04</totfact>
</mgrwt>
</event>
<event>
 4    0  0.1506372E-001  0.2800583E+03  0.7546771E-02  0.1095657E+00
          1   -1    0    0  502    0 -0.00000000000E+00  0.00000000000E+00  0.99213781586E+03  0.99213781586E+03  0.00000000000E+00 0.  1.
         21   -1    0    0  501  502  0.00000000000E+00 -0.00000000000E+00 -0.13598553088E+03  0.13598553088E+03  0.00000000000E+00 0.  1.
         25    1    1    2    0    0  0.10428276915E+03 -0.22788758041E+03  0.50735948799E+02  0.28461690348E+03  0.12500000000E+03 0.  0.
          1    1    1    2  501    0 -0.10428276915E+03  0.22788758041E+03  0.80541633618E+03  0.84350644326E+03  0.00000000000E+00 0.  1.
<mgrwt>
<rscale>  3 0.28005829E+03</rscale>
<asrwt>0</asrwt>
<pdfrwt beam="1">  1       21 0.20920852E-01 0.28005829E+03</pdfrwt>
<pdfrwt beam="2">  1        1 0.15263658E+00 0.28005829E+03</pdfrwt>
<totfact> 0.37481479E+03</totfact>
</mgrwt>
</event>
<event>
 4    0  0.1316518E-001  0.2418015E+03  0.7546771E-02  0.1118599E+00
         21   -1    0    0  501  502  0.00000000000E+00  0.00000000000E+00  0.18934665047E+03  0.18934665047E+03  0.00000000000E+00 0. -1.
          1   -1    0    0  502    0 -0.00000000000E+00 -0.00000000000E+00 -0.85429048877E+03  0.85429048877E+03  0.00000000000E+00 0.  1.
         25    1    1    2    0    0 -0.17189817059E+03 -0.11529952195E+03  0.92144911831E+02  0.25876368677E+03  0.12500000000E+03 0.  0.
          1    1    1    2  501    0  0.17189817059E+03  0.11529952195E+03 -0.75708875013E+03  0.78487345247E+03  0.00000000000E+00 0.  1.
<mgrwt>
<rscale>  3 0.24180149E+03</rscale>
<asrwt>0</asrwt>
<pdfrwt beam="1">  1       21 0.29130254E-01 0.24180149E+03</pdfrwt>
<pdfrwt beam="2">  1        1 0.13142931E+00 0.24180149E+03</pdfrwt>
<totfact> 0.25725645E+03</totfact>
</mgrwt>
</event>
<event>
 4    0  0.1584886E-001  0.2450310E+03  0.7546771E-02  0.1116486E+00
          2   -1    0    0  502    0 -0.00000000000E+00  0.00000000000E+00  0.34464750307E+03  0.34464750307E+03  0.00000000000E+00 0.  1.
         21   -1    0    0  501  502  0.00000000000E+00 -0.00000000000E+00 -0.15248476171E+03  0.15248476171E+03  0.00000000000E+00 0.  1.
         25    1    1    2    0    0 -0.14068254334E+03 -0.15691909871E+03  0.13013757405E+03  0.27744543558E+03  0.12500000000E+03 0.  0.
          2    1    1    2  501    0  0.14068254334E+03  0.15691909871E+03  0.62025167302E+02  0.21968682919E+03  0.00000000000E+00 0.  1.
<mgrwt>
<rscale>  3 0.24503098E+03</rscale>
<asrwt>0</asrwt>
<pdfrwt beam="1">  1       21 0.23459194E-01 0.24503098E+03</pdfrwt>
<pdfrwt beam="2">  1        2 0.53022693E-01 0.24503098E+03</pdfrwt>
<totfact> 0.19834876E+04</totfact>
</mgrwt>
</event>
<event>
 4    0  0.1258219E-001  0.3371645E+03  0.7546771E-02  0.1068010E+00
          1   -1    0    0  502    0 -0.00000000000E+00  0.00000000000E+00  0.37679840908E+03  0.37679840908E+03  0.00000000000E+00 0. -1.
         21   -1    0    0  501  502  0.00000000000E+00 -0.00000000000E+00 -0.28169625712E+03  0.28169625712E+03  0.00000000000E+00 0. -1.
         25    1    1    2    0    0  0.16627188067E+03  0.26534616828E+03  0.28613900517E+02  0.33837653971E+03  0.12500000000E+03 0.  0.
          1    1    1    2  501    0 -0.16627188067E+03 -0.26534616828E+03  0.66488251444E+02  0.32011812648E+03  0.00000000000E+00 0. -1.
<mgrwt>
<rscale>  3 0.33716454E+03</rscale>
<asrwt>0</asrwt>
<pdfrwt beam="1">  1       21 0.43337886E-01 0.33716454E+03</pdfrwt>
<pdfrwt beam="2">  1        1 0.57968986E-01 0.33716454E+03</pdfrwt>
<totfact> 0.35389683E+03</totfact>
</mgrwt>
</event>
<event>
 4    0  0.1002184E-001  0.2548638E+03  0.7546771E-02  0.1110269E+00
          2   -1    0    0  502    0 -0.00000000000E+00  0.00000000000E+00  0.19853941862E+03  0.19853941862E+03  0.00000000000E+00 0. -1.
         21   -1    0    0  501  502  0.00000000000E+00 -0.00000000000E+00 -0.33115825006E+03  0.33115825006E+03  0.00000000000E+00 0.  1.
         25    1    1    2    0    0  0.13192298475E+03 -0.17868097751E+03 -0.16734670426E+03  0.30489421945E+03  0.12500000000E+03 0.  0.
          2    1    1    2  501    0 -0.13192298475E+03  0.17868097751E+03  0.34727872816E+02  0.22480344922E+03  0.00000000000E+00 0. -1.
<mgrwt>
<rscale>  3 0.25486382E+03</rscale>
<asrwt>0</asrwt>
<pdfrwt beam="1">  1       21 0.50947422E-01 0.25486382E+03</pdfrwt>
<pdfrwt beam="2">  1        2 0.30544526E-01 0.25486382E+03</pdfrwt>
<totfact> 0.76497485E+03</totfact>
</mgrwt>
</event>
<event>
 4    0  0.1570678E-001  0.2661201E+03  0.7546771E-02  0.1103521E+00
         21   -1    0    0  501  502  0.00000000000E+00  0.00000000000E+00  0.34538133814E+03  0.34538133814E+03  0.00000000000E+00 0.  1.
          1   -1    0    0  502    0 -0.00000000000E+00 -0.00000000000E+00 -0.14846978343E+04  0.14846978343E+04  0.00000000000E+00 0.  1.
         25    1    1    2    0    0 -0.60858789995E+02  0.22691659508E+03  0.28301170558E+03  0.38847851798E+03  0.12500000000E+03 0.  0.
          1    1    1    2  501    0  0.60858789995E+02 -0.22691659508E+03 -0.14223282017E+04  0.14416006544E+04  0.00000000000E+00 0.  1.
<mgrwt>
<rscale>  3 0.26612015E+03</rscale>
<asrwt>0</asrwt>
<pdfrwt beam="1">  1       21 0.53135590E-01 0.26612015E+03</pdfrwt>
<pdfrwt beam="2">  1        1 0.22841505E+00 0.26612015E+03</pdfrwt>
<totfact> 0.26552170E+02</totfact>
</mgrwt>
</event>
<event>
 4    0  0.1956436E-001  0.3050505E+03  0.7546771E-02  0.1082743E+00
         -1   -1    0    0    0  501 -0.00000000000E+00  0.00000000000E+00  0.80909680877E+03  0.80909680877E+03  0.00000000000E+00 0. -1.
         21   -1    0    0  501  502  0.00000000000E+00 -0.00000000000E+00 -0.11327460691E+03  0.11327460691E+03  0.00000000000E+00 0. -1.
         25    1    1    2    0    0 -0.14116470975E+03  0.23979854796E+03  0.48624916715E+03  0.57401574146E+03  0.12500000000E+03 0.  0.
         -1    1    1    2    0  502  0.14116470975E+03 -0.23979854796E+03  0.20957303471E+03  0.34835567422E+03  0.00000000000E+00 0. -1.
<mgrwt>
<rscale>  3 0.30505052E+03</rscale>
<asrwt>0</asrwt>
<pdfrwt beam="1">  1       21 0.17426863E-01 0.30505052E+03</pdfrwt>
<pdfrwt beam="2">  1       -1 0.12447643E+00 0.30505052E+03</pdfrwt>
<totfact> 0.16489917E+03</totfact>
</mgrwt>
</event>
<event>
 4    0  0.1218349E-001  0.2622382E+03  0.7546771E-02  0.1105806E+00
          2   -1    0    0  502    0 -0.00000000000E+00  0.00000000000E+00  0.21531235084E+03  0.21531235084E+03  0.00000000000E+00 0. -1.
         21   -1    0    0  501  502  0.00000000000E+00 -0.00000000000E+00 -0.96732479316E+03  0.96732479316E+03  0.00000000000E+00 0.  1.
         25    1    1    2    0    0 -0.21984274297E+03 -0.69376048523E+02 -0.88049812412E+03  0.91871966035E+03  0.12500000000E+03 0.  0.
          2    1    1    2  501    0  0.21984274297E+03  0.69376048523E+02  0.12848568180E+03  0.26391748364E+03  0.00000000000E+00 0. -1.
<mgrwt>
<rscale>  3 0.26223819E+03</rscale>
<asrwt>0</asrwt>
<pdfrwt beam="1">  1       21 0.14881920E+00 0.26223819E+03</pdfrwt>
<pdfrwt beam="2">  1        2 0.33124977E-01 0.26223819E+03</pdfrwt>
<totfact> 0.56905411E+02</totfact>
</mgrwt>
</event>
<event>
 4    0  0.1532858E-001  0.2776055E+03  0.7546771E-02  0.1097004E+00
         21   -1    0    0  501  502  0.00000000000E+00  0.00000000000E+00  0.14328792802E+03  0.14328792802E+03  0.00000000000E+00 0.  1.
          2   -1    0    0  502    0 -0.00000000000E+00 -0.00000000000E+00 -0.21855983166E+04  0.21855983166E+04  0.00000000000E+00 0. -1.
         25    1    1    2    0    0 -0.16455823094E+03  0.18536557974E+03 -0.61288159452E+01  0.27767313861E+03  0.12500000000E+03 0.  0.
          2    1    1    2  501    0  0.16455823094E+03 -0.18536557974E+03 -0.20361815727E+04  0.20512131060E+04  0.00000000000E+00 0. -1.
<mgrwt>
<rscale>  3 0.27760549E+03</rscale>
<asrwt>0</asrwt>
<pdfrwt beam="1">  1       21 0.22044299E-01 0.27760549E+03</pdfrwt>
<pdfrwt beam="2">  1        2 0.33624585E+00 0.27760549E+03</pdfrwt>
<totfact> 0.14120771E+03</totfact>
</mgrwt>
</event>
<event>
 4    0  0.1002184E-001  0.8373359E+03  0.7546771E-02  0.9507494E-01
         21   -1    0    0  501  502  0.00000000000E+00  0.00000000000E+00  0.66979884285E+03  0.66979884285E+03  0.00000000000E+00 0.  1.
          1   -1    0    0  502    0 -0.00000000000E+00 -0.00000000000E+00 -0.19075652247E+04  0.19075652247E+04  0.00000000000E+00 0.  1.
         25    1    1    2    0    0  0.78431264054E+03  0.26525488704E+03  0.25075159108E+03  0.87407541645E+03  0.12500000000E+03 0.  0.
          1    1    1    2  501    0 -0.78431264054E+03 -0.26525488704E+03 -0.14885179729E+04  0.17032886511E+04  0.00000000000E+00 0.  1.
<mgrwt>
<rscale>  3 0.83733594E+03</rscale>
<asrwt>0</asrwt>
<pdfrwt beam="1">  1       21 0.10304598E+00 0.83733594E+03</pdfrwt>
<pdfrwt beam="2">  1        1 0.29347157E+00 0.83733594E+03</pdfrwt>
<totfact> 0.25050217E+01</totfact>
</mgrwt>
</event>
<event>
 4    0  0.1386458E-001  0.4975728E+03  0.7546771E-02  0.1014414E+00
          2   -1    0    0  502    0 -0.00000000000E+00  0.00000000000E+00  0.14114489193E+04  0.14114489193E+04  0.00000000000E+00 0. -1.
         21   -1    0    0  501  502  0.00000000000E+00 -0.00000000000E+00 -0.17598306328E+03  0.17598306328E+03  0.00000000000E+00 0. -1.
         25    1    1    2    0    0  0.26822127731E+03 -0.40001377383E+03  0.47901944183E+03  0.69067959179E+03  0.12500000000E+03 0.  0.
          2    1    1    2  501    0 -0.26822127731E+03  0.40001377383E+03  0.75644641422E+03  0.89675239082E+03  0.00000000000E+00 0. -1.
<mgrwt>
<rscale>  3 0.49757278E+03</rscale>
<asrwt>0</asrwt>
<pdfrwt beam="1">  1       21 0.27074318E-01 0.49757278E+03</pdfrwt>
<pdfrwt beam="2">  1        2 0.21714598E+00 0.49757278E+03</pdfrwt>
<totfact> 0.23034291E+03</totfact>
</mgrwt>
</event>
<event>
 4    0  0.1320519E-001  0.2368016E+03  0.7546771E-02  0.1121942E+00
         21   -1    0    0  501  502  0.00000000000E+00  0.00000000000E+00  0.24693457592E+03  0.24693457592E+03  0.00000000000E+00 0.  1.
          2   -1    0    0  502    0 -0.00000000000E+00 -0.00000000000E+00 -0.64747281744E+03  0.64747281744E+03  0.00000000000E+00 0.  1.
         25    1    1    2    0    0  0.12410732962E+03  0.15826355020E+03  0.16865755316E+03  0.29072383945E+03  0.12500000000E+03 0.  0.
          2    1    1    2  501    0 -0.12410732962E+03 -0.15826355020E+03 -0.56919579467E+03  0.60368355391E+03  0.00000000000E+00 0.  1.
<mgrwt>
<rscale>  3 0.23680156E+03</rscale>
<asrwt>0</asrwt>
<pdfrwt beam="1">  1       21 0.37989935E-01 0.23680156E+03</pdfrwt>
<pdfrwt beam="2">  1        2 0.99611203E-01 0.23680156E+03</pdfrwt>
<totfact> 0.38174228E+03</totfact>
</mgrwt>
</event>
<event>
 4    0  0.1002184E-001  0.3073245E+03  0.7546771E-02  0.1081635E+00
          1   -1    0    0  502    0 -0.00000000000E+00  0.00000000000E+00  0.18203362547E+04  0.18203362547E+04  0.00000000000E+00 0. -1.
         21   -1    0    0  501  502  0.00000000000E+00 -0.00000000000E+00 -0.49508692716E+02  0.49508692716E+02  0.00000000000E+00 0.  1.
         25    1    1    2    0    0 -0.25557087247E+03  0.11621896590E+03  0.73548684734E+03  0.79711305440E+03  0.12500000000E+03 0.  0.
          1    1    1    2  501    0  0.25557087247E+03 -0.11621896590E+03  0.10353407147E+04  0.10727318931E+04  0.00000000000E+00 0. -1.
<mgrwt>
<rscale>  3 0.30732445E+03</rscale>
<asrwt>0</asrwt>
<pdfrwt beam="1">  1       21 0.76167233E-02 0.30732445E+03</pdfrwt>
<pdfrwt beam="2">  1        1 0.28005168E+00 0.30732445E+03</pdfrwt>
<totfact> 0.63300549E+03</totfact>
</mgrwt>
</event>
<event>
 4    0  0.1265465E-001  0.3525390E+03  0.7546771E-02  0.1061578E+00
          2   -1    0    0  502    0 -0.00000000000E+00  0.00000000000E+00  0.41261569458E+03  0.41261569458E+03  0.00000000000E+00 0.  1.
         21   -1    0    0  501  502  0.00000000000E+00 -0.00000000000E+00 -0.32136603793E+03  0.32136603793E+03  0.00000000000E+00 0.  1.
         25    1    1    2    0    0 -0.31757784044E+03 -0.88334840812E+02 -0.81481613921E+02  0.36183280980E+03  0.12500000000E+03 0.  0.
          2    1    1    2  501    0  0.31757784044E+03  0.88334840812E+02  0.17273127057E+03  0.37214892271E+03  0.00000000000E+00 0.  1.
<mgrwt>
<rscale>  3 0.35253897E+03</rscale>
<asrwt>0</asrwt>
<pdfrwt beam="1">  1       21 0.49440929E-01 0.35253897E+03</pdfrwt>
<pdfrwt beam="2">  1        2 0.63479338E-01 0.35253897E+03</pdfrwt>
<totfact> 0.35932309E+03</totfact>
</mgrwt>
</event>
<event>
 4    0  0.1576274E-001  0.2877402E+03  0.7546771E-02  0.1091535E+00
          1   -1    0    0  502    0 -0.00000000000E+00  0.00000000000E+00  0.12431682691E+04  0.12431682691E+04  0.00000000000E+00 0. -1.
         21   -1    0    0  501  502  0.00000000000E+00 -0.00000000000E+00 -0.15130902718E+03  0.15130902718E+03  0.00000000000E+00 0. -1.
         25    1    1    2    0    0  0.19739389229E+03 -0.16794366942E+03  0.16374549661E+02  0.28820574368E+03  0.12500000000E+03 0.  0.
          1    1    1    2  501    0 -0.19739389229E+03  0.16794366942E+03  0.10754846923E+04  0.11062715526E+04  0.00000000000E+00 0. -1.
<mgrwt>
<rscale>  3 0.28774020E+03</rscale>
<asrwt>0</asrwt>
<pdfrwt beam="1">  1       21 0.23278313E-01 0.28774020E+03</pdfrwt>
<pdfrwt beam="2">  1        1 0.19125665E+00 0.28774020E+03</pdfrwt>
<totfact> 0.20112054E+03</totfact>
</mgrwt>
</event>
<event>
 4    0  0.1523919E-001  0.3275170E+03  0.7546771E-02  0.1072241E+00
          2   -1    0    0  502    0 -0.00000000000E+00  0.00000000000E+00  0.68282909144E+03  0.68282909144E+03  0.00000000000E+00 0. -1.
         21   -1    0    0  501  502  0.00000000000E+00 -0.00000000000E+00 -0.16425502622E+03  0.16425502622E+03  0.00000000000E+00 0. -1.
         25    1    1    2    0    0 -0.30045863190E+03 -0.36973101583E+02  0.12501585857E+03  0.35056577787E+03  0.12500000000E+03 0.  0.
          2    1    1    2  501    0  0.30045863190E+03  0.36973101583E+02  0.39355820665E+03  0.49651833979E+03  0.00000000000E+00 0. -1.
<mgrwt>
<rscale>  3 0.32751702E+03</rscale>
<asrwt>0</asrwt>
<pdfrwt beam="1">  1       21 0.25270004E-01 0.32751702E+03</pdfrwt>
<pdfrwt beam="2">  1        2 0.10505063E+00 0.32751702E+03</pdfrwt>
<totfact> 0.78305127E+03</totfact>
</mgrwt>
</event>
<event>
 4    0  0.1002184E-001  0.2533029E+03  0.7546771E-02  0.1111235E+00
          2   -1    0    0  502    0 -0.00000000000E+00  0.00000000000E+00  0.45022923575E+02  0.45022923575E+02  0.00000000000E+00 0.  1.
         21   -1    0    0  501  502  0.00000000000E+00 -0.00000000000E+00 -0.15656370529E+04  0.15656370529E+04  0.00000000000E+00 0.  1.
         25    1    1    2    0    0  0.22015245124E+03  0.83816888393E+01 -0.43900185742E+03  0.50683822401E+03  0.12500000000E+03 0.  0.
          2    1    1    2  501    0 -0.22015245124E+03 -0.83816888393E+01 -0.10816122719E+04  0.11038217524E+04  0.00000000000E+00 0.  1.
<mgrwt>
<rscale>  3 0.25330289E+03</rscale>
<asrwt>0</asrwt>
<pdfrwt beam="1">  1       21 0.24086722E+00 0.25330289E+03</pdfrwt>
<pdfrwt beam="2">  1        2 0.69266041E-02 0.25330289E+03</pdfrwt>
<totfact> 0.89257347E+02</totfact>
</mgrwt>
</event>
<event>
 4    0  0.1002184E-001  0.2846056E+03  0.7546771E-02  0.1093200E+00
         21   -1    0    0  501  502  0.00000000000E+00  0.00000000000E+00  0.33048263506E+04  0.33048263506E+04  0.00000000000E+00 0.  1.
          4   -1    0    0  502    0 -0.00000000000E+00 -0.00000000000E+00 -0.26844328717E+02  0.26844328717E+02  0.00000000000E+00 0.  1.
         25    1    1    2    0    0  0.25560964332E+03 -0.62480440596E+01  0.24119371276E+04  0.24286706313E+04  0.12500000000E+03 0.  0.
          4    1    1    2  501    0 -0.25560964332E+03  0.62480440596E+01  0.86604489425E+03  0.90300004799E+03  0.00000000000E+00 0.  1.
<mgrwt>
<rscale>  3 0.28460557E+03</rscale>
<asrwt>0</asrwt>
<pdfrwt beam="1">  1       21 0.50843450E+00 0.28460557E+03</pdfrwt>
<pdfrwt beam="2">  1        4 0.41298993E-02 0.28460557E+03</pdfrwt>
<totfact> 0.20699035E+01</totfact>
</mgrwt>
</event>
<event>
 4    0  0.1002184E-001  0.4503562E+03  0.7546771E-02  0.1027616E+00
         21   -1    0    0  501  502  0.00000000000E+00  0.00000000000E+00  0.98530520528E+03  0.98530520528E+03  0.00000000000E+00 0. -1.
         -4   -1    0    0    0  501 -0.00000000000E+00 -0.00000000000E+00 -0.20818922783E+03  0.20818922783E+03  0.00000000000E+00 0.  1.
         25    1    1    2    0    0 -0.16434222095E+03 -0.40023409110E+03  0.26291380117E+03  0.52148284738E+03  0.12500000000E+03 0.  0.
         -4    1    1    2    0  502  0.16434222095E+03  0.40023409110E+03  0.51420217628E+03  0.67201158573E+03  0.00000000000E+00 0.  1.
<mgrwt>
<rscale>  3 0.45035618E+03</rscale>
<asrwt>0</asrwt>
<pdfrwt beam="1">  1       21 0.15158541E+00 0.45035618E+03</pdfrwt>
<pdfrwt beam="2">  1       -4 0.32029113E-01 0.45035618E+03</pdfrwt>
<totfact> 0.10758945E+02</totfact>
</mgrwt>
</event>
<event>
 4    0  0.1585546E-001  0.2467791E+03  0.7546771E-02  0.1115357E+00
          1   -1    0    0  502    0 -0.00000000000E+00  0.00000000000E+00  0.82373797691E+03  0.82373797691E+03  0.00000000000E+00 0. -1.
         21   -1    0    0  501  502  0.00000000000E+00 -0.00000000000E+00 -0.65921879964E+02  0.65921879964E+02  0.00000000000E+00 0. -1.
         25    1    1    2    0    0 -0.71508458510E+02  0.20040322846E+03  0.33233337788E+03  0.41393886948E+03  0.12500000000E+03 0.  0.
          1    1    1    2  501    0  0.71508458510E+02 -0.20040322846E+03  0.42548271907E+03  0.47572098739E+03  0.00000000000E+00 0. -1.
<mgrwt>
<rscale>  3 0.24677908E+03</rscale>
<asrwt>0</asrwt>
<pdfrwt beam="1">  1       21 0.10141828E-01 0.24677908E+03</pdfrwt>
<pdfrwt beam="2">  1        1 0.12672891E+00 0.24677908E+03</pdfrwt>
<totfact> 0.19291182E+04</totfact>
</mgrwt>
</event>
<event>
 4    0  0.1002184E-001  0.4819575E+03  0.7546771E-02  0.1018599E+00
         21   -1    0    0  501  502  0.00000000000E+00  0.00000000000E+00  0.12979962485E+04  0.12979962485E+04  0.00000000000E+00 0.  1.
          1   -1    0    0  502    0 -0.00000000000E+00 -0.00000000000E+00 -0.38716245174E+03  0.38716245174E+03  0.00000000000E+00 0. -1.
         25    1    1    2    0    0 -0.46030144905E+03 -0.69141777162E+02  0.10857500883E+04  0.11879125657E+04  0.12500000000E+03 0.  0.
          1    1    1    2  501    0  0.46030144905E+03  0.69141777162E+02 -0.17491629153E+03  0.49724613462E+03  0.00000000000E+00 0. -1.
<mgrwt>
<rscale>  3 0.48195748E+03</rscale>
<asrwt>0</asrwt>
<pdfrwt beam="1">  1       21 0.19969173E+00 0.48195748E+03</pdfrwt>
<pdfrwt beam="2">  1        1 0.59563455E-01 0.48195748E+03</pdfrwt>
<totfact> 0.79234608E+01</totfact>
</mgrwt>
</event>
<event>
 4    0  0.1032739E-001  0.3874713E+03  0.7546771E-02  0.1048206E+00
         21   -1    0    0  501  502  0.00000000000E+00  0.00000000000E+00  0.26166934668E+03  0.26166934668E+03  0.00000000000E+00 0. -1.
          2   -1    0    0  502    0 -0.00000000000E+00 -0.00000000000E+00 -0.25143121430E+04  0.25143121430E+04  0.00000000000E+00 0. -1.
         25    1    1    2    0    0 -0.22799740909E+03 -0.28727366222E+03  0.95746829565E+02  0.39912583345E+03  0.12500000000E+03 0.  0.
          2    1    1    2  501    0  0.22799740909E+03  0.28727366222E+03 -0.23483896258E+04  0.23768556562E+04  0.00000000000E+00 0. -1.
<mgrwt>
<rscale>  3 0.38747126E+03</rscale>
<asrwt>0</asrwt>
<pdfrwt beam="1">  1       21 0.40256823E-01 0.38747126E+03</pdfrwt>
<pdfrwt beam="2">  1        2 0.38681725E+00 0.38747126E+03</pdfrwt>
<totfact> 0.27113913E+02</totfact>
</mgrwt>
</event>
<event>
 4    0  0.1002184E-001  0.3541984E+03  0.7546771E-02  0.1060905E+00
         21   -1    0    0  501  502  0.00000000000E+00  0.00000000000E+00  0.71391791464E+03  0.71391791464E+03  0.00000000000E+00 0.  1.
          2   -1    0    0  502    0 -0.00000000000E+00 -0.00000000000E+00 -0.16491317207E+03  0.16491317207E+03  0.00000000000E+00 0.  1.
         25    1    1    2    0    0 -0.74653483834E+02  0.32289068949E+03  0.30260610193E+03  0.46586155984E+03  0.12500000000E+03 0.  0.
          2    1    1    2  501    0  0.74653483834E+02 -0.32289068949E+03  0.24639864064E+03  0.41296952686E+03  0.00000000000E+00 0.  1.
<mgrwt>
<rscale>  3 0.35419845E+03</rscale>
<asrwt>0</asrwt>
<pdfrwt beam="1">  1       21 0.10983352E+00 0.35419845E+03</pdfrwt>
<pdfrwt beam="2">  1        2 0.25371258E-01 0.35419845E+03</pdfrwt>
<totfact> 0.16108035E+03</totfact>
</mgrwt>
</event>
<event>
 4    0  0.1206686E-001  0.4687396E+03  0.7546771E-02  0.1022277E+00
          2   -1    0    0  502    0 -0.00000000000E+00  0.00000000000E+00  0.24130220647E+04  0.24130220647E+04  0.00000000000E+00 0. -1.
         21   -1    0    0  501  502  0.00000000000E+00 -0.00000000000E+00 -0.13567786334E+03  0.13567786334E+03  0.00000000000E+00 0. -1.
         25    1    1    2    0    0  0.34060787803E+03  0.29677944960E+03  0.39522944581E+03  0.61312566666E+03  0.12500000000E+03 0.  0.
          2    1    1    2  501    0 -0.34060787803E+03 -0.29677944960E+03  0.18821147555E+04  0.19355742613E+04  0.00000000000E+00 0. -1.
<mgrwt>
<rscale>  3 0.46873955E+03</rscale>
<asrwt>0</asrwt>
<pdfrwt beam="1">  1       21 0.20873519E-01 0.46873955E+03</pdfrwt>
<pdfrwt beam="2">  1        2 0.37123413E+00 0.46873955E+03</pdfrwt>
<totfact> 0.10992014E+03</totfact>
</mgrwt>
</event>
<event>
 4    0  0.1002184E-001  0.2401459E+03  0.7546771E-02  0.1119696E+00
          2   -1    0    0  502    0 -0.00000000000E+00  0.00000000000E+00  0.28422526223E+04  0.28422526223E+04  0.00000000000E+00 0. -1.
         21   -1    0    0  501  502  0.00000000000E+00 -0.00000000000E+00 -0.68583240160E+03  0.68583240160E+03  0.00000000000E+00 0.  1.
         25    1    1    2    0    0 -0.53365211177E+02  0.19798279593E+03 -0.66096973792E+03  0.70324322086E+03  0.12500000000E+03 0.  0.
          2    1    1    2  501    0  0.53365211177E+02 -0.19798279593E+03  0.28173899586E+04  0.28248418030E+04  0.00000000000E+00 0. -1.
<mgrwt>
<rscale>  3 0.24014586E+03</rscale>
<asrwt>0</asrwt>
<pdfrwt beam="1">  1       21 0.10551268E+00 0.24014586E+03</pdfrwt>
<pdfrwt beam="2">  1        2 0.43726963E+00 0.24014586E+03</pdfrwt>
<totfact> 0.23160115E+01</totfact>
</mgrwt>
</event>
<event>
 4    0  0.1002184E-001  0.3247872E+03  0.7546771E-02  0.1073467E+00
         -2   -1    0    0    0  501 -0.00000000000E+00  0.00000000000E+00  0.13584267765E+04  0.13584267765E+04  0.00000000000E+00 0. -1.
         21   -1    0    0  501  502  0.00000000000E+00 -0.00000000000E+00 -0.83082525214E+02  0.83082525214E+02  0.00000000000E+00 0.  1.
         25    1    1    2    0    0  0.48768461930E+02 -0.29577584952E+03  0.39417232665E+03  0.51074312441E+03  0.12500000000E+03 0.  0.
         -2    1    1    2    0  502 -0.48768461930E+02  0.29577584952E+03  0.88117192462E+03  0.93076617728E+03  0.00000000000E+00 0. -1.
<mgrwt>
<rscale>  3 0.32478719E+03</rscale>
<asrwt>0</asrwt>
<pdfrwt beam="1">  1       21 0.12781928E-01 0.32478719E+03</pdfrwt>
<pdfrwt beam="2">  1       -2 0.20898872E+00 0.32478719E+03</pdfrwt>
<totfact> 0.53172718E+02</totfact>
</mgrwt>
</event>
<event>
 4    0  0.2039564E-001  0.2999028E+03  0.7546771E-02  0.1085289E+00
         -2   -1    0    0    0  501 -0.00000000000E+00  0.00000000000E+00  0.11068662620E+04  0.11068662620E+04  0.00000000000E+00 0.  1.
         21   -1    0    0  501  502  0.00000000000E+00 -0.00000000000E+00 -0.12294131284E+03  0.12294131284E+03  0.00000000000E+00 0.  1.
         25    1    1    2    0    0 -0.19469927043E+02 -0.27191466513E+03  0.11850669607E+03  0.32246782814E+03  0.12500000000E+03 0.  0.
         -2    1    1    2    0  502  0.19469927043E+02  0.27191466513E+03  0.86541825306E+03  0.90733974668E+03  0.00000000000E+00 0.  1.
<mgrwt>
<rscale>  3 0.29990276E+03</rscale>
<asrwt>0</asrwt>
<pdfrwt beam="1">  1       21 0.18914049E-01 0.29990276E+03</pdfrwt>
<pdfrwt beam="2">  1       -2 0.17028711E+00 0.29990276E+03</pdfrwt>
<totfact> 0.46531872E+02</totfact>
</mgrwt>
</event>
<event>
 4    0  0.1213705E-001  0.2453059E+03  0.7546771E-02  0.1116308E+00
         21   -1    0    0  501  502  0.00000000000E+00  0.00000000000E+00  0.51586522115E+03  0.51586522115E+03  0.00000000000E+00 0. -1.
          1   -1    0    0  502    0 -0.00000000000E+00 -0.00000000000E+00 -0.10163430751E+03  0.10163430751E+03  0.00000000000E+00 0. -1.
         25    1    1    2    0    0 -0.17105303467E+03  0.12365615361E+03  0.24806488999E+03  0.34887128664E+03  0.12500000000E+03 0.  0.
          1    1    1    2  501    0  0.17105303467E+03 -0.12365615361E+03  0.16616602365E+03  0.26862824202E+03  0.00000000000E+00 0. -1.
<mgrwt>
<rscale>  3 0.24530590E+03</rscale>
<asrwt>0</asrwt>
<pdfrwt beam="1">  1       21 0.79363879E-01 0.24530590E+03</pdfrwt>
<pdfrwt beam="2">  1        1 0.15636048E-01 0.24530590E+03</pdfrwt>
<totfact> 0.52190287E+03</totfact>
</mgrwt>
</event>
<event>
 4    0  0.1642070E-001  0.2876770E+03  0.7546771E-02  0.1091568E+00
          1   -1    0    0  502    0 -0.00000000000E+00  0.00000000000E+00  0.15457229229E+04  0.15457229229E+04  0.00000000000E+00 0. -1.
         21   -1    0    0  501  502  0.00000000000E+00 -0.00000000000E+00 -0.96659029706E+02  0.96659029706E+02  0.00000000000E+00 0. -1.
         25    1    1    2    0    0  0.58309566446E+02  0.25245401832E+03  0.16334691763E+03  0.33081755153E+03  0.12500000000E+03 0.  0.
          1    1    1    2  501    0 -0.58309566446E+02 -0.25245401832E+03  0.12857169756E+04  0.13115644011E+04  0.00000000000E+00 0. -1.
<mgrwt>
<rscale>  3 0.28767697E+03</rscale>
<asrwt>0</asrwt>
<pdfrwt beam="1">  1       21 0.14870621E-01 0.28767697E+03</pdfrwt>
<pdfrwt beam="2">  1        1 0.23780351E+00 0.28767697E+03</pdfrwt>
<totfact> 0.29069885E+03</totfact>
</mgrwt>
</event>
<event>
 4    0  0.1321503E-001  0.2627356E+03  0.7546771E-02  0.1105511E+00
         21   -1    0    0  501  502  0.00000000000E+00  0.00000000000E+00  0.36325061554E+03  0.36325061554E+03  0.00000000000E+00 0.  1.
          2   -1    0    0  502    0 -0.00000000000E+00 -0.00000000000E+00 -0.44588520901E+03  0.44588520901E+03  0.00000000000E+00 0. -1.
         25    1    1    2    0    0  0.16892756595E+03  0.15769734659E+03  0.27691608954E+03  0.38172306232E+03  0.12500000000E+03 0.  0.
          2    1    1    2  501    0 -0.16892756595E+03 -0.15769734659E+03 -0.35955068302E+03  0.42741276223E+03  0.00000000000E+00 0. -1.
<mgrwt>
<rscale>  3 0.26273556E+03</rscale>
<asrwt>0</asrwt>
<pdfrwt beam="1">  1       21 0.55884710E-01 0.26273556E+03</pdfrwt>
<pdfrwt beam="2">  1        2 0.68597724E-01 0.26273556E+03</pdfrwt>
<totfact> 0.26005823E+03</totfact>
</mgrwt>
</event>
<event>
 4    0  0.1618726E-001  0.2492727E+03  0.7546771E-02  0.1113765E+00
          2   -1    0    0  502    0 -0.00000000000E+00  0.00000000000E+00  0.36604242038E+03  0.36604242038E+03  0.00000000000E+00 0.  1.
         21   -1    0    0  501  502  0.00000000000E+00 -0.00000000000E+00 -0.15443204062E+03  0.15443204062E+03  0.00000000000E+00 0.  1.
         25    1    1    2    0    0  0.21532767789E+03 -0.12078396498E+02  0.16756097576E+03  0.30035575094E+03  0.12500000000E+03 0.  0.
          2    1    1    2  501    0 -0.21532767789E+03  0.12078396498E+02  0.44049403994E+02  0.22011871006E+03  0.00000000000E+00 0.  1.
<mgrwt>
<rscale>  3 0.24927274E+03</rscale>
<asrwt>0</asrwt>
<pdfrwt beam="1">  1       21 0.23758776E-01 0.24927274E+03</pdfrwt>
<pdfrwt beam="2">  1        2 0.56314218E-01 0.24927274E+03</pdfrwt>
<totfact> 0.18126176E+04</totfact>
</mgrwt>
</event>
<event>
 4    0  0.1615649E-001  0.3000088E+03  0.7546771E-02  0.1085236E+00
         -3   -1    0    0    0  501 -0.00000000000E+00  0.00000000000E+00  0.56836601851E+03  0.56836601851E+03  0.00000000000E+00 0. -1.
         21   -1    0    0  501  502  0.00000000000E+00 -0.00000000000E+00 -0.14624071978E+03  0.14624071978E+03  0.00000000000E+00 0. -1.
         25    1    1    2    0    0 -0.24558871475E+03 -0.11860208042E+03  0.17970868905E+03  0.34971485986E+03  0.12500000000E+03 0.  0.
         -3    1    1    2    0  502  0.24558871475E+03  0.11860208042E+03  0.24241660969E+03  0.36489187843E+03  0.00000000000E+00 0. -1.
<mgrwt>
<rscale>  3 0.30000878E+03</rscale>
<asrwt>0</asrwt>
<pdfrwt beam="1">  1       21 0.22498572E-01 0.30000878E+03</pdfrwt>
<pdfrwt beam="2">  1       -3 0.87440925E-01 0.30000878E+03</pdfrwt>
<totfact> 0.11110997E+03</totfact>
</mgrwt>
</event>
<event>
 4    0  0.1257111E-001  0.2515670E+03  0.7546771E-02  0.1112319E+00
          2   -1    0    0  502    0 -0.00000000000E+00  0.00000000000E+00  0.23819104171E+04  0.23819104171E+04  0.00000000000E+00 0.  1.
         21   -1    0    0  501  502  0.00000000000E+00 -0.00000000000E+00 -0.49036663699E+02  0.49036663699E+02  0.00000000000E+00 0.  1.
         25    1    1    2    0    0  0.76078103995E+02 -0.20462912560E+03  0.32376476647E+03  0.41001168393E+03  0.12500000000E+03 0.  0.
          2    1    1    2  501    0 -0.76078103995E+02  0.20462912560E+03  0.20091089870E+04  0.20209353969E+04  0.00000000000E+00 0.  1.
<mgrwt>
<rscale>  3 0.25156700E+03</rscale>
<asrwt>0</asrwt>
<pdfrwt beam="1">  1       21 0.75441040E-02 0.25156700E+03</pdfrwt>
<pdfrwt beam="2">  1        2 0.36644767E+00 0.25156700E+03</pdfrwt>
<totfact> 0.78575941E+03</totfact>
</mgrwt>
</event>
<event>
 4    0  0.1002184E-001  0.4205178E+03  0.7546771E-02  0.1036898E+00
         -3   -1    0    0    0  501 -0.00000000000E+00  0.00000000000E+00  0.10782527797E+03  0.10782527797E+03  0.00000000000E+00 0.  1.
         21   -1    0    0  501  502  0.00000000000E+00 -0.00000000000E+00 -0.24892386757E+04  0.24892386757E+04  0.00000000000E+00 0.  1.
         25    1    1    2    0    0  0.10785214074E+03 -0.38675335948E+03 -0.19984105093E+04  0.20421752640E+04  0.12500000000E+03 0.  0.
         -3    1    1    2    0  502 -0.10785214074E+03  0.38675335948E+03 -0.38300288839E+03  0.55488868960E+03  0.00000000000E+00 0.  1.
<mgrwt>
<rscale>  3 0.42051783E+03</rscale>
<asrwt>0</asrwt>
<pdfrwt beam="1">  1       21 0.38295979E+00 0.42051783E+03</pdfrwt>
<pdfrwt beam="2">  1       -3 0.16588504E-01 0.42051783E+03</pdfrwt>
<totfact> 0.14281671E+01</totfact>
</mgrwt>
</event>
<event>
 4    0  0.1345335E-001  0.4526731E+03  0.7546771E-02  0.1026928E+00
         -2   -1    0    0    0  501 -0.00000000000E+00  0.00000000000E+00  0.34176762730E+03  0.34176762730E+03  0.00000000000E+00 0.  1.
         21   -1    0    0  501  502  0.00000000000E+00 -0.00000000000E+00 -0.83076394747E+03  0.83076394747E+03  0.00000000000E+00 0.  1.
         25    1    1    2    0    0  0.10099466079E+03 -0.42318795911E+03 -0.57216713459E+03  0.72958083867E+03  0.12500000000E+03 0.  0.
         -2    1    1    2    0  502 -0.10099466079E+03  0.42318795911E+03  0.83170814421E+02  0.44295073611E+03  0.00000000000E+00 0.  1.
<mgrwt>
<rscale>  3 0.45267314E+03</rscale>
<asrwt>0</asrwt>
<pdfrwt beam="1">  1       21 0.12780984E+00 0.45267314E+03</pdfrwt>
<pdfrwt beam="2">  1       -2 0.52579635E-01 0.45267314E+03</pdfrwt>
<totfact> 0.11378159E+02</totfact>
</mgrwt>
</event>
<event>
 4    0  0.1429843E-001  0.2727432E+03  0.7546771E-02  0.1099720E+00
         -1   -1    0    0    0  501 -0.00000000000E+00  0.00000000000E+00  0.10719915215E+03  0.10719915215E+03  0.00000000000E+00 0. -1.
         21   -1    0    0  501  502  0.00000000000E+00 -0.00000000000E+00 -0.64396048629E+03  0.64396048629E+03  0.00000000000E+00 0. -1.
         25    1    1    2    0    0 -0.22952147116E+03  0.77998444734E+02 -0.35752377270E+03  0.44968000973E+03  0.12500000000E+03 0.  0.
         -1    1    1    2    0  502  0.22952147116E+03 -0.77998444734E+02 -0.17923756144E+03  0.30147962872E+03  0.00000000000E+00 0. -1.
<mgrwt>
<rscale>  3 0.27274322E+03</rscale>
<asrwt>0</asrwt>
<pdfrwt beam="1">  1       21 0.99070845E-01 0.27274322E+03</pdfrwt>
<pdfrwt beam="2">  1       -1 0.16492177E-01 0.27274322E+03</pdfrwt>
<totfact> 0.20391420E+03</totfact>
</mgrwt>
</event>
<event>
 4    0  0.1002184E-001  0.2396947E+03  0.7546771E-02  0.1119996E+00
         21   -1    0    0  501  502  0.00000000000E+00  0.00000000000E+00  0.32619844488E+03  0.32619844488E+03  0.00000000000E+00 0.  1.
         -2   -1    0    0    0  501 -0.00000000000E+00 -0.00000000000E+00 -0.17333516383E+03  0.17333516383E+03  0.00000000000E+00 0. -1.
         25    1    1    2    0    0  0.20377835337E+03  0.17404709822E+02  0.17065767887E+03  0.29424069158E+03  0.12500000000E+03 0.  0.
         -2    1    1    2    0  502 -0.20377835337E+03 -0.17404709822E+02 -0.17794397818E+02  0.20529291712E+03  0.00000000000E+00 0. -1.
<mgrwt>
<rscale>  3 0.23969468E+03</rscale>
<asrwt>0</asrwt>
<pdfrwt beam="1">  1       21 0.50184376E-01 0.23969468E+03</pdfrwt>
<pdfrwt beam="2">  1       -2 0.26666948E-01 0.23969468E+03</pdfrwt>
<totfact> 0.37944360E+03</totfact>
</mgrwt>
</event>
<event>
 4    0  0.1376359E-001  0.3032305E+03  0.7546771E-02  0.1083637E+00
         -1   -1    0    0    0  501 -0.00000000000E+00  0.00000000000E+00  0.15124405062E+03  0.15124405062E+03  0.00000000000E+00 0.  1.
         21   -1    0    0  501  502  0.00000000000E+00 -0.00000000000E+00 -0.84896527743E+03  0.84896527743E+03  0.00000000000E+00 0.  1.
         25    1    1    2    0    0  0.26289573996E+03 -0.84909130549E+02 -0.65350116630E+03  0.72042522505E+03  0.12500000000E+03 0.  0.
         -1    1    1    2    0  502 -0.26289573996E+03  0.84909130549E+02 -0.44220060506E+02  0.27978410300E+03  0.00000000000E+00 0.  1.
<mgrwt>
<rscale>  3 0.30323049E+03</rscale>
<asrwt>0</asrwt>
<pdfrwt beam="1">  1       21 0.13061004E+00 0.30323049E+03</pdfrwt>
<pdfrwt beam="2">  1       -1 0.23268315E-01 0.30323049E+03</pdfrwt>
<totfact> 0.58128785E+02</totfact>
</mgrwt>
</event>
<event>
 4    0  0.1095966E-001  0.3163284E+03  0.7546771E-02  0.1077352E+00
         21   -1    0    0  501  502  0.00000000000E+00  0.00000000000E+00  0.94023456944E+03  0.94023456944E+03  0.00000000000E+00 0. -1.
          3   -1    0    0  502    0 -0.00000000000E+00 -0.00000000000E+00 -0.98800591514E+02  0.98800591514E+02  0.00000000000E+00 0. -1.
         25    1    1    2    0    0 -0.20015277763E+03  0.21065980137E+03  0.38993242212E+03  0.50210654260E+03  0.12500000000E+03 0.  0.
          3    1    1    2  501    0  0.20015277763E+03 -0.21065980137E+03  0.45150155580E+03  0.53692861835E+03  0.00000000000E+00 0. -1.
<mgrwt>
<rscale>  3 0.31632845E+03</rscale>
<asrwt>0</asrwt>
<pdfrwt beam="1">  1       21 0.14465147E+00 0.31632845E+03</pdfrwt>
<pdfrwt beam="2">  1        3 0.15200092E-01 0.31632845E+03</pdfrwt>
<totfact> 0.57027735E+02</totfact>
</mgrwt>
</event>
<event>
 4    0  0.1002184E-001  0.2365569E+03  0.7546771E-02  0.1122108E+00
         21   -1    0    0  501  502  0.00000000000E+00  0.00000000000E+00  0.41681861719E+03  0.41681861719E+03  0.00000000000E+00 0. -1.
         -2   -1    0    0    0  501 -0.00000000000E+00 -0.00000000000E+00 -0.16533783336E+03  0.16533783336E+03  0.00000000000E+00 0.  1.
         25    1    1    2    0    0 -0.11968957577E+03  0.16127170097E+03  0.29351094429E+03  0.37697192269E+03  0.12500000000E+03 0.  0.
         -2    1    1    2    0  502  0.11968957577E+03 -0.16127170097E+03 -0.42030160461E+02  0.20518452785E+03  0.00000000000E+00 0.  1.
<mgrwt>
<rscale>  3 0.23655688E+03</rscale>
<asrwt>0</asrwt>
<pdfrwt beam="1">  1       21 0.64125941E-01 0.23655688E+03</pdfrwt>
<pdfrwt beam="2">  1       -2 0.25436590E-01 0.23655688E+03</pdfrwt>
<totfact> 0.24445666E+03</totfact>
</mgrwt>
</event>
<event>
 4    0  0.1002184E-001  0.2528497E+03  0.7546771E-02  0.1111517E+00
          2   -1    0    0  502    0 -0.00000000000E+00  0.00000000000E+00  0.61567918533E+03  0.61567918533E+03  0.00000000000E+00 0. -1.
         21   -1    0    0  501  502  0.00000000000E+00 -0.00000000000E+00 -0.92411440436E+02  0.92411440436E+02  0.00000000000E+00 0.  1.
         25    1    1    2    0    0 -0.18546550552E+02  0.21900680060E+03  0.23164845849E+03  0.34291975967E+03  0.12500000000E+03 0.  0.
          2    1    1    2  501    0  0.18546550552E+02 -0.21900680060E+03  0.29161928640E+03  0.36517086610E+03  0.00000000000E+00 0. -1.
<mgrwt>
<rscale>  3 0.25284967E+03</rscale>
<asrwt>0</asrwt>
<pdfrwt beam="1">  1       21 0.14217145E-01 0.25284967E+03</pdfrwt>
<pdfrwt beam="2">  1        2 0.94719872E-01 0.25284967E+03</pdfrwt>
<totfact> 0.26399300E+04</totfact>
</mgrwt>
</event>
<event>
 4    0  0.1355893E-001  0.2461810E+03  0.7546771E-02  0.1115742E+00
          2   -1    0    0  502    0 -0.00000000000E+00  0.00000000000E+00  0.74634794942E+03  0.74634794942E+03  0.00000000000E+00 0. -1.
         21   -1    0    0  501  502  0.00000000000E+00 -0.00000000000E+00 -0.89061153213E+02  0.89061153213E+02  0.00000000000E+00 0. -1.
         25    1    1    2    0    0  0.13764554962E+03  0.16134995203E+03  0.15689220069E+03  0.29192510510E+03  0.12500000000E+03 0.  0.
          2    1    1    2  501    0 -0.13764554962E+03 -0.16134995203E+03  0.50039459552E+03  0.54348399754E+03  0.00000000000E+00 0. -1.
<mgrwt>
<rscale>  3 0.24618104E+03</rscale>
<asrwt>0</asrwt>
<pdfrwt beam="1">  1       21 0.13701716E-01 0.24618104E+03</pdfrwt>
<pdfrwt beam="2">  1        2 0.11482276E+00 0.24618104E+03</pdfrwt>
<totfact> 0.22412310E+04</totfact>
</mgrwt>
</event>
<event>
 4    0  0.1426241E-001  0.3222628E+03  0.7546771E-02  0.1074613E+00
          2   -1    0    0  502    0 -0.00000000000E+00  0.00000000000E+00  0.15043317906E+04  0.15043317906E+04  0.00000000000E+00 0.  1.
         21   -1    0    0  501  502  0.00000000000E+00 -0.00000000000E+00 -0.64440836573E+02  0.64440836573E+02  0.00000000000E+00 0.  1.
         25    1    1    2    0    0 -0.26591228201E+03  0.13235918766E+03  0.83086209155E+03  0.89117064104E+03  0.12500000000E+03 0.  0.
          2    1    1    2  501    0  0.26591228201E+03 -0.13235918766E+03  0.60902886252E+03  0.67760198617E+03  0.00000000000E+00 0.  1.
<mgrwt>
<rscale>  3 0.32226278E+03</rscale>
<asrwt>0</asrwt>
<pdfrwt beam="1">  1       21 0.99139760E-02 0.32226278E+03</pdfrwt>
<pdfrwt beam="2">  1        2 0.23143563E+00 0.32226278E+03</pdfrwt>
<totfact> 0.13894663E+04</totfact>
</mgrwt>
</event>
<event>
 4    0  0.1471880E-001  0.3289519E+03  0.7546771E-02  0.1071602E+00
         21   -1    0    0  501  502  0.00000000000E+00  0.00000000000E+00  0.12921081500E+03  0.12921081500E+03  0.00000000000E+00 0. -1.
          2   -1    0    0  502    0 -0.00000000000E+00 -0.00000000000E+00 -0.78324915739E+03  0.78324915739E+03  0.00000000000E+00 0. -1.
         25    1    1    2    0    0 -0.27670184001E+03 -0.12657180554E+03 -0.38403424201E+03  0.50565959820E+03  0.12500000000E+03 0.  0.
          2    1    1    2  501    0  0.27670184001E+03  0.12657180554E+03 -0.27000410038E+03  0.40680037419E+03  0.00000000000E+00 0. -1.
<mgrwt>
<rscale>  3 0.32895187E+03</rscale>
<asrwt>0</asrwt>
<pdfrwt beam="1">  1       21 0.19878587E-01 0.32895187E+03</pdfrwt>
<pdfrwt beam="2">  1        2 0.12049987E+00 0.32895187E+03</pdfrwt>
<totfact> 0.10438510E+04</totfact>
</mgrwt>
</event>
<event>
 4    0  0.1126171E-001  0.2579624E+03  0.7546771E-02  0.1108374E+00
         -1   -1    0    0    0  501 -0.00000000000E+00  0.00000000000E+00  0.61589220128E+02  0.61589220128E+02  0.00000000000E+00 0. -1.
         21   -1    0    0  501  502  0.00000000000E+00 -0.00000000000E+00 -0.13425631584E+04  0.13425631584E+04  0.00000000000E+00 0. -1.
         25    1    1    2    0    0  0.21176616973E+03 -0.77940252657E+02 -0.10500871707E+04  0.10813083092E+04  0.12500000000E+03 0.  0.
         -1    1    1    2    0  502 -0.21176616973E+03  0.77940252657E+02 -0.23088676763E+03  0.32284406931E+03  0.00000000000E+00 0. -1.
<mgrwt>
<rscale>  3 0.25796239E+03</rscale>
<asrwt>0</asrwt>
<pdfrwt beam="1">  1       21 0.20654818E+00 0.25796239E+03</pdfrwt>
<pdfrwt beam="2">  1       -1 0.94752647E-02 0.25796239E+03</pdfrwt>
<totfact> 0.69606280E+02</totfact>
</mgrwt>
</event>
<event>
 4    0  0.1427048E-001  0.3250523E+03  0.7546771E-02  0.1073347E+00
         21   -1    0    0  501  502  0.00000000000E+00  0.00000000000E+00  0.46488565738E+03  0.46488565738E+03  0.00000000000E+00 0. -1.
          1   -1    0    0  502    0 -0.00000000000E+00 -0.00000000000E+00 -0.61822280104E+03  0.61822280104E+03  0.00000000000E+00 0.  1.
         25    1    1    2    0    0 -0.28814047214E+03 -0.83720149900E+02  0.36216149398E+03  0.48664149320E+03  0.12500000000E+03 0.  0.
          1    1    1    2  501    0  0.28814047214E+03  0.83720149900E+02 -0.51549863764E+03  0.59646696522E+03  0.00000000000E+00 0.  1.
<mgrwt>
<rscale>  3 0.32505230E+03</rscale>
<asrwt>0</asrwt>
<pdfrwt beam="1">  1       21 0.71520871E-01 0.32505230E+03</pdfrwt>
<pdfrwt beam="2">  1        1 0.95111199E-01 0.32505230E+03</pdfrwt>
<totfact> 0.62242783E+02</totfact>
</mgrwt>
</event>
<event>
 4    0  0.1791117E-001  0.2590227E+03  0.7546771E-02  0.1107732E+00
         21   -1    0    0  501  502  0.00000000000E+00  0.00000000000E+00  0.31750728944E+02  0.31750728944E+02  0.00000000000E+00 0.  1.
          2   -1    0    0  502    0 -0.00000000000E+00 -0.00000000000E+00 -0.18948795300E+04  0.18948795300E+04  0.00000000000E+00 0.  1.
         25    1    1    2    0    0 -0.22313431862E+03 -0.40973732611E+02 -0.85961055572E+03  0.89778788052E+03  0.12500000000E+03 0.  0.
          2    1    1    2  501    0  0.22313431862E+03  0.40973732611E+02 -0.10035182453E+04  0.10288423784E+04  0.00000000000E+00 0.  1.
<mgrwt>
<rscale>  3 0.25902272E+03</rscale>
<asrwt>0</asrwt>
<pdfrwt beam="1">  1       21 0.48847279E-02 0.25902272E+03</pdfrwt>
<pdfrwt beam="2">  1        2 0.29151991E+00 0.25902272E+03</pdfrwt>
<totfact> 0.30044439E+04</totfact>
</mgrwt>
</event>
<event>
 4    0  0.1002184E-001  0.5752637E+03  0.7546771E-02  0.9958098E-01
          2   -1    0    0  502    0 -0.00000000000E+00  0.00000000000E+00  0.21571065091E+04  0.21571065091E+04  0.00000000000E+00 0.  1.
         21   -1    0    0  501  502  0.00000000000E+00 -0.00000000000E+00 -0.99424346600E+03  0.99424346600E+03  0.00000000000E+00 0. -1.
         25    1    1    2    0    0 -0.51256042905E+02 -0.55917455730E+03 -0.86964996893E+03  0.10426981519E+04  0.12500000000E+03 0.  0.
          2    1    1    2  501    0  0.51256042905E+02  0.55917455730E+03  0.20325130120E+04  0.21086518232E+04  0.00000000000E+00 0.  1.
<mgrwt>
<rscale>  3 0.57526374E+03</rscale>
<asrwt>0</asrwt>
<pdfrwt beam="1">  1       21 0.15296053E+00 0.57526374E+03</pdfrwt>
<pdfrwt beam="2">  1        2 0.33186254E+00 0.57526374E+03</pdfrwt>
<totfact> 0.17427063E+01</totfact>
</mgrwt>
</event>
<event>
 4    0  0.1554868E-001  0.2537036E+03  0.7546771E-02  0.1110986E+00
          1   -1    0    0  502    0 -0.00000000000E+00  0.00000000000E+00  0.16748324622E+04  0.16748324622E+04  0.00000000000E+00 0. -1.
         21   -1    0    0  501  502  0.00000000000E+00 -0.00000000000E+00 -0.15342953811E+03  0.15342953811E+03  0.00000000000E+00 0.  1.
         25    1    1    2    0    0  0.18872500231E+02 -0.21996446579E+03 -0.35153045288E+02  0.25612745668E+03  0.12500000000E+03 0.  0.
          1    1    1    2  501    0 -0.18872500231E+02  0.21996446579E+03  0.15565559694E+04  0.15721345436E+04  0.00000000000E+00 0. -1.
<mgrwt>
<rscale>  3 0.25370364E+03</rscale>
<asrwt>0</asrwt>
<pdfrwt beam="1">  1       21 0.23604546E-01 0.25370364E+03</pdfrwt>
<pdfrwt beam="2">  1        1 0.25766652E+00 0.25370364E+03</pdfrwt>
<totfact> 0.10211476E+03</totfact>
</mgrwt>
</event>
<event>
 4    0  0.1175886E-001  0.4717024E+03  0.7546771E-02  0.1021441E+00
          2   -1    0    0  502    0 -0.00000000000E+00  0.00000000000E+00  0.22821425583E+04  0.22821425583E+04  0.00000000000E+00 0. -1.
         21   -1    0    0  501  502  0.00000000000E+00 -0.00000000000E+00 -0.41019499038E+03  0.41019499038E+03  0.00000000000E+00 0. -1.
         25    1    1    2    0    0 -0.22210186287E+03  0.39692430939E+03 -0.24189831431E+03  0.53011125185E+03  0.12500000000E+03 0.  0.
          2    1    1    2  501    0  0.22210186287E+03 -0.39692430939E+03  0.21138458823E+04  0.21622262969E+04  0.00000000000E+00 0. -1.
<mgrwt>
<rscale>  3 0.47170239E+03</rscale>
<asrwt>0</asrwt>
<pdfrwt beam="1">  1       21 0.63106923E-01 0.47170239E+03</pdfrwt>
<pdfrwt beam="2">  1        2 0.35109885E+00 0.47170239E+03</pdfrwt>
<totfact> 0.13498419E+02</totfact>
</mgrwt>
</event>
<event>
 4    0  0.1478722E-001  0.2971267E+03  0.7546771E-02  0.1086686E+00
          2   -1    0    0  502    0 -0.00000000000E+00  0.00000000000E+00  0.18649388541E+04  0.18649388541E+04  0.00000000000E+00 0. -1.
         21   -1    0    0  501  502  0.00000000000E+00 -0.00000000000E+00 -0.28629732200E+03  0.28629732200E+03  0.00000000000E+00 0. -1.
         25    1    1    2    0    0 -0.11047839595E+03 -0.24587353561E+03 -0.19618839166E+03  0.35605358657E+03  0.12500000000E+03 0.  0.
          2    1    1    2  501    0  0.11047839595E+03  0.24587353561E+03  0.17748299237E+04  0.17951825895E+04  0.00000000000E+00 0. -1.
<mgrwt>
<rscale>  3 0.29712669E+03</rscale>
<asrwt>0</asrwt>
<pdfrwt beam="1">  1       21 0.44045743E-01 0.29712669E+03</pdfrwt>
<pdfrwt beam="2">  1        2 0.28691366E+00 0.29712669E+03</pdfrwt>
<totfact> 0.52529668E+02</totfact>
</mgrwt>
</event>
<event>
 4    0  0.1494093E-001  0.2598703E+03  0.7546771E-02  0.1107221E+00
          2   -1    0    0  502    0 -0.00000000000E+00  0.00000000000E+00  0.18331953894E+04  0.18331953894E+04  0.00000000000E+00 0. -1.
         21   -1    0    0  501  502  0.00000000000E+00 -0.00000000000E+00 -0.41642295088E+03  0.41642295088E+03  0.00000000000E+00 0. -1.
         25    1    1    2    0    0 -0.22606947486E+03 -0.28287346193E+02 -0.36792030274E+03  0.45044192810E+03  0.12500000000E+03 0.  0.
          2    1    1    2  501    0  0.22606947486E+03  0.28287346193E+02  0.17846927413E+04  0.17991764122E+04  0.00000000000E+00 0. -1.
<mgrwt>
<rscale>  3 0.25987032E+03</rscale>
<asrwt>0</asrwt>
<pdfrwt beam="1">  1       21 0.64065070E-01 0.25987032E+03</pdfrwt>
<pdfrwt beam="2">  1        2 0.28203006E+00 0.25987032E+03</pdfrwt>
<totfact> 0.25145890E+02</totfact>
</mgrwt>
</event>
<event>
 4    0  0.1387776E-001  0.2782195E+03  0.7546771E-02  0.1096665E+00
         21   -1    0    0  501  502  0.00000000000E+00  0.00000000000E+00  0.11480222954E+04  0.11480222954E+04  0.00000000000E+00 0.  1.
          1   -1    0    0  502    0 -0.00000000000E+00 -0.00000000000E+00 -0.44837090331E+03  0.44837090331E+03  0.00000000000E+00 0. -1.
         25    1    1    2    0    0 -0.13582649872E+03  0.20816401637E+03  0.10947844392E+04  0.11295835798E+04  0.12500000000E+03 0.  0.
          1    1    1    2  501    0  0.13582649872E+03 -0.20816401637E+03 -0.39513304706E+03  0.46680961895E+03  0.00000000000E+00 0. -1.
<mgrwt>
<rscale>  3 0.27821951E+03</rscale>
<asrwt>0</asrwt>
<pdfrwt beam="1">  1       21 0.17661881E+00 0.27821951E+03</pdfrwt>
<pdfrwt beam="2">  1        1 0.68980140E-01 0.27821951E+03</pdfrwt>
<totfact> 0.10350193E+02</totfact>
</mgrwt>
</event>
<event>
 4    0  0.1566072E-001  0.2961815E+03  0.7546771E-02  0.1087165E+00
         21   -1    0    0  501  502  0.00000000000E+00  0.00000000000E+00  0.14845576188E+03  0.14845576188E+03  0.00000000000E+00 0.  1.
          2   -1    0    0  502    0 -0.00000000000E+00 -0.00000000000E+00 -0.21378714891E+04  0.21378714891E+04  0.00000000000E+00 0.  1.
         25    1    1    2    0    0 -0.20619919021E+03  0.17198948566E+03 -0.18019767898E+02  0.29672917156E+03  0.12500000000E+03 0.  0.
          2    1    1    2  501    0  0.20619919021E+03 -0.17198948566E+03 -0.19713959593E+04  0.19895980794E+04  0.00000000000E+00 0.  1.
<mgrwt>
<rscale>  3 0.29618151E+03</rscale>
<asrwt>0</asrwt>
<pdfrwt beam="1">  1       21 0.22839348E-01 0.29618151E+03</pdfrwt>
<pdfrwt beam="2">  1        2 0.32890330E+00 0.29618151E+03</pdfrwt>
<totfact> 0.13874556E+03</totfact>
</mgrwt>
</event>
<event>
 4    0  0.1010020E-001  0.4000684E+03  0.7546771E-02  0.1043756E+00
          2   -1    0    0  502    0 -0.00000000000E+00  0.00000000000E+00  0.24695695760E+04  0.24695695760E+04  0.00000000000E+00 0. -1.
         21   -1    0    0  501  502  0.00000000000E+00 -0.00000000000E+00 -0.10871851539E+04  0.10871851539E+04  0.00000000000E+00 0.  1.
         25    1    1    2    0    0 -0.14776172642E+03  0.35013737550E+03 -0.10350255477E+04  0.11096542678E+04  0.12500000000E+03 0.  0.
          2    1    1    2  501    0  0.14776172642E+03 -0.35013737550E+03  0.24174099699E+04  0.24471004622E+04  0.00000000000E+00 0. -1.
<mgrwt>
<rscale>  3 0.40006838E+03</rscale>
<asrwt>0</asrwt>
<pdfrwt beam="1">  1       21 0.16725926E+00 0.40006838E+03</pdfrwt>
<pdfrwt beam="2">  1        2 0.37993378E+00 0.40006838E+03</pdfrwt>
<totfact> 0.99965542E+00</totfact>
</mgrwt>
</event>
<event>
 4    0  0.1247550E-001  0.2829773E+03  0.7546771E-02  0.1094074E+00
         21   -1    0    0  501  502  0.00000000000E+00  0.00000000000E+00  0.18999225390E+02  0.18999225390E+02  0.00000000000E+00 0.  1.
          2   -1    0    0  502    0 -0.00000000000E+00 -0.00000000000E+00 -0.38159316166E+04  0.38159316166E+04  0.00000000000E+00 0.  1.
         25    1    1    2    0    0  0.55761195062E+02  0.24767280093E+03 -0.21512458040E+04  0.21697775546E+04  0.12500000000E+03 0.  0.
          2    1    1    2  501    0 -0.55761195062E+02 -0.24767280093E+03 -0.16456865872E+04  0.16651532874E+04  0.00000000000E+00 0.  1.
<mgrwt>
<rscale>  3 0.28297726E+03</rscale>
<asrwt>0</asrwt>
<pdfrwt beam="1">  1       21 0.29229618E-02 0.28297726E+03</pdfrwt>
<pdfrwt beam="2">  1        2 0.58706558E+00 0.28297726E+03</pdfrwt>
<totfact> 0.51471262E+03</totfact>
</mgrwt>
</event>
<event>
 4    0  0.1460662E-001  0.2567078E+03  0.7546771E-02  0.1109138E+00
         21   -1    0    0  501  502  0.00000000000E+00  0.00000000000E+00  0.24313527242E+03  0.24313527242E+03  0.00000000000E+00 0.  1.
          2   -1    0    0  502    0 -0.00000000000E+00 -0.00000000000E+00 -0.71905233982E+03  0.71905233982E+03  0.00000000000E+00 0.  1.
         25    1    1    2    0    0 -0.22404482042E+03  0.88207625500E+01  0.15000184053E+03  0.29732043249E+03  0.12500000000E+03 0.  0.
          2    1    1    2  501    0  0.22404482042E+03 -0.88207625500E+01 -0.62591890793E+03  0.66486717976E+03  0.00000000000E+00 0.  1.
<mgrwt>
<rscale>  3 0.25670779E+03</rscale>
<asrwt>0</asrwt>
<pdfrwt beam="1">  1       21 0.37405427E-01 0.25670779E+03</pdfrwt>
<pdfrwt beam="2">  1        2 0.11062344E+00 0.25670779E+03</pdfrwt>
<totfact> 0.34485835E+03</totfact>
</mgrwt>
</event>
<event>
 4    0  0.1295239E-001  0.2453804E+03  0.7546771E-02  0.1116260E+00
         21   -1    0    0  501  502  0.00000000000E+00  0.00000000000E+00  0.78739841157E+03  0.78739841157E+03  0.00000000000E+00 0.  1.
          1   -1    0    0  502    0 -0.00000000000E+00 -0.00000000000E+00 -0.72609616746E+03  0.72609616746E+03  0.00000000000E+00 0.  1.
         25    1    1    2    0    0 -0.19621233713E+03 -0.78020988085E+02  0.75211502699E+03  0.79113119623E+03  0.12500000000E+03 0.  0.
          1    1    1    2  501    0  0.19621233713E+03  0.78020988085E+02 -0.69081278288E+03  0.72236338281E+03  0.00000000000E+00 0.  1.
<mgrwt>
<rscale>  3 0.24538043E+03</rscale>
<asrwt>0</asrwt>
<pdfrwt beam="1">  1       21 0.12113822E+00 0.24538043E+03</pdfrwt>
<pdfrwt beam="2">  1        1 0.11170710E+00 0.24538043E+03</pdfrwt>
<totfact> 0.14768541E+02</totfact>
</mgrwt>
</event>
<event>
 4    0  0.1464593E-001  0.3420786E+03  0.7546771E-02  0.1065914E+00
          2   -1    0    0  502    0 -0.00000000000E+00  0.00000000000E+00  0.62553357198E+03  0.62553357198E+03  0.00000000000E+00 0. -1.
         21   -1    0    0  501  502  0.00000000000E+00 -0.00000000000E+00 -0.17909846265E+03  0.17909846265E+03  0.00000000000E+00 0. -1.
         25    1    1    2    0    0 -0.31554098568E+03  0.42739176402E+02  0.16557223972E+03  0.38004199427E+03  0.12500000000E+03 0.  0.
          2    1    1    2  501    0  0.31554098568E+03 -0.42739176402E+02  0.28086286961E+03  0.42459004036E+03  0.00000000000E+00 0. -1.
<mgrwt>
<rscale>  3 0.34207857E+03</rscale>
<asrwt>0</asrwt>
<pdfrwt beam="1">  1       21 0.27553610E-01 0.34207857E+03</pdfrwt>
<pdfrwt beam="2">  1        2 0.96235933E-01 0.34207857E+03</pdfrwt>
<totfact> 0.73346034E+03</totfact>
</mgrwt>
</event>
<event>
 4    0  0.1205155E-001  0.2630196E+03  0.7546771E-02  0.1105342E+00
         21   -1    0    0  501  502  0.00000000000E+00  0.00000000000E+00  0.16150046805E+03  0.16150046805E+03  0.00000000000E+00 0. -1.
          2   -1    0    0  502    0 -0.00000000000E+00 -0.00000000000E+00 -0.25357655843E+04  0.25357655843E+04  0.00000000000E+00 0. -1.
         25    1    1    2    0    0  0.21238027433E+02 -0.23044148024E+03  0.45100011055E+02  0.26685827816E+03  0.12500000000E+03 0.  0.
          2    1    1    2  501    0 -0.21238027433E+02  0.23044148024E+03 -0.24193651273E+04  0.24304077742E+04  0.00000000000E+00 0. -1.
<mgrwt>
<rscale>  3 0.26301964E+03</rscale>
<asrwt>0</asrwt>
<pdfrwt beam="1">  1       21 0.24846228E-01 0.26301964E+03</pdfrwt>
<pdfrwt beam="2">  1        2 0.39011774E+00 0.26301964E+03</pdfrwt>
<totfact> 0.73244972E+02</totfact>
</mgrwt>
</event>
<event>
 4    0  0.1076359E-001  0.4719825E+03  0.7546771E-02  0.1021362E+00
          2   -1    0    0  502    0 -0.00000000000E+00  0.00000000000E+00  0.84797139516E+03  0.84797139516E+03  0.00000000000E+00 0. -1.
         21   -1    0    0  501  502  0.00000000000E+00 -0.00000000000E+00 -0.15347152341E+04  0.15347152341E+04  0.00000000000E+00 0. -1.
         25    1    1    2    0    0  0.41729984225E+03  0.18166827033E+03 -0.14329254695E+04  0.15086559979E+04  0.12500000000E+03 0.  0.
          2    1    1    2  501    0 -0.41729984225E+03 -0.18166827033E+03  0.74618163056E+03  0.87403063137E+03  0.00000000000E+00 0. -1.
<mgrwt>
<rscale>  3 0.47198254E+03</rscale>
<asrwt>0</asrwt>
<pdfrwt beam="1">  1       21 0.23611003E+00 0.47198254E+03</pdfrwt>
<pdfrwt beam="2">  1        2 0.13045714E+00 0.47198254E+03</pdfrwt>
<totfact> 0.27173031E+01</totfact>
</mgrwt>
</event>
<event>
 4    0  0.1386312E-001  0.2935087E+03  0.7546771E-02  0.1088531E+00
          1   -1    0    0  502    0 -0.00000000000E+00  0.00000000000E+00  0.30088031268E+04  0.30088031268E+04  0.00000000000E+00 0.  1.
         21   -1    0    0  501  502  0.00000000000E+00 -0.00000000000E+00 -0.26618166445E+02  0.26618166445E+02  0.00000000000E+00 0.  1.
         25    1    1    2    0    0 -0.11547794756E+03  0.23913845965E+03  0.13273329520E+04  0.13593969710E+04  0.12500000000E+03 0.  0.
          1    1    1    2  501    0  0.11547794756E+03 -0.23913845965E+03  0.16548520084E+04  0.16760243223E+04  0.00000000000E+00 0.  1.
<mgrwt>
<rscale>  3 0.29350870E+03</rscale>
<asrwt>0</asrwt>
<pdfrwt beam="1">  1       21 0.40951049E-02 0.29350870E+03</pdfrwt>
<pdfrwt beam="2">  1        1 0.46289252E+00 0.29350870E+03</pdfrwt>
<totfact> 0.29777865E+03</totfact>
</mgrwt>
</event>
<event>
 4    0  0.1428106E-001  0.3119467E+03  0.7546771E-02  0.1079417E+00
         21   -1    0    0  501  502  0.00000000000E+00  0.00000000000E+00  0.17813679511E+03  0.17813679511E+03  0.00000000000E+00 0. -1.
          1   -1    0    0  502    0 -0.00000000000E+00 -0.00000000000E+00 -0.53346449697E+03  0.53346449697E+03  0.00000000000E+00 0. -1.
         25    1    1    2    0    0 -0.28462883397E+03 -0.25926639121E+02 -0.27204475953E+03  0.41390713322E+03  0.12500000000E+03 0.  0.
          1    1    1    2  501    0  0.28462883397E+03  0.25926639121E+02 -0.83282942326E+02  0.29769415887E+03  0.00000000000E+00 0. -1.
<mgrwt>
<rscale>  3 0.31194673E+03</rscale>
<asrwt>0</asrwt>
<pdfrwt beam="1">  1       21 0.27405661E-01 0.31194673E+03</pdfrwt>
<pdfrwt beam="2">  1        1 0.82071461E-01 0.31194673E+03</pdfrwt>
<totfact> 0.56426381E+03</totfact>
</mgrwt>
</event>
<event>
 4    0  0.1002184E-001  0.6851408E+03  0.7546771E-02  0.9742986E-01
          2   -1    0    0  502    0 -0.00000000000E+00  0.00000000000E+00  0.14478910508E+04  0.14478910508E+04  0.00000000000E+00 0.  1.
         21   -1    0    0  501  502  0.00000000000E+00 -0.00000000000E+00 -0.43095885524E+03  0.43095885524E+03  0.00000000000E+00 0. -1.
         25    1    1    2    0    0  0.19453227814E+03  0.64494194476E+03  0.32390579030E+02  0.68590602050E+03  0.12500000000E+03 0.  0.
          2    1    1    2  501    0 -0.19453227814E+03 -0.64494194476E+03  0.98454161648E+03  0.11929438855E+04  0.00000000000E+00 0.  1.
<mgrwt>
<rscale>  3 0.68514080E+03</rscale>
<asrwt>0</asrwt>
<pdfrwt beam="1">  1       21 0.66301363E-01 0.68514080E+03</pdfrwt>
<pdfrwt beam="2">  1        2 0.22275247E+00 0.68514080E+03</pdfrwt>
<totfact> 0.32380828E+02</totfact>
</mgrwt>
</event>
<event>
 4    0  0.1550597E-001  0.2810962E+03  0.7546771E-02  0.1095092E+00
         -2   -1    0    0    0  501 -0.00000000000E+00  0.00000000000E+00  0.18880010602E+03  0.18880010602E+03  0.00000000000E+00 0.  1.
         21   -1    0    0  501  502  0.00000000000E+00 -0.00000000000E+00 -0.48353117218E+03  0.48353117218E+03  0.00000000000E+00 0.  1.
         25    1    1    2    0    0  0.89998636973E+02  0.23513890058E+03 -0.31201807413E+03  0.41996468400E+03  0.12500000000E+03 0.  0.
         -2    1    1    2    0  502 -0.89998636973E+02 -0.23513890058E+03  0.17287007969E+02  0.25236659420E+03  0.00000000000E+00 0.  1.
<mgrwt>
<rscale>  3 0.28109617E+03</rscale>
<asrwt>0</asrwt>
<pdfrwt beam="1">  1       21 0.74389411E-01 0.28109617E+03</pdfrwt>
<pdfrwt beam="2">  1       -2 0.29046170E-01 0.28109617E+03</pdfrwt>
<totfact> 0.13709780E+03</totfact>
</mgrwt>
</event>
<event>
 4    0  0.1002184E-001  0.2838254E+03  0.7546771E-02  0.1093618E+00
         21   -1    0    0  501  502  0.00000000000E+00  0.00000000000E+00  0.26789707655E+02  0.26789707655E+02  0.00000000000E+00 0.  1.
          2   -1    0    0  502    0 -0.00000000000E+00 -0.00000000000E+00 -0.28711813053E+04  0.28711813053E+04  0.00000000000E+00 0. -1.
         25    1    1    2    0    0 -0.10013590206E+03  0.23431738781E+03 -0.11489618286E+04  0.11834991005E+04  0.12500000000E+03 0.  0.
          2    1    1    2  501    0  0.10013590206E+03 -0.23431738781E+03 -0.16954297690E+04  0.17144719125E+04  0.00000000000E+00 0. -1.
<mgrwt>
<rscale>  3 0.28382536E+03</rscale>
<asrwt>0</asrwt>
<pdfrwt beam="1">  1       21 0.41214957E-02 0.28382536E+03</pdfrwt>
<pdfrwt beam="2">  1        2 0.44171996E+00 0.28382536E+03</pdfrwt>
<totfact> 0.11699494E+04</totfact>
</mgrwt>
</event>
<event>
 4    0  0.1024694E-001  0.5381850E+03  0.7546771E-02  0.1004266E+00
         -3   -1    0    0    0  501 -0.00000000000E+00  0.00000000000E+00  0.25536914730E+03  0.25536914730E+03  0.00000000000E+00 0. -1.
         21   -1    0    0  501  502  0.00000000000E+00 -0.00000000000E+00 -0.13375699617E+04  0.13375699617E+04  0.00000000000E+00 0. -1.
         25    1    1    2    0    0  0.45082929600E+03  0.26602836711E+03 -0.88051084220E+03  0.10319605077E+04  0.12500000000E+03 0.  0.
         -3    1    1    2    0  502 -0.45082929600E+03 -0.26602836711E+03 -0.20168997223E+03  0.56097860132E+03  0.00000000000E+00 0. -1.
<mgrwt>
<rscale>  3 0.53818505E+03</rscale>
<asrwt>0</asrwt>
<pdfrwt beam="1">  1       21 0.20577999E+00 0.53818505E+03</pdfrwt>
<pdfrwt beam="2">  1       -3 0.39287561E-01 0.53818505E+03</pdfrwt>
<totfact> 0.34046711E+01</totfact>
</mgrwt>
</event>
<event>
 4    0  0.1445252E-001  0.2377484E+03  0.7546771E-02  0.1121302E+00
          2   -1    0    0  502    0 -0.00000000000E+00  0.00000000000E+00  0.25982716223E+03  0.25982716223E+03  0.00000000000E+00 0. -1.
         21   -1    0    0  501  502  0.00000000000E+00 -0.00000000000E+00 -0.18969161386E+03  0.18969161386E+03  0.00000000000E+00 0. -1.
         25    1    1    2    0    0 -0.10262749131E+03 -0.17426095182E+03  0.67962191686E+02  0.24727139099E+03  0.12500000000E+03 0.  0.
          2    1    1    2  501    0  0.10262749131E+03  0.17426095182E+03  0.21733566849E+01  0.20224738510E+03  0.00000000000E+00 0. -1.
<mgrwt>
<rscale>  3 0.23774836E+03</rscale>
<asrwt>0</asrwt>
<pdfrwt beam="1">  1       21 0.29183325E-01 0.23774836E+03</pdfrwt>
<pdfrwt beam="2">  1        2 0.39973409E-01 0.23774836E+03</pdfrwt>
<totfact> 0.17675081E+04</totfact>
</mgrwt>
</event>
<event>
 4    0  0.1002184E-001  0.3389024E+03  0.7546771E-02  0.1067264E+00
          1   -1    0    0  502    0 -0.00000000000E+00  0.00000000000E+00  0.76818865270E+02  0.76818865270E+02  0.00000000000E+00 0.  1.
         21   -1    0    0  501  502  0.00000000000E+00 -0.00000000000E+00 -0.14077998930E+04  0.14077998930E+04  0.00000000000E+00 0.  1.
         25    1    1    2    0    0  0.14795626436E+03 -0.27809854674E+03 -0.76915293288E+03  0.84050644972E+03  0.12500000000E+03 0.  0.
          1    1    1    2  501    0 -0.14795626436E+03  0.27809854674E+03 -0.56182809486E+03  0.64411230856E+03  0.00000000000E+00 0.  1.
<mgrwt>
<rscale>  3 0.33890243E+03</rscale>
<asrwt>0</asrwt>
<pdfrwt beam="1">  1       21 0.21658459E+00 0.33890243E+03</pdfrwt>
<pdfrwt beam="2">  1        1 0.11818287E-01 0.33890243E+03</pdfrwt>
<totfact> 0.53207347E+02</totfact>
</mgrwt>
</event>
<event>
 4    0  0.1002184E-001  0.3978544E+03  0.7546771E-02  0.1044525E+00
         21   -1    0    0  501  502  0.00000000000E+00  0.00000000000E+00  0.22864698200E+04  0.22864698200E+04  0.00000000000E+00 0. -1.
          1   -1    0    0  502    0 -0.00000000000E+00 -0.00000000000E+00 -0.71997099068E+02  0.71997099068E+02  0.00000000000E+00 0. -1.
         25    1    1    2    0    0  0.75759216837E+02  0.37003192444E+03  0.14802932572E+04  0.15328262169E+04  0.12500000000E+03 0.  0.
          1    1    1    2  501    0 -0.75759216837E+02 -0.37003192444E+03  0.73417946373E+03  0.82564070212E+03  0.00000000000E+00 0. -1.
<mgrwt>
<rscale>  3 0.39785435E+03</rscale>
<asrwt>0</asrwt>
<pdfrwt beam="1">  1       21 0.35176453E+00 0.39785435E+03</pdfrwt>
<pdfrwt beam="2">  1        1 0.11076479E-01 0.39785435E+03</pdfrwt>
<totfact> 0.85744756E+01</totfact>
</mgrwt>
</event>
<event>
 4    0  0.1058638E-001  0.2984578E+03  0.7546771E-02  0.1086014E+00
          1   -1    0    0  502    0 -0.00000000000E+00  0.00000000000E+00  0.11810576462E+03  0.11810576462E+03  0.00000000000E+00 0.  1.
         21   -1    0    0  501  502  0.00000000000E+00 -0.00000000000E+00 -0.10197446396E+04  0.10197446396E+04  0.00000000000E+00 0.  1.
         25    1    1    2    0    0 -0.53682089988E+02 -0.26565069795E+03 -0.79043075279E+03  0.84490108005E+03  0.12500000000E+03 0.  0.
          1    1    1    2  501    0  0.53682089988E+02  0.26565069795E+03 -0.11120812223E+03  0.29294932422E+03  0.00000000000E+00 0.  1.
<mgrwt>
<rscale>  3 0.29845780E+03</rscale>
<asrwt>0</asrwt>
<pdfrwt beam="1">  1       21 0.15688379E+00 0.29845780E+03</pdfrwt>
<pdfrwt beam="2">  1        1 0.18170118E-01 0.29845780E+03</pdfrwt>
<totfact> 0.78445054E+02</totfact>
</mgrwt>
</event>
<event>
 4    0  0.1519294E-001  0.2897368E+03  0.7546771E-02  0.1090487E+00
         21   -1    0    0  501  502  0.00000000000E+00  0.00000000000E+00  0.97266575289E+02  0.97266575289E+02  0.00000000000E+00 0.  1.
          2   -1    0    0  502    0 -0.00000000000E+00 -0.00000000000E+00 -0.78540251117E+03  0.78540251117E+03  0.00000000000E+00 0.  1.
         25    1    1    2    0    0 -0.98484350803E+02  0.24212238028E+03 -0.39584235851E+03  0.49054927089E+03  0.12500000000E+03 0.  0.
          2    1    1    2  501    0  0.98484350803E+02 -0.24212238028E+03 -0.29229357737E+03  0.39211981556E+03  0.00000000000E+00 0.  1.
<mgrwt>
<rscale>  3 0.28973680E+03</rscale>
<asrwt>0</asrwt>
<pdfrwt beam="1">  1       21 0.14964089E-01 0.28973680E+03</pdfrwt>
<pdfrwt beam="2">  1        2 0.12083115E+00 0.28973680E+03</pdfrwt>
<totfact> 0.17770420E+04</totfact>
</mgrwt>
</event>
<event>
 4    0  0.1050618E-001  0.4958002E+03  0.7546771E-02  0.1014881E+00
         21   -1    0    0  501  502  0.00000000000E+00  0.00000000000E+00  0.10856428029E+03  0.10856428029E+03  0.00000000000E+00 0.  1.
          2   -1    0    0  502    0 -0.00000000000E+00 -0.00000000000E+00 -0.24390381868E+04  0.24390381868E+04  0.00000000000E+00 0.  1.
         25    1    1    2    0    0  0.23793440443E+02  0.47919379684E+03 -0.77684493305E+03  0.92157792548E+03  0.12500000000E+03 0.  0.
          2    1    1    2  501    0 -0.23793440443E+02 -0.47919379684E+03 -0.15536289735E+04  0.16260245416E+04  0.00000000000E+00 0.  1.
<mgrwt>
<rscale>  3 0.49580018E+03</rscale>
<asrwt>0</asrwt>
<pdfrwt beam="1">  1       21 0.16702197E-01 0.49580018E+03</pdfrwt>
<pdfrwt beam="2">  1        2 0.37523664E+00 0.49580018E+03</pdfrwt>
<totfact> 0.16096476E+03</totfact>
</mgrwt>
</event>
<event>
 4    0  0.1324364E-001  0.3659255E+03  0.7546771E-02  0.1056262E+00
         21   -1    0    0  501  502  0.00000000000E+00  0.00000000000E+00  0.99823041746E+03  0.99823041746E+03  0.00000000000E+00 0.  1.
          2   -1    0    0  502    0 -0.00000000000E+00 -0.00000000000E+00 -0.40987337640E+03  0.40987337640E+03  0.00000000000E+00 0. -1.
         25    1    1    2    0    0 -0.91518169432E+02 -0.33151301975E+03  0.88262829246E+03  0.95547588156E+03  0.12500000000E+03 0.  0.
          2    1    1    2  501    0  0.91518169432E+02  0.33151301975E+03 -0.29427125140E+03  0.45262791231E+03  0.00000000000E+00 0. -1.
<mgrwt>
<rscale>  3 0.36592548E+03</rscale>
<asrwt>0</asrwt>
<pdfrwt beam="1">  1       21 0.15357391E+00 0.36592548E+03</pdfrwt>
<pdfrwt beam="2">  1        2 0.63057443E-01 0.36592548E+03</pdfrwt>
<totfact> 0.24757712E+02</totfact>
</mgrwt>
</event>
<event>
 4    0  0.1002184E-001  0.3498919E+03  0.7546771E-02  0.1062659E+00
          2   -1    0    0  502    0 -0.00000000000E+00  0.00000000000E+00  0.90710189420E+03  0.90710189420E+03  0.00000000000E+00 0.  1.
         21   -1    0    0  501  502  0.00000000000E+00 -0.00000000000E+00 -0.13237159428E+03  0.13237159428E+03  0.00000000000E+00 0. -1.
         25    1    1    2    0    0  0.10546808370E+03 -0.30931504083E+03  0.28782810717E+03  0.45306658499E+03  0.12500000000E+03 0.  0.
          2    1    1    2  501    0 -0.10546808370E+03  0.30931504083E+03  0.48690219275E+03  0.58640690350E+03  0.00000000000E+00 0.  1.
<mgrwt>
<rscale>  3 0.34989186E+03</rscale>
<asrwt>0</asrwt>
<pdfrwt beam="1">  1       21 0.20364861E-01 0.34989186E+03</pdfrwt>
<pdfrwt beam="2">  1        2 0.13955413E+00 0.34989186E+03</pdfrwt>
<totfact> 0.81857700E+03</totfact>
</mgrwt>
</event>
<event>
 4    0  0.1002184E-001  0.2548390E+03  0.7546771E-02  0.1110284E+00
          1   -1    0    0  502    0 -0.00000000000E+00  0.00000000000E+00  0.88891601160E+02  0.88891601160E+02  0.00000000000E+00 0.  1.
         21   -1    0    0  501  502  0.00000000000E+00 -0.00000000000E+00 -0.11846331218E+04  0.11846331218E+04  0.00000000000E+00 0.  1.
         25    1    1    2    0    0 -0.21186739563E+03  0.66559228159E+02 -0.99952576774E+03  0.10315011801E+04  0.12500000000E+03 0.  0.
          1    1    1    2  501    0  0.21186739563E+03 -0.66559228159E+02 -0.96215752889E+02  0.24202354284E+03  0.00000000000E+00 0.  1.
<mgrwt>
<rscale>  3 0.25483902E+03</rscale>
<asrwt>0</asrwt>
<pdfrwt beam="1">  1       21 0.18225125E+00 0.25483902E+03</pdfrwt>
<pdfrwt beam="2">  1        1 0.13675631E-01 0.25483902E+03</pdfrwt>
<totfact> 0.76419680E+02</totfact>
</mgrwt>
</event>
<event>
 4    0  0.1688339E-001  0.2509447E+03  0.7546771E-02  0.1112709E+00
          1   -1    0    0  502    0 -0.00000000000E+00  0.00000000000E+00  0.93721894437E+03  0.93721894437E+03  0.00000000000E+00 0. -1.
         21   -1    0    0  501  502  0.00000000000E+00 -0.00000000000E+00 -0.66780184916E+02  0.66780184916E+02  0.00000000000E+00 0. -1.
         25    1    1    2    0    0 -0.13578269911E+03 -0.17003329781E+03  0.28664023805E+03  0.38096704557E+03  0.12500000000E+03 0.  0.
          1    1    1    2  501    0  0.13578269911E+03  0.17003329781E+03  0.58379852141E+03  0.62303208372E+03  0.00000000000E+00 0. -1.
<mgrwt>
<rscale>  3 0.25094474E+03</rscale>
<asrwt>0</asrwt>
<pdfrwt beam="1">  1       21 0.10273875E-01 0.25094474E+03</pdfrwt>
<pdfrwt beam="2">  1        1 0.14418752E+00 0.25094474E+03</pdfrwt>
<totfact> 0.15303437E+04</totfact>
</mgrwt>
</event>
<event>
 4    0  0.1002184E-001  0.2895620E+03  0.7546771E-02  0.1090578E+00
         21   -1    0    0  501  502  0.00000000000E+00  0.00000000000E+00  0.37976823750E+02  0.37976823750E+02  0.00000000000E+00 0. -1.
          1   -1    0    0  502    0 -0.00000000000E+00 -0.00000000000E+00 -0.42688348208E+04  0.42688348208E+04  0.00000000000E+00 0.  1.
         25    1    1    2    0    0 -0.97289299365E+02  0.24239630142E+03 -0.59637008216E+03  0.66295056347E+03  0.12500000000E+03 0.  0.
          1    1    1    2  501    0  0.97289299365E+02 -0.24239630142E+03 -0.36344879149E+04  0.36438610811E+04  0.00000000000E+00 0.  1.
<mgrwt>
<rscale>  3 0.28956204E+03</rscale>
<asrwt>0</asrwt>
<pdfrwt beam="1">  1       21 0.58425911E-02 0.28956204E+03</pdfrwt>
<pdfrwt beam="2">  1        1 0.65674350E+00 0.28956204E+03</pdfrwt>
<totfact> 0.16566712E+02</totfact>
</mgrwt>
</event>
<event>
 4    0  0.1465659E-001  0.2470506E+03  0.7546771E-02  0.1115183E+00
         21   -1    0    0  501  502  0.00000000000E+00  0.00000000000E+00  0.19006482809E+02  0.19006482809E+02  0.00000000000E+00 0. -1.
          2   -1    0    0  502    0 -0.00000000000E+00 -0.00000000000E+00 -0.28496177985E+04  0.28496177985E+04  0.00000000000E+00 0. -1.
         25    1    1    2    0    0  0.19712049350E+03 -0.80947589975E+02 -0.17327761766E+04  0.17502991972E+04  0.12500000000E+03 0.  0.
          2    1    1    2  501    0 -0.19712049350E+03  0.80947589975E+02 -0.10978351391E+04  0.11183250842E+04  0.00000000000E+00 0. -1.
<mgrwt>
<rscale>  3 0.24705060E+03</rscale>
<asrwt>0</asrwt>
<pdfrwt beam="1">  1       21 0.29240772E-02 0.24705060E+03</pdfrwt>
<pdfrwt beam="2">  1        2 0.43840229E+00 0.24705060E+03</pdfrwt>
<totfact> 0.21687782E+04</totfact>
</mgrwt>
</event>
<event>
 4    0  0.1619947E-001  0.3166130E+03  0.7546771E-02  0.1077219E+00
         21   -1    0    0  501  502  0.00000000000E+00  0.00000000000E+00  0.11318860598E+03  0.11318860598E+03  0.00000000000E+00 0. -1.
          1   -1    0    0  502    0 -0.00000000000E+00 -0.00000000000E+00 -0.12000164079E+04  0.12000164079E+04  0.00000000000E+00 0. -1.
         25    1    1    2    0    0 -0.88165766210E+02  0.27721031983E+03 -0.18742236147E+03  0.36792785343E+03  0.12500000000E+03 0.  0.
          1    1    1    2  501    0  0.88165766210E+02 -0.27721031983E+03 -0.89940544042E+03  0.94527716042E+03  0.00000000000E+00 0. -1.
<mgrwt>
<rscale>  3 0.31661296E+03</rscale>
<asrwt>0</asrwt>
<pdfrwt beam="1">  1       21 0.17413632E-01 0.31661296E+03</pdfrwt>
<pdfrwt beam="2">  1        1 0.18461791E+00 0.31661296E+03</pdfrwt>
<totfact> 0.36969471E+03</totfact>
</mgrwt>
</event>
<event>
 4    0  0.1617998E-001  0.3618229E+03  0.7546771E-02  0.1057864E+00
          2   -1    0    0  502    0 -0.00000000000E+00  0.00000000000E+00  0.16711329690E+04  0.16711329690E+04  0.00000000000E+00 0. -1.
         21   -1    0    0  501  502  0.00000000000E+00 -0.00000000000E+00 -0.21739401241E+03  0.21739401241E+03  0.00000000000E+00 0. -1.
         25    1    1    2    0    0 -0.64128431741E+02  0.33343413402E+03 -0.33171847453E+02  0.36334026607E+03  0.12500000000E+03 0.  0.
          2    1    1    2  501    0  0.64128431741E+02 -0.33343413402E+03  0.14869108041E+04  0.15251867154E+04  0.00000000000E+00 0. -1.
<mgrwt>
<rscale>  3 0.36182285E+03</rscale>
<asrwt>0</asrwt>
<pdfrwt beam="1">  1       21 0.33445234E-01 0.36182285E+03</pdfrwt>
<pdfrwt beam="2">  1        2 0.25709737E+00 0.36182285E+03</pdfrwt>
<totfact> 0.11343580E+03</totfact>
</mgrwt>
</event>
<event>
 4    0  0.1602733E-001  0.3421075E+03  0.7546771E-02  0.1065902E+00
          1   -1    0    0  502    0 -0.00000000000E+00  0.00000000000E+00  0.58483013369E+03  0.58483013369E+03  0.00000000000E+00 0.  1.
         21   -1    0    0  501  502  0.00000000000E+00 -0.00000000000E+00 -0.55221737044E+03  0.55221737044E+03  0.00000000000E+00 0.  1.
         25    1    1    2    0    0 -0.63391825279E+02  0.31208009809E+03 -0.44604541443E+03  0.56213345646E+03  0.12500000000E+03 0.  0.
          1    1    1    2  501    0  0.63391825279E+02 -0.31208009809E+03  0.47865817768E+03  0.57491404766E+03  0.00000000000E+00 0.  1.
<mgrwt>
<rscale>  3 0.34210746E+03</rscale>
<asrwt>0</asrwt>
<pdfrwt beam="1">  1       21 0.84956519E-01 0.34210746E+03</pdfrwt>
<pdfrwt beam="2">  1        1 0.89973867E-01 0.34210746E+03</pdfrwt>
<totfact> 0.45152723E+02</totfact>
</mgrwt>
</event>
<event>
 4    0  0.1486564E-001  0.2955896E+03  0.7546771E-02  0.1087466E+00
         21   -1    0    0  501  502  0.00000000000E+00  0.00000000000E+00  0.17165901620E+03  0.17165901620E+03  0.00000000000E+00 0.  1.
          1   -1    0    0  502    0 -0.00000000000E+00 -0.00000000000E+00 -0.53600355782E+03  0.53600355782E+03  0.00000000000E+00 0.  1.
         25    1    1    2    0    0 -0.12330916773E+02 -0.26757460271E+03 -0.32092165547E+03  0.43630714923E+03  0.12500000000E+03 0.  0.
          1    1    1    2  501    0  0.12330916773E+02  0.26757460271E+03 -0.43422886148E+02  0.27135542479E+03  0.00000000000E+00 0.  1.
<mgrwt>
<rscale>  3 0.29558961E+03</rscale>
<asrwt>0</asrwt>
<pdfrwt beam="1">  1       21 0.26409080E-01 0.29558961E+03</pdfrwt>
<pdfrwt beam="2">  1        1 0.82462085E-01 0.29558961E+03</pdfrwt>
<totfact> 0.60454145E+03</totfact>
</mgrwt>
</event>
<event>
 4    0  0.1529879E-001  0.2436645E+03  0.7546771E-02  0.1117375E+00
         21   -1    0    0  501  502  0.00000000000E+00  0.00000000000E+00  0.80119721722E+02  0.80119721722E+02  0.00000000000E+00 0.  1.
          2   -1    0    0  502    0 -0.00000000000E+00 -0.00000000000E+00 -0.64755304417E+03  0.64755304417E+03  0.00000000000E+00 0.  1.
         25    1    1    2    0    0 -0.58188192991E+01 -0.20907781868E+03 -0.26543354259E+03  0.36031563726E+03  0.12500000000E+03 0.  0.
          2    1    1    2  501    0  0.58188192991E+01  0.20907781868E+03 -0.30199977985E+03  0.36735712863E+03  0.00000000000E+00 0.  1.
<mgrwt>
<rscale>  3 0.24366451E+03</rscale>
<asrwt>0</asrwt>
<pdfrwt beam="1">  1       21 0.12326112E-01 0.24366451E+03</pdfrwt>
<pdfrwt beam="2">  1        2 0.99623541E-01 0.24366451E+03</pdfrwt>
<totfact> 0.32256821E+04</totfact>
</mgrwt>
</event>
<event>
 4    0  0.1178675E-001  0.2485936E+03  0.7546771E-02  0.1114197E+00
         21   -1    0    0  501  502  0.00000000000E+00  0.00000000000E+00  0.73116575356E+03  0.73116575356E+03  0.00000000000E+00 0. -1.
          1   -1    0    0  502    0 -0.00000000000E+00 -0.00000000000E+00 -0.23259440393E+03  0.23259440393E+03  0.00000000000E+00 0.  1.
         25    1    1    2    0    0 -0.13971396797E+03  0.16325988303E+03  0.65327974333E+03  0.69898011795E+03  0.12500000000E+03 0.  0.
          1    1    1    2  501    0  0.13971396797E+03 -0.16325988303E+03 -0.15470839370E+03  0.26478003953E+03  0.00000000000E+00 0.  1.
<mgrwt>
<rscale>  3 0.24859361E+03</rscale>
<asrwt>0</asrwt>
<pdfrwt beam="1">  1       21 0.11248704E+00 0.24859361E+03</pdfrwt>
<pdfrwt beam="2">  1        1 0.35783755E-01 0.24859361E+03</pdfrwt>
<totfact> 0.79224700E+02</totfact>
</mgrwt>
</event>
<event>
 4    0  0.1580827E-001  0.2705988E+03  0.7546771E-02  0.1100937E+00
         21   -1    0    0  501  502  0.00000000000E+00  0.00000000000E+00  0.17553363033E+03  0.17553363033E+03  0.00000000000E+00 0.  1.
          2   -1    0    0  502    0 -0.00000000000E+00 -0.00000000000E+00 -0.87579025802E+03  0.87579025802E+03  0.00000000000E+00 0.  1.
         25    1    1    2    0    0 -0.15086981202E+03 -0.18664671144E+03  0.39631107315E+02  0.27348550187E+03  0.12500000000E+03 0.  0.
          2    1    1    2  501    0  0.15086981202E+03  0.18664671144E+03 -0.73988773500E+03  0.77783838647E+03  0.00000000000E+00 0.  1.
<mgrwt>
<rscale>  3 0.27059877E+03</rscale>
<asrwt>0</asrwt>
<pdfrwt beam="1">  1       21 0.27005174E-01 0.27059877E+03</pdfrwt>
<pdfrwt beam="2">  1        2 0.13473696E+00 0.27059877E+03</pdfrwt>
<totfact> 0.50866197E+03</totfact>
</mgrwt>
</event>
<event>
 4    0  0.1002184E-001  0.4856482E+03  0.7546771E-02  0.1017594E+00
          2   -1    0    0  502    0 -0.00000000000E+00  0.00000000000E+00  0.33117253269E+04  0.33117253269E+04  0.00000000000E+00 0.  1.
         21   -1    0    0  501  502  0.00000000000E+00 -0.00000000000E+00 -0.16447206019E+03  0.16447206019E+03  0.00000000000E+00 0.  1.
         25    1    1    2    0    0 -0.46174026712E+03 -0.83815629018E+02  0.25963547435E+03  0.55069475527E+03  0.12500000000E+03 0.  0.
          2    1    1    2  501    0  0.46174026712E+03  0.83815629018E+02  0.28876177924E+04  0.29255026318E+04  0.00000000000E+00 0.  1.
<mgrwt>
<rscale>  3 0.48564816E+03</rscale>
<asrwt>0</asrwt>
<pdfrwt beam="1">  1       21 0.25303396E-01 0.48564816E+03</pdfrwt>
<pdfrwt beam="2">  1        2 0.50949615E+00 0.48564816E+03</pdfrwt>
<totfact> 0.22126226E+02</totfact>
</mgrwt>
</event>
<event>
 4    0  0.1661985E-001  0.2585566E+03  0.7546771E-02  0.1108014E+00
         21   -1    0    0  501  502  0.00000000000E+00  0.00000000000E+00  0.29666724726E+02  0.29666724726E+02  0.00000000000E+00 0.  1.
          1   -1    0    0  502    0 -0.00000000000E+00 -0.00000000000E+00 -0.19973550967E+04  0.19973550967E+04  0.00000000000E+00 0.  1.
         25    1    1    2    0    0 -0.10340954780E+03 -0.20132806902E+03 -0.11392984015E+04  0.11682689646E+04  0.12500000000E+03 0.  0.
          1    1    1    2  501    0  0.10340954780E+03  0.20132806902E+03 -0.82838997049E+03  0.85875285686E+03  0.00000000000E+00 0.  1.
<mgrwt>
<rscale>  3 0.25855662E+03</rscale>
<asrwt>0</asrwt>
<pdfrwt beam="1">  1       21 0.45641103E-02 0.25855662E+03</pdfrwt>
<pdfrwt beam="2">  1        1 0.30728548E+00 0.25855662E+03</pdfrwt>
<totfact> 0.11909695E+04</totfact>
</mgrwt>
</event>
<event>
 4    0  0.1475768E-001  0.3279750E+03  0.7546771E-02  0.1072036E+00
          4   -1    0    0  502    0 -0.00000000000E+00  0.00000000000E+00  0.56216941857E+03  0.56216941857E+03  0.00000000000E+00 0.  1.
         21   -1    0    0  501  502  0.00000000000E+00 -0.00000000000E+00 -0.17868527033E+03  0.17868527033E+03  0.00000000000E+00 0.  1.
         25    1    1    2    0    0  0.24755445226E+03 -0.17509823469E+03  0.23323709963E+03  0.40245141728E+03  0.12500000000E+03 0.  0.
          4    1    1    2  501    0 -0.24755445226E+03  0.17509823469E+03  0.15024704862E+03  0.33840327162E+03  0.00000000000E+00 0.  1.
<mgrwt>
<rscale>  3 0.32797500E+03</rscale>
<asrwt>0</asrwt>
<pdfrwt beam="1">  1       21 0.27490042E-01 0.32797500E+03</pdfrwt>
<pdfrwt beam="2">  1        4 0.86487602E-01 0.32797500E+03</pdfrwt>
<totfact> 0.62986278E+02</totfact>
</mgrwt>
</event>
<event>
 4    0  0.1292145E-001  0.2422118E+03  0.7546771E-02  0.1118328E+00
         -4   -1    0    0    0  501 -0.00000000000E+00  0.00000000000E+00  0.13562115036E+03  0.13562115036E+03  0.00000000000E+00 0. -1.
         21   -1    0    0  501  502  0.00000000000E+00 -0.00000000000E+00 -0.56070257675E+03  0.56070257675E+03  0.00000000000E+00 0. -1.
         25    1    1    2    0    0  0.27848657961E+02 -0.20558698219E+03 -0.42463659438E+03  0.48885866289E+03  0.12500000000E+03 0.  0.
         -4    1    1    2    0  502 -0.27848657961E+02  0.20558698219E+03 -0.44483201066E+00  0.20746506422E+03  0.00000000000E+00 0. -1.
<mgrwt>
<rscale>  3 0.24221180E+03</rscale>
<asrwt>0</asrwt>
<pdfrwt beam="1">  1       21 0.86261935E-01 0.24221180E+03</pdfrwt>
<pdfrwt beam="2">  1       -4 0.20864792E-01 0.24221180E+03</pdfrwt>
<totfact> 0.10153465E+03</totfact>
</mgrwt>
</event>
<event>
 4    0  0.1475865E-001  0.2552773E+03  0.7546771E-02  0.1110014E+00
          1   -1    0    0  502    0 -0.00000000000E+00  0.00000000000E+00  0.12042292375E+04  0.12042292375E+04  0.00000000000E+00 0. -1.
         21   -1    0    0  501  502  0.00000000000E+00 -0.00000000000E+00 -0.75155580687E+02  0.75155580687E+02  0.00000000000E+00 0. -1.
         25    1    1    2    0    0  0.22184549103E+03  0.18057179103E+02  0.20076750343E+03  0.32476772321E+03  0.12500000000E+03 0.  0.
          1    1    1    2  501    0 -0.22184549103E+03 -0.18057179103E+02  0.92830615337E+03  0.95461709496E+03  0.00000000000E+00 0. -1.
<mgrwt>
<rscale>  3 0.25527727E+03</rscale>
<asrwt>0</asrwt>
<pdfrwt beam="1">  1       21 0.11562398E-01 0.25527727E+03</pdfrwt>
<pdfrwt beam="2">  1        1 0.18526602E+00 0.25527727E+03</pdfrwt>
<totfact> 0.78984825E+03</totfact>
</mgrwt>
</event>
<event>
 4    0  0.1480246E-001  0.3055458E+03  0.7546771E-02  0.1082501E+00
          2   -1    0    0  502    0 -0.00000000000E+00  0.00000000000E+00  0.19268769139E+04  0.19268769139E+04  0.00000000000E+00 0. -1.
         21   -1    0    0  501  502  0.00000000000E+00 -0.00000000000E+00 -0.55558250489E+03  0.55558250489E+03  0.00000000000E+00 0. -1.
         25    1    1    2    0    0  0.21370255806E+03  0.17906557886E+03 -0.50246413613E+03  0.58807182635E+03  0.12500000000E+03 0.  0.
          2    1    1    2  501    0 -0.21370255806E+03 -0.17906557886E+03  0.18737585452E+04  0.18943875924E+04  0.00000000000E+00 0. -1.
<mgrwt>
<rscale>  3 0.30554585E+03</rscale>
<asrwt>0</asrwt>
<pdfrwt beam="1">  1       21 0.85474233E-01 0.30554585E+03</pdfrwt>
<pdfrwt beam="2">  1        2 0.29644260E+00 0.30554585E+03</pdfrwt>
<totfact> 0.11399871E+02</totfact>
</mgrwt>
</event>
<event>
 4    0  0.1437612E-001  0.2649924E+03  0.7546771E-02  0.1104180E+00
         21   -1    0    0  501  502  0.00000000000E+00  0.00000000000E+00  0.30855761306E+03  0.30855761306E+03  0.00000000000E+00 0.  1.
          2   -1    0    0  502    0 -0.00000000000E+00 -0.00000000000E+00 -0.23687496794E+04  0.23687496794E+04  0.00000000000E+00 0. -1.
         25    1    1    2    0    0 -0.59134615466E+02  0.22605098962E+03  0.24464594794E+03  0.36065578118E+03  0.12500000000E+03 0.  0.
          2    1    1    2  501    0  0.59134615466E+02 -0.22605098962E+03 -0.23048380143E+04  0.23166515113E+04  0.00000000000E+00 0. -1.
<mgrwt>
<rscale>  3 0.26499236E+03</rscale>
<asrwt>0</asrwt>
<pdfrwt beam="1">  1       21 0.47470403E-01 0.26499236E+03</pdfrwt>
<pdfrwt beam="2">  1        2 0.36442302E+00 0.26499236E+03</pdfrwt>
<totfact> 0.24736677E+02</totfact>
</mgrwt>
</event>
<event>
 4    0  0.1002184E-001  0.3509995E+03  0.7546771E-02  0.1062206E+00
          1   -1    0    0  502    0 -0.00000000000E+00  0.00000000000E+00  0.54190271664E+03  0.54190271664E+03  0.00000000000E+00 0. -1.
         21   -1    0    0  501  502  0.00000000000E+00 -0.00000000000E+00 -0.22684845282E+03  0.22684845282E+03  0.00000000000E+00 0.  1.
         25    1    1    2    0    0  0.30574539238E+03 -0.11872417830E+03  0.66547537588E+02  0.35725236211E+03  0.12500000000E+03 0.  0.
          1    1    1    2  501    0 -0.30574539238E+03  0.11872417830E+03  0.24850672623E+03  0.41149880736E+03  0.00000000000E+00 0. -1.
<mgrwt>
<rscale>  3 0.35099954E+03</rscale>
<asrwt>0</asrwt>
<pdfrwt beam="1">  1       21 0.34899762E-01 0.35099954E+03</pdfrwt>
<pdfrwt beam="2">  1        1 0.83369648E-01 0.35099954E+03</pdfrwt>
<totfact> 0.33937065E+03</totfact>
</mgrwt>
</event>
<event>
 4    0  0.1603602E-001  0.3334280E+03  0.7546771E-02  0.1069630E+00
          2   -1    0    0  502    0 -0.00000000000E+00  0.00000000000E+00  0.14275999383E+04  0.14275999383E+04  0.00000000000E+00 0. -1.
         21   -1    0    0  501  502  0.00000000000E+00 -0.00000000000E+00 -0.29524136787E+03  0.29524136787E+03  0.00000000000E+00 0. -1.
         25    1    1    2    0    0  0.17640704681E+03 -0.25383020151E+03 -0.17699612263E+03  0.37749416524E+03  0.12500000000E+03 0.  0.
          2    1    1    2  501    0 -0.17640704681E+03  0.25383020151E+03  0.13093546931E+04  0.13453471410E+04  0.00000000000E+00 0. -1.
<mgrwt>
<rscale>  3 0.33342798E+03</rscale>
<asrwt>0</asrwt>
<pdfrwt beam="1">  1       21 0.45421750E-01 0.33342798E+03</pdfrwt>
<pdfrwt beam="2">  1        2 0.21963076E+00 0.33342798E+03</pdfrwt>
<totfact> 0.83007264E+02</totfact>
</mgrwt>
</event>
<event>
 4    0  0.1349911E-001  0.2729597E+03  0.7546771E-02  0.1099598E+00
          2   -1    0    0  502    0 -0.00000000000E+00  0.00000000000E+00  0.73575156216E+03  0.73575156216E+03  0.00000000000E+00 0. -1.
         21   -1    0    0  501  502  0.00000000000E+00 -0.00000000000E+00 -0.17039204693E+03  0.17039204693E+03  0.00000000000E+00 0.  1.
         25    1    1    2    0    0 -0.57690351559E+02  0.23569855061E+03 -0.18783339327E+02  0.27360518500E+03  0.12500000000E+03 0.  0.
          2    1    1    2  501    0  0.57690351559E+02 -0.23569855061E+03  0.58414285455E+03  0.63253842409E+03  0.00000000000E+00 0. -1.
<mgrwt>
<rscale>  3 0.27295967E+03</rscale>
<asrwt>0</asrwt>
<pdfrwt beam="1">  1       21 0.26214161E-01 0.27295967E+03</pdfrwt>
<pdfrwt beam="2">  1        2 0.11319255E+00 0.27295967E+03</pdfrwt>
<totfact> 0.67324053E+03</totfact>
</mgrwt>
</event>
<event>
 4    0  0.1002184E-001  0.2645833E+03  0.7546771E-02  0.1104420E+00
         21   -1    0    0  501  502  0.00000000000E+00  0.00000000000E+00  0.11265718057E+03  0.11265718057E+03  0.00000000000E+00 0.  1.
          2   -1    0    0  502    0 -0.00000000000E+00 -0.00000000000E+00 -0.71638219585E+03  0.71638219585E+03  0.00000000000E+00 0. -1.
         25    1    1    2    0    0  0.21700319834E+03  0.85375241741E+02 -0.11692511628E+03  0.28926770094E+03  0.12500000000E+03 0.  0.
          2    1    1    2  501    0 -0.21700319834E+03 -0.85375241741E+02 -0.48679989900E+03  0.53977167548E+03  0.00000000000E+00 0. -1.
<mgrwt>
<rscale>  3 0.26458329E+03</rscale>
<asrwt>0</asrwt>
<pdfrwt beam="1">  1       21 0.17331874E-01 0.26458329E+03</pdfrwt>
<pdfrwt beam="2">  1        2 0.11021264E+00 0.26458329E+03</pdfrwt>
<totfact> 0.15262337E+04</totfact>
</mgrwt>
</event>
<event>
 4    0  0.1472037E-001  0.3145013E+03  0.7546771E-02  0.1078208E+00
          2   -1    0    0  502    0 -0.00000000000E+00  0.00000000000E+00  0.52525056035E+03  0.52525056035E+03  0.00000000000E+00 0. -1.
         21   -1    0    0  501  502  0.00000000000E+00 -0.00000000000E+00 -0.33441624794E+03  0.33441624794E+03  0.00000000000E+00 0. -1.
         25    1    1    2    0    0 -0.20863466196E+03  0.19939326255E+03 -0.20083600199E+03  0.37315706481E+03  0.12500000000E+03 0.  0.
          2    1    1    2  501    0  0.20863466196E+03 -0.19939326255E+03  0.39167031440E+03  0.48650974349E+03  0.00000000000E+00 0. -1.
<mgrwt>
<rscale>  3 0.31450134E+03</rscale>
<asrwt>0</asrwt>
<pdfrwt beam="1">  1       21 0.51448653E-01 0.31450134E+03</pdfrwt>
<pdfrwt beam="2">  1        2 0.80807779E-01 0.31450134E+03</pdfrwt>
<totfact> 0.25422989E+03</totfact>
</mgrwt>
</event>
<event>
 4    0  0.1117086E-001  0.3983815E+03  0.7546771E-02  0.1044342E+00
          2   -1    0    0  502    0 -0.00000000000E+00  0.00000000000E+00  0.37142766548E+03  0.37142766548E+03  0.00000000000E+00 0. -1.
         21   -1    0    0  501  502  0.00000000000E+00 -0.00000000000E+00 -0.91524049592E+03  0.91524049592E+03  0.00000000000E+00 0.  1.
         25    1    1    2    0    0 -0.14875490129E+03 -0.34778551467E+03 -0.75484396171E+03  0.85352046923E+03  0.12500000000E+03 0.  0.
          2    1    1    2  501    0  0.14875490129E+03  0.34778551467E+03  0.21103113126E+03  0.43314769217E+03  0.00000000000E+00 0. -1.
<mgrwt>
<rscale>  3 0.39838146E+03</rscale>
<asrwt>0</asrwt>
<pdfrwt beam="1">  1       21 0.14080623E+00 0.39838146E+03</pdfrwt>
<pdfrwt beam="2">  1        2 0.57142718E-01 0.39838146E+03</pdfrwt>
<totfact> 0.34430232E+02</totfact>
</mgrwt>
</event>
<event>
 4    0  0.1142624E-001  0.2490362E+03  0.7546771E-02  0.1113915E+00
         21   -1    0    0  501  502  0.00000000000E+00  0.00000000000E+00  0.14961230903E+04  0.14961230903E+04  0.00000000000E+00 0.  1.
         -2   -1    0    0    0  501 -0.00000000000E+00 -0.00000000000E+00 -0.31371445050E+03  0.31371445050E+03  0.00000000000E+00 0.  1.
         25    1    1    2    0    0 -0.20430343880E+03 -0.68221240986E+02  0.14472188498E+04  0.14684895070E+04  0.12500000000E+03 0.  0.
         -2    1    1    2    0  502  0.20430343880E+03  0.68221240986E+02 -0.26481021004E+03  0.34134803379E+03  0.00000000000E+00 0.  1.
<mgrwt>
<rscale>  3 0.24903621E+03</rscale>
<asrwt>0</asrwt>
<pdfrwt beam="1">  1       21 0.23017278E+00 0.24903621E+03</pdfrwt>
<pdfrwt beam="2">  1       -2 0.48263763E-01 0.24903621E+03</pdfrwt>
<totfact> 0.27698906E+01</totfact>
</mgrwt>
</event>
<event>
 4    0  0.1118183E-001  0.2402412E+03  0.7546771E-02  0.1119632E+00
         21   -1    0    0  501  502  0.00000000000E+00  0.00000000000E+00  0.39620431955E+02  0.39620431955E+02  0.00000000000E+00 0.  1.
          2   -1    0    0  502    0 -0.00000000000E+00 -0.00000000000E+00 -0.26334222157E+04  0.26334222157E+04  0.00000000000E+00 0. -1.
         25    1    1    2    0    0  0.19694399672E+03  0.57479457361E+02 -0.37879505520E+03  0.44855492385E+03  0.12500000000E+03 0.  0.
          2    1    1    2  501    0 -0.19694399672E+03 -0.57479457361E+02 -0.22150067285E+04  0.22244877238E+04  0.00000000000E+00 0. -1.
<mgrwt>
<rscale>  3 0.24024118E+03</rscale>
<asrwt>0</asrwt>
<pdfrwt beam="1">  1       21 0.60954513E-02 0.24024118E+03</pdfrwt>
<pdfrwt beam="2">  1        2 0.40514186E+00 0.24024118E+03</pdfrwt>
<totfact> 0.83220928E+03</totfact>
</mgrwt>
</event>
<event>
 4    0  0.1548231E-001  0.2797692E+03  0.7546771E-02  0.1095815E+00
         21   -1    0    0  501  502  0.00000000000E+00  0.00000000000E+00  0.14519862326E+03  0.14519862326E+03  0.00000000000E+00 0. -1.
          1   -1    0    0  502    0 -0.00000000000E+00 -0.00000000000E+00 -0.56912408034E+03  0.56912408034E+03  0.00000000000E+00 0. -1.
         25    1    1    2    0    0 -0.16737990865E+03 -0.18609081695E+03 -0.83838846151E+02  0.29206125744E+03  0.12500000000E+03 0.  0.
          1    1    1    2  501    0  0.16737990865E+03  0.18609081695E+03 -0.34008661093E+03  0.42226144615E+03  0.00000000000E+00 0. -1.
<mgrwt>
<rscale>  3 0.27976924E+03</rscale>
<asrwt>0</asrwt>
<pdfrwt beam="1">  1       21 0.22338250E-01 0.27976924E+03</pdfrwt>
<pdfrwt beam="2">  1        1 0.87557552E-01 0.27976924E+03</pdfrwt>
<totfact> 0.77078835E+03</totfact>
</mgrwt>
</event>
<event>
 4    0  0.1002184E-001  0.2365220E+03  0.7546771E-02  0.1122132E+00
          2   -1    0    0  502    0 -0.00000000000E+00  0.00000000000E+00  0.19327062203E+04  0.19327062203E+04  0.00000000000E+00 0.  1.
         21   -1    0    0  501  502  0.00000000000E+00 -0.00000000000E+00 -0.23329225506E+03  0.23329225506E+03  0.00000000000E+00 0. -1.
         25    1    1    2    0    0 -0.10341117041E+03  0.17211568400E+03 -0.16654010870E+03  0.28927199424E+03  0.12500000000E+03 0.  0.
          2    1    1    2  501    0  0.10341117041E+03 -0.17211568400E+03  0.18659540739E+04  0.18767264811E+04  0.00000000000E+00 0.  1.
<mgrwt>
<rscale>  3 0.23652205E+03</rscale>
<asrwt>0</asrwt>
<pdfrwt beam="1">  1       21 0.35891117E-01 0.23652205E+03</pdfrwt>
<pdfrwt beam="2">  1        2 0.29733941E+00 0.23652205E+03</pdfrwt>
<totfact> 0.75889916E+02</totfact>
</mgrwt>
</event>
<event>
 4    0  0.1392224E-001  0.2754501E+03  0.7546771E-02  0.1098200E+00
          2   -1    0    0  502    0 -0.00000000000E+00  0.00000000000E+00  0.18875004192E+04  0.18875004192E+04  0.00000000000E+00 0.  1.
         21   -1    0    0  501  502  0.00000000000E+00 -0.00000000000E+00 -0.88924888873E+02  0.88924888873E+02  0.00000000000E+00 0.  1.
         25    1    1    2    0    0  0.74626602303E+02 -0.23383458388E+03  0.16825181747E+04  0.17049164644E+04  0.12500000000E+03 0.  0.
          2    1    1    2  501    0 -0.74626602303E+02  0.23383458388E+03  0.11605735561E+03  0.27150884365E+03  0.00000000000E+00 0.  1.
<mgrwt>
<rscale>  3 0.27545007E+03</rscale>
<asrwt>0</asrwt>
<pdfrwt beam="1">  1       21 0.13680754E-01 0.27545007E+03</pdfrwt>
<pdfrwt beam="2">  1        2 0.29038465E+00 0.27545007E+03</pdfrwt>
<totfact> 0.49321552E+03</totfact>
</mgrwt>
</event>
<event>
 4    0  0.1234395E-001  0.2555544E+03  0.7546771E-02  0.1109844E+00
          2   -1    0    0  502    0 -0.00000000000E+00  0.00000000000E+00  0.27633826129E+04  0.27633826129E+04  0.00000000000E+00 0. -1.
         21   -1    0    0  501  502  0.00000000000E+00 -0.00000000000E+00 -0.11618794410E+03  0.11618794410E+03  0.00000000000E+00 0. -1.
         25    1    1    2    0    0 -0.19018985756E+01 -0.22288886925E+03  0.35065931306E+02  0.25794899649E+03  0.12500000000E+03 0.  0.
          2    1    1    2  501    0  0.19018985756E+01  0.22288886925E+03  0.26121287375E+04  0.26216215605E+04  0.00000000000E+00 0. -1.
<mgrwt>
<rscale>  3 0.25555443E+03</rscale>
<asrwt>0</asrwt>
<pdfrwt beam="1">  1       21 0.17875070E-01 0.25555443E+03</pdfrwt>
<pdfrwt beam="2">  1        2 0.42513574E+00 0.25555443E+03</pdfrwt>
<totfact> 0.10231339E+03</totfact>
</mgrwt>
</event>
<event>
 4    0  0.1388148E-001  0.3633384E+03  0.7546771E-02  0.1057270E+00
          1   -1    0    0  502    0 -0.00000000000E+00  0.00000000000E+00  0.22919558257E+04  0.22919558257E+04  0.00000000000E+00 0.  1.
         21   -1    0    0  501  502  0.00000000000E+00 -0.00000000000E+00 -0.64333127199E+02  0.64333127199E+02  0.00000000000E+00 0.  1.
         25    1    1    2    0    0  0.32528224776E+03  0.10286536719E+03  0.67448364124E+03  0.76612205736E+03  0.12500000000E+03 0.  0.
          1    1    1    2  501    0 -0.32528224776E+03 -0.10286536719E+03  0.15531390572E+04  0.15901668955E+04  0.00000000000E+00 0.  1.
<mgrwt>
<rscale>  3 0.36333844E+03</rscale>
<asrwt>0</asrwt>
<pdfrwt beam="1">  1       21 0.98974059E-02 0.36333844E+03</pdfrwt>
<pdfrwt beam="2">  1        1 0.35260853E+00 0.36333844E+03</pdfrwt>
<totfact> 0.19209679E+03</totfact>
</mgrwt>
</event>
<event>
 4    0  0.1115637E-001  0.2450878E+03  0.7546771E-02  0.1116449E+00
          3   -1    0    0  502    0 -0.00000000000E+00  0.00000000000E+00  0.31545605005E+03  0.31545605005E+03  0.00000000000E+00 0.  1.
         21   -1    0    0  501  502  0.00000000000E+00 -0.00000000000E+00 -0.53236538482E+03  0.53236538482E+03  0.00000000000E+00 0.  1.
         25    1    1    2    0    0 -0.23026428897E+02 -0.20955381102E+03 -0.46294609995E+03  0.52381972815E+03  0.12500000000E+03 0.  0.
          3    1    1    2  501    0  0.23026428897E+02  0.20955381102E+03  0.24603676517E+03  0.32400170672E+03  0.00000000000E+00 0.  1.
<mgrwt>
<rscale>  3 0.24508777E+03</rscale>
<asrwt>0</asrwt>
<pdfrwt beam="1">  1       21 0.81902367E-01 0.24508777E+03</pdfrwt>
<pdfrwt beam="2">  1        3 0.48531700E-01 0.24508777E+03</pdfrwt>
<totfact> 0.26937033E+02</totfact>
</mgrwt>
</event>
<event>
 4    0  0.1329784E-001  0.2370045E+03  0.7546771E-02  0.1121805E+00
          2   -1    0    0  502    0 -0.00000000000E+00  0.00000000000E+00  0.38844300390E+03  0.38844300390E+03  0.00000000000E+00 0. -1.
         21   -1    0    0  501  502  0.00000000000E+00 -0.00000000000E+00 -0.15783523909E+03  0.15783523909E+03  0.00000000000E+00 0. -1.
         25    1    1    2    0    0  0.16389203569E+03 -0.11698527218E+03 -0.40883367142E+01  0.23703980207E+03  0.12500000000E+03 0.  0.
          2    1    1    2  501    0 -0.16389203569E+03  0.11698527218E+03  0.23469610152E+03  0.30923844091E+03  0.00000000000E+00 0. -1.
<mgrwt>
<rscale>  3 0.23700454E+03</rscale>
<asrwt>0</asrwt>
<pdfrwt beam="1">  1       21 0.24282345E-01 0.23700454E+03</pdfrwt>
<pdfrwt beam="2">  1        2 0.59760462E-01 0.23700454E+03</pdfrwt>
<totfact> 0.16329690E+04</totfact>
</mgrwt>
</event>
<event>
 4    0  0.1325426E-001  0.2488401E+03  0.7546771E-02  0.1114040E+00
         21   -1    0    0  501  502  0.00000000000E+00  0.00000000000E+00  0.17833220841E+03  0.17833220841E+03  0.00000000000E+00 0. -1.
          1   -1    0    0  502    0 -0.00000000000E+00 -0.00000000000E+00 -0.30564899975E+03  0.30564899975E+03  0.00000000000E+00 0. -1.
         25    1    1    2    0    0  0.81496417287E+02  0.19913491267E+03 -0.95211938321E+02  0.26643327997E+03  0.12500000000E+03 0.  0.
          1    1    1    2  501    0 -0.81496417287E+02 -0.19913491267E+03 -0.32104853019E+02  0.21754792820E+03  0.00000000000E+00 0. -1.
<mgrwt>
<rscale>  3 0.24884007E+03</rscale>
<asrwt>0</asrwt>
<pdfrwt beam="1">  1       21 0.27435725E-01 0.24884007E+03</pdfrwt>
<pdfrwt beam="2">  1        1 0.47022923E-01 0.24884007E+03</pdfrwt>
<totfact> 0.11738970E+04</totfact>
</mgrwt>
</event>
<event>
 4    0  0.1002184E-001  0.2847780E+03  0.7546771E-02  0.1093108E+00
         21   -1    0    0  501  502  0.00000000000E+00  0.00000000000E+00  0.53597850874E+03  0.53597850874E+03  0.00000000000E+00 0.  1.
          4   -1    0    0  502    0 -0.00000000000E+00 -0.00000000000E+00 -0.13674813400E+03  0.13674813400E+03  0.00000000000E+00 0. -1.
         25    1    1    2    0    0 -0.17131798983E+03 -0.19006223125E+03  0.22852401252E+03  0.36513248238E+03  0.12500000000E+03 0.  0.
          4    1    1    2  501    0  0.17131798983E+03  0.19006223125E+03  0.17070636221E+03  0.30759416036E+03  0.00000000000E+00 0. -1.
<mgrwt>
<rscale>  3 0.28477799E+03</rscale>
<asrwt>0</asrwt>
<pdfrwt beam="1">  1       21 0.82458231E-01 0.28477799E+03</pdfrwt>
<pdfrwt beam="2">  1        4 0.21038175E-01 0.28477799E+03</pdfrwt>
<totfact> 0.11070622E+03</totfact>
</mgrwt>
</event>
<event>
 4    0  0.1837178E-001  0.2884830E+03  0.7546771E-02  0.1091144E+00
         21   -1    0    0  501  502  0.00000000000E+00  0.00000000000E+00  0.40958907777E+03  0.40958907777E+03  0.00000000000E+00 0. -1.
          1   -1    0    0  502    0 -0.00000000000E+00 -0.00000000000E+00 -0.18967576994E+04  0.18967576994E+04  0.00000000000E+00 0.  1.
         25    1    1    2    0    0  0.13347078050E+03  0.22312106404E+03  0.34847016251E+03  0.45238690589E+03  0.12500000000E+03 0.  0.
          1    1    1    2  501    0 -0.13347078050E+03 -0.22312106404E+03 -0.18356387841E+04  0.18539598713E+04  0.00000000000E+00 0.  1.
<mgrwt>
<rscale>  3 0.28848303E+03</rscale>
<asrwt>0</asrwt>
<pdfrwt beam="1">  1       21 0.63013703E-01 0.28848303E+03</pdfrwt>
<pdfrwt beam="2">  1        1 0.29180888E+00 0.28848303E+03</pdfrwt>
<totfact> 0.97436440E+01</totfact>
</mgrwt>
</event>
<event>
 4    0  0.1002184E-001  0.2541360E+03  0.7546771E-02  0.1110719E+00
         21   -1    0    0  501  502  0.00000000000E+00  0.00000000000E+00  0.40228016976E+02  0.40228016976E+02  0.00000000000E+00 0.  1.
          2   -1    0    0  502    0 -0.00000000000E+00 -0.00000000000E+00 -0.15046508871E+04  0.15046508871E+04  0.00000000000E+00 0. -1.
         25    1    1    2    0    0 -0.18511610999E+01  0.22126157571E+03 -0.58068202588E+03  0.63385860163E+03  0.12500000000E+03 0.  0.
          2    1    1    2  501    0  0.18511610999E+01 -0.22126157571E+03 -0.88374084428E+03  0.91102030248E+03  0.00000000000E+00 0. -1.
<mgrwt>
<rscale>  3 0.25413601E+03</rscale>
<asrwt>0</asrwt>
<pdfrwt beam="1">  1       21 0.61889253E-02 0.25413601E+03</pdfrwt>
<pdfrwt beam="2">  1        2 0.23148477E+00 0.25413601E+03</pdfrwt>
<totfact> 0.32196016E+04</totfact>
</mgrwt>
</event>
<event>
 4    0  0.1263449E-001  0.2732482E+03  0.7546771E-02  0.1099435E+00
         21   -1    0    0  501  502  0.00000000000E+00  0.00000000000E+00  0.40950843677E+03  0.40950843677E+03  0.00000000000E+00 0.  1.
          3   -1    0    0  502    0 -0.00000000000E+00 -0.00000000000E+00 -0.47832017182E+03  0.47832017182E+03  0.00000000000E+00 0. -1.
         25    1    1    2    0    0  0.21483749092E+03 -0.11350966078E+03  0.32529969051E+03  0.42483464929E+03  0.12500000000E+03 0.  0.
          3    1    1    2  501    0 -0.21483749092E+03  0.11350966078E+03 -0.39411142555E+03  0.46299395930E+03  0.00000000000E+00 0. -1.
<mgrwt>
<rscale>  3 0.27324822E+03</rscale>
<asrwt>0</asrwt>
<pdfrwt beam="1">  1       21 0.63001298E-01 0.27324822E+03</pdfrwt>
<pdfrwt beam="2">  1        3 0.73587719E-01 0.27324822E+03</pdfrwt>
<totfact> 0.20187782E+02</totfact>
</mgrwt>
</event>
<event>
 4    0  0.1002184E-001  0.4210206E+03  0.7546771E-02  0.1036735E+00
         21   -1    0    0  501  502  0.00000000000E+00  0.00000000000E+00  0.19082330737E+04  0.19082330737E+04  0.00000000000E+00 0.  1.
          2   -1    0    0  502    0 -0.00000000000E+00 -0.00000000000E+00 -0.10378193173E+03  0.10378193173E+03  0.00000000000E+00 0. -1.
         25    1    1    2    0    0 -0.17368207121E+03  0.36258505973E+03  0.13028005930E+04  0.13691412537E+04  0.12500000000E+03 0.  0.
          2    1    1    2  501    0  0.17368207121E+03 -0.36258505973E+03  0.50165054895E+03  0.64287375172E+03  0.00000000000E+00 0. -1.
<mgrwt>
<rscale>  3 0.42102065E+03</rscale>
<asrwt>0</asrwt>
<pdfrwt beam="1">  1       21 0.29357429E+00 0.42102065E+03</pdfrwt>
<pdfrwt beam="2">  1        2 0.15966452E-01 0.42102065E+03</pdfrwt>
<totfact> 0.13972218E+02</totfact>
</mgrwt>
</event>
<event>
 4    0  0.1081410E-001  0.4287945E+03  0.7546771E-02  0.1034241E+00
         21   -1    0    0  501  502  0.00000000000E+00  0.00000000000E+00  0.26176688688E+03  0.26176688688E+03  0.00000000000E+00 0. -1.
         -3   -1    0    0    0  501 -0.00000000000E+00 -0.00000000000E+00 -0.13151253514E+04  0.13151253514E+04  0.00000000000E+00 0.  1.
         25    1    1    2    0    0 -0.40517922757E+03 -0.63792607947E+02  0.18541202402E+02  0.42919515313E+03  0.12500000000E+03 0.  0.
         -3    1    1    2    0  502  0.40517922757E+03  0.63792607947E+02 -0.10718996669E+04  0.11476970851E+04  0.00000000000E+00 0.  1.
<mgrwt>
<rscale>  3 0.42879448E+03</rscale>
<asrwt>0</asrwt>
<pdfrwt beam="1">  1       21 0.40271829E-01 0.42879448E+03</pdfrwt>
<pdfrwt beam="2">  1       -3 0.20232698E+00 0.42879448E+03</pdfrwt>
<totfact> 0.42158705E+01</totfact>
</mgrwt>
</event>
<event>
 4    0  0.1002184E-001  0.2547814E+03  0.7546771E-02  0.1110320E+00
          3   -1    0    0  502    0 -0.00000000000E+00  0.00000000000E+00  0.99208862468E+02  0.99208862468E+02  0.00000000000E+00 0. -1.
         21   -1    0    0  501  502  0.00000000000E+00 -0.00000000000E+00 -0.84987691532E+03  0.84987691532E+03  0.00000000000E+00 0.  1.
         25    1    1    2    0    0  0.55968428848E+02  0.21483968051E+03 -0.66321823945E+03  0.71047307232E+03  0.12500000000E+03 0.  0.
          3    1    1    2  501    0 -0.55968428848E+02 -0.21483968051E+03 -0.87449813408E+02  0.23861270548E+03  0.00000000000E+00 0. -1.
<mgrwt>
<rscale>  3 0.25478138E+03</rscale>
<asrwt>0</asrwt>
<pdfrwt beam="1">  1       21 0.13075029E+00 0.25478138E+03</pdfrwt>
<pdfrwt beam="2">  1        3 0.15262902E-01 0.25478138E+03</pdfrwt>
<totfact> 0.74560910E+02</totfact>
</mgrwt>
</event>
<event>
 4    0  0.1410037E-001  0.2658300E+03  0.7546771E-02  0.1103690E+00
         -1   -1    0    0    0  501 -0.00000000000E+00  0.00000000000E+00  0.20848081541E+03  0.20848081541E+03  0.00000000000E+00 0.  1.
         21   -1    0    0  501  502  0.00000000000E+00 -0.00000000000E+00 -0.64188500829E+03  0.64188500829E+03  0.00000000000E+00 0.  1.
         25    1    1    2    0    0  0.17896099609E+03  0.15170221964E+03 -0.53290715956E+03  0.59552971570E+03  0.12500000000E+03 0.  0.
         -1    1    1    2    0  502 -0.17896099609E+03 -0.15170221964E+03  0.99502966683E+02  0.25483610801E+03  0.00000000000E+00 0.  1.
<mgrwt>
<rscale>  3 0.26583002E+03</rscale>
<asrwt>0</asrwt>
<pdfrwt beam="1">  1       21 0.98751539E-01 0.26583002E+03</pdfrwt>
<pdfrwt beam="2">  1       -1 0.32073972E-01 0.26583002E+03</pdfrwt>
<totfact> 0.68365610E+02</totfact>
</mgrwt>
</event>
<event>
 4    0  0.1190699E-001  0.2545239E+03  0.7546771E-02  0.1110479E+00
          2   -1    0    0  502    0 -0.00000000000E+00  0.00000000000E+00  0.75184802179E+03  0.75184802179E+03  0.00000000000E+00 0. -1.
         21   -1    0    0  501  502  0.00000000000E+00 -0.00000000000E+00 -0.13313052582E+03  0.13313052582E+03  0.00000000000E+00 0.  1.
         25    1    1    2    0    0  0.10630433144E+02  0.22145968999E+03  0.30477427092E+02  0.25634210337E+03  0.12500000000E+03 0.  0.
          2    1    1    2  501    0 -0.10630433144E+02 -0.22145968999E+03  0.58824006888E+03  0.62863644424E+03  0.00000000000E+00 0. -1.
<mgrwt>
<rscale>  3 0.25452387E+03</rscale>
<asrwt>0</asrwt>
<pdfrwt beam="1">  1       21 0.20481620E-01 0.25452387E+03</pdfrwt>
<pdfrwt beam="2">  1        2 0.11566892E+00 0.25452387E+03</pdfrwt>
<totfact> 0.10541607E+04</totfact>
</mgrwt>
</event>
<event>
 4    0  0.1002184E-001  0.2865747E+03  0.7546771E-02  0.1092151E+00
         21   -1    0    0  501  502  0.00000000000E+00  0.00000000000E+00  0.16416810994E+02  0.16416810994E+02  0.00000000000E+00 0.  1.
          2   -1    0    0  502    0 -0.00000000000E+00 -0.00000000000E+00 -0.46078561404E+04  0.46078561404E+04  0.00000000000E+00 0. -1.
         25    1    1    2    0    0 -0.18728080087E+03  0.17727364156E+03 -0.20848538270E+04  0.21044572988E+04  0.12500000000E+03 0.  0.
          2    1    1    2  501    0  0.18728080087E+03 -0.17727364156E+03 -0.25065855024E+04  0.25198156526E+04  0.00000000000E+00 0. -1.
<mgrwt>
<rscale>  3 0.28657467E+03</rscale>
<asrwt>0</asrwt>
<pdfrwt beam="1">  1       21 0.25256647E-02 0.28657467E+03</pdfrwt>
<pdfrwt beam="2">  1        2 0.70890054E+00 0.28657467E+03</pdfrwt>
<totfact> 0.14297113E+03</totfact>
</mgrwt>
</event>
<event>
 4    0  0.1386902E-001  0.2616174E+03  0.7546771E-02  0.1106175E+00
         21   -1    0    0  501  502  0.00000000000E+00  0.00000000000E+00  0.34455762706E+03  0.34455762706E+03  0.00000000000E+00 0. -1.
          2   -1    0    0  502    0 -0.00000000000E+00 -0.00000000000E+00 -0.17776805833E+03  0.17776805833E+03  0.00000000000E+00 0. -1.
         25    1    1    2    0    0 -0.16079642595E+03  0.16420459881E+03  0.11982627125E+03  0.28775332517E+03  0.12500000000E+03 0.  0.
          2    1    1    2  501    0  0.16079642595E+03 -0.16420459881E+03  0.46963297470E+02  0.23457236021E+03  0.00000000000E+00 0. -1.
<mgrwt>
<rscale>  3 0.26161736E+03</rscale>
<asrwt>0</asrwt>
<pdfrwt beam="1">  1       21 0.53008866E-01 0.26161736E+03</pdfrwt>
<pdfrwt beam="2">  1        2 0.27348932E-01 0.26161736E+03</pdfrwt>
<totfact> 0.79396091E+03</totfact>
</mgrwt>
</event>
<event>
 4    0  0.1577040E-001  0.3021680E+03  0.7546771E-02  0.1084162E+00
          2   -1    0    0  502    0 -0.00000000000E+00  0.00000000000E+00  0.10082892640E+04  0.10082892640E+04  0.00000000000E+00 0.  1.
         21   -1    0    0  501  502  0.00000000000E+00 -0.00000000000E+00 -0.62615261085E+03  0.62615261085E+03  0.00000000000E+00 0.  1.
         25    1    1    2    0    0  0.14605923558E+03  0.23312491680E+03 -0.56903436530E+03  0.64428692057E+03  0.12500000000E+03 0.  0.
          2    1    1    2  501    0 -0.14605923558E+03 -0.23312491680E+03  0.95117101845E+03  0.99015495427E+03  0.00000000000E+00 0.  1.
<mgrwt>
<rscale>  3 0.30216804E+03</rscale>
<asrwt>0</asrwt>
<pdfrwt beam="1">  1       21 0.96331171E-01 0.30216804E+03</pdfrwt>
<pdfrwt beam="2">  1        2 0.15512142E+00 0.30216804E+03</pdfrwt>
<totfact> 0.27653946E+02</totfact>
</mgrwt>
</event>
<event>
 4    0  0.1002184E-001  0.2551721E+03  0.7546771E-02  0.1110079E+00
         -3   -1    0    0    0  501 -0.00000000000E+00  0.00000000000E+00  0.96984727491E+03  0.96984727491E+03  0.00000000000E+00 0.  1.
         21   -1    0    0  501  502  0.00000000000E+00 -0.00000000000E+00 -0.10006070816E+03  0.10006070816E+03  0.00000000000E+00 0. -1.
         25    1    1    2    0    0  0.17028395953E+03 -0.14314737899E+03  0.10937652178E+03  0.27762568775E+03  0.12500000000E+03 0.  0.
         -3    1    1    2    0  502 -0.17028395953E+03  0.14314737899E+03  0.76041004497E+03  0.79228229532E+03  0.00000000000E+00 0.  1.
<mgrwt>
<rscale>  3 0.25517210E+03</rscale>
<asrwt>0</asrwt>
<pdfrwt beam="1">  1       21 0.15393956E-01 0.25517210E+03</pdfrwt>
<pdfrwt beam="2">  1       -3 0.14920727E+00 0.25517210E+03</pdfrwt>
<totfact> 0.63728189E+02</totfact>
</mgrwt>
</event>
<event>
 4    0  0.1002184E-001  0.2522375E+03  0.7546771E-02  0.1111899E+00
          2   -1    0    0  502    0 -0.00000000000E+00  0.00000000000E+00  0.11704876270E+03  0.11704876270E+03  0.00000000000E+00 0.  1.
         21   -1    0    0  501  502  0.00000000000E+00 -0.00000000000E+00 -0.48986810555E+03  0.48986810555E+03  0.00000000000E+00 0. -1.
         25    1    1    2    0    0  0.10823819926E+03  0.19048168390E+03 -0.25277538663E+03  0.35709827186E+03  0.12500000000E+03 0.  0.
          2    1    1    2  501    0 -0.10823819926E+03 -0.19048168390E+03 -0.12004395623E+03  0.24981859639E+03  0.00000000000E+00 0.  1.
<mgrwt>
<rscale>  3 0.25223755E+03</rscale>
<asrwt>0</asrwt>
<pdfrwt beam="1">  1       21 0.75364324E-01 0.25223755E+03</pdfrwt>
<pdfrwt beam="2">  1        2 0.18007502E-01 0.25223755E+03</pdfrwt>
<totfact> 0.59368110E+03</totfact>
</mgrwt>
</event>
<event>
 4    0  0.1002184E-001  0.2683742E+03  0.7546771E-02  0.1102214E+00
         -2   -1    0    0    0  501 -0.00000000000E+00  0.00000000000E+00  0.28420999659E+03  0.28420999659E+03  0.00000000000E+00 0.  1.
         21   -1    0    0  501  502  0.00000000000E+00 -0.00000000000E+00 -0.92972339062E+03  0.92972339062E+03  0.00000000000E+00 0. -1.
         25    1    1    2    0    0 -0.12430627162E+03  0.20235535098E+03 -0.85569659130E+03  0.89679506778E+03  0.12500000000E+03 0.  0.
         -2    1    1    2    0  502  0.12430627162E+03 -0.20235535098E+03  0.21018319727E+03  0.31713831943E+03  0.00000000000E+00 0.  1.
<mgrwt>
<rscale>  3 0.26837425E+03</rscale>
<asrwt>0</asrwt>
<pdfrwt beam="1">  1       21 0.14303437E+00 0.26837425E+03</pdfrwt>
<pdfrwt beam="2">  1       -2 0.43724614E-01 0.26837425E+03</pdfrwt>
<totfact> 0.13124482E+02</totfact>
</mgrwt>
</event>
<event>
 4    0  0.1002184E-001  0.2659188E+03  0.7546771E-02  0.1103638E+00
         -1   -1    0    0    0  501 -0.00000000000E+00  0.00000000000E+00  0.52710838757E+03  0.52710838757E+03  0.00000000000E+00 0. -1.
         21   -1    0    0  501  502  0.00000000000E+00 -0.00000000000E+00 -0.20562821832E+03  0.20562821832E+03  0.00000000000E+00 0.  1.
         25    1    1    2    0    0 -0.23463064776E+03  0.60229689709E+01 -0.71176252649E+02  0.27527963231E+03  0.12500000000E+03 0.  0.
         -1    1    1    2    0  502  0.23463064776E+03 -0.60229689709E+01  0.39265642190E+03  0.45745697358E+03  0.00000000000E+00 0. -1.
<mgrwt>
<rscale>  3 0.26591882E+03</rscale>
<asrwt>0</asrwt>
<pdfrwt beam="1">  1       21 0.31635111E-01 0.26591882E+03</pdfrwt>
<pdfrwt beam="2">  1       -1 0.81093598E-01 0.26591882E+03</pdfrwt>
<totfact> 0.13901063E+03</totfact>
</mgrwt>
</event>
<event>
 4    0  0.1482774E-001  0.2844961E+03  0.7546771E-02  0.1093258E+00
         21   -1    0    0  501  502  0.00000000000E+00  0.00000000000E+00  0.14627394830E+03  0.14627394830E+03  0.00000000000E+00 0. -1.
          2   -1    0    0  502    0 -0.00000000000E+00 -0.00000000000E+00 -0.54721343474E+03  0.54721343474E+03  0.00000000000E+00 0. -1.
         25    1    1    2    0    0 -0.44170462134E+02 -0.25171814098E+03 -0.10692338208E+03  0.30392542155E+03  0.12500000000E+03 0.  0.
          2    1    1    2  501    0  0.44170462134E+02  0.25171814098E+03 -0.29401610436E+03  0.38956196150E+03  0.00000000000E+00 0. -1.
<mgrwt>
<rscale>  3 0.28449614E+03</rscale>
<asrwt>0</asrwt>
<pdfrwt beam="1">  1       21 0.22503684E-01 0.28449614E+03</pdfrwt>
<pdfrwt beam="2">  1        2 0.84186683E-01 0.28449614E+03</pdfrwt>
<totfact> 0.12800832E+04</totfact>
</mgrwt>
</event>
