<event>
 5    0  0.1856407E+000  0.2501010E+03  0.7546771E-02  0.1113241E+00
         21   -1    0    0  502  501  0.00000000000E+00  0.00000000000E+00  0.18886962367E+03  0.18886962367E+03  0.00000000000E+00 0. -1.
         21   -1    0    0  503  502 -0.00000000000E+00 -0.00000000000E+00 -0.64351528956E+03  0.64351528956E+03  0.00000000000E+00 0. -1.
         25    1    1    2    0    0 -0.16136117923E+03 -0.14452702875E+03  0.70881988749E+02  0.25995143495E+03  0.12500000000E+03 0.  0.
         21    1    1    2  503  504  0.92466370707E+02  0.10682716019E+03 -0.40148082993E+03  0.42561594034E+03  0.00000000000E+00 0. -1.
         21    1    1    2  504  501  0.68894808519E+02  0.37699868566E+02 -0.12404682470E+03  0.14681753795E+03  0.00000000000E+00 0. -1.
<mgrwt>
<rscale>  4 0.25010096E+03</rscale>
<asrwt>0</asrwt>
<pdfrwt beam="1">  1       21 0.29056865E-01 0.25010096E+03</pdfrwt>
<pdfrwt beam="2">  1       21 0.99002353E-01 0.25010096E+03</pdfrwt>
<totfact> 0.91852855E+03</totfact>
</mgrwt>
</event>
<event>
 5    0  0.1856407E+000  0.3078454E+03  0.7546771E-02  0.1081383E+00
         21   -1    0    0  502  501  0.00000000000E+00  0.00000000000E+00  0.98105662952E+03  0.98105662952E+03  0.00000000000E+00 0.  1.
         21   -1    0    0  503  502 -0.00000000000E+00 -0.00000000000E+00 -0.29395521008E+03  0.29395521008E+03  0.00000000000E+00 0. -1.
         25    1    1    2    0    0 -0.21112704567E+03  0.18592791213E+03  0.87786506424E+03  0.93027731829E+03  0.12500000000E+03 0.  0.
         21    1    1    2  503  504  0.26696396382E+02 -0.18532909628E+02 -0.26458240510E+01  0.32606237195E+02  0.00000000000E+00 0. -1.
         21    1    1    2  504  501  0.18443064929E+03 -0.16739500251E+03 -0.18811782075E+03  0.31212828411E+03  0.00000000000E+00 0. -1.
<mgrwt>
<rscale>  4 0.30784544E+03</rscale>
<asrwt>0</asrwt>
<pdfrwt beam="1">  1       21 0.15093179E+00 0.30784544E+03</pdfrwt>
<pdfrwt beam="2">  1       21 0.45223879E-01 0.30784544E+03</pdfrwt>
<totfact> 0.12571446E+03</totfact>
</mgrwt>
</event>
<event>
 5    0  0.1856407E+000  0.2439993E+03  0.7546771E-02  0.1117157E+00
         21   -1    0    0  502  501  0.00000000000E+00  0.00000000000E+00  0.70972753630E+02  0.70972753630E+02  0.00000000000E+00 0.  1.
         21   -1    0    0  503  502 -0.00000000000E+00 -0.00000000000E+00 -0.23443236456E+04  0.23443236456E+04  0.00000000000E+00 0.  1.
         25    1    1    2    0    0 -0.15280955175E+03  0.14338730441E+03 -0.16322273105E+03  0.29355976922E+03  0.12500000000E+03 0.  0.
         21    1    1    2  503  504  0.13547014415E+03 -0.98327826913E+02 -0.18130215418E+04  0.18207327186E+04  0.00000000000E+00 0.  1.
         21    1    1    2  504  501  0.17339407596E+02 -0.45059477499E+02 -0.29710661907E+03  0.30100391137E+03  0.00000000000E+00 0.  1.
<mgrwt>
<rscale>  4 0.24399934E+03</rscale>
<asrwt>0</asrwt>
<pdfrwt beam="1">  1       21 0.10918884E-01 0.24399934E+03</pdfrwt>
<pdfrwt beam="2">  1       21 0.36066521E+00 0.24399934E+03</pdfrwt>
<totfact> 0.98101593E+02</totfact>
</mgrwt>
</event>
<event>
 5    0  0.1856407E+000  0.2905158E+03  0.7546771E-02  0.1090080E+00
         21   -1    0    0  502  501  0.00000000000E+00  0.00000000000E+00  0.58794620961E+03  0.58794620961E+03  0.00000000000E+00 0.  1.
         21   -1    0    0  503  502 -0.00000000000E+00 -0.00000000000E+00 -0.29804468083E+03  0.29804468083E+03  0.00000000000E+00 0. -1.
         25    1    1    2    0    0 -0.26255912963E+03 -0.47595239449E+02  0.45082588374E+03  0.53858293773E+03  0.12500000000E+03 0.  0.
         21    1    1    2  503  504  0.22540880276E+03  0.95870086365E+02 -0.14418541092E+03  0.28423517471E+03  0.00000000000E+00 0. -1.
         21    1    1    2  504  501  0.37150326873E+02 -0.48274846916E+02 -0.16738944035E+02  0.63172777989E+02  0.00000000000E+00 0. -1.
<mgrwt>
<rscale>  4 0.29051583E+03</rscale>
<asrwt>0</asrwt>
<pdfrwt beam="1">  1       21 0.90453263E-01 0.29051583E+03</pdfrwt>
<pdfrwt beam="2">  1       21 0.45853028E-01 0.29051583E+03</pdfrwt>
<totfact> 0.44368965E+03</totfact>
</mgrwt>
</event>
<event>
 5    0  0.2505422E+000  0.2661916E+03  0.7546771E-02  0.1103479E+00
         21   -1    0    0  502  501  0.00000000000E+00  0.00000000000E+00  0.47255570559E+03  0.47255570559E+03  0.00000000000E+00 0. -1.
         21   -1    0    0  503  502 -0.00000000000E+00 -0.00000000000E+00 -0.16726584490E+03  0.16726584490E+03  0.00000000000E+00 0. -1.
         25    1    1    2    0    0  0.12969115066E+03 -0.19599278499E+03  0.28601322571E+03  0.39071924909E+03  0.12500000000E+03 0.  0.
         21    1    1    2  503  504 -0.34011864290E+02  0.16323142646E+02  0.25353750767E+02  0.45453983063E+02  0.00000000000E+00 0. -1.
         21    1    1    2  504  501 -0.95679286369E+02  0.17966964235E+03 -0.60771157933E+01  0.20364831833E+03  0.00000000000E+00 0. -1.
<mgrwt>
<rscale>  4 0.26619160E+03</rscale>
<asrwt>0</asrwt>
<pdfrwt beam="1">  1       21 0.72700877E-01 0.26619160E+03</pdfrwt>
<pdfrwt beam="2">  1       21 0.25733207E-01 0.26619160E+03</pdfrwt>
<totfact> 0.23515841E+04</totfact>
</mgrwt>
</event>
<event>
 5    0  0.1856407E+000  0.2084836E+03  0.7546771E-02  0.1142772E+00
         21   -1    0    0  502  501  0.00000000000E+00  0.00000000000E+00  0.35127225134E+03  0.35127225134E+03  0.00000000000E+00 0. -1.
         21   -1    0    0  503  502 -0.00000000000E+00 -0.00000000000E+00 -0.31168864797E+03  0.31168864797E+03  0.00000000000E+00 0. -1.
         25    1    1    2    0    0 -0.19731941747E+03  0.42222852896E+02  0.20890200380E+03  0.31620052025E+03  0.12500000000E+03 0.  0.
         21    1    1    2  503  504  0.63863370240E+02 -0.55792637561E+02 -0.19275478327E+03  0.21058431788E+03  0.00000000000E+00 0. -1.
         21    1    1    2  504  501  0.13345604723E+03  0.13569784666E+02  0.23436382835E+02  0.13617606118E+03  0.00000000000E+00 0. -1.
<mgrwt>
<rscale>  4 0.20848358E+03</rscale>
<asrwt>0</asrwt>
<pdfrwt beam="1">  1       21 0.54041885E-01 0.20848358E+03</pdfrwt>
<pdfrwt beam="2">  1       21 0.47952100E-01 0.20848358E+03</pdfrwt>
<totfact> 0.13318294E+04</totfact>
</mgrwt>
</event>
<event>
 5    0  0.1856407E+000  0.2374488E+03  0.7546771E-02  0.1121504E+00
         21   -1    0    0  502  501  0.00000000000E+00  0.00000000000E+00  0.14258477665E+04  0.14258477665E+04  0.00000000000E+00 0. -1.
         21   -1    0    0  503  502 -0.00000000000E+00 -0.00000000000E+00 -0.19561113084E+03  0.19561113084E+03  0.00000000000E+00 0. -1.
         25    1    1    2    0    0  0.70041786239E+02  0.21602267935E+03  0.12583084763E+04  0.12847322177E+04  0.12500000000E+03 0.  0.
         21    1    1    2  503  504  0.22076612836E+02 -0.13942629702E+03  0.90890201553E+02  0.16789311443E+03  0.00000000000E+00 0. -1.
         21    1    1    2  504  501 -0.92118399075E+02 -0.76596382326E+02 -0.11896204220E+03  0.16883356514E+03  0.00000000000E+00 0. -1.
<mgrwt>
<rscale>  4 0.23744880E+03</rscale>
<asrwt>0</asrwt>
<pdfrwt beam="1">  1       21 0.21936119E+00 0.23744880E+03</pdfrwt>
<pdfrwt beam="2">  1       21 0.30094021E-01 0.23744880E+03</pdfrwt>
<totfact> 0.10250958E+03</totfact>
</mgrwt>
</event>
<event>
 5    0  0.1856407E+000  0.2677857E+03  0.7546771E-02  0.1102554E+00
         21   -1    0    0  502  501  0.00000000000E+00  0.00000000000E+00  0.72698844354E+03  0.72698844354E+03  0.00000000000E+00 0.  1.
         21   -1    0    0  503  502 -0.00000000000E+00 -0.00000000000E+00 -0.29631931345E+03  0.29631931345E+03  0.00000000000E+00 0.  1.
         25    1    1    2    0    0  0.22982113102E+03  0.63187924838E+02  0.62941476276E+03  0.68454248202E+03  0.12500000000E+03 0.  0.
         21    1    1    2  503  504 -0.22731964292E+03 -0.21879915575E+02 -0.14340558938E+03  0.26966296340E+03  0.00000000000E+00 0.  1.
         21    1    1    2  504  501 -0.25014881043E+01 -0.41308009262E+02 -0.55340043294E+02  0.69102311566E+02  0.00000000000E+00 0.  1.
<mgrwt>
<rscale>  4 0.26778566E+03</rscale>
<asrwt>0</asrwt>
<pdfrwt beam="1">  1       21 0.11184438E+00 0.26778566E+03</pdfrwt>
<pdfrwt beam="2">  1       21 0.45587587E-01 0.26778566E+03</pdfrwt>
<totfact> 0.27341928E+03</totfact>
</mgrwt>
</event>
<event>
 5    0  0.3435624E+000  0.2584316E+03  0.7546771E-02  0.1108089E+00
         21   -1    0    0  502  501  0.00000000000E+00  0.00000000000E+00  0.43237479413E+03  0.43237479413E+03  0.00000000000E+00 0. -1.
         21   -1    0    0  503  502 -0.00000000000E+00 -0.00000000000E+00 -0.19972088880E+03  0.19972088880E+03  0.00000000000E+00 0.  1.
         25    1    1    2    0    0  0.14016447395E+03 -0.17752690459E+03  0.29659445962E+03  0.39338931746E+03  0.12500000000E+03 0.  0.
         21    1    1    2  503  504 -0.11028287413E+02  0.28604437139E+02 -0.20449032353E+02  0.36851049801E+02  0.00000000000E+00 0. -1.
         21    1    1    2  504  501 -0.12913618653E+03  0.14892246745E+03 -0.43491521942E+02  0.20185531567E+03  0.00000000000E+00 0.  1.
<mgrwt>
<rscale>  4 0.25843158E+03</rscale>
<asrwt>0</asrwt>
<pdfrwt beam="1">  1       21 0.66519199E-01 0.25843158E+03</pdfrwt>
<pdfrwt beam="2">  1       21 0.30726291E-01 0.25843158E+03</pdfrwt>
<totfact> 0.20346145E+04</totfact>
</mgrwt>
</event>
<event>
 5    0  0.1856407E+000  0.6735154E+03  0.7546771E-02  0.9763628E-01
         21   -1    0    0  502  501  0.00000000000E+00  0.00000000000E+00  0.51269331667E+03  0.51269331667E+03  0.00000000000E+00 0.  1.
         21   -1    0    0  503  502 -0.00000000000E+00 -0.00000000000E+00 -0.11269868364E+04  0.11269868364E+04  0.00000000000E+00 0.  1.
         25    1    1    2    0    0  0.52877087830E+03 -0.39799420710E+03  0.80334822611E+02  0.67828955052E+03  0.12500000000E+03 0.  0.
         21    1    1    2  503  504 -0.51530379521E+03  0.38263827497E+03 -0.68532652080E+03  0.93894754430E+03  0.00000000000E+00 0.  1.
         21    1    1    2  504  501 -0.13467083083E+02  0.15355932131E+02 -0.93018214936E+01  0.22443058202E+02  0.00000000000E+00 0. -1.
<mgrwt>
<rscale>  4 0.67351543E+03</rscale>
<asrwt>0</asrwt>
<pdfrwt beam="1">  1       21 0.78875895E-01 0.67351543E+03</pdfrwt>
<pdfrwt beam="2">  1       21 0.17338259E+00 0.67351543E+03</pdfrwt>
<totfact> 0.21359592E+02</totfact>
</mgrwt>
</event>
<event>
 5    0  0.2449343E+000  0.2620331E+03  0.7546771E-02  0.1105928E+00
         21   -1    0    0  502  501  0.00000000000E+00  0.00000000000E+00  0.90370197540E+03  0.90370197540E+03  0.00000000000E+00 0.  1.
         21   -1    0    0  503  502 -0.00000000000E+00 -0.00000000000E+00 -0.78347462963E+02  0.78347462963E+02  0.00000000000E+00 0.  1.
         25    1    1    2    0    0  0.18404680864E+03  0.14844898403E+03  0.45959447627E+03  0.53175408907E+03  0.12500000000E+03 0.  0.
         21    1    1    2  503  504  0.26696641319E+01 -0.22509942565E+02  0.23955034577E+01  0.22793925895E+02  0.00000000000E+00 0.  1.
         21    1    1    2  504  501 -0.18671647278E+03 -0.12593904146E+03  0.36336453272E+03  0.42750142340E+03  0.00000000000E+00 0.  1.
<mgrwt>
<rscale>  4 0.26203310E+03</rscale>
<asrwt>0</asrwt>
<pdfrwt beam="1">  1       21 0.13903107E+00 0.26203310E+03</pdfrwt>
<pdfrwt beam="2">  1       21 0.12053456E-01 0.26203310E+03</pdfrwt>
<totfact> 0.20370444E+04</totfact>
</mgrwt>
</event>
