<event>
 5    0  0.1257040E+001  0.2646854E+03  0.7546771E-02  0.1104360E+00
         21   -1    0    0  502  501  0.00000000000E+00  0.00000000000E+00  0.23266871853E+03  0.23266871853E+03  0.00000000000E+00 0.  1.
         21   -1    0    0  504  502 -0.00000000000E+00 -0.00000000000E+00 -0.72848093415E+03  0.72848093415E+03  0.00000000000E+00 0. -1.
         25    1    1    2    0    0  0.34000361103E+02 -0.26302046118E+03  0.70973426905E+02  0.30165877226E+03  0.12500000000E+03 0.  0.
         21    1    1    2  503  501 -0.91831335933E+01  0.34810787286E+02  0.11105818485E+02  0.37675722399E+02  0.00000000000E+00 0. -1.
         21    1    1    2  504  503 -0.24817227509E+02  0.22820967390E+03 -0.57789146101E+03  0.62181515802E+03  0.00000000000E+00 0. -1.
<mgrwt>
<rscale>  4 0.26468541E+03</rscale>
<asrwt>0</asrwt>
<pdfrwt beam="1">  1       21 0.35795189E-01 0.26468541E+03</pdfrwt>
<pdfrwt beam="2">  1       21 0.11207399E+00 0.26468541E+03</pdfrwt>
<totfact> 0.44631103E+03</totfact>
</mgrwt>
</event>
<event>
 5    0  0.1257040E+001  0.2244260E+03  0.7546771E-02  0.1130626E+00
         21   -1    0    0  502  501  0.00000000000E+00  0.00000000000E+00  0.91492685303E+03  0.91492685303E+03  0.00000000000E+00 0.  1.
         21   -1    0    0  504  502 -0.00000000000E+00 -0.00000000000E+00 -0.13052559501E+03  0.13052559501E+03  0.00000000000E+00 0.  1.
         25    1    1    2    0    0  0.68205970964E+02 -0.26234229310E+03  0.54053371499E+03  0.61747650179E+03  0.12500000000E+03 0.  0.
         21    1    1    2  503  501 -0.31158964394E+02  0.14186409748E+03  0.26304365850E+03  0.30048006505E+03  0.00000000000E+00 0.  1.
         21    1    1    2  504  503 -0.37047006569E+02  0.12047819563E+03 -0.19176115463E+02  0.12749588119E+03  0.00000000000E+00 0.  1.
<mgrwt>
<rscale>  4 0.22442603E+03</rscale>
<asrwt>0</asrwt>
<pdfrwt beam="1">  1       21 0.14075797E+00 0.22442603E+03</pdfrwt>
<pdfrwt beam="2">  1       21 0.20080861E-01 0.22442603E+03</pdfrwt>
<totfact> 0.78962822E+03</totfact>
</mgrwt>
</event>
<event>
 5    0  0.1257040E+001  0.2465584E+03  0.7546771E-02  0.1115499E+00
         21   -1    0    0  504  501  0.00000000000E+00  0.00000000000E+00  0.23674506896E+03  0.23674506896E+03  0.00000000000E+00 0. -1.
         21   -1    0    0  501  502 -0.00000000000E+00 -0.00000000000E+00 -0.51923520648E+03  0.51923520648E+03  0.00000000000E+00 0. -1.
         25    1    1    2    0    0  0.23198655574E+03  0.16980194425E+03 -0.19281195612E+03  0.36803792297E+03  0.12500000000E+03 0.  0.
         21    1    1    2  503  502 -0.96520414358E+02 -0.17093055720E+03  0.40084808843E+02  0.20035028743E+03  0.00000000000E+00 0. -1.
         21    1    1    2  504  503 -0.13546614138E+03  0.11286129502E+01 -0.12976299024E+03  0.18759206504E+03  0.00000000000E+00 0. -1.
<mgrwt>
<rscale>  4 0.24655840E+03</rscale>
<asrwt>0</asrwt>
<pdfrwt beam="1">  1       21 0.36422319E-01 0.24655840E+03</pdfrwt>
<pdfrwt beam="2">  1       21 0.79882339E-01 0.24655840E+03</pdfrwt>
<totfact> 0.96937277E+03</totfact>
</mgrwt>
</event>
<event>
 5    0  0.1257040E+001  0.2570227E+03  0.7546771E-02  0.1108945E+00
         21   -1    0    0  503  501  0.00000000000E+00  0.00000000000E+00  0.15484482327E+04  0.15484482327E+04  0.00000000000E+00 0. -1.
         21   -1    0    0  504  502 -0.00000000000E+00 -0.00000000000E+00 -0.25471988428E+03  0.25471988428E+03  0.00000000000E+00 0. -1.
         25    1    1    2    0    0  0.19616339227E+03 -0.22262973295E+03  0.10060423953E+04  0.10563097915E+04  0.12500000000E+03 0.  0.
         21    1    1    2  503  502 -0.59340406979E+02  0.10665027889E+03 -0.19605228301E+03  0.23093735852E+03  0.00000000000E+00 0. -1.
         21    1    1    2  504  501 -0.13682298529E+03  0.11597945407E+03  0.48373823606E+03  0.51592096691E+03  0.00000000000E+00 0. -1.
<mgrwt>
<rscale>  4 0.25702266E+03</rscale>
<asrwt>0</asrwt>
<pdfrwt beam="1">  1       21 0.23822280E+00 0.25702266E+03</pdfrwt>
<pdfrwt beam="2">  1       21 0.39187675E-01 0.25702266E+03</pdfrwt>
<totfact> 0.45557792E+02</totfact>
</mgrwt>
</event>
<event>
 5    0  0.1257040E+001  0.2925072E+03  0.7546771E-02  0.1089047E+00
         21   -1    0    0  504  501  0.00000000000E+00  0.00000000000E+00  0.51561598189E+03  0.51561598189E+03  0.00000000000E+00 0.  1.
         21   -1    0    0  503  502 -0.00000000000E+00 -0.00000000000E+00 -0.30478125956E+03  0.30478125956E+03  0.00000000000E+00 0. -1.
         25    1    1    2    0    0  0.22343347576E+02  0.28157054428E+03  0.25653178145E+03  0.40151556816E+03  0.12500000000E+03 0.  0.
         21    1    1    2  503  501 -0.72820559515E+01 -0.26039619630E+03 -0.15729133328E+03  0.30430210467E+03  0.00000000000E+00 0. -1.
         21    1    1    2  504  502 -0.15061291625E+02 -0.21174347977E+02  0.11159427416E+03  0.11457956861E+03  0.00000000000E+00 0. -1.
<mgrwt>
<rscale>  4 0.29250724E+03</rscale>
<asrwt>0</asrwt>
<pdfrwt beam="1">  1       21 0.79325536E-01 0.29250724E+03</pdfrwt>
<pdfrwt beam="2">  1       21 0.46889425E-01 0.29250724E+03</pdfrwt>
<totfact> 0.57310818E+03</totfact>
</mgrwt>
</event>
<event>
 5    0  0.1257040E+001  0.2316679E+03  0.7546771E-02  0.1125471E+00
         21   -1    0    0  502  501  0.00000000000E+00  0.00000000000E+00  0.91228288279E+03  0.91228288279E+03  0.00000000000E+00 0. -1.
         21   -1    0    0  504  502 -0.00000000000E+00 -0.00000000000E+00 -0.10634817291E+03  0.10634817291E+03  0.00000000000E+00 0. -1.
         25    1    1    2    0    0  0.12078867633E+03 -0.16299029608E+03  0.47423777258E+03  0.53073741708E+03  0.12500000000E+03 0.  0.
         21    1    1    2  503  501 -0.53048128936E+02 -0.19539635511E+02  0.28110508252E+03  0.28673327111E+03  0.00000000000E+00 0.  1.
         21    1    1    2  504  503 -0.67740547397E+02  0.18252993159E+03  0.50591854780E+02  0.20116036751E+03  0.00000000000E+00 0. -1.
<mgrwt>
<rscale>  4 0.23166787E+03</rscale>
<asrwt>0</asrwt>
<pdfrwt beam="1">  1       21 0.14035121E+00 0.23166787E+03</pdfrwt>
<pdfrwt beam="2">  1       21 0.16361258E-01 0.23166787E+03</pdfrwt>
<totfact> 0.11585207E+04</totfact>
</mgrwt>
</event>
<event>
 5    0  0.1257040E+001  0.2746983E+03  0.7546771E-02  0.1098620E+00
         21   -1    0    0  502  501  0.00000000000E+00  0.00000000000E+00  0.10513231719E+03  0.10513231719E+03  0.00000000000E+00 0.  1.
         21   -1    0    0  504  502 -0.00000000000E+00 -0.00000000000E+00 -0.75250791343E+03  0.75250791343E+03  0.00000000000E+00 0.  1.
         25    1    1    2    0    0  0.18414337136E+03 -0.16101358642E+03 -0.21059317920E+03  0.34613385179E+03  0.12500000000E+03 0.  0.
         21    1    1    2  503  501 -0.16608403796E+03  0.99825434635E+02 -0.26522916855E+03  0.32847456053E+03  0.00000000000E+00 0.  1.
         21    1    1    2  504  503 -0.18059333398E+02  0.61188151786E+02 -0.17155324849E+03  0.18303181830E+03  0.00000000000E+00 0. -1.
<mgrwt>
<rscale>  4 0.27469830E+03</rscale>
<asrwt>0</asrwt>
<pdfrwt beam="1">  1       21 0.16174202E-01 0.27469830E+03</pdfrwt>
<pdfrwt beam="2">  1       21 0.11577045E+00 0.27469830E+03</pdfrwt>
<totfact> 0.18841823E+04</totfact>
</mgrwt>
</event>
<event>
 5    0  0.1257040E+001  0.2525464E+03  0.7546771E-02  0.1111706E+00
         21   -1    0    0  502  501  0.00000000000E+00  0.00000000000E+00  0.29512275166E+03  0.29512275166E+03  0.00000000000E+00 0.  1.
         21   -1    0    0  504  502 -0.00000000000E+00 -0.00000000000E+00 -0.20730665669E+03  0.20730665669E+03  0.00000000000E+00 0.  1.
         25    1    1    2    0    0 -0.21926902563E+03  0.87059213143E+01  0.57923188328E+02  0.25910382941E+03  0.12500000000E+03 0.  0.
         21    1    1    2  503  501  0.14103816318E+03  0.20641660356E+02  0.59804854170E+02  0.15457833677E+03  0.00000000000E+00 0.  1.
         21    1    1    2  504  503  0.78230862452E+02 -0.29347581670E+02 -0.29911947528E+02  0.88747242181E+02  0.00000000000E+00 0.  1.
<mgrwt>
<rscale>  4 0.25254643E+03</rscale>
<asrwt>0</asrwt>
<pdfrwt beam="1">  1       21 0.45403500E-01 0.25254643E+03</pdfrwt>
<pdfrwt beam="2">  1       21 0.31893332E-01 0.25254643E+03</pdfrwt>
<totfact> 0.42793289E+04</totfact>
</mgrwt>
</event>
<event>
 5    0  0.1257040E+001  0.2306066E+03  0.7546771E-02  0.1126214E+00
         21   -1    0    0  504  501  0.00000000000E+00  0.00000000000E+00  0.88557319078E+02  0.88557319078E+02  0.00000000000E+00 0. -1.
         21   -1    0    0  503  502 -0.00000000000E+00 -0.00000000000E+00 -0.94255845035E+03  0.94255845035E+03  0.00000000000E+00 0. -1.
         25    1    1    2    0    0  0.77664860714E+02  0.19601494260E+03 -0.63172661681E+03  0.67761139800E+03  0.12500000000E+03 0.  0.
         21    1    1    2  503  501  0.82940821586E+01 -0.26259927001E+02 -0.14589110470E+03  0.14846747117E+03  0.00000000000E+00 0. -1.
         21    1    1    2  504  502 -0.85958942873E+02 -0.16975501560E+03 -0.76383409760E+02  0.20503690026E+03  0.00000000000E+00 0. -1.
<mgrwt>
<rscale>  4 0.23060664E+03</rscale>
<asrwt>0</asrwt>
<pdfrwt beam="1">  1       21 0.13624203E-01 0.23060664E+03</pdfrwt>
<pdfrwt beam="2">  1       21 0.14500899E+00 0.23060664E+03</pdfrwt>
<totfact> 0.14874901E+04</totfact>
</mgrwt>
</event>
<event>
 5    0  0.1257040E+001  0.2572992E+03  0.7546771E-02  0.1108777E+00
         21   -1    0    0  502  501  0.00000000000E+00  0.00000000000E+00  0.13307543516E+03  0.13307543516E+03  0.00000000000E+00 0. -1.
         21   -1    0    0  504  502 -0.00000000000E+00 -0.00000000000E+00 -0.45051788213E+03  0.45051788213E+03  0.00000000000E+00 0. -1.
         25    1    1    2    0    0 -0.21554144622E+03  0.64185461096E+02 -0.20638520192E+03  0.32984502426E+03  0.12500000000E+03 0.  0.
         21    1    1    2  503  501  0.16684951748E+02 -0.16533049930E+02 -0.14573275021E+02  0.27642534248E+02  0.00000000000E+00 0. -1.
         21    1    1    2  504  503  0.19885649448E+03 -0.47652411166E+02 -0.96483970021E+02  0.22610575879E+03  0.00000000000E+00 0. -1.
<mgrwt>
<rscale>  4 0.25729922E+03</rscale>
<asrwt>0</asrwt>
<pdfrwt beam="1">  1       21 0.20473144E-01 0.25729922E+03</pdfrwt>
<pdfrwt beam="2">  1       21 0.69310444E-01 0.25729922E+03</pdfrwt>
<totfact> 0.40603254E+04</totfact>
</mgrwt>
</event>
<event>
 5    0  0.1257040E+001  0.2007169E+03  0.7546771E-02  0.1149136E+00
         21   -1    0    0  504  501  0.00000000000E+00  0.00000000000E+00  0.51990862675E+03  0.51990862675E+03  0.00000000000E+00 0. -1.
         21   -1    0    0  503  502 -0.00000000000E+00 -0.00000000000E+00 -0.15024967714E+03  0.15024967714E+03  0.00000000000E+00 0. -1.
         25    1    1    2    0    0  0.99526368272E+02 -0.17716530356E+03  0.12260044450E+03  0.26823294309E+03  0.12500000000E+03 0.  0.
         21    1    1    2  503  501 -0.75290372607E+02  0.11936220061E+03 -0.59691257683E+01  0.14125015258E+03  0.00000000000E+00 0. -1.
         21    1    1    2  504  502 -0.24235995665E+02  0.57803102949E+02  0.25302763087E+03  0.26067520822E+03  0.00000000000E+00 0. -1.
<mgrwt>
<rscale>  4 0.20071694E+03</rscale>
<asrwt>0</asrwt>
<pdfrwt beam="1">  1       21 0.79985942E-01 0.20071694E+03</pdfrwt>
<pdfrwt beam="2">  1       21 0.23115335E-01 0.20071694E+03</pdfrwt>
<totfact> 0.24075478E+04</totfact>
</mgrwt>
</event>
<event>
 5    0  0.1257040E+001  0.3058018E+03  0.7546771E-02  0.1082376E+00
         21   -1    0    0  503  501  0.00000000000E+00  0.00000000000E+00  0.63659748503E+03  0.63659748503E+03  0.00000000000E+00 0. -1.
         21   -1    0    0  504  502 -0.00000000000E+00 -0.00000000000E+00 -0.34026184203E+03  0.34026184203E+03  0.00000000000E+00 0. -1.
         25    1    1    2    0    0  0.21292210916E+03  0.13663508441E+03 -0.96556690262E+02  0.29825017233E+03  0.12500000000E+03 0.  0.
         21    1    1    2  503  502 -0.24634572045E+03 -0.22905370167E+03  0.73335660255E+02  0.34428176149E+03  0.00000000000E+00 0. -1.
         21    1    1    2  504  501  0.33423611284E+02  0.92418617260E+02  0.31955667301E+03  0.33432739324E+03  0.00000000000E+00 0. -1.
<mgrwt>
<rscale>  4 0.30580181E+03</rscale>
<asrwt>0</asrwt>
<pdfrwt beam="1">  1       21 0.97938074E-01 0.30580181E+03</pdfrwt>
<pdfrwt beam="2">  1       21 0.52347976E-01 0.30580181E+03</pdfrwt>
<totfact> 0.27599776E+03</totfact>
</mgrwt>
</event>
<event>
 5    0  0.1257040E+001  0.2421323E+03  0.7546771E-02  0.1118380E+00
         21   -1    0    0  502  501  0.00000000000E+00  0.00000000000E+00  0.13091859983E+03  0.13091859983E+03  0.00000000000E+00 0. -1.
         21   -1    0    0  504  502 -0.00000000000E+00 -0.00000000000E+00 -0.12780780903E+04  0.12780780903E+04  0.00000000000E+00 0. -1.
         25    1    1    2    0    0  0.21708926684E+03  0.12751012386E+02 -0.20016917578E+02  0.25162673761E+03  0.12500000000E+03 0.  0.
         21    1    1    2  503  501 -0.13712281904E+02  0.23886599074E+02 -0.29165149284E+02  0.40114862870E+02  0.00000000000E+00 0. -1.
         21    1    1    2  504  503 -0.20337698493E+03 -0.36637611460E+02 -0.10979774236E+04  0.11172550897E+04  0.00000000000E+00 0. -1.
<mgrwt>
<rscale>  4 0.24213233E+03</rscale>
<asrwt>0</asrwt>
<pdfrwt beam="1">  1       21 0.20141323E-01 0.24213233E+03</pdfrwt>
<pdfrwt beam="2">  1       21 0.19662740E+00 0.24213233E+03</pdfrwt>
<totfact> 0.30772374E+03</totfact>
</mgrwt>
</event>
<event>
 5    0  0.1257040E+001  0.2843183E+03  0.7546771E-02  0.1093353E+00
         21   -1    0    0  502  501  0.00000000000E+00  0.00000000000E+00  0.50512438020E+03  0.50512438020E+03  0.00000000000E+00 0. -1.
         21   -1    0    0  504  502 -0.00000000000E+00 -0.00000000000E+00 -0.46359127960E+03  0.46359127960E+03  0.00000000000E+00 0.  1.
         25    1    1    2    0    0 -0.17843205234E+03  0.15474524073E+03  0.29759851827E+03  0.39996745481E+03  0.12500000000E+03 0.  0.
         21    1    1    2  503  501 -0.26873776449E+02  0.90902152693E+00  0.11439117044E+03  0.11750900415E+03  0.00000000000E+00 0.  1.
         21    1    1    2  504  503  0.20530582879E+03 -0.15565426226E+03 -0.37045658811E+03  0.45123920084E+03  0.00000000000E+00 0.  1.
<mgrwt>
<rscale>  4 0.28431829E+03</rscale>
<asrwt>0</asrwt>
<pdfrwt beam="1">  1       21 0.77711444E-01 0.28431829E+03</pdfrwt>
<pdfrwt beam="2">  1       21 0.71321735E-01 0.28431829E+03</pdfrwt>
<totfact> 0.24412570E+03</totfact>
</mgrwt>
</event>
<event>
 5    0  0.1257040E+001  0.2407897E+03  0.7546771E-02  0.1119268E+00
         21   -1    0    0  502  501  0.00000000000E+00  0.00000000000E+00  0.25884364640E+03  0.25884364640E+03  0.00000000000E+00 0. -1.
         21   -1    0    0  504  502 -0.00000000000E+00 -0.00000000000E+00 -0.34854332369E+03  0.34854332369E+03  0.00000000000E+00 0. -1.
         25    1    1    2    0    0  0.20382177324E+03 -0.12548216192E+03 -0.11198162466E+03  0.29232511433E+03  0.12500000000E+03 0.  0.
         21    1    1    2  503  501 -0.83552763243E+02 -0.15598493947E+02  0.84167407695E+02  0.11961826690E+03  0.00000000000E+00 0. -1.
         21    1    1    2  504  503 -0.12026901000E+03  0.14108065586E+03 -0.61885460332E+02  0.19544358886E+03  0.00000000000E+00 0. -1.
<mgrwt>
<rscale>  4 0.24078966E+03</rscale>
<asrwt>0</asrwt>
<pdfrwt beam="1">  1       21 0.39822099E-01 0.24078966E+03</pdfrwt>
<pdfrwt beam="2">  1       21 0.53622050E-01 0.24078966E+03</pdfrwt>
<totfact> 0.19470232E+04</totfact>
</mgrwt>
</event>
<event>
 5    0  0.1257040E+001  0.2546432E+03  0.7546771E-02  0.1110405E+00
         21   -1    0    0  504  501  0.00000000000E+00  0.00000000000E+00  0.52815502118E+03  0.52815502118E+03  0.00000000000E+00 0.  1.
         21   -1    0    0  503  502 -0.00000000000E+00 -0.00000000000E+00 -0.22794501938E+03  0.22794501938E+03  0.00000000000E+00 0.  1.
         25    1    1    2    0    0 -0.21911965377E+03  0.13139945049E+02 -0.86631725126E+02  0.26705081281E+03  0.12500000000E+03 0.  0.
         21    1    1    2  503  501  0.22680660587E+03 -0.33067122096E+02  0.20980722013E+03  0.31073097793E+03  0.00000000000E+00 0.  1.
         21    1    1    2  504  502 -0.76869520938E+01  0.19927177047E+02  0.17703450680E+03  0.17831824981E+03  0.00000000000E+00 0.  1.
<mgrwt>
<rscale>  4 0.25464322E+03</rscale>
<asrwt>0</asrwt>
<pdfrwt beam="1">  1       21 0.81254618E-01 0.25464322E+03</pdfrwt>
<pdfrwt beam="2">  1       21 0.35068465E-01 0.25464322E+03</pdfrwt>
<totfact> 0.10014724E+04</totfact>
</mgrwt>
</event>
<event>
 5    0  0.1257040E+001  0.3288264E+03  0.7546771E-02  0.1071657E+00
         21   -1    0    0  502  501  0.00000000000E+00  0.00000000000E+00  0.14863855248E+03  0.14863855248E+03  0.00000000000E+00 0.  1.
         21   -1    0    0  504  502 -0.00000000000E+00 -0.00000000000E+00 -0.15578349051E+04  0.15578349051E+04  0.00000000000E+00 0.  1.
         25    1    1    2    0    0  0.25259036813E+03 -0.39792468247E+02 -0.91873365321E+03  0.96181175921E+03  0.12500000000E+03 0.  0.
         21    1    1    2  503  501 -0.31257075476E+03  0.33713917915E+02 -0.72842203940E+02  0.32271208789E+03  0.00000000000E+00 0.  1.
         21    1    1    2  504  503  0.59980386629E+02  0.60785503320E+01 -0.41762049548E+03  0.42194961050E+03  0.00000000000E+00 0. -1.
<mgrwt>
<rscale>  4 0.32882637E+03</rscale>
<asrwt>0</asrwt>
<pdfrwt beam="1">  1       21 0.22867472E-01 0.32882637E+03</pdfrwt>
<pdfrwt beam="2">  1       21 0.23966689E+00 0.32882637E+03</pdfrwt>
<totfact> 0.12158242E+03</totfact>
</mgrwt>
</event>
<event>
 5    0  0.1257040E+001  0.3730750E+03  0.7546771E-02  0.1053523E+00
         21   -1    0    0  504  501  0.00000000000E+00  0.00000000000E+00  0.37553875160E+03  0.37553875160E+03  0.00000000000E+00 0.  1.
         21   -1    0    0  503  502 -0.00000000000E+00 -0.00000000000E+00 -0.10189416170E+04  0.10189416170E+04  0.00000000000E+00 0.  1.
         25    1    1    2    0    0 -0.20360676655E+03  0.12473361458E+03 -0.43148963942E+03  0.50874600630E+03  0.12500000000E+03 0.  0.
         21    1    1    2  503  501 -0.17813524129E+03 -0.79539778145E+02 -0.40944377463E+03  0.45354486557E+03  0.00000000000E+00 0.  1.
         21    1    1    2  504  502  0.38174200785E+03 -0.45193836440E+02  0.19753054868E+03  0.43218949671E+03  0.00000000000E+00 0.  1.
<mgrwt>
<rscale>  4 0.37307497E+03</rscale>
<asrwt>0</asrwt>
<pdfrwt beam="1">  1       21 0.57775193E-01 0.37307497E+03</pdfrwt>
<pdfrwt beam="2">  1       21 0.15676025E+00 0.37307497E+03</pdfrwt>
<totfact> 0.64900046E+02</totfact>
</mgrwt>
</event>
<event>
 5    0  0.1257040E+001  0.2793982E+03  0.7546771E-02  0.1096018E+00
         21   -1    0    0  502  501  0.00000000000E+00  0.00000000000E+00  0.17810630929E+03  0.17810630929E+03  0.00000000000E+00 0.  1.
         21   -1    0    0  504  502 -0.00000000000E+00 -0.00000000000E+00 -0.50317584826E+03  0.50317584826E+03  0.00000000000E+00 0.  1.
         25    1    1    2    0    0 -0.25218418373E+03 -0.40116549894E+02 -0.23581659531E+03  0.36937875781E+03  0.12500000000E+03 0.  0.
         21    1    1    2  503  501  0.24677965343E+03  0.19914768965E+02 -0.30394870363E+02  0.24944066131E+03  0.00000000000E+00 0.  1.
         21    1    1    2  504  503  0.54045302945E+01  0.20201780929E+02 -0.58858073292E+02  0.62462738429E+02  0.00000000000E+00 0.  1.
<mgrwt>
<rscale>  4 0.27939818E+03</rscale>
<asrwt>0</asrwt>
<pdfrwt beam="1">  1       21 0.27400971E-01 0.27939818E+03</pdfrwt>
<pdfrwt beam="2">  1       21 0.77411667E-01 0.27939818E+03</pdfrwt>
<totfact> 0.17969567E+04</totfact>
</mgrwt>
</event>
<event>
 5    0  0.1257040E+001  0.6505599E+03  0.7546771E-02  0.9805729E-01
         21   -1    0    0  503  501  0.00000000000E+00  0.00000000000E+00  0.28267522338E+04  0.28267522338E+04  0.00000000000E+00 0. -1.
         21   -1    0    0  504  502 -0.00000000000E+00 -0.00000000000E+00 -0.24177315664E+03  0.24177315664E+03  0.00000000000E+00 0. -1.
         25    1    1    2    0    0 -0.47412577314E+03 -0.47608505385E+03  0.43566549092E+03  0.81048235467E+03  0.12500000000E+03 0.  0.
         21    1    1    2  503  502  0.30963638676E+02  0.28030778195E+02  0.45023148491E+02  0.61412990045E+02  0.00000000000E+00 0.  1.
         21    1    1    2  504  501  0.44316213446E+03  0.44805427565E+03  0.21042904377E+04  0.21966300457E+04  0.00000000000E+00 0. -1.
<mgrwt>
<rscale>  4 0.65055986E+03</rscale>
<asrwt>0</asrwt>
<pdfrwt beam="1">  1       21 0.43488494E+00 0.65055986E+03</pdfrwt>
<pdfrwt beam="2">  1       21 0.37195872E-01 0.65055986E+03</pdfrwt>
<totfact> 0.23512422E+01</totfact>
</mgrwt>
</event>
<event>
 5    0  0.1257040E+001  0.2862948E+03  0.7546771E-02  0.1092300E+00
         21   -1    0    0  503  501  0.00000000000E+00  0.00000000000E+00  0.18570977253E+04  0.18570977253E+04  0.00000000000E+00 0. -1.
         21   -1    0    0  504  502 -0.00000000000E+00 -0.00000000000E+00 -0.76222380109E+02  0.76222380109E+02  0.00000000000E+00 0. -1.
         25    1    1    2    0    0  0.15087184706E+03 -0.21581136085E+03  0.13305031167E+04  0.13620574148E+04  0.12500000000E+03 0.  0.
         21    1    1    2  503  502 -0.10758467867E+03  0.23348010113E+03  0.22669318691E+03  0.34274950285E+03  0.00000000000E+00 0. -1.
         21    1    1    2  504  501 -0.43287168390E+02 -0.17668740287E+02  0.22367904161E+03  0.22851318778E+03  0.00000000000E+00 0.  1.
<mgrwt>
<rscale>  4 0.28629475E+03</rscale>
<asrwt>0</asrwt>
<pdfrwt beam="1">  1       21 0.28570731E+00 0.28629475E+03</pdfrwt>
<pdfrwt beam="2">  1       21 0.11726521E-01 0.28629475E+03</pdfrwt>
<totfact> 0.22985906E+03</totfact>
</mgrwt>
</event>
<event>
 5    0  0.1257040E+001  0.3730083E+03  0.7546771E-02  0.1053549E+00
         21   -1    0    0  503  501  0.00000000000E+00  0.00000000000E+00  0.10233247781E+04  0.10233247781E+04  0.00000000000E+00 0. -1.
         21   -1    0    0  504  502 -0.00000000000E+00 -0.00000000000E+00 -0.19904821353E+03  0.19904821353E+03  0.00000000000E+00 0. -1.
         25    1    1    2    0    0  0.36550517319E+03  0.11535572439E+03  0.16271305805E+03  0.43474304369E+03  0.12500000000E+03 0.  0.
         21    1    1    2  503  502 -0.26633388457E+02 -0.67780310849E+02  0.55232509758E+02  0.91400974030E+02  0.00000000000E+00 0.  1.
         21    1    1    2  504  501 -0.33887178473E+03 -0.47575413542E+02  0.60633099672E+03  0.69622897386E+03  0.00000000000E+00 0. -1.
<mgrwt>
<rscale>  4 0.37300827E+03</rscale>
<asrwt>0</asrwt>
<pdfrwt beam="1">  1       21 0.15743458E+00 0.37300827E+03</pdfrwt>
<pdfrwt beam="2">  1       21 0.30622803E-01 0.37300827E+03</pdfrwt>
<totfact> 0.23852487E+03</totfact>
</mgrwt>
</event>
<event>
 5    0  0.1257040E+001  0.2321644E+03  0.7546771E-02  0.1125126E+00
         21   -1    0    0  503  501  0.00000000000E+00  0.00000000000E+00  0.11306514974E+04  0.11306514974E+04  0.00000000000E+00 0. -1.
         21   -1    0    0  504  502 -0.00000000000E+00 -0.00000000000E+00 -0.14805158954E+03  0.14805158954E+03  0.00000000000E+00 0.  1.
         25    1    1    2    0    0 -0.13825738943E+02 -0.20764861120E+03 -0.17055043749E+02  0.24336181152E+03  0.12500000000E+03 0.  0.
         21    1    1    2  503  502 -0.14703770980E+02  0.14967345091E+02  0.47026930262E+01  0.21502037620E+02  0.00000000000E+00 0.  1.
         21    1    1    2  504  501  0.28529509923E+02  0.19268126611E+03  0.99495225855E+03  0.10138392378E+04  0.00000000000E+00 0. -1.
<mgrwt>
<rscale>  4 0.23216441E+03</rscale>
<asrwt>0</asrwt>
<pdfrwt beam="1">  1       21 0.17394638E+00 0.23216441E+03</pdfrwt>
<pdfrwt beam="2">  1       21 0.22777168E-01 0.23216441E+03</pdfrwt>
<totfact> 0.34990463E+03</totfact>
</mgrwt>
</event>
<event>
 5    0  0.1257040E+001  0.2328322E+03  0.7546771E-02  0.1124662E+00
         21   -1    0    0  504  501  0.00000000000E+00  0.00000000000E+00  0.35579591318E+03  0.35579591318E+03  0.00000000000E+00 0.  1.
         21   -1    0    0  503  502 -0.00000000000E+00 -0.00000000000E+00 -0.37328844449E+03  0.37328844449E+03  0.00000000000E+00 0.  1.
         25    1    1    2    0    0 -0.16810392495E+03 -0.12724803138E+03  0.25922853247E+03  0.35675681230E+03  0.12500000000E+03 0.  0.
         21    1    1    2  503  501  0.16364229288E+03  0.10619971892E+03 -0.28814079084E+03  0.34796881421E+03  0.00000000000E+00 0.  1.
         21    1    1    2  504  502  0.44616320742E+01  0.21048312465E+02  0.11419727057E+02  0.24358731175E+02  0.00000000000E+00 0. -1.
<mgrwt>
<rscale>  4 0.23283224E+03</rscale>
<asrwt>0</asrwt>
<pdfrwt beam="1">  1       21 0.54737833E-01 0.23283224E+03</pdfrwt>
<pdfrwt beam="2">  1       21 0.57428991E-01 0.23283224E+03</pdfrwt>
<totfact> 0.87303207E+03</totfact>
</mgrwt>
</event>
<event>
 5    0  0.1652674E+001  0.2600742E+03  0.7546771E-02  0.1107099E+00
         21   -1    0    0  502  501  0.00000000000E+00  0.00000000000E+00  0.27586362873E+02  0.27586362873E+02  0.00000000000E+00 0.  1.
         21   -1    0    0  504  502 -0.00000000000E+00 -0.00000000000E+00 -0.27657216613E+04  0.27657216613E+04  0.00000000000E+00 0.  1.
         25    1    1    2    0    0  0.13274669931E+03  0.19358359086E+03 -0.11684565826E+04  0.11983372139E+04  0.12500000000E+03 0.  0.
         21    1    1    2  503  501  0.10923247816E+02 -0.20706757378E+02 -0.25898567352E+02  0.34911644689E+02  0.00000000000E+00 0. -1.
         21    1    1    2  504  503 -0.14366994713E+03 -0.17287683348E+03 -0.15437801484E+04  0.15600591655E+04  0.00000000000E+00 0.  1.
<mgrwt>
<rscale>  4 0.26007424E+03</rscale>
<asrwt>0</asrwt>
<pdfrwt beam="1">  1       21 0.42440566E-02 0.26007424E+03</pdfrwt>
<pdfrwt beam="2">  1       21 0.42549556E+00 0.26007424E+03</pdfrwt>
<totfact> 0.19568515E+03</totfact>
</mgrwt>
</event>
<event>
 5    0  0.1257040E+001  0.2646228E+03  0.7546771E-02  0.1104397E+00
         21   -1    0    0  502  501  0.00000000000E+00  0.00000000000E+00  0.14501104764E+03  0.14501104764E+03  0.00000000000E+00 0.  1.
         21   -1    0    0  504  502 -0.00000000000E+00 -0.00000000000E+00 -0.12546650129E+04  0.12546650129E+04  0.00000000000E+00 0.  1.
         25    1    1    2    0    0  0.30159686833E+03  0.17661993162E+03 -0.77558903472E+03  0.85983639258E+03  0.12500000000E+03 0.  0.
         21    1    1    2  503  501 -0.17752944479E+03 -0.12068985894E+03 -0.43568982962E+02  0.21904566213E+03  0.00000000000E+00 0.  1.
         21    1    1    2  504  503 -0.12406742353E+03 -0.55930072679E+02 -0.29049594755E+03  0.32079400580E+03  0.00000000000E+00 0.  1.
<mgrwt>
<rscale>  4 0.26462276E+03</rscale>
<asrwt>0</asrwt>
<pdfrwt beam="1">  1       21 0.22309392E-01 0.26462276E+03</pdfrwt>
<pdfrwt beam="2">  1       21 0.19302539E+00 0.26462276E+03</pdfrwt>
<totfact> 0.26337573E+03</totfact>
</mgrwt>
</event>
<event>
 5    0  0.1257040E+001  0.1818020E+03  0.7546771E-02  0.1166070E+00
         21   -1    0    0  502  501  0.00000000000E+00  0.00000000000E+00  0.21539100863E+03  0.21539100863E+03  0.00000000000E+00 0. -1.
         21   -1    0    0  504  502 -0.00000000000E+00 -0.00000000000E+00 -0.17840366208E+04  0.17840366208E+04  0.00000000000E+00 0. -1.
         25    1    1    2    0    0 -0.35898155730E+02 -0.23039175451E+03 -0.31980756149E+03  0.41505531501E+03  0.12500000000E+03 0.  0.
         21    1    1    2  503  501 -0.31368463154E+02  0.12278831878E+03  0.14052239530E+03  0.18922868516E+03  0.00000000000E+00 0. -1.
         21    1    1    2  504  503  0.67266618884E+02  0.10760343574E+03 -0.13893604460E+04  0.13951436293E+04  0.00000000000E+00 0. -1.
<mgrwt>
<rscale>  4 0.18180199E+03</rscale>
<asrwt>0</asrwt>
<pdfrwt beam="1">  1       21 0.33137080E-01 0.18180199E+03</pdfrwt>
<pdfrwt beam="2">  1       21 0.27446716E+00 0.18180199E+03</pdfrwt>
<totfact> 0.42664927E+02</totfact>
</mgrwt>
</event>
<event>
 5    0  0.1257040E+001  0.2867263E+03  0.7546771E-02  0.1092071E+00
         21   -1    0    0  504  501  0.00000000000E+00  0.00000000000E+00  0.20596602894E+04  0.20596602894E+04  0.00000000000E+00 0.  1.
         21   -1    0    0  503  502 -0.00000000000E+00 -0.00000000000E+00 -0.21648018653E+03  0.21648018653E+03  0.00000000000E+00 0.  1.
         25    1    1    2    0    0  0.22382728247E+03  0.30248130818E+03  0.13323323555E+03  0.41829378340E+03  0.12500000000E+03 0.  0.
         21    1    1    2  503  501 -0.10988131602E+03 -0.16419244508E+03  0.72231427142E+02  0.21035788956E+03  0.00000000000E+00 0.  1.
         21    1    1    2  504  502 -0.11394596645E+03 -0.13828886310E+03  0.16377154402E+04  0.16474888030E+04  0.00000000000E+00 0.  1.
<mgrwt>
<rscale>  4 0.28672635E+03</rscale>
<asrwt>0</asrwt>
<pdfrwt beam="1">  1       21 0.31687080E+00 0.28672635E+03</pdfrwt>
<pdfrwt beam="2">  1       21 0.33304645E-01 0.28672635E+03</pdfrwt>
<totfact> 0.20998877E+02</totfact>
</mgrwt>
</event>
<event>
 5    0  0.1257040E+001  0.3992708E+03  0.7546771E-02  0.1044032E+00
         21   -1    0    0  502  501  0.00000000000E+00  0.00000000000E+00  0.32702969272E+03  0.32702969272E+03  0.00000000000E+00 0.  1.
         21   -1    0    0  504  502 -0.00000000000E+00 -0.00000000000E+00 -0.54218577383E+03  0.54218577383E+03  0.00000000000E+00 0.  1.
         25    1    1    2    0    0  0.10536411465E+03 -0.35987520034E+03 -0.20012129443E+03  0.44304095630E+03  0.12500000000E+03 0.  0.
         21    1    1    2  503  501  0.24583391932E+02 -0.31269577729E+01  0.28955894745E+02  0.38112528967E+02  0.00000000000E+00 0. -1.
         21    1    1    2  504  503 -0.12994750658E+03  0.36300215811E+03 -0.43990681427E+02  0.38806198128E+03  0.00000000000E+00 0.  1.
<mgrwt>
<rscale>  4 0.39927082E+03</rscale>
<asrwt>0</asrwt>
<pdfrwt beam="1">  1       21 0.50312261E-01 0.39927082E+03</pdfrwt>
<pdfrwt beam="2">  1       21 0.83413195E-01 0.39927082E+03</pdfrwt>
<totfact> 0.41983627E+03</totfact>
</mgrwt>
</event>
<event>
 5    0  0.1257040E+001  0.2823214E+03  0.7546771E-02  0.1094428E+00
         21   -1    0    0  503  501  0.00000000000E+00  0.00000000000E+00  0.91070424501E+03  0.91070424501E+03  0.00000000000E+00 0. -1.
         21   -1    0    0  504  502 -0.00000000000E+00 -0.00000000000E+00 -0.12346499455E+03  0.12346499455E+03  0.00000000000E+00 0.  1.
         25    1    1    2    0    0  0.21324465129E+03 -0.12885034996E+03  0.63546904501E+03  0.69391757519E+03  0.12500000000E+03 0.  0.
         21    1    1    2  503  502 -0.19784503433E+03  0.16046718768E+03  0.91886938104E+02  0.27080543814E+03  0.00000000000E+00 0.  1.
         21    1    1    2  504  501 -0.15399616958E+02 -0.31616837721E+02  0.59883267345E+02  0.69446226232E+02  0.00000000000E+00 0. -1.
<mgrwt>
<rscale>  4 0.28232136E+03</rscale>
<asrwt>0</asrwt>
<pdfrwt beam="1">  1       21 0.14010834E+00 0.28232136E+03</pdfrwt>
<pdfrwt beam="2">  1       21 0.18994615E-01 0.28232136E+03</pdfrwt>
<totfact> 0.85655551E+03</totfact>
</mgrwt>
</event>
<event>
 5    0  0.1257040E+001  0.2708257E+03  0.7546771E-02  0.1100808E+00
         21   -1    0    0  503  501  0.00000000000E+00  0.00000000000E+00  0.10169793928E+04  0.10169793928E+04  0.00000000000E+00 0. -1.
         21   -1    0    0  501  502 -0.00000000000E+00 -0.00000000000E+00 -0.70030396283E+02  0.70030396283E+02  0.00000000000E+00 0. -1.
         25    1    1    2    0    0 -0.13925364447E+03 -0.19578041409E+03  0.45236090960E+03  0.52723518526E+03  0.12500000000E+03 0.  0.
         21    1    1    2  503  504  0.41543171190E+02  0.14389854484E+03  0.31597548109E+03  0.34967575114E+03  0.00000000000E+00 0. -1.
         21    1    1    2  504  502  0.97710473279E+02  0.51881869248E+02  0.17861260586E+03  0.21009885272E+03  0.00000000000E+00 0. -1.
<mgrwt>
<rscale>  4 0.27082568E+03</rscale>
<asrwt>0</asrwt>
<pdfrwt beam="1">  1       21 0.15645836E+00 0.27082568E+03</pdfrwt>
<pdfrwt beam="2">  1       21 0.10773908E-01 0.27082568E+03</pdfrwt>
<totfact> 0.18132305E+04</totfact>
</mgrwt>
</event>
<event>
 5    0  0.1257040E+001  0.4831850E+03  0.7546771E-02  0.1018263E+00
         21   -1    0    0  504  501  0.00000000000E+00  0.00000000000E+00  0.42275857995E+03  0.42275857995E+03  0.00000000000E+00 0.  1.
         21   -1    0    0  503  502 -0.00000000000E+00 -0.00000000000E+00 -0.92742516684E+03  0.92742516684E+03  0.00000000000E+00 0.  1.
         25    1    1    2    0    0 -0.50343387479E+03 -0.21669723783E+03 -0.48901476785E+03  0.74509315011E+03  0.12500000000E+03 0.  0.
         21    1    1    2  503  501  0.88248711831E+02  0.61847181404E+02 -0.10786851137E+03  0.15247466915E+03  0.00000000000E+00 0.  1.
         21    1    1    2  504  502  0.41518516296E+03  0.15485005642E+03  0.92216692328E+02  0.45261592754E+03  0.00000000000E+00 0.  1.
<mgrwt>
<rscale>  4 0.48318505E+03</rscale>
<asrwt>0</asrwt>
<pdfrwt beam="1">  1       21 0.65039782E-01 0.48318505E+03</pdfrwt>
<pdfrwt beam="2">  1       21 0.14268079E+00 0.48318505E+03</pdfrwt>
<totfact> 0.61224997E+02</totfact>
</mgrwt>
</event>
<event>
 5    0  0.1257040E+001  0.2415705E+03  0.7546771E-02  0.1118751E+00
         21   -1    0    0  502  501  0.00000000000E+00  0.00000000000E+00  0.29941939682E+03  0.29941939682E+03  0.00000000000E+00 0.  1.
         21   -1    0    0  504  502 -0.00000000000E+00 -0.00000000000E+00 -0.39261870388E+03  0.39261870388E+03  0.00000000000E+00 0. -1.
         25    1    1    2    0    0  0.20321384114E+03 -0.10579559762E+03  0.17314593571E+03  0.31319816213E+03  0.12500000000E+03 0.  0.
         21    1    1    2  503  501 -0.10217623456E+03  0.27786637983E+02 -0.29717693118E+02  0.10997827715E+03  0.00000000000E+00 0.  1.
         21    1    1    2  504  503 -0.10103760658E+03  0.78008959633E+02 -0.23662754965E+03  0.26886166142E+03  0.00000000000E+00 0. -1.
<mgrwt>
<rscale>  4 0.24157046E+03</rscale>
<asrwt>0</asrwt>
<pdfrwt beam="1">  1       21 0.46064523E-01 0.24157046E+03</pdfrwt>
<pdfrwt beam="2">  1       21 0.60402877E-01 0.24157046E+03</pdfrwt>
<totfact> 0.11189404E+04</totfact>
</mgrwt>
</event>
<event>
 5    0  0.1257040E+001  0.2601724E+03  0.7546771E-02  0.1107040E+00
         21   -1    0    0  502  501  0.00000000000E+00  0.00000000000E+00  0.70038998573E+03  0.70038998573E+03  0.00000000000E+00 0.  1.
         21   -1    0    0  504  502 -0.00000000000E+00 -0.00000000000E+00 -0.31437233387E+03  0.31437233387E+03  0.00000000000E+00 0. -1.
         25    1    1    2    0    0  0.19899995237E+03 -0.64589587913E+02  0.52536914934E+03  0.57914638822E+03  0.12500000000E+03 0.  0.
         21    1    1    2  503  501  0.20164728333E+02 -0.43747030779E+01  0.10101588135E+03  0.10310170989E+03  0.00000000000E+00 0.  1.
         21    1    1    2  504  503 -0.21916468070E+03  0.68964290991E+02 -0.24036737882E+03  0.33251422150E+03  0.00000000000E+00 0. -1.
<mgrwt>
<rscale>  4 0.26017240E+03</rscale>
<asrwt>0</asrwt>
<pdfrwt beam="1">  1       21 0.10775230E+00 0.26017240E+03</pdfrwt>
<pdfrwt beam="2">  1       21 0.48364975E-01 0.26017240E+03</pdfrwt>
<totfact> 0.26610820E+03</totfact>
</mgrwt>
</event>
<event>
 5    0  0.1257040E+001  0.3502397E+03  0.7546771E-02  0.1062517E+00
         21   -1    0    0  502  501  0.00000000000E+00  0.00000000000E+00  0.28016893769E+03  0.28016893769E+03  0.00000000000E+00 0.  1.
         21   -1    0    0  504  502 -0.00000000000E+00 -0.00000000000E+00 -0.58877870214E+03  0.58877870214E+03  0.00000000000E+00 0.  1.
         25    1    1    2    0    0 -0.15966232265E+03  0.29602118122E+03  0.46317684605E+02  0.36178850854E+03  0.12500000000E+03 0.  0.
         21    1    1    2  503  501 -0.19625753083E+02 -0.25414900428E+02 -0.10293481445E+02  0.33720069812E+02  0.00000000000E+00 0.  1.
         21    1    1    2  504  503  0.17928807573E+03 -0.27060628079E+03 -0.34463396761E+03  0.47343906148E+03  0.00000000000E+00 0.  1.
<mgrwt>
<rscale>  4 0.35023971E+03</rscale>
<asrwt>0</asrwt>
<pdfrwt beam="1">  1       21 0.43102914E-01 0.35023971E+03</pdfrwt>
<pdfrwt beam="2">  1       21 0.90581338E-01 0.35023971E+03</pdfrwt>
<totfact> 0.48846500E+03</totfact>
</mgrwt>
</event>
<event>
 5    0  0.1257040E+001  0.2389746E+03  0.7546771E-02  0.1120478E+00
         21   -1    0    0  502  501  0.00000000000E+00  0.00000000000E+00  0.44343000830E+03  0.44343000830E+03  0.00000000000E+00 0. -1.
         21   -1    0    0  504  502 -0.00000000000E+00 -0.00000000000E+00 -0.17591877131E+03  0.17591877131E+03  0.00000000000E+00 0.  1.
         25    1    1    2    0    0  0.70287247543E+02 -0.19147826171E+03 -0.29111218501E+02  0.24099104738E+03  0.12500000000E+03 0.  0.
         21    1    1    2  503  501 -0.91197324759E+02  0.18231460269E+03  0.29019769030E+03  0.35464103803E+03  0.00000000000E+00 0. -1.
         21    1    1    2  504  503  0.20910077216E+02  0.91636590171E+01  0.64247651893E+01  0.23716694194E+02  0.00000000000E+00 0.  1.
<mgrwt>
<rscale>  4 0.23897464E+03</rscale>
<asrwt>0</asrwt>
<pdfrwt beam="1">  1       21 0.68220001E-01 0.23897464E+03</pdfrwt>
<pdfrwt beam="2">  1       21 0.27064427E-01 0.23897464E+03</pdfrwt>
<totfact> 0.24883013E+04</totfact>
</mgrwt>
</event>
<event>
 5    0  0.1257040E+001  0.2248116E+03  0.7546771E-02  0.1130346E+00
         21   -1    0    0  502  501  0.00000000000E+00  0.00000000000E+00  0.19546012412E+03  0.19546012412E+03  0.00000000000E+00 0.  1.
         21   -1    0    0  504  502 -0.00000000000E+00 -0.00000000000E+00 -0.49946982498E+03  0.49946982498E+03  0.00000000000E+00 0.  1.
         25    1    1    2    0    0  0.74596680704E+02  0.18719630273E+03  0.67741410905E+02  0.24661917865E+03  0.12500000000E+03 0.  0.
         21    1    1    2  503  501 -0.34276624350E+02 -0.65148860778E+01 -0.21713153552E+01  0.34957764915E+02  0.00000000000E+00 0. -1.
         21    1    1    2  504  503 -0.40320056354E+02 -0.18068141665E+03 -0.36957979641E+03  0.41335300554E+03  0.00000000000E+00 0.  1.
<mgrwt>
<rscale>  4 0.22481160E+03</rscale>
<asrwt>0</asrwt>
<pdfrwt beam="1">  1       21 0.30070788E-01 0.22481160E+03</pdfrwt>
<pdfrwt beam="2">  1       21 0.76841512E-01 0.22481160E+03</pdfrwt>
<totfact> 0.15662833E+04</totfact>
</mgrwt>
</event>
<event>
 5    0  0.1257040E+001  0.2616272E+03  0.7546771E-02  0.1106170E+00
         21   -1    0    0  502  501  0.00000000000E+00  0.00000000000E+00  0.80227377967E+03  0.80227377967E+03  0.00000000000E+00 0. -1.
         21   -1    0    0  504  502 -0.00000000000E+00 -0.00000000000E+00 -0.10486586276E+03  0.10486586276E+03  0.00000000000E+00 0. -1.
         25    1    1    2    0    0  0.16633566576E+03 -0.19373520099E+03  0.41063767009E+03  0.49944887416E+03  0.12500000000E+03 0.  0.
         21    1    1    2  503  501 -0.11119981930E+03  0.17907458180E+03  0.27965073245E+03  0.35019657026E+03  0.00000000000E+00 0. -1.
         21    1    1    2  504  503 -0.55135846462E+02  0.14660619191E+02  0.71195143745E+01  0.57494198013E+02  0.00000000000E+00 0.  1.
<mgrwt>
<rscale>  4 0.26162715E+03</rscale>
<asrwt>0</asrwt>
<pdfrwt beam="1">  1       21 0.12342673E+00 0.26162715E+03</pdfrwt>
<pdfrwt beam="2">  1       21 0.16133210E-01 0.26162715E+03</pdfrwt>
<totfact> 0.16235615E+04</totfact>
</mgrwt>
</event>
<event>
 5    0  0.1257040E+001  0.2533953E+03  0.7546771E-02  0.1111178E+00
         21   -1    0    0  502  501  0.00000000000E+00  0.00000000000E+00  0.84985944119E+03  0.84985944119E+03  0.00000000000E+00 0. -1.
         21   -1    0    0  504  502 -0.00000000000E+00 -0.00000000000E+00 -0.18274320466E+03  0.18274320466E+03  0.00000000000E+00 0. -1.
         25    1    1    2    0    0  0.15243116294E+03  0.19028428107E+03  0.61486559818E+03  0.67314788188E+03  0.12500000000E+03 0.  0.
         21    1    1    2  503  501 -0.16787126378E+02 -0.20143031519E+02  0.12677023966E+03  0.12945363260E+03  0.00000000000E+00 0. -1.
         21    1    1    2  504  503 -0.13564403656E+03 -0.17014124955E+03 -0.74519601308E+02  0.23000113137E+03  0.00000000000E+00 0. -1.
<mgrwt>
<rscale>  4 0.25339525E+03</rscale>
<asrwt>0</asrwt>
<pdfrwt beam="1">  1       21 0.13074760E+00 0.25339525E+03</pdfrwt>
<pdfrwt beam="2">  1       21 0.28114340E-01 0.25339525E+03</pdfrwt>
<totfact> 0.49257971E+03</totfact>
</mgrwt>
</event>
<event>
 5    0  0.1257040E+001  0.2444930E+03  0.7546771E-02  0.1116835E+00
         21   -1    0    0  503  501  0.00000000000E+00  0.00000000000E+00  0.87501189872E+03  0.87501189872E+03  0.00000000000E+00 0.  1.
         21   -1    0    0  504  502 -0.00000000000E+00 -0.00000000000E+00 -0.18017864684E+03  0.18017864684E+03  0.00000000000E+00 0.  1.
         25    1    1    2    0    0  0.20893583338E+03 -0.97053338947E+01  0.62423931489E+03  0.67011051195E+03  0.12500000000E+03 0.  0.
         21    1    1    2  503  502 -0.19715282337E+03 -0.78668860185E+02 -0.65710307201E+02  0.22220681762E+03  0.00000000000E+00 0.  1.
         21    1    1    2  504  501 -0.11783010017E+02  0.88374194080E+02  0.13630424419E+03  0.16287321600E+03  0.00000000000E+00 0.  1.
<mgrwt>
<rscale>  4 0.24449302E+03</rscale>
<asrwt>0</asrwt>
<pdfrwt beam="1">  1       21 0.13461721E+00 0.24449302E+03</pdfrwt>
<pdfrwt beam="2">  1       21 0.27719792E-01 0.24449302E+03</pdfrwt>
<totfact> 0.47265983E+03</totfact>
</mgrwt>
</event>
<event>
 5    0  0.1257040E+001  0.2273093E+03  0.7546771E-02  0.1128548E+00
         21   -1    0    0  504  501  0.00000000000E+00  0.00000000000E+00  0.72789186582E+03  0.72789186582E+03  0.00000000000E+00 0. -1.
         21   -1    0    0  503  502 -0.00000000000E+00 -0.00000000000E+00 -0.84808381078E+02  0.84808381078E+02  0.00000000000E+00 0. -1.
         25    1    1    2    0    0  0.16282869589E+03  0.14330849224E+03  0.42007010234E+03  0.48901370025E+03  0.12500000000E+03 0.  0.
         21    1    1    2  503  501 -0.12590161073E+03 -0.12813144917E+03  0.12784816147E+03  0.22048590940E+03  0.00000000000E+00 0. -1.
         21    1    1    2  504  502 -0.36927085159E+02 -0.15177043070E+02  0.95165220920E+02  0.10320063724E+03  0.00000000000E+00 0.  1.
<mgrwt>
<rscale>  4 0.22730926E+03</rscale>
<asrwt>0</asrwt>
<pdfrwt beam="1">  1       21 0.11198336E+00 0.22730926E+03</pdfrwt>
<pdfrwt beam="2">  1       21 0.13047444E-01 0.22730926E+03</pdfrwt>
<totfact> 0.30982356E+04</totfact>
</mgrwt>
</event>
<event>
 5    0  0.1257040E+001  0.2728570E+03  0.7546771E-02  0.1099655E+00
         21   -1    0    0  503  501  0.00000000000E+00  0.00000000000E+00  0.21524954837E+03  0.21524954837E+03  0.00000000000E+00 0. -1.
         21   -1    0    0  504  502 -0.00000000000E+00 -0.00000000000E+00 -0.27578558815E+04  0.27578558815E+04  0.00000000000E+00 0.  1.
         25    1    1    2    0    0 -0.20755920699E+03  0.18311830537E+03  0.68722323991E+02  0.31138544600E+03  0.12500000000E+03 0.  0.
         21    1    1    2  503  502  0.16957759872E+03 -0.17202402681E+03 -0.26110000258E+04  0.26221498741E+04  0.00000000000E+00 0.  1.
         21    1    1    2  504  501  0.37981608271E+02 -0.11094278560E+02 -0.32863131680E+00  0.39570109706E+02  0.00000000000E+00 0. -1.
<mgrwt>
<rscale>  4 0.27285705E+03</rscale>
<asrwt>0</asrwt>
<pdfrwt beam="1">  1       21 0.33115315E-01 0.27285705E+03</pdfrwt>
<pdfrwt beam="2">  1       21 0.42428552E+00 0.27285705E+03</pdfrwt>
<totfact> 0.47229523E+01</totfact>
</mgrwt>
</event>
<event>
 5    0  0.1257040E+001  0.4722607E+03  0.7546771E-02  0.1021284E+00
         21   -1    0    0  502  501  0.00000000000E+00  0.00000000000E+00  0.88734595385E+03  0.88734595385E+03  0.00000000000E+00 0. -1.
         21   -1    0    0  504  502 -0.00000000000E+00 -0.00000000000E+00 -0.51402927752E+03  0.51402927752E+03  0.00000000000E+00 0. -1.
         25    1    1    2    0    0 -0.12097502940E+03  0.46828013094E+03 -0.17642482679E+03  0.52978482262E+03  0.12500000000E+03 0.  0.
         21    1    1    2  503  501  0.53275002565E+02 -0.44716838663E+03  0.62359651067E+03  0.76920114406E+03  0.00000000000E+00 0. -1.
         21    1    1    2  504  503  0.67700026837E+02 -0.21111744315E+02 -0.73855007562E+02  0.10238926469E+03  0.00000000000E+00 0.  1.
<mgrwt>
<rscale>  4 0.47226071E+03</rscale>
<asrwt>0</asrwt>
<pdfrwt beam="1">  1       21 0.13651476E+00 0.47226071E+03</pdfrwt>
<pdfrwt beam="2">  1       21 0.79081428E-01 0.47226071E+03</pdfrwt>
<totfact> 0.44437846E+02</totfact>
</mgrwt>
</event>
<event>
 5    0  0.1257040E+001  0.4970891E+03  0.7546771E-02  0.1015827E+00
         21   -1    0    0  503  501  0.00000000000E+00  0.00000000000E+00  0.33434344985E+03  0.33434344985E+03  0.00000000000E+00 0. -1.
         21   -1    0    0  501  502 -0.00000000000E+00 -0.00000000000E+00 -0.73602471957E+03  0.73602471957E+03  0.00000000000E+00 0. -1.
         25    1    1    2    0    0 -0.41796583066E+03  0.19521069102E+03 -0.29597398238E+03  0.56216389757E+03  0.12500000000E+03 0.  0.
         21    1    1    2  503  504  0.12381591040E+03  0.15319987003E+02  0.17689301164E+02  0.12600790866E+03  0.00000000000E+00 0. -1.
         21    1    1    2  504  502  0.29414992026E+03 -0.21053067802E+03 -0.12339658850E+03  0.38219636318E+03  0.00000000000E+00 0. -1.
<mgrwt>
<rscale>  4 0.49223133E+03</rscale>
<asrwt>0</asrwt>
<pdfrwt beam="1">  1       21 0.51437454E-01 0.49708908E+03</pdfrwt>
<pdfrwt beam="2">  1       21 0.11323457E+00 0.49708908E+03</pdfrwt>
<totfact> 0.18485160E+03</totfact>
</mgrwt>
</event>
<event>
 5    0  0.1257040E+001  0.2887444E+03  0.7546771E-02  0.1091007E+00
         21   -1    0    0  504  501  0.00000000000E+00  0.00000000000E+00  0.86006484482E+02  0.86006484482E+02  0.00000000000E+00 0. -1.
         21   -1    0    0  501  502 -0.00000000000E+00 -0.00000000000E+00 -0.11497337781E+04  0.11497337781E+04  0.00000000000E+00 0. -1.
         25    1    1    2    0    0  0.43554836692E+02 -0.24895702081E+03 -0.62852587625E+03  0.68887328234E+03  0.12500000000E+03 0.  0.
         21    1    1    2  503  502 -0.25139832262E+02 -0.21155071051E+02  0.16774573092E+01  0.32899271426E+02  0.00000000000E+00 0. -1.
         21    1    1    2  504  503 -0.18415004431E+02  0.27011209186E+03 -0.43687887465E+03  0.51396770879E+03  0.00000000000E+00 0. -1.
<mgrwt>
<rscale>  4 0.28874441E+03</rscale>
<asrwt>0</asrwt>
<pdfrwt beam="1">  1       21 0.13231767E-01 0.28874441E+03</pdfrwt>
<pdfrwt beam="2">  1       21 0.17688212E+00 0.28874441E+03</pdfrwt>
<totfact> 0.88179714E+03</totfact>
</mgrwt>
</event>
<event>
 5    0  0.1257040E+001  0.2495915E+03  0.7546771E-02  0.1113563E+00
         21   -1    0    0  504  501  0.00000000000E+00  0.00000000000E+00  0.30934474322E+03  0.30934474322E+03  0.00000000000E+00 0.  1.
         21   -1    0    0  503  502 -0.00000000000E+00 -0.00000000000E+00 -0.46975288244E+03  0.46975288244E+03  0.00000000000E+00 0.  1.
         25    1    1    2    0    0  0.65084475798E+02  0.22488200483E+03  0.18179689846E+03  0.32168776380E+03  0.12500000000E+03 0.  0.
         21    1    1    2  503  501 -0.36629828989E+02 -0.21091858844E+03 -0.36162378182E+03  0.42023821209E+03  0.00000000000E+00 0.  1.
         21    1    1    2  504  502 -0.28454646809E+02 -0.13963416394E+02  0.19418744145E+02  0.37171649769E+02  0.00000000000E+00 0.  1.
<mgrwt>
<rscale>  4 0.24959151E+03</rscale>
<asrwt>0</asrwt>
<pdfrwt beam="1">  1       21 0.47591499E-01 0.24959151E+03</pdfrwt>
<pdfrwt beam="2">  1       21 0.72269674E-01 0.24959151E+03</pdfrwt>
<totfact> 0.70191318E+03</totfact>
</mgrwt>
</event>
<event>
 5    0  0.1257040E+001  0.3086554E+03  0.7546771E-02  0.1080992E+00
         21   -1    0    0  502  501  0.00000000000E+00  0.00000000000E+00  0.26398425589E+03  0.26398425589E+03  0.00000000000E+00 0.  1.
         21   -1    0    0  504  502 -0.00000000000E+00 -0.00000000000E+00 -0.38413671141E+03  0.38413671141E+03  0.00000000000E+00 0.  1.
         25    1    1    2    0    0 -0.14781458286E+03 -0.24040379508E+03  0.33890668073E+02  0.31051040720E+03  0.12500000000E+03 0.  0.
         21    1    1    2  503  501  0.13625156059E+03  0.17732697947E+03 -0.75095726890E+02  0.23589979569E+03  0.00000000000E+00 0.  1.
         21    1    1    2  504  503  0.11563022272E+02  0.63076815612E+02 -0.78947396704E+02  0.10171076442E+03  0.00000000000E+00 0.  1.
<mgrwt>
<rscale>  4 0.30865537E+03</rscale>
<asrwt>0</asrwt>
<pdfrwt beam="1">  1       21 0.40612962E-01 0.30865537E+03</pdfrwt>
<pdfrwt beam="2">  1       21 0.59097956E-01 0.30865537E+03</pdfrwt>
<totfact> 0.14728181E+04</totfact>
</mgrwt>
</event>
<event>
 5    0  0.1257040E+001  0.2478082E+03  0.7546771E-02  0.1114698E+00
         21   -1    0    0  504  501  0.00000000000E+00  0.00000000000E+00  0.23807958318E+04  0.23807958318E+04  0.00000000000E+00 0.  1.
         21   -1    0    0  503  502 -0.00000000000E+00 -0.00000000000E+00 -0.57167522709E+02  0.57167522709E+02  0.00000000000E+00 0.  1.
         25    1    1    2    0    0  0.24079852867E+03  0.80879316144E+02  0.40989016971E+03  0.49815694958E+03  0.12500000000E+03 0.  0.
         21    1    1    2  503  501 -0.13385014773E+03 -0.94557290404E+02  0.61041768132E+03  0.63203377195E+03  0.00000000000E+00 0.  1.
         21    1    1    2  504  502 -0.10694838094E+03  0.13677974260E+02  0.13033204580E+04  0.13077726330E+04  0.00000000000E+00 0.  1.
<mgrwt>
<rscale>  4 0.24780823E+03</rscale>
<asrwt>0</asrwt>
<pdfrwt beam="1">  1       21 0.36627620E+00 0.24780823E+03</pdfrwt>
<pdfrwt beam="2">  1       21 0.87950053E-02 0.24780823E+03</pdfrwt>
<totfact> 0.13260202E+03</totfact>
</mgrwt>
</event>
<event>
 5    0  0.1257040E+001  0.2660435E+03  0.7546771E-02  0.1103566E+00
         21   -1    0    0  502  501  0.00000000000E+00  0.00000000000E+00  0.20419640775E+03  0.20419640775E+03  0.00000000000E+00 0.  1.
         21   -1    0    0  504  502 -0.00000000000E+00 -0.00000000000E+00 -0.40844902169E+03  0.40844902169E+03  0.00000000000E+00 0. -1.
         25    1    1    2    0    0  0.21528834996E+03  0.11228713239E+03  0.11461958472E+02  0.27333834385E+03  0.12500000000E+03 0.  0.
         21    1    1    2  503  501 -0.35582671697E+02  0.17880609437E+02 -0.28276951036E+02  0.48840850512E+02  0.00000000000E+00 0.  1.
         21    1    1    2  504  503 -0.17970567826E+03 -0.13016774183E+03 -0.18743762138E+03  0.29046623508E+03  0.00000000000E+00 0. -1.
<mgrwt>
<rscale>  4 0.26604346E+03</rscale>
<asrwt>0</asrwt>
<pdfrwt beam="1">  1       21 0.31414832E-01 0.26604346E+03</pdfrwt>
<pdfrwt beam="2">  1       21 0.62838311E-01 0.26604346E+03</pdfrwt>
<totfact> 0.21988114E+04</totfact>
</mgrwt>
</event>
<event>
 5    0  0.1257040E+001  0.3834881E+03  0.7546771E-02  0.1049652E+00
         21   -1    0    0  502  501  0.00000000000E+00  0.00000000000E+00  0.69988259523E+03  0.69988259523E+03  0.00000000000E+00 0.  1.
         21   -1    0    0  504  502 -0.00000000000E+00 -0.00000000000E+00 -0.10424790229E+04  0.10424790229E+04  0.00000000000E+00 0. -1.
         25    1    1    2    0    0 -0.11370001527E+03  0.38715644087E+03 -0.77781328860E+03  0.88511937902E+03  0.12500000000E+03 0.  0.
         21    1    1    2  503  501  0.65391583675E+02 -0.35418711515E+03  0.59029577161E+03  0.69150102656E+03  0.00000000000E+00 0.  1.
         21    1    1    2  504  503  0.48308431598E+02 -0.32969325717E+02 -0.15507891068E+03  0.16574121255E+03  0.00000000000E+00 0.  1.
<mgrwt>
<rscale>  4 0.38348805E+03</rscale>
<asrwt>0</asrwt>
<pdfrwt beam="1">  1       21 0.10767425E+00 0.38348805E+03</pdfrwt>
<pdfrwt beam="2">  1       21 0.16038139E+00 0.38348805E+03</pdfrwt>
<totfact> 0.14450039E+02</totfact>
</mgrwt>
</event>
<event>
 5    0  0.1257040E+001  0.2592526E+03  0.7546771E-02  0.1107593E+00
         21   -1    0    0  504  501  0.00000000000E+00  0.00000000000E+00  0.15442302597E+03  0.15442302597E+03  0.00000000000E+00 0.  1.
         21   -1    0    0  501  502 -0.00000000000E+00 -0.00000000000E+00 -0.42796484189E+03  0.42796484189E+03  0.00000000000E+00 0.  1.
         25    1    1    2    0    0  0.13547876417E+03 -0.16631768132E+03 -0.11819347550E+03  0.27497411571E+03  0.12500000000E+03 0.  0.
         21    1    1    2  503  502  0.23246571866E+02 -0.10728460937E+02 -0.49929635336E+01  0.26085104226E+02  0.00000000000E+00 0. -1.
         21    1    1    2  504  503 -0.15872533603E+03  0.17704614225E+03 -0.15035537688E+03  0.28132864792E+03  0.00000000000E+00 0.  1.
<mgrwt>
<rscale>  4 0.25925256E+03</rscale>
<asrwt>0</asrwt>
<pdfrwt beam="1">  1       21 0.23757389E-01 0.25925256E+03</pdfrwt>
<pdfrwt beam="2">  1       21 0.65840744E-01 0.25925256E+03</pdfrwt>
<totfact> 0.34259757E+04</totfact>
</mgrwt>
</event>
