<LesHouchesEvents version="3.0">
  <!--
  <scalesfunctionalform>
    muR  H_T/2 := sum_i mT(i)/2, i=final state
    muF1 H_T/2 := sum_i mT(i)/2, i=final state
    muF2 H_T/2 := sum_i mT(i)/2, i=final state
    QES  H_T/2 := sum_i mT(i)/2, i=final state
  </scalesfunctionalform>
HERWIG6   
  -->
  <header>
       30
  </header>
  <init>
   2212   2212 0.65000000D+04 0.65000000D+04 -1 -1   244800   244800 -4   1
 0.47664384D-04 0.15724394D-05 0.18377366D-05     66
  </init>
  <event>
  7     66 -.18377366E-05 0.15952820E+02 0.75467711E-02 0.93958542E-01
        2 -1    0    0  503    0 0.00000000E+00 0.00000000E+00 0.19391788E+04 0.19391788E+04 0.32000000E+00 0.0000E+00 0.9000E+01
       -2 -1    0    0    0  501 0.00000000E+00 0.00000000E+00 -.15238043E+03 0.15238076E+03 0.32000000E+00 0.0000E+00 0.9000E+01
       23  2    1    2    0    0 0.28740448E+03 -.41443433E+03 0.69160673E+03 0.86085751E+03 0.91644056E+02 0.0000E+00 0.0000E+00
       25  1    1    2    0    0 -.28174418E+03 0.43180074E+03 0.98294908E+03 0.11169806E+04 0.12500000E+03 0.0000E+00 0.9000E+01
        2  1    3    3  502    0 -.21919615E+01 -.34304165E+02 0.54742053E+02 0.64640352E+02 0.32000000E+00 0.0000E+00 0.9000E+01
       -2  1    3    3    0  502 0.28959644E+03 -.38013016E+03 0.63686468E+03 0.79621716E+03 0.32000000E+00 0.0000E+00 0.9000E+01
       21  1    1    2  503  501 -.56603000E+01 -.17366412E+02 0.11224256E+03 0.11372153E+03 0.75000000E+00 0.0000E+00 0.9000E+01
#aMCatNLO 2  0  0  1  2 0.18265576D+02 0.00000000D+00  -5  6  0 0.00000000D+00 0.00000000D+00 0.00000000D+00 0.00000000D+00 0.00000000D+00
  <mgrwgt>
 -.9700838684D-04    3    2    0
 0.526158862855282D+03 0.000000000000000D+00 0.000000000000000D+00 0.526158862855282D+03
 0.526158862855282D+03 0.000000000000000D+00 0.000000000000000D+00 -.526158862855282D+03
 0.529592410932892D+03 -.284607451245905D+03 0.423015901940401D+03 0.699947649368998D+02
 0.349531923950745D+02 -.238194637011193D+01 -.348719268972541D+02 0.265437292765576D-01
 0.487772122382597D+03 0.286989397616017D+03 -.388143975043147D+03 -.700213086661763D+02
 0.000000000000000D+00 -.000000000000000D+00 -.000000000000000D+00 0.000000000000000D+00
 0.558790884056688D+03 0.000000000000000D+00 0.000000000000000D+00 0.558790884056688D+03
 0.528800352212273D+03 0.000000000000000D+00 0.000000000000000D+00 -.528800352212273D+03
 0.535122347746002D+03 -.281744175748802D+03 0.431800740353985D+03 0.699947649368998D+02
 0.343701533385261D+02 -.219551912694826D+01 -.342999479840339D+02 0.265437292765576D-01
 0.482983734797552D+03 0.289599994902168D+03 -.380134380666011D+03 -.700213086661763D+02
 0.351150003868809D+02 -.566030002641785D+01 -.173664117039396D+02 0.299905318444146D+02
-.624397474075D-05 0.000000000000D+00 0.000000000000D+00 0.865809961294D-05 0.000000000000D+00  6 2 -2 25 2 -2 21 2 0.29901268D+00 0.23325890D-01 0.28145235D+06 0.28145235D+06 0.28145235D+06 0.10866084D+01  1  2 13  1  6  1        2 -.105629091212D-03 0.100000000000D+01
-.209362868632D-06 0.000000000000D+00 0.000000000000D+00 0.865809961294D-05 0.000000000000D+00  6 2 -2 25 2 -2 21 2 0.28091106D+00 0.23325890D-01 0.27176400D+06 0.27176400D+06 0.27176400D+06 0.10877423D+01  1  2  8  1  6  1        2 -.411912811458D-05 0.100000000000D+01
0.755341435081D-06 0.000000000000D+00 0.000000000000D+00 0.865809961294D-05 0.163850733734D-06  6 2 -2 25 2 -2 21 2 0.29833298D+00 0.23442994D-01 0.28145235D+06 0.28145235D+06 0.28145235D+06 0.10866084D+01  1  2  1  1  6  1        2 0.127398324872D-04 0.100000000000D+01
  </mgrwgt>
  </event>
  <event>
  7     66 0.18377366E-05 0.77644510E+02 0.75467711E-02 0.91768121E-01
        2 -1    0    0  503    0 0.00000000E+00 0.00000000E+00 0.19470280E+04 0.19470281E+04 0.32000000E+00 0.0000E+00 0.9000E+01
       -2 -1    0    0    0  501 0.00000000E+00 0.00000000E+00 -.32357220E+03 0.32357236E+03 0.32000000E+00 0.0000E+00 0.9000E+01
       23  2    1    2    0    0 0.56578459E+03 -.28241727E+03 0.16613025E+03 0.66051704E+03 0.93871148E+02 0.0000E+00 0.0000E+00
       25  1    1    2    0    0 -.55086071E+03 0.29725620E+03 0.12680751E+04 0.14196649E+04 0.12500000E+03 0.0000E+00 0.9000E+01
        2  1    3    3  502    0 0.28333428E+03 -.18666716E+03 0.11273382E+03 0.35753595E+03 0.32000000E+00 0.0000E+00 0.9000E+01
       -2  1    3    3    0  502 0.28245031E+03 -.95750115E+02 0.53396432E+02 0.30298109E+03 0.32000000E+00 0.0000E+00 0.9000E+01
       21  1    1    2  503  501 -.14923874E+02 -.14838934E+02 0.18925046E+03 0.19041852E+03 0.75000000E+00 0.0000E+00 0.9000E+01
#aMCatNLO 2  0  0  1  2 0.18265576D+02 0.00000000D+00  -5  6  0 0.00000000D+00 0.00000000D+00 0.00000000D+00 0.00000000D+00 0.00000000D+00
  <mgrwgt>
 0.8714948343D-03    1    2    0
 0.753287587316978D+03 0.000000000000000D+00 0.000000000000000D+00 0.753287587316978D+03
 0.753287587316978D+03 0.000000000000000D+00 0.000000000000000D+00 -.753287587316978D+03
 0.755548744848969D+03 -.558331793315709D+03 0.289827644360151D+03 0.399367563755950D+03
 0.385376191353282D+03 0.279512393586572D+03 -.190468350666857D+03 -.184687406413416D+03
 0.365650238431704D+03 0.278819399729137D+03 -.993592936932941D+02 -.214680157342535D+03
 0.000000000000000D+00 -.000000000000000D+00 -.000000000000000D+00 0.000000000000000D+00
 0.834746886717526D+03 0.000000000000000D+00 0.000000000000000D+00 0.834746886717526D+03
 0.754721625183920D+03 0.000000000000000D+00 0.000000000000000D+00 -.754721625183920D+03
 0.752946362727620D+03 -.550860711400364D+03 0.297256203972052D+03 0.399367563755950D+03
 0.386306583639556D+03 0.283334285481133D+03 -.186668211397781D+03 -.184687406413416D+03
 0.367469215412585D+03 0.282450300131726D+03 -.957490588717338D+02 -.214680157342535D+03
 0.827463501216863D+02 -.149238742124953D+02 -.148389337025373D+02 0.800252615336058D+02
0.216246208569D-03 0.000000000000D+00 0.000000000000D+00 0.476561809546D-05 0.664994292371D-07  6 2 -2 25 2 -2 21 2 0.29954212D+00 0.49780241D-01 0.42047931D+06 0.42047931D+06 0.42047931D+06 0.10738679D+01  1  2  1  1  6  1        2 0.871494834288D-03 0.100000000000D+01
  </mgrwgt>
  </event>
  <event>
  7     66 0.18377366E-05 0.45923606E+02 0.75467711E-02 0.92832635E-01
        2 -1    0    0  501    0 0.00000000E+00 0.00000000E+00 0.14506131E+04 0.14506132E+04 0.32000000E+00 0.0000E+00 0.9000E+01
       21 -1    0    0  503  501 0.00000000E+00 0.00000000E+00 -.25575612E+03 0.25575722E+03 0.75000000E+00 0.0000E+00 0.9000E+01
       23  2    1    2    0    0 -.21143259E+03 0.51271688E+03 0.50336267E+03 0.75595825E+03 0.10255030E+03 0.0000E+00 0.0000E+00
       25  1    1    2    0    0 0.12472255E+03 -.49740492E+03 0.68120418E+03 0.86176070E+03 0.12500000E+03 0.0000E+00 0.9000E+01
        2  1    3    3  502    0 -.11688825E+03 0.19270231E+03 0.15482529E+03 0.27343741E+03 0.32000000E+00 0.0000E+00 0.9000E+01
        2  1    1    2  503    0 0.86710041E+02 -.15311957E+02 0.10290170E+02 0.88651436E+02 0.32000000E+00 0.0000E+00 0.9000E+01
       -2  1    3    3    0  502 -.94544340E+02 0.32001457E+03 0.34853739E+03 0.48252085E+03 0.32000000E+00 0.0000E+00 0.9000E+01
#aMCatNLO 2  0  0  0  0 0.00000000D+00 0.00000000D+00  -5  6  0 0.00000000D+00 0.00000000D+00 0.00000000D+00 0.00000000D+00 0.00000000D+00
  <mgrwgt>
 0.5020370777D-04    1    2    0
 0.549104476308753D+03 0.000000000000000D+00 0.000000000000000D+00 0.549104476308753D+03
 0.549104476308753D+03 0.000000000000000D+00 0.000000000000000D+00 -.549104476308753D+03
 0.551430282909265D+03 0.167462567729713D+03 -.504952300377573D+03 0.736873100483431D+02
 0.223870762582901D+03 -.988009372366482D+02 0.189507033842358D+03 -.666601625026594D+02
 0.000000000000000D+00 0.000000000000000D+00 -.000000000000000D+00 -.000000000000000D+00
 0.322907907125341D+03 -.686616304930649D+02 0.315445266535215D+03 -.702714754568371D+01
 0.570316080205730D+03 0.000000000000000D+00 0.000000000000000D+00 0.570316080205730D+03
 0.650523265822020D+03 0.000000000000000D+00 0.000000000000000D+00 -.650523265822020D+03
 0.532937326316058D+03 0.124722552839133D+03 -.497404924515267D+03 0.736873100483431D+02
 0.235032324616783D+03 -.116888460889498D+03 0.192701074363305D+03 -.666601625026594D+02
 0.119106170181584D+03 0.867100405148796D+02 -.153119569208633D+02 -.802071856162900D+02
 0.333763524913325D+03 -.945441324645149D+02 0.320015807072824D+03 -.702714754568371D+01
0.380151910548D-06 0.000000000000D+00 0.000000000000D+00 0.314008394501D-06 0.327802050609D-11  6 2 21 25 2 2 -2 2 0.22317126D+00 0.39347168D-01 0.34512142D+06 0.34512142D+06 0.34512142D+06 0.10800784D+01  1  2  1  6  5  2       -2 0.502037077665D-04 0.100000000000D+01
  </mgrwgt>
  </event>
  <event>
  7     66 0.18377366E-05 0.53390981E+02 0.75467711E-02 0.92785392E-01
        2 -1    0    0  501    0 0.00000000E+00 0.00000000E+00 0.22144967E+04 0.22144967E+04 0.32000000E+00 0.0000E+00 0.9000E+01
       -2 -1    0    0    0  503 0.00000000E+00 0.00000000E+00 -.20315768E+03 0.20315793E+03 0.32000000E+00 0.0000E+00 0.9000E+01
       23  2    1    2    0    0 0.45655544E+03 -.35034739E+03 0.12561593E+04 0.13847403E+04 0.91559899E+02 0.0000E+00 0.0000E+00
       25  1    1    2    0    0 -.40767417E+03 0.34432264E+03 0.79770508E+03 0.96784023E+03 0.12500000E+03 0.0000E+00 0.9000E+01
        2  1    3    3  502    0 0.23891709E+03 -.24023602E+03 0.72782114E+03 0.80281906E+03 0.32000000E+00 0.0000E+00 0.9000E+01
       -2  1    3    3    0  502 0.21763835E+03 -.11011137E+03 0.52833817E+03 0.58192121E+03 0.32000000E+00 0.0000E+00 0.9000E+01
       21  1    1    2  501  503 -.48881271E+02 0.60247436E+01 -.42525374E+02 0.65074159E+02 0.75000000E+00 0.0000E+00 0.9000E+01
#aMCatNLO 2  0  0  0  0 0.00000000D+00 0.00000000D+00  -5  6  0 0.00000000D+00 0.00000000D+00 0.00000000D+00 0.00000000D+00 0.00000000D+00
  <mgrwgt>
 0.4881045763D-03    1    2    0
 0.573116557635167D+03 0.000000000000000D+00 0.000000000000000D+00 0.573116557635167D+03
 0.573116557635167D+03 0.000000000000000D+00 0.000000000000000D+00 -.573116557635167D+03
 0.576275507100503D+03 -.431818144773277D+03 0.347298449862040D+03 -.968779471909474D+02
 0.332154001495426D+03 0.224521820843168D+03 -.238463323078426D+03 0.552401685468656D+02
 0.237803606674405D+03 0.207296323930108D+03 -.108835126783614D+03 0.416377786440817D+02
 0.000000000000000D+00 -.000000000000000D+00 0.000000000000000D+00 -.000000000000000D+00
 0.576580174179066D+03 0.000000000000000D+00 0.000000000000000D+00 0.576580174179066D+03
 0.780275354733228D+03 0.000000000000000D+00 0.000000000000000D+00 -.780275354733228D+03
 0.556566842779152D+03 -.407674173288812D+03 0.344322642680531D+03 -.968779471909474D+02
 0.343288634533634D+03 0.238917352353276D+03 -.240237609718756D+03 0.552401685468656D+02
 0.247435257757968D+03 0.217638092409415D+03 -.110109776603757D+03 0.416377786440817D+02
 0.209564793841540D+03 -.488812714738785D+02 0.602474364198221D+01 -.203695180554162D+03
0.694445913999D-04 0.000000000000D+00 0.000000000000D+00 0.316969722934D-04 0.846388894770D-07  6 2 -2 25 2 -2 21 2 0.34069143D+00 0.31255012D-01 0.34812564D+06 0.34812564D+06 0.34812564D+06 0.10798035D+01  1  2  1  2  6  2       -2 0.488104576321D-03 0.100000000000D+01
  </mgrwgt>
  </event>
  <event>
  7     66 0.18377366E-05 0.53656541E+02 0.75467711E-02 0.94769122E-01
        2 -1    0    0  501    0 0.00000000E+00 0.00000000E+00 0.61997086E+03 0.61997094E+03 0.32000000E+00 0.0000E+00 0.9000E+01
       -2 -1    0    0    0  503 0.00000000E+00 0.00000000E+00 -.50751690E+03 0.50751700E+03 0.32000000E+00 0.0000E+00 0.9000E+01
       23  2    1    2    0    0 -.19987893E+03 0.43726804E+03 0.19657353E+03 0.52731524E+03 0.90913639E+02 0.0000E+00 0.0000E+00
       25  1    1    2    0    0 0.19003534E+03 -.44059695E+03 0.19307122E+02 0.49622260E+03 0.12500000E+03 0.0000E+00 0.9000E+01
        2  1    3    3  502    0 -.13199531E+03 0.31098422E+03 0.18052993E+03 0.38304713E+03 0.32000000E+00 0.0000E+00 0.9000E+01
       -2  1    3    3    0  502 -.67883619E+02 0.12628382E+03 0.16043597E+02 0.14426811E+03 0.32000000E+00 0.0000E+00 0.9000E+01
       21  1    1    2  501  503 0.98435897E+01 0.33289142E+01 -.10342670E+03 0.10395009E+03 0.75000000E+00 0.0000E+00 0.9000E+01
#aMCatNLO 2  0  0  2  2 0.61108206D+03 0.00000000D+00  -5  6  0 0.00000000D+00 0.00000000D+00 0.00000000D+00 0.00000000D+00 0.00000000D+00
  <mgrwgt>
 0.2928139174D-03    1    2    0
 0.500229271153143D+03 0.000000000000000D+00 0.000000000000000D+00 0.500229271153143D+03
 0.500229271153143D+03 0.000000000000000D+00 0.000000000000000D+00 -.500229271153143D+03
 0.503907439727621D+03 0.194991074628712D+03 -.438921020189873D+03 -.873185356237010D+02
 0.352667128346573D+03 -.128525078311944D+03 0.312160346371877D+03 0.102035904534223D+03
 0.143883974232092D+03 -.664659963167684D+02 0.126760673817996D+03 -.147173689105216D+02
 0.000000000000000D+00 0.000000000000000D+00 0.000000000000000D+00 -.000000000000000D+00
 0.500466414460683D+03 0.000000000000000D+00 0.000000000000000D+00 0.500466414460683D+03
 0.628702364135894D+03 0.000000000000000D+00 0.000000000000000D+00 -.628702364135894D+03
 0.503476547802932D+03 0.190035343408612D+03 -.440596953892853D+03 -.873185356237010D+02
 0.352912040084114D+03 -.131996108978031D+03 0.310986510056102D+03 0.102035904534223D+03
 0.144123917183316D+03 -.678828241766406D+02 0.126281529680386D+03 -.147173689105216D+02
 0.128656273526216D+03 0.984358974605964D+01 0.332891415636548D+01 -.128235949675211D+03
0.280410227174D-04 0.000000000000D+00 0.000000000000D+00 0.352336652019D-04 0.212625597766D-05  6 2 -2 25 2 -2 21 2 0.95379937D-01 0.78079367D-01 0.24376348D+06 0.24376348D+06 0.24376348D+06 0.10912854D+01  1  2  1  2  6  2       -2 0.292813917397D-03 0.100000000000D+01
  </mgrwgt>
  </event>
  <event>
  7     66 0.18377366E-05 0.46408904E+02 0.75467711E-02 0.91125831E-01
        2 -1    0    0  503    0 0.00000000E+00 0.00000000E+00 0.14098160E+04 0.14098160E+04 0.32000000E+00 0.0000E+00 0.9000E+01
       -2 -1    0    0    0  501 0.00000000E+00 0.00000000E+00 -.47289566E+03 0.47289577E+03 0.32000000E+00 0.0000E+00 0.9000E+01
       23  2    1    2    0    0 0.15644786E+03 -.65553616E+03 0.63152744E+01 0.68147239E+03 0.10080253E+03 0.0000E+00 0.0000E+00
       25  1    1    2    0    0 -.14405340E+03 0.66279058E+03 0.74557911E+03 0.10156554E+04 0.12500000E+03 0.0000E+00 0.9000E+01
        2  1    3    3  502    0 0.12582942E+03 -.50896116E+03 0.46763813E+02 0.52636628E+03 0.32000000E+00 0.0000E+00 0.9000E+01
       -2  1    3    3    0  502 0.30618446E+02 -.14657499E+03 -.40448539E+02 0.15510611E+03 0.32000000E+00 0.0000E+00 0.9000E+01
       21  1    1    2  503  501 -.12394457E+02 -.72544155E+01 0.18502595E+03 0.18558398E+03 0.75000000E+00 0.0000E+00 0.9000E+01
#aMCatNLO 2  0  0  1  2 0.18265576D+02 0.00000000D+00  -5  6  0 0.00000000D+00 0.00000000D+00 0.00000000D+00 0.00000000D+00 0.00000000D+00
  <mgrwgt>
 0.2092391933D-03    1    2    0
 0.760705497464383D+03 0.000000000000000D+00 0.000000000000000D+00 0.760705497464383D+03
 0.760705497464383D+03 0.000000000000000D+00 0.000000000000000D+00 -.760705497464383D+03
 0.762501149908029D+03 -.150273077734028D+03 0.659150231302604D+03 0.329730159817286D+03
 0.565453878384546D+03 0.121229714664531D+03 -.511657559613289D+03 -.207961502574527D+03
 0.193455966636191D+03 0.290433630694967D+02 -.147492671689316D+03 -.121768657242758D+03
 0.000000000000000D+00 -.000000000000000D+00 -.000000000000000D+00 0.000000000000000D+00
 0.875860491875509D+03 0.000000000000000D+00 0.000000000000000D+00 0.875860491875509D+03
 0.761187283771311D+03 0.000000000000000D+00 0.000000000000000D+00 -.761187283771311D+03
 0.764453863062214D+03 -.144053404973780D+03 0.662790575501093D+03 0.329730159817286D+03
 0.564026996902516D+03 0.125830375046515D+03 -.508964815480863D+03 -.207961502574527D+03
 0.192997915636424D+03 0.306174871689274D+02 -.146571344514406D+03 -.121768657242758D+03
 0.115569000045666D+03 -.123944572416623D+02 -.725441550582431D+01 0.114673208104197D+03
0.587688725703D-04 0.000000000000D+00 0.000000000000D+00 0.366564387447D-06 0.109696024961D-07  6 2 -2 25 2 -2 21 2 0.21689443D+00 0.72753073D-01 0.47477038D+06 0.47477038D+06 0.47477038D+06 0.10701032D+01  1  2  1  1  6  1        2 0.209239193328D-03 0.100000000000D+01
  </mgrwgt>
  </event>
  <event>
  7     66 0.18377366E-05 0.32916815E+02 0.75467711E-02 0.95076260E-01
        2 -1    0    0  501    0 0.00000000E+00 0.00000000E+00 0.12599837E+04 0.12599838E+04 0.32000000E+00 0.0000E+00 0.9000E+01
       -2 -1    0    0    0  503 0.00000000E+00 0.00000000E+00 -.56075025E+03 0.56075035E+03 0.32000000E+00 0.0000E+00 0.9000E+01
       23  2    1    2    0    0 0.24400312E+02 -.46774767E+03 0.55736360E+01 0.47701052E+03 0.90137183E+02 0.0000E+00 0.0000E+00
       25  1    1    2    0    0 -.10801689E+02 0.46065547E+03 0.96251996E+03 0.10744253E+04 0.12500000E+03 0.0000E+00 0.9000E+01
        2  1    3    3  502    0 0.10751722E+01 -.80339462E+02 0.35308597E+02 0.87763230E+02 0.32000000E+00 0.0000E+00 0.9000E+01
       -2  1    3    3    0  502 0.23325140E+02 -.38740821E+03 -.29734961E+02 0.38924729E+03 0.32000000E+00 0.0000E+00 0.9000E+01
       21  1    1    2  501  503 -.13598622E+02 0.70921949E+01 -.26886012E+03 0.26929826E+03 0.75000000E+00 0.0000E+00 0.9000E+01
#aMCatNLO 2  0  0  2  1 0.20806637D+01 0.00000000D+00  -5  6  0 0.00000000D+00 0.00000000D+00 0.00000000D+00 0.00000000D+00 0.00000000D+00
  <mgrwgt>
 0.9191448056D-03    1    2    0
 0.606117313893643D+03 0.000000000000000D+00 0.000000000000000D+00 0.606117313893643D+03
 0.606117313893643D+03 0.000000000000000D+00 0.000000000000000D+00 -.606117313893643D+03
 0.609210893319509D+03 -.176193626836157D+02 0.464211146674842D+03 0.373778653618162D+03
 0.836355705919612D+02 0.134055054904291D+00 -.798449101585935D+02 -.248933930843369D+02
 0.519388163875815D+03 0.174853076287114D+02 -.384366236516248D+03 -.348885260533825D+03
 0.000000000000000D+00 -.000000000000000D+00 0.000000000000000D+00 -.000000000000000D+00
 0.606270979284205D+03 0.000000000000000D+00 0.000000000000000D+00 0.606270979284205D+03
 0.116537943597330D+04 0.000000000000000D+00 0.000000000000000D+00 -.116537943597330D+04
 0.606346124649829D+03 -.108016893183395D+02 0.460655472652968D+03 0.373778653618162D+03
 0.841109015277541D+02 0.107489175625471D+01 -.803355920142036D+02 -.248933930843369D+02
 0.521874617625589D+03 0.233254199613725D+02 -.387412075557443D+03 -.348885260533825D+03
 0.559318771454334D+03 -.135986223992878D+02 0.709219491867767D+01 -.559108456689096D+03
0.288500950478D-03 0.000000000000D+00 0.000000000000D+00 0.992750119344D-05 0.329528724628D-06  6 2 -2 25 2 -2 21 2 0.19384358D+00 0.86269244D-01 0.23099047D+06 0.23099047D+06 0.23099047D+06 0.10930524D+01  1  2  1  2  6  2       -2 0.919144805598D-03 0.100000000000D+01
  </mgrwgt>
  </event>
  <event>
  7     66 0.18377366E-05 0.37401543E+02 0.75467711E-02 0.87094777E-01
        2 -1    0    0  503    0 0.00000000E+00 0.00000000E+00 0.79794493E+03 0.79794499E+03 0.32000000E+00 0.0000E+00 0.9000E+01
       -2 -1    0    0    0  501 0.00000000E+00 0.00000000E+00 -.16427767E+04 0.16427767E+04 0.32000000E+00 0.0000E+00 0.9000E+01
       23  2    1    2    0    0 0.56423852E+03 -.82593873E+03 -.79012179E+03 0.12780509E+04 0.92637171E+02 0.0000E+00 0.0000E+00
       25  1    1    2    0    0 -.49920780E+03 0.84578700E+03 -.19289603E+03 0.10086615E+04 0.12500000E+03 0.0000E+00 0.9000E+01
        2  1    3    3  502    0 0.15098455E+03 -.26439417E+03 -.19664984E+03 0.36245258E+03 0.32000000E+00 0.0000E+00 0.9000E+01
       -2  1    3    3    0  502 0.41325398E+03 -.56154456E+03 -.59347195E+03 0.91559827E+03 0.32000000E+00 0.0000E+00 0.9000E+01
       21  1    1    2  503  501 -.65030722E+02 -.19848261E+02 0.13818605E+03 0.15400940E+03 0.75000000E+00 0.0000E+00 0.9000E+01
#aMCatNLO 2  0  0  1  2 0.24547757D+02 0.00000000D+00  -5  6  0 0.00000000D+00 0.00000000D+00 0.00000000D+00 0.00000000D+00 0.00000000D+00
  <mgrwgt>
 0.9041878094D-04    1    2    0
 0.103175896729247D+04 0.000000000000000D+00 0.000000000000000D+00 0.103175896729247D+04
 0.103175896729247D+04 0.000000000000000D+00 0.000000000000000D+00 -.103175896729247D+04
 0.103346560488071D+04 -.531639670906444D+03 0.835888347987867D+03 0.266600987410141D+03
 0.305756158432216D+03 0.141316018646507D+03 -.267340639792122D+03 -.452282390621774D+02
 0.724296171272016D+03 0.390323652259937D+03 -.568547708195745D+03 -.221372748347964D+03
 0.000000000000000D+00 -.000000000000000D+00 -.000000000000000D+00 0.000000000000000D+00
 0.126369053970428D+04 0.000000000000000D+00 0.000000000000000D+00 0.126369053970428D+04
 0.103731405061555D+04 0.000000000000000D+00 0.000000000000000D+00 -.103731405061555D+04
 0.102531222457246D+04 -.499207801288526D+03 0.845786995940663D+03 0.266600987410141D+03
 0.307804136423781D+03 0.150981416826351D+03 -.264390628737162D+03 -.452282390621774D+02
 0.731521431598050D+03 0.413257106277311D+03 -.561548105942343D+03 -.221372748347964D+03
 0.236366797725541D+03 -.650307218151360D+02 -.198482612611580D+02 0.226376489088725D+03
0.367484744236D-03 0.000000000000D+00 0.000000000000D+00 0.130479155740D-04 0.168065260655D-07  6 2 -2 25 2 -2 21 2 0.12276070D+00 0.25273474D+00 0.10606135D+07 0.10606135D+07 0.10606135D+07 0.10461669D+01  1  2  1  1  6  1        2 0.904187809448D-04 0.100000000000D+01
  </mgrwgt>
  </event>
  <event>
  6     66 0.18377366E-05 0.26612407E+02 0.75467711E-02 0.94634408E-01
        2 -1    0    0  501    0 0.00000000E+00 0.00000000E+00 0.21398800E+04 0.21398800E+04 0.32000000E+00 0.0000E+00 0.9000E+01
       -2 -1    0    0    0  501 0.00000000E+00 0.00000000E+00 -.12197318E+03 0.12197360E+03 0.32000000E+00 0.0000E+00 0.9000E+01
       23  2    1    2    0    0 -.14986352E+03 -.45688302E+03 0.12977946E+04 0.13869892E+04 0.90923123E+02 0.0000E+00 0.0000E+00
       25  1    1    2    0    0 0.14986352E+03 0.45688302E+03 0.72011222E+03 0.87486443E+03 0.12500000E+03 0.0000E+00 0.9000E+01
        2  1    3    3  502    0 0.11493111E+02 -.35533876E+02 0.12244917E+03 0.12801816E+03 0.32000000E+00 0.0000E+00 0.9000E+01
       -2  1    3    3    0  502 -.16135663E+03 -.42134914E+03 0.11753454E+04 0.12589710E+04 0.32000000E+00 0.0000E+00 0.9000E+01
#aMCatNLO 1  0  0  2  1 0.13757862D+02 0.00000000D+00  -5  6  0 0.00000000D+00 0.00000000D+00 0.00000000D+00 0.00000000D+00 0.00000000D+00
  <mgrwgt>
 0.1085501846D-03   11    4    0
 0.510889876198924D+03 0.000000000000000D+00 0.000000000000000D+00 0.510889876198924D+03
 0.510889876198924D+03 0.000000000000000D+00 0.000000000000000D+00 -.510889876198924D+03
 0.514490449438795D+03 0.149863523089425D+03 0.456883017720108D+03 -.133694633886054D+03
 0.415568590480329D+02 0.114952519362392D+02 -.355290971543395D+02 0.182349930698634D+02
 0.465732443911019D+03 -.161358775025664D+03 -.421353920565768D+03 0.115459640816191D+03
 0.000000000000000D+00 -.000000000000000D+00 0.000000000000000D+00 -.000000000000000D+00
 0.513467323692885D+03 0.000000000000000D+00 0.000000000000000D+00 0.513467323692885D+03
 0.529631206499657D+03 0.000000000000000D+00 0.000000000000000D+00 -.529631206499657D+03
 0.510409057746653D+03 0.153542831356654D+03 0.451046283699225D+03 -.133694633886054D+03
 0.420478537445709D+02 0.117953862506774D+02 -.360052203918291D+02 0.182349930698634D+02
 0.469415458801134D+03 -.158001667928424D+03 -.426679525212907D+03 0.115459640816191D+03
 0.212261599001837D+02 -.733654967890814D+01 0.116384619055108D+02 -.161638828067718D+02
 0.510889876198924D+03 0.000000000000000D+00 0.000000000000000D+00 0.510889876198924D+03
 0.510889876198924D+03 0.000000000000000D+00 0.000000000000000D+00 -.510889876198924D+03
 0.514490449438795D+03 0.149863523089425D+03 0.456883017720108D+03 -.133694633886054D+03
 0.415568590480329D+02 0.114952519362392D+02 -.355290971543395D+02 0.182349930698634D+02
 0.000000000000000D+00 -.000000000000000D+00 0.000000000000000D+00 -.000000000000000D+00
 0.465732443911019D+03 -.161358775025664D+03 -.421353920565768D+03 0.115459640816191D+03
 0.513467323692885D+03 0.000000000000000D+00 0.000000000000000D+00 0.513467323692885D+03
 0.529631206499657D+03 0.000000000000000D+00 0.000000000000000D+00 -.529631206499657D+03
 0.510409057746653D+03 0.153542831356654D+03 0.451046283699225D+03 -.133694633886054D+03
 0.420478537445709D+02 0.117953862506774D+02 -.360052203918291D+02 0.182349930698634D+02
 0.212261599001837D+02 -.733654967890814D+01 0.116384619055108D+02 -.161638828067718D+02
 0.469415458801134D+03 -.158001667928424D+03 -.426679525212907D+03 0.115459640816191D+03
0.125333365237D-05 0.000000000000D+00 0.000000000000D+00 0.104101894319D-04 0.000000000000D+00  6 2 -2 25 2 -2 21 0 0.32921234D+00 0.18765139D-01 0.24272974D+06 0.24272974D+06 0.24272974D+06 0.10914246D+01  1  2  2  2  6  2       -2 0.203139026572D-04 0.100000000000D+01
0.314213672022D-06 0.000000000000D+00 -.481313123541D-08 0.104101894319D-04 0.000000000000D+00  6 2 -2 25 2 -2 21 2 0.32921234D+00 0.18765139D-01 0.24272974D+06 0.24272974D+06 0.24272974D+06 0.10914246D+01  1  2  3  2  6  2       -2 0.606651466821D-05 0.100000000000D+01
-.353815220898D-06 0.000000000000D+00 0.000000000000D+00 0.104101894319D-04 0.000000000000D+00  6 2 -2 25 2 -2 21 2 0.32921234D+00 0.18765139D-01 0.24272974D+06 0.24272974D+06 0.24272974D+06 0.10914246D+01  1  2 15  2  6  2       -2 -.683110067618D-05 0.100000000000D+01
0.627641154327D-05 0.000000000000D+00 0.000000000000D+00 0.104101894319D-04 0.000000000000D+00  6 2 -2 25 2 -2 21 2 0.32921234D+00 0.19499821D-01 0.24961445D+06 0.24961445D+06 0.24961445D+06 0.10905095D+01  1  2 12  2  6  2       -2 0.113376930283D-03 0.100000000000D+01
0.823943624544D-09 0.000000000000D+00 0.000000000000D+00 0.104101894319D-04 0.000000000000D+00  6 2 -2 25 2 -2 21 2 0.32921234D+00 0.19536106D-01 0.24961445D+06 0.24961445D+06 0.24961445D+06 0.10905095D+01  1  2 12  2  6  2       -2 0.148376774340D-07 0.100000000000D+01
-.219209683534D-05 0.000000000000D+00 0.000000000000D+00 0.104101894319D-04 0.000000000000D+00  6 2 -2 25 2 -2 21 2 0.32921234D+00 0.18765139D-01 0.24272974D+06 0.24272974D+06 0.24272974D+06 0.10914246D+01  1  2  4  2  6  2       -2 -.423227529220D-04 0.100000000000D+01
-.450722761217D-04 0.000000000000D+00 -.464525552441D-05 0.104101894319D-04 0.000000000000D+00  6 2 -2 25 2 -2 21 2 0.32921234D+00 0.19550128D-01 0.24272974D+06 0.24272974D+06 0.24272974D+06 0.10914246D+01  1  2  5  2  6  2       -2 -.812934762413D-03 0.100000000000D+01
0.452285565997D-04 0.000000000000D+00 0.464135753509D-05 0.104101894319D-04 0.000000000000D+00  6 2 -2 25 2 -2 21 2 0.32921234D+00 0.18765139D-01 0.24272974D+06 0.24272974D+06 0.24272974D+06 0.10914246D+01  1  2  6  2  6  2       -2 0.873226490332D-03 0.100000000000D+01
0.136977275799D-06 0.000000000000D+00 0.000000000000D+00 0.104101894319D-04 0.000000000000D+00  6 2 21 25 2 2 -2 2 0.32921234D+00 0.19499821D-01 0.24961445D+06 0.24961445D+06 0.24961445D+06 0.10905095D+01  3  4 12  6  5  2       -2 0.312331859654D-04 0.100000000000D+01
0.188014593947D-10 0.000000000000D+00 0.000000000000D+00 0.104101894319D-04 0.000000000000D+00  6 2 21 25 2 2 -2 2 0.32921234D+00 0.19536106D-01 0.24961445D+06 0.24961445D+06 0.24961445D+06 0.10905095D+01  3  4 12  6  5  2       -2 0.427224427534D-08 0.100000000000D+01
-.323225079976D-06 0.000000000000D+00 -.335986404837D-07 0.104101894319D-04 0.000000000000D+00  6 2 21 25 2 2 -2 2 0.32921234D+00 0.19550128D-01 0.24272974D+06 0.24272974D+06 0.24272974D+06 0.10914246D+01  3  4  5  6  5  2       -2 -.735973331716D-04 0.100000000000D+01
  </mgrwgt>
  </event>
  <event>
  7     66 0.18377366E-05 0.56076007E+02 0.75467711E-02 0.94377641E-01
        2 -1    0    0  501    0 0.00000000E+00 0.00000000E+00 0.77201291E+03 0.77201297E+03 0.32000000E+00 0.0000E+00 0.9000E+01
       -2 -1    0    0    0  503 0.00000000E+00 0.00000000E+00 -.43314661E+03 0.43314673E+03 0.32000000E+00 0.0000E+00 0.9000E+01
       23  2    1    2    0    0 0.35055258E+03 -.35636622E+03 -.10675640E+02 0.50850066E+03 0.92601119E+02 0.0000E+00 0.0000E+00
       25  1    1    2    0    0 -.35071959E+03 0.34133451E+03 0.39980463E+03 0.64419113E+03 0.12500000E+03 0.0000E+00 0.9000E+01
        2  1    3    3  502    0 0.12771307E+03 -.98991175E+02 -.41019121E+02 0.16671098E+03 0.32000000E+00 0.0000E+00 0.9000E+01
       -2  1    3    3    0  502 0.22283951E+03 -.25737504E+03 0.30343481E+02 0.34178968E+03 0.32000000E+00 0.0000E+00 0.9000E+01
       21  1    1    2  501  503 0.16701167E+00 0.15031710E+02 -.50262690E+02 0.52467902E+02 0.75000000E+00 0.0000E+00 0.9000E+01
#aMCatNLO 2  0  0  2  1 0.13757862D+02 0.00000000D+00  -5  6  0 0.00000000D+00 0.00000000D+00 0.00000000D+00 0.00000000D+00 0.00000000D+00
  <mgrwgt>
 0.3839747577D-03    1    2    0
 0.542459913177065D+03 0.000000000000000D+00 0.000000000000000D+00 0.542459913177065D+03
 0.542459913177065D+03 0.000000000000000D+00 0.000000000000000D+00 -.542459913177065D+03
 0.545709016310547D+03 -.350635949831686D+03 0.348862269347960D+03 0.193708229545488D+03
 0.190483551568962D+03 0.127741355258977D+03 -.963409984834839D+02 -.103366056257026D+03
 0.348727258474621D+03 0.222894594572709D+03 -.252521270864476D+03 -.903421732884626D+02
 0.000000000000000D+00 0.000000000000000D+00 0.000000000000000D+00 -.000000000000000D+00
 0.543286015557355D+03 0.000000000000000D+00 0.000000000000000D+00 0.543286015557355D+03
 0.615499994462103D+03 0.000000000000000D+00 0.000000000000000D+00 -.615499994462103D+03
 0.540981841841970D+03 -.350719587968274D+03 0.341334506934834D+03 0.193708229545488D+03
 0.191816989050976D+03 0.127711931154970D+03 -.989892839812464D+02 -.103366056257026D+03
 0.352225136492374D+03 0.222840645142922D+03 -.257376932484004D+03 -.903421732884626D+02
 0.737620426341373D+02 0.167011670382334D+00 0.150317095304161D+02 -.722139789047484D+02
0.342106593776D-04 0.000000000000D+00 0.000000000000D+00 0.103003914259D-04 0.290875291632D-06  6 2 -2 25 2 -2 21 2 0.11877081D+00 0.66637720D-01 0.26120816D+06 0.26120816D+06 0.26120816D+06 0.10890291D+01  1  2  1  2  6  2       -2 0.383974757657D-03 0.100000000000D+01
  </mgrwgt>
  </event>
  <event>
  7     66 0.18377366E-05 0.66633595E+02 0.75467711E-02 0.90741403E-01
        2 -1    0    0  501    0 0.00000000E+00 0.00000000E+00 0.23270125E+04 0.23270125E+04 0.32000000E+00 0.0000E+00 0.9000E+01
       -2 -1    0    0    0  503 0.00000000E+00 0.00000000E+00 -.25743682E+03 0.25743702E+03 0.32000000E+00 0.0000E+00 0.9000E+01
       23  2    1    2    0    0 -.54264045E+03 0.36395307E+03 0.12903596E+04 0.14494694E+04 0.94937937E+02 0.0000E+00 0.0000E+00
       25  1    1    2    0    0 0.58937733E+03 -.38862218E+03 0.80346032E+03 0.10768316E+04 0.12500000E+03 0.0000E+00 0.9000E+01
        2  1    3    3  502    0 -.23924066E+03 0.21599226E+03 0.65484424E+03 0.72986974E+03 0.32000000E+00 0.0000E+00 0.9000E+01
       -2  1    3    3    0  502 -.30339979E+03 0.14796082E+03 0.63551534E+03 0.71959967E+03 0.32000000E+00 0.0000E+00 0.9000E+01
       21  1    1    2  501  503 -.46736880E+02 0.24669107E+02 -.24244257E+02 0.58148493E+02 0.75000000E+00 0.0000E+00 0.9000E+01
#aMCatNLO 2  0  0  2  1 0.13757862D+02 0.00000000D+00  -5  6  0 0.00000000D+00 0.00000000D+00 0.00000000D+00 0.00000000D+00 0.00000000D+00
  <mgrwgt>
 0.1135024490D-03    1    2    0
 0.706279366156661D+03 0.000000000000000D+00 0.000000000000000D+00 0.706279366156661D+03
 0.706279366156661D+03 0.000000000000000D+00 0.000000000000000D+00 -.706279366156661D+03
 0.708619724887233D+03 0.565513422490175D+03 -.376026104552554D+03 -.159109560296476D+03
 0.346360307295320D+03 -.250498684037661D+03 0.221935730392015D+03 0.892210924640098D+02
 0.357578700130769D+03 -.315014738452514D+03 0.154090374160539D+03 0.698884678324657D+02
 0.000000000000000D+00 -.000000000000000D+00 0.000000000000000D+00 -.000000000000000D+00
 0.711959070081171D+03 0.000000000000000D+00 0.000000000000000D+00 0.711959070081171D+03
 0.841420990684057D+03 0.000000000000000D+00 0.000000000000000D+00 -.841420990684057D+03
 0.734393417740068D+03 0.589377332226770D+03 -.388622181687374D+03 -.159109560296476D+03
 0.334438542936730D+03 -.239239935360476D+03 0.215993029956726D+03 0.892210924640098D+02
 0.344715022270841D+03 -.303400517136792D+03 0.147960044756494D+03 0.698884678324657D+02
 0.139833077817590D+03 -.467368797295020D+02 0.246691069741544D+02 -.129461920602886D+03
0.301439728391D-04 0.000000000000D+00 0.000000000000D+00 0.334415743759D-05 0.741044086252D-08  6 2 -2 25 2 -2 21 2 0.35800143D+00 0.39605627D-01 0.51099053D+06 0.51099053D+06 0.51099053D+06 0.10678437D+01  1  2  1  2  6  2       -2 0.113502448975D-03 0.100000000000D+01
  </mgrwgt>
  </event>
  <event>
  7     66 0.18377366E-05 0.72101932E+02 0.75467711E-02 0.93331283E-01
        4 -1    0    0  503    0 0.00000000E+00 0.00000000E+00 0.66397983E+03 0.66398164E+03 0.15500000E+01 0.0000E+00 0.9000E+01
       -4 -1    0    0    0  501 0.00000000E+00 0.00000000E+00 -.60670822E+03 0.60671020E+03 0.15500000E+01 0.0000E+00 0.9000E+01
       23  2    1    2    0    0 0.31402263E+03 -.42781093E+03 0.24576387E+03 0.59149400E+03 0.88503520E+02 0.0000E+00 0.0000E+00
       25  1    1    2    0    0 -.33532016E+03 0.43402812E+03 -.24867740E+03 0.61504916E+03 0.12500000E+03 0.0000E+00 0.9000E+01
        4  1    3    3  502    0 0.11081394E+03 -.22540187E+03 0.11766701E+03 0.27736918E+03 0.15500000E+01 0.0000E+00 0.9000E+01
       -4  1    3    3    0  502 0.20320869E+03 -.20240906E+03 0.12809686E+03 0.31412482E+03 0.15500000E+01 0.0000E+00 0.9000E+01
       21  1    1    2  503  501 0.21297538E+02 -.62171928E+01 0.60185146E+02 0.64148678E+02 0.75000000E+00 0.0000E+00 0.9000E+01
#aMCatNLO 2  0  0  1  2 0.12832773D+02 0.00000000D+00  -5  6  0 0.00000000D+00 0.00000000D+00 0.00000000D+00 0.00000000D+00 0.00000000D+00
  <mgrwgt>
 0.7753113674D-05    1    2    0
 0.603167821573625D+03 0.000000000000000D+00 0.000000000000000D+00 0.603167821573625D+03
 0.603167821573625D+03 0.000000000000000D+00 0.000000000000000D+00 -.603167821573625D+03
 0.606397489489995D+03 -.324544200910114D+03 0.430882395026639D+03 -.247192917721141D+03
 0.280807387232815D+03 0.115714802724522D+03 -.226847873265361D+03 0.118333915467748D+03
 0.319130766424440D+03 0.208829398185592D+03 -.204034521761279D+03 0.128859002253393D+03
 0.000000000000000D+00 0.000000000000000D+00 -.000000000000000D+00 0.000000000000000D+00
 0.665584639337443D+03 0.000000000000000D+00 0.000000000000000D+00 0.665584639337443D+03
 0.605244629727954D+03 0.000000000000000D+00 0.000000000000000D+00 -.605244629727954D+03
 0.614450455056733D+03 -.335320164032687D+03 0.434028122062415D+03 -.247192917721141D+03
 0.277642835764848D+03 0.110785573793355D+03 -.225408929150767D+03 0.118333915467748D+03
 0.314446357315567D+03 0.203237052512059D+03 -.202402000122281D+03 0.128859002253393D+03
 0.642896209282494D+02 0.212975377272734D+02 -.621719278936667D+01 0.603400096094890D+02
0.506837465449D-04 0.000000000000D+00 0.000000000000D+00 0.538068042784D-05 0.686223362071D-07  6 4 -4 25 4 -4 21 2 0.10215067D+00 0.93339682D-01 0.31512179D+06 0.31512179D+06 0.31512179D+06 0.10829753D+01  1  2  1  1  6  1        4 0.775311367365D-05 0.100000000000D+01
  </mgrwgt>
  </event>
  <event>
  7     66 0.18377366E-05 0.64120857E+02 0.75467711E-02 0.89357043E-01
        2 -1    0    0  503    0 0.00000000E+00 0.00000000E+00 0.15428944E+04 0.15428944E+04 0.32000000E+00 0.0000E+00 0.9000E+01
       -2 -1    0    0    0  501 0.00000000E+00 0.00000000E+00 -.46683510E+03 0.46683521E+03 0.32000000E+00 0.0000E+00 0.9000E+01
       23  2    1    2    0    0 -.39675298E+02 0.78038539E+03 0.55763692E+03 0.96423171E+03 0.90600146E+02 0.0000E+00 0.0000E+00
       25  1    1    2    0    0 0.23200428E+02 -.81053962E+03 0.38237924E+03 0.90518043E+03 0.12500000E+03 0.0000E+00 0.9000E+01
        2  1    3    3  502    0 -.30197651E+02 0.43106966E+03 0.36221639E+03 0.56385616E+03 0.32000000E+00 0.0000E+00 0.9000E+01
       -2  1    3    3    0  502 -.94776478E+01 0.34931572E+03 0.19542053E+03 0.40037555E+03 0.32000000E+00 0.0000E+00 0.9000E+01
       21  1    1    2  503  501 0.16474870E+02 0.30154231E+02 0.13604315E+03 0.14031749E+03 0.75000000E+00 0.0000E+00 0.9000E+01
#aMCatNLO 2  0  0  1  2 0.12832773D+02 0.00000000D+00  -5  6  0 0.00000000D+00 0.00000000D+00 0.00000000D+00 0.00000000D+00 0.00000000D+00
  <mgrwgt>
 0.1762791011D-03    1    2    0
 0.807757806242810D+03 0.000000000000000D+00 0.000000000000000D+00 0.807757806242810D+03
 0.807757806242810D+03 0.000000000000000D+00 0.000000000000000D+00 -.807757806242810D+03
 0.810053238595569D+03 0.315353141556635D+02 -.795284135891406D+03 -.842016420251555D+02
 0.449449849725366D+03 -.256549429967396D+02 0.439385751235693D+03 0.910338010248633D+02
 0.356012524164685D+03 -.588037115892390D+01 0.355898384655714D+03 -.683215899970775D+01
 0.000000000000000D+00 0.000000000000000D+00 0.000000000000000D+00 0.000000000000000D+00
 0.887414952356684D+03 0.000000000000000D+00 0.000000000000000D+00 0.887414952356684D+03
 0.811654581342395D+03 0.000000000000000D+00 0.000000000000000D+00 -.811654581342395D+03
 0.824759145033886D+03 0.232004284052317D+02 -.810539617118810D+03 -.842016420251555D+02
 0.441611822073416D+03 -.301979090920558D+02 0.431070684171907D+03 0.910338010248633D+02
 0.349510028874783D+03 -.947738934451027D+01 0.349314701921730D+03 -.683215899970775D+01
 0.831885377169929D+02 0.164748700313344D+02 0.301542310251731D+02 0.757603710142887D+02
0.592252958107D-04 0.000000000000D+00 0.000000000000D+00 0.328078143537D-04 0.167029213520D-06  6 2 -2 25 2 -2 21 2 0.23736789D+00 0.71820646D-01 0.66943600D+06 0.66943600D+06 0.66943600D+06 0.10596668D+01  1  2  1  1  6  1        2 0.176279101115D-03 0.100000000000D+01
  </mgrwgt>
  </event>
  <event>
  7     66 0.18377366E-05 0.71014153E+02 0.75467711E-02 0.90792890E-01
        2 -1    0    0  503    0 0.00000000E+00 0.00000000E+00 0.17542481E+04 0.17542481E+04 0.32000000E+00 0.0000E+00 0.9000E+01
       -2 -1    0    0    0  501 0.00000000E+00 0.00000000E+00 -.72294680E+03 0.72294687E+03 0.32000000E+00 0.0000E+00 0.9000E+01
       23  2    1    2    0    0 0.54209239E+03 0.44201482E+03 0.23211004E+02 0.70581250E+03 0.91603902E+02 0.0000E+00 0.0000E+00
       25  1    1    2    0    0 -.54637045E+03 -.42194634E+03 -.59055002E+02 0.70403968E+03 0.12500000E+03 0.0000E+00 0.9000E+01
        2  1    3    3  502    0 0.31518204E+03 0.23198393E+03 0.54121305E+02 0.39507655E+03 0.32000000E+00 0.0000E+00 0.9000E+01
       -2  1    3    3    0  502 0.22691035E+03 0.21003089E+03 -.30910302E+02 0.31073595E+03 0.32000000E+00 0.0000E+00 0.9000E+01
       21  1    1    2  503  501 0.42780567E+01 -.20068482E+02 0.10671453E+04 0.10673428E+04 0.75000000E+00 0.0000E+00 0.9000E+01
#aMCatNLO 2  0  0  1  2 0.12832773D+02 0.00000000D+00  -5  6  0 0.00000000D+00 0.00000000D+00 0.00000000D+00 0.00000000D+00 0.00000000D+00
  <mgrwgt>
 0.1286831140D-02    1    2    0
 0.704623542206067D+03 0.000000000000000D+00 0.000000000000000D+00 0.704623542206067D+03
 0.704623542206067D+03 0.000000000000000D+00 0.000000000000000D+00 -.704623542206067D+03
 0.707190063418540D+03 -.544230457623592D+03 -.431985093378470D+03 -.411688461282201D+02
 0.394277028176150D+03 0.316383463612383D+03 0.226353354695190D+03 0.641875199573989D+02
 0.307779992817445D+03 0.227846994011208D+03 0.205631738683280D+03 -.230186738291788D+02
 0.000000000000000D+00 0.000000000000000D+00 -.000000000000000D+00 0.000000000000000D+00
 0.179942936681236D+04 0.000000000000000D+00 0.000000000000000D+00 0.179942936681236D+04
 0.704794384407646D+03 0.000000000000000D+00 0.000000000000000D+00 -.704794384407646D+03
 0.702765433262522D+03 -.546370447802990D+03 -.421946340266972D+03 -.411688461282201D+02
 0.396581775550938D+03 0.315183120709894D+03 0.231984196445416D+03 0.641875199573989D+02
 0.310049254452929D+03 0.226909270427155D+03 0.210030625948168D+03 -.230186738291788D+02
 0.109482728795362D+04 0.427805666594166D+01 -.200684821266122D+02 0.109463498240471D+04
0.152939968460D-02 0.000000000000D+00 0.000000000000D+00 0.366555595824D-04 0.780850745216D-06  6 2 -2 25 2 -2 21 2 0.26988428D+00 0.11122257D+00 0.50596505D+06 0.50596505D+06 0.50596505D+06 0.10681466D+01  1  2  1  1  6  1        2 0.128683114022D-02 0.100000000000D+01
  </mgrwgt>
  </event>
  <event>
  7     66 0.18377366E-05 0.70252501E+02 0.75467711E-02 0.91093107E-01
        2 -1    0    0  503    0 0.00000000E+00 0.00000000E+00 0.50696987E+03 0.50696997E+03 0.32000000E+00 0.0000E+00 0.9000E+01
       -2 -1    0    0    0  501 0.00000000E+00 0.00000000E+00 -.10628390E+04 0.10628391E+04 0.32000000E+00 0.0000E+00 0.9000E+01
       23  2    1    2    0    0 0.61069200E+03 0.27984085E+02 0.79852952E+01 0.61735707E+03 0.85663093E+02 0.0000E+00 0.0000E+00
       25  1    1    2    0    0 -.66150217E+03 0.47589574E+02 -.47558262E+03 0.82562322E+03 0.12500000E+03 0.0000E+00 0.9000E+01
        2  1    3    3  502    0 0.49647784E+03 0.53611792E+02 0.19447510E+02 0.49974271E+03 0.32000000E+00 0.0000E+00 0.9000E+01
       -2  1    3    3    0  502 0.11421416E+03 -.25627708E+02 -.11462215E+02 0.11761436E+03 0.32000000E+00 0.0000E+00 0.9000E+01
       21  1    1    2  503  501 0.50810171E+02 -.75573659E+02 -.88271828E+02 0.12682874E+03 0.75000000E+00 0.0000E+00 0.9000E+01
#aMCatNLO 2  0  0  1  2 0.12832773D+02 0.00000000D+00  -5  6  0 0.00000000D+00 0.00000000D+00 0.00000000D+00 0.00000000D+00 0.00000000D+00
  <mgrwgt>
 0.7787644745D-05    1    2    0
 0.681038146502440D+03 0.000000000000000D+00 0.000000000000000D+00 0.681038146502440D+03
 0.681038146502440D+03 0.000000000000000D+00 0.000000000000000D+00 -.681038146502440D+03
 0.684080132676541D+03 -.635532644890801D+03 0.896321761475176D+01 -.219905766024558D+03
 0.551654159141415D+03 0.516726955191097D+03 0.235028458898960D+02 0.191737271577634D+03
 0.126342001186923D+03 0.118805689699703D+03 -.324660635046478D+02 0.281684944469239D+02
 0.000000000000000D+00 0.000000000000000D+00 -.000000000000000D+00 -.000000000000000D+00
 0.709538810855156D+03 0.000000000000000D+00 0.000000000000000D+00 0.709538810855156D+03
 0.759402370427730D+03 0.000000000000000D+00 0.000000000000000D+00 -.759402370427730D+03
 0.709812249736331D+03 -.661502166545606D+03 0.475895744924640D+02 -.219905766024558D+03
 0.534914070484900D+03 0.496483170574197D+03 0.536128979563822D+02 0.191737271577634D+03
 0.120390846675420D+03 0.114208825468032D+03 -.256288132583355D+02 0.281684944469239D+02
 0.103824014386235D+03 0.508101705033767D+02 -.755736591905107D+02 -.498635595725730D+02
0.406370059994D-05 0.000000000000D+00 0.000000000000D+00 0.107346185258D-05 0.795922452269D-09  6 2 -2 25 2 -2 21 2 0.77995230D-01 0.16351340D+00 0.47773917D+06 0.47773917D+06 0.47773917D+06 0.10699111D+01  1  2  1  1  6  1        2 0.778764474458D-05 0.100000000000D+01
  </mgrwgt>
  </event>
  <event>
  7     66 0.18377366E-05 0.20464286E+03 0.75467711E-02 0.94021576E-01
        2 -1    0    0  501    0 0.00000000E+00 0.00000000E+00 0.11429941E+04 0.11429941E+04 0.32000000E+00 0.0000E+00 0.9000E+01
       21 -1    0    0  503  501 0.00000000E+00 0.00000000E+00 -.65707894E+03 0.65707937E+03 0.75000000E+00 0.0000E+00 0.9000E+01
       23  2    1    2    0    0 -.11025220E+03 -.20631580E+03 0.82496433E+03 0.86234143E+03 0.91350047E+02 0.0000E+00 0.0000E+00
       25  1    1    2    0    0 0.43665611E+03 0.12549451E+03 -.16075619E+02 0.47148792E+03 0.12500000E+03 0.0000E+00 0.9000E+01
        2  1    3    3  502    0 -.60316093E+02 -.36279529E+02 0.17431696E+03 0.18799133E+03 0.32000000E+00 0.0000E+00 0.9000E+01
        2  1    1    2  503    0 -.32640391E+03 0.80821290E+02 -.32297356E+03 0.46624416E+03 0.32000000E+00 0.0000E+00 0.9000E+01
       -2  1    3    3    0  502 -.49936107E+02 -.17003627E+03 0.65064737E+03 0.67435010E+03 0.32000000E+00 0.0000E+00 0.9000E+01
#aMCatNLO 2  0  0  2  1 0.18523879D+01 0.00000000D+00  -5  6  0 0.00000000D+00 0.00000000D+00 0.00000000D+00 0.00000000D+00 0.00000000D+00
  <mgrwgt>
 0.4552984288D-03    1    2    0
 0.502923498277866D+03 0.000000000000000D+00 0.000000000000000D+00 0.502923498277866D+03
 0.502923498277866D+03 0.000000000000000D+00 0.000000000000000D+00 -.502923498277866D+03
 0.506542422924468D+03 0.261043880955835D+03 0.168978081620304D+03 -.379819333854437D+03
 0.125762193639444D+03 -.965257977443247D+02 -.273119873966524D+02 0.758482370478827D+02
 0.000000000000000D+00 -.000000000000000D+00 0.000000000000000D+00 -.000000000000000D+00
 0.373542379991821D+03 -.164518083211510D+03 -.141666094223652D+03 0.303971096806554D+03
 0.565739670908309D+03 0.000000000000000D+00 0.000000000000000D+00 0.565739670908309D+03
 0.132753231547224D+04 0.000000000000000D+00 0.000000000000000D+00 -.132753231547224D+04
 0.605231490095002D+03 0.436656108926571D+03 0.125494512908311D+03 -.379819333854437D+03
 0.103475053014895D+03 -.603162202866994D+02 -.362778872522893D+02 0.758482370478827D+02
 0.832706206484562D+03 -.326403909401251D+03 0.808212901021774D+02 -.761792644563932D+03
 0.351859236786093D+03 -.499359792386204D+02 -.170037915758199D+03 0.303971096806554D+03
0.196856097689D-04 0.000000000000D+00 0.000000000000D+00 0.110970570555D-04 0.100250474488D-09  6 2 21 25 2 2 -2 2 0.17584527D+00 0.10108910D+00 0.27829811D+06 0.27829811D+06 0.27829811D+06 0.10869728D+01  1  2  1  6  5  2       -2 0.455298428848D-03 0.100000000000D+01
  </mgrwgt>
  </event>
  <event>
  7     66 0.18377366E-05 0.22958798E+02 0.75467711E-02 0.91910910E-01
        2 -1    0    0  501    0 0.00000000E+00 0.00000000E+00 0.54516684E+03 0.54516693E+03 0.32000000E+00 0.0000E+00 0.9000E+01
       21 -1    0    0  503  501 0.00000000E+00 0.00000000E+00 -.22822696E+04 0.22822697E+04 0.75000000E+00 0.0000E+00 0.9000E+01
       23  2    1    2    0    0 -.62728018E+03 0.52691198E+02 -.35955734E+03 0.73071401E+03 0.91677129E+02 0.0000E+00 0.0000E+00
       25  1    1    2    0    0 0.58335048E+03 -.60150420E+02 0.10905570E+03 0.60945385E+03 0.12500000E+03 0.0000E+00 0.9000E+01
        2  1    3    3  502    0 -.51523623E+03 0.76621401E+02 -.28172871E+03 0.59220805E+03 0.32000000E+00 0.0000E+00 0.9000E+01
        2  1    1    2  503    0 0.43929707E+02 0.74592228E+01 -.14866011E+04 0.14872688E+04 0.32000000E+00 0.0000E+00 0.9000E+01
       -2  1    3    3    0  502 -.11204395E+03 -.23930203E+02 -.77828631E+02 0.13850596E+03 0.32000000E+00 0.0000E+00 0.9000E+01
#aMCatNLO 2  0  0  2  2 0.80783601D+02 0.00000000D+00  -5  6  0 0.00000000D+00 0.00000000D+00 0.00000000D+00 0.00000000D+00 0.00000000D+00
  <mgrwgt>
 0.4096345258D-04    1    2    0
 0.657896909721892D+03 0.000000000000000D+00 0.000000000000000D+00 0.657896909721892D+03
 0.657896909721892D+03 0.000000000000000D+00 0.000000000000000D+00 -.657896909721892D+03
 0.660640616182272D+03 0.605075147097869D+03 -.564615920868051D+02 0.226973960473900D+03
 0.532780006526786D+03 -.497184025665139D+03 0.796887077232880D+02 -.174104249917919D+03
 0.000000000000000D+00 0.000000000000000D+00 0.000000000000000D+00 -.000000000000000D+00
 0.122373196734726D+03 -.107891121432730D+03 -.232271156364829D+02 -.528697105559807D+02
 0.658677359920368D+03 0.000000000000000D+00 0.000000000000000D+00 0.658677359920368D+03
 0.188896418077237D+04 0.000000000000000D+00 0.000000000000000D+00 -.188896418077237D+04
 0.641138075827508D+03 0.583350478245150D+03 -.601504203954217D+02 0.226973960473900D+03
 0.549232876743851D+03 -.515241143766480D+03 0.766226260777707D+02 -.174104249917919D+03
 0.123109346545537D+04 0.439297065776963D+02 0.745922279928086D+01 -.123028682085201D+04
 0.126177122666015D+03 -.112039041056366D+03 -.239314284816299D+02 -.528697105559807D+02
0.576449169813D-04 0.000000000000D+00 0.000000000000D+00 0.175524509021D-04 0.539147479979D-08  6 2 21 25 2 2 -2 2 0.83871835D-01 0.35111841D+00 0.40937571D+06 0.40937571D+06 0.40937571D+06 0.10747030D+01  1  2  1  6  5  2       -2 0.409634525811D-04 0.100000000000D+01
  </mgrwgt>
  </event>
  <event>
  6     66 -.18377366E-05 0.17772101E+02 0.75467711E-02 0.93971743E-01
        2 -1    0    0  501    0 0.00000000E+00 0.00000000E+00 0.39055609E+04 0.39055609E+04 0.32000000E+00 0.0000E+00 0.9000E+01
       -2 -1    0    0    0  501 0.00000000E+00 0.00000000E+00 -.72536431E+02 0.72537137E+02 0.32000000E+00 0.0000E+00 0.9000E+01
       23  2    1    2    0    0 -.35326757E+03 0.38225775E+03 0.19775527E+04 0.20469535E+04 0.91568548E+02 0.0000E+00 0.0000E+00
       25  1    1    2    0    0 0.35326757E+03 -.38225775E+03 0.18554717E+04 0.19311446E+04 0.12500000E+03 0.0000E+00 0.9000E+01
        2  1    3    3  502    0 -.81542357E+00 0.18807126E+02 0.12730831E+03 0.12869298E+03 0.32000000E+00 0.0000E+00 0.9000E+01
       -2  1    3    3    0  502 -.35245214E+03 0.36345063E+03 0.18502444E+04 0.19182605E+04 0.32000000E+00 0.0000E+00 0.9000E+01
#aMCatNLO 1  0  0  4  2 0.28065642D+01 0.00000000D+00  -5  6  0 0.00000000D+00 0.00000000D+00 0.00000000D+00 0.00000000D+00 0.00000000D+00
  <mgrwgt>
 -.7118529031D-03    7    2    0
 0.532256403096807D+03 0.000000000000000D+00 0.000000000000000D+00 0.532256403096807D+03
 0.532256403096807D+03 -.000000000000000D+00 -.000000000000000D+00 -.532256403096807D+03
 0.535657114208934D+03 0.353267568378589D+03 -.382257751347706D+03 -.196107284188224D+02
 0.225183809682723D+02 -.811129069967476D+00 0.188029169501428D+02 0.123640553715250D+02
 0.506337311016408D+03 -.352456439308622D+03 0.363454834397563D+03 0.724667304729738D+01
 0.000000000000000D+00 0.000000000000000D+00 0.000000000000000D+00 0.000000000000000D+00
 0.532256403096807D+03 0.000000000000000D+00 0.000000000000000D+00 0.532256403096807D+03
 0.532256403096807D+03 -.000000000000000D+00 -.000000000000000D+00 -.532256403096807D+03
 0.535059060002379D+03 0.353233867315275D+03 -.381476521432406D+03 -.190970224892438D+02
 0.193480999676377D+02 -.272077488449548D+01 0.148603486782067D+02 0.120878614133237D+02
 0.506897602886001D+03 -.352488331134680D+03 0.364194124085188D+03 0.773280074001774D+01
 0.320804333759723D+01 0.197523870390031D+01 0.242204866901156D+01 -.723639664097768D+00
0.174032310761D-04 0.000000000000D+00 0.000000000000D+00 0.689546463945D-05 0.000000000000D+00  6 2 -2 25 2 -2 21 0 0.60085558D+00 0.11159506D-01 0.28111409D+06 0.28111409D+06 0.28111409D+06 0.10866473D+01  1  2  2  3  6  4        2 0.465575728471D-04 0.100000000000D+01
0.628907015369D-05 0.000000000000D+00 -.668329897082D-07 0.689546463945D-05 0.000000000000D+00  6 2 -2 25 2 -2 21 2 0.60085558D+00 0.11159506D-01 0.28111409D+06 0.28111409D+06 0.28111409D+06 0.10866473D+01  1  2  3  3  6  4        2 0.198666245229D-04 0.100000000000D+01
-.497220344506D-05 0.000000000000D+00 0.000000000000D+00 0.689546463945D-05 0.000000000000D+00  6 2 -2 25 2 -2 21 2 0.60085558D+00 0.11159506D-01 0.28111409D+06 0.28111409D+06 0.28111409D+06 0.10866473D+01  1  2 15  3  6  4        2 -.157067573553D-04 0.100000000000D+01
-.306903221166D-03 0.000000000000D+00 0.000000000000D+00 0.689546463945D-05 0.000000000000D+00  6 2 -2 25 2 -2 21 2 0.60085558D+00 0.11159506D-01 0.28111409D+06 0.28111409D+06 0.28111409D+06 0.10866473D+01  1  2  4  3  6  4        2 -.969480529042D-03 0.100000000000D+01
-.110727313989D-03 0.000000000000D+00 0.000000000000D+00 0.689546463945D-05 0.000000000000D+00  6 2 -2 25 2 -2 21 2 0.60085558D+00 0.11159506D-01 0.28111409D+06 0.28111409D+06 0.28111409D+06 0.10866473D+01  1  2  5  3  6  4        2 -.349777935002D-03 0.100000000000D+01
0.172510785904D-03 0.000000000000D+00 -.000000000000D+00 0.689546463945D-05 0.000000000000D+00  6 2 -2 25 2 -2 21 2 0.60085558D+00 0.11159506D-01 0.28111409D+06 0.28111409D+06 0.28111409D+06 0.10866473D+01  1  2  6  3  6  4        2 0.544946538351D-03 0.100000000000D+01
0.371642488045D-05 0.000000000000D+00 0.000000000000D+00 0.689546463945D-05 0.112775466732D-06  6 2 -2 25 2 -2 21 2 0.60085558D+00 0.11159506D-01 0.28078845D+06 0.28078845D+06 0.28078845D+06 0.10866848D+01  1  2 11  3  6  4        2 0.117415826100D-04 0.100000000000D+01
  </mgrwgt>
  </event>
  <event>
  7     66 0.18377366E-05 0.39833795E+02 0.75467711E-02 0.86062833E-01
        2 -1    0    0  501    0 0.00000000E+00 0.00000000E+00 0.14965334E+04 0.14965334E+04 0.32000000E+00 0.0000E+00 0.9000E+01
       21 -1    0    0  503  501 0.00000000E+00 0.00000000E+00 -.94717553E+03 0.94717583E+03 0.75000000E+00 0.0000E+00 0.9000E+01
       23  2    1    2    0    0 -.91294782E+03 -.60555586E+03 0.41236232E+03 0.11741860E+04 0.92187120E+02 0.0000E+00 0.0000E+00
       25  1    1    2    0    0 0.96664119E+03 0.60220228E+03 0.22382726E+03 0.11673759E+04 0.12500000E+03 0.0000E+00 0.9000E+01
        2  1    3    3  502    0 -.33066961E+03 -.18179830E+03 0.17472770E+03 0.41583997E+03 0.32000000E+00 0.0000E+00 0.9000E+01
        2  1    1    2  503    0 -.53693372E+02 0.33535836E+01 -.86831748E+02 0.10214734E+03 0.32000000E+00 0.0000E+00 0.9000E+01
       -2  1    3    3    0  502 -.58227821E+03 -.42375756E+03 0.23763461E+03 0.75834603E+03 0.32000000E+00 0.0000E+00 0.9000E+01
#aMCatNLO 2  0  0  2  2 0.80783601D+02 0.00000000D+00  -5  6  0 0.00000000D+00 0.00000000D+00 0.00000000D+00 0.00000000D+00 0.00000000D+00
  <mgrwgt>
 0.1523530104D-04    1    2    0
 0.112641917268245D+04 0.000000000000000D+00 0.000000000000000D+00 0.112641917268245D+04
 0.112641917268245D+04 0.000000000000000D+00 0.000000000000000D+00 -.112641917268245D+04
 0.112800085182111D+04 0.939500721391071D+03 0.603897418632381D+03 -.969908448461006D+02
 0.390481121424558D+03 -.339879863506807D+03 -.181219941441087D+03 0.641600919237441D+02
 0.000000000000000D+00 -.000000000000000D+00 0.000000000000000D+00 -.000000000000000D+00
 0.734356372119222D+03 -.599620857884264D+03 -.422677477191293D+03 0.328307529223565D+02
 0.113253531824189D+04 0.000000000000000D+00 0.000000000000000D+00 0.113253531824189D+04
 0.125159866293131D+04 0.000000000000000D+00 0.000000000000000D+00 -.125159866293131D+04
 0.114981520469459D+04 0.966641193991280D+03 0.602202277513145D+03 -.969908448461006D+02
 0.382761628440323D+03 -.330666576241583D+03 -.181795385440043D+03 0.641600919237441D+02
 0.130653376615265D+03 -.536933724908714D+02 0.335358359010423D+01 -.119063344689418D+03
 0.720903771423013D+03 -.582281245258826D+03 -.423760475663205D+03 0.328307529223565D+02
0.364141332028D-05 0.000000000000D+00 0.000000000000D+00 0.209132916953D-04 0.356133053996D-09  6 2 21 25 2 2 -2 2 0.23023589D+00 0.14571931D+00 0.13190716D+07 0.13190716D+07 0.13190716D+07 0.10399507D+01  1  2  1  6  5  2       -2 0.152353010359D-04 0.100000000000D+01
  </mgrwgt>
  </event>
  <event>
  7     66 0.18377366E-05 0.41622690E+02 0.75467711E-02 0.91975707E-01
        2 -1    0    0  501    0 0.00000000E+00 0.00000000E+00 0.19360740E+04 0.19360740E+04 0.32000000E+00 0.0000E+00 0.9000E+01
       -2 -1    0    0    0  503 0.00000000E+00 0.00000000E+00 -.27557555E+03 0.27557574E+03 0.32000000E+00 0.0000E+00 0.9000E+01
       23  2    1    2    0    0 -.50793624E+03 0.37016410E+03 0.48822284E+03 0.80106332E+03 0.91215214E+02 0.0000E+00 0.0000E+00
       25  1    1    2    0    0 0.48260661E+03 -.36203865E+03 0.12138275E+04 0.13612433E+04 0.12500000E+03 0.0000E+00 0.9000E+01
        2  1    3    3  502    0 -.12791207E+03 0.10935649E+03 0.84363176E+02 0.18824874E+03 0.32000000E+00 0.0000E+00 0.9000E+01
       -2  1    3    3    0  502 -.38002416E+03 0.26080761E+03 0.40385967E+03 0.61281458E+03 0.32000000E+00 0.0000E+00 0.9000E+01
       21  1    1    2  501  503 0.25329624E+02 -.81254482E+01 -.41551951E+02 0.49343084E+02 0.75000000E+00 0.0000E+00 0.9000E+01
#aMCatNLO 2  0  0  2  2 0.80783601D+02 0.00000000D+00  -5  6  0 0.00000000D+00 0.00000000D+00 0.00000000D+00 0.00000000D+00 0.00000000D+00
  <mgrwgt>
 0.2842187883D-03    1    2    0
 0.666687141835241D+03 0.000000000000000D+00 0.000000000000000D+00 0.666687141835241D+03
 0.666687141835241D+03 0.000000000000000D+00 0.000000000000000D+00 -.666687141835241D+03
 0.669426352015022D+03 0.495212929764567D+03 -.366082613259445D+03 0.230768965060882D+03
 0.194490093042309D+03 -.124185649335382D+03 0.108160230845538D+03 -.103468281391910D+03
 0.469457838613150D+03 -.371027280429185D+03 0.257922382413907D+03 -.127300683668972D+03
 0.000000000000000D+00 0.000000000000000D+00 -.000000000000000D+00 -.000000000000000D+00
 0.668163157258830D+03 0.000000000000000D+00 0.000000000000000D+00 0.668163157258830D+03
 0.798507368089427D+03 0.000000000000000D+00 0.000000000000000D+00 -.798507368089427D+03
 0.657921307661378D+03 0.482606614763991D+03 -.362038654325237D+03 0.230768965060882D+03
 0.197547020393817D+03 -.127908971788143D+03 0.109354629295608D+03 -.103468281391910D+03
 0.478171275854194D+03 -.380027267006631D+03 0.260809473219265D+03 -.127300683668972D+03
 0.133030921438868D+03 0.253296240307834D+02 -.812544818963600D+01 -.130344210830596D+03
0.506435677694D-04 0.000000000000D+00 0.000000000000D+00 0.222119306554D-04 0.197198065419D-06  6 2 -2 25 2 -2 21 2 0.29785708D+00 0.42396188D-01 0.40444537D+06 0.40444537D+06 0.40444537D+06 0.10750818D+01  1  2  1  2  6  2       -2 0.284218788303D-03 0.100000000000D+01
  </mgrwgt>
  </event>
  <event>
  6     66 -.18377366E-05 0.22904554E+02 0.75467711E-02 0.95321038E-01
        2 -1    0    0  501    0 0.00000000E+00 0.00000000E+00 0.17476765E+03 0.17476795E+03 0.32000000E+00 0.0000E+00 0.9000E+01
       -2 -1    0    0    0  501 0.00000000E+00 0.00000000E+00 -.13086042E+04 0.13086042E+04 0.32000000E+00 0.0000E+00 0.9000E+01
       23  2    1    2    0    0 -.13342354E+03 -.44224873E+03 -.48246314E+03 0.67510361E+03 0.98022506E+02 0.0000E+00 0.0000E+00
       25  1    1    2    0    0 0.13342354E+03 0.44224873E+03 -.65137337E+03 0.80826855E+03 0.12500000E+03 0.0000E+00 0.9000E+01
        2  1    3    3  502    0 -.12172221E+03 -.41973664E+03 -.41359928E+03 0.60171390E+03 0.32000000E+00 0.0000E+00 0.9000E+01
       -2  1    3    3    0  502 -.11701332E+02 -.22512087E+02 -.68863864E+02 0.73389708E+02 0.32000000E+00 0.0000E+00 0.9000E+01
#aMCatNLO 1  0  0  1  2 0.43764948D+02 0.00000000D+00  -5  6  0 0.00000000D+00 0.00000000D+00 0.00000000D+00 0.00000000D+00 0.00000000D+00
  <mgrwgt>
 -.1569061213D-03    7    2    0
 0.478227902672069D+03 0.000000000000000D+00 0.000000000000000D+00 0.478227902672069D+03
 0.478227902672069D+03 0.000000000000000D+00 0.000000000000000D+00 -.478227902672069D+03
 0.481373156236645D+03 0.133423540441392D+03 0.442248732485979D+03 -.520512537395458D+02
 0.442901655017417D+03 -.121723381600762D+03 -.419740877847439D+03 0.718532522068691D+02
 0.321809940900758D+02 -.117001588406299D+02 -.225078546385400D+02 -.198019984673233D+02
 0.000000000000000D+00 0.000000000000000D+00 0.000000000000000D+00 0.000000000000000D+00
 0.703304421997211D+03 0.000000000000000D+00 0.000000000000000D+00 0.703304421997211D+03
 0.479565668653227D+03 0.000000000000000D+00 0.000000000000000D+00 -.479565668653227D+03
 0.467172869514559D+03 0.124941809348771D+03 0.429308398789569D+03 -.520512537395458D+02
 0.456770335027998D+03 -.129768089695011D+03 -.432014458098098D+03 0.718532522068691D+02
 0.330217010199244D+02 -.122831898285033D+02 -.233973682833423D+02 -.198019984673233D+02
 0.225905185087957D+03 0.171094701747428D+02 0.261034275918706D+02 0.223738753343983D+03
0.123151006607D-05 0.000000000000D+00 0.000000000000D+00 0.448832223330D-06 0.000000000000D+00  6 2 -2 25 2 -2 21 0 0.26887357D-01 0.20132374D+00 0.22134779D+06 0.22134779D+06 0.22134779D+06 0.10944585D+01  1  2  2  1  6  1        2 0.377266644867D-05 0.100000000000D+01
0.330490026237D-06 0.000000000000D+00 -.472932291777D-08 0.448832223330D-06 0.000000000000D+00  6 2 -2 25 2 -2 21 2 0.26887357D-01 0.20132374D+00 0.22134779D+06 0.22134779D+06 0.22134779D+06 0.10944585D+01  1  2  3  1  6  1        2 0.121273922998D-05 0.100000000000D+01
-.316612587507D-06 0.000000000000D+00 0.000000000000D+00 0.448832223330D-06 0.000000000000D+00  6 2 -2 25 2 -2 21 2 0.26887357D-01 0.20132374D+00 0.22134779D+06 0.22134779D+06 0.22134779D+06 0.10944585D+01  1  2 15  1  6  1        2 -.116181571331D-05 0.100000000000D+01
-.546438115691D-04 0.000000000000D+00 0.000000000000D+00 0.448832223330D-06 0.000000000000D+00  6 2 -2 25 2 -2 21 2 0.26887357D-01 0.20132374D+00 0.22134779D+06 0.22134779D+06 0.22134779D+06 0.10944585D+01  1  2  4  1  6  1        2 -.200516471616D-03 0.100000000000D+01
-.624990424273D-04 0.000000000000D+00 -.863816540001D-06 0.448832223330D-06 0.000000000000D+00  6 2 -2 25 2 -2 21 2 0.39588907D-01 0.20132374D+00 0.22134779D+06 0.22134779D+06 0.22134779D+06 0.10944585D+01  1  2  5  1  6  1        2 -.147812845967D-03 0.100000000000D+01
0.584636479664D-04 0.000000000000D+00 0.802966714108D-06 0.448832223330D-06 0.000000000000D+00  6 2 -2 25 2 -2 21 2 0.26887357D-01 0.20132374D+00 0.22134779D+06 0.22134779D+06 0.22134779D+06 0.10944585D+01  1  2  6  1  6  1        2 0.214533431534D-03 0.100000000000D+01
-.287513128453D-05 0.000000000000D+00 -.401273097117D-07 0.448832223330D-06 0.000000000000D+00  6 21 -2 25 2 -2 -2 2 0.39588907D-01 0.20132374D+00 0.22134779D+06 0.22134779D+06 0.22134779D+06 0.10944585D+01  1  2  5  5  6  1        2 -.269338252144D-04 0.100000000000D+01
  </mgrwgt>
  </event>
  <event>
  7     66 0.18377366E-05 0.43692015E+02 0.75467711E-02 0.93960049E-01
        2 -1    0    0  503    0 0.00000000E+00 0.00000000E+00 0.68823630E+03 0.68823637E+03 0.32000000E+00 0.0000E+00 0.9000E+01
       -2 -1    0    0    0  501 0.00000000E+00 0.00000000E+00 -.46246154E+03 0.46246165E+03 0.32000000E+00 0.0000E+00 0.9000E+01
       23  2    1    2    0    0 0.18680240E+03 -.47917131E+03 0.28147393E+03 0.59327711E+03 0.90828809E+02 0.0000E+00 0.0000E+00
       25  1    1    2    0    0 -.15787988E+03 0.46465678E+03 -.85310137E+02 0.51355116E+03 0.12500000E+03 0.0000E+00 0.9000E+01
        2  1    3    3  502    0 0.93468207E+02 -.35310067E+03 0.20300393E+03 0.41788406E+03 0.32000000E+00 0.0000E+00 0.9000E+01
       -2  1    3    3    0  502 0.93334196E+02 -.12607064E+03 0.78470001E+02 0.17539305E+03 0.32000000E+00 0.0000E+00 0.9000E+01
       21  1    1    2  503  501 -.28922528E+02 0.14514527E+02 0.29610961E+02 0.43869757E+02 0.75000000E+00 0.0000E+00 0.9000E+01
#aMCatNLO 2  0  0  1  2 0.43764948D+02 0.00000000D+00  -5  6  0 0.00000000D+00 0.00000000D+00 0.00000000D+00 0.00000000D+00 0.00000000D+00
  <mgrwgt>
 0.8826339948D-04    1    2    0
 0.544412848588519D+03 0.000000000000000D+00 0.000000000000000D+00 0.544412848588519D+03
 0.544412848588519D+03 0.000000000000000D+00 0.000000000000000D+00 -.544412848588519D+03
 0.547799583294950D+03 -.172286803747686D+03 0.471886774387679D+03 -.179163369220715D+03
 0.381032915771184D+03 0.832558517677274D+02 -.347978502614478D+03 0.131017204082922D+03
 0.159993198110903D+03 0.890309519799582D+02 -.123908271773201D+03 0.481461651377935D+02
 0.000000000000000D+00 -.000000000000000D+00 0.000000000000000D+00 0.000000000000000D+00
 0.575364623068335D+03 0.000000000000000D+00 0.000000000000000D+00 0.575364623068335D+03
 0.553177630036065D+03 0.000000000000000D+00 0.000000000000000D+00 -.553177630036065D+03
 0.537174543012555D+03 -.157879875359710D+03 0.464656778436118D+03 -.179163369220715D+03
 0.388051397269299D+03 0.934682083148819D+02 -.353103487934281D+03 0.131017204082922D+03
 0.164080528506495D+03 0.933341946643630D+02 -.126067817954662D+03 0.481461651377935D+02
 0.392357843160497D+02 -.289225276195350D+02 0.145145274528247D+02 0.221869930322701D+02
0.790564227691D-05 0.000000000000D+00 0.000000000000D+00 0.259087006469D-04 0.156124444309D-06  6 2 -2 25 2 -2 21 2 0.10588184D+00 0.71147487D-01 0.28137648D+06 0.28137648D+06 0.28137648D+06 0.10866171D+01  1  2  1  1  6  1        2 0.882633994771D-04 0.100000000000D+01
  </mgrwgt>
  </event>
  <event>
  7     66 0.18377366E-05 0.54641850E+02 0.75467711E-02 0.95094007E-01
        2 -1    0    0  501    0 0.00000000E+00 0.00000000E+00 0.48859355E+03 0.48859366E+03 0.32000000E+00 0.0000E+00 0.9000E+01
       -2 -1    0    0    0  503 0.00000000E+00 0.00000000E+00 -.58302420E+03 0.58302428E+03 0.32000000E+00 0.0000E+00 0.9000E+01
       23  2    1    2    0    0 0.39481077E+03 0.24630177E+03 0.17298965E+03 0.50473951E+03 0.91084862E+02 0.0000E+00 0.0000E+00
       25  1    1    2    0    0 -.38492122E+03 -.24992811E+03 -.23067132E+03 0.52864228E+03 0.12500000E+03 0.0000E+00 0.9000E+01
        2  1    3    3  502    0 0.94133939E+02 0.10594342E+03 0.63708739E+02 0.15538376E+03 0.32000000E+00 0.0000E+00 0.9000E+01
       -2  1    3    3    0  502 0.30067683E+03 0.14035834E+03 0.10928091E+03 0.34935575E+03 0.32000000E+00 0.0000E+00 0.9000E+01
       21  1    1    2  501  503 -.98895457E+01 0.36263445E+01 -.36748976E+02 0.38236151E+02 0.75000000E+00 0.0000E+00 0.9000E+01
#aMCatNLO 2  0  0  2  2 0.45266353D+02 0.00000000D+00  -5  6  0 0.00000000D+00 0.00000000D+00 0.00000000D+00 0.00000000D+00 0.00000000D+00
  <mgrwgt>
 0.4101412419D-03    1    2    0
 0.515858459392020D+03 0.000000000000000D+00 0.000000000000000D+00 0.515858459392020D+03
 0.515858459392020D+03 0.000000000000000D+00 0.000000000000000D+00 -.515858459392020D+03
 0.519410086721479D+03 -.389886306574158D+03 -.248107489861710D+03 -.201477491567909D+03
 0.158664005096309D+03 0.926080524600408D+02 0.106501582919772D+03 0.724943305944881D+02
 0.353642826966252D+03 0.297278254114118D+03 0.141605906941938D+03 0.128983160973421D+03
 0.000000000000000D+00 -.000000000000000D+00 0.000000000000000D+00 -.000000000000000D+00
 0.516667788425779D+03 0.000000000000000D+00 0.000000000000000D+00 0.516667788425779D+03
 0.551336276277378D+03 0.000000000000000D+00 0.000000000000000D+00 -.551336276277378D+03
 0.516571956851173D+03 -.384921221370732D+03 -.249928110333786D+03 -.201477491567909D+03
 0.159185632177631D+03 0.941313901865334D+02 0.105942998376485D+03 0.724943305944881D+02
 0.356013099639093D+03 0.300679376906324D+03 0.140358767460976D+03 0.128983160973421D+03
 0.362333760352593D+02 -.988954572212525D+01 0.362634449632580D+01 -.346684878515989D+02
0.407497704281D-04 0.000000000000D+00 0.000000000000D+00 0.274789881888D-04 0.158126361946D-05  6 2 -2 25 2 -2 21 2 0.75167690D-01 0.89695372D-01 0.23027570D+06 0.23027570D+06 0.23027570D+06 0.10931544D+01  1  2  1  2  6  2       -2 0.410141241859D-03 0.100000000000D+01
  </mgrwgt>
  </event>
  <event>
  7     66 -.18377366E-05 0.10416850E+02 0.75467711E-02 0.95469384E-01
        2 -1    0    0  501    0 0.00000000E+00 0.00000000E+00 0.95449355E+03 0.95449360E+03 0.32000000E+00 0.0000E+00 0.9000E+01
       -2 -1    0    0    0  501 0.00000000E+00 0.00000000E+00 -.28905299E+03 0.28905317E+03 0.32000000E+00 0.0000E+00 0.9000E+01
       23  2    1    2    0    0 -.28407707E+03 0.35116833E+03 0.49578473E+02 0.46964104E+03 0.11868319E+03 0.0000E+00 0.0000E+00
       25  1    1    2    0    0 0.28407707E+03 -.35116833E+03 0.61586208E+03 0.77390573E+03 0.12500000E+03 0.0000E+00 0.9000E+01
        2  1    3    3  502    0 -.26848231E+03 0.34137962E+03 0.27369374E+02 0.43516891E+03 0.32000000E+00 0.0000E+00 0.9000E+01
       -2  1    3    3    0  503 -.95027195E+01 0.15096918E+02 0.17945162E+02 0.25305135E+02 0.32000000E+00 0.0000E+00 0.9000E+01
       21  1    3    3  503  502 -.60920422E+01 -.53082077E+01 0.42639375E+01 0.91669903E+01 0.75000000E+00 0.0000E+00 0.9000E+01
#aMCatNLO 2  0  0  5  4 0.80898490D+01 0.00000000D+00  -5  6  0 0.00000000D+00 0.00000000D+00 0.00000000D+00 0.00000000D+00 0.00000000D+00
  <mgrwgt>
 -.1200002905D-02    4    2    0
 0.525261231980054D+03 0.000000000000000D+00 0.000000000000000D+00 0.525261231980054D+03
 0.525261231980054D+03 -.000000000000000D+00 -.000000000000000D+00 -.525261231980054D+03
 0.528675952498510D+03 0.287301195289185D+03 -.353192089437082D+03 0.237879452443209D+03
 0.495344233596354D+03 -.265482212123877D+03 0.339519906400680D+03 -.244154332258607D+03
 0.265022778652430D+02 -.218189831653081D+02 0.136721830364017D+02 0.627487981539751D+01
 0.000000000000000D+00 0.000000000000000D+00 0.000000000000000D+00 -.000000000000000D+00
 0.525261231980054D+03 0.000000000000000D+00 0.000000000000000D+00 0.525261231980054D+03
 0.525261231980054D+03 -.000000000000000D+00 -.000000000000000D+00 -.525261231980054D+03
 0.525935625665296D+03 0.284000410782786D+03 -.351123756114979D+03 0.238828718773233D+03
 0.497912652172847D+03 -.268590965154191D+03 0.341467909207383D+03 -.243260291895076D+03
 0.182466505985239D+02 -.896126246268434D+01 0.150325650279811D+02 0.516314069331978D+01
 0.842753552344019D+01 -.644818316591071D+01 -.537671812038501D+01 -.731567571476208D+00
-.116505332518D-05 0.000000000000D+00 0.000000000000D+00 0.395206505149D-05 0.000000000000D+00  6 2 -2 25 2 -2 21 2 0.14684518D+00 0.44469709D-01 0.21572426D+06 0.21572426D+06 0.21572426D+06 0.10953098D+01  1  2 13  4  6  5       -2 -.227674860928D-04 0.100000000000D+01
-.541804252111D-10 0.000000000000D+00 0.000000000000D+00 0.395206505149D-05 0.000000000000D+00  6 2 -2 25 2 -2 21 2 0.14684518D+00 0.44469709D-01 0.21572426D+06 0.21572426D+06 0.21572426D+06 0.10953098D+01  1  2 13  4  6  5       -2 -.105879452110D-08 0.100000000000D+01
-.604963721502D-04 0.000000000000D+00 0.000000000000D+00 0.395206505149D-05 0.000000000000D+00  6 2 -2 25 2 -2 21 2 0.14684518D+00 0.44469709D-01 0.21570286D+06 0.21570286D+06 0.21570286D+06 0.10953131D+01  1  2  8  4  6  5       -2 -.118223109766D-02 0.100000000000D+01
0.255692067641D-06 0.000000000000D+00 0.000000000000D+00 0.395206505149D-05 0.235994719645D-08  6 2 -2 25 2 -2 21 2 0.14684518D+00 0.44469709D-01 0.21572426D+06 0.21572426D+06 0.21572426D+06 0.10953098D+01  1  2  1  4  6  5       -2 0.499673746105D-05 0.100000000000D+01
  </mgrwgt>
  </event>
  <event>
  5     66 0.18377366E-05 0.72829635E+02 0.75467711E-02 0.93404381E-01
        2 -1    0    0  501    0 0.00000000E+00 0.00000000E+00 0.40757224E+03 0.40757236E+03 0.32000000E+00 0.0000E+00 0.9000E+01
       -2 -1    0    0    0  501 0.00000000E+00 0.00000000E+00 -.67676342E+03 0.67676350E+03 0.32000000E+00 0.0000E+00 0.9000E+01
       25  1    1    2    0    0 -.24940605E+02 -.49801694E+03 -.51223224E+02 0.51661564E+03 0.12500000E+03 0.0000E+00 0.9000E+01
        2  1    1    2  502    0 0.63621702E+02 0.42109939E+03 -.13154826E+03 0.44573250E+03 0.32000000E+00 0.0000E+00 0.9000E+01
       -2  1    1    2    0  502 -.38681098E+02 0.76917547E+02 -.86419696E+02 0.12198772E+03 0.32000000E+00 0.0000E+00 0.9000E+01
#aMCatNLO 1  0  0  2  4 0.86382777D+02 0.00000000D+00  -5  6  0 0.00000000D+00 0.00000000D+00 0.00000000D+00 0.00000000D+00 0.00000000D+00
  <mgrwgt>
 0.1279045002D-03    7    4    0
 0.525195288068614D+03 0.000000000000000D+00 0.000000000000000D+00 0.525195288068614D+03
 0.525195288068614D+03 0.000000000000000D+00 0.000000000000000D+00 -.525195288068614D+03
 0.520183918249585D+03 -.249406174122293D+02 -.498017187977608D+03 0.795182676336944D+02
 0.426425556647417D+03 0.636216787951172D+02 0.421100734064239D+03 -.215687069596046D+02
 0.103781101240227D+03 -.386810613828879D+02 0.769164539133689D+02 -.579495606740899D+02
 0.000000000000000D+00 0.000000000000000D+00 0.000000000000000D+00 -.000000000000000D+00
 0.547282323944502D+03 0.000000000000000D+00 0.000000000000000D+00 0.547282323944502D+03
 0.618801202874060D+03 0.000000000000000D+00 0.000000000000000D+00 -.618801202874060D+03
 0.562051345550358D+03 -.363400725893014D+02 -.540955598244170D+03 0.795182676336944D+02
 0.393051269269196D+03 0.549899240758287D+02 0.388587441130502D+03 -.215687069596046D+02
 0.988339803651163D+02 -.408152568006653D+02 0.688775645968114D+02 -.579495606740899D+02
 0.112146931633891D+03 0.221654053141380D+02 0.834905925168569D+02 -.715188789295583D+02
 0.525195288068614D+03 0.000000000000000D+00 0.000000000000000D+00 0.525195288068614D+03
 0.525195288068614D+03 0.000000000000000D+00 0.000000000000000D+00 -.525195288068614D+03
 0.520183918249585D+03 -.249406174122293D+02 -.498017187977608D+03 0.795182676336944D+02
 0.426425556647417D+03 0.636216787951172D+02 0.421100734064239D+03 -.215687069596046D+02
 0.000000000000000D+00 0.000000000000000D+00 0.000000000000000D+00 -.000000000000000D+00
 0.103781101240227D+03 -.386810613828879D+02 0.769164539133689D+02 -.579495606740899D+02
 0.547282323944502D+03 0.000000000000000D+00 0.000000000000000D+00 0.547282323944502D+03
 0.618801202874060D+03 0.000000000000000D+00 0.000000000000000D+00 -.618801202874060D+03
 0.562051345550358D+03 -.363400725893014D+02 -.540955598244170D+03 0.795182676336944D+02
 0.393051269269196D+03 0.549899240758287D+02 0.388587441130502D+03 -.215687069596046D+02
 0.112146931633891D+03 0.221654053141380D+02 0.834905925168569D+02 -.715188789295583D+02
 0.988339803651163D+02 -.408152568006653D+02 0.688775645968114D+02 -.579495606740899D+02
0.969199395208D-05 0.000000000000D+00 0.000000000000D+00 0.897161249409D-08 0.000000000000D+00  6 2 -2 25 2 -2 21 0 0.62703437D-01 0.10411746D+00 0.26319209D+06 0.26319209D+06 0.26319209D+06 0.10887830D+01  1  2  2  2  6  2       -2 0.697856688353D-04 0.100000000000D+01
0.958147965576D-06 0.000000000000D+00 -.372198087366D-07 0.897161249409D-08 0.000000000000D+00  6 2 -2 25 2 -2 21 2 0.62703437D-01 0.10411746D+00 0.26319209D+06 0.26319209D+06 0.26319209D+06 0.10887830D+01  1  2  3  2  6  2       -2 0.817839991021D-05 0.100000000000D+01
-.280036236994D-05 0.000000000000D+00 0.000000000000D+00 0.897161249409D-08 0.000000000000D+00  6 2 -2 25 2 -2 21 2 0.62703437D-01 0.10411746D+00 0.26319209D+06 0.26319209D+06 0.26319209D+06 0.10887830D+01  1  2 15  2  6  2       -2 -.239028669660D-04 0.100000000000D+01
-.166171506425D-05 0.000000000000D+00 0.000000000000D+00 0.897161249409D-08 0.000000000000D+00  6 2 -2 25 2 -2 21 2 0.62703437D-01 0.10411746D+00 0.26319209D+06 0.26319209D+06 0.26319209D+06 0.10887830D+01  1  2  4  2  6  2       -2 -.141837908345D-04 0.100000000000D+01
-.392565705003D-04 0.000000000000D+00 -.775323714086D-05 0.897161249409D-08 0.000000000000D+00  6 2 -2 25 2 -2 21 2 0.62703437D-01 0.12586263D+00 0.26319209D+06 0.26319209D+06 0.26319209D+06 0.10887830D+01  1  2  5  2  6  2       -2 -.207801334479D-03 0.100000000000D+01
0.401403432577D-04 0.000000000000D+00 0.761583528534D-05 0.897161249409D-08 0.000000000000D+00  6 2 -2 25 2 -2 21 2 0.62703437D-01 0.10411746D+00 0.26319209D+06 0.26319209D+06 0.26319209D+06 0.10887830D+01  1  2  6  2  6  2       -2 0.342623260174D-03 0.100000000000D+01
-.996934693263D-06 0.000000000000D+00 -.212987244891D-06 0.897161249409D-08 0.000000000000D+00  6 2 21 25 2 2 -2 2 0.62703437D-01 0.12586263D+00 0.26319209D+06 0.26319209D+06 0.26319209D+06 0.10887830D+01  3  4  5  6  5  2       -2 -.467948364735D-04 0.100000000000D+01
  </mgrwgt>
  </event>
  <event>
  7     66 0.18377366E-05 0.71998186E+02 0.75467711E-02 0.95334793E-01
        2 -1    0    0  501    0 0.00000000E+00 0.00000000E+00 0.58943672E+03 0.58943680E+03 0.32000000E+00 0.0000E+00 0.9000E+01
       -2 -1    0    0    0  503 0.00000000E+00 0.00000000E+00 -.41296389E+03 0.41296401E+03 0.32000000E+00 0.0000E+00 0.9000E+01
       23  2    1    2    0    0 0.33928465E+03 0.30699120E+03 0.20571153E+03 0.50966960E+03 0.89934433E+02 0.0000E+00 0.0000E+00
       25  1    1    2    0    0 -.34257041E+03 -.29326394E+03 -.89972663E+01 0.46804292E+03 0.12500000E+03 0.0000E+00 0.9000E+01
        2  1    3    3  502    0 0.18586886E+03 0.17725494E+03 0.66730080E+02 0.26536683E+03 0.32000000E+00 0.0000E+00 0.9000E+01
       -2  1    3    3    0  502 0.15341580E+03 0.12973625E+03 0.13898144E+03 0.24430278E+03 0.32000000E+00 0.0000E+00 0.9000E+01
       21  1    1    2  501  503 0.32857607E+01 -.13727259E+02 -.20241432E+02 0.24688295E+02 0.75000000E+00 0.0000E+00 0.9000E+01
#aMCatNLO 2  0  0  2  1 0.91992800D+01 0.00000000D+00  -5  6  0 0.00000000D+00 0.00000000D+00 0.00000000D+00 0.00000000D+00 0.00000000D+00
  <mgrwgt>
 0.8399408891D-03    1    2    0
 0.478807384215210D+03 0.000000000000000D+00 0.000000000000000D+00 0.478807384215210D+03
 0.478807384215210D+03 0.000000000000000D+00 0.000000000000000D+00 -.478807384215210D+03
 0.482742577142467D+03 -.340919405156187D+03 -.300161522635302D+03 -.105320536000150D+03
 0.255325680157145D+03 0.186748508080290D+03 0.173582251227107D+03 0.136161571827022D+02
 0.219546511130809D+03 0.154170897075898D+03 0.126579271408195D+03 0.917043788174478D+02
 0.000000000000000D+00 0.000000000000000D+00 -.000000000000000D+00 -.000000000000000D+00
 0.480667778883017D+03 0.000000000000000D+00 0.000000000000000D+00 0.480667778883017D+03
 0.506402468864508D+03 0.000000000000000D+00 0.000000000000000D+00 -.506402468864508D+03
 0.479662006080486D+03 -.342570413220655D+03 -.293263937025382D+03 -.105320536000150D+03
 0.257200919348555D+03 0.185869267100156D+03 0.177255546387042D+03 0.136161571827022D+02
 0.220855863456775D+03 0.153415385428582D+03 0.129735649852858D+03 0.917043788174478D+02
 0.293514588617087D+02 0.328576069191655D+01 -.137272592145178D+02 -.257346899814913D+02
0.481043070261D-04 0.000000000000D+00 0.000000000000D+00 0.143481087400D-04 0.460769417549D-06  6 2 -2 25 2 -2 21 2 0.90681687D-01 0.63532291D-01 0.22081947D+06 0.22081947D+06 0.22081947D+06 0.10945375D+01  1  2  1  2  6  2       -2 0.839940889098D-03 0.100000000000D+01
  </mgrwgt>
  </event>
  <event>
  7     66 0.18377366E-05 0.14523524E+03 0.75467711E-02 0.93491874E-01
        2 -1    0    0  503    0 0.00000000E+00 0.00000000E+00 0.18460016E+04 0.18460017E+04 0.32000000E+00 0.0000E+00 0.9000E+01
       -2 -1    0    0    0  501 0.00000000E+00 0.00000000E+00 -.46526110E+03 0.46526121E+03 0.32000000E+00 0.0000E+00 0.9000E+01
       23  2    1    2    0    0 -.20065779E+03 0.40718312E+03 0.64324189E+03 0.79232479E+03 0.89200926E+02 0.0000E+00 0.0000E+00
       25  1    1    2    0    0 0.34395853E+03 -.30556685E+03 -.23441469E+03 0.53127565E+03 0.12500000E+03 0.0000E+00 0.9000E+01
        2  1    3    3  502    0 -.68961660E+02 0.12831716E+03 0.28153906E+03 0.31699424E+03 0.32000000E+00 0.0000E+00 0.9000E+01
       -2  1    3    3    0  502 -.13169613E+03 0.27886595E+03 0.36170283E+03 0.47533055E+03 0.32000000E+00 0.0000E+00 0.9000E+01
       21  1    1    2  503  501 -.14330073E+03 -.10161627E+03 0.97191334E+03 0.98766243E+03 0.75000000E+00 0.0000E+00 0.9000E+01
#aMCatNLO 2  0  0  1  2 0.10037258D+02 0.00000000D+00  -5  6  0 0.00000000D+00 0.00000000D+00 0.00000000D+00 0.00000000D+00 0.00000000D+00
  <mgrwgt>
 0.1521250183D-03    1    2    0
 0.623281133804555D+03 0.000000000000000D+00 0.000000000000000D+00 0.623281133804555D+03
 0.623281133804555D+03 0.000000000000000D+00 0.000000000000000D+00 -.623281133804555D+03
 0.626356870586991D+03 0.271830445162840D+03 -.356713740238562D+03 -.419000532146579D+03
 0.241715837345675D+03 -.966192593922209D+02 0.108702319049138D+03 0.193067528527090D+03
 0.378489559676444D+03 -.175211185770619D+03 0.248011421189424D+03 0.225933003619489D+03
 0.000000000000000D+00 -.000000000000000D+00 -.000000000000000D+00 0.000000000000000D+00
 0.134140877305431D+04 0.000000000000000D+00 0.000000000000000D+00 0.134140877305431D+04
 0.640276407551623D+03 0.000000000000000D+00 0.000000000000000D+00 -.640276407551623D+03
 0.634716485520154D+03 0.343958528603831D+03 -.305566853000497D+03 -.419000532146579D+03
 0.241858361615031D+03 -.689608523664644D+02 0.128315226502699D+03 0.193067528527090D+03
 0.382304993349605D+03 -.131696942339524D+03 0.278867892009708D+03 0.225933003619489D+03
 0.722805340121143D+03 -.143300733897842D+03 -.101616265511910D+03 0.701132365502688D+03
0.682091939065D-04 0.000000000000D+00 0.000000000000D+00 0.602536464618D-05 0.163544978605D-08  6 2 -2 25 2 -2 21 2 0.28400018D+00 0.71578619D-01 0.30609115D+06 0.30609115D+06 0.30609115D+06 0.10839066D+01  1  2  1  1  6  1        2 0.152125018320D-03 0.100000000000D+01
  </mgrwgt>
  </event>
  <event>
  7     66 0.18377366E-05 0.58280454E+02 0.75467711E-02 0.92169384E-01
        2 -1    0    0  501    0 0.00000000E+00 0.00000000E+00 0.15709347E+04 0.15709347E+04 0.32000000E+00 0.0000E+00 0.9000E+01
       21 -1    0    0  503  501 0.00000000E+00 0.00000000E+00 -.45422688E+03 0.45422750E+03 0.75000000E+00 0.0000E+00 0.9000E+01
       23  2    1    2    0    0 -.60436500E+03 0.13020530E+02 0.87328658E+02 0.61780997E+03 0.92931558E+02 0.0000E+00 0.0000E+00
       25  1    1    2    0    0 0.58866017E+03 0.25739756E+02 0.11398600E+04 0.12892204E+04 0.12500000E+03 0.0000E+00 0.9000E+01
        2  1    3    3  502    0 -.25543964E+03 -.66219743E+01 -.77028706E+01 0.25564174E+03 0.32000000E+00 0.0000E+00 0.9000E+01
        2  1    1    2  503    0 0.15704837E+02 -.38760287E+02 -.11048089E+03 0.11813184E+03 0.32000000E+00 0.0000E+00 0.9000E+01
       -2  1    3    3    0  502 -.34892536E+03 0.19642505E+02 0.95031528E+02 0.36216824E+03 0.32000000E+00 0.0000E+00 0.9000E+01
#aMCatNLO 2  0  0  2  1 0.91992800D+01 0.00000000D+00  -5  6  0 0.00000000D+00 0.00000000D+00 0.00000000D+00 0.00000000D+00 0.00000000D+00
  <mgrwgt>
 0.2639543219D-03    1    2    0
 0.729558722461896D+03 0.000000000000000D+00 0.000000000000000D+00 0.729558722461896D+03
 0.729558722461896D+03 0.000000000000000D+00 0.000000000000000D+00 -.729558722461896D+03
 0.731953569322401D+03 0.596504729021721D+03 0.637900357676278D+01 0.405305371555687D+03
 0.338021847037459D+03 -.251787973656351D+03 -.156320390249200D+02 -.224982721008897D+03
 0.000000000000000D+00 0.000000000000000D+00 -.000000000000000D+00 -.000000000000000D+00
 0.389142028563933D+03 -.344716755365369D+03 0.925303544815722D+01 -.180322650546790D+03
 0.731639883915039D+03 0.000000000000000D+00 0.000000000000000D+00 0.731639883915039D+03
 0.975290201835429D+03 0.000000000000000D+00 0.000000000000000D+00 -.975290201835429D+03
 0.726003286156927D+03 0.588660167018605D+03 0.257397564944079D+02 0.405305371555687D+03
 0.340455464521571D+03 -.255438532531416D+03 -.662228572532468D+01 -.224982721008897D+03
 0.247213428372732D+03 0.157048372222130D+02 -.387602868012699D+02 -.243650317920390D+03
 0.393257906699237D+03 -.348926471709402D+03 0.196428160321867D+02 -.180322650546790D+03
0.838634020897D-05 0.000000000000D+00 0.000000000000D+00 0.706320580897D-05 0.492503160814D-09  6 2 21 25 2 2 -2 2 0.24168227D+00 0.69881099D-01 0.39010023D+06 0.39010023D+06 0.39010023D+06 0.10762131D+01  1  2  1  6  5  2       -2 0.263954321866D-03 0.100000000000D+01
  </mgrwgt>
  </event>
  <event>
  7     66 0.18377366E-05 0.72615892E+02 0.75467711E-02 0.95070698E-01
        2 -1    0    0  503    0 0.00000000E+00 0.00000000E+00 0.12983433E+04 0.12983434E+04 0.32000000E+00 0.0000E+00 0.9000E+01
       -2 -1    0    0    0  501 0.00000000E+00 0.00000000E+00 -.20467743E+03 0.20467768E+03 0.32000000E+00 0.0000E+00 0.9000E+01
       23  2    1    2    0    0 0.40412497E+02 0.46878139E+03 0.71489332E+03 0.86057479E+03 0.90151750E+02 0.0000E+00 0.0000E+00
       25  1    1    2    0    0 -.46913994E+02 -.45615265E+03 0.29922626E+03 0.56163824E+03 0.12500000E+03 0.0000E+00 0.9000E+01
        2  1    3    3  502    0 0.42314854E+02 0.26072055E+03 0.47081972E+03 0.53984911E+03 0.32000000E+00 0.0000E+00 0.9000E+01
       -2  1    3    3    0  502 -.19023576E+01 0.20806084E+03 0.24407360E+03 0.32072568E+03 0.32000000E+00 0.0000E+00 0.9000E+01
       21  1    1    2  503  501 0.65014974E+01 -.12628742E+02 0.79546330E+02 0.80808018E+02 0.75000000E+00 0.0000E+00 0.9000E+01
#aMCatNLO 2  0  0  1  2 0.10037258D+02 0.00000000D+00  -5  6  0 0.00000000D+00 0.00000000D+00 0.00000000D+00 0.00000000D+00 0.00000000D+00
  <mgrwgt>
 0.1530207416D-02    1    2    0
 0.498510188326169D+03 0.000000000000000D+00 0.000000000000000D+00 0.498510188326169D+03
 0.498510188326169D+03 0.000000000000000D+00 0.000000000000000D+00 -.498510188326169D+03
 0.502270222781999D+03 -.436568972640986D+02 -.462479353250546D+03 -.144420565819787D+03
 0.288155100293227D+03 0.442041255172112D+02 0.257052506818460D+03 0.122488227395957D+03
 0.206595053577113D+03 -.547228253112646D+00 0.205426846432086D+03 0.219323384238299D+02
 0.000000000000000D+00 0.000000000000000D+00 -.000000000000000D+00 0.000000000000000D+00
 0.531370671508764D+03 0.000000000000000D+00 0.000000000000000D+00 0.531370671508764D+03
 0.500098074984623D+03 0.000000000000000D+00 0.000000000000000D+00 -.500098074984623D+03
 0.496747887574766D+03 -.469139942564023D+02 -.456152651117140D+03 -.144420565819787D+03
 0.291152040530709D+03 0.423154114624442D+02 0.260721212806622D+03 0.122488227395957D+03
 0.209221622184966D+03 -.190291463150143D+01 0.208060180325012D+03 0.219323384238299D+02
 0.343471962029454D+02 0.650149742545961D+01 -.126287420144945D+02 0.312725965241410D+02
0.664481157632D-04 0.000000000000D+00 0.000000000000D+00 0.231861481764D-04 0.734161889046D-06  6 2 -2 25 2 -2 21 2 0.19974352D+00 0.31488600D-01 0.23121496D+06 0.23121496D+06 0.23121496D+06 0.10930204D+01  1  2  1  1  6  1        2 0.153020741634D-02 0.100000000000D+01
  </mgrwgt>
  </event>
  <event>
  7     66 0.18377366E-05 0.27392011E+02 0.75467711E-02 0.93273774E-01
        2 -1    0    0  503    0 0.00000000E+00 0.00000000E+00 0.38672842E+04 0.38672842E+04 0.32000000E+00 0.0000E+00 0.9000E+01
       -2 -1    0    0    0  501 0.00000000E+00 0.00000000E+00 -.11246479E+03 0.11246525E+03 0.32000000E+00 0.0000E+00 0.9000E+01
       23  2    1    2    0    0 -.14299783E+03 0.53698530E+03 0.89472652E+03 0.10572952E+04 0.92390703E+02 0.0000E+00 0.0000E+00
       25  1    1    2    0    0 0.14669440E+03 -.51125087E+03 0.23906161E+04 0.24522576E+04 0.12500000E+03 0.0000E+00 0.9000E+01
        2  1    3    3  502    0 -.31692164E+02 0.84593578E+02 0.21528520E+03 0.23347009E+03 0.32000000E+00 0.0000E+00 0.9000E+01
       -2  1    3    3    0  502 -.11130567E+03 0.45239172E+03 0.67944133E+03 0.82382512E+03 0.32000000E+00 0.0000E+00 0.9000E+01
       21  1    1    2  503  501 -.36965659E+01 -.25734425E+02 0.46947680E+03 0.47019672E+03 0.75000000E+00 0.0000E+00 0.9000E+01
#aMCatNLO 2  0  0  1  2 0.10037258D+02 0.00000000D+00  -5  6  0 0.00000000D+00 0.00000000D+00 0.00000000D+00 0.00000000D+00 0.00000000D+00
  <mgrwgt>
 0.9853420049D-04    1    2    0
 0.617010634946718D+03 0.000000000000000D+00 0.000000000000000D+00 0.617010634946718D+03
 0.617010634946718D+03 0.000000000000000D+00 0.000000000000000D+00 -.617010634946718D+03
 0.619882934760035D+03 0.144853229943301D+03 -.524068561693297D+03 0.270184265319847D+03
 0.891586855126079D+02 -.319607270590495D+02 0.827128541433713D+02 -.929337869939788D+01
 0.524979649620793D+03 -.112892502884251D+03 0.441355707549926D+03 -.260890886620449D+03
 0.000000000000000D+00 -.000000000000000D+00 -.000000000000000D+00 0.000000000000000D+00
 0.702491743493538D+03 0.000000000000000D+00 0.000000000000000D+00 0.702491743493538D+03
 0.619127553086105D+03 0.000000000000000D+00 0.000000000000000D+00 -.619127553086105D+03
 0.609525419185412D+03 0.146694399490492D+03 -.511250870478331D+03 0.270184265319847D+03
 0.908076344678710D+02 -.316912083862629D+02 0.845891653878823D+02 -.929337869939788D+01
 0.533962056838161D+03 -.111306625241623D+03 0.452396130176371D+03 -.260890886620449D+03
 0.873241860881987D+02 -.369656586260636D+01 -.257344250859226D+02 0.833641904074333D+02
0.598421103986D-04 0.000000000000D+00 0.000000000000D+00 0.105586953867D-04 0.982406976379D-07  6 2 -2 25 2 -2 21 2 0.59496530D+00 0.17302267D-01 0.31842804D+06 0.31842804D+06 0.31842804D+06 0.10826416D+01  1  2  1  1  6  1        2 0.985342004889D-04 0.100000000000D+01
  </mgrwgt>
  </event>
</LesHouchesEvents>
