<event>
 5    0  0.2349231E+000  0.7743799E+03  0.7546771E-02  0.9597860E-01
         21   -1    0    0  502  501  0.00000000000E+00  0.00000000000E+00  0.74864384159E+02  0.74864384159E+02  0.00000000000E+00 0.  1.
         21   -1    0    0  504  502 -0.00000000000E+00 -0.00000000000E+00 -0.30870125891E+04  0.30870125891E+04  0.00000000000E+00 0. -1.
         25    1    1    2    0    0  0.37115372543E+02 -0.27389212601E+03 -0.49050129805E+03  0.57672434573E+03  0.12500000000E+03 0.  0.
         21    1    1    2  503  501 -0.76140715604E+01  0.35964199961E+02  0.13150172746E+02  0.39042602473E+02  0.00000000000E+00 0.  1.
         21    1    1    2  504  503 -0.29501300983E+02  0.23792792605E+03 -0.25347970796E+04  0.25461100251E+04  0.00000000000E+00 0. -1.
<mgrwt>
<rscale>  4 0.77437990E+03</rscale>
<asrwt>0</asrwt>
<pdfrwt beam="1">  1       21 0.11517597E-01 0.77437990E+03</pdfrwt>
<pdfrwt beam="2">  1       21 0.47492502E+00 0.77437990E+03</pdfrwt>
<totfact> 0.11403692E+02</totfact>
</mgrwt>
</event>
<event>
 5    0  0.2349231E+000  0.1223226E+04  0.7546771E-02  0.9092767E-01
         21   -1    0    0  503  501  0.00000000000E+00  0.00000000000E+00  0.46427285300E+03  0.46427285300E+03  0.00000000000E+00 0. -1.
         21   -1    0    0  504  502 -0.00000000000E+00 -0.00000000000E+00 -0.14156813290E+04  0.14156813290E+04  0.00000000000E+00 0. -1.
         25    1    1    2    0    0  0.27897404884E+03  0.32461751820E+03  0.20313953966E+02  0.44636387598E+03  0.12500000000E+03 0.  0.
         21    1    1    2  503  502 -0.33069649902E+02 -0.24925562062E+02  0.19749049858E+03  0.20178548615E+03  0.00000000000E+00 0. -1.
         21    1    1    2  504  501 -0.24590439894E+03 -0.29969195614E+03 -0.11692129286E+04  0.12318048199E+04  0.00000000000E+00 0. -1.
<mgrwt>
<rscale>  4 0.12232258E+04</rscale>
<asrwt>0</asrwt>
<pdfrwt beam="1">  1       21 0.71426593E-01 0.12232258E+04</pdfrwt>
<pdfrwt beam="2">  1       21 0.21779713E+00 0.12232258E+04</pdfrwt>
<totfact> 0.11519470E+02</totfact>
</mgrwt>
</event>
<event>
 5    0  0.2349231E+000  0.1043381E+04  0.7546771E-02  0.9262204E-01
         21   -1    0    0  502  501  0.00000000000E+00  0.00000000000E+00  0.81645415628E+03  0.81645415628E+03  0.00000000000E+00 0. -1.
         21   -1    0    0  504  502 -0.00000000000E+00 -0.00000000000E+00 -0.11160137189E+04  0.11160137189E+04  0.00000000000E+00 0. -1.
         25    1    1    2    0    0 -0.53428013979E+02 -0.50511647965E+03 -0.28013291348E+03  0.59337733349E+03  0.12500000000E+03 0.  0.
         21    1    1    2  503  501 -0.47805335963E+01  0.21673561593E+02  0.57232300150E+03  0.57275318840E+03  0.00000000000E+00 0. -1.
         21    1    1    2  504  503  0.58208547576E+02  0.48344291806E+03 -0.59174965065E+03  0.76633735331E+03  0.00000000000E+00 0. -1.
<mgrwt>
<rscale>  4 0.10433814E+04</rscale>
<asrwt>0</asrwt>
<pdfrwt beam="1">  1       21 0.12560833E+00 0.10433814E+04</pdfrwt>
<pdfrwt beam="2">  1       21 0.17169442E+00 0.10433814E+04</pdfrwt>
<totfact> 0.62945782E+01</totfact>
</mgrwt>
</event>
