<event>
 5    0  0.1972558E-002  0.2700845E+03  0.7546771E-02  0.1101231E+00
         21   -1    0    0  501  502  0.00000000000E+00  0.00000000000E+00  0.79096033074E+02  0.79096033074E+02  0.00000000000E+00 0.  1.
         21   -1    0    0  502  503 -0.00000000000E+00 -0.00000000000E+00 -0.11631064563E+04  0.11631064563E+04  0.00000000000E+00 0. -1.
         25    1    1    2    0    0 -0.10460079007E+03 -0.18821141336E+03 -0.37328159479E+03  0.44869701404E+03  0.12500000000E+03 0.  0.
          4    1    1    2  501    0  0.29054805112E+01 -0.44533100279E+02 -0.67840642200E+01  0.45140473688E+02  0.00000000000E+00 0.  1.
         -4    1    1    2    0  503  0.10169530956E+03  0.23274451363E+03 -0.70394476419E+03  0.74836500162E+03  0.00000000000E+00 0. -1.
<mgrwt>
<rscale>  4 0.27008453E+03</rscale>
<asrwt>0</asrwt>
<pdfrwt beam="1">  1       21 0.12168620E-01 0.27008453E+03</pdfrwt>
<pdfrwt beam="2">  1       21 0.17893946E+00 0.27008453E+03</pdfrwt>
<totfact> 0.10036245E+04</totfact>
</mgrwt>
</event>
<event>
 5    0  0.1972558E-002  0.2532897E+03  0.7546771E-02  0.1111243E+00
         21   -1    0    0  501  502  0.00000000000E+00  0.00000000000E+00  0.35437725468E+03  0.35437725468E+03  0.00000000000E+00 0. -1.
         21   -1    0    0  502  503 -0.00000000000E+00 -0.00000000000E+00 -0.10798763412E+04  0.10798763412E+04  0.00000000000E+00 0. -1.
         25    1    1    2    0    0 -0.24276415803E+03 -0.23946881533E+02 -0.75274619406E+03  0.80109907142E+03  0.12500000000E+03 0.  0.
          1    1    1    2  501    0  0.86456686209E+02  0.20809343933E+03  0.22689807467E+03  0.31978176054E+03  0.00000000000E+00 0.  1.
         -1    1    1    2    0  503  0.15630747182E+03 -0.18414655780E+03 -0.19965096716E+03  0.31337276395E+03  0.00000000000E+00 0. -1.
<mgrwt>
<rscale>  4 0.25328969E+03</rscale>
<asrwt>0</asrwt>
<pdfrwt beam="1">  1       21 0.54519578E-01 0.25328969E+03</pdfrwt>
<pdfrwt beam="2">  1       21 0.16613482E+00 0.25328969E+03</pdfrwt>
<totfact> 0.68016547E+02</totfact>
</mgrwt>
</event>
<event>
 5    0  0.1972558E-002  0.2617741E+03  0.7546771E-02  0.1106082E+00
         21   -1    0    0  501  502  0.00000000000E+00  0.00000000000E+00  0.11393430566E+04  0.11393430566E+04  0.00000000000E+00 0. -1.
         21   -1    0    0  502  503 -0.00000000000E+00 -0.00000000000E+00 -0.10016249641E+03  0.10016249641E+03  0.00000000000E+00 0. -1.
         25    1    1    2    0    0  0.13800592788E+03  0.20838117903E+03  0.18557690263E+03  0.33545810274E+03  0.12500000000E+03 0.  0.
          3    1    1    2  501    0 -0.88305216337E+02 -0.17800350546E+03  0.39913128877E+03  0.44585742661E+03  0.00000000000E+00 0. -1.
         -3    1    1    2    0  503 -0.49700711544E+02 -0.30377673566E+02  0.45447236879E+03  0.45819002365E+03  0.00000000000E+00 0.  1.
<mgrwt>
<rscale>  4 0.26177407E+03</rscale>
<asrwt>0</asrwt>
<pdfrwt beam="1">  1       21 0.17528354E+00 0.26177407E+03</pdfrwt>
<pdfrwt beam="2">  1       21 0.15409616E-01 0.26177407E+03</pdfrwt>
<totfact> 0.69583463E+03</totfact>
</mgrwt>
</event>
<event>
 5    0  0.1972558E-002  0.3257361E+03  0.7546771E-02  0.1073039E+00
         21   -1    0    0  501  502  0.00000000000E+00  0.00000000000E+00  0.28388336402E+03  0.28388336402E+03  0.00000000000E+00 0. -1.
         21   -1    0    0  502  503 -0.00000000000E+00 -0.00000000000E+00 -0.54553095142E+03  0.54553095142E+03  0.00000000000E+00 0.  1.
         25    1    1    2    0    0  0.10025567090E+02 -0.30157587659E+03 -0.35911371941E+03  0.48542371677E+03  0.12500000000E+03 0.  0.
          1    1    1    2  501    0  0.30194374933E+02  0.52808038971E+01  0.12841376564E+02  0.33233839975E+02  0.00000000000E+00 0.  1.
         -1    1    1    2    0  503 -0.40219942023E+02  0.29629507269E+03  0.84624755451E+02  0.31075675869E+03  0.00000000000E+00 0. -1.
<mgrwt>
<rscale>  4 0.32573611E+03</rscale>
<asrwt>0</asrwt>
<pdfrwt beam="1">  1       21 0.43674364E-01 0.32573611E+03</pdfrwt>
<pdfrwt beam="2">  1       21 0.83927838E-01 0.32573611E+03</pdfrwt>
<totfact> 0.57426448E+03</totfact>
</mgrwt>
</event>
<event>
 5    0  0.1972558E-002  0.2089101E+03  0.7546771E-02  0.1142432E+00
         21   -1    0    0  503  502  0.00000000000E+00  0.00000000000E+00  0.58127744394E+02  0.58127744394E+02  0.00000000000E+00 0. -1.
         21   -1    0    0  501  503 -0.00000000000E+00 -0.00000000000E+00 -0.13258233034E+04  0.13258233034E+04  0.00000000000E+00 0. -1.
         25    1    1    2    0    0 -0.19925135432E+03  0.81470045954E+02 -0.79985480250E+03  0.83769396302E+03  0.12500000000E+03 0.  0.
          4    1    1    2  501    0  0.13506515298E+03  0.42276536984E+02 -0.25940723354E+03  0.29550298466E+03  0.00000000000E+00 0.  1.
         -4    1    1    2    0  502  0.64186201337E+02 -0.12374658294E+03 -0.20843352294E+03  0.25075410010E+03  0.00000000000E+00 0. -1.
<mgrwt>
<rscale>  4 0.20891011E+03</rscale>
<asrwt>0</asrwt>
<pdfrwt beam="1">  1       21 0.89427300E-02 0.20891011E+03</pdfrwt>
<pdfrwt beam="2">  1       21 0.20397281E+00 0.20891011E+03</pdfrwt>
<totfact> 0.12347107E+04</totfact>
</mgrwt>
</event>
<event>
 5    0  0.1972558E-002  0.2590014E+03  0.7546771E-02  0.1107745E+00
         21   -1    0    0  501  502  0.00000000000E+00  0.00000000000E+00  0.11396621511E+03  0.11396621511E+03  0.00000000000E+00 0. -1.
         21   -1    0    0  502  503 -0.00000000000E+00 -0.00000000000E+00 -0.13471164778E+04  0.13471164778E+04  0.00000000000E+00 0.  1.
         25    1    1    2    0    0  0.21771361423E+03 -0.38138875050E+02 -0.99866082965E+03  0.10304378896E+04  0.12500000000E+03 0.  0.
          4    1    1    2  501    0  0.14041387316E+02 -0.48369655765E+02  0.37644476952E+02  0.62879971387E+02  0.00000000000E+00 0. -1.
         -4    1    1    2    0  503 -0.23175500155E+03  0.86508530815E+02 -0.27213391000E+03  0.36776483195E+03  0.00000000000E+00 0.  1.
<mgrwt>
<rscale>  4 0.25900137E+03</rscale>
<asrwt>0</asrwt>
<pdfrwt beam="1">  1       21 0.17533264E-01 0.25900137E+03</pdfrwt>
<pdfrwt beam="2">  1       21 0.20724869E+00 0.25900137E+03</pdfrwt>
<totfact> 0.33601726E+03</totfact>
</mgrwt>
</event>
<event>
 5    0  0.1972558E-002  0.2257960E+03  0.7546771E-02  0.1129634E+00
         21   -1    0    0  501  502  0.00000000000E+00  0.00000000000E+00  0.66691286126E+03  0.66691286126E+03  0.00000000000E+00 0.  1.
         21   -1    0    0  502  503 -0.00000000000E+00 -0.00000000000E+00 -0.10887572323E+03  0.10887572323E+03  0.00000000000E+00 0.  1.
         25    1    1    2    0    0 -0.10436234080E+03  0.20642035329E+03  0.25323764322E+03  0.36504131873E+03  0.12500000000E+03 0.  0.
          2    1    1    2  501    0  0.95890173723E+02 -0.35528220961E+02  0.90795323791E+02  0.13675149258E+03  0.00000000000E+00 0.  1.
         -2    1    1    2    0  503  0.84721670748E+01 -0.17089213233E+03  0.21400417102E+03  0.27399577318E+03  0.00000000000E+00 0. -1.
<mgrwt>
<rscale>  4 0.22579603E+03</rscale>
<asrwt>0</asrwt>
<pdfrwt beam="1">  1       21 0.10260198E+00 0.22579603E+03</pdfrwt>
<pdfrwt beam="2">  1       21 0.16750112E-01 0.22579603E+03</pdfrwt>
<totfact> 0.24287542E+04</totfact>
</mgrwt>
</event>
<event>
 5    0  0.1972558E-002  0.2532172E+03  0.7546771E-02  0.1111288E+00
         21   -1    0    0  501  502  0.00000000000E+00  0.00000000000E+00  0.14355882714E+03  0.14355882714E+03  0.00000000000E+00 0. -1.
         21   -1    0    0  502  503 -0.00000000000E+00 -0.00000000000E+00 -0.93051179541E+03  0.93051179541E+03  0.00000000000E+00 0. -1.
         25    1    1    2    0    0 -0.15519590828E+03 -0.16801844586E+03 -0.77063582852E+03  0.81352353887E+03  0.12500000000E+03 0.  0.
          4    1    1    2  501    0  0.10850927563E+03  0.15939784851E+03 -0.53650349181E+02  0.20015068567E+03  0.00000000000E+00 0.  1.
         -4    1    1    2    0  503  0.46686632644E+02  0.86205973460E+01  0.37333209434E+02  0.60396398012E+02  0.00000000000E+00 0. -1.
<mgrwt>
<rscale>  4 0.25321724E+03</rscale>
<asrwt>0</asrwt>
<pdfrwt beam="1">  1       21 0.22085974E-01 0.25321724E+03</pdfrwt>
<pdfrwt beam="2">  1       21 0.14315566E+00 0.25321724E+03</pdfrwt>
<totfact> 0.61951588E+03</totfact>
</mgrwt>
</event>
<event>
 5    0  0.1972558E-002  0.2099672E+03  0.7546771E-02  0.1141592E+00
         21   -1    0    0  501  502  0.00000000000E+00  0.00000000000E+00  0.98999276350E+02  0.98999276350E+02  0.00000000000E+00 0.  1.
         21   -1    0    0  502  503 -0.00000000000E+00 -0.00000000000E+00 -0.19523009447E+04  0.19523009447E+04  0.00000000000E+00 0. -1.
         25    1    1    2    0    0  0.21054005178E+03 -0.54475921876E+02 -0.11510924880E+04  0.11781059610E+04  0.12500000000E+03 0.  0.
          2    1    1    2  501    0 -0.14404968619E+03 -0.48020940952E+02 -0.73188258775E+03  0.74746802280E+03  0.00000000000E+00 0. -1.
         -2    1    1    2    0  503 -0.66490365594E+02  0.10249686283E+03  0.29673407442E+02  0.12572623718E+03  0.00000000000E+00 0.  1.
<mgrwt>
<rscale>  4 0.20996719E+03</rscale>
<asrwt>0</asrwt>
<pdfrwt beam="1">  1       21 0.15230658E-01 0.20996719E+03</pdfrwt>
<pdfrwt beam="2">  1       21 0.30035399E+00 0.20996719E+03</pdfrwt>
<totfact> 0.12679979E+03</totfact>
</mgrwt>
</event>
<event>
 5    0  0.1972558E-002  0.2597357E+03  0.7546771E-02  0.1107302E+00
         21   -1    0    0  501  502  0.00000000000E+00  0.00000000000E+00  0.52261019305E+03  0.52261019305E+03  0.00000000000E+00 0.  1.
         21   -1    0    0  502  503 -0.00000000000E+00 -0.00000000000E+00 -0.68016154672E+03  0.68016154672E+03  0.00000000000E+00 0.  1.
         25    1    1    2    0    0  0.16444227117E+03 -0.14461652365E+03 -0.42345864285E+03  0.49284624546E+03  0.12500000000E+03 0.  0.
          2    1    1    2  501    0 -0.18959172963E+03  0.15472293857E+03 -0.15400479830E+03  0.28913956762E+03  0.00000000000E+00 0. -1.
         -2    1    1    2    0  503  0.25149458454E+02 -0.10106414926E+02  0.41991208749E+03  0.42078592669E+03  0.00000000000E+00 0.  1.
<mgrwt>
<rscale>  4 0.25973570E+03</rscale>
<asrwt>0</asrwt>
<pdfrwt beam="1">  1       21 0.80401569E-01 0.25973570E+03</pdfrwt>
<pdfrwt beam="2">  1       21 0.10464024E+00 0.25973570E+03</pdfrwt>
<totfact> 0.94387306E+02</totfact>
</mgrwt>
</event>
<event>
 5    0  0.1972558E-002  0.2486168E+03  0.7546771E-02  0.1114182E+00
         21   -1    0    0  501  502  0.00000000000E+00  0.00000000000E+00  0.10201048082E+03  0.10201048082E+03  0.00000000000E+00 0. -1.
         21   -1    0    0  502  503 -0.00000000000E+00 -0.00000000000E+00 -0.15963319232E+04  0.15963319232E+04  0.00000000000E+00 0.  1.
         25    1    1    2    0    0 -0.94621084402E+02  0.19405083685E+03 -0.13889618304E+04  0.14111870334E+04  0.12500000000E+03 0.  0.
          1    1    1    2  501    0  0.48495543898E+02 -0.20810354833E+03 -0.10686704555E+03  0.23891310142E+03  0.00000000000E+00 0.  1.
         -1    1    1    2    0  503  0.46125540504E+02  0.14052711482E+02  0.15074335211E+01  0.48242269253E+02  0.00000000000E+00 0. -1.
<mgrwt>
<rscale>  4 0.24861680E+03</rscale>
<asrwt>0</asrwt>
<pdfrwt beam="1">  1       21 0.15693921E-01 0.24861680E+03</pdfrwt>
<pdfrwt beam="2">  1       21 0.24558952E+00 0.24861680E+03</pdfrwt>
<totfact> 0.24123651E+03</totfact>
</mgrwt>
</event>
<event>
 5    0  0.1972558E-002  0.3693970E+03  0.7546771E-02  0.1054924E+00
         21   -1    0    0  503  502  0.00000000000E+00  0.00000000000E+00  0.10078514741E+04  0.10078514741E+04  0.00000000000E+00 0.  1.
         21   -1    0    0  501  503 -0.00000000000E+00 -0.00000000000E+00 -0.71181746409E+03  0.71181746409E+03  0.00000000000E+00 0. -1.
         25    1    1    2    0    0 -0.20385686038E+03  0.27109308375E+03 -0.45210870400E+03  0.57885780621E+03  0.12500000000E+03 0.  0.
          4    1    1    2  501    0  0.30219355404E+03 -0.23468333898E+03 -0.27532062719E+01  0.38262879380E+03  0.00000000000E+00 0.  1.
         -4    1    1    2    0  502 -0.98336693657E+02 -0.36409744765E+02  0.75089592031E+03  0.75818233821E+03  0.00000000000E+00 0. -1.
<mgrwt>
<rscale>  4 0.36939701E+03</rscale>
<asrwt>0</asrwt>
<pdfrwt beam="1">  1       21 0.15505407E+00 0.36939701E+03</pdfrwt>
<pdfrwt beam="2">  1       21 0.10951038E+00 0.36939701E+03</pdfrwt>
<totfact> 0.15352899E+02</totfact>
</mgrwt>
</event>
<event>
 5    0  0.1972558E-002  0.2855589E+03  0.7546771E-02  0.1092691E+00
         21   -1    0    0  501  502  0.00000000000E+00  0.00000000000E+00  0.38396630227E+03  0.38396630227E+03  0.00000000000E+00 0.  1.
         21   -1    0    0  502  503 -0.00000000000E+00 -0.00000000000E+00 -0.81964500176E+03  0.81964500176E+03  0.00000000000E+00 0. -1.
         25    1    1    2    0    0  0.34546168850E+03 -0.37679925326E+02 -0.27848274556E+03  0.46253777637E+03  0.12500000000E+03 0.  0.
          4    1    1    2  501    0 -0.11992324305E+03  0.82351431409E+02  0.24086183529E+03  0.28138544060E+03  0.00000000000E+00 0.  1.
         -4    1    1    2    0  503 -0.22553844545E+03 -0.44671506084E+02 -0.39805778922E+03  0.45968808707E+03  0.00000000000E+00 0. -1.
<mgrwt>
<rscale>  4 0.28555889E+03</rscale>
<asrwt>0</asrwt>
<pdfrwt beam="1">  1       21 0.59071739E-01 0.28555889E+03</pdfrwt>
<pdfrwt beam="2">  1       21 0.12609923E+00 0.28555889E+03</pdfrwt>
<totfact> 0.11576272E+03</totfact>
</mgrwt>
</event>
<event>
 5    0  0.1972558E-002  0.2897324E+03  0.7546771E-02  0.1090489E+00
         21   -1    0    0  501  502  0.00000000000E+00  0.00000000000E+00  0.15388535058E+04  0.15388535058E+04  0.00000000000E+00 0.  1.
         21   -1    0    0  502  503 -0.00000000000E+00 -0.00000000000E+00 -0.13342304113E+03  0.13342304113E+03  0.00000000000E+00 0. -1.
         25    1    1    2    0    0  0.64440046736E+02 -0.25331275465E+03  0.53825657613E+02  0.29468979065E+03  0.12500000000E+03 0.  0.
          4    1    1    2  501    0 -0.49371432175E+02  0.23756146938E+03  0.11870363775E+04  0.12115809307E+04  0.00000000000E+00 0.  1.
         -4    1    1    2    0  503 -0.15068614561E+02  0.15751285274E+02  0.16456842954E+03  0.16600582560E+03  0.00000000000E+00 0. -1.
<mgrwt>
<rscale>  4 0.28973241E+03</rscale>
<asrwt>0</asrwt>
<pdfrwt beam="1">  1       21 0.23674668E+00 0.28973241E+03</pdfrwt>
<pdfrwt beam="2">  1       21 0.20526623E-01 0.28973241E+03</pdfrwt>
<totfact> 0.15999809E+03</totfact>
</mgrwt>
</event>
<event>
 5    0  0.1972558E-002  0.1841960E+03  0.7546771E-02  0.1163803E+00
         21   -1    0    0  503  502  0.00000000000E+00  0.00000000000E+00  0.60163917701E+02  0.60163917701E+02  0.00000000000E+00 0. -1.
         21   -1    0    0  501  503 -0.00000000000E+00 -0.00000000000E+00 -0.16090060761E+04  0.16090060761E+04  0.00000000000E+00 0.  1.
         25    1    1    2    0    0  0.15873958766E+03 -0.12676257141E+03 -0.10610629487E+04  0.10875415336E+04  0.12500000000E+03 0.  0.
          2    1    1    2  501    0 -0.61770119451E+02  0.86426489918E+02 -0.46122305462E+03  0.47329883998E+03  0.00000000000E+00 0.  1.
         -2    1    1    2    0  502 -0.96969468213E+02  0.40336081493E+02 -0.26556155028E+02  0.10832962017E+03  0.00000000000E+00 0. -1.
<mgrwt>
<rscale>  4 0.18419599E+03</rscale>
<asrwt>0</asrwt>
<pdfrwt beam="1">  1       21 0.92559863E-02 0.18419599E+03</pdfrwt>
<pdfrwt beam="2">  1       21 0.24753942E+00 0.18419599E+03</pdfrwt>
<totfact> 0.64483602E+03</totfact>
</mgrwt>
</event>
<event>
 5    0  0.1972558E-002  0.2739384E+03  0.7546771E-02  0.1099046E+00
         21   -1    0    0  503  502  0.00000000000E+00  0.00000000000E+00  0.20101082559E+04  0.20101082559E+04  0.00000000000E+00 0. -1.
         21   -1    0    0  501  503 -0.00000000000E+00 -0.00000000000E+00 -0.61319453719E+02  0.61319453719E+02  0.00000000000E+00 0. -1.
         25    1    1    2    0    0 -0.27429979712E+02  0.23026477310E+03  0.59391065439E+03  0.64971465654E+03  0.12500000000E+03 0.  0.
          1    1    1    2  501    0  0.78358765021E+02 -0.23743840717E+03  0.13466040482E+04  0.13696202232E+04  0.00000000000E+00 0.  1.
         -1    1    1    2    0  502 -0.50928785309E+02  0.71736340701E+01  0.82740996002E+01  0.52092829862E+02  0.00000000000E+00 0. -1.
<mgrwt>
<rscale>  4 0.27393840E+03</rscale>
<asrwt>0</asrwt>
<pdfrwt beam="1">  1       21 0.30924737E+00 0.27393840E+03</pdfrwt>
<pdfrwt beam="2">  1       21 0.94337637E-02 0.27393840E+03</pdfrwt>
<totfact> 0.24920959E+03</totfact>
</mgrwt>
</event>
<event>
 5    0  0.1972558E-002  0.2627476E+03  0.7546771E-02  0.1105504E+00
         21   -1    0    0  501  502  0.00000000000E+00  0.00000000000E+00  0.47829685809E+03  0.47829685809E+03  0.00000000000E+00 0.  1.
         21   -1    0    0  502  503 -0.00000000000E+00 -0.00000000000E+00 -0.37683542182E+03  0.37683542182E+03  0.00000000000E+00 0. -1.
         25    1    1    2    0    0 -0.54953683582E+02  0.23138142550E+03 -0.28247955550E+03  0.38984223820E+03  0.12500000000E+03 0.  0.
          3    1    1    2  501    0  0.20831841999E+02 -0.35353743921E+02  0.16243664352E+03  0.16753959535E+03  0.00000000000E+00 0.  1.
         -3    1    1    2    0  503  0.34121841583E+02 -0.19602768158E+03  0.22150434824E+03  0.29775044636E+03  0.00000000000E+00 0. -1.
<mgrwt>
<rscale>  4 0.26274755E+03</rscale>
<asrwt>0</asrwt>
<pdfrwt beam="1">  1       21 0.73584132E-01 0.26274755E+03</pdfrwt>
<pdfrwt beam="2">  1       21 0.57974680E-01 0.26274755E+03</pdfrwt>
<totfact> 0.44057834E+03</totfact>
</mgrwt>
</event>
<event>
 5    0  0.1972558E-002  0.2496922E+03  0.7546771E-02  0.1113500E+00
         21   -1    0    0  501  502  0.00000000000E+00  0.00000000000E+00  0.57319386013E+03  0.57319386013E+03  0.00000000000E+00 0.  1.
         21   -1    0    0  502  503 -0.00000000000E+00 -0.00000000000E+00 -0.58978559603E+03  0.58978559603E+03  0.00000000000E+00 0.  1.
         25    1    1    2    0    0  0.14953508454E+03  0.15618561857E+03 -0.51392136127E+03  0.57139728257E+03  0.12500000000E+03 0.  0.
          1    1    1    2  501    0 -0.18376871114E+03 -0.12156479651E+03  0.22494257956E+03  0.31487791768E+03  0.00000000000E+00 0. -1.
         -1    1    1    2    0  503  0.34233626605E+02 -0.34620822059E+02  0.27238704582E+03  0.27670425591E+03  0.00000000000E+00 0.  1.
<mgrwt>
<rscale>  4 0.24969218E+03</rscale>
<asrwt>0</asrwt>
<pdfrwt beam="1">  1       21 0.88183671E-01 0.24969218E+03</pdfrwt>
<pdfrwt beam="2">  1       21 0.90736245E-01 0.24969218E+03</pdfrwt>
<totfact> 0.10792300E+03</totfact>
</mgrwt>
</event>
<event>
 5    0  0.1972558E-002  0.3653659E+03  0.7546771E-02  0.1056479E+00
         21   -1    0    0  501  502  0.00000000000E+00  0.00000000000E+00  0.18182529885E+04  0.18182529885E+04  0.00000000000E+00 0. -1.
         21   -1    0    0  502  503 -0.00000000000E+00 -0.00000000000E+00 -0.58812496529E+03  0.58812496529E+03  0.00000000000E+00 0. -1.
         25    1    1    2    0    0 -0.63249671570E+02 -0.33910430409E+03 -0.48679676133E+03  0.60958045970E+03  0.12500000000E+03 0.  0.
          4    1    1    2  501    0  0.98253346050E+02  0.31233872817E+03  0.63929203071E+03  0.71826422830E+03  0.00000000000E+00 0.  1.
         -4    1    1    2    0  503 -0.35003674481E+02  0.26765575921E+02  0.10776327538E+04  0.10785332658E+04  0.00000000000E+00 0. -1.
<mgrwt>
<rscale>  4 0.36536590E+03</rscale>
<asrwt>0</asrwt>
<pdfrwt beam="1">  1       21 0.27973123E+00 0.36536590E+03</pdfrwt>
<pdfrwt beam="2">  1       21 0.90480765E-01 0.36536590E+03</pdfrwt>
<totfact> 0.37628507E+01</totfact>
</mgrwt>
</event>
<event>
 5    0  0.1972558E-002  0.3140768E+03  0.7546771E-02  0.1078408E+00
         21   -1    0    0  501  502  0.00000000000E+00  0.00000000000E+00  0.69529863706E+03  0.69529863706E+03  0.00000000000E+00 0. -1.
         21   -1    0    0  502  503 -0.00000000000E+00 -0.00000000000E+00 -0.21928682212E+03  0.21928682212E+03  0.00000000000E+00 0. -1.
         25    1    1    2    0    0 -0.95834043513E+02 -0.27894730257E+03 -0.29372154928E+02  0.32168849061E+03  0.12500000000E+03 0.  0.
          3    1    1    2  501    0  0.78726416808E+01  0.25485175499E+02  0.12250509929E+03  0.12537532456E+03  0.00000000000E+00 0.  1.
         -3    1    1    2    0  503  0.87961401832E+02  0.25346212707E+03  0.38287887059E+03  0.46752164400E+03  0.00000000000E+00 0. -1.
<mgrwt>
<rscale>  4 0.31407679E+03</rscale>
<asrwt>0</asrwt>
<pdfrwt beam="1">  1       21 0.10696902E+00 0.31407679E+03</pdfrwt>
<pdfrwt beam="2">  1       21 0.33736434E-01 0.31407679E+03</pdfrwt>
<totfact> 0.54837019E+03</totfact>
</mgrwt>
</event>
<event>
 5    0  0.1972558E-002  0.2442238E+03  0.7546771E-02  0.1117011E+00
         21   -1    0    0  501  502  0.00000000000E+00  0.00000000000E+00  0.28815977906E+03  0.28815977906E+03  0.00000000000E+00 0. -1.
         21   -1    0    0  502  503 -0.00000000000E+00 -0.00000000000E+00 -0.65660231125E+03  0.65660231125E+03  0.00000000000E+00 0.  1.
         25    1    1    2    0    0 -0.10347930681E+03  0.20013260569E+03 -0.52399043578E+03  0.58391095519E+03  0.12500000000E+03 0.  0.
          2    1    1    2  501    0  0.72317327871E+02 -0.19580573378E+03  0.21118668830E+03  0.29693349189E+03  0.00000000000E+00 0. -1.
         -2    1    1    2    0  503  0.31161978943E+02 -0.43268719104E+01 -0.55638784711E+02  0.63917643232E+02  0.00000000000E+00 0.  1.
<mgrwt>
<rscale>  4 0.24422384E+03</rscale>
<asrwt>0</asrwt>
<pdfrwt beam="1">  1       21 0.44332275E-01 0.24422384E+03</pdfrwt>
<pdfrwt beam="2">  1       21 0.10101574E+00 0.24422384E+03</pdfrwt>
<totfact> 0.37664832E+03</totfact>
</mgrwt>
</event>
<event>
 5    0  0.1972558E-002  0.2254522E+03  0.7546771E-02  0.1129882E+00
         21   -1    0    0  501  502  0.00000000000E+00  0.00000000000E+00  0.92178483209E+03  0.92178483209E+03  0.00000000000E+00 0.  1.
         21   -1    0    0  502  503 -0.00000000000E+00 -0.00000000000E+00 -0.82618796646E+02  0.82618796646E+02  0.00000000000E+00 0. -1.
         25    1    1    2    0    0  0.98889412235E+02 -0.17568189500E+03  0.17600574323E+03  0.29537478859E+03  0.12500000000E+03 0.  0.
          1    1    1    2  501    0 -0.21975149069E+02  0.25567433708E+02  0.36429440073E+03  0.36585107796E+03  0.00000000000E+00 0.  1.
         -1    1    1    2    0  503 -0.76914263166E+02  0.15011446129E+03  0.29886589149E+03  0.34317776219E+03  0.00000000000E+00 0. -1.
<mgrwt>
<rscale>  4 0.22545219E+03</rscale>
<asrwt>0</asrwt>
<pdfrwt beam="1">  1       21 0.14181304E+00 0.22545219E+03</pdfrwt>
<pdfrwt beam="2">  1       21 0.12710585E-01 0.22545219E+03</pdfrwt>
<totfact> 0.17934873E+04</totfact>
</mgrwt>
</event>
<event>
 5    0  0.1972558E-002  0.2302638E+03  0.7546771E-02  0.1126454E+00
         21   -1    0    0  501  502  0.00000000000E+00  0.00000000000E+00  0.10784315663E+03  0.10784315663E+03  0.00000000000E+00 0.  1.
         21   -1    0    0  502  503 -0.00000000000E+00 -0.00000000000E+00 -0.12045220478E+04  0.12045220478E+04  0.00000000000E+00 0. -1.
         25    1    1    2    0    0  0.19881762818E+03 -0.44681932456E+02 -0.10423502915E+04  0.10694129486E+04  0.12500000000E+03 0.  0.
          2    1    1    2  501    0 -0.15505462209E+03  0.32723623594E+02 -0.92649217278E+02  0.18356646980E+03  0.00000000000E+00 0. -1.
         -2    1    1    2    0  503 -0.43763006085E+02  0.11958308862E+02  0.38320617607E+02  0.59385786062E+02  0.00000000000E+00 0.  1.
<mgrwt>
<rscale>  4 0.23026381E+03</rscale>
<asrwt>0</asrwt>
<pdfrwt beam="1">  1       21 0.16591254E-01 0.23026381E+03</pdfrwt>
<pdfrwt beam="2">  1       21 0.18531109E+00 0.23026381E+03</pdfrwt>
<totfact> 0.52966543E+03</totfact>
</mgrwt>
</event>
<event>
 5    0  0.1972558E-002  0.2600538E+03  0.7546771E-02  0.1107111E+00
         21   -1    0    0  503  502  0.00000000000E+00  0.00000000000E+00  0.80531916934E+03  0.80531916934E+03  0.00000000000E+00 0. -1.
         21   -1    0    0  501  503 -0.00000000000E+00 -0.00000000000E+00 -0.12823836545E+03  0.12823836545E+03  0.00000000000E+00 0. -1.
         25    1    1    2    0    0 -0.20832761512E+03  0.16890842472E+03  0.37251008139E+03  0.47573018813E+03  0.12500000000E+03 0.  0.
          3    1    1    2  501    0  0.12286500590E+03  0.21479493495E+02  0.66896332841E+02  0.14153549966E+03  0.00000000000E+00 0.  1.
         -3    1    1    2    0  502  0.85462609216E+02 -0.19038791821E+03  0.23767438966E+03  0.31629184700E+03  0.00000000000E+00 0. -1.
<mgrwt>
<rscale>  4 0.26005383E+03</rscale>
<asrwt>0</asrwt>
<pdfrwt beam="1">  1       21 0.12389525E+00 0.26005383E+03</pdfrwt>
<pdfrwt beam="2">  1       21 0.19728980E-01 0.26005383E+03</pdfrwt>
<totfact> 0.11067708E+04</totfact>
</mgrwt>
</event>
<event>
 5    0  0.1972558E-002  0.2357544E+03  0.7546771E-02  0.1122654E+00
         21   -1    0    0  503  502  0.00000000000E+00  0.00000000000E+00  0.17631851802E+04  0.17631851802E+04  0.00000000000E+00 0.  1.
         21   -1    0    0  501  503 -0.00000000000E+00 -0.00000000000E+00 -0.44739968131E+02  0.44739968131E+02  0.00000000000E+00 0.  1.
         25    1    1    2    0    0  0.10522001390E+03 -0.18248484003E+03  0.44391425554E+03  0.50700772622E+03  0.12500000000E+03 0.  0.
          2    1    1    2  501    0 -0.38237313186E+02 -0.36386871484E+01  0.66478026458E+02  0.76776690249E+02  0.00000000000E+00 0. -1.
         -2    1    1    2    0  502 -0.66982700718E+02  0.18612352718E+03  0.12080529301E+04  0.12241407319E+04  0.00000000000E+00 0.  1.
<mgrwt>
<rscale>  4 0.23575436E+03</rscale>
<asrwt>0</asrwt>
<pdfrwt beam="1">  1       21 0.27125920E+00 0.23575436E+03</pdfrwt>
<pdfrwt beam="2">  1       21 0.68830734E-02 0.23575436E+03</pdfrwt>
<totfact> 0.74695334E+03</totfact>
</mgrwt>
</event>
<event>
 5    0  0.1972558E-002  0.3341993E+03  0.7546771E-02  0.1069294E+00
         21   -1    0    0  501  502  0.00000000000E+00  0.00000000000E+00  0.91983415504E+02  0.91983415504E+02  0.00000000000E+00 0. -1.
         21   -1    0    0  502  503 -0.00000000000E+00 -0.00000000000E+00 -0.15466296250E+04  0.15466296250E+04  0.00000000000E+00 0. -1.
         25    1    1    2    0    0  0.29854955772E+03  0.28937997762E+02 -0.91685778461E+03  0.97273965855E+03  0.12500000000E+03 0.  0.
          1    1    1    2  501    0 -0.32429244053E+03 -0.32984581378E+02 -0.54821696932E+03  0.63780515445E+03  0.00000000000E+00 0. -1.
         -1    1    1    2    0  503  0.25742882810E+02  0.40465836162E+01  0.10428544454E+02  0.28068227478E+02  0.00000000000E+00 0.  1.
<mgrwt>
<rscale>  4 0.33419929E+03</rscale>
<asrwt>0</asrwt>
<pdfrwt beam="1">  1       21 0.14151295E-01 0.33419929E+03</pdfrwt>
<pdfrwt beam="2">  1       21 0.23794302E+00 0.33419929E+03</pdfrwt>
<totfact> 0.30503426E+03</totfact>
</mgrwt>
</event>
<event>
 5    0  0.1972558E-002  0.3425260E+03  0.7546771E-02  0.1065725E+00
         21   -1    0    0  501  502  0.00000000000E+00  0.00000000000E+00  0.52733103480E+03  0.52733103480E+03  0.00000000000E+00 0.  1.
         21   -1    0    0  502  503 -0.00000000000E+00 -0.00000000000E+00 -0.57441215937E+03  0.57441215937E+03  0.00000000000E+00 0.  1.
         25    1    1    2    0    0 -0.21474113735E+03  0.23788742829E+03 -0.34554370991E+03  0.48757526605E+03  0.12500000000E+03 0.  0.
          3    1    1    2  501    0  0.18961259152E+03 -0.25316254793E+03  0.20541693370E+01  0.31630433153E+03  0.00000000000E+00 0.  1.
         -3    1    1    2    0  503  0.25128545828E+02  0.15275119634E+02  0.29640841600E+03  0.29786359659E+03  0.00000000000E+00 0. -1.
<mgrwt>
<rscale>  4 0.34252605E+03</rscale>
<asrwt>0</asrwt>
<pdfrwt beam="1">  1       21 0.81127851E-01 0.34252605E+03</pdfrwt>
<pdfrwt beam="2">  1       21 0.88371101E-01 0.34252605E+03</pdfrwt>
<totfact> 0.13112718E+03</totfact>
</mgrwt>
</event>
<event>
 5    0  0.1972558E-002  0.3232219E+03  0.7546771E-02  0.1074176E+00
         21   -1    0    0  501  502  0.00000000000E+00  0.00000000000E+00  0.81866197085E+03  0.81866197085E+03  0.00000000000E+00 0. -1.
         21   -1    0    0  502  503 -0.00000000000E+00 -0.00000000000E+00 -0.96329076028E+03  0.96329076028E+03  0.00000000000E+00 0. -1.
         25    1    1    2    0    0 -0.20966122764E+03  0.20699988654E+03 -0.79276802024E+03  0.85493445206E+03  0.12500000000E+03 0.  0.
          1    1    1    2  501    0  0.24170226192E+03 -0.20812874572E+03  0.43947629601E+02  0.32197663325E+03  0.00000000000E+00 0. -1.
         -1    1    1    2    0  503 -0.32041034276E+02  0.11288591833E+01  0.60419160121E+03  0.60504164582E+03  0.00000000000E+00 0.  1.
<mgrwt>
<rscale>  4 0.32322191E+03</rscale>
<asrwt>0</asrwt>
<pdfrwt beam="1">  1       21 0.12594800E+00 0.32322191E+03</pdfrwt>
<pdfrwt beam="2">  1       21 0.14819858E+00 0.32322191E+03</pdfrwt>
<totfact> 0.12632951E+02</totfact>
</mgrwt>
</event>
<event>
 5    0  0.1972558E-002  0.3123553E+03  0.7546771E-02  0.1079222E+00
         21   -1    0    0  501  502  0.00000000000E+00  0.00000000000E+00  0.26111425570E+03  0.26111425570E+03  0.00000000000E+00 0. -1.
         21   -1    0    0  502  503 -0.00000000000E+00 -0.00000000000E+00 -0.43041485530E+03  0.43041485530E+03  0.00000000000E+00 0. -1.
         25    1    1    2    0    0  0.27047848321E+03 -0.91981886902E+02 -0.19228404497E+03  0.36635697257E+03  0.12500000000E+03 0.  0.
          2    1    1    2  501    0 -0.27849496788E+03  0.72004415769E+02 -0.76233400490E+01  0.28775371125E+03  0.00000000000E+00 0. -1.
         -2    1    1    2    0  503  0.80164846664E+01  0.19977471133E+02  0.30606785427E+02  0.37418427191E+02  0.00000000000E+00 0.  1.
<mgrwt>
<rscale>  4 0.31235530E+03</rscale>
<asrwt>0</asrwt>
<pdfrwt beam="1">  1       21 0.40171425E-01 0.31235530E+03</pdfrwt>
<pdfrwt beam="2">  1       21 0.66217669E-01 0.31235530E+03</pdfrwt>
<totfact> 0.11724163E+04</totfact>
</mgrwt>
</event>
<event>
 5    0  0.1972558E-002  0.2747488E+03  0.7546771E-02  0.1098592E+00
         21   -1    0    0  501  502  0.00000000000E+00  0.00000000000E+00  0.13446292704E+04  0.13446292704E+04  0.00000000000E+00 0.  1.
         21   -1    0    0  502  503 -0.00000000000E+00 -0.00000000000E+00 -0.59851403898E+02  0.59851403898E+02  0.00000000000E+00 0. -1.
         25    1    1    2    0    0  0.67740537105E+02 -0.24005628821E+03  0.47558229363E+03  0.55137946996E+03  0.12500000000E+03 0.  0.
          2    1    1    2  501    0 -0.26562331234E+02  0.46536067215E+01  0.13853223932E+03  0.14113254347E+03  0.00000000000E+00 0. -1.
         -2    1    1    2    0  503 -0.41178205871E+02  0.23540268149E+03  0.67066333357E+03  0.71196866089E+03  0.00000000000E+00 0.  1.
<mgrwt>
<rscale>  4 0.27474881E+03</rscale>
<asrwt>0</asrwt>
<pdfrwt beam="1">  1       21 0.20686602E+00 0.27474881E+03</pdfrwt>
<pdfrwt beam="2">  1       21 0.92079093E-02 0.27474881E+03</pdfrwt>
<totfact> 0.10737847E+04</totfact>
</mgrwt>
</event>
<event>
 5    0  0.1972558E-002  0.2759353E+03  0.7546771E-02  0.1097930E+00
         21   -1    0    0  501  502  0.00000000000E+00  0.00000000000E+00  0.43589378010E+03  0.43589378010E+03  0.00000000000E+00 0.  1.
         21   -1    0    0  502  503 -0.00000000000E+00 -0.00000000000E+00 -0.18101058528E+03  0.18101058528E+03  0.00000000000E+00 0.  1.
         25    1    1    2    0    0  0.93062660686E+02  0.22771610628E+03  0.37180969279E+02  0.27842900055E+03  0.12500000000E+03 0.  0.
          2    1    1    2  501    0 -0.37056817983E+02 -0.33247045931E+02  0.78114426294E+02  0.92630650529E+02  0.00000000000E+00 0. -1.
         -2    1    1    2    0  503 -0.56005842703E+02 -0.19446906035E+03  0.13958779925E+03  0.24584471430E+03  0.00000000000E+00 0.  1.
<mgrwt>
<rscale>  4 0.27593529E+03</rscale>
<asrwt>0</asrwt>
<pdfrwt beam="1">  1       21 0.67060581E-01 0.27593529E+03</pdfrwt>
<pdfrwt beam="2">  1       21 0.27847783E-01 0.27593529E+03</pdfrwt>
<totfact> 0.24044477E+04</totfact>
</mgrwt>
</event>
<event>
 5    0  0.1972558E-002  0.3212102E+03  0.7546771E-02  0.1075094E+00
         21   -1    0    0  501  502  0.00000000000E+00  0.00000000000E+00  0.28070563826E+04  0.28070563826E+04  0.00000000000E+00 0. -1.
         21   -1    0    0  502  503 -0.00000000000E+00 -0.00000000000E+00 -0.41122065424E+02  0.41122065424E+02  0.00000000000E+00 0. -1.
         25    1    1    2    0    0 -0.14080262162E+03 -0.26280781584E+03  0.10630561266E+04  0.11111285500E+04  0.12500000000E+03 0.  0.
          3    1    1    2  501    0  0.12090835199E+03  0.26754226290E+03  0.12621424049E+04  0.12958399369E+04  0.00000000000E+00 0. -1.
         -3    1    1    2    0  503  0.19894269626E+02 -0.47344470611E+01  0.44073578566E+03  0.44120996103E+03  0.00000000000E+00 0.  1.
<mgrwt>
<rscale>  4 0.32121015E+03</rscale>
<asrwt>0</asrwt>
<pdfrwt beam="1">  1       21 0.43185468E+00 0.32121015E+03</pdfrwt>
<pdfrwt beam="2">  1       21 0.63264738E-02 0.32121015E+03</pdfrwt>
<totfact> 0.84423564E+02</totfact>
</mgrwt>
</event>
<event>
 5    0  0.1972558E-002  0.2438129E+03  0.7546771E-02  0.1117279E+00
         21   -1    0    0  501  502  0.00000000000E+00  0.00000000000E+00  0.31305521314E+03  0.31305521314E+03  0.00000000000E+00 0.  1.
         21   -1    0    0  502  503 -0.00000000000E+00 -0.00000000000E+00 -0.21131775548E+03  0.21131775548E+03  0.00000000000E+00 0. -1.
         25    1    1    2    0    0  0.17943317751E+03  0.11886411816E+03 -0.12033967000E+01  0.24890036549E+03  0.12500000000E+03 0.  0.
          4    1    1    2  501    0 -0.18612158910E+03 -0.84795756839E+02  0.47360169510E+02  0.20993940070E+03  0.00000000000E+00 0.  1.
         -4    1    1    2    0  503  0.66884115975E+01 -0.34068361317E+02  0.55580684850E+02  0.65533202432E+02  0.00000000000E+00 0. -1.
<mgrwt>
<rscale>  4 0.24381292E+03</rscale>
<asrwt>0</asrwt>
<pdfrwt beam="1">  1       21 0.48162340E-01 0.24381292E+03</pdfrwt>
<pdfrwt beam="2">  1       21 0.32510424E-01 0.24381292E+03</pdfrwt>
<totfact> 0.36582790E+04</totfact>
</mgrwt>
</event>
<event>
 5    0  0.1972558E-002  0.3083189E+03  0.7546771E-02  0.1081154E+00
         21   -1    0    0  501  502  0.00000000000E+00  0.00000000000E+00  0.99858210756E+03  0.99858210756E+03  0.00000000000E+00 0. -1.
         21   -1    0    0  502  503 -0.00000000000E+00 -0.00000000000E+00 -0.28408421303E+03  0.28408421303E+03  0.00000000000E+00 0. -1.
         25    1    1    2    0    0 -0.28527554087E+03  0.45707344821E+01 -0.15466828826E+03  0.34777910407E+03  0.12500000000E+03 0.  0.
          1    1    1    2  501    0  0.26281119597E+03  0.36655276987E+01  0.49936207481E+03  0.56430988169E+03  0.00000000000E+00 0. -1.
         -1    1    1    2    0  503  0.22464344901E+02 -0.82362621808E+01  0.36980410799E+03  0.37057733483E+03  0.00000000000E+00 0.  1.
<mgrwt>
<rscale>  4 0.30831894E+03</rscale>
<asrwt>0</asrwt>
<pdfrwt beam="1">  1       21 0.15362801E+00 0.30831894E+03</pdfrwt>
<pdfrwt beam="2">  1       21 0.43705264E-01 0.30831894E+03</pdfrwt>
<totfact> 0.12862382E+03</totfact>
</mgrwt>
</event>
<event>
 5    0  0.1972558E-002  0.2688748E+03  0.7546771E-02  0.1101925E+00
         21   -1    0    0  501  502  0.00000000000E+00  0.00000000000E+00  0.15939266446E+03  0.15939266446E+03  0.00000000000E+00 0.  1.
         21   -1    0    0  502  503 -0.00000000000E+00 -0.00000000000E+00 -0.12651620213E+04  0.12651620213E+04  0.00000000000E+00 0. -1.
         25    1    1    2    0    0 -0.16830740699E+03 -0.16834868142E+03 -0.11433485696E+04  0.11745380425E+04  0.12500000000E+03 0.  0.
          4    1    1    2  501    0  0.62452576097E+01  0.23189442337E+02  0.20856619507E+02  0.31808050172E+02  0.00000000000E+00 0. -1.
         -4    1    1    2    0  503  0.16206214938E+03  0.14515923909E+03  0.16722593244E+02  0.21820859304E+03  0.00000000000E+00 0.  1.
<mgrwt>
<rscale>  4 0.26887481E+03</rscale>
<asrwt>0</asrwt>
<pdfrwt beam="1">  1       21 0.24521947E-01 0.26887481E+03</pdfrwt>
<pdfrwt beam="2">  1       21 0.19464032E+00 0.26887481E+03</pdfrwt>
<totfact> 0.21381023E+03</totfact>
</mgrwt>
</event>
<event>
 5    0  0.1972558E-002  0.2273576E+03  0.7546771E-02  0.1128514E+00
         21   -1    0    0  503  502  0.00000000000E+00  0.00000000000E+00  0.38885316016E+02  0.38885316016E+02  0.00000000000E+00 0.  1.
         21   -1    0    0  501  503 -0.00000000000E+00 -0.00000000000E+00 -0.13694609086E+04  0.13694609086E+04  0.00000000000E+00 0.  1.
         25    1    1    2    0    0  0.10173140774E+03  0.17709175705E+03 -0.69969808373E+03  0.73953578555E+03  0.12500000000E+03 0.  0.
          4    1    1    2  501    0  0.11483754231E+01 -0.28076342255E+02 -0.19197690802E+03  0.19402250636E+03  0.00000000000E+00 0. -1.
         -4    1    1    2    0  502 -0.10287978316E+03 -0.14901541479E+03 -0.43890060082E+03  0.47478793270E+03  0.00000000000E+00 0.  1.
<mgrwt>
<rscale>  4 0.22735759E+03</rscale>
<asrwt>0</asrwt>
<pdfrwt beam="1">  1       21 0.59823569E-02 0.22735759E+03</pdfrwt>
<pdfrwt beam="2">  1       21 0.21068627E+00 0.22735759E+03</pdfrwt>
<totfact> 0.22198606E+04</totfact>
</mgrwt>
</event>
<event>
 5    0  0.1972558E-002  0.2881794E+03  0.7546771E-02  0.1091304E+00
         21   -1    0    0  503  502  0.00000000000E+00  0.00000000000E+00  0.39656518891E+03  0.39656518891E+03  0.00000000000E+00 0.  1.
         21   -1    0    0  501  503 -0.00000000000E+00 -0.00000000000E+00 -0.26126317107E+03  0.26126317107E+03  0.00000000000E+00 0.  1.
         25    1    1    2    0    0 -0.59427302974E+02  0.25991602029E+03 -0.77810794673E+02  0.30457751347E+03  0.12500000000E+03 0.  0.
          1    1    1    2  501    0 -0.19465901423E+02 -0.26825043656E+02  0.42108886939E+02  0.53587896437E+02  0.00000000000E+00 0. -1.
         -1    1    1    2    0  502  0.78893204396E+02 -0.23309097664E+03  0.17100392557E+03  0.29966295008E+03  0.00000000000E+00 0.  1.
<mgrwt>
<rscale>  4 0.28817937E+03</rscale>
<asrwt>0</asrwt>
<pdfrwt beam="1">  1       21 0.61010029E-01 0.28817937E+03</pdfrwt>
<pdfrwt beam="2">  1       21 0.40194334E-01 0.28817937E+03</pdfrwt>
<totfact> 0.14161130E+04</totfact>
</mgrwt>
</event>
<event>
 5    0  0.1972558E-002  0.2015909E+03  0.7546771E-02  0.1148404E+00
         21   -1    0    0  501  502  0.00000000000E+00  0.00000000000E+00  0.50969310662E+03  0.50969310662E+03  0.00000000000E+00 0. -1.
         21   -1    0    0  502  503 -0.00000000000E+00 -0.00000000000E+00 -0.49800083557E+03  0.49800083557E+03  0.00000000000E+00 0.  1.
         25    1    1    2    0    0 -0.20039847444E+03  0.87923750942E+02 -0.32813739449E+03  0.41375026792E+03  0.12500000000E+03 0.  0.
          4    1    1    2  501    0  0.15658588204E+03  0.33701816142E+01  0.43044674247E+03  0.45805555851E+03  0.00000000000E+00 0. -1.
         -4    1    1    2    0  503  0.43812592400E+02 -0.91293932556E+02 -0.90617076928E+02  0.13588811576E+03  0.00000000000E+00 0.  1.
<mgrwt>
<rscale>  4 0.20159095E+03</rscale>
<asrwt>0</asrwt>
<pdfrwt beam="1">  1       21 0.78414324E-01 0.20159095E+03</pdfrwt>
<pdfrwt beam="2">  1       21 0.76615513E-01 0.20159095E+03</pdfrwt>
<totfact> 0.21639198E+03</totfact>
</mgrwt>
</event>
<event>
 5    0  0.1972558E-002  0.2693504E+03  0.7546771E-02  0.1101652E+00
         21   -1    0    0  501  502  0.00000000000E+00  0.00000000000E+00  0.42206716086E+03  0.42206716086E+03  0.00000000000E+00 0. -1.
         21   -1    0    0  502  503 -0.00000000000E+00 -0.00000000000E+00 -0.30053485940E+03  0.30053485940E+03  0.00000000000E+00 0.  1.
         25    1    1    2    0    0  0.11910650713E+03  0.20836511339E+03 -0.17098978677E+03  0.32010137097E+03  0.12500000000E+03 0.  0.
          1    1    1    2  501    0 -0.13566015190E+03 -0.19135640062E+03  0.20404155577E+03  0.31089211208E+03  0.00000000000E+00 0. -1.
         -1    1    1    2    0  503  0.16553644768E+02 -0.17008712766E+02  0.88480532460E+02  0.91608537209E+02  0.00000000000E+00 0.  1.
<mgrwt>
<rscale>  4 0.26935038E+03</rscale>
<asrwt>0</asrwt>
<pdfrwt beam="1">  1       21 0.64933410E-01 0.26935038E+03</pdfrwt>
<pdfrwt beam="2">  1       21 0.46236132E-01 0.26935038E+03</pdfrwt>
<totfact> 0.93451983E+03</totfact>
</mgrwt>
</event>
<event>
 5    0  0.1972558E-002  0.7516035E+03  0.7546771E-02  0.9632838E-01
         21   -1    0    0  501  502  0.00000000000E+00  0.00000000000E+00  0.98055903714E+03  0.98055903714E+03  0.00000000000E+00 0. -1.
         21   -1    0    0  502  503 -0.00000000000E+00 -0.00000000000E+00 -0.10173521721E+04  0.10173521721E+04  0.00000000000E+00 0.  1.
         25    1    1    2    0    0  0.75230153345E+03  0.41446103512E+02 -0.30464627693E+03  0.82225891955E+03  0.12500000000E+03 0.  0.
          4    1    1    2  501    0 -0.72628242273E+03 -0.37947701325E+02 -0.16191834926E+03  0.74507968529E+03  0.00000000000E+00 0.  1.
         -4    1    1    2    0  503 -0.26019110722E+02 -0.34984021873E+01  0.42977149125E+03  0.43057260437E+03  0.00000000000E+00 0. -1.
<mgrwt>
<rscale>  4 0.75160349E+03</rscale>
<asrwt>0</asrwt>
<pdfrwt beam="1">  1       21 0.15085524E+00 0.75160349E+03</pdfrwt>
<pdfrwt beam="2">  1       21 0.15651572E+00 0.75160349E+03</pdfrwt>
<totfact> 0.54380165E+01</totfact>
</mgrwt>
</event>
<event>
 5    0  0.1972558E-002  0.3758192E+03  0.7546771E-02  0.1052722E+00
         21   -1    0    0  501  502  0.00000000000E+00  0.00000000000E+00  0.18613631799E+03  0.18613631799E+03  0.00000000000E+00 0. -1.
         21   -1    0    0  502  503 -0.00000000000E+00 -0.00000000000E+00 -0.21942767771E+04  0.21942767771E+04  0.00000000000E+00 0.  1.
         25    1    1    2    0    0  0.15929237207E+03 -0.31367634574E+03 -0.19672628348E+04  0.20023773298E+04  0.12500000000E+03 0.  0.
          2    1    1    2  501    0 -0.18676146491E+01  0.93266714751E+02  0.30123279428E+02  0.98028465399E+02  0.00000000000E+00 0.  1.
         -2    1    1    2    0  503 -0.15742475742E+03  0.22040963098E+03 -0.71000903778E+02  0.28000729994E+03  0.00000000000E+00 0. -1.
<mgrwt>
<rscale>  4 0.37520093E+03</rscale>
<asrwt>0</asrwt>
<pdfrwt beam="1">  1       21 0.28636357E-01 0.37581918E+03</pdfrwt>
<pdfrwt beam="2">  1       21 0.33758104E+00 0.37581918E+03</pdfrwt>
<totfact> 0.19667763E+02</totfact>
</mgrwt>
</event>
<event>
 5    0  0.1972558E-002  0.2401856E+03  0.7546771E-02  0.1119669E+00
         21   -1    0    0  501  502  0.00000000000E+00  0.00000000000E+00  0.23257763529E+03  0.23257763529E+03  0.00000000000E+00 0. -1.
         21   -1    0    0  502  503 -0.00000000000E+00 -0.00000000000E+00 -0.29034432066E+03  0.29034432066E+03  0.00000000000E+00 0.  1.
         25    1    1    2    0    0 -0.18006371704E+03 -0.11361494144E+03 -0.13040489770E+03  0.27921628616E+03  0.12500000000E+03 0.  0.
          4    1    1    2  501    0  0.15993877040E+03  0.10866622855E+03  0.29169755272E+02  0.19554956949E+03  0.00000000000E+00 0. -1.
         -4    1    1    2    0  503  0.20124946639E+02  0.49487128903E+01  0.43468457055E+02  0.48156100291E+02  0.00000000000E+00 0.  1.
<mgrwt>
<rscale>  4 0.24018559E+03</rscale>
<asrwt>0</asrwt>
<pdfrwt beam="1">  1       21 0.35781175E-01 0.24018559E+03</pdfrwt>
<pdfrwt beam="2">  1       21 0.44668357E-01 0.24018559E+03</pdfrwt>
<totfact> 0.35397816E+04</totfact>
</mgrwt>
</event>
<event>
 5    0  0.1972558E-002  0.2593454E+03  0.7546771E-02  0.1107537E+00
         21   -1    0    0  503  502  0.00000000000E+00  0.00000000000E+00  0.85491574883E+03  0.85491574883E+03  0.00000000000E+00 0. -1.
         21   -1    0    0  501  503 -0.00000000000E+00 -0.00000000000E+00 -0.78205579929E+02  0.78205579929E+02  0.00000000000E+00 0. -1.
         25    1    1    2    0    0 -0.20306792370E+03  0.87021639188E+02  0.31963554322E+03  0.40816813670E+03  0.12500000000E+03 0.  0.
          3    1    1    2  501    0 -0.61920472272E+01  0.19747452392E+02  0.61383801112E+02  0.64778656699E+02  0.00000000000E+00 0.  1.
         -3    1    1    2    0  502  0.20925997093E+03 -0.10676909158E+03  0.39569082457E+03  0.46017453537E+03  0.00000000000E+00 0. -1.
<mgrwt>
<rscale>  4 0.25934538E+03</rscale>
<asrwt>0</asrwt>
<pdfrwt beam="1">  1       21 0.13152549E+00 0.25934538E+03</pdfrwt>
<pdfrwt beam="2">  1       21 0.12031628E-01 0.25934538E+03</pdfrwt>
<totfact> 0.23611751E+04</totfact>
</mgrwt>
</event>
<event>
 5    0  0.1972558E-002  0.3111672E+03  0.7546771E-02  0.1079788E+00
         21   -1    0    0  501  502  0.00000000000E+00  0.00000000000E+00  0.20988010216E+03  0.20988010216E+03  0.00000000000E+00 0. -1.
         21   -1    0    0  502  503 -0.00000000000E+00 -0.00000000000E+00 -0.11230002716E+04  0.11230002716E+04  0.00000000000E+00 0.  1.
         25    1    1    2    0    0  0.48305693714E+02  0.27366204591E+03 -0.75640659949E+03  0.81547550494E+03  0.12500000000E+03 0.  0.
          3    1    1    2  501    0 -0.64965185962E+02  0.33879156271E+02  0.94765168169E+02  0.11978609984E+03  0.00000000000E+00 0.  1.
         -3    1    1    2    0  503  0.16659492248E+02 -0.30754120218E+03 -0.25147873813E+03  0.39761876899E+03  0.00000000000E+00 0. -1.
<mgrwt>
<rscale>  4 0.31116721E+03</rscale>
<asrwt>0</asrwt>
<pdfrwt beam="1">  1       21 0.32289247E-01 0.31116721E+03</pdfrwt>
<pdfrwt beam="2">  1       21 0.17276927E+00 0.31116721E+03</pdfrwt>
<totfact> 0.17139479E+03</totfact>
</mgrwt>
</event>
<event>
 5    0  0.2422591E-002  0.3185746E+03  0.7546771E-02  0.1076307E+00
         21   -1    0    0  501  502  0.00000000000E+00  0.00000000000E+00  0.72002101293E+03  0.72002101293E+03  0.00000000000E+00 0. -1.
         21   -1    0    0  502  503 -0.00000000000E+00 -0.00000000000E+00 -0.34222021383E+03  0.34222021383E+03  0.00000000000E+00 0. -1.
         25    1    1    2    0    0 -0.32725323750E+03 -0.18507179823E+02 -0.74898058324E+02  0.35870867887E+03  0.12500000000E+03 0.  0.
          2    1    1    2  501    0  0.28425045139E+03 -0.47870076650E+02  0.52334967482E+03  0.59748200433E+03  0.00000000000E+00 0. -1.
         -2    1    1    2    0  503  0.43002786104E+02  0.66377256474E+02 -0.70650817404E+02  0.10605054356E+03  0.00000000000E+00 0.  1.
<mgrwt>
<rscale>  4 0.31857456E+03</rscale>
<asrwt>0</asrwt>
<pdfrwt beam="1">  1       21 0.11077246E+00 0.31857456E+03</pdfrwt>
<pdfrwt beam="2">  1       21 0.52649264E-01 0.31857456E+03</pdfrwt>
<totfact> 0.20072920E+03</totfact>
</mgrwt>
</event>
<event>
 5    0  0.1972558E-002  0.1963544E+03  0.7546771E-02  0.1152852E+00
         21   -1    0    0  501  502  0.00000000000E+00  0.00000000000E+00  0.30316196211E+03  0.30316196211E+03  0.00000000000E+00 0. -1.
         21   -1    0    0  502  503 -0.00000000000E+00 -0.00000000000E+00 -0.43832232870E+03  0.43832232870E+03  0.00000000000E+00 0. -1.
         25    1    1    2    0    0  0.20141643065E+03 -0.33581923776E+02 -0.25476157036E+03  0.34960661017E+03  0.12500000000E+03 0.  0.
          4    1    1    2  501    0 -0.10208966139E+03  0.68896775591E+02 -0.93163253389E+02  0.15442945454E+03  0.00000000000E+00 0.  1.
         -4    1    1    2    0  503 -0.99326769268E+02 -0.35314851815E+02  0.21276445716E+03  0.23744822611E+03  0.00000000000E+00 0. -1.
<mgrwt>
<rscale>  4 0.19635439E+03</rscale>
<asrwt>0</asrwt>
<pdfrwt beam="1">  1       21 0.46640302E-01 0.19635439E+03</pdfrwt>
<pdfrwt beam="2">  1       21 0.67434204E-01 0.19635439E+03</pdfrwt>
<totfact> 0.88309381E+03</totfact>
</mgrwt>
</event>
<event>
 5    0  0.1972558E-002  0.2782011E+03  0.7546771E-02  0.1096676E+00
         21   -1    0    0  501  502  0.00000000000E+00  0.00000000000E+00  0.11227154694E+04  0.11227154694E+04  0.00000000000E+00 0.  1.
         21   -1    0    0  502  503 -0.00000000000E+00 -0.00000000000E+00 -0.22644183621E+04  0.22644183621E+04  0.00000000000E+00 0.  1.
         25    1    1    2    0    0 -0.17756589317E+03 -0.17470846180E+03 -0.22296665997E+04  0.22470182106E+04  0.12500000000E+03 0.  0.
          3    1    1    2  501    0  0.12786063523E+03  0.17934963045E+03  0.45835783681E+03  0.50853371427E+03  0.00000000000E+00 0. -1.
         -3    1    1    2    0  503  0.49705257934E+02 -0.46411686434E+01  0.62960587017E+03  0.63158190669E+03  0.00000000000E+00 0.  1.
<mgrwt>
<rscale>  4 0.27820112E+03</rscale>
<asrwt>0</asrwt>
<pdfrwt beam="1">  1       21 0.17272546E+00 0.27820112E+03</pdfrwt>
<pdfrwt beam="2">  1       21 0.34837205E+00 0.27820112E+03</pdfrwt>
<totfact> 0.31103905E+00</totfact>
</mgrwt>
</event>
<event>
 5    0  0.1972558E-002  0.3168604E+03  0.7546771E-02  0.1077103E+00
         21   -1    0    0  501  502  0.00000000000E+00  0.00000000000E+00  0.21079797308E+03  0.21079797308E+03  0.00000000000E+00 0.  1.
         21   -1    0    0  502  503 -0.00000000000E+00 -0.00000000000E+00 -0.47880928095E+03  0.47880928095E+03  0.00000000000E+00 0.  1.
         25    1    1    2    0    0  0.18596804123E+02  0.28308440132E+03 -0.16241578793E+03  0.34998072456E+03  0.12500000000E+03 0.  0.
          2    1    1    2  501    0 -0.67508323186E+01 -0.29957551203E+03 -0.10934462281E+03  0.31897853797E+03  0.00000000000E+00 0.  1.
         -2    1    1    2    0  503 -0.11845971804E+02  0.16491110717E+02  0.37491028674E+01  0.20647991500E+02  0.00000000000E+00 0. -1.
<mgrwt>
<rscale>  4 0.31686037E+03</rscale>
<asrwt>0</asrwt>
<pdfrwt beam="1">  1       21 0.32430458E-01 0.31686037E+03</pdfrwt>
<pdfrwt beam="2">  1       21 0.73662966E-01 0.31686037E+03</pdfrwt>
<totfact> 0.14204275E+04</totfact>
</mgrwt>
</event>
<event>
 5    0  0.1972558E-002  0.2915733E+03  0.7546771E-02  0.1089531E+00
         21   -1    0    0  501  502  0.00000000000E+00  0.00000000000E+00  0.96769505866E+03  0.96769505866E+03  0.00000000000E+00 0.  1.
         21   -1    0    0  502  503 -0.00000000000E+00 -0.00000000000E+00 -0.32083047633E+03  0.32083047633E+03  0.00000000000E+00 0. -1.
         25    1    1    2    0    0  0.24446638560E+03  0.94389479698E+02 -0.16153600871E+03  0.33225302057E+03  0.12500000000E+03 0.  0.
          3    1    1    2  501    0 -0.26006989784E+01  0.20749479852E+02  0.63897402635E+03  0.63931612751E+03  0.00000000000E+00 0.  1.
         -3    1    1    2    0  503 -0.24186568662E+03 -0.11513895955E+03  0.16942656470E+03  0.31695638690E+03  0.00000000000E+00 0. -1.
<mgrwt>
<rscale>  4 0.29157334E+03</rscale>
<asrwt>0</asrwt>
<pdfrwt beam="1">  1       21 0.14887616E+00 0.29157334E+03</pdfrwt>
<pdfrwt beam="2">  1       21 0.49358535E-01 0.29157334E+03</pdfrwt>
<totfact> 0.10978027E+03</totfact>
</mgrwt>
</event>
<event>
 5    0  0.1972558E-002  0.1865696E+03  0.7546771E-02  0.1161592E+00
         21   -1    0    0  501  502  0.00000000000E+00  0.00000000000E+00  0.14285832873E+03  0.14285832873E+03  0.00000000000E+00 0.  1.
         21   -1    0    0  502  503 -0.00000000000E+00 -0.00000000000E+00 -0.49742700206E+03  0.49742700206E+03  0.00000000000E+00 0. -1.
         25    1    1    2    0    0 -0.21537217518E+03 -0.19232405553E+02 -0.26749824667E+03  0.36597181754E+03  0.12500000000E+03 0.  0.
          2    1    1    2  501    0  0.11866504713E+03  0.43118290837E+02  0.20270424298E+02  0.12787286857E+03  0.00000000000E+00 0.  1.
         -2    1    1    2    0  503  0.96707128044E+02 -0.23885885284E+02 -0.10734085095E+03  0.14644064468E+03  0.00000000000E+00 0. -1.
<mgrwt>
<rscale>  4 0.18656959E+03</rscale>
<asrwt>0</asrwt>
<pdfrwt beam="1">  1       21 0.21978204E-01 0.18656959E+03</pdfrwt>
<pdfrwt beam="2">  1       21 0.76527231E-01 0.18656959E+03</pdfrwt>
<totfact> 0.29490266E+04</totfact>
</mgrwt>
</event>
<event>
 5    0  0.1972558E-002  0.3238349E+03  0.7546771E-02  0.1073898E+00
         21   -1    0    0  503  502  0.00000000000E+00  0.00000000000E+00  0.10704560309E+04  0.10704560309E+04  0.00000000000E+00 0.  1.
         21   -1    0    0  501  503 -0.00000000000E+00 -0.00000000000E+00 -0.91446840318E+03  0.91446840318E+03  0.00000000000E+00 0.  1.
         25    1    1    2    0    0  0.66383462494E+02 -0.29743433550E+03 -0.84775307313E+03  0.90949668555E+03  0.12500000000E+03 0.  0.
          1    1    1    2  501    0 -0.13394345859E+03  0.18413021325E+03  0.42832869118E+03  0.48508788196E+03  0.00000000000E+00 0. -1.
         -1    1    1    2    0  502  0.67559996095E+02  0.11330412225E+03  0.57541200968E+03  0.59033986658E+03  0.00000000000E+00 0.  1.
<mgrwt>
<rscale>  4 0.32383491E+03</rscale>
<asrwt>0</asrwt>
<pdfrwt beam="1">  1       21 0.16468554E+00 0.32383491E+03</pdfrwt>
<pdfrwt beam="2">  1       21 0.14068745E+00 0.32383491E+03</pdfrwt>
<totfact> 0.71128494E+01</totfact>
</mgrwt>
</event>
<event>
 5    0  0.1972558E-002  0.2767287E+03  0.7546771E-02  0.1097489E+00
         21   -1    0    0  501  502  0.00000000000E+00  0.00000000000E+00  0.74809780130E+03  0.74809780130E+03  0.00000000000E+00 0.  1.
         21   -1    0    0  502  503 -0.00000000000E+00 -0.00000000000E+00 -0.62617300343E+03  0.62617300343E+03  0.00000000000E+00 0.  1.
         25    1    1    2    0    0 -0.63679911608E+02 -0.25306009527E+03 -0.47494765853E+03  0.55614280658E+03  0.12500000000E+03 0.  0.
          3    1    1    2  501    0  0.33455501213E+02  0.43092855156E+02  0.60343399448E+03  0.60589508202E+03  0.00000000000E+00 0.  1.
         -3    1    1    2    0  503  0.30224410395E+02  0.20996724012E+03 -0.65615380713E+01  0.21223291613E+03  0.00000000000E+00 0. -1.
<mgrwt>
<rscale>  4 0.27672873E+03</rscale>
<asrwt>0</asrwt>
<pdfrwt beam="1">  1       21 0.11509197E+00 0.27672873E+03</pdfrwt>
<pdfrwt beam="2">  1       21 0.96334308E-01 0.27672873E+03</pdfrwt>
<totfact> 0.48475931E+02</totfact>
</mgrwt>
</event>
<event>
 5    0  0.1972558E-002  0.2994602E+03  0.7546771E-02  0.1085511E+00
         21   -1    0    0  501  502  0.00000000000E+00  0.00000000000E+00  0.76106980901E+03  0.76106980901E+03  0.00000000000E+00 0. -1.
         21   -1    0    0  502  503 -0.00000000000E+00 -0.00000000000E+00 -0.21737039841E+03  0.21737039841E+03  0.00000000000E+00 0. -1.
         25    1    1    2    0    0 -0.18950616819E+03  0.20665213453E+03  0.37938280919E+02  0.30932508086E+03  0.12500000000E+03 0.  0.
          4    1    1    2  501    0  0.19704640776E+03 -0.17388554924E+03  0.13244428717E+03  0.29428720708E+03  0.00000000000E+00 0. -1.
         -4    1    1    2    0  503 -0.75402395641E+01 -0.32766585292E+02  0.37331684251E+03  0.37482791949E+03  0.00000000000E+00 0.  1.
<mgrwt>
<rscale>  4 0.29946020E+03</rscale>
<asrwt>0</asrwt>
<pdfrwt beam="1">  1       21 0.11708766E+00 0.29946020E+03</pdfrwt>
<pdfrwt beam="2">  1       21 0.33441600E-01 0.29946020E+03</pdfrwt>
<totfact> 0.45007078E+03</totfact>
</mgrwt>
</event>
<event>
 5    0  0.1972558E-002  0.3089697E+03  0.7546771E-02  0.1080841E+00
         21   -1    0    0  501  502  0.00000000000E+00  0.00000000000E+00  0.41821185223E+03  0.41821185223E+03  0.00000000000E+00 0.  1.
         21   -1    0    0  502  503 -0.00000000000E+00 -0.00000000000E+00 -0.34194422631E+03  0.34194422631E+03  0.00000000000E+00 0. -1.
         25    1    1    2    0    0  0.36724256411E+02 -0.29177644790E+03  0.39830186367E+02  0.32201492249E+03  0.12500000000E+03 0.  0.
          1    1    1    2  501    0 -0.15280119876E+02  0.27626944568E+03 -0.10373068070E+03  0.29549677290E+03  0.00000000000E+00 0. -1.
         -1    1    1    2    0  503 -0.21444136534E+02  0.15507002228E+02  0.14016812025E+03  0.14264438315E+03  0.00000000000E+00 0.  1.
<mgrwt>
<rscale>  4 0.30896970E+03</rscale>
<asrwt>0</asrwt>
<pdfrwt beam="1">  1       21 0.64340285E-01 0.30896970E+03</pdfrwt>
<pdfrwt beam="2">  1       21 0.52606804E-01 0.30896970E+03</pdfrwt>
<totfact> 0.71308707E+03</totfact>
</mgrwt>
</event>
<event>
 5    0  0.1972558E-002  0.2627234E+03  0.7546771E-02  0.1105518E+00
         21   -1    0    0  501  502  0.00000000000E+00  0.00000000000E+00  0.18665042330E+03  0.18665042330E+03  0.00000000000E+00 0.  1.
         21   -1    0    0  502  503 -0.00000000000E+00 -0.00000000000E+00 -0.93628096012E+03  0.93628096012E+03  0.00000000000E+00 0. -1.
         25    1    1    2    0    0 -0.19730980891E+03 -0.12028065924E+03 -0.82902752616E+03  0.86966098959E+03  0.12500000000E+03 0.  0.
          3    1    1    2  501    0  0.17705293730E+03  0.10146912886E+03  0.44698360741E+02  0.20890588831E+03  0.00000000000E+00 0.  1.
         -3    1    1    2    0  503  0.20256871612E+02  0.18811530383E+02  0.34698628606E+02  0.44364505520E+02  0.00000000000E+00 0. -1.
<mgrwt>
<rscale>  4 0.26272342E+03</rscale>
<asrwt>0</asrwt>
<pdfrwt beam="1">  1       21 0.28715449E-01 0.26272342E+03</pdfrwt>
<pdfrwt beam="2">  1       21 0.14404323E+00 0.26272342E+03</pdfrwt>
<totfact> 0.36555367E+03</totfact>
</mgrwt>
</event>
<event>
 5    0  0.1972558E-002  0.2428774E+03  0.7546771E-02  0.1117891E+00
         21   -1    0    0  501  502  0.00000000000E+00  0.00000000000E+00  0.72534411877E+03  0.72534411877E+03  0.00000000000E+00 0. -1.
         21   -1    0    0  502  503 -0.00000000000E+00 -0.00000000000E+00 -0.20625331308E+03  0.20625331308E+03  0.00000000000E+00 0.  1.
         25    1    1    2    0    0 -0.19295092863E+03 -0.78322076958E+02 -0.10945277959E+03  0.26640067485E+03  0.12500000000E+03 0.  0.
          1    1    1    2  501    0  0.22412735391E+02  0.10191246648E+02  0.16114420846E+03  0.16301425747E+03  0.00000000000E+00 0.  1.
         -1    1    1    2    0  503  0.17053819324E+03  0.68130830310E+02  0.46739937682E+03  0.50218249954E+03  0.00000000000E+00 0. -1.
<mgrwt>
<rscale>  4 0.24287735E+03</rscale>
<asrwt>0</asrwt>
<pdfrwt beam="1">  1       21 0.11159140E+00 0.24287735E+03</pdfrwt>
<pdfrwt beam="2">  1       21 0.31731279E-01 0.24287735E+03</pdfrwt>
<totfact> 0.58103686E+03</totfact>
</mgrwt>
</event>
<event>
 5    0  0.1972558E-002  0.3224612E+03  0.7546771E-02  0.1074522E+00
         21   -1    0    0  501  502  0.00000000000E+00  0.00000000000E+00  0.37084158953E+03  0.37084158953E+03  0.00000000000E+00 0. -1.
         21   -1    0    0  502  503 -0.00000000000E+00 -0.00000000000E+00 -0.44402090695E+03  0.44402090695E+03  0.00000000000E+00 0.  1.
         25    1    1    2    0    0  0.20572252917E+03  0.23802106478E+03 -0.24096898378E+03  0.41553199327E+03  0.12500000000E+03 0.  0.
          2    1    1    2  501    0 -0.50661078414E+02  0.11388074986E+02 -0.14200138826E+02  0.53831933465E+02  0.00000000000E+00 0.  1.
         -2    1    1    2    0  503 -0.15506145075E+03 -0.24940913976E+03  0.18198980519E+03  0.34549856975E+03  0.00000000000E+00 0. -1.
<mgrwt>
<rscale>  4 0.32246125E+03</rscale>
<asrwt>0</asrwt>
<pdfrwt beam="1">  1       21 0.57052552E-01 0.32246125E+03</pdfrwt>
<pdfrwt beam="2">  1       21 0.68310909E-01 0.32246125E+03</pdfrwt>
<totfact> 0.52179108E+03</totfact>
</mgrwt>
</event>
<event>
 5    0  0.1972558E-002  0.2451968E+03  0.7546771E-02  0.1116379E+00
         21   -1    0    0  501  502  0.00000000000E+00  0.00000000000E+00  0.15555759408E+04  0.15555759408E+04  0.00000000000E+00 0. -1.
         21   -1    0    0  502  503 -0.00000000000E+00 -0.00000000000E+00 -0.46778718965E+03  0.46778718965E+03  0.00000000000E+00 0. -1.
         25    1    1    2    0    0 -0.17388726393E+03  0.12099180682E+03 -0.42607771277E+03  0.49197867352E+03  0.12500000000E+03 0.  0.
          1    1    1    2  501    0  0.14719246000E+03 -0.10968353767E+03  0.10005142444E+04  0.10172142606E+04  0.00000000000E+00 0. -1.
         -1    1    1    2    0  503  0.26694803930E+02 -0.11308269142E+02  0.51335221946E+03  0.51417019627E+03  0.00000000000E+00 0.  1.
<mgrwt>
<rscale>  4 0.24519679E+03</rscale>
<asrwt>0</asrwt>
<pdfrwt beam="1">  1       21 0.23931937E+00 0.24519679E+03</pdfrwt>
<pdfrwt beam="2">  1       21 0.71967261E-01 0.24519679E+03</pdfrwt>
<totfact> 0.12505754E+02</totfact>
</mgrwt>
</event>
<event>
 5    0  0.1972558E-002  0.2665959E+03  0.7546771E-02  0.1103244E+00
         21   -1    0    0  501  502  0.00000000000E+00  0.00000000000E+00  0.31401662081E+03  0.31401662081E+03  0.00000000000E+00 0.  1.
         21   -1    0    0  502  503 -0.00000000000E+00 -0.00000000000E+00 -0.21449711851E+03  0.21449711851E+03  0.00000000000E+00 0.  1.
         25    1    1    2    0    0  0.18381803089E+03 -0.14717096530E+03  0.91796589306E+02  0.28195739982E+03  0.12500000000E+03 0.  0.
          1    1    1    2  501    0 -0.18263509803E+02  0.36277620645E+02  0.23058149106E+02  0.46704387269E+02  0.00000000000E+00 0. -1.
         -1    1    1    2    0  503 -0.16555452109E+03  0.11089334465E+03 -0.15335236110E+02  0.19985195222E+03  0.00000000000E+00 0.  1.
<mgrwt>
<rscale>  4 0.26659588E+03</rscale>
<asrwt>0</asrwt>
<pdfrwt beam="1">  1       21 0.48310250E-01 0.26659588E+03</pdfrwt>
<pdfrwt beam="2">  1       21 0.32999557E-01 0.26659588E+03</pdfrwt>
<totfact> 0.34955585E+04</totfact>
</mgrwt>
</event>
<event>
 5    0  0.1972558E-002  0.3043632E+03  0.7546771E-02  0.1083080E+00
         21   -1    0    0  503  502  0.00000000000E+00  0.00000000000E+00  0.50244967365E+03  0.50244967365E+03  0.00000000000E+00 0.  1.
         21   -1    0    0  501  503 -0.00000000000E+00 -0.00000000000E+00 -0.32691319284E+03  0.32691319284E+03  0.00000000000E+00 0.  1.
         25    1    1    2    0    0  0.31088181471E+02 -0.28776611851E+03 -0.16403170343E+03  0.35539726183E+03  0.12500000000E+03 0.  0.
          4    1    1    2  501    0  0.46638652515E+02  0.51353448037E+02  0.13513800900E+03  0.15190333113E+03  0.00000000000E+00 0. -1.
         -4    1    1    2    0  502 -0.77726833986E+02  0.23641267047E+03  0.20443017524E+03  0.32206227353E+03  0.00000000000E+00 0.  1.
<mgrwt>
<rscale>  4 0.30436319E+03</rscale>
<asrwt>0</asrwt>
<pdfrwt beam="1">  1       21 0.77299950E-01 0.30436319E+03</pdfrwt>
<pdfrwt beam="2">  1       21 0.50294337E-01 0.30436319E+03</pdfrwt>
<totfact> 0.52160971E+03</totfact>
</mgrwt>
</event>
<event>
 5    0  0.1972558E-002  0.3011598E+03  0.7546771E-02  0.1084662E+00
         21   -1    0    0  501  502  0.00000000000E+00  0.00000000000E+00  0.38746510864E+03  0.38746510864E+03  0.00000000000E+00 0. -1.
         21   -1    0    0  502  503 -0.00000000000E+00 -0.00000000000E+00 -0.64461246670E+03  0.64461246670E+03  0.00000000000E+00 0.  1.
         25    1    1    2    0    0 -0.28549612399E+03  0.56626802198E+02 -0.49729146006E+03  0.58960870735E+03  0.12500000000E+03 0.  0.
          4    1    1    2  501    0  0.66184761366E+02 -0.54320774256E+01  0.20380166905E+03  0.21434796572E+03  0.00000000000E+00 0. -1.
         -4    1    1    2    0  503  0.21931136262E+03 -0.51194724773E+02  0.36342432952E+02  0.22812090227E+03  0.00000000000E+00 0.  1.
<mgrwt>
<rscale>  4 0.30115985E+03</rscale>
<asrwt>0</asrwt>
<pdfrwt beam="1">  1       21 0.59610018E-01 0.30115985E+03</pdfrwt>
<pdfrwt beam="2">  1       21 0.99171147E-01 0.30115985E+03</pdfrwt>
<totfact> 0.20323795E+03</totfact>
</mgrwt>
</event>
<event>
 5    0  0.1972558E-002  0.2598636E+03  0.7546771E-02  0.1107225E+00
         21   -1    0    0  501  502  0.00000000000E+00  0.00000000000E+00  0.34025502356E+03  0.34025502356E+03  0.00000000000E+00 0.  1.
         21   -1    0    0  502  503 -0.00000000000E+00 -0.00000000000E+00 -0.41107408692E+03  0.41107408692E+03  0.00000000000E+00 0.  1.
         25    1    1    2    0    0  0.15616998774E+03  0.19922357559E+03 -0.28644912743E+03  0.40219050306E+03  0.12500000000E+03 0.  0.
          2    1    1    2  501    0 -0.13307113655E+03 -0.18072351645E+03  0.22529694085E+03  0.31800570488E+03  0.00000000000E+00 0.  1.
         -2    1    1    2    0  503 -0.23098851188E+02 -0.18500059143E+02 -0.96668767653E+01  0.31132902545E+02  0.00000000000E+00 0. -1.
<mgrwt>
<rscale>  4 0.25986357E+03</rscale>
<asrwt>0</asrwt>
<pdfrwt beam="1">  1       21 0.52346927E-01 0.25986357E+03</pdfrwt>
<pdfrwt beam="2">  1       21 0.63242167E-01 0.25986357E+03</pdfrwt>
<totfact> 0.76709186E+03</totfact>
</mgrwt>
</event>
<event>
 5    0  0.1972558E-002  0.2553223E+03  0.7546771E-02  0.1109987E+00
         21   -1    0    0  501  502  0.00000000000E+00  0.00000000000E+00  0.25466699658E+03  0.25466699658E+03  0.00000000000E+00 0.  1.
         21   -1    0    0  502  503 -0.00000000000E+00 -0.00000000000E+00 -0.11968040838E+04  0.11968040838E+04  0.00000000000E+00 0. -1.
         25    1    1    2    0    0 -0.23362678783E+03 -0.58667526110E+01 -0.10510488178E+04  0.10839485746E+04  0.12500000000E+03 0.  0.
          3    1    1    2  501    0  0.17939571788E+03 -0.21990383908E+01 -0.60597665130E+02  0.18936667178E+03  0.00000000000E+00 0. -1.
         -3    1    1    2    0  503  0.54231069947E+02  0.80657910018E+01  0.16950939579E+03  0.17815583401E+03  0.00000000000E+00 0.  1.
<mgrwt>
<rscale>  4 0.25532230E+03</rscale>
<asrwt>0</asrwt>
<pdfrwt beam="1">  1       21 0.39179538E-01 0.25532230E+03</pdfrwt>
<pdfrwt beam="2">  1       21 0.18412371E+00 0.25532230E+03</pdfrwt>
<totfact> 0.10089957E+03</totfact>
</mgrwt>
</event>
<event>
 5    0  0.1972558E-002  0.2314742E+03  0.7546771E-02  0.1125606E+00
         21   -1    0    0  501  502  0.00000000000E+00  0.00000000000E+00  0.71166561722E+03  0.71166561722E+03  0.00000000000E+00 0. -1.
         21   -1    0    0  502  503 -0.00000000000E+00 -0.00000000000E+00 -0.20075521611E+03  0.20075521611E+03  0.00000000000E+00 0. -1.
         25    1    1    2    0    0  0.16114031244E+03  0.12872523498E+03 -0.89315299773E+02  0.25717427785E+03  0.12500000000E+03 0.  0.
          2    1    1    2  501    0 -0.68038720457E+02 -0.11451301057E+03  0.50115203737E+03  0.51855169620E+03  0.00000000000E+00 0. -1.
         -2    1    1    2    0  503 -0.93101591985E+02 -0.14212224409E+02  0.99073663513E+02  0.13669485928E+03  0.00000000000E+00 0.  1.
<mgrwt>
<rscale>  4 0.23147421E+03</rscale>
<asrwt>0</asrwt>
<pdfrwt beam="1">  1       21 0.10948702E+00 0.23147421E+03</pdfrwt>
<pdfrwt beam="2">  1       21 0.30885418E-01 0.23147421E+03</pdfrwt>
<totfact> 0.64662078E+03</totfact>
</mgrwt>
</event>
<event>
 5    0  0.1972558E-002  0.4557181E+03  0.7546771E-02  0.1026030E+00
         21   -1    0    0  503  502  0.00000000000E+00  0.00000000000E+00  0.30309409067E+03  0.30309409067E+03  0.00000000000E+00 0. -1.
         21   -1    0    0  501  503 -0.00000000000E+00 -0.00000000000E+00 -0.15449227840E+04  0.15449227840E+04  0.00000000000E+00 0.  1.
         25    1    1    2    0    0 -0.17873806785E+03 -0.40013338318E+03 -0.13199004664E+04  0.13963582142E+04  0.12500000000E+03 0.  0.
          3    1    1    2  501    0  0.13594247747E+02  0.10833499660E+03  0.27315159219E+02  0.11254951347E+03  0.00000000000E+00 0.  1.
         -3    1    1    2    0  502  0.16514382011E+03  0.29179838658E+03  0.50756613828E+02  0.33910914700E+03  0.00000000000E+00 0. -1.
<mgrwt>
<rscale>  4 0.45571814E+03</rscale>
<asrwt>0</asrwt>
<pdfrwt beam="1">  1       21 0.46629860E-01 0.45571814E+03</pdfrwt>
<pdfrwt beam="2">  1       21 0.23768043E+00 0.45571814E+03</pdfrwt>
<totfact> 0.27787419E+02</totfact>
</mgrwt>
</event>
<event>
 5    0  0.1972558E-002  0.2610254E+03  0.7546771E-02  0.1106529E+00
         21   -1    0    0  501  502  0.00000000000E+00  0.00000000000E+00  0.16789492472E+04  0.16789492472E+04  0.00000000000E+00 0. -1.
         21   -1    0    0  502  503 -0.00000000000E+00 -0.00000000000E+00 -0.13535776156E+03  0.13535776156E+03  0.00000000000E+00 0.  1.
         25    1    1    2    0    0 -0.17162132378E+03 -0.11501081619E+03  0.31397744508E+03  0.39609115445E+03  0.12500000000E+03 0.  0.
          2    1    1    2  501    0 -0.24309699313E+02 -0.21478588529E+02  0.11721694213E+04  0.11726182003E+04  0.00000000000E+00 0. -1.
         -2    1    1    2    0  503  0.19593102309E+03  0.13648940472E+03  0.57444619246E+02  0.24559765408E+03  0.00000000000E+00 0.  1.
<mgrwt>
<rscale>  4 0.26102535E+03</rscale>
<asrwt>0</asrwt>
<pdfrwt beam="1">  1       21 0.25829987E+00 0.26102535E+03</pdfrwt>
<pdfrwt beam="2">  1       21 0.20824272E-01 0.26102535E+03</pdfrwt>
<totfact> 0.11832883E+03</totfact>
</mgrwt>
</event>
<event>
 5    0  0.1972558E-002  0.2665971E+03  0.7546771E-02  0.1103243E+00
         21   -1    0    0  501  502  0.00000000000E+00  0.00000000000E+00  0.61545307759E+03  0.61545307759E+03  0.00000000000E+00 0.  1.
         21   -1    0    0  502  503 -0.00000000000E+00 -0.00000000000E+00 -0.30780765491E+03  0.30780765491E+03  0.00000000000E+00 0. -1.
         25    1    1    2    0    0 -0.18407651654E+03  0.12837987663E+03 -0.16035853114E+03  0.30282901970E+03  0.12500000000E+03 0.  0.
          4    1    1    2  501    0  0.27712494582E+03 -0.10143976036E+03  0.26992622236E+03  0.39993552743E+03  0.00000000000E+00 0. -1.
         -4    1    1    2    0  503 -0.93048429288E+02 -0.26940116269E+02  0.19807773146E+03  0.22049618536E+03  0.00000000000E+00 0.  1.
<mgrwt>
<rscale>  4 0.26659712E+03</rscale>
<asrwt>0</asrwt>
<pdfrwt beam="1">  1       21 0.94685089E-01 0.26659712E+03</pdfrwt>
<pdfrwt beam="2">  1       21 0.47355024E-01 0.26659712E+03</pdfrwt>
<totfact> 0.37771696E+03</totfact>
</mgrwt>
</event>
<event>
 5    0  0.1972558E-002  0.5735698E+03  0.7546771E-02  0.9961810E-01
         21   -1    0    0  501  502  0.00000000000E+00  0.00000000000E+00  0.19382357567E+04  0.19382357567E+04  0.00000000000E+00 0.  1.
         21   -1    0    0  502  503 -0.00000000000E+00 -0.00000000000E+00 -0.22884433365E+03  0.22884433365E+03  0.00000000000E+00 0.  1.
         25    1    1    2    0    0 -0.35258731898E+02 -0.56399410894E+03  0.50462519945E+03  0.76785683888E+03  0.12500000000E+03 0.  0.
          4    1    1    2  501    0  0.17665661681E+02  0.55305802923E+03  0.69196006767E+03  0.88599886825E+03  0.00000000000E+00 0.  1.
         -4    1    1    2    0  503  0.17593070217E+02  0.10936079719E+02  0.51280615594E+03  0.51322438322E+03  0.00000000000E+00 0. -1.
<mgrwt>
<rscale>  4 0.57356982E+03</rscale>
<asrwt>0</asrwt>
<pdfrwt beam="1">  1       21 0.29819010E+00 0.57356982E+03</pdfrwt>
<pdfrwt beam="2">  1       21 0.35206822E-01 0.57356982E+03</pdfrwt>
<totfact> 0.19985654E+02</totfact>
</mgrwt>
</event>
<event>
 5    0  0.1972558E-002  0.2226588E+03  0.7546771E-02  0.1131916E+00
         21   -1    0    0  501  502  0.00000000000E+00  0.00000000000E+00  0.30786953046E+03  0.30786953046E+03  0.00000000000E+00 0.  1.
         21   -1    0    0  502  503 -0.00000000000E+00 -0.00000000000E+00 -0.64792492788E+03  0.64792492788E+03  0.00000000000E+00 0.  1.
         25    1    1    2    0    0  0.19873460352E+03 -0.32401258972E+02 -0.40135672015E+03  0.46610889396E+03  0.12500000000E+03 0.  0.
          3    1    1    2  501    0 -0.13898031720E+03  0.10948718911E+03 -0.16583379810E+03  0.24249499322E+03  0.00000000000E+00 0.  1.
         -3    1    1    2    0  503 -0.59754286320E+02 -0.77085930135E+02  0.22713512083E+03  0.24719057116E+03  0.00000000000E+00 0. -1.
<mgrwt>
<rscale>  4 0.22265884E+03</rscale>
<asrwt>0</asrwt>
<pdfrwt beam="1">  1       21 0.47364544E-01 0.22265884E+03</pdfrwt>
<pdfrwt beam="2">  1       21 0.99680757E-01 0.22265884E+03</pdfrwt>
<totfact> 0.34431347E+03</totfact>
</mgrwt>
</event>
<event>
 5    0  0.1972558E-002  0.3234688E+03  0.7546771E-02  0.1074064E+00
         21   -1    0    0  503  502  0.00000000000E+00  0.00000000000E+00  0.22047088355E+04  0.22047088355E+04  0.00000000000E+00 0. -1.
         21   -1    0    0  501  503 -0.00000000000E+00 -0.00000000000E+00 -0.13410717221E+03  0.13410717221E+03  0.00000000000E+00 0.  1.
         25    1    1    2    0    0  0.60789372496E-01  0.29834055612E+03  0.90476704389E+02  0.33588409483E+03  0.12500000000E+03 0.  0.
          3    1    1    2  501    0 -0.99836066330E+01 -0.24503336104E+02  0.13468148388E+03  0.13725592148E+03  0.00000000000E+00 0.  1.
         -3    1    1    2    0  502  0.99228172605E+01 -0.27383722002E+03  0.18454434750E+04  0.18656759914E+04  0.00000000000E+00 0. -1.
<mgrwt>
<rscale>  4 0.32346884E+03</rscale>
<asrwt>0</asrwt>
<pdfrwt beam="1">  1       21 0.33918595E+00 0.32346884E+03</pdfrwt>
<pdfrwt beam="2">  1       21 0.20631874E-01 0.32346884E+03</pdfrwt>
<totfact> 0.37835338E+02</totfact>
</mgrwt>
</event>
<event>
 5    0  0.1972558E-002  0.2897879E+03  0.7546771E-02  0.1090460E+00
         21   -1    0    0  501  502  0.00000000000E+00  0.00000000000E+00  0.17477821041E+03  0.17477821041E+03  0.00000000000E+00 0.  1.
         21   -1    0    0  502  503 -0.00000000000E+00 -0.00000000000E+00 -0.65502932067E+03  0.65502932067E+03  0.00000000000E+00 0.  1.
         25    1    1    2    0    0 -0.96569695288E+02 -0.24638266997E+03 -0.34329358025E+03  0.45111595887E+03  0.12500000000E+03 0.  0.
          1    1    1    2  501    0  0.68907920163E+02  0.24896886618E+03 -0.18873642785E+03  0.31993005014E+03  0.00000000000E+00 0.  1.
         -1    1    1    2    0  503  0.27661775125E+02 -0.25861962037E+01  0.51778897835E+02  0.58761522061E+02  0.00000000000E+00 0. -1.
<mgrwt>
<rscale>  4 0.28978785E+03</rscale>
<asrwt>0</asrwt>
<pdfrwt beam="1">  1       21 0.26888955E-01 0.28978785E+03</pdfrwt>
<pdfrwt beam="2">  1       21 0.10077374E+00 0.28978785E+03</pdfrwt>
<totfact> 0.10028948E+04</totfact>
</mgrwt>
</event>
<event>
 5    0  0.1972558E-002  0.2753387E+03  0.7546771E-02  0.1098262E+00
         21   -1    0    0  503  502  0.00000000000E+00  0.00000000000E+00  0.96238722746E+03  0.96238722746E+03  0.00000000000E+00 0. -1.
         21   -1    0    0  501  503 -0.00000000000E+00 -0.00000000000E+00 -0.98648123029E+02  0.98648123029E+02  0.00000000000E+00 0.  1.
         25    1    1    2    0    0  0.23846487130E+02 -0.26436558720E+03  0.26442341148E+03  0.39497159289E+03  0.12500000000E+03 0.  0.
          2    1    1    2  501    0 -0.44699011926E+02  0.43923312178E+02  0.19843547636E+03  0.20809588487E+03  0.00000000000E+00 0.  1.
         -2    1    1    2    0  502  0.20852524796E+02  0.22044227503E+03  0.40088021659E+03  0.45796787274E+03  0.00000000000E+00 0. -1.
<mgrwt>
<rscale>  4 0.27533865E+03</rscale>
<asrwt>0</asrwt>
<pdfrwt beam="1">  1       21 0.14805957E+00 0.27533865E+03</pdfrwt>
<pdfrwt beam="2">  1       21 0.15176635E-01 0.27533865E+03</pdfrwt>
<totfact> 0.11270350E+04</totfact>
</mgrwt>
</event>
<event>
 5    0  0.1972558E-002  0.3413578E+03  0.7546771E-02  0.1066219E+00
         21   -1    0    0  501  502  0.00000000000E+00  0.00000000000E+00  0.33071920847E+03  0.33071920847E+03  0.00000000000E+00 0. -1.
         21   -1    0    0  502  503 -0.00000000000E+00 -0.00000000000E+00 -0.59022716624E+03  0.59022716624E+03  0.00000000000E+00 0. -1.
         25    1    1    2    0    0 -0.22249327510E+03  0.22080457094E+03 -0.34256645997E+03  0.48086868842E+03  0.12500000000E+03 0.  0.
          4    1    1    2  501    0 -0.74083208322E+02 -0.55918659303E+02  0.19587659761E+02  0.94862503807E+02  0.00000000000E+00 0.  1.
         -4    1    1    2    0  503  0.29657648342E+03 -0.16488591163E+03  0.63470842435E+02  0.34521518248E+03  0.00000000000E+00 0. -1.
<mgrwt>
<rscale>  4 0.34135782E+03</rscale>
<asrwt>0</asrwt>
<pdfrwt beam="1">  1       21 0.50879879E-01 0.34135782E+03</pdfrwt>
<pdfrwt beam="2">  1       21 0.90804178E-01 0.34135782E+03</pdfrwt>
<totfact> 0.34446317E+03</totfact>
</mgrwt>
</event>
<event>
 5    0  0.1972558E-002  0.2090395E+03  0.7546771E-02  0.1142329E+00
         21   -1    0    0  503  502  0.00000000000E+00  0.00000000000E+00  0.93650171187E+02  0.93650171187E+02  0.00000000000E+00 0. -1.
         21   -1    0    0  501  503 -0.00000000000E+00 -0.00000000000E+00 -0.78084376848E+03  0.78084376848E+03  0.00000000000E+00 0. -1.
         25    1    1    2    0    0  0.17222457760E+03  0.10498732162E+03 -0.20989833018E+03  0.31680585828E+03  0.12500000000E+03 0.  0.
          4    1    1    2  501    0 -0.20333889204E+02 -0.54392048542E+02 -0.41790908046E+01  0.58218783865E+02  0.00000000000E+00 0.  1.
         -4    1    1    2    0  502 -0.15189068840E+03 -0.50595273076E+02 -0.47311617631E+03  0.49946929752E+03  0.00000000000E+00 0. -1.
<mgrwt>
<rscale>  4 0.20903953E+03</rscale>
<asrwt>0</asrwt>
<pdfrwt beam="1">  1       21 0.14407719E-01 0.20903953E+03</pdfrwt>
<pdfrwt beam="2">  1       21 0.12012981E+00 0.20903953E+03</pdfrwt>
<totfact> 0.22005800E+04</totfact>
</mgrwt>
</event>
<event>
 5    0  0.1972558E-002  0.2275429E+03  0.7546771E-02  0.1128381E+00
         21   -1    0    0  501  502  0.00000000000E+00  0.00000000000E+00  0.38978330424E+03  0.38978330424E+03  0.00000000000E+00 0. -1.
         21   -1    0    0  502  503 -0.00000000000E+00 -0.00000000000E+00 -0.15863201895E+03  0.15863201895E+03  0.00000000000E+00 0. -1.
         25    1    1    2    0    0 -0.11440508407E+03 -0.16760379126E+03  0.18115666512E+02  0.23902454158E+03  0.12500000000E+03 0.  0.
          2    1    1    2  501    0  0.13925078594E+02  0.25793783374E+02  0.94692605592E+02  0.99125761679E+02  0.00000000000E+00 0.  1.
         -2    1    1    2    0  503  0.10048000547E+03  0.14181000789E+03  0.11834301318E+03  0.21026501993E+03  0.00000000000E+00 0. -1.
<mgrwt>
<rscale>  4 0.22754286E+03</rscale>
<asrwt>0</asrwt>
<pdfrwt beam="1">  1       21 0.59966662E-01 0.22754286E+03</pdfrwt>
<pdfrwt beam="2">  1       21 0.24404926E-01 0.22754286E+03</pdfrwt>
<totfact> 0.40439737E+04</totfact>
</mgrwt>
</event>
<event>
 5    0  0.1972558E-002  0.3198301E+03  0.7546771E-02  0.1075728E+00
         21   -1    0    0  501  502  0.00000000000E+00  0.00000000000E+00  0.75481496902E+03  0.75481496902E+03  0.00000000000E+00 0. -1.
         21   -1    0    0  502  503 -0.00000000000E+00 -0.00000000000E+00 -0.14295006104E+04  0.14295006104E+04  0.00000000000E+00 0.  1.
         25    1    1    2    0    0  0.29166373559E+03 -0.57936442187E+02 -0.13502115111E+04  0.13882076540E+04  0.12500000000E+03 0.  0.
          2    1    1    2  501    0 -0.25686546585E+03 -0.53551369230E+02  0.28012920113E+03  0.38382285760E+03  0.00000000000E+00 0.  1.
         -2    1    1    2    0  503 -0.34798269743E+02  0.11148781142E+03  0.39539666854E+03  0.41228506784E+03  0.00000000000E+00 0. -1.
<mgrwt>
<rscale>  4 0.31983011E+03</rscale>
<asrwt>0</asrwt>
<pdfrwt beam="1">  1       21 0.11612538E+00 0.31983011E+03</pdfrwt>
<pdfrwt beam="2">  1       21 0.21992317E+00 0.31983011E+03</pdfrwt>
<totfact> 0.49479085E+01</totfact>
</mgrwt>
</event>
<event>
 5    0  0.1972558E-002  0.2971184E+03  0.7546771E-02  0.1086690E+00
         21   -1    0    0  503  502  0.00000000000E+00  0.00000000000E+00  0.28346987575E+03  0.28346987575E+03  0.00000000000E+00 0. -1.
         21   -1    0    0  501  503 -0.00000000000E+00 -0.00000000000E+00 -0.19340880223E+04  0.19340880223E+04  0.00000000000E+00 0.  1.
         25    1    1    2    0    0 -0.78068839369E+02 -0.25515258663E+03 -0.17849001486E+04  0.18090580772E+04  0.12500000000E+03 0.  0.
          1    1    1    2  501    0  0.19534694185E+02 -0.55945099194E+02  0.57921748450E+02  0.82863667214E+02  0.00000000000E+00 0.  1.
         -1    1    1    2    0  502  0.58534145184E+02  0.31109768582E+03  0.76360253553E+02  0.32563615370E+03  0.00000000000E+00 0. -1.
<mgrwt>
<rscale>  4 0.29711843E+03</rscale>
<asrwt>0</asrwt>
<pdfrwt beam="1">  1       21 0.43610751E-01 0.29711843E+03</pdfrwt>
<pdfrwt beam="2">  1       21 0.29755200E+00 0.29711843E+03</pdfrwt>
<totfact> 0.15637697E+02</totfact>
</mgrwt>
</event>
<event>
 5    0  0.1972558E-002  0.3450712E+03  0.7546771E-02  0.1064656E+00
         21   -1    0    0  503  502  0.00000000000E+00  0.00000000000E+00  0.39824131731E+03  0.39824131731E+03  0.00000000000E+00 0. -1.
         21   -1    0    0  501  503 -0.00000000000E+00 -0.00000000000E+00 -0.84689075379E+03  0.84689075379E+03  0.00000000000E+00 0.  1.
         25    1    1    2    0    0 -0.20083676453E+03 -0.24535460446E+03 -0.69515093455E+03  0.77420546996E+03  0.12500000000E+03 0.  0.
          1    1    1    2  501    0 -0.33880728601E+02 -0.23995385937E+02  0.42965266479E+02  0.59746936662E+02  0.00000000000E+00 0.  1.
         -1    1    1    2    0  502  0.23471749313E+03  0.26934999040E+03  0.20353623159E+03  0.41117966448E+03  0.00000000000E+00 0. -1.
<mgrwt>
<rscale>  4 0.34507119E+03</rscale>
<asrwt>0</asrwt>
<pdfrwt beam="1">  1       21 0.61267895E-01 0.34507119E+03</pdfrwt>
<pdfrwt beam="2">  1       21 0.13029089E+00 0.34507119E+03</pdfrwt>
<totfact> 0.94794427E+02</totfact>
</mgrwt>
</event>
<event>
 5    0  0.1972558E-002  0.2403371E+03  0.7546771E-02  0.1119568E+00
         21   -1    0    0  501  502  0.00000000000E+00  0.00000000000E+00  0.36490208170E+03  0.36490208170E+03  0.00000000000E+00 0.  1.
         21   -1    0    0  502  503 -0.00000000000E+00 -0.00000000000E+00 -0.25763946640E+03  0.25763946640E+03  0.00000000000E+00 0.  1.
         25    1    1    2    0    0  0.11863768934E+03  0.18251529911E+03 -0.12127204098E+03  0.27878063718E+03  0.12500000000E+03 0.  0.
          2    1    1    2  501    0 -0.11691780063E+03 -0.13957920264E+03  0.98928819294E+02  0.20721736704E+03  0.00000000000E+00 0.  1.
         -2    1    1    2    0  503 -0.17198887102E+01 -0.42936096472E+02  0.12960583698E+03  0.13654354388E+03  0.00000000000E+00 0. -1.
<mgrwt>
<rscale>  4 0.24033707E+03</rscale>
<asrwt>0</asrwt>
<pdfrwt beam="1">  1       21 0.56138782E-01 0.24033707E+03</pdfrwt>
<pdfrwt beam="2">  1       21 0.39636841E-01 0.24033707E+03</pdfrwt>
<totfact> 0.17832799E+04</totfact>
</mgrwt>
</event>
<event>
 5    0  0.1972558E-002  0.2452791E+03  0.7546771E-02  0.1116325E+00
         21   -1    0    0  501  502  0.00000000000E+00  0.00000000000E+00  0.16530832502E+04  0.16530832502E+04  0.00000000000E+00 0. -1.
         21   -1    0    0  502  503 -0.00000000000E+00 -0.00000000000E+00 -0.10862550032E+03  0.10862550032E+03  0.00000000000E+00 0.  1.
         25    1    1    2    0    0 -0.11856895918E+03 -0.16569684815E+03  0.97317668107E+02  0.25808869037E+03  0.12500000000E+03 0.  0.
          1    1    1    2  501    0  0.14965543235E+03  0.17621364331E+03  0.44975404960E+03  0.50569427686E+03  0.00000000000E+00 0.  1.
         -1    1    1    2    0  503 -0.31086473166E+02 -0.10516795156E+02  0.99738603217E+03  0.99792578330E+03  0.00000000000E+00 0. -1.
<mgrwt>
<rscale>  4 0.24527906E+03</rscale>
<asrwt>0</asrwt>
<pdfrwt beam="1">  1       21 0.25432048E+00 0.24527906E+03</pdfrwt>
<pdfrwt beam="2">  1       21 0.16711617E-01 0.24527906E+03</pdfrwt>
<totfact> 0.19115183E+03</totfact>
</mgrwt>
</event>
<event>
 5    0  0.1972558E-002  0.3425220E+03  0.7546771E-02  0.1065727E+00
         21   -1    0    0  501  502  0.00000000000E+00  0.00000000000E+00  0.17346358082E+04  0.17346358082E+04  0.00000000000E+00 0. -1.
         21   -1    0    0  502  503 -0.00000000000E+00 -0.00000000000E+00 -0.13079352452E+03  0.13079352452E+03  0.00000000000E+00 0. -1.
         25    1    1    2    0    0 -0.37582672695E+03 -0.13105042467E+03  0.68526533515E+03  0.80226773714E+03  0.12500000000E+03 0.  0.
          1    1    1    2  501    0  0.18677210095E+03 -0.96638812738E+02  0.21928202798E+03  0.30382146997E+03  0.00000000000E+00 0.  1.
         -1    1    1    2    0  503  0.18905462600E+03  0.22768923741E+03  0.69929492057E+03  0.75934012562E+03  0.00000000000E+00 0. -1.
<mgrwt>
<rscale>  4 0.34252201E+03</rscale>
<asrwt>0</asrwt>
<pdfrwt beam="1">  1       21 0.26686703E+00 0.34252201E+03</pdfrwt>
<pdfrwt beam="2">  1       21 0.20122082E-01 0.34252201E+03</pdfrwt>
<totfact> 0.10524454E+03</totfact>
</mgrwt>
</event>
<event>
 5    0  0.1972558E-002  0.2739492E+03  0.7546771E-02  0.1099040E+00
         21   -1    0    0  501  502  0.00000000000E+00  0.00000000000E+00  0.46382771062E+03  0.46382771062E+03  0.00000000000E+00 0.  1.
         21   -1    0    0  502  503 -0.00000000000E+00 -0.00000000000E+00 -0.63914656667E+03  0.63914656667E+03  0.00000000000E+00 0. -1.
         25    1    1    2    0    0 -0.16664862486E+03  0.17863323947E+03 -0.54392081557E+03  0.60922610911E+03  0.12500000000E+03 0.  0.
          2    1    1    2  501    0 -0.21733434069E+02 -0.26712419198E+02  0.18968262007E+03  0.19278327690E+03  0.00000000000E+00 0. -1.
         -2    1    1    2    0  503  0.18838205893E+03 -0.15192082027E+03  0.17891933944E+03  0.30096489128E+03  0.00000000000E+00 0.  1.
<mgrwt>
<rscale>  4 0.27394915E+03</rscale>
<asrwt>0</asrwt>
<pdfrwt beam="1">  1       21 0.71358109E-01 0.27394915E+03</pdfrwt>
<pdfrwt beam="2">  1       21 0.98330241E-01 0.27394915E+03</pdfrwt>
<totfact> 0.14201915E+03</totfact>
</mgrwt>
</event>
<event>
 5    0  0.1972558E-002  0.2330026E+03  0.7546771E-02  0.1124544E+00
         21   -1    0    0  503  502  0.00000000000E+00  0.00000000000E+00  0.14040745979E+04  0.14040745979E+04  0.00000000000E+00 0. -1.
         21   -1    0    0  501  503 -0.00000000000E+00 -0.00000000000E+00 -0.46973899664E+02  0.46973899664E+02  0.00000000000E+00 0. -1.
         25    1    1    2    0    0 -0.11262469772E+03 -0.17969215211E+03  0.60455098289E+03  0.65274840711E+03  0.12500000000E+03 0.  0.
          1    1    1    2  501    0 -0.29105146840E+02  0.54504123294E+02  0.32465540808E+03  0.33048289369E+03  0.00000000000E+00 0.  1.
         -1    1    1    2    0  502  0.14172984456E+03  0.12518802882E+03  0.42789430729E+03  0.46781719679E+03  0.00000000000E+00 0. -1.
<mgrwt>
<rscale>  4 0.23300262E+03</rscale>
<asrwt>0</asrwt>
<pdfrwt beam="1">  1       21 0.21601144E+00 0.23300262E+03</pdfrwt>
<pdfrwt beam="2">  1       21 0.72267549E-02 0.23300262E+03</pdfrwt>
<totfact> 0.14768551E+04</totfact>
</mgrwt>
</event>
<event>
 5    0  0.1972558E-002  0.3027543E+03  0.7546771E-02  0.1083872E+00
         21   -1    0    0  501  502  0.00000000000E+00  0.00000000000E+00  0.68791535838E+03  0.68791535838E+03  0.00000000000E+00 0.  1.
         21   -1    0    0  502  503 -0.00000000000E+00 -0.00000000000E+00 -0.31340507796E+03  0.31340507796E+03  0.00000000000E+00 0.  1.
         25    1    1    2    0    0  0.10040870779E+03  0.23596488362E+03 -0.79650141576E+02  0.29619331518E+03  0.12500000000E+03 0.  0.
          3    1    1    2  501    0  0.12006363323E+03  0.83723015248E+01  0.33358313876E+03  0.35463090943E+03  0.00000000000E+00 0. -1.
         -3    1    1    2    0  503 -0.22047234102E+03 -0.24433718515E+03  0.12057728325E+03  0.35049621173E+03  0.00000000000E+00 0.  1.
<mgrwt>
<rscale>  4 0.30275427E+03</rscale>
<asrwt>0</asrwt>
<pdfrwt beam="1">  1       21 0.10583313E+00 0.30275427E+03</pdfrwt>
<pdfrwt beam="2">  1       21 0.48216166E-01 0.30275427E+03</pdfrwt>
<totfact> 0.27266273E+03</totfact>
</mgrwt>
</event>
<event>
 5    0  0.1972558E-002  0.3109325E+03  0.7546771E-02  0.1079900E+00
         21   -1    0    0  503  502  0.00000000000E+00  0.00000000000E+00  0.11900359923E+04  0.11900359923E+04  0.00000000000E+00 0.  1.
         21   -1    0    0  501  503 -0.00000000000E+00 -0.00000000000E+00 -0.20701942138E+03  0.20701942138E+03  0.00000000000E+00 0.  1.
         25    1    1    2    0    0  0.28265872272E+03 -0.34030344587E+02 -0.56762547188E+02  0.31607120186E+03  0.12500000000E+03 0.  0.
          1    1    1    2  501    0 -0.17301088410E+02  0.24577813708E+02  0.11040223067E+03  0.11442049259E+03  0.00000000000E+00 0. -1.
         -1    1    1    2    0  502 -0.26535763431E+03  0.94525308788E+01  0.92937688748E+03  0.96656371927E+03  0.00000000000E+00 0.  1.
<mgrwt>
<rscale>  4 0.31093250E+03</rscale>
<asrwt>0</asrwt>
<pdfrwt beam="1">  1       21 0.18308246E+00 0.31093250E+03</pdfrwt>
<pdfrwt beam="2">  1       21 0.31849143E-01 0.31093250E+03</pdfrwt>
<totfact> 0.14919405E+03</totfact>
</mgrwt>
</event>
<event>
 5    0  0.1972558E-002  0.2379290E+03  0.7546771E-02  0.1121180E+00
         21   -1    0    0  501  502  0.00000000000E+00  0.00000000000E+00  0.65225876730E+03  0.65225876730E+03  0.00000000000E+00 0. -1.
         21   -1    0    0  502  503 -0.00000000000E+00 -0.00000000000E+00 -0.51459166827E+03  0.51459166827E+03  0.00000000000E+00 0.  1.
         25    1    1    2    0    0 -0.78939610056E+02 -0.19112994227E+03 -0.35896047558E+03  0.43271207506E+03  0.12500000000E+03 0.  0.
          2    1    1    2  501    0  0.37375281859E+02  0.19201105332E+03 -0.36839732273E+02  0.19905356607E+03  0.00000000000E+00 0.  1.
         -2    1    1    2    0  503  0.41564328197E+02 -0.88111104698E+00  0.53346730688E+03  0.53508479444E+03  0.00000000000E+00 0. -1.
<mgrwt>
<rscale>  4 0.23792902E+03</rscale>
<asrwt>0</asrwt>
<pdfrwt beam="1">  1       21 0.10034750E+00 0.23792902E+03</pdfrwt>
<pdfrwt beam="2">  1       21 0.79167949E-01 0.23792902E+03</pdfrwt>
<totfact> 0.11001465E+03</totfact>
</mgrwt>
</event>
<event>
 5    0  0.1972558E-002  0.2558706E+03  0.7546771E-02  0.1109650E+00
         21   -1    0    0  501  502  0.00000000000E+00  0.00000000000E+00  0.50556057169E+03  0.50556057169E+03  0.00000000000E+00 0. -1.
         21   -1    0    0  502  503 -0.00000000000E+00 -0.00000000000E+00 -0.16144725686E+04  0.16144725686E+04  0.00000000000E+00 0.  1.
         25    1    1    2    0    0 -0.11421289522E+03 -0.17425347887E+03 -0.12221523577E+04  0.12460699201E+04  0.12500000000E+03 0.  0.
          1    1    1    2  501    0  0.42836168998E+02 -0.16113689866E+03  0.39590060290E+03  0.42957807772E+03  0.00000000000E+00 0. -1.
         -1    1    1    2    0  503  0.71376726220E+02  0.33539037753E+03 -0.28266024216E+03  0.44438514251E+03  0.00000000000E+00 0.  1.
<mgrwt>
<rscale>  4 0.25587064E+03</rscale>
<asrwt>0</asrwt>
<pdfrwt beam="1">  1       21 0.77778551E-01 0.25587064E+03</pdfrwt>
<pdfrwt beam="2">  1       21 0.24838039E+00 0.25587064E+03</pdfrwt>
<totfact> 0.91536236E+01</totfact>
</mgrwt>
</event>
<event>
 5    0  0.1972558E-002  0.3025658E+03  0.7546771E-02  0.1083965E+00
         21   -1    0    0  501  502  0.00000000000E+00  0.00000000000E+00  0.14136581453E+04  0.14136581453E+04  0.00000000000E+00 0.  1.
         21   -1    0    0  502  503 -0.00000000000E+00 -0.00000000000E+00 -0.10374230499E+03  0.10374230499E+03  0.00000000000E+00 0. -1.
         25    1    1    2    0    0 -0.24270870296E+03  0.11357112357E+03  0.20432895490E+03  0.35941791332E+03  0.12500000000E+03 0.  0.
          4    1    1    2  501    0  0.26763444451E+03 -0.13489044233E+03  0.87117037630E+03  0.92128250383E+03  0.00000000000E+00 0.  1.
         -4    1    1    2    0  503 -0.24925741546E+02  0.21319318758E+02  0.23441650912E+03  0.23670003315E+03  0.00000000000E+00 0. -1.
<mgrwt>
<rscale>  4 0.30256576E+03</rscale>
<asrwt>0</asrwt>
<pdfrwt beam="1">  1       21 0.21748585E+00 0.30256576E+03</pdfrwt>
<pdfrwt beam="2">  1       21 0.15960356E-01 0.30256576E+03</pdfrwt>
<totfact> 0.33411679E+03</totfact>
</mgrwt>
</event>
<event>
 5    0  0.1972558E-002  0.3109279E+03  0.7546771E-02  0.1079902E+00
         21   -1    0    0  501  502  0.00000000000E+00  0.00000000000E+00  0.19179787529E+03  0.19179787529E+03  0.00000000000E+00 0.  1.
         21   -1    0    0  502  503 -0.00000000000E+00 -0.00000000000E+00 -0.75661963806E+03  0.75661963806E+03  0.00000000000E+00 0. -1.
         25    1    1    2    0    0 -0.17209231626E+03 -0.24619506473E+03 -0.48359534391E+03  0.58285266738E+03  0.12500000000E+03 0.  0.
          3    1    1    2  501    0  0.52691869170E+02  0.14333132503E+02  0.49618626423E+02  0.73782652785E+02  0.00000000000E+00 0. -1.
         -3    1    1    2    0  503  0.11940044709E+03  0.23186193223E+03 -0.13084504528E+03  0.29178219318E+03  0.00000000000E+00 0.  1.
<mgrwt>
<rscale>  4 0.31092789E+03</rscale>
<asrwt>0</asrwt>
<pdfrwt beam="1">  1       21 0.29507365E-01 0.31092789E+03</pdfrwt>
<pdfrwt beam="2">  1       21 0.11640302E+00 0.31092789E+03</pdfrwt>
<totfact> 0.58172775E+03</totfact>
</mgrwt>
</event>
<event>
 5    0  0.1972558E-002  0.4173810E+03  0.7546771E-02  0.1037922E+00
         21   -1    0    0  503  502  0.00000000000E+00  0.00000000000E+00  0.49492477377E+03  0.49492477377E+03  0.00000000000E+00 0. -1.
         21   -1    0    0  501  503 -0.00000000000E+00 -0.00000000000E+00 -0.45957763363E+03  0.45957763363E+03  0.00000000000E+00 0. -1.
         25    1    1    2    0    0 -0.24556733528E+03 -0.31229371812E+03 -0.16800789267E+03  0.44909056384E+03  0.12500000000E+03 0.  0.
          3    1    1    2  501    0  0.33831513136E+02 -0.29129529267E+02  0.68249194803E+02  0.81553990385E+02  0.00000000000E+00 0.  1.
         -3    1    1    2    0  502  0.21173582214E+03  0.34142324738E+03  0.13510583800E+03  0.42385785317E+03  0.00000000000E+00 0. -1.
<mgrwt>
<rscale>  4 0.41738097E+03</rscale>
<asrwt>0</asrwt>
<pdfrwt beam="1">  1       21 0.76142273E-01 0.41738097E+03</pdfrwt>
<pdfrwt beam="2">  1       21 0.70704251E-01 0.41738097E+03</pdfrwt>
<totfact> 0.24450922E+03</totfact>
</mgrwt>
</event>
<event>
 5    0  0.1972558E-002  0.2952550E+03  0.7546771E-02  0.1087637E+00
         21   -1    0    0  501  502  0.00000000000E+00  0.00000000000E+00  0.54207984263E+03  0.54207984263E+03  0.00000000000E+00 0. -1.
         21   -1    0    0  502  503 -0.00000000000E+00 -0.00000000000E+00 -0.33023496367E+03  0.33023496367E+03  0.00000000000E+00 0. -1.
         25    1    1    2    0    0 -0.22353434568E+03 -0.16105527943E+03 -0.19196546918E+03  0.35830454656E+03  0.12500000000E+03 0.  0.
          3    1    1    2  501    0  0.65034984054E+02 -0.22669454411E+02  0.13718110548E+03  0.15349954076E+03  0.00000000000E+00 0.  1.
         -3    1    1    2    0  503  0.15849936163E+03  0.18372473384E+03  0.26662924265E+03  0.36051071898E+03  0.00000000000E+00 0. -1.
<mgrwt>
<rscale>  4 0.29525501E+03</rscale>
<asrwt>0</asrwt>
<pdfrwt beam="1">  1       21 0.83396899E-01 0.29525501E+03</pdfrwt>
<pdfrwt beam="2">  1       21 0.50805379E-01 0.29525501E+03</pdfrwt>
<totfact> 0.43116035E+03</totfact>
</mgrwt>
</event>
<event>
 5    0  0.1972558E-002  0.1670051E+03  0.7546771E-02  0.1181008E+00
         21   -1    0    0  501  502  0.00000000000E+00  0.00000000000E+00  0.12780008844E+04  0.12780008844E+04  0.00000000000E+00 0.  1.
         21   -1    0    0  502  503 -0.00000000000E+00 -0.00000000000E+00 -0.16555752940E+03  0.16555752940E+03  0.00000000000E+00 0. -1.
         25    1    1    2    0    0 -0.13890313924E+03  0.15297256849E+03  0.64020021551E+02  0.24983645042E+03  0.12500000000E+03 0.  0.
          4    1    1    2  501    0  0.84313872116E+02 -0.59680640220E+02 -0.31816792938E+02  0.10808753934E+03  0.00000000000E+00 0. -1.
         -4    1    1    2    0  503  0.54589267126E+02 -0.93291928268E+02  0.10802401263E+04  0.10856344240E+04  0.00000000000E+00 0.  1.
<mgrwt>
<rscale>  4 0.16700509E+03</rscale>
<asrwt>0</asrwt>
<pdfrwt beam="1">  1       21 0.19661551E+00 0.16700509E+03</pdfrwt>
<pdfrwt beam="2">  1       21 0.25470390E-01 0.16700509E+03</pdfrwt>
<totfact> 0.21222413E+03</totfact>
</mgrwt>
</event>
<event>
 5    0  0.1972558E-002  0.2598912E+03  0.7546771E-02  0.1107209E+00
         21   -1    0    0  501  502  0.00000000000E+00  0.00000000000E+00  0.13050254377E+03  0.13050254377E+03  0.00000000000E+00 0. -1.
         21   -1    0    0  502  503 -0.00000000000E+00 -0.00000000000E+00 -0.56712677607E+03  0.56712677607E+03  0.00000000000E+00 0.  1.
         25    1    1    2    0    0 -0.22475352960E+03  0.37473658392E+02 -0.33329080279E+03  0.42264190915E+03  0.12500000000E+03 0.  0.
          1    1    1    2  501    0  0.10208513299E+03 -0.71272476917E+02 -0.29770903151E+02  0.12801346421E+03  0.00000000000E+00 0.  1.
         -1    1    1    2    0  503  0.12266839661E+03  0.33798818525E+02 -0.73562526352E+02  0.14697394648E+03  0.00000000000E+00 0. -1.
<mgrwt>
<rscale>  4 0.25989118E+03</rscale>
<asrwt>0</asrwt>
<pdfrwt beam="1">  1       21 0.20077314E-01 0.25989118E+03</pdfrwt>
<pdfrwt beam="2">  1       21 0.87250274E-01 0.25989118E+03</pdfrwt>
<totfact> 0.24972264E+04</totfact>
</mgrwt>
</event>
<event>
 5    0  0.1972558E-002  0.3270002E+03  0.7546771E-02  0.1072472E+00
         21   -1    0    0  501  502  0.00000000000E+00  0.00000000000E+00  0.96294096322E+03  0.96294096322E+03  0.00000000000E+00 0.  1.
         21   -1    0    0  502  503 -0.00000000000E+00 -0.00000000000E+00 -0.29550422657E+03  0.29550422657E+03  0.00000000000E+00 0. -1.
         25    1    1    2    0    0 -0.23249554126E+03 -0.22455680093E+03  0.29442765977E+03  0.45474452211E+03  0.12500000000E+03 0.  0.
          4    1    1    2  501    0  0.43360417933E+02 -0.41933325880E+01  0.48463591808E+03  0.48658985087E+03  0.00000000000E+00 0.  1.
         -4    1    1    2    0  503  0.18913512332E+03  0.22875013352E+03 -0.11162684120E+03  0.31711081681E+03  0.00000000000E+00 0. -1.
<mgrwt>
<rscale>  4 0.32700019E+03</rscale>
<asrwt>0</asrwt>
<pdfrwt beam="1">  1       21 0.14814476E+00 0.32700019E+03</pdfrwt>
<pdfrwt beam="2">  1       21 0.45462189E-01 0.32700019E+03</pdfrwt>
<totfact> 0.12918532E+03</totfact>
</mgrwt>
</event>
<event>
 5    0  0.1972558E-002  0.2783533E+03  0.7546771E-02  0.1096592E+00
         21   -1    0    0  501  502  0.00000000000E+00  0.00000000000E+00  0.14612109499E+03  0.14612109499E+03  0.00000000000E+00 0. -1.
         21   -1    0    0  502  503 -0.00000000000E+00 -0.00000000000E+00 -0.67514423566E+03  0.67514423566E+03  0.00000000000E+00 0. -1.
         25    1    1    2    0    0 -0.23428280164E+03  0.91616495656E+02 -0.46210768308E+03  0.54078694898E+03  0.12500000000E+03 0.  0.
          1    1    1    2  501    0  0.85738342274E-01 -0.28320764118E+02 -0.16225522086E+02  0.32639555730E+02  0.00000000000E+00 0.  1.
         -1    1    1    2    0  503  0.23419706329E+03 -0.63295731538E+02 -0.50689935501E+02  0.24783882595E+03  0.00000000000E+00 0. -1.
<mgrwt>
<rscale>  4 0.27835334E+03</rscale>
<asrwt>0</asrwt>
<pdfrwt beam="1">  1       21 0.22480169E-01 0.27835334E+03</pdfrwt>
<pdfrwt beam="2">  1       21 0.10386834E+00 0.27835334E+03</pdfrwt>
<totfact> 0.13227286E+04</totfact>
</mgrwt>
</event>
<event>
 5    0  0.1972558E-002  0.2911304E+03  0.7546771E-02  0.1089760E+00
         21   -1    0    0  501  502  0.00000000000E+00  0.00000000000E+00  0.20731086323E+04  0.20731086323E+04  0.00000000000E+00 0.  1.
         21   -1    0    0  502  503 -0.00000000000E+00 -0.00000000000E+00 -0.79277094109E+02  0.79277094109E+02  0.00000000000E+00 0.  1.
         25    1    1    2    0    0 -0.22375269994E+03 -0.14807967921E+03  0.27047175867E+03  0.40096487922E+03  0.12500000000E+03 0.  0.
          1    1    1    2  501    0  0.18578293586E+02  0.13346012282E+02  0.64797451311E+03  0.64837816024E+03  0.00000000000E+00 0. -1.
         -1    1    1    2    0  503  0.20517440636E+03  0.13473366693E+03  0.10753852665E+04  0.11030426870E+04  0.00000000000E+00 0.  1.
<mgrwt>
<rscale>  4 0.29113038E+03</rscale>
<asrwt>0</asrwt>
<pdfrwt beam="1">  1       21 0.31893975E+00 0.29113038E+03</pdfrwt>
<pdfrwt beam="2">  1       21 0.12196478E-01 0.29113038E+03</pdfrwt>
<totfact> 0.13588722E+03</totfact>
</mgrwt>
</event>
<event>
 5    0  0.1972558E-002  0.3822053E+03  0.7546771E-02  0.1050122E+00
         21   -1    0    0  501  502  0.00000000000E+00  0.00000000000E+00  0.19326806577E+03  0.19326806577E+03  0.00000000000E+00 0. -1.
         21   -1    0    0  502  503 -0.00000000000E+00 -0.00000000000E+00 -0.12910329913E+04  0.12910329913E+04  0.00000000000E+00 0. -1.
         25    1    1    2    0    0  0.28116509812E+03 -0.22844031922E+03 -0.86724219159E+03  0.94814176721E+03  0.12500000000E+03 0.  0.
          2    1    1    2  501    0 -0.33641085781E+02 -0.34397920699E+02  0.57018062736E+02  0.74605623642E+02  0.00000000000E+00 0.  1.
         -2    1    1    2    0  503 -0.24752401234E+03  0.26283823991E+03 -0.28754079664E+03  0.46155366620E+03  0.00000000000E+00 0. -1.
<mgrwt>
<rscale>  4 0.38220527E+03</rscale>
<asrwt>0</asrwt>
<pdfrwt beam="1">  1       21 0.29733549E-01 0.38220527E+03</pdfrwt>
<pdfrwt beam="2">  1       21 0.19862046E+00 0.38220527E+03</pdfrwt>
<totfact> 0.12876850E+03</totfact>
</mgrwt>
</event>
<event>
 5    0  0.1972558E-002  0.2810804E+03  0.7546771E-02  0.1095100E+00
         21   -1    0    0  501  502  0.00000000000E+00  0.00000000000E+00  0.10759082208E+03  0.10759082208E+03  0.00000000000E+00 0. -1.
         21   -1    0    0  502  503 -0.00000000000E+00 -0.00000000000E+00 -0.87249700767E+03  0.87249700767E+03  0.00000000000E+00 0. -1.
         25    1    1    2    0    0  0.18296235082E+03 -0.15770961256E+03 -0.51696518538E+03  0.58414514173E+03  0.12500000000E+03 0.  0.
          3    1    1    2  501    0 -0.21177064185E+03  0.16749576945E+03 -0.24631203420E+03  0.36547401511E+03  0.00000000000E+00 0. -1.
         -3    1    1    2    0  503  0.28808291023E+02 -0.97861568899E+01 -0.16289660206E+01  0.30468672906E+02  0.00000000000E+00 0.  1.
<mgrwt>
<rscale>  4 0.28108036E+03</rscale>
<asrwt>0</asrwt>
<pdfrwt beam="1">  1       21 0.16552434E-01 0.28108036E+03</pdfrwt>
<pdfrwt beam="2">  1       21 0.13423031E+00 0.28108036E+03</pdfrwt>
<totfact> 0.12380654E+04</totfact>
</mgrwt>
</event>
<event>
 5    0  0.1972558E-002  0.2549275E+03  0.7546771E-02  0.1110230E+00
         21   -1    0    0  501  502  0.00000000000E+00  0.00000000000E+00  0.10132695893E+04  0.10132695893E+04  0.00000000000E+00 0. -1.
         21   -1    0    0  502  503 -0.00000000000E+00 -0.00000000000E+00 -0.21018850395E+03  0.21018850395E+03  0.00000000000E+00 0.  1.
         25    1    1    2    0    0  0.13909840520E+03 -0.17624516944E+03 -0.10790458523E+03  0.27870975152E+03  0.12500000000E+03 0.  0.
          4    1    1    2  501    0 -0.11009315413E+03  0.17314272694E+03  0.63735673131E+03  0.66956889819E+03  0.00000000000E+00 0. -1.
         -4    1    1    2    0  503 -0.29005251077E+02  0.31024424904E+01  0.27362893929E+03  0.27517944356E+03  0.00000000000E+00 0.  1.
<mgrwt>
<rscale>  4 0.25492746E+03</rscale>
<asrwt>0</asrwt>
<pdfrwt beam="1">  1       21 0.15588763E+00 0.25492746E+03</pdfrwt>
<pdfrwt beam="2">  1       21 0.32336694E-01 0.25492746E+03</pdfrwt>
<totfact> 0.23576854E+03</totfact>
</mgrwt>
</event>
<event>
 5    0  0.1972558E-002  0.2620161E+03  0.7546771E-02  0.1105938E+00
         21   -1    0    0  501  502  0.00000000000E+00  0.00000000000E+00  0.16555496369E+04  0.16555496369E+04  0.00000000000E+00 0.  1.
         21   -1    0    0  502  503 -0.00000000000E+00 -0.00000000000E+00 -0.51893787592E+02  0.51893787592E+02  0.00000000000E+00 0. -1.
         25    1    1    2    0    0 -0.20221978904E+03 -0.11015703593E+03  0.40031323457E+03  0.47843818975E+03  0.12500000000E+03 0.  0.
          2    1    1    2  501    0  0.62617281310E+02  0.24353275224E+02  0.60195834344E+03  0.60569617232E+03  0.00000000000E+00 0. -1.
         -2    1    1    2    0  503  0.13960250773E+03  0.85803760706E+02  0.60138427135E+03  0.62330906246E+03  0.00000000000E+00 0.  1.
<mgrwt>
<rscale>  4 0.26201606E+03</rscale>
<asrwt>0</asrwt>
<pdfrwt beam="1">  1       21 0.25469990E+00 0.26201606E+03</pdfrwt>
<pdfrwt beam="2">  1       21 0.79836609E-02 0.26201606E+03</pdfrwt>
<totfact> 0.70739176E+03</totfact>
</mgrwt>
</event>
<event>
 5    0  0.1972558E-002  0.2415613E+03  0.7546771E-02  0.1118757E+00
         21   -1    0    0  501  502  0.00000000000E+00  0.00000000000E+00  0.57705723990E+02  0.57705723990E+02  0.00000000000E+00 0. -1.
         21   -1    0    0  502  503 -0.00000000000E+00 -0.00000000000E+00 -0.19604041716E+04  0.19604041716E+04  0.00000000000E+00 0.  1.
         25    1    1    2    0    0 -0.20283700040E+03 -0.96465283179E+02 -0.14922271061E+04  0.15142044564E+04  0.12500000000E+03 0.  0.
          3    1    1    2  501    0  0.59626294252E+02 -0.10033084324E+02 -0.47316019384E+01  0.60649367715E+02  0.00000000000E+00 0.  1.
         -3    1    1    2    0  503  0.14321070615E+03  0.10649836750E+03 -0.40573973957E+03  0.44325607148E+03  0.00000000000E+00 0. -1.
<mgrwt>
<rscale>  4 0.24156125E+03</rscale>
<asrwt>0</asrwt>
<pdfrwt beam="1">  1       21 0.88778051E-02 0.24156125E+03</pdfrwt>
<pdfrwt beam="2">  1       21 0.30160059E+00 0.24156125E+03</pdfrwt>
<totfact> 0.31693967E+03</totfact>
</mgrwt>
</event>
<event>
 5    0  0.1972558E-002  0.2332305E+03  0.7546771E-02  0.1124386E+00
         21   -1    0    0  501  502  0.00000000000E+00  0.00000000000E+00  0.21879090000E+03  0.21879090000E+03  0.00000000000E+00 0. -1.
         21   -1    0    0  502  503 -0.00000000000E+00 -0.00000000000E+00 -0.14012383958E+04  0.14012383958E+04  0.00000000000E+00 0. -1.
         25    1    1    2    0    0  0.13600489145E+03  0.14744785162E+03 -0.12458633990E+04  0.12680847008E+04  0.12500000000E+03 0.  0.
          2    1    1    2  501    0  0.32403711817E+02 -0.66587343350E+02  0.13329803138E+03  0.15248685191E+03  0.00000000000E+00 0.  1.
         -2    1    1    2    0  503 -0.16840860326E+03 -0.80860508273E+02 -0.69882128240E+02  0.19945774314E+03  0.00000000000E+00 0. -1.
<mgrwt>
<rscale>  4 0.23323051E+03</rscale>
<asrwt>0</asrwt>
<pdfrwt beam="1">  1       21 0.33660138E-01 0.23323051E+03</pdfrwt>
<pdfrwt beam="2">  1       21 0.21557514E+00 0.23323051E+03</pdfrwt>
<totfact> 0.87136380E+02</totfact>
</mgrwt>
</event>
<event>
 5    0  0.1972558E-002  0.2970976E+03  0.7546771E-02  0.1086701E+00
         21   -1    0    0  501  502  0.00000000000E+00  0.00000000000E+00  0.13656016256E+04  0.13656016256E+04  0.00000000000E+00 0.  1.
         21   -1    0    0  502  503 -0.00000000000E+00 -0.00000000000E+00 -0.74995088520E+02  0.74995088520E+02  0.00000000000E+00 0.  1.
         25    1    1    2    0    0 -0.21135134820E+03 -0.18467709556E+03  0.47720968964E+03  0.56756419011E+03  0.12500000000E+03 0.  0.
          4    1    1    2  501    0  0.22385284094E+02  0.97563645787E+01  0.27654082808E+03  0.27761685321E+03  0.00000000000E+00 0. -1.
         -4    1    1    2    0  503  0.18896606410E+03  0.17492073098E+03  0.53685601940E+03  0.59541567083E+03  0.00000000000E+00 0.  1.
<mgrwt>
<rscale>  4 0.29709759E+03</rscale>
<asrwt>0</asrwt>
<pdfrwt beam="1">  1       21 0.21009254E+00 0.29709759E+03</pdfrwt>
<pdfrwt beam="2">  1       21 0.11537707E-01 0.29709759E+03</pdfrwt>
<totfact> 0.67531185E+03</totfact>
</mgrwt>
</event>
<event>
 5    0  0.1972558E-002  0.5701008E+03  0.7546771E-02  0.9969456E-01
         21   -1    0    0  501  502  0.00000000000E+00  0.00000000000E+00  0.35579865870E+03  0.35579865870E+03  0.00000000000E+00 0. -1.
         21   -1    0    0  502  503 -0.00000000000E+00 -0.00000000000E+00 -0.10488209898E+04  0.10488209898E+04  0.00000000000E+00 0. -1.
         25    1    1    2    0    0 -0.13126255257E+03 -0.55168530014E+03 -0.47161620159E+03  0.74808647207E+03  0.12500000000E+03 0.  0.
          3    1    1    2  501    0  0.10827097162E+03  0.53215375430E+03 -0.26440780460E+03  0.60400472568E+03  0.00000000000E+00 0. -1.
         -3    1    1    2    0  503  0.22991580950E+02  0.19531545830E+02  0.43001675092E+02  0.52528450746E+02  0.00000000000E+00 0.  1.
<mgrwt>
<rscale>  4 0.57010084E+03</rscale>
<asrwt>0</asrwt>
<pdfrwt beam="1">  1       21 0.54738256E-01 0.57010084E+03</pdfrwt>
<pdfrwt beam="2">  1       21 0.16135707E+00 0.57010084E+03</pdfrwt>
<totfact> 0.61711873E+02</totfact>
</mgrwt>
</event>
<event>
 5    0  0.1972558E-002  0.2390764E+03  0.7546771E-02  0.1120410E+00
         21   -1    0    0  503  502  0.00000000000E+00  0.00000000000E+00  0.84600313906E+02  0.84600313906E+02  0.00000000000E+00 0.  1.
         21   -1    0    0  501  503 -0.00000000000E+00 -0.00000000000E+00 -0.16753022795E+04  0.16753022795E+04  0.00000000000E+00 0.  1.
         25    1    1    2    0    0 -0.49300398849E+02 -0.19919690146E+03 -0.14329173656E+04  0.14529236427E+04  0.12500000000E+03 0.  0.
          2    1    1    2  501    0 -0.49315266606E+02  0.22238629341E+02 -0.72301576083E+01  0.54578634414E+02  0.00000000000E+00 0. -1.
         -2    1    1    2    0  502  0.98615665455E+02  0.17695827212E+03 -0.15055444240E+03  0.25240031631E+03  0.00000000000E+00 0.  1.
<mgrwt>
<rscale>  4 0.23907644E+03</rscale>
<asrwt>0</asrwt>
<pdfrwt beam="1">  1       21 0.13015433E-01 0.23907644E+03</pdfrwt>
<pdfrwt beam="2">  1       21 0.25773881E+00 0.23907644E+03</pdfrwt>
<totfact> 0.28976488E+03</totfact>
</mgrwt>
</event>
<event>
 5    0  0.1972558E-002  0.3291291E+03  0.7546771E-02  0.1071523E+00
         21   -1    0    0  503  502  0.00000000000E+00  0.00000000000E+00  0.37821337190E+03  0.37821337190E+03  0.00000000000E+00 0. -1.
         21   -1    0    0  501  503 -0.00000000000E+00 -0.00000000000E+00 -0.11232757377E+04  0.11232757377E+04  0.00000000000E+00 0.  1.
         25    1    1    2    0    0  0.23721874002E+03  0.32044117364E+03 -0.89666962393E+03  0.98924046160E+03  0.12500000000E+03 0.  0.
          2    1    1    2  501    0 -0.69635032498E+02 -0.74855511183E+02 -0.84459796389E+02  0.13261162284E+03  0.00000000000E+00 0.  1.
         -2    1    1    2    0  502 -0.16758370752E+03 -0.24558566246E+03  0.23606705453E+03  0.37963702516E+03  0.00000000000E+00 0. -1.
<mgrwt>
<rscale>  4 0.32912912E+03</rscale>
<asrwt>0</asrwt>
<pdfrwt beam="1">  1       21 0.58186673E-01 0.32912912E+03</pdfrwt>
<pdfrwt beam="2">  1       21 0.17281165E+00 0.32912912E+03</pdfrwt>
<totfact> 0.50020378E+02</totfact>
</mgrwt>
</event>
<event>
 5    0  0.1972558E-002  0.2887963E+03  0.7546771E-02  0.1090979E+00
         21   -1    0    0  501  502  0.00000000000E+00  0.00000000000E+00  0.97685605302E+02  0.97685605302E+02  0.00000000000E+00 0.  1.
         21   -1    0    0  502  503 -0.00000000000E+00 -0.00000000000E+00 -0.13479528310E+04  0.13479528310E+04  0.00000000000E+00 0.  1.
         25    1    1    2    0    0 -0.23905815824E+03  0.91870747183E+02 -0.80205225697E+03  0.85117675022E+03  0.12500000000E+03 0.  0.
          2    1    1    2  501    0  0.26738293031E+03 -0.40368616189E+02 -0.46086319849E+03  0.53433897885E+03  0.00000000000E+00 0. -1.
         -2    1    1    2    0  503 -0.28324772065E+02 -0.51502130994E+02  0.12648229758E+02  0.60122707237E+02  0.00000000000E+00 0.  1.
<mgrwt>
<rscale>  4 0.28879628E+03</rscale>
<asrwt>0</asrwt>
<pdfrwt beam="1">  1       21 0.15028555E-01 0.28879628E+03</pdfrwt>
<pdfrwt beam="2">  1       21 0.20737735E+00 0.28879628E+03</pdfrwt>
<totfact> 0.43675200E+03</totfact>
</mgrwt>
</event>
<event>
 5    0  0.1972558E-002  0.3822124E+03  0.7546771E-02  0.1050119E+00
         21   -1    0    0  501  502  0.00000000000E+00  0.00000000000E+00  0.53299568829E+03  0.53299568829E+03  0.00000000000E+00 0.  1.
         21   -1    0    0  502  503 -0.00000000000E+00 -0.00000000000E+00 -0.12027131957E+04  0.12027131957E+04  0.00000000000E+00 0.  1.
         25    1    1    2    0    0  0.39785696916E+03  0.64437445674E+02 -0.83043570503E+03  0.93149922839E+03  0.12500000000E+03 0.  0.
          4    1    1    2  501    0 -0.25020192892E+03 -0.19642650463E+03 -0.21191203978E+03  0.38221864104E+03  0.00000000000E+00 0. -1.
         -4    1    1    2    0  503 -0.14765504023E+03  0.13198905895E+03  0.37263023737E+03  0.42199101458E+03  0.00000000000E+00 0.  1.
<mgrwt>
<rscale>  4 0.38221242E+03</rscale>
<asrwt>0</asrwt>
<pdfrwt beam="1">  1       21 0.81999337E-01 0.38221242E+03</pdfrwt>
<pdfrwt beam="2">  1       21 0.18503280E+00 0.38221242E+03</pdfrwt>
<totfact> 0.18422081E+02</totfact>
</mgrwt>
</event>
<event>
 5    0  0.1972558E-002  0.2850756E+03  0.7546771E-02  0.1092949E+00
         21   -1    0    0  503  502  0.00000000000E+00  0.00000000000E+00  0.78836874903E+03  0.78836874903E+03  0.00000000000E+00 0.  1.
         21   -1    0    0  501  503 -0.00000000000E+00 -0.00000000000E+00 -0.13126614833E+03  0.13126614833E+03  0.00000000000E+00 0.  1.
         25    1    1    2    0    0  0.60417463363E+02  0.25254539193E+03  0.18897680721E+03  0.34462541771E+03  0.12500000000E+03 0.  0.
          4    1    1    2  501    0 -0.27038126324E+02 -0.17798407430E+01  0.21653763518E+03  0.21822643185E+03  0.00000000000E+00 0. -1.
         -4    1    1    2    0  502 -0.33379337038E+02 -0.25076555119E+03  0.25158815831E+03  0.35678304781E+03  0.00000000000E+00 0.  1.
<mgrwt>
<rscale>  4 0.28507556E+03</rscale>
<asrwt>0</asrwt>
<pdfrwt beam="1">  1       21 0.12128750E+00 0.28507556E+03</pdfrwt>
<pdfrwt beam="2">  1       21 0.20194793E-01 0.28507556E+03</pdfrwt>
<totfact> 0.11030876E+04</totfact>
</mgrwt>
</event>
<event>
 5    0  0.1972558E-002  0.2630933E+03  0.7546771E-02  0.1105299E+00
         21   -1    0    0  501  502  0.00000000000E+00  0.00000000000E+00  0.53872855408E+03  0.53872855408E+03  0.00000000000E+00 0. -1.
         21   -1    0    0  502  503 -0.00000000000E+00 -0.00000000000E+00 -0.15100048489E+03  0.15100048489E+03  0.00000000000E+00 0.  1.
         25    1    1    2    0    0  0.10344078459E+03  0.20710649089E+03  0.52228293182E+02  0.26822730863E+03  0.12500000000E+03 0.  0.
          1    1    1    2  501    0 -0.47768781320E+02 -0.15059855234E+03  0.28949419208E+03  0.32980095161E+03  0.00000000000E+00 0. -1.
         -1    1    1    2    0  503 -0.55672003272E+02 -0.56507938549E+02  0.46005583929E+02  0.91700778732E+02  0.00000000000E+00 0.  1.
<mgrwt>
<rscale>  4 0.26309332E+03</rscale>
<asrwt>0</asrwt>
<pdfrwt beam="1">  1       21 0.82881315E-01 0.26309332E+03</pdfrwt>
<pdfrwt beam="2">  1       21 0.23230844E-01 0.26309332E+03</pdfrwt>
<totfact> 0.21292507E+04</totfact>
</mgrwt>
</event>
<event>
 5    0  0.1972558E-002  0.2364569E+03  0.7546771E-02  0.1122176E+00
         21   -1    0    0  501  502  0.00000000000E+00  0.00000000000E+00  0.21204540629E+03  0.21204540629E+03  0.00000000000E+00 0. -1.
         21   -1    0    0  502  503 -0.00000000000E+00 -0.00000000000E+00 -0.10933732256E+04  0.10933732256E+04  0.00000000000E+00 0.  1.
         25    1    1    2    0    0  0.15783278779E+03 -0.13204640212E+03 -0.95321219997E+03  0.98315102573E+03  0.12500000000E+03 0.  0.
          1    1    1    2  501    0 -0.10674763437E+03 -0.54332284684E+02  0.40759293385E+02  0.12652420559E+03  0.00000000000E+00 0.  1.
         -1    1    1    2    0  503 -0.51085153418E+02  0.18637868680E+03  0.31125087315E+02  0.19574340054E+03  0.00000000000E+00 0. -1.
<mgrwt>
<rscale>  4 0.23645687E+03</rscale>
<asrwt>0</asrwt>
<pdfrwt beam="1">  1       21 0.32622370E-01 0.23645687E+03</pdfrwt>
<pdfrwt beam="2">  1       21 0.16821127E+00 0.23645687E+03</pdfrwt>
<totfact> 0.19085908E+03</totfact>
</mgrwt>
</event>
<event>
 5    0  0.1972558E-002  0.3553444E+03  0.7546771E-02  0.1060443E+00
         21   -1    0    0  501  502  0.00000000000E+00  0.00000000000E+00  0.65625233974E+03  0.65625233974E+03  0.00000000000E+00 0. -1.
         21   -1    0    0  502  503 -0.00000000000E+00 -0.00000000000E+00 -0.22092067868E+04  0.22092067868E+04  0.00000000000E+00 0. -1.
         25    1    1    2    0    0 -0.37228376589E+02  0.32580564379E+03 -0.16922352239E+04  0.17282419745E+04  0.12500000000E+03 0.  0.
          4    1    1    2  501    0  0.59158178712E+02 -0.34397715221E+03 -0.43753790465E+03  0.55969580074E+03  0.00000000000E+00 0.  1.
         -4    1    1    2    0  503 -0.21929802123E+02  0.18171508425E+02  0.57681868145E+03  0.57752135130E+03  0.00000000000E+00 0. -1.
<mgrwt>
<rscale>  4 0.35534436E+03</rscale>
<asrwt>0</asrwt>
<pdfrwt beam="1">  1       21 0.10096190E+00 0.35534436E+03</pdfrwt>
<pdfrwt beam="2">  1       21 0.33987797E+00 0.35534436E+03</pdfrwt>
<totfact> 0.12786079E+01</totfact>
</mgrwt>
</event>
<event>
 5    0  0.1972558E-002  0.2685100E+03  0.7546771E-02  0.1102135E+00
         21   -1    0    0  501  502  0.00000000000E+00  0.00000000000E+00  0.32931991127E+04  0.32931991127E+04  0.00000000000E+00 0. -1.
         21   -1    0    0  502  503 -0.00000000000E+00 -0.00000000000E+00 -0.17085164086E+03  0.17085164086E+03  0.00000000000E+00 0.  1.
         25    1    1    2    0    0 -0.19849586904E+03 -0.13675178065E+03 -0.50100198437E+02  0.27610992271E+03  0.12500000000E+03 0.  0.
          3    1    1    2  501    0  0.13990176513E+03  0.14254805450E+03  0.13650865095E+04  0.13796208284E+04  0.00000000000E+00 0.  1.
         -3    1    1    2    0  503  0.58594103913E+02 -0.57962738479E+01  0.18073611608E+04  0.18083200024E+04  0.00000000000E+00 0. -1.
<mgrwt>
<rscale>  4 0.26851001E+03</rscale>
<asrwt>0</asrwt>
<pdfrwt beam="1">  1       21 0.50664597E+00 0.26851001E+03</pdfrwt>
<pdfrwt beam="2">  1       21 0.26284870E-01 0.26851001E+03</pdfrwt>
<totfact> 0.20534952E+01</totfact>
</mgrwt>
</event>
<event>
 5    0  0.1972558E-002  0.2439648E+03  0.7546771E-02  0.1117179E+00
         21   -1    0    0  501  502  0.00000000000E+00  0.00000000000E+00  0.96363119616E+02  0.96363119616E+02  0.00000000000E+00 0.  1.
         21   -1    0    0  502  503 -0.00000000000E+00 -0.00000000000E+00 -0.84224400310E+03  0.84224400310E+03  0.00000000000E+00 0. -1.
         25    1    1    2    0    0 -0.20833133392E+03  0.22178750686E+02 -0.66784488169E+03  0.71101028661E+03  0.12500000000E+03 0.  0.
          3    1    1    2  501    0  0.33826006367E+02  0.40600724467E+01  0.13501820656E+01  0.34095540568E+02  0.00000000000E+00 0. -1.
         -3    1    1    2    0  503  0.17450532756E+03 -0.26238823133E+02 -0.79386183865E+02  0.19350129554E+03  0.00000000000E+00 0.  1.
<mgrwt>
<rscale>  4 0.24396484E+03</rscale>
<asrwt>0</asrwt>
<pdfrwt beam="1">  1       21 0.14825095E-01 0.24396484E+03</pdfrwt>
<pdfrwt beam="2">  1       21 0.12957600E+00 0.24396484E+03</pdfrwt>
<totfact> 0.16924056E+04</totfact>
</mgrwt>
</event>
<event>
 5    0  0.1972558E-002  0.3295302E+03  0.7546771E-02  0.1071345E+00
         21   -1    0    0  501  502  0.00000000000E+00  0.00000000000E+00  0.82653414942E+03  0.82653414942E+03  0.00000000000E+00 0. -1.
         21   -1    0    0  502  503 -0.00000000000E+00 -0.00000000000E+00 -0.45895860722E+03  0.45895860722E+03  0.00000000000E+00 0.  1.
         25    1    1    2    0    0  0.33098606195E+02 -0.29917465622E+03 -0.10818964044E+03  0.34341081951E+03  0.12500000000E+03 0.  0.
          4    1    1    2  501    0 -0.22357423031E+02 -0.93360782616E+01  0.60639793020E+03  0.60688175658E+03  0.00000000000E+00 0. -1.
         -4    1    1    2    0  503 -0.10741183164E+02  0.30851073448E+03 -0.13063274756E+03  0.33520018055E+03  0.00000000000E+00 0.  1.
<mgrwt>
<rscale>  4 0.32953018E+03</rscale>
<asrwt>0</asrwt>
<pdfrwt beam="1">  1       21 0.12715910E+00 0.32953018E+03</pdfrwt>
<pdfrwt beam="2">  1       21 0.70609017E-01 0.32953018E+03</pdfrwt>
<totfact> 0.74397149E+02</totfact>
</mgrwt>
</event>
<event>
 5    0  0.1972558E-002  0.2427582E+03  0.7546771E-02  0.1117969E+00
         21   -1    0    0  503  502  0.00000000000E+00  0.00000000000E+00  0.23949725092E+03  0.23949725092E+03  0.00000000000E+00 0. -1.
         21   -1    0    0  501  503 -0.00000000000E+00 -0.00000000000E+00 -0.37420545080E+03  0.37420545080E+03  0.00000000000E+00 0. -1.
         25    1    1    2    0    0 -0.17619026583E+03 -0.11074094778E+03 -0.26886621547E+03  0.36224385310E+03  0.12500000000E+03 0.  0.
          3    1    1    2  501    0  0.26326305444E+02  0.37540832177E+02  0.31034889711E+02  0.55367434637E+02  0.00000000000E+00 0.  1.
         -3    1    1    2    0  502  0.14986396038E+03  0.73200115608E+02  0.10312312588E+03  0.19609141399E+03  0.00000000000E+00 0. -1.
<mgrwt>
<rscale>  4 0.24275825E+03</rscale>
<asrwt>0</asrwt>
<pdfrwt beam="1">  1       21 0.36845731E-01 0.24275825E+03</pdfrwt>
<pdfrwt beam="2">  1       21 0.57570069E-01 0.24275825E+03</pdfrwt>
<totfact> 0.19556884E+04</totfact>
</mgrwt>
</event>
<event>
 5    0  0.1972558E-002  0.3041603E+03  0.7546771E-02  0.1083179E+00
         21   -1    0    0  501  502  0.00000000000E+00  0.00000000000E+00  0.58501111524E+03  0.58501111524E+03  0.00000000000E+00 0.  1.
         21   -1    0    0  502  503 -0.00000000000E+00 -0.00000000000E+00 -0.26121229420E+03  0.26121229420E+03  0.00000000000E+00 0. -1.
         25    1    1    2    0    0  0.62259976191E+02  0.26483198944E+03 -0.56565327423E+02  0.30469152192E+03  0.12500000000E+03 0.  0.
          2    1    1    2  501    0  0.23097152072E+02  0.11042474436E+02  0.19875039797E+03  0.20039245337E+03  0.00000000000E+00 0. -1.
         -2    1    1    2    0  503 -0.85357128263E+02 -0.27587446387E+03  0.18161375049E+03  0.34113943415E+03  0.00000000000E+00 0.  1.
<mgrwt>
<rscale>  4 0.30416031E+03</rscale>
<asrwt>0</asrwt>
<pdfrwt beam="1">  1       21 0.90001710E-01 0.30416031E+03</pdfrwt>
<pdfrwt beam="2">  1       21 0.40186507E-01 0.30416031E+03</pdfrwt>
<totfact> 0.58512899E+03</totfact>
</mgrwt>
</event>
<event>
 5    0  0.1972558E-002  0.2577087E+03  0.7546771E-02  0.1108528E+00
         21   -1    0    0  501  502  0.00000000000E+00  0.00000000000E+00  0.27160092860E+04  0.27160092860E+04  0.00000000000E+00 0.  1.
         21   -1    0    0  502  503 -0.00000000000E+00 -0.00000000000E+00 -0.14705502562E+03  0.14705502562E+03  0.00000000000E+00 0.  1.
         25    1    1    2    0    0 -0.79103135211E+02  0.21275092432E+03  0.13270978524E+02  0.25946364036E+03  0.12500000000E+03 0.  0.
          4    1    1    2  501    0 -0.35051212419E+02 -0.22141509236E+02  0.20598233512E+04  0.20602405374E+04  0.00000000000E+00 0.  1.
         -4    1    1    2    0  503  0.11415434763E+03 -0.19060941508E+03  0.49585993065E+03  0.54336013382E+03  0.00000000000E+00 0. -1.
<mgrwt>
<rscale>  4 0.25770875E+03</rscale>
<asrwt>0</asrwt>
<pdfrwt beam="1">  1       21 0.41784755E+00 0.25770875E+03</pdfrwt>
<pdfrwt beam="2">  1       21 0.22623852E-01 0.25770875E+03</pdfrwt>
<totfact> 0.11125759E+02</totfact>
</mgrwt>
</event>
<event>
 5    0  0.1972558E-002  0.2714162E+03  0.7546771E-02  0.1100472E+00
         21   -1    0    0  501  502  0.00000000000E+00  0.00000000000E+00  0.51884414351E+03  0.51884414351E+03  0.00000000000E+00 0.  1.
         21   -1    0    0  502  503 -0.00000000000E+00 -0.00000000000E+00 -0.20518998224E+03  0.20518998224E+03  0.00000000000E+00 0.  1.
         25    1    1    2    0    0  0.53483466054E+02  0.23461800228E+03  0.20095099054E+02  0.27190972976E+03  0.12500000000E+03 0.  0.
          1    1    1    2  501    0  0.27664202291E+02 -0.63976888276E+01  0.18417893569E+03  0.18635481980E+03  0.00000000000E+00 0. -1.
         -1    1    1    2    0  503 -0.81147668345E+02 -0.22822031345E+03  0.10938012653E+03  0.26576957619E+03  0.00000000000E+00 0.  1.
<mgrwt>
<rscale>  4 0.27141624E+03</rscale>
<asrwt>0</asrwt>
<pdfrwt beam="1">  1       21 0.79822176E-01 0.27141624E+03</pdfrwt>
<pdfrwt beam="2">  1       21 0.31567690E-01 0.27141624E+03</pdfrwt>
<totfact> 0.12743757E+04</totfact>
</mgrwt>
</event>
<event>
 5    0  0.1972558E-002  0.2499090E+03  0.7546771E-02  0.1113362E+00
         21   -1    0    0  501  502  0.00000000000E+00  0.00000000000E+00  0.15365113638E+04  0.15365113638E+04  0.00000000000E+00 0.  1.
         21   -1    0    0  502  503 -0.00000000000E+00 -0.00000000000E+00 -0.21800250486E+03  0.21800250486E+03  0.00000000000E+00 0. -1.
         25    1    1    2    0    0 -0.18169193507E+03  0.11779033233E+03 -0.12106492251E+03  0.27779171536E+03  0.12500000000E+03 0.  0.
          3    1    1    2  501    0  0.16069039232E+03 -0.14732761848E+03  0.63590457130E+03  0.67223615877E+03  0.00000000000E+00 0. -1.
         -3    1    1    2    0  503  0.21001542747E+02  0.29537286149E+02  0.80366921019E+03  0.80448599458E+03  0.00000000000E+00 0.  1.
<mgrwt>
<rscale>  4 0.24990904E+03</rscale>
<asrwt>0</asrwt>
<pdfrwt beam="1">  1       21 0.23638636E+00 0.24990904E+03</pdfrwt>
<pdfrwt beam="2">  1       21 0.33538848E-01 0.24990904E+03</pdfrwt>
<totfact> 0.64322640E+02</totfact>
</mgrwt>
</event>
<event>
 5    0  0.1972558E-002  0.5468016E+03  0.7546771E-02  0.1002237E+00
         21   -1    0    0  501  502  0.00000000000E+00  0.00000000000E+00  0.47764008269E+03  0.47764008269E+03  0.00000000000E+00 0.  1.
         21   -1    0    0  502  503 -0.00000000000E+00 -0.00000000000E+00 -0.11564027327E+04  0.11564027327E+04  0.00000000000E+00 0. -1.
         25    1    1    2    0    0  0.51474562558E+03  0.13566110447E+03 -0.90051879264E+03  0.10535302987E+04  0.12500000000E+03 0.  0.
          3    1    1    2  501    0 -0.48595278719E+03 -0.13544791188E+03  0.19392115810E+03  0.54046430388E+03  0.00000000000E+00 0.  1.
         -3    1    1    2    0  503 -0.28792838395E+02 -0.21319259246E+00  0.27834984484E+02  0.40048212883E+02  0.00000000000E+00 0. -1.
<mgrwt>
<rscale>  4 0.54680160E+03</rscale>
<asrwt>0</asrwt>
<pdfrwt beam="1">  1       21 0.73483090E-01 0.54680160E+03</pdfrwt>
<pdfrwt beam="2">  1       21 0.17790811E+00 0.54680160E+03</pdfrwt>
<totfact> 0.24441889E+02</totfact>
</mgrwt>
</event>
<event>
 5    0  0.1972558E-002  0.2401372E+03  0.7546771E-02  0.1119701E+00
         21   -1    0    0  503  502  0.00000000000E+00  0.00000000000E+00  0.67828154264E+03  0.67828154264E+03  0.00000000000E+00 0. -1.
         21   -1    0    0  501  503 -0.00000000000E+00 -0.00000000000E+00 -0.88053585113E+03  0.88053585113E+03  0.00000000000E+00 0.  1.
         25    1    1    2    0    0 -0.18911100637E+03  0.79233297773E+02 -0.84598158567E+03  0.87940362263E+03  0.12500000000E+03 0.  0.
          2    1    1    2  501    0  0.35662529704E+02  0.13246237724E+02  0.12047810329E+03  0.12634180706E+03  0.00000000000E+00 0.  1.
         -2    1    1    2    0  502  0.15344847667E+03 -0.92479535497E+02  0.52324917389E+03  0.55307196409E+03  0.00000000000E+00 0. -1.
<mgrwt>
<rscale>  4 0.24013723E+03</rscale>
<asrwt>0</asrwt>
<pdfrwt beam="1">  1       21 0.10435101E+00 0.24013723E+03</pdfrwt>
<pdfrwt beam="2">  1       21 0.13546705E+00 0.24013723E+03</pdfrwt>
<totfact> 0.27399888E+02</totfact>
</mgrwt>
</event>
<event>
 5    0  0.1972558E-002  0.2332284E+03  0.7546771E-02  0.1124388E+00
         21   -1    0    0  501  502  0.00000000000E+00  0.00000000000E+00  0.43253753148E+03  0.43253753148E+03  0.00000000000E+00 0.  1.
         21   -1    0    0  502  503 -0.00000000000E+00 -0.00000000000E+00 -0.19249723330E+03  0.19249723330E+03  0.00000000000E+00 0.  1.
         25    1    1    2    0    0 -0.18366687508E+03  0.10269191471E+03  0.22789370289E+03  0.33442441622E+03  0.12500000000E+03 0.  0.
          3    1    1    2  501    0  0.75074027282E+01 -0.22021462844E+02  0.81549183121E+02  0.84803155538E+02  0.00000000000E+00 0. -1.
         -3    1    1    2    0  503  0.17615947235E+03 -0.80670451866E+02 -0.69402587834E+02  0.20580719302E+03  0.00000000000E+00 0.  1.
<mgrwt>
<rscale>  4 0.23322838E+03</rscale>
<asrwt>0</asrwt>
<pdfrwt beam="1">  1       21 0.66544235E-01 0.23322838E+03</pdfrwt>
<pdfrwt beam="2">  1       21 0.29614959E-01 0.23322838E+03</pdfrwt>
<totfact> 0.22121489E+04</totfact>
</mgrwt>
</event>
<event>
 5    0  0.1972558E-002  0.2669583E+03  0.7546771E-02  0.1103033E+00
         21   -1    0    0  501  502  0.00000000000E+00  0.00000000000E+00  0.15983599220E+04  0.15983599220E+04  0.00000000000E+00 0.  1.
         21   -1    0    0  502  503 -0.00000000000E+00 -0.00000000000E+00 -0.22426457797E+03  0.22426457797E+03  0.00000000000E+00 0.  1.
         25    1    1    2    0    0  0.49077194505E+02  0.21354452773E+03 -0.64219583868E+02  0.26030557293E+03  0.12500000000E+03 0.  0.
          3    1    1    2  501    0 -0.10308164799E+03  0.16333209641E+03  0.76309874331E+03  0.78716128710E+03  0.00000000000E+00 0. -1.
         -3    1    1    2    0  503  0.54004453481E+02 -0.37687662414E+03  0.67521618458E+03  0.77515763993E+03  0.00000000000E+00 0.  1.
<mgrwt>
<rscale>  4 0.26695828E+03</rscale>
<asrwt>0</asrwt>
<pdfrwt beam="1">  1       21 0.24590152E+00 0.26695828E+03</pdfrwt>
<pdfrwt beam="2">  1       21 0.34502244E-01 0.26695828E+03</pdfrwt>
<totfact> 0.52406491E+02</totfact>
</mgrwt>
</event>
<event>
 5    0  0.1972558E-002  0.3310102E+03  0.7546771E-02  0.1070691E+00
         21   -1    0    0  501  502  0.00000000000E+00  0.00000000000E+00  0.49542756687E+03  0.49542756687E+03  0.00000000000E+00 0. -1.
         21   -1    0    0  502  503 -0.00000000000E+00 -0.00000000000E+00 -0.22507825831E+03  0.22507825831E+03  0.00000000000E+00 0.  1.
         25    1    1    2    0    0 -0.10039873944E+02  0.30633632220E+03  0.68828010542E+02  0.33809027848E+03  0.12500000000E+03 0.  0.
          1    1    1    2  501    0  0.35280620432E+00 -0.47849681819E+02  0.87505152508E+02  0.99733987375E+02  0.00000000000E+00 0.  1.
         -1    1    1    2    0  503  0.96870677392E+01 -0.25848664039E+03  0.11401614551E+03  0.28268155931E+03  0.00000000000E+00 0. -1.
<mgrwt>
<rscale>  4 0.33101018E+03</rscale>
<asrwt>0</asrwt>
<pdfrwt beam="1">  1       21 0.76219625E-01 0.33101018E+03</pdfrwt>
<pdfrwt beam="2">  1       21 0.34627425E-01 0.33101018E+03</pdfrwt>
<totfact> 0.11468687E+04</totfact>
</mgrwt>
</event>
<event>
 5    0  0.1972558E-002  0.3052505E+03  0.7546771E-02  0.1082645E+00
         21   -1    0    0  501  502  0.00000000000E+00  0.00000000000E+00  0.24617279762E+04  0.24617279762E+04  0.00000000000E+00 0.  1.
         21   -1    0    0  502  503 -0.00000000000E+00 -0.00000000000E+00 -0.64196600712E+02  0.64196600712E+02  0.00000000000E+00 0. -1.
         25    1    1    2    0    0 -0.21354961210E+03 -0.20280845636E+03  0.66631255577E+03  0.73914283381E+03  0.12500000000E+03 0.  0.
          3    1    1    2  501    0  0.14080337518E+02  0.29609055458E+02  0.11253267548E+04  0.11258042712E+04  0.00000000000E+00 0. -1.
         -3    1    1    2    0  503  0.19946927458E+03  0.17319940091E+03  0.60589206493E+03  0.66097747187E+03  0.00000000000E+00 0.  1.
<mgrwt>
<rscale>  4 0.30525051E+03</rscale>
<asrwt>0</asrwt>
<pdfrwt beam="1">  1       21 0.37872731E+00 0.30525051E+03</pdfrwt>
<pdfrwt beam="2">  1       21 0.98764020E-02 0.30525051E+03</pdfrwt>
<totfact> 0.85413057E+02</totfact>
</mgrwt>
</event>
<event>
 5    0  0.1972558E-002  0.3516800E+03  0.7546771E-02  0.1061928E+00
         21   -1    0    0  501  502  0.00000000000E+00  0.00000000000E+00  0.46828500348E+03  0.46828500348E+03  0.00000000000E+00 0.  1.
         21   -1    0    0  502  503 -0.00000000000E+00 -0.00000000000E+00 -0.23461235921E+04  0.23461235921E+04  0.00000000000E+00 0.  1.
         25    1    1    2    0    0 -0.85808499159E+02  0.32039623149E+03 -0.16957673991E+04  0.17324170732E+04  0.12500000000E+03 0.  0.
          1    1    1    2  501    0  0.11018843436E+03 -0.30348185972E+03 -0.59022438205E+03  0.67276113994E+03  0.00000000000E+00 0. -1.
         -1    1    1    2    0  503 -0.24379935203E+02 -0.16914371767E+02  0.40815319261E+03  0.40923038236E+03  0.00000000000E+00 0.  1.
<mgrwt>
<rscale>  4 0.35168000E+03</rscale>
<asrwt>0</asrwt>
<pdfrwt beam="1">  1       21 0.72043848E-01 0.35168000E+03</pdfrwt>
<pdfrwt beam="2">  1       21 0.36094209E+00 0.35168000E+03</pdfrwt>
<totfact> 0.20973626E+01</totfact>
</mgrwt>
</event>
<event>
 5    0  0.1972558E-002  0.2573388E+03  0.7546771E-02  0.1108753E+00
         21   -1    0    0  501  502  0.00000000000E+00  0.00000000000E+00  0.58221033105E+03  0.58221033105E+03  0.00000000000E+00 0. -1.
         21   -1    0    0  502  503 -0.00000000000E+00 -0.00000000000E+00 -0.27030662304E+03  0.27030662304E+03  0.00000000000E+00 0.  1.
         25    1    1    2    0    0 -0.41359652595E+02  0.22110548147E+03 -0.17169710037E+03  0.30935925568E+03  0.12500000000E+03 0.  0.
          1    1    1    2  501    0  0.62599862011E+02 -0.14478335371E+03  0.38901101501E+03  0.41977438230E+03  0.00000000000E+00 0. -1.
         -1    1    1    2    0  503 -0.21240209416E+02 -0.76322127759E+02  0.94589793381E+02  0.12338331611E+03  0.00000000000E+00 0.  1.
<mgrwt>
<rscale>  4 0.25733879E+03</rscale>
<asrwt>0</asrwt>
<pdfrwt beam="1">  1       21 0.89570820E-01 0.25733879E+03</pdfrwt>
<pdfrwt beam="2">  1       21 0.41585634E-01 0.25733879E+03</pdfrwt>
<totfact> 0.56583311E+03</totfact>
</mgrwt>
</event>
<event>
 5    0  0.1972558E-002  0.3645827E+03  0.7546771E-02  0.1056784E+00
         21   -1    0    0  501  502  0.00000000000E+00  0.00000000000E+00  0.24287522464E+03  0.24287522464E+03  0.00000000000E+00 0. -1.
         21   -1    0    0  502  503 -0.00000000000E+00 -0.00000000000E+00 -0.13339930960E+04  0.13339930960E+04  0.00000000000E+00 0. -1.
         25    1    1    2    0    0 -0.23112511958E+03 -0.45269594151E+03 -0.64562496422E+03  0.83114922294E+03  0.12500000000E+03 0.  0.
          4    1    1    2  501    0  0.20296849236E+03  0.22354779719E+03 -0.78222331166E+02  0.31191114057E+03  0.00000000000E+00 0. -1.
         -4    1    1    2    0  503  0.28156627225E+02  0.22914814433E+03 -0.36727057599E+03  0.43380795716E+03  0.00000000000E+00 0.  1.
<mgrwt>
<rscale>  4 0.36458271E+03</rscale>
<asrwt>0</asrwt>
<pdfrwt beam="1">  1       21 0.37365419E-01 0.36458271E+03</pdfrwt>
<pdfrwt beam="2">  1       21 0.20522971E+00 0.36458271E+03</pdfrwt>
<totfact> 0.74436078E+02</totfact>
</mgrwt>
</event>
<event>
 5    0  0.1972558E-002  0.2557010E+03  0.7546771E-02  0.1109754E+00
         21   -1    0    0  501  502  0.00000000000E+00  0.00000000000E+00  0.63768089566E+03  0.63768089566E+03  0.00000000000E+00 0.  1.
         21   -1    0    0  502  503 -0.00000000000E+00 -0.00000000000E+00 -0.27870970488E+03  0.27870970488E+03  0.00000000000E+00 0. -1.
         25    1    1    2    0    0  0.21687751687E+03 -0.11477898877E+03 -0.64310650781E+02  0.28279132482E+03  0.12500000000E+03 0.  0.
          4    1    1    2  501    0 -0.15200200398E+03  0.13820528037E+03  0.71555246811E+00  0.20544055284E+03  0.00000000000E+00 0. -1.
         -4    1    1    2    0  503 -0.64875512893E+02 -0.23426291597E+02  0.42256628909E+03  0.42815872289E+03  0.00000000000E+00 0.  1.
<mgrwt>
<rscale>  4 0.25570101E+03</rscale>
<asrwt>0</asrwt>
<pdfrwt beam="1">  1       21 0.98104753E-01 0.25570101E+03</pdfrwt>
<pdfrwt beam="2">  1       21 0.42878416E-01 0.25570101E+03</pdfrwt>
<totfact> 0.42937089E+03</totfact>
</mgrwt>
</event>
<event>
 5    0  0.1972558E-002  0.2969418E+03  0.7546771E-02  0.1086779E+00
         21   -1    0    0  503  502  0.00000000000E+00  0.00000000000E+00  0.31110433491E+03  0.31110433491E+03  0.00000000000E+00 0.  1.
         21   -1    0    0  501  503 -0.00000000000E+00 -0.00000000000E+00 -0.44091870691E+03  0.44091870691E+03  0.00000000000E+00 0.  1.
         25    1    1    2    0    0 -0.10927609199E+03 -0.27950959766E+03 -0.22731857409E+03  0.39669334956E+03  0.12500000000E+03 0.  0.
          4    1    1    2  501    0 -0.17854213214E+02  0.88703615676E+02  0.87441294731E+02  0.12582958471E+03  0.00000000000E+00 0. -1.
         -4    1    1    2    0  502  0.12713030520E+03  0.19080598198E+03  0.10062907356E+02  0.22950010755E+03  0.00000000000E+00 0.  1.
<mgrwt>
<rscale>  4 0.29694184E+03</rscale>
<asrwt>0</asrwt>
<pdfrwt beam="1">  1       21 0.47862205E-01 0.29694184E+03</pdfrwt>
<pdfrwt beam="2">  1       21 0.67833647E-01 0.29694184E+03</pdfrwt>
<totfact> 0.77891347E+03</totfact>
</mgrwt>
</event>
<event>
 5    0  0.1972558E-002  0.2497975E+03  0.7546771E-02  0.1113433E+00
         21   -1    0    0  501  502  0.00000000000E+00  0.00000000000E+00  0.14531996554E+03  0.14531996554E+03  0.00000000000E+00 0. -1.
         21   -1    0    0  502  503 -0.00000000000E+00 -0.00000000000E+00 -0.56704589036E+03  0.56704589036E+03  0.00000000000E+00 0.  1.
         25    1    1    2    0    0  0.78649928731E+02 -0.19531244603E+03 -0.20396206846E+03  0.31868211157E+03  0.12500000000E+03 0.  0.
          2    1    1    2  501    0 -0.14030055902E+02 -0.15603147916E+02  0.45567014250E+02  0.50166258393E+02  0.00000000000E+00 0. -1.
         -2    1    1    2    0  503 -0.64619872830E+02  0.21091559394E+03 -0.26333087061E+03  0.34351748594E+03  0.00000000000E+00 0.  1.
<mgrwt>
<rscale>  4 0.24979745E+03</rscale>
<asrwt>0</asrwt>
<pdfrwt beam="1">  1       21 0.22356918E-01 0.24979745E+03</pdfrwt>
<pdfrwt beam="2">  1       21 0.87237829E-01 0.24979745E+03</pdfrwt>
<totfact> 0.20481522E+04</totfact>
</mgrwt>
</event>
<event>
 5    0  0.1972558E-002  0.2439950E+03  0.7546771E-02  0.1117160E+00
         21   -1    0    0  501  502  0.00000000000E+00  0.00000000000E+00  0.62737362840E+03  0.62737362840E+03  0.00000000000E+00 0. -1.
         21   -1    0    0  502  503 -0.00000000000E+00 -0.00000000000E+00 -0.12360836285E+03  0.12360836285E+03  0.00000000000E+00 0.  1.
         25    1    1    2    0    0 -0.14062460984E+03 -0.16197940326E+03  0.37348247289E+03  0.44847158832E+03  0.12500000000E+03 0.  0.
          3    1    1    2  501    0  0.24539172932E+02 -0.11065958865E+02  0.85148759686E+02  0.89302506851E+02  0.00000000000E+00 0.  1.
         -3    1    1    2    0  503  0.11608543691E+03  0.17304536213E+03  0.45134032980E+02  0.21320789608E+03  0.00000000000E+00 0. -1.
<mgrwt>
<rscale>  4 0.24399498E+03</rscale>
<asrwt>0</asrwt>
<pdfrwt beam="1">  1       21 0.96519018E-01 0.24399498E+03</pdfrwt>
<pdfrwt beam="2">  1       21 0.19016672E-01 0.24399498E+03</pdfrwt>
<totfact> 0.21991474E+04</totfact>
</mgrwt>
</event>
<event>
 5    0  0.1972558E-002  0.2473723E+03  0.7546771E-02  0.1114977E+00
         21   -1    0    0  501  502  0.00000000000E+00  0.00000000000E+00  0.35788914347E+03  0.35788914347E+03  0.00000000000E+00 0.  1.
         21   -1    0    0  502  503 -0.00000000000E+00 -0.00000000000E+00 -0.41481998180E+03  0.41481998180E+03  0.00000000000E+00 0. -1.
         25    1    1    2    0    0 -0.22880012261E+03  0.24722896194E+02 -0.30095730376E+03  0.39894989208E+03  0.12500000000E+03 0.  0.
          4    1    1    2  501    0  0.56943145498E+02 -0.40006070888E+02  0.17427859773E+03  0.18765936468E+03  0.00000000000E+00 0. -1.
         -4    1    1    2    0  503  0.17185697712E+03  0.15283174694E+02  0.69747867697E+02  0.18609986851E+03  0.00000000000E+00 0.  1.
<mgrwt>
<rscale>  4 0.24737229E+03</rscale>
<asrwt>0</asrwt>
<pdfrwt beam="1">  1       21 0.55059868E-01 0.24737229E+03</pdfrwt>
<pdfrwt beam="2">  1       21 0.63818459E-01 0.24737229E+03</pdfrwt>
<totfact> 0.68041520E+03</totfact>
</mgrwt>
</event>
<event>
 5    0  0.1972558E-002  0.2486148E+03  0.7546771E-02  0.1114183E+00
         21   -1    0    0  501  502  0.00000000000E+00  0.00000000000E+00  0.17806806112E+03  0.17806806112E+03  0.00000000000E+00 0. -1.
         21   -1    0    0  502  503 -0.00000000000E+00 -0.00000000000E+00 -0.55253608684E+03  0.55253608684E+03  0.00000000000E+00 0.  1.
         25    1    1    2    0    0  0.15471510137E+03  0.15200368798E+03 -0.41916140599E+03  0.48822450576E+03  0.12500000000E+03 0.  0.
          2    1    1    2  501    0 -0.13258331685E+03 -0.16170237155E+03  0.23840604179E+02  0.21046227044E+03  0.00000000000E+00 0. -1.
         -2    1    1    2    0  503 -0.22131784521E+02  0.96986835700E+01  0.20852776091E+02  0.31917371755E+02  0.00000000000E+00 0.  1.
<mgrwt>
<rscale>  4 0.24861484E+03</rscale>
<asrwt>0</asrwt>
<pdfrwt beam="1">  1       21 0.27395087E-01 0.24861484E+03</pdfrwt>
<pdfrwt beam="2">  1       21 0.85005551E-01 0.24861484E+03</pdfrwt>
<totfact> 0.14731641E+04</totfact>
</mgrwt>
</event>
<event>
 5    0  0.1972558E-002  0.5840715E+03  0.7546771E-02  0.9939015E-01
         21   -1    0    0  501  502  0.00000000000E+00  0.00000000000E+00  0.45534241673E+03  0.45534241673E+03  0.00000000000E+00 0.  1.
         21   -1    0    0  502  503 -0.00000000000E+00 -0.00000000000E+00 -0.98493707679E+03  0.98493707679E+03  0.00000000000E+00 0.  1.
         25    1    1    2    0    0 -0.46687113911E+02  0.57578475002E+03 -0.50673418442E+03  0.77853214360E+03  0.12500000000E+03 0.  0.
          3    1    1    2  501    0 -0.15261419154E+02 -0.20561975748E+02  0.88464088894E+02  0.92095606763E+02  0.00000000000E+00 0. -1.
         -3    1    1    2    0  503  0.61948533064E+02 -0.55522277427E+03 -0.11132456454E+03  0.56965174316E+03  0.00000000000E+00 0.  1.
<mgrwt>
<rscale>  4 0.58407148E+03</rscale>
<asrwt>0</asrwt>
<pdfrwt beam="1">  1       21 0.70052680E-01 0.58407148E+03</pdfrwt>
<pdfrwt beam="2">  1       21 0.15152878E+00 0.58407148E+03</pdfrwt>
<totfact> 0.42339111E+02</totfact>
</mgrwt>
</event>
<event>
 5    0  0.1972558E-002  0.3800809E+03  0.7546771E-02  0.1050904E+00
         21   -1    0    0  503  502  0.00000000000E+00  0.00000000000E+00  0.12530137649E+04  0.12530137649E+04  0.00000000000E+00 0.  1.
         21   -1    0    0  501  503 -0.00000000000E+00 -0.00000000000E+00 -0.63293276238E+03  0.63293276238E+03  0.00000000000E+00 0. -1.
         25    1    1    2    0    0  0.35146352545E+03 -0.72868873549E+02 -0.54578059031E+03  0.66508490827E+03  0.12500000000E+03 0.  0.
          2    1    1    2  501    0 -0.25315671940E+02  0.49198382346E+01  0.49022727373E+02  0.55392380822E+02  0.00000000000E+00 0. -1.
         -2    1    1    2    0  502 -0.32614785351E+03  0.67949035314E+02  0.11168388655E+04  0.11654692382E+04  0.00000000000E+00 0.  1.
<mgrwt>
<rscale>  4 0.38008089E+03</rscale>
<asrwt>0</asrwt>
<pdfrwt beam="1">  1       21 0.19277135E+00 0.38008089E+03</pdfrwt>
<pdfrwt beam="2">  1       21 0.97374271E-01 0.38008089E+03</pdfrwt>
<totfact> 0.10900376E+02</totfact>
</mgrwt>
</event>
<event>
 5    0  0.1972558E-002  0.5233937E+03  0.7546771E-02  0.1007847E+00
         21   -1    0    0  501  502  0.00000000000E+00  0.00000000000E+00  0.57007934850E+03  0.57007934850E+03  0.00000000000E+00 0. -1.
         21   -1    0    0  502  503 -0.00000000000E+00 -0.00000000000E+00 -0.54660106854E+03  0.54660106854E+03  0.00000000000E+00 0. -1.
         25    1    1    2    0    0 -0.19053555099E+03  0.48604089131E+03 -0.55212135441E+02  0.53964147739E+03  0.12500000000E+03 0.  0.
          3    1    1    2  501    0  0.22719367815E+03 -0.43966091702E+03  0.22385720503E+02  0.49539863729E+03  0.00000000000E+00 0. -1.
         -3    1    1    2    0  503 -0.36658127153E+02 -0.46379974289E+02  0.56304694898E+02  0.81640302357E+02  0.00000000000E+00 0.  1.
<mgrwt>
<rscale>  4 0.52339372E+03</rscale>
<asrwt>0</asrwt>
<pdfrwt beam="1">  1       21 0.87704515E-01 0.52339372E+03</pdfrwt>
<pdfrwt beam="2">  1       21 0.84092472E-01 0.52339372E+03</pdfrwt>
<totfact> 0.11371505E+03</totfact>
</mgrwt>
</event>
<event>
 5    0  0.1972558E-002  0.3868933E+03  0.7546771E-02  0.1048415E+00
         21   -1    0    0  501  502  0.00000000000E+00  0.00000000000E+00  0.95859525703E+03  0.95859525703E+03  0.00000000000E+00 0.  1.
         21   -1    0    0  502  503 -0.00000000000E+00 -0.00000000000E+00 -0.11081921441E+04  0.11081921441E+04  0.00000000000E+00 0.  1.
         25    1    1    2    0    0 -0.20138808311E+03  0.30940269605E+03 -0.93543684870E+03  0.10133875301E+04  0.12500000000E+03 0.  0.
          4    1    1    2  501    0  0.20989920690E+03 -0.27895543330E+03  0.94949074071E+02  0.36178603828E+03  0.00000000000E+00 0. -1.
         -4    1    1    2    0  503 -0.85111237979E+01 -0.30447262746E+02  0.69089088758E+03  0.69161383269E+03  0.00000000000E+00 0.  1.
<mgrwt>
<rscale>  4 0.38689330E+03</rscale>
<asrwt>0</asrwt>
<pdfrwt beam="1">  1       21 0.14747619E+00 0.38689330E+03</pdfrwt>
<pdfrwt beam="2">  1       21 0.17049110E+00 0.38689330E+03</pdfrwt>
<totfact> 0.54207883E+01</totfact>
</mgrwt>
</event>
<event>
 5    0  0.1972558E-002  0.2645438E+03  0.7546771E-02  0.1104444E+00
         21   -1    0    0  501  502  0.00000000000E+00  0.00000000000E+00  0.71468785698E+02  0.71468785698E+02  0.00000000000E+00 0. -1.
         21   -1    0    0  502  503 -0.00000000000E+00 -0.00000000000E+00 -0.17992429452E+04  0.17992429452E+04  0.00000000000E+00 0.  1.
         25    1    1    2    0    0 -0.85168108732E+02  0.22526125082E+03 -0.14598879183E+04  0.14848885385E+04  0.12500000000E+03 0.  0.
          1    1    1    2  501    0  0.11972685129E+03 -0.17580143720E+03 -0.23553552521E+03  0.31736043842E+03  0.00000000000E+00 0. -1.
         -1    1    1    2    0  503 -0.34558742557E+02 -0.49459813627E+02 -0.32350715980E+02  0.68462753929E+02  0.00000000000E+00 0.  1.
<mgrwt>
<rscale>  4 0.26454377E+03</rscale>
<asrwt>0</asrwt>
<pdfrwt beam="1">  1       21 0.10995199E-01 0.26454377E+03</pdfrwt>
<pdfrwt beam="2">  1       21 0.27680658E+00 0.26454377E+03</pdfrwt>
<totfact> 0.29643028E+03</totfact>
</mgrwt>
</event>
<event>
 5    0  0.1972558E-002  0.2807190E+03  0.7546771E-02  0.1095297E+00
         21   -1    0    0  501  502  0.00000000000E+00  0.00000000000E+00  0.58257079525E+03  0.58257079525E+03  0.00000000000E+00 0. -1.
         21   -1    0    0  502  503 -0.00000000000E+00 -0.00000000000E+00 -0.40738699130E+03  0.40738699130E+03  0.00000000000E+00 0.  1.
         25    1    1    2    0    0  0.17665293738E+03  0.17880679676E+03 -0.32499651801E+03  0.42944832934E+03  0.12500000000E+03 0.  0.
          2    1    1    2  501    0 -0.15947309776E+03 -0.16558250620E+03  0.43811625563E+03  0.49476771187E+03  0.00000000000E+00 0. -1.
         -2    1    1    2    0  503 -0.17179839625E+02 -0.13224290554E+02  0.62064066332E+02  0.65741745337E+02  0.00000000000E+00 0.  1.
<mgrwt>
<rscale>  4 0.28071895E+03</rscale>
<asrwt>0</asrwt>
<pdfrwt beam="1">  1       21 0.89626276E-01 0.28071895E+03</pdfrwt>
<pdfrwt beam="2">  1       21 0.62674922E-01 0.28071895E+03</pdfrwt>
<totfact> 0.23433187E+03</totfact>
</mgrwt>
</event>
<event>
 5    0  0.1972558E-002  0.5188218E+03  0.7546771E-02  0.1008980E+00
         21   -1    0    0  501  502  0.00000000000E+00  0.00000000000E+00  0.87119428556E+03  0.87119428556E+03  0.00000000000E+00 0. -1.
         21   -1    0    0  502  503 -0.00000000000E+00 -0.00000000000E+00 -0.19391087331E+04  0.19391087331E+04  0.00000000000E+00 0. -1.
         25    1    1    2    0    0  0.90948114392E+02 -0.49684704545E+03 -0.18082899551E+04  0.18816657801E+04  0.12500000000E+03 0.  0.
          4    1    1    2  501    0  0.78487143630E+01  0.29587689887E+02  0.22079319611E+03  0.22290506759E+03  0.00000000000E+00 0.  1.
         -4    1    1    2    0  503 -0.98796828755E+02  0.46725935556E+03  0.51958231149E+03  0.70573217097E+03  0.00000000000E+00 0. -1.
<mgrwt>
<rscale>  4 0.51882178E+03</rscale>
<asrwt>0</asrwt>
<pdfrwt beam="1">  1       21 0.13402989E+00 0.51882178E+03</pdfrwt>
<pdfrwt beam="2">  1       21 0.29832442E+00 0.51882178E+03</pdfrwt>
<totfact> 0.97610384E+00</totfact>
</mgrwt>
</event>
<event>
 5    0  0.1972558E-002  0.2443240E+03  0.7546771E-02  0.1116945E+00
         21   -1    0    0  501  502  0.00000000000E+00  0.00000000000E+00  0.87148444527E+03  0.87148444527E+03  0.00000000000E+00 0.  1.
         21   -1    0    0  502  503 -0.00000000000E+00 -0.00000000000E+00 -0.23819996759E+03  0.23819996759E+03  0.00000000000E+00 0.  1.
         25    1    1    2    0    0 -0.11346443189E+03  0.21793315441E+03 -0.11035180197E+03  0.29693695845E+03  0.12500000000E+03 0.  0.
          1    1    1    2  501    0  0.79291082580E+02 -0.12056703200E+03  0.14244962286E+03  0.20276927784E+03  0.00000000000E+00 0. -1.
         -1    1    1    2    0  503  0.34173349312E+02 -0.97366122417E+02  0.60118665679E+03  0.60997817657E+03  0.00000000000E+00 0.  1.
<mgrwt>
<rscale>  4 0.24432401E+03</rscale>
<asrwt>0</asrwt>
<pdfrwt beam="1">  1       21 0.13407453E+00 0.24432401E+03</pdfrwt>
<pdfrwt beam="2">  1       21 0.36646149E-01 0.24432401E+03</pdfrwt>
<totfact> 0.27524701E+03</totfact>
</mgrwt>
</event>
<event>
 5    0  0.1972558E-002  0.3037967E+03  0.7546771E-02  0.1083358E+00
         21   -1    0    0  501  502  0.00000000000E+00  0.00000000000E+00  0.38144422495E+03  0.38144422495E+03  0.00000000000E+00 0.  1.
         21   -1    0    0  502  503 -0.00000000000E+00 -0.00000000000E+00 -0.74747470595E+03  0.74747470595E+03  0.00000000000E+00 0. -1.
         25    1    1    2    0    0  0.27772938711E+03  0.72199555082E+02 -0.55430110985E+03  0.63656979869E+03  0.12500000000E+03 0.  0.
          1    1    1    2  501    0 -0.25068526517E+03 -0.30052684576E+02 -0.42653326589E+02  0.25605775187E+03  0.00000000000E+00 0. -1.
         -1    1    1    2    0  503 -0.27044121944E+02 -0.42146870506E+02  0.23092395544E+03  0.23629138034E+03  0.00000000000E+00 0.  1.
<mgrwt>
<rscale>  4 0.30379671E+03</rscale>
<asrwt>0</asrwt>
<pdfrwt beam="1">  1       21 0.58683727E-01 0.30379671E+03</pdfrwt>
<pdfrwt beam="2">  1       21 0.11499611E+00 0.30379671E+03</pdfrwt>
<totfact> 0.14628131E+03</totfact>
</mgrwt>
</event>
<event>
 5    0  0.1972558E-002  0.2556708E+03  0.7546771E-02  0.1109773E+00
         21   -1    0    0  501  502  0.00000000000E+00  0.00000000000E+00  0.19180292845E+03  0.19180292845E+03  0.00000000000E+00 0. -1.
         21   -1    0    0  502  503 -0.00000000000E+00 -0.00000000000E+00 -0.27738252679E+04  0.27738252679E+04  0.00000000000E+00 0.  1.
         25    1    1    2    0    0 -0.89375415225E+02 -0.22490993408E+03 -0.26388727691E+04  0.26528940678E+04  0.12500000000E+03 0.  0.
          2    1    1    2  501    0  0.52716098366E+02  0.10674777616E+03  0.12405512226E+03  0.17194111813E+03  0.00000000000E+00 0. -1.
         -2    1    1    2    0  503  0.36659316859E+02  0.11816215792E+03 -0.67204692563E+02  0.14079301040E+03  0.00000000000E+00 0.  1.
<mgrwt>
<rscale>  4 0.25567084E+03</rscale>
<asrwt>0</asrwt>
<pdfrwt beam="1">  1       21 0.29508144E-01 0.25567084E+03</pdfrwt>
<pdfrwt beam="2">  1       21 0.42674234E+00 0.25567084E+03</pdfrwt>
<totfact> 0.58543172E+01</totfact>
</mgrwt>
</event>
<event>
 5    0  0.1972558E-002  0.2867264E+03  0.7546771E-02  0.1092071E+00
         21   -1    0    0  501  502  0.00000000000E+00  0.00000000000E+00  0.15485138664E+03  0.15485138664E+03  0.00000000000E+00 0.  1.
         21   -1    0    0  502  503 -0.00000000000E+00 -0.00000000000E+00 -0.12149040035E+04  0.12149040035E+04  0.00000000000E+00 0.  1.
         25    1    1    2    0    0 -0.22394956131E+03 -0.16222796939E+03 -0.71972229797E+03  0.78108674695E+03  0.12500000000E+03 0.  0.
          1    1    1    2  501    0  0.15352265612E+03  0.20557195749E+03 -0.19454842324E+02  0.25730823255E+03  0.00000000000E+00 0.  1.
         -1    1    1    2    0  503  0.70426905196E+02 -0.43343988095E+02 -0.32087547657E+03  0.33136041064E+03  0.00000000000E+00 0. -1.
<mgrwt>
<rscale>  4 0.28672640E+03</rscale>
<asrwt>0</asrwt>
<pdfrwt beam="1">  1       21 0.23823290E-01 0.28672640E+03</pdfrwt>
<pdfrwt beam="2">  1       21 0.18690831E+00 0.28672640E+03</pdfrwt>
<totfact> 0.25141205E+03</totfact>
</mgrwt>
</event>
<event>
 5    0  0.1972558E-002  0.2408729E+03  0.7546771E-02  0.1119213E+00
         21   -1    0    0  501  502  0.00000000000E+00  0.00000000000E+00  0.76122460961E+02  0.76122460961E+02  0.00000000000E+00 0. -1.
         21   -1    0    0  502  503 -0.00000000000E+00 -0.00000000000E+00 -0.17500738985E+04  0.17500738985E+04  0.00000000000E+00 0.  1.
         25    1    1    2    0    0 -0.18246081454E+02  0.20351001054E+03 -0.14893969950E+04  0.15085349359E+04  0.12500000000E+03 0.  0.
          2    1    1    2  501    0  0.32129443832E+02  0.12317655784E+02 -0.17068032569E+01  0.34451980818E+02  0.00000000000E+00 0.  1.
         -2    1    1    2    0  503 -0.13883362378E+02 -0.21582766633E+03 -0.18284763923E+03  0.28320944277E+03  0.00000000000E+00 0. -1.
<mgrwt>
<rscale>  4 0.24087291E+03</rscale>
<asrwt>0</asrwt>
<pdfrwt beam="1">  1       21 0.11711147E-01 0.24087291E+03</pdfrwt>
<pdfrwt beam="2">  1       21 0.26924216E+00 0.24087291E+03</pdfrwt>
<totfact> 0.29941058E+03</totfact>
</mgrwt>
</event>
<event>
 5    0  0.1972558E-002  0.2350132E+03  0.7546771E-02  0.1123160E+00
         21   -1    0    0  501  502  0.00000000000E+00  0.00000000000E+00  0.27280091453E+03  0.27280091453E+03  0.00000000000E+00 0.  1.
         21   -1    0    0  502  503 -0.00000000000E+00 -0.00000000000E+00 -0.29053780175E+03  0.29053780175E+03  0.00000000000E+00 0. -1.
         25    1    1    2    0    0  0.55852506180E+02  0.21231677613E+03 -0.98541510577E+02  0.27117032504E+03  0.12500000000E+03 0.  0.
          3    1    1    2  501    0  0.36261661135E+02 -0.17672432198E+03  0.67052050572E+02  0.19246394866E+03  0.00000000000E+00 0.  1.
         -3    1    1    2    0  503 -0.92114167315E+02 -0.35592454154E+02  0.13752572790E+02  0.99704442585E+02  0.00000000000E+00 0. -1.
<mgrwt>
<rscale>  4 0.23501319E+03</rscale>
<asrwt>0</asrwt>
<pdfrwt beam="1">  1       21 0.41969371E-01 0.23501319E+03</pdfrwt>
<pdfrwt beam="2">  1       21 0.44698123E-01 0.23501319E+03</pdfrwt>
<totfact> 0.25665790E+04</totfact>
</mgrwt>
</event>
<event>
 5    0  0.1972558E-002  0.2690037E+03  0.7546771E-02  0.1101851E+00
         21   -1    0    0  501  502  0.00000000000E+00  0.00000000000E+00  0.15363369439E+03  0.15363369439E+03  0.00000000000E+00 0. -1.
         21   -1    0    0  502  503 -0.00000000000E+00 -0.00000000000E+00 -0.72338428628E+03  0.72338428628E+03  0.00000000000E+00 0. -1.
         25    1    1    2    0    0  0.23723530901E+03 -0.55543282291E+02 -0.52939754913E+03  0.59603054710E+03  0.12500000000E+03 0.  0.
          1    1    1    2  501    0 -0.21651888583E+03  0.62038947095E+02 -0.77305512180E+02  0.23812895895E+03  0.00000000000E+00 0. -1.
         -1    1    1    2    0  503 -0.20716423185E+02 -0.64956648036E+01  0.36952469419E+02  0.42858474622E+02  0.00000000000E+00 0.  1.
<mgrwt>
<rscale>  4 0.26900371E+03</rscale>
<asrwt>0</asrwt>
<pdfrwt beam="1">  1       21 0.23635952E-01 0.26900371E+03</pdfrwt>
<pdfrwt beam="2">  1       21 0.11128989E+00 0.26900371E+03</pdfrwt>
<totfact> 0.10207556E+04</totfact>
</mgrwt>
</event>
<event>
 5    0  0.1972558E-002  0.3081951E+03  0.7546771E-02  0.1086839E+00
         21   -1    0    0  501  502  0.00000000000E+00  0.00000000000E+00  0.13256235765E+04  0.13256235765E+04  0.00000000000E+00 0. -1.
         21   -1    0    0  502  503 -0.00000000000E+00 -0.00000000000E+00 -0.16657808656E+03  0.16657808656E+03  0.00000000000E+00 0. -1.
         25    1    1    2    0    0  0.65871260236E+02 -0.22438773103E+03  0.39645710643E+03  0.47696133387E+03  0.12500000000E+03 0.  0.
          3    1    1    2  501    0  0.28123321009E+03  0.10534921516E+03  0.29632231930E+03  0.42189749052E+03  0.00000000000E+00 0.  1.
         -3    1    1    2    0  503 -0.34710447033E+03  0.11903851587E+03  0.46626606425E+03  0.59334283872E+03  0.00000000000E+00 0. -1.
<mgrwt>
<rscale>  4 0.29682428E+03</rscale>
<asrwt>0</asrwt>
<pdfrwt beam="1">  1       21 0.20394208E+00 0.30819510E+03</pdfrwt>
<pdfrwt beam="2">  1       21 0.25627399E-01 0.30819510E+03</pdfrwt>
<totfact> 0.16604291E+03</totfact>
</mgrwt>
</event>
<event>
 5    0  0.1972558E-002  0.2403340E+03  0.7546771E-02  0.1119571E+00
         21   -1    0    0  501  502  0.00000000000E+00  0.00000000000E+00  0.16946885152E+03  0.16946885152E+03  0.00000000000E+00 0. -1.
         21   -1    0    0  502  503 -0.00000000000E+00 -0.00000000000E+00 -0.75480208353E+03  0.75480208353E+03  0.00000000000E+00 0. -1.
         25    1    1    2    0    0  0.25542110213E+02  0.20811797702E+03 -0.62358508853E+03  0.66966323954E+03  0.12500000000E+03 0.  0.
          3    1    1    2  501    0 -0.16297940631E+02 -0.18853977799E+03 -0.22062946511E+02  0.19052465552E+03  0.00000000000E+00 0. -1.
         -3    1    1    2    0  503 -0.92441695825E+01 -0.19578199029E+02  0.60314803039E+02  0.64083039988E+02  0.00000000000E+00 0.  1.
<mgrwt>
<rscale>  4 0.24033403E+03</rscale>
<asrwt>0</asrwt>
<pdfrwt beam="1">  1       21 0.26072131E-01 0.24033403E+03</pdfrwt>
<pdfrwt beam="2">  1       21 0.11612340E+00 0.24033403E+03</pdfrwt>
<totfact> 0.77425487E+03</totfact>
</mgrwt>
</event>
<event>
 5    0  0.1972558E-002  0.2307443E+03  0.7546771E-02  0.1126117E+00
         21   -1    0    0  501  502  0.00000000000E+00  0.00000000000E+00  0.23573857184E+04  0.23573857184E+04  0.00000000000E+00 0.  1.
         21   -1    0    0  502  503 -0.00000000000E+00 -0.00000000000E+00 -0.33440793627E+02  0.33440793627E+02  0.00000000000E+00 0.  1.
         25    1    1    2    0    0 -0.48894184569E+02 -0.20339782623E+03  0.56232517515E+03  0.61285880887E+03  0.12500000000E+03 0.  0.
          3    1    1    2  501    0  0.18985899487E+01  0.40276977136E+02  0.83194774079E+03  0.83292429604E+03  0.00000000000E+00 0. -1.
         -3    1    1    2    0  503  0.46995594620E+02  0.16312084910E+03  0.92967200879E+03  0.94504340707E+03  0.00000000000E+00 0.  1.
<mgrwt>
<rscale>  4 0.23074425E+03</rscale>
<asrwt>0</asrwt>
<pdfrwt beam="1">  1       21 0.36267460E+00 0.23074425E+03</pdfrwt>
<pdfrwt beam="2">  1       21 0.51447393E-02 0.23074425E+03</pdfrwt>
<totfact> 0.35956773E+03</totfact>
</mgrwt>
</event>
<event>
 5    0  0.1972558E-002  0.2778874E+03  0.7546771E-02  0.1096848E+00
         21   -1    0    0  503  502  0.00000000000E+00  0.00000000000E+00  0.94625988747E+02  0.94625988747E+02  0.00000000000E+00 0. -1.
         21   -1    0    0  501  503 -0.00000000000E+00 -0.00000000000E+00 -0.13249829682E+04  0.13249829682E+04  0.00000000000E+00 0. -1.
         25    1    1    2    0    0 -0.24091329309E+03  0.59642376634E+02 -0.10610636111E+04  0.10968488568E+04  0.12500000000E+03 0.  0.
          1    1    1    2  501    0  0.12040035387E+03 -0.44676604500E+02 -0.15375433876E+03  0.20033132778E+03  0.00000000000E+00 0.  1.
         -1    1    1    2    0  502  0.12051293923E+03 -0.14965772134E+02 -0.15539029572E+02  0.12242877234E+03  0.00000000000E+00 0. -1.
<mgrwt>
<rscale>  4 0.27788744E+03</rscale>
<asrwt>0</asrwt>
<pdfrwt beam="1">  1       21 0.14557844E-01 0.27788744E+03</pdfrwt>
<pdfrwt beam="2">  1       21 0.20384354E+00 0.27788744E+03</pdfrwt>
<totfact> 0.49138869E+03</totfact>
</mgrwt>
</event>
<event>
 5    0  0.1972558E-002  0.2477121E+03  0.7546771E-02  0.1114759E+00
         21   -1    0    0  501  502  0.00000000000E+00  0.00000000000E+00  0.88860832495E+02  0.88860832495E+02  0.00000000000E+00 0.  1.
         21   -1    0    0  502  503 -0.00000000000E+00 -0.00000000000E+00 -0.11335189532E+04  0.11335189532E+04  0.00000000000E+00 0.  1.
         25    1    1    2    0    0  0.64323822195E+02  0.21016721200E+03 -0.91483463731E+03  0.94913393403E+03  0.12500000000E+03 0.  0.
          3    1    1    2  501    0 -0.26515505986E+02 -0.19207709148E+03 -0.84494087281E+02  0.21150870411E+03  0.00000000000E+00 0.  1.
         -3    1    1    2    0  503 -0.37808316210E+02 -0.18090120520E+02 -0.45329396063E+02  0.61737147509E+02  0.00000000000E+00 0. -1.
<mgrwt>
<rscale>  4 0.24771205E+03</rscale>
<asrwt>0</asrwt>
<pdfrwt beam="1">  1       21 0.13670898E-01 0.24771205E+03</pdfrwt>
<pdfrwt beam="2">  1       21 0.17438752E+00 0.24771205E+03</pdfrwt>
<totfact> 0.88661067E+03</totfact>
</mgrwt>
</event>
<event>
 5    0  0.1972558E-002  0.3654936E+03  0.7546771E-02  0.1056430E+00
         21   -1    0    0  501  502  0.00000000000E+00  0.00000000000E+00  0.33029481236E+04  0.33029481236E+04  0.00000000000E+00 0. -1.
         21   -1    0    0  502  503 -0.00000000000E+00 -0.00000000000E+00 -0.17396963676E+03  0.17396963676E+03  0.00000000000E+00 0. -1.
         25    1    1    2    0    0  0.31103916485E+03 -0.15457626168E+03  0.47552999907E+02  0.37219010001E+03  0.12500000000E+03 0.  0.
          2    1    1    2  501    0 -0.25567485939E+03  0.13680367962E+03  0.28939601925E+04  0.29084515599E+04  0.00000000000E+00 0. -1.
         -2    1    1    2    0  503 -0.55364305458E+02  0.17772582058E+02  0.18746529445E+03  0.19627610047E+03  0.00000000000E+00 0.  1.
<mgrwt>
<rscale>  4 0.36549357E+03</rscale>
<asrwt>0</asrwt>
<pdfrwt beam="1">  1       21 0.50814582E+00 0.36549357E+03</pdfrwt>
<pdfrwt beam="2">  1       21 0.26764562E-01 0.36549357E+03</pdfrwt>
<totfact> 0.17238021E+01</totfact>
</mgrwt>
</event>
<event>
 5    0  0.1972558E-002  0.1867618E+03  0.7546771E-02  0.1161415E+00
         21   -1    0    0  501  502  0.00000000000E+00  0.00000000000E+00  0.20523893272E+04  0.20523893272E+04  0.00000000000E+00 0.  1.
         21   -1    0    0  502  503 -0.00000000000E+00 -0.00000000000E+00 -0.58444322483E+02  0.58444322483E+02  0.00000000000E+00 0. -1.
         25    1    1    2    0    0  0.21829778416E+03 -0.94983090801E+02  0.47994882990E+03  0.55013779131E+03  0.12500000000E+03 0.  0.
          4    1    1    2  501    0 -0.13003096686E+03 -0.21515930667E+01  0.19020389392E+03  0.23041311368E+03  0.00000000000E+00 0. -1.
         -4    1    1    2    0  503 -0.88266817300E+02  0.97134683867E+02  0.13237922809E+04  0.13302827446E+04  0.00000000000E+00 0.  1.
<mgrwt>
<rscale>  4 0.18676178E+03</rscale>
<asrwt>0</asrwt>
<pdfrwt beam="1">  1       21 0.31575215E+00 0.18676178E+03</pdfrwt>
<pdfrwt beam="2">  1       21 0.89914358E-02 0.18676178E+03</pdfrwt>
<totfact> 0.27305885E+03</totfact>
</mgrwt>
</event>
<event>
 5    0  0.1972558E-002  0.2441255E+03  0.7546771E-02  0.1117075E+00
         21   -1    0    0  501  502  0.00000000000E+00  0.00000000000E+00  0.41934201799E+03  0.41934201799E+03  0.00000000000E+00 0. -1.
         21   -1    0    0  502  503 -0.00000000000E+00 -0.00000000000E+00 -0.16303378270E+03  0.16303378270E+03  0.00000000000E+00 0. -1.
         25    1    1    2    0    0  0.15251272256E+03 -0.15048109608E+03  0.23068536426E+03  0.33874094542E+03  0.12500000000E+03 0.  0.
          1    1    1    2  501    0 -0.11966762523E+03  0.16537183434E+03  0.33129881646E+02  0.20679887132E+03  0.00000000000E+00 0. -1.
         -1    1    1    2    0  503 -0.32845097336E+02 -0.14890738266E+02 -0.75070106203E+01  0.36835983950E+02  0.00000000000E+00 0.  1.
<mgrwt>
<rscale>  4 0.24412554E+03</rscale>
<asrwt>0</asrwt>
<pdfrwt beam="1">  1       21 0.64514156E-01 0.24412554E+03</pdfrwt>
<pdfrwt beam="2">  1       21 0.25082121E-01 0.24412554E+03</pdfrwt>
<totfact> 0.32496611E+04</totfact>
</mgrwt>
</event>
<event>
 5    0  0.1972558E-002  0.2822714E+03  0.7546771E-02  0.1094455E+00
         21   -1    0    0  503  502  0.00000000000E+00  0.00000000000E+00  0.27850929491E+03  0.27850929491E+03  0.00000000000E+00 0. -1.
         21   -1    0    0  501  503 -0.00000000000E+00 -0.00000000000E+00 -0.29545225505E+03  0.29545225505E+03  0.00000000000E+00 0. -1.
         25    1    1    2    0    0  0.24739772016E+03 -0.63398150605E+02 -0.60553052612E+02  0.29071743949E+03  0.12500000000E+03 0.  0.
          4    1    1    2  501    0 -0.97636128590E+01 -0.20843458216E+02 -0.10627591162E+02  0.25351993617E+02  0.00000000000E+00 0.  1.
         -4    1    1    2    0  502 -0.23763410730E+03  0.84241608821E+02  0.54237683635E+02  0.25789211685E+03  0.00000000000E+00 0. -1.
<mgrwt>
<rscale>  4 0.28227141E+03</rscale>
<asrwt>0</asrwt>
<pdfrwt beam="1">  1       21 0.42847584E-01 0.28227141E+03</pdfrwt>
<pdfrwt beam="2">  1       21 0.45454193E-01 0.28227141E+03</pdfrwt>
<totfact> 0.23263211E+04</totfact>
</mgrwt>
</event>
<event>
 5    0  0.1972558E-002  0.2318596E+03  0.7546771E-02  0.1125338E+00
         21   -1    0    0  501  502  0.00000000000E+00  0.00000000000E+00  0.19674327847E+03  0.19674327847E+03  0.00000000000E+00 0. -1.
         21   -1    0    0  502  503 -0.00000000000E+00 -0.00000000000E+00 -0.29867902392E+03  0.29867902392E+03  0.00000000000E+00 0.  1.
         25    1    1    2    0    0  0.17078642088E+03  0.11145472284E+03 -0.13221377045E+03  0.27330502721E+03  0.12500000000E+03 0.  0.
          3    1    1    2  501    0 -0.15832432823E+03 -0.94030961607E+02 -0.10742283610E+01  0.18414550936E+03  0.00000000000E+00 0. -1.
         -3    1    1    2    0  503 -0.12462092651E+02 -0.17423761237E+02  0.31352253358E+02  0.37971765820E+02  0.00000000000E+00 0.  1.
<mgrwt>
<rscale>  4 0.23185964E+03</rscale>
<asrwt>0</asrwt>
<pdfrwt beam="1">  1       21 0.30268197E-01 0.23185964E+03</pdfrwt>
<pdfrwt beam="2">  1       21 0.45950619E-01 0.23185964E+03</pdfrwt>
<totfact> 0.46670822E+04</totfact>
</mgrwt>
</event>
<event>
 5    0  0.1972558E-002  0.2624964E+03  0.7546771E-02  0.1105653E+00
         21   -1    0    0  501  502  0.00000000000E+00  0.00000000000E+00  0.77710628275E+03  0.77710628275E+03  0.00000000000E+00 0.  1.
         21   -1    0    0  502  503 -0.00000000000E+00 -0.00000000000E+00 -0.23372555446E+03  0.23372555446E+03  0.00000000000E+00 0. -1.
         25    1    1    2    0    0  0.94022100137E+02  0.21743537549E+03 -0.12144467209E+03  0.29409540324E+03  0.12500000000E+03 0.  0.
          3    1    1    2  501    0 -0.36649871927E+02 -0.19903173854E+03  0.44600917715E+03  0.48977651247E+03  0.00000000000E+00 0. -1.
         -3    1    1    2    0  503 -0.57372228211E+02 -0.18403636951E+02  0.21881622323E+03  0.22695992151E+03  0.00000000000E+00 0.  1.
<mgrwt>
<rscale>  4 0.26249641E+03</rscale>
<asrwt>0</asrwt>
<pdfrwt beam="1">  1       21 0.11955481E+00 0.26249641E+03</pdfrwt>
<pdfrwt beam="2">  1       21 0.35957778E-01 0.26249641E+03</pdfrwt>
<totfact> 0.37757094E+03</totfact>
</mgrwt>
</event>
<event>
 5    0  0.1972558E-002  0.2712476E+03  0.7546771E-02  0.1100568E+00
         21   -1    0    0  503  502  0.00000000000E+00  0.00000000000E+00  0.11443956392E+03  0.11443956392E+03  0.00000000000E+00 0. -1.
         21   -1    0    0  501  503 -0.00000000000E+00 -0.00000000000E+00 -0.75884030948E+03  0.75884030948E+03  0.00000000000E+00 0. -1.
         25    1    1    2    0    0 -0.12442956666E+03  0.21655506737E+03 -0.47087745338E+03  0.54747547010E+03  0.12500000000E+03 0.  0.
          4    1    1    2  501    0  0.86621615895E+00 -0.24627580081E+02  0.15776390503E+02  0.29260255098E+02  0.00000000000E+00 0.  1.
         -4    1    1    2    0  502  0.12356335050E+03 -0.19192748729E+03 -0.18929968268E+03  0.29654414819E+03  0.00000000000E+00 0. -1.
<mgrwt>
<rscale>  4 0.27124756E+03</rscale>
<asrwt>0</asrwt>
<pdfrwt beam="1">  1       21 0.17606087E-01 0.27124756E+03</pdfrwt>
<pdfrwt beam="2">  1       21 0.11674466E+00 0.27124756E+03</pdfrwt>
<totfact> 0.15796870E+04</totfact>
</mgrwt>
</event>
<event>
 5    0  0.1972558E-002  0.3494362E+03  0.7546771E-02  0.1062847E+00
         21   -1    0    0  501  502  0.00000000000E+00  0.00000000000E+00  0.10545439275E+03  0.10545439275E+03  0.00000000000E+00 0.  1.
         21   -1    0    0  502  503 -0.00000000000E+00 -0.00000000000E+00 -0.24944037083E+04  0.24944037083E+04  0.00000000000E+00 0.  1.
         25    1    1    2    0    0  0.10324695058E+02  0.31966093288E+03 -0.19564592987E+04  0.19863654495E+04  0.12500000000E+03 0.  0.
          4    1    1    2  501    0 -0.14129170865E+02  0.33276434636E+02  0.18656277118E+02  0.40681829449E+02  0.00000000000E+00 0. -1.
         -4    1    1    2    0  503  0.38044758069E+01 -0.35293736751E+03 -0.45114629401E+03  0.57281082219E+03  0.00000000000E+00 0.  1.
<mgrwt>
<rscale>  4 0.34943616E+03</rscale>
<asrwt>0</asrwt>
<pdfrwt beam="1">  1       21 0.16223754E-01 0.34943616E+03</pdfrwt>
<pdfrwt beam="2">  1       21 0.38375438E+00 0.34943616E+03</pdfrwt>
<totfact> 0.30967667E+02</totfact>
</mgrwt>
</event>
<event>
 5    0  0.1972558E-002  0.4297644E+03  0.7546771E-02  0.1033934E+00
         21   -1    0    0  501  502  0.00000000000E+00  0.00000000000E+00  0.16864828181E+04  0.16864828181E+04  0.00000000000E+00 0.  1.
         21   -1    0    0  502  503 -0.00000000000E+00 -0.00000000000E+00 -0.25687933355E+03  0.25687933355E+03  0.00000000000E+00 0. -1.
         25    1    1    2    0    0  0.38010209381E+03  0.15790885909E+03  0.23037524279E+02  0.43077666722E+03  0.12500000000E+03 0.  0.
          4    1    1    2  501    0 -0.26201272443E+02  0.55491661583E+02  0.62930503824E+03  0.63229001442E+03  0.00000000000E+00 0.  1.
         -4    1    1    2    0  503 -0.35390082137E+03 -0.21340052067E+03  0.77726092205E+03  0.88029547002E+03  0.00000000000E+00 0. -1.
<mgrwt>
<rscale>  4 0.42976438E+03</rscale>
<asrwt>0</asrwt>
<pdfrwt beam="1">  1       21 0.25945889E+00 0.42976438E+03</pdfrwt>
<pdfrwt beam="2">  1       21 0.39519899E-01 0.42976438E+03</pdfrwt>
<totfact> 0.29226026E+02</totfact>
</mgrwt>
</event>
<event>
 5    0  0.1972558E-002  0.2446077E+03  0.7546771E-02  0.1116761E+00
         21   -1    0    0  503  502  0.00000000000E+00  0.00000000000E+00  0.11316345556E+04  0.11316345556E+04  0.00000000000E+00 0.  1.
         21   -1    0    0  501  503 -0.00000000000E+00 -0.00000000000E+00 -0.24598229219E+03  0.24598229219E+03  0.00000000000E+00 0. -1.
         25    1    1    2    0    0 -0.47342128209E+00 -0.21025626690E+03 -0.17036160050E+03  0.29808723022E+03  0.12500000000E+03 0.  0.
          2    1    1    2  501    0  0.36350884643E+02  0.10814618291E+03  0.47394881059E+03  0.48748790626E+03  0.00000000000E+00 0.  1.
         -2    1    1    2    0  502 -0.35877463361E+02  0.10211008399E+03  0.58206505333E+03  0.59204171132E+03  0.00000000000E+00 0. -1.
<mgrwt>
<rscale>  4 0.24460769E+03</rscale>
<asrwt>0</asrwt>
<pdfrwt beam="1">  1       21 0.17409762E+00 0.24460769E+03</pdfrwt>
<pdfrwt beam="2">  1       21 0.37843430E-01 0.24460769E+03</pdfrwt>
<totfact> 0.12807524E+03</totfact>
</mgrwt>
</event>
<event>
 5    0  0.1972558E-002  0.2651179E+03  0.7546771E-02  0.1104107E+00
         21   -1    0    0  501  502  0.00000000000E+00  0.00000000000E+00  0.18895440181E+04  0.18895440181E+04  0.00000000000E+00 0. -1.
         21   -1    0    0  502  503 -0.00000000000E+00 -0.00000000000E+00 -0.13298823562E+03  0.13298823562E+03  0.00000000000E+00 0. -1.
         25    1    1    2    0    0  0.23326817296E+03  0.34557630552E+02  0.34074291885E+02  0.26906194029E+03  0.12500000000E+03 0.  0.
          1    1    1    2  501    0 -0.21430332189E+03 -0.69362682045E+02  0.82742785486E+03  0.85753947456E+03  0.00000000000E+00 0. -1.
         -1    1    1    2    0  503 -0.18964851073E+02  0.34805051493E+02  0.89505363570E+03  0.89593083882E+03  0.00000000000E+00 0.  1.
<mgrwt>
<rscale>  4 0.26511793E+03</rscale>
<asrwt>0</asrwt>
<pdfrwt beam="1">  1       21 0.29069906E+00 0.26511793E+03</pdfrwt>
<pdfrwt beam="2">  1       21 0.20459730E-01 0.26511793E+03</pdfrwt>
<totfact> 0.78558617E+02</totfact>
</mgrwt>
</event>
<event>
 5    0  0.1972558E-002  0.3305578E+03  0.7546771E-02  0.1070890E+00
         21   -1    0    0  501  502  0.00000000000E+00  0.00000000000E+00  0.17220069665E+03  0.17220069665E+03  0.00000000000E+00 0. -1.
         21   -1    0    0  502  503 -0.00000000000E+00 -0.00000000000E+00 -0.13145166938E+04  0.13145166938E+04  0.00000000000E+00 0. -1.
         25    1    1    2    0    0  0.19744353158E+03 -0.23594635563E+03 -0.10305828024E+04  0.10827652301E+04  0.12500000000E+03 0.  0.
          1    1    1    2  501    0 -0.14313812404E+03  0.26936494000E+03 -0.13824059519E+03  0.33489767932E+03  0.00000000000E+00 0. -1.
         -1    1    1    2    0  503 -0.54305407536E+02 -0.33418584366E+02  0.26507400458E+02  0.69054481011E+02  0.00000000000E+00 0.  1.
<mgrwt>
<rscale>  4 0.33055781E+03</rscale>
<asrwt>0</asrwt>
<pdfrwt beam="1">  1       21 0.26492416E-01 0.33055781E+03</pdfrwt>
<pdfrwt beam="2">  1       21 0.20223333E+00 0.33055781E+03</pdfrwt>
<totfact> 0.15744806E+03</totfact>
</mgrwt>
</event>
<event>
 5    0  0.1972558E-002  0.2863097E+03  0.7546771E-02  0.1092292E+00
         21   -1    0    0  501  502  0.00000000000E+00  0.00000000000E+00  0.20452280575E+04  0.20452280575E+04  0.00000000000E+00 0.  1.
         21   -1    0    0  502  503 -0.00000000000E+00 -0.00000000000E+00 -0.42198991807E+03  0.42198991807E+03  0.00000000000E+00 0. -1.
         25    1    1    2    0    0 -0.21066549146E+03  0.11705575013E+03 -0.93758526681E+02  0.28722405758E+03  0.12500000000E+03 0.  0.
          2    1    1    2  501    0 -0.12177115597E+02  0.38708640913E+02  0.18683697747E+04  0.18688103852E+04  0.00000000000E+00 0.  1.
         -2    1    1    2    0  503  0.22284260705E+03 -0.15576439104E+03 -0.15137310859E+03  0.31118353272E+03  0.00000000000E+00 0. -1.
<mgrwt>
<rscale>  4 0.28630969E+03</rscale>
<asrwt>0</asrwt>
<pdfrwt beam="1">  1       21 0.31465046E+00 0.28630969E+03</pdfrwt>
<pdfrwt beam="2">  1       21 0.64921527E-01 0.28630969E+03</pdfrwt>
<totfact> 0.53768128E+01</totfact>
</mgrwt>
</event>
<event>
 5    0  0.1972558E-002  0.2865185E+03  0.7546771E-02  0.1092181E+00
         21   -1    0    0  501  502  0.00000000000E+00  0.00000000000E+00  0.64153376123E+03  0.64153376123E+03  0.00000000000E+00 0.  1.
         21   -1    0    0  502  503 -0.00000000000E+00 -0.00000000000E+00 -0.36882849643E+03  0.36882849643E+03  0.00000000000E+00 0. -1.
         25    1    1    2    0    0  0.25452949079E+03  0.29555829889E+02 -0.25159717876E+03  0.38024327624E+03  0.12500000000E+03 0.  0.
          1    1    1    2  501    0 -0.26624782278E+03 -0.13264268756E+02  0.28599970237E+03  0.39097272759E+03  0.00000000000E+00 0. -1.
         -1    1    1    2    0  503  0.11718331993E+02 -0.16291561133E+02  0.23830274118E+03  0.23914625384E+03  0.00000000000E+00 0.  1.
<mgrwt>
<rscale>  4 0.28651854E+03</rscale>
<asrwt>0</asrwt>
<pdfrwt beam="1">  1       21 0.98697502E-01 0.28651854E+03</pdfrwt>
<pdfrwt beam="2">  1       21 0.56742845E-01 0.28651854E+03</pdfrwt>
<totfact> 0.23064008E+03</totfact>
</mgrwt>
</event>
<event>
 5    0  0.1972558E-002  0.2840765E+03  0.7546771E-02  0.1093483E+00
         21   -1    0    0  501  502  0.00000000000E+00  0.00000000000E+00  0.53408807050E+03  0.53408807050E+03  0.00000000000E+00 0.  1.
         21   -1    0    0  502  503 -0.00000000000E+00 -0.00000000000E+00 -0.59990308596E+03  0.59990308596E+03  0.00000000000E+00 0.  1.
         25    1    1    2    0    0  0.19500194904E+03  0.20112455754E+03 -0.49160385971E+03  0.57946199415E+03  0.12500000000E+03 0.  0.
          2    1    1    2  501    0 -0.97011813461E+02 -0.14824030931E+03  0.85945631993E+02  0.19690894574E+03  0.00000000000E+00 0. -1.
         -2    1    1    2    0  503 -0.97990135576E+02 -0.52884248230E+02  0.33984321226E+03  0.35762021657E+03  0.00000000000E+00 0.  1.
<mgrwt>
<rscale>  4 0.28407649E+03</rscale>
<asrwt>0</asrwt>
<pdfrwt beam="1">  1       21 0.82167396E-01 0.28407649E+03</pdfrwt>
<pdfrwt beam="2">  1       21 0.92292782E-01 0.28407649E+03</pdfrwt>
<totfact> 0.11908639E+03</totfact>
</mgrwt>
</event>
<event>
 5    0  0.1972558E-002  0.2839347E+03  0.7546771E-02  0.1093559E+00
         21   -1    0    0  501  502  0.00000000000E+00  0.00000000000E+00  0.75752224815E+03  0.75752224815E+03  0.00000000000E+00 0.  1.
         21   -1    0    0  502  503 -0.00000000000E+00 -0.00000000000E+00 -0.20878070277E+03  0.20878070277E+03  0.00000000000E+00 0. -1.
         25    1    1    2    0    0  0.11220320521E+03 -0.21006316619E+03 -0.22119081910E+02  0.26987098183E+03  0.12500000000E+03 0.  0.
          3    1    1    2  501    0 -0.10591320768E+03  0.23533233462E+03  0.60250702060E+03  0.65544917816E+03  0.00000000000E+00 0.  1.
         -3    1    1    2    0  503 -0.62899975312E+01 -0.25269168438E+02 -0.31646393308E+02  0.40982790924E+02  0.00000000000E+00 0. -1.
<mgrwt>
<rscale>  4 0.28393475E+03</rscale>
<asrwt>0</asrwt>
<pdfrwt beam="1">  1       21 0.11654188E+00 0.28393475E+03</pdfrwt>
<pdfrwt beam="2">  1       21 0.32120108E-01 0.28393475E+03</pdfrwt>
<totfact> 0.49746886E+03</totfact>
</mgrwt>
</event>
<event>
 5    0  0.1972558E-002  0.2737320E+03  0.7546771E-02  0.1099163E+00
         21   -1    0    0  501  502  0.00000000000E+00  0.00000000000E+00  0.28116953027E+03  0.28116953027E+03  0.00000000000E+00 0.  1.
         21   -1    0    0  502  503 -0.00000000000E+00 -0.00000000000E+00 -0.41252086228E+03  0.41252086228E+03  0.00000000000E+00 0. -1.
         25    1    1    2    0    0  0.30993212085E+02 -0.21854357661E+03 -0.16897441713E+03  0.30479374619E+03  0.12500000000E+03 0.  0.
          1    1    1    2  501    0 -0.20883898525E+02  0.30155361122E+03  0.41889029557E+02  0.30516455963E+03  0.00000000000E+00 0.  1.
         -1    1    1    2    0  503 -0.10109313560E+02 -0.83010034609E+02 -0.42659444429E+01  0.83732086732E+02  0.00000000000E+00 0. -1.
<mgrwt>
<rscale>  4 0.27373197E+03</rscale>
<asrwt>0</asrwt>
<pdfrwt beam="1">  1       21 0.43256851E-01 0.27373197E+03</pdfrwt>
<pdfrwt beam="2">  1       21 0.63464748E-01 0.27373197E+03</pdfrwt>
<totfact> 0.11252582E+04</totfact>
</mgrwt>
</event>
<event>
 5    0  0.1972558E-002  0.3333997E+03  0.7546771E-02  0.1069642E+00
         21   -1    0    0  501  502  0.00000000000E+00  0.00000000000E+00  0.17556673592E+04  0.17556673592E+04  0.00000000000E+00 0.  1.
         21   -1    0    0  502  503 -0.00000000000E+00 -0.00000000000E+00 -0.41194910230E+03  0.41194910230E+03  0.00000000000E+00 0.  1.
         25    1    1    2    0    0  0.28920653947E+03  0.32759774950E+02 -0.22194748793E+03  0.38678070366E+03  0.12500000000E+03 0.  0.
          2    1    1    2  501    0  0.11324667797E+03 -0.89724084388E+02  0.12700461819E+04  0.12782380551E+04  0.00000000000E+00 0.  1.
         -2    1    1    2    0  503 -0.40245321744E+03  0.56964309439E+02  0.29561956285E+03  0.50259770266E+03  0.00000000000E+00 0. -1.
<mgrwt>
<rscale>  4 0.33339971E+03</rscale>
<asrwt>0</asrwt>
<pdfrwt beam="1">  1       21 0.27010267E+00 0.33339971E+03</pdfrwt>
<pdfrwt beam="2">  1       21 0.63376786E-01 0.33339971E+03</pdfrwt>
<totfact> 0.99191529E+01</totfact>
</mgrwt>
</event>
<event>
 5    0  0.1972558E-002  0.2829851E+03  0.7546771E-02  0.1094070E+00
         21   -1    0    0  501  502  0.00000000000E+00  0.00000000000E+00  0.42257281099E+03  0.42257281099E+03  0.00000000000E+00 0. -1.
         21   -1    0    0  502  503 -0.00000000000E+00 -0.00000000000E+00 -0.70924876721E+03  0.70924876721E+03  0.00000000000E+00 0. -1.
         25    1    1    2    0    0  0.56321617231E+02 -0.25180735870E+03 -0.58400332235E+03  0.65058738920E+03  0.12500000000E+03 0.  0.
          1    1    1    2  501    0 -0.29797096595E+02  0.23380114872E+03  0.61969346486E+02  0.24370277802E+03  0.00000000000E+00 0.  1.
         -1    1    1    2    0  503 -0.26524520636E+02  0.18006209972E+02  0.23535801965E+03  0.23753141099E+03  0.00000000000E+00 0. -1.
<mgrwt>
<rscale>  4 0.28298505E+03</rscale>
<asrwt>0</asrwt>
<pdfrwt beam="1">  1       21 0.65011203E-01 0.28298505E+03</pdfrwt>
<pdfrwt beam="2">  1       21 0.10911519E+00 0.28298505E+03</pdfrwt>
<totfact> 0.13488479E+03</totfact>
</mgrwt>
</event>
<event>
 5    0  0.1972558E-002  0.2477222E+03  0.7546771E-02  0.1114753E+00
         21   -1    0    0  501  502  0.00000000000E+00  0.00000000000E+00  0.27659500337E+04  0.27659500337E+04  0.00000000000E+00 0. -1.
         21   -1    0    0  502  503 -0.00000000000E+00 -0.00000000000E+00 -0.70546538146E+02  0.70546538146E+02  0.00000000000E+00 0.  1.
         25    1    1    2    0    0  0.15938786924E+03 -0.13211085943E+03  0.13728496575E+04  0.13939867123E+04  0.12500000000E+03 0.  0.
          1    1    1    2  501    0  0.77997533513E+02  0.10255891824E+03  0.35829176786E+02  0.13373734278E+03  0.00000000000E+00 0.  1.
         -1    1    1    2    0  503 -0.23738540276E+03  0.29551941194E+02  0.12867246613E+04  0.13087725168E+04  0.00000000000E+00 0. -1.
<mgrwt>
<rscale>  4 0.24772224E+03</rscale>
<asrwt>0</asrwt>
<pdfrwt beam="1">  1       21 0.42553069E+00 0.24772224E+03</pdfrwt>
<pdfrwt beam="2">  1       21 0.10853316E-01 0.24772224E+03</pdfrwt>
<totfact> 0.38876500E+02</totfact>
</mgrwt>
</event>
<event>
 5    0  0.1972558E-002  0.2910988E+03  0.7546771E-02  0.1089777E+00
         21   -1    0    0  501  502  0.00000000000E+00  0.00000000000E+00  0.27653927886E+03  0.27653927886E+03  0.00000000000E+00 0.  1.
         21   -1    0    0  502  503 -0.00000000000E+00 -0.00000000000E+00 -0.11581852226E+04  0.11581852226E+04  0.00000000000E+00 0. -1.
         25    1    1    2    0    0  0.76158801568E+02  0.27332592280E+03 -0.99511597851E+03  0.10422993974E+04  0.12500000000E+03 0.  0.
          1    1    1    2  501    0 -0.35920434002E+02 -0.80767973211E+02  0.16665338815E+03  0.18864542099E+03  0.00000000000E+00 0.  1.
         -1    1    1    2    0  503 -0.40238367566E+02 -0.19255794958E+03 -0.53183353439E+02  0.20377968313E+03  0.00000000000E+00 0. -1.
<mgrwt>
<rscale>  4 0.29109883E+03</rscale>
<asrwt>0</asrwt>
<pdfrwt beam="1">  1       21 0.42544505E-01 0.29109883E+03</pdfrwt>
<pdfrwt beam="2">  1       21 0.17818234E+00 0.29109883E+03</pdfrwt>
<totfact> 0.91107627E+02</totfact>
</mgrwt>
</event>
<event>
 5    0  0.1972558E-002  0.2754287E+03  0.7546771E-02  0.1098212E+00
         21   -1    0    0  501  502  0.00000000000E+00  0.00000000000E+00  0.67286689091E+03  0.67286689091E+03  0.00000000000E+00 0. -1.
         21   -1    0    0  502  503 -0.00000000000E+00 -0.00000000000E+00 -0.29773041653E+03  0.29773041653E+03  0.00000000000E+00 0.  1.
         25    1    1    2    0    0 -0.95527569454E+02  0.26740476996E+03  0.40384318221E+02  0.31286853578E+03  0.12500000000E+03 0.  0.
          2    1    1    2  501    0  0.11759137871E+02 -0.55621430378E+02  0.41301434540E+03  0.41690870745E+03  0.00000000000E+00 0. -1.
         -2    1    1    2    0  503  0.83768431583E+02 -0.21178333959E+03 -0.78262189246E+02  0.24082006420E+03  0.00000000000E+00 0.  1.
<mgrwt>
<rscale>  4 0.27542868E+03</rscale>
<asrwt>0</asrwt>
<pdfrwt beam="1">  1       21 0.10351798E+00 0.27542868E+03</pdfrwt>
<pdfrwt beam="2">  1       21 0.45804680E-01 0.27542868E+03</pdfrwt>
<totfact> 0.32533074E+03</totfact>
</mgrwt>
</event>
<event>
 5    0  0.1972558E-002  0.3237115E+03  0.7546771E-02  0.1073954E+00
         21   -1    0    0  501  502  0.00000000000E+00  0.00000000000E+00  0.26952700037E+03  0.26952700037E+03  0.00000000000E+00 0.  1.
         21   -1    0    0  502  503 -0.00000000000E+00 -0.00000000000E+00 -0.10107968491E+04  0.10107968491E+04  0.00000000000E+00 0.  1.
         25    1    1    2    0    0  0.30433498602E+03  0.11030393013E+02 -0.72258799449E+03  0.79404021502E+03  0.12500000000E+03 0.  0.
          3    1    1    2  501    0 -0.18996951174E+02 -0.12246337004E+02  0.15207947286E+03  0.15374987151E+03  0.00000000000E+00 0.  1.
         -3    1    1    2    0  503 -0.28533803485E+03  0.12159439910E+01 -0.17076132707E+03  0.33253376291E+03  0.00000000000E+00 0. -1.
<mgrwt>
<rscale>  4 0.32371153E+03</rscale>
<asrwt>0</asrwt>
<pdfrwt beam="1">  1       21 0.41465693E-01 0.32371153E+03</pdfrwt>
<pdfrwt beam="2">  1       21 0.15550721E+00 0.32371153E+03</pdfrwt>
<totfact> 0.13740453E+03</totfact>
</mgrwt>
</event>
<event>
 5    0  0.1972558E-002  0.2596731E+03  0.7546771E-02  0.1107340E+00
         21   -1    0    0  501  502  0.00000000000E+00  0.00000000000E+00  0.15961953059E+03  0.15961953059E+03  0.00000000000E+00 0. -1.
         21   -1    0    0  502  503 -0.00000000000E+00 -0.00000000000E+00 -0.11495424671E+04  0.11495424671E+04  0.00000000000E+00 0. -1.
         25    1    1    2    0    0 -0.57484641219E+02 -0.23246271676E+03 -0.89308538663E+03  0.93304335723E+03  0.12500000000E+03 0.  0.
          2    1    1    2  501    0  0.16847535064E+01  0.38585878966E+02  0.92002828615E+02  0.99780904601E+02  0.00000000000E+00 0.  1.
         -2    1    1    2    0  503  0.55799887713E+02  0.19387683780E+03 -0.18884037848E+03  0.27633773584E+03  0.00000000000E+00 0. -1.
<mgrwt>
<rscale>  4 0.25967313E+03</rscale>
<asrwt>0</asrwt>
<pdfrwt beam="1">  1       21 0.24556850E-01 0.25967313E+03</pdfrwt>
<pdfrwt beam="2">  1       21 0.17685269E+00 0.25967313E+03</pdfrwt>
<totfact> 0.28336561E+03</totfact>
</mgrwt>
</event>
<event>
 5    0  0.1972558E-002  0.2488579E+03  0.7546771E-02  0.1114029E+00
         21   -1    0    0  501  502  0.00000000000E+00  0.00000000000E+00  0.48031083312E+03  0.48031083312E+03  0.00000000000E+00 0.  1.
         21   -1    0    0  502  503 -0.00000000000E+00 -0.00000000000E+00 -0.92586620104E+03  0.92586620104E+03  0.00000000000E+00 0.  1.
         25    1    1    2    0    0 -0.39730036340E+02 -0.21148705618E+03 -0.88192919344E+03  0.91636747703E+03  0.12500000000E+03 0.  0.
          1    1    1    2  501    0  0.38240186875E+02  0.18982956116E+03  0.34243119458E+03  0.39339127748E+03  0.00000000000E+00 0.  1.
         -1    1    1    2    0  503  0.14898494652E+01  0.21657495016E+02  0.93942630943E+02  0.96418279648E+02  0.00000000000E+00 0. -1.
<mgrwt>
<rscale>  4 0.24885789E+03</rscale>
<asrwt>0</asrwt>
<pdfrwt beam="1">  1       21 0.73893975E-01 0.24885789E+03</pdfrwt>
<pdfrwt beam="2">  1       21 0.14244095E+00 0.24885789E+03</pdfrwt>
<totfact> 0.53155511E+02</totfact>
</mgrwt>
</event>
<event>
 5    0  0.1972558E-002  0.2724431E+03  0.7546771E-02  0.1099889E+00
         21   -1    0    0  501  502  0.00000000000E+00  0.00000000000E+00  0.30869796183E+03  0.30869796183E+03  0.00000000000E+00 0.  1.
         21   -1    0    0  502  503 -0.00000000000E+00 -0.00000000000E+00 -0.54544871279E+03  0.54544871279E+03  0.00000000000E+00 0. -1.
         25    1    1    2    0    0  0.22979511298E+03 -0.81886656911E+02 -0.43857567046E+03  0.51718936305E+03  0.12500000000E+03 0.  0.
          3    1    1    2  501    0 -0.18612228271E+02 -0.16527990622E+02  0.58092602378E+02  0.63200790867E+02  0.00000000000E+00 0. -1.
         -3    1    1    2    0  503 -0.21118288471E+03  0.98414647532E+02  0.14373231713E+03  0.27375652071E+03  0.00000000000E+00 0.  1.
<mgrwt>
<rscale>  4 0.27244306E+03</rscale>
<asrwt>0</asrwt>
<pdfrwt beam="1">  1       21 0.47491994E-01 0.27244306E+03</pdfrwt>
<pdfrwt beam="2">  1       21 0.83915186E-01 0.27244306E+03</pdfrwt>
<totfact> 0.49584774E+03</totfact>
</mgrwt>
</event>
<event>
 5    0  0.1972558E-002  0.6885110E+03  0.7546771E-02  0.9737084E-01
         21   -1    0    0  501  502  0.00000000000E+00  0.00000000000E+00  0.33939092275E+03  0.33939092275E+03  0.00000000000E+00 0. -1.
         21   -1    0    0  502  503 -0.00000000000E+00 -0.00000000000E+00 -0.16611821817E+04  0.16611821817E+04  0.00000000000E+00 0. -1.
         25    1    1    2    0    0  0.67595682670E+03 -0.19208565191E+03 -0.66494577525E+03  0.97549598320E+03  0.12500000000E+03 0.  0.
          3    1    1    2  501    0 -0.63924354021E+03  0.14704616054E+03 -0.69492663087E+03  0.95560342157E+03  0.00000000000E+00 0. -1.
         -3    1    1    2    0  503 -0.36713286490E+02  0.45039491363E+02  0.38081147126E+02  0.69473699725E+02  0.00000000000E+00 0.  1.
<mgrwt>
<rscale>  4 0.68851097E+03</rscale>
<asrwt>0</asrwt>
<pdfrwt beam="1">  1       21 0.52213988E-01 0.68851097E+03</pdfrwt>
<pdfrwt beam="2">  1       21 0.25556649E+00 0.68851097E+03</pdfrwt>
<totfact> 0.15235206E+02</totfact>
</mgrwt>
</event>
<event>
 5    0  0.1972558E-002  0.2922171E+03  0.7546771E-02  0.1089197E+00
         21   -1    0    0  501  502  0.00000000000E+00  0.00000000000E+00  0.52527627727E+03  0.52527627727E+03  0.00000000000E+00 0.  1.
         21   -1    0    0  502  503 -0.00000000000E+00 -0.00000000000E+00 -0.28756890492E+03  0.28756890492E+03  0.00000000000E+00 0.  1.
         25    1    1    2    0    0  0.23271110688E+03  0.21643351554E+03  0.14153597681E+03  0.36966925574E+03  0.12500000000E+03 0.  0.
          3    1    1    2  501    0 -0.10666490415E+03 -0.22442118045E+03 -0.46327987832E+02  0.25276184536E+03  0.00000000000E+00 0.  1.
         -3    1    1    2    0  503 -0.12604620273E+03  0.79876649114E+01  0.14249938338E+03  0.19041408109E+03  0.00000000000E+00 0. -1.
<mgrwt>
<rscale>  4 0.29221706E+03</rscale>
<asrwt>0</asrwt>
<pdfrwt beam="1">  1       21 0.80811735E-01 0.29221706E+03</pdfrwt>
<pdfrwt beam="2">  1       21 0.44241370E-01 0.29221706E+03</pdfrwt>
<totfact> 0.61992353E+03</totfact>
</mgrwt>
</event>
<event>
 5    0  0.1972558E-002  0.2436224E+03  0.7546771E-02  0.1117403E+00
         21   -1    0    0  501  502  0.00000000000E+00  0.00000000000E+00  0.12149040041E+03  0.12149040041E+03  0.00000000000E+00 0.  1.
         21   -1    0    0  502  503 -0.00000000000E+00 -0.00000000000E+00 -0.76089955870E+03  0.76089955870E+03  0.00000000000E+00 0.  1.
         25    1    1    2    0    0  0.18617531400E+03 -0.88593266666E+02 -0.53834328272E+03  0.58987160001E+03  0.12500000000E+03 0.  0.
          3    1    1    2  501    0  0.20302764058E-01 -0.22181501232E+02  0.31497707311E+02  0.38524342629E+02  0.00000000000E+00 0. -1.
         -3    1    1    2    0  503 -0.18619561676E+03  0.11077476790E+03 -0.13256358288E+03  0.25399401648E+03  0.00000000000E+00 0.  1.
<mgrwt>
<rscale>  4 0.24362235E+03</rscale>
<asrwt>0</asrwt>
<pdfrwt beam="1">  1       21 0.18690831E-01 0.24362235E+03</pdfrwt>
<pdfrwt beam="2">  1       21 0.11706147E+00 0.24362235E+03</pdfrwt>
<totfact> 0.14240841E+04</totfact>
</mgrwt>
</event>
<event>
 5    0  0.1972558E-002  0.2653035E+03  0.7546771E-02  0.1103998E+00
         21   -1    0    0  501  502  0.00000000000E+00  0.00000000000E+00  0.14448157074E+04  0.14448157074E+04  0.00000000000E+00 0.  1.
         21   -1    0    0  502  503 -0.00000000000E+00 -0.00000000000E+00 -0.30345502220E+03  0.30345502220E+03  0.00000000000E+00 0. -1.
         25    1    1    2    0    0 -0.19052072171E+03  0.15087644377E+03 -0.13586487019E+03  0.30519847581E+03  0.12500000000E+03 0.  0.
          4    1    1    2  501    0  0.47137500458E+02  0.17289441746E+02  0.12114598548E+04  0.12124998345E+04  0.00000000000E+00 0.  1.
         -4    1    1    2    0  503  0.14338322125E+03 -0.16816588551E+03  0.65765700585E+02  0.23057241934E+03  0.00000000000E+00 0. -1.
<mgrwt>
<rscale>  4 0.26530354E+03</rscale>
<asrwt>0</asrwt>
<pdfrwt beam="1">  1       21 0.22227934E+00 0.26530354E+03</pdfrwt>
<pdfrwt beam="2">  1       21 0.46685389E-01 0.26530354E+03</pdfrwt>
<totfact> 0.39502330E+02</totfact>
</mgrwt>
</event>
<event>
 5    0  0.1972558E-002  0.2362797E+03  0.7546771E-02  0.1122296E+00
         21   -1    0    0  501  502  0.00000000000E+00  0.00000000000E+00  0.14852485421E+04  0.14852485421E+04  0.00000000000E+00 0. -1.
         21   -1    0    0  502  503 -0.00000000000E+00 -0.00000000000E+00 -0.55454081417E+02  0.55454081417E+02  0.00000000000E+00 0. -1.
         25    1    1    2    0    0 -0.12102342053E+03  0.16504060950E+03  0.10831792238E+04  0.11094085370E+04  0.12500000000E+03 0.  0.
          2    1    1    2  501    0  0.14436306823E+03 -0.13860044334E+03  0.20954066283E+03  0.28975518587E+03  0.00000000000E+00 0. -1.
         -2    1    1    2    0  503 -0.23339647699E+02 -0.26440166156E+02  0.13707457402E+03  0.14153890060E+03  0.00000000000E+00 0.  1.
<mgrwt>
<rscale>  4 0.23627969E+03</rscale>
<asrwt>0</asrwt>
<pdfrwt beam="1">  1       21 0.22849975E+00 0.23627969E+03</pdfrwt>
<pdfrwt beam="2">  1       21 0.85313983E-02 0.23627969E+03</pdfrwt>
<totfact> 0.92323278E+03</totfact>
</mgrwt>
</event>
<event>
 5    0  0.1972558E-002  0.3573465E+03  0.7546771E-02  0.1059639E+00
         21   -1    0    0  501  502  0.00000000000E+00  0.00000000000E+00  0.16092882750E+03  0.16092882750E+03  0.00000000000E+00 0.  1.
         21   -1    0    0  502  503 -0.00000000000E+00 -0.00000000000E+00 -0.20650661230E+04  0.20650661230E+04  0.00000000000E+00 0. -1.
         25    1    1    2    0    0  0.12539920298E+03  0.30320881473E+03 -0.14872392946E+04  0.15281250816E+04  0.12500000000E+03 0.  0.
          4    1    1    2  501    0 -0.12807084377E+03 -0.32904943054E+03 -0.49926268212E+03  0.61150543294E+03  0.00000000000E+00 0.  1.
         -4    1    1    2    0  503  0.26716407868E+01  0.25840615804E+02  0.82364681235E+02  0.86364435995E+02  0.00000000000E+00 0. -1.
<mgrwt>
<rscale>  4 0.35734655E+03</rscale>
<asrwt>0</asrwt>
<pdfrwt beam="1">  1       21 0.24758281E-01 0.35734655E+03</pdfrwt>
<pdfrwt beam="2">  1       21 0.31770249E+00 0.35734655E+03</pdfrwt>
<totfact> 0.34880894E+02</totfact>
</mgrwt>
</event>
<event>
 5    0  0.1972558E-002  0.2477947E+03  0.7546771E-02  0.1114707E+00
         21   -1    0    0  501  502  0.00000000000E+00  0.00000000000E+00  0.58507215404E+03  0.58507215404E+03  0.00000000000E+00 0. -1.
         21   -1    0    0  502  503 -0.00000000000E+00 -0.00000000000E+00 -0.26250246712E+03  0.26250246712E+03  0.00000000000E+00 0. -1.
         25    1    1    2    0    0 -0.14884873674E+03  0.15135118135E+03 -0.33467996641E+02  0.24861261699E+03  0.12500000000E+03 0.  0.
          1    1    1    2  501    0  0.10491955028E+03 -0.19291150044E+03 -0.17750559707E+02  0.22031350708E+03  0.00000000000E+00 0.  1.
         -1    1    1    2    0  503  0.43929186468E+02  0.41560319093E+02  0.37378824327E+03  0.37864849710E+03  0.00000000000E+00 0. -1.
<mgrwt>
<rscale>  4 0.24779468E+03</rscale>
<asrwt>0</asrwt>
<pdfrwt beam="1">  1       21 0.90011100E-01 0.24779468E+03</pdfrwt>
<pdfrwt beam="2">  1       21 0.40384995E-01 0.24779468E+03</pdfrwt>
<totfact> 0.59727693E+03</totfact>
</mgrwt>
</event>
<event>
 5    0  0.1972558E-002  0.3179741E+03  0.7546771E-02  0.1076585E+00
         21   -1    0    0  501  502  0.00000000000E+00  0.00000000000E+00  0.12284790015E+04  0.12284790015E+04  0.00000000000E+00 0.  1.
         21   -1    0    0  502  503 -0.00000000000E+00 -0.00000000000E+00 -0.24793572641E+03  0.24793572641E+03  0.00000000000E+00 0. -1.
         25    1    1    2    0    0  0.27348825263E+03 -0.16097740194E+03 -0.68997728623E+02  0.34798740612E+03  0.12500000000E+03 0.  0.
          1    1    1    2  501    0 -0.47839940051E+02  0.11007071762E+03  0.69371851664E+03  0.70402386541E+03  0.00000000000E+00 0.  1.
         -1    1    1    2    0  503 -0.22564831258E+03  0.50906684324E+02  0.35582248707E+03  0.42440345638E+03  0.00000000000E+00 0. -1.
<mgrwt>
<rscale>  4 0.31797407E+03</rscale>
<asrwt>0</asrwt>
<pdfrwt beam="1">  1       21 0.18899677E+00 0.31797407E+03</pdfrwt>
<pdfrwt beam="2">  1       21 0.38143959E-01 0.31797407E+03</pdfrwt>
<totfact> 0.94235068E+02</totfact>
</mgrwt>
</event>
<event>
 5    0  0.1972558E-002  0.2697632E+03  0.7546771E-02  0.1101415E+00
         21   -1    0    0  501  502  0.00000000000E+00  0.00000000000E+00  0.29021096488E+03  0.29021096488E+03  0.00000000000E+00 0. -1.
         21   -1    0    0  502  503 -0.00000000000E+00 -0.00000000000E+00 -0.79915543200E+03  0.79915543200E+03  0.00000000000E+00 0.  1.
         25    1    1    2    0    0  0.21933755201E+03 -0.96295563769E+02 -0.61540487855E+03  0.67210859380E+03  0.12500000000E+03 0.  0.
          1    1    1    2  501    0 -0.18668762399E+03  0.15936680440E+03 -0.45389402976E+02  0.24962020190E+03  0.00000000000E+00 0.  1.
         -1    1    1    2    0  503 -0.32649928016E+02 -0.63071240629E+02  0.15184981440E+03  0.16763760118E+03  0.00000000000E+00 0. -1.
<mgrwt>
<rscale>  4 0.26976319E+03</rscale>
<asrwt>0</asrwt>
<pdfrwt beam="1">  1       21 0.44647842E-01 0.26976319E+03</pdfrwt>
<pdfrwt beam="2">  1       21 0.12294699E+00 0.26976319E+03</pdfrwt>
<totfact> 0.22539948E+03</totfact>
</mgrwt>
</event>
<event>
 5    0  0.1972558E-002  0.2410116E+03  0.7546771E-02  0.1119121E+00
         21   -1    0    0  501  502  0.00000000000E+00  0.00000000000E+00  0.11183619534E+04  0.11183619534E+04  0.00000000000E+00 0. -1.
         21   -1    0    0  502  503 -0.00000000000E+00 -0.00000000000E+00 -0.26855547774E+03  0.26855547774E+03  0.00000000000E+00 0.  1.
         25    1    1    2    0    0  0.19875951575E+03 -0.60104411306E+02 -0.13592906541E+03  0.27788414165E+03  0.12500000000E+03 0.  0.
          3    1    1    2  501    0 -0.19939644232E+03  0.38489407433E+02  0.10608421254E+03  0.22911620598E+03  0.00000000000E+00 0.  1.
         -3    1    1    2    0  503  0.63692656770E+00  0.21615003872E+02  0.87965132854E+03  0.87991708352E+03  0.00000000000E+00 0. -1.
<mgrwt>
<rscale>  4 0.24101160E+03</rscale>
<asrwt>0</asrwt>
<pdfrwt beam="1">  1       21 0.17205568E+00 0.24101160E+03</pdfrwt>
<pdfrwt beam="2">  1       21 0.41316228E-01 0.24101160E+03</pdfrwt>
<totfact> 0.11111889E+03</totfact>
</mgrwt>
</event>
<event>
 5    0  0.1972558E-002  0.2589831E+03  0.7546771E-02  0.1107756E+00
         21   -1    0    0  501  502  0.00000000000E+00  0.00000000000E+00  0.14556625919E+03  0.14556625919E+03  0.00000000000E+00 0. -1.
         21   -1    0    0  502  503 -0.00000000000E+00 -0.00000000000E+00 -0.65225601037E+03  0.65225601037E+03  0.00000000000E+00 0.  1.
         25    1    1    2    0    0  0.23496207280E+03  0.33222718393E+02 -0.41609696051E+03  0.49504808374E+03  0.12500000000E+03 0.  0.
          1    1    1    2  501    0 -0.21020362291E+03  0.37878482919E+02 -0.68749377983E+02  0.22438096961E+03  0.00000000000E+00 0.  1.
         -1    1    1    2    0  503 -0.24758449895E+02 -0.71101201312E+02 -0.21843412684E+02  0.78393216205E+02  0.00000000000E+00 0. -1.
<mgrwt>
<rscale>  4 0.25898307E+03</rscale>
<asrwt>0</asrwt>
<pdfrwt beam="1">  1       21 0.22394809E-01 0.25898307E+03</pdfrwt>
<pdfrwt beam="2">  1       21 0.10034708E+00 0.25898307E+03</pdfrwt>
<totfact> 0.14619185E+04</totfact>
</mgrwt>
</event>
<event>
 5    0  0.1972558E-002  0.2506684E+03  0.7546771E-02  0.1112883E+00
         21   -1    0    0  501  502  0.00000000000E+00  0.00000000000E+00  0.65519585521E+03  0.65519585521E+03  0.00000000000E+00 0.  1.
         21   -1    0    0  502  503 -0.00000000000E+00 -0.00000000000E+00 -0.12830099235E+04  0.12830099235E+04  0.00000000000E+00 0. -1.
         25    1    1    2    0    0 -0.20223335473E+03  0.11795867587E+02 -0.93905098658E+03  0.96875137556E+03  0.12500000000E+03 0.  0.
          4    1    1    2  501    0 -0.70947367476E+02  0.75699667888E+02  0.57227831318E+03  0.58160677129E+03  0.00000000000E+00 0.  1.
         -4    1    1    2    0  503  0.27318072220E+03 -0.87495535475E+02 -0.26104139491E+03  0.38784763190E+03  0.00000000000E+00 0. -1.
<mgrwt>
<rscale>  4 0.25066842E+03</rscale>
<asrwt>0</asrwt>
<pdfrwt beam="1">  1       21 0.10079936E+00 0.25066842E+03</pdfrwt>
<pdfrwt beam="2">  1       21 0.19738614E+00 0.25066842E+03</pdfrwt>
<totfact> 0.10451219E+02</totfact>
</mgrwt>
</event>
<event>
 5    0  0.1972558E-002  0.2441469E+03  0.7546771E-02  0.1117061E+00
         21   -1    0    0  501  502  0.00000000000E+00  0.00000000000E+00  0.15338419100E+04  0.15338419100E+04  0.00000000000E+00 0. -1.
         21   -1    0    0  502  503 -0.00000000000E+00 -0.00000000000E+00 -0.34915180787E+03  0.34915180787E+03  0.00000000000E+00 0.  1.
         25    1    1    2    0    0 -0.15168211460E+03  0.14550040449E+03 -0.29168603213E+03  0.38063574837E+03  0.12500000000E+03 0.  0.
          2    1    1    2  501    0 -0.23675186432E+02 -0.38756385285E+02  0.62232812109E+03  0.62398306239E+03  0.00000000000E+00 0. -1.
         -2    1    1    2    0  503  0.17535730103E+03 -0.10674401920E+03  0.85404801316E+03  0.87837490711E+03  0.00000000000E+00 0.  1.
<mgrwt>
<rscale>  4 0.24414692E+03</rscale>
<asrwt>0</asrwt>
<pdfrwt beam="1">  1       21 0.23597567E+00 0.24414692E+03</pdfrwt>
<pdfrwt beam="2">  1       21 0.53715664E-01 0.24414692E+03</pdfrwt>
<totfact> 0.24772608E+02</totfact>
</mgrwt>
</event>
<event>
 5    0  0.1972558E-002  0.3082800E+03  0.7546771E-02  0.1081173E+00
         21   -1    0    0  501  502  0.00000000000E+00  0.00000000000E+00  0.73770982243E+02  0.73770982243E+02  0.00000000000E+00 0. -1.
         21   -1    0    0  502  503 -0.00000000000E+00 -0.00000000000E+00 -0.13995265960E+04  0.13995265960E+04  0.00000000000E+00 0. -1.
         25    1    1    2    0    0  0.25534304336E+03  0.11921204845E+03 -0.94242710398E+03  0.99156715789E+03  0.12500000000E+03 0.  0.
          4    1    1    2  501    0 -0.15131067618E+03 -0.10947683053E+03 -0.25927912350E+03  0.31953992087E+03  0.00000000000E+00 0. -1.
         -4    1    1    2    0  503 -0.10403236718E+03 -0.97352179242E+01 -0.12404938631E+03  0.16219049952E+03  0.00000000000E+00 0.  1.
<mgrwt>
<rscale>  4 0.30828004E+03</rscale>
<asrwt>0</asrwt>
<pdfrwt beam="1">  1       21 0.11349383E-01 0.30828004E+03</pdfrwt>
<pdfrwt beam="2">  1       21 0.21531175E+00 0.30828004E+03</pdfrwt>
<totfact> 0.64013162E+03</totfact>
</mgrwt>
</event>
<event>
 5    0  0.1972558E-002  0.1930753E+03  0.7546771E-02  0.1155716E+00
         21   -1    0    0  503  502  0.00000000000E+00  0.00000000000E+00  0.27942701467E+03  0.27942701467E+03  0.00000000000E+00 0.  1.
         21   -1    0    0  501  503 -0.00000000000E+00 -0.00000000000E+00 -0.27044767593E+03  0.27044767593E+03  0.00000000000E+00 0.  1.
         25    1    1    2    0    0 -0.10817448227E+03 -0.16967442551E+03 -0.12770490078E+03  0.26911832151E+03  0.12500000000E+03 0.  0.
          1    1    1    2  501    0  0.70576165180E+01  0.72400527384E+02 -0.14844577113E+02  0.74242897209E+02  0.00000000000E+00 0. -1.
         -1    1    1    2    0  502  0.10111686575E+03  0.97273898128E+02  0.15152881663E+03  0.20651347188E+03  0.00000000000E+00 0.  1.
<mgrwt>
<rscale>  4 0.19307533E+03</rscale>
<asrwt>0</asrwt>
<pdfrwt beam="1">  1       21 0.42988772E-01 0.19307533E+03</pdfrwt>
<pdfrwt beam="2">  1       21 0.41607334E-01 0.19307533E+03</pdfrwt>
<totfact> 0.28934930E+04</totfact>
</mgrwt>
</event>
<event>
 5    0  0.1972558E-002  0.3230277E+03  0.7546771E-02  0.1074264E+00
         21   -1    0    0  501  502  0.00000000000E+00  0.00000000000E+00  0.25870249422E+03  0.25870249422E+03  0.00000000000E+00 0.  1.
         21   -1    0    0  502  503 -0.00000000000E+00 -0.00000000000E+00 -0.77247322433E+03  0.77247322433E+03  0.00000000000E+00 0.  1.
         25    1    1    2    0    0 -0.33038984861E+03 -0.11215404316E+03 -0.25462364481E+03  0.44966007378E+03  0.12500000000E+03 0.  0.
          4    1    1    2  501    0  0.23656668642E+03  0.15285519806E+03  0.21836783673E+02  0.28249841383E+03  0.00000000000E+00 0.  1.
         -4    1    1    2    0  503  0.93823162190E+02 -0.40701154901E+02 -0.28098386897E+03  0.29901723093E+03  0.00000000000E+00 0. -1.
<mgrwt>
<rscale>  4 0.32302772E+03</rscale>
<asrwt>0</asrwt>
<pdfrwt beam="1">  1       21 0.39800384E-01 0.32302772E+03</pdfrwt>
<pdfrwt beam="2">  1       21 0.11884203E+00 0.32302772E+03</pdfrwt>
<totfact> 0.30144789E+03</totfact>
</mgrwt>
</event>
<event>
 5    0  0.1972558E-002  0.2706323E+03  0.7546771E-02  0.1100918E+00
         21   -1    0    0  501  502  0.00000000000E+00  0.00000000000E+00  0.23410418380E+03  0.23410418380E+03  0.00000000000E+00 0. -1.
         21   -1    0    0  502  503 -0.00000000000E+00 -0.00000000000E+00 -0.48946638494E+03  0.48946638494E+03  0.00000000000E+00 0. -1.
         25    1    1    2    0    0 -0.20685566759E+03 -0.12176857834E+03 -0.34900224242E+03  0.44163833518E+03  0.12500000000E+03 0.  0.
          1    1    1    2  501    0  0.72945436407E+02 -0.49862184651E+01  0.59820354950E+02  0.94468904585E+02  0.00000000000E+00 0.  1.
         -1    1    1    2    0  503  0.13391023118E+03  0.12675479680E+03  0.33819686334E+02  0.18746332898E+03  0.00000000000E+00 0. -1.
<mgrwt>
<rscale>  4 0.27063232E+03</rscale>
<asrwt>0</asrwt>
<pdfrwt beam="1">  1       21 0.36016028E-01 0.27063232E+03</pdfrwt>
<pdfrwt beam="2">  1       21 0.75302521E-01 0.27063232E+03</pdfrwt>
<totfact> 0.11189215E+04</totfact>
</mgrwt>
</event>
<event>
 5    0  0.1972558E-002  0.2782746E+03  0.7546771E-02  0.1096635E+00
         21   -1    0    0  501  502  0.00000000000E+00  0.00000000000E+00  0.69831541722E+03  0.69831541722E+03  0.00000000000E+00 0. -1.
         21   -1    0    0  502  503 -0.00000000000E+00 -0.00000000000E+00 -0.27753961566E+03  0.27753961566E+03  0.00000000000E+00 0. -1.
         25    1    1    2    0    0 -0.65616040718E+01 -0.28399092363E+03 -0.13455911401E+01  0.31035577966E+03  0.12500000000E+03 0.  0.
          3    1    1    2  501    0  0.90220883021E+01  0.59492188325E+02  0.43640434766E+03  0.44053316924E+03  0.00000000000E+00 0. -1.
         -3    1    1    2    0  503 -0.24604842303E+01  0.22449873531E+03 -0.14282954949E+02  0.22496608398E+03  0.00000000000E+00 0.  1.
<mgrwt>
<rscale>  4 0.27827459E+03</rscale>
<asrwt>0</asrwt>
<pdfrwt beam="1">  1       21 0.10743314E+00 0.27827459E+03</pdfrwt>
<pdfrwt beam="2">  1       21 0.42698403E-01 0.27827459E+03</pdfrwt>
<totfact> 0.34311905E+03</totfact>
</mgrwt>
</event>
<event>
 5    0  0.1972558E-002  0.2515068E+03  0.7546771E-02  0.1112356E+00
         21   -1    0    0  501  502  0.00000000000E+00  0.00000000000E+00  0.79235826201E+03  0.79235826201E+03  0.00000000000E+00 0.  1.
         21   -1    0    0  502  503 -0.00000000000E+00 -0.00000000000E+00 -0.13677316157E+04  0.13677316157E+04  0.00000000000E+00 0. -1.
         25    1    1    2    0    0  0.45683300233E+02  0.21199425896E+03 -0.12819088852E+04  0.13061178812E+04  0.12500000000E+03 0.  0.
          3    1    1    2  501    0  0.26852691302E+01 -0.30675816782E+03  0.67745465537E+03  0.74367505960E+03  0.00000000000E+00 0.  1.
         -3    1    1    2    0  503 -0.48368569363E+02  0.94763908858E+02  0.29080876143E+02  0.11029693686E+03  0.00000000000E+00 0. -1.
<mgrwt>
<rscale>  4 0.25150679E+03</rscale>
<asrwt>0</asrwt>
<pdfrwt beam="1">  1       21 0.12190127E+00 0.25150679E+03</pdfrwt>
<pdfrwt beam="2">  1       21 0.21042025E+00 0.25150679E+03</pdfrwt>
<totfact> 0.54055734E+01</totfact>
</mgrwt>
</event>
<event>
 5    0  0.1972558E-002  0.2464417E+03  0.7546771E-02  0.1115574E+00
         21   -1    0    0  501  502  0.00000000000E+00  0.00000000000E+00  0.68556222755E+03  0.68556222755E+03  0.00000000000E+00 0.  1.
         21   -1    0    0  502  503 -0.00000000000E+00 -0.00000000000E+00 -0.53421219424E+03  0.53421219424E+03  0.00000000000E+00 0. -1.
         25    1    1    2    0    0 -0.75268811092E+02 -0.20134515620E+03 -0.46701619623E+03  0.52908826616E+03  0.12500000000E+03 0.  0.
          4    1    1    2  501    0 -0.10518943978E+01  0.25788685485E+02  0.39779052166E+03  0.39862697087E+03  0.00000000000E+00 0.  1.
         -4    1    1    2    0  503  0.76320705490E+02  0.17555647072E+03  0.22057570787E+03  0.29205918476E+03  0.00000000000E+00 0. -1.
<mgrwt>
<rscale>  4 0.24644169E+03</rscale>
<asrwt>0</asrwt>
<pdfrwt beam="1">  1       21 0.10547111E+00 0.24644169E+03</pdfrwt>
<pdfrwt beam="2">  1       21 0.82186491E-01 0.24644169E+03</pdfrwt>
<totfact> 0.88992400E+02</totfact>
</mgrwt>
</event>
<event>
 5    0  0.1972558E-002  0.3014325E+03  0.7546771E-02  0.1084527E+00
         21   -1    0    0  501  502  0.00000000000E+00  0.00000000000E+00  0.11325704057E+03  0.11325704057E+03  0.00000000000E+00 0.  1.
         21   -1    0    0  502  503 -0.00000000000E+00 -0.00000000000E+00 -0.12464128894E+04  0.12464128894E+04  0.00000000000E+00 0.  1.
         25    1    1    2    0    0  0.12334172204E+03 -0.25593416836E+03 -0.93659819327E+03  0.98668974585E+03  0.12500000000E+03 0.  0.
          2    1    1    2  501    0 -0.12954978467E+02  0.29600437658E+02  0.22371747774E+02  0.39300285942E+02  0.00000000000E+00 0. -1.
         -2    1    1    2    0  503 -0.11038674357E+03  0.22633373070E+03 -0.21892940335E+03  0.33367989820E+03  0.00000000000E+00 0.  1.
<mgrwt>
<rscale>  4 0.30143254E+03</rscale>
<asrwt>0</asrwt>
<pdfrwt beam="1">  1       21 0.17424160E-01 0.30143254E+03</pdfrwt>
<pdfrwt beam="2">  1       21 0.19175583E+00 0.30143254E+03</pdfrwt>
<totfact> 0.41733733E+03</totfact>
</mgrwt>
</event>
<event>
 5    0  0.1972558E-002  0.2664769E+03  0.7546771E-02  0.1103313E+00
         21   -1    0    0  503  502  0.00000000000E+00  0.00000000000E+00  0.25155556575E+03  0.25155556575E+03  0.00000000000E+00 0. -1.
         21   -1    0    0  501  503 -0.00000000000E+00 -0.00000000000E+00 -0.12924490858E+04  0.12924490858E+04  0.00000000000E+00 0.  1.
         25    1    1    2    0    0 -0.22240070324E+03 -0.66778567462E+02 -0.11692546350E+04  0.11986254008E+04  0.12500000000E+03 0.  0.
          3    1    1    2  501    0 -0.10858023753E+02  0.33466661338E+02 -0.41872815843E+02  0.54692292030E+02  0.00000000000E+00 0.  1.
         -3    1    1    2    0  502  0.23325872700E+03  0.33311906123E+02  0.17023393078E+03  0.29068695877E+03  0.00000000000E+00 0. -1.
<mgrwt>
<rscale>  4 0.26647691E+03</rscale>
<asrwt>0</asrwt>
<pdfrwt beam="1">  1       21 0.38700857E-01 0.26647691E+03</pdfrwt>
<pdfrwt beam="2">  1       21 0.19883832E+00 0.26647691E+03</pdfrwt>
<totfact> 0.81776427E+02</totfact>
</mgrwt>
</event>
<event>
 5    0  0.1972558E-002  0.2410814E+03  0.7546771E-02  0.1119075E+00
         21   -1    0    0  501  502  0.00000000000E+00  0.00000000000E+00  0.98310546504E+02  0.98310546504E+02  0.00000000000E+00 0. -1.
         21   -1    0    0  502  503 -0.00000000000E+00 -0.00000000000E+00 -0.11988082343E+04  0.11988082343E+04  0.00000000000E+00 0. -1.
         25    1    1    2    0    0  0.52330643304E+02 -0.22658172146E+03 -0.15048433149E+03  0.30388864202E+03  0.12500000000E+03 0.  0.
          2    1    1    2  501    0 -0.30170820948E+02  0.20023065433E+03 -0.93319605242E+03  0.95491228164E+03  0.00000000000E+00 0. -1.
         -2    1    1    2    0  503 -0.22159822356E+02  0.26351067126E+02 -0.16817303875E+02  0.38317857132E+02  0.00000000000E+00 0.  1.
<mgrwt>
<rscale>  4 0.24108139E+03</rscale>
<asrwt>0</asrwt>
<pdfrwt beam="1">  1       21 0.15124699E-01 0.24108139E+03</pdfrwt>
<pdfrwt beam="2">  1       21 0.18443204E+00 0.24108139E+03</pdfrwt>
<totfact> 0.63146860E+03</totfact>
</mgrwt>
</event>
<event>
 5    0  0.1972558E-002  0.4680178E+03  0.7546771E-02  0.1022481E+00
         21   -1    0    0  501  502  0.00000000000E+00  0.00000000000E+00  0.21117694073E+03  0.21117694073E+03  0.00000000000E+00 0. -1.
         21   -1    0    0  502  503 -0.00000000000E+00 -0.00000000000E+00 -0.11157077822E+04  0.11157077822E+04  0.00000000000E+00 0. -1.
         25    1    1    2    0    0  0.40128118830E+03 -0.22780827916E+03 -0.52843870657E+03  0.71259783240E+03  0.12500000000E+03 0.  0.
          3    1    1    2  501    0 -0.38164675665E+03  0.21863398022E+03 -0.39057501281E+03  0.58822096597E+03  0.00000000000E+00 0. -1.
         -3    1    1    2    0  503 -0.19634431649E+02  0.91742989439E+01  0.14482877961E+02  0.26065924525E+02  0.00000000000E+00 0.  1.
<mgrwt>
<rscale>  4 0.46801785E+03</rscale>
<asrwt>0</asrwt>
<pdfrwt beam="1">  1       21 0.32488761E-01 0.46801785E+03</pdfrwt>
<pdfrwt beam="2">  1       21 0.17164735E+00 0.46801785E+03</pdfrwt>
<totfact> 0.15952921E+03</totfact>
</mgrwt>
</event>
<event>
 5    0  0.1972558E-002  0.2737661E+03  0.7546771E-02  0.1099143E+00
         21   -1    0    0  501  502  0.00000000000E+00  0.00000000000E+00  0.18729584571E+03  0.18729584571E+03  0.00000000000E+00 0.  1.
         21   -1    0    0  502  503 -0.00000000000E+00 -0.00000000000E+00 -0.14088419688E+04  0.14088419688E+04  0.00000000000E+00 0. -1.
         25    1    1    2    0    0 -0.16899315495E+03 -0.16442838577E+03 -0.89981856998E+03  0.93855944902E+03  0.12500000000E+03 0.  0.
          2    1    1    2  501    0 -0.36908622795E+02  0.80868803284E+01  0.13094169227E+03  0.13628415478E+03  0.00000000000E+00 0.  1.
         -2    1    1    2    0  503  0.20590177774E+03  0.15634150545E+03 -0.45266924536E+03  0.52129421069E+03  0.00000000000E+00 0. -1.
<mgrwt>
<rscale>  4 0.27376610E+03</rscale>
<asrwt>0</asrwt>
<pdfrwt beam="1">  1       21 0.28814746E-01 0.27376610E+03</pdfrwt>
<pdfrwt beam="2">  1       21 0.21674491E+00 0.27376610E+03</pdfrwt>
<totfact> 0.11226635E+03</totfact>
</mgrwt>
</event>
<event>
 5    0  0.1972558E-002  0.3437350E+03  0.7546771E-02  0.1065216E+00
         21   -1    0    0  501  502  0.00000000000E+00  0.00000000000E+00  0.23203611745E+03  0.23203611745E+03  0.00000000000E+00 0. -1.
         21   -1    0    0  502  503 -0.00000000000E+00 -0.00000000000E+00 -0.14973839623E+04  0.14973839623E+04  0.00000000000E+00 0.  1.
         25    1    1    2    0    0 -0.36508151873E+03 -0.16490141593E+03 -0.99100511290E+03  0.10761938144E+04  0.12500000000E+03 0.  0.
          4    1    1    2  501    0  0.28173593438E+03  0.12933729895E+03  0.52177184470E+02  0.31436560276E+03  0.00000000000E+00 0. -1.
         -4    1    1    2    0  503  0.83345584351E+02  0.35564116979E+02 -0.32651991639E+03  0.33886066259E+03  0.00000000000E+00 0.  1.
<mgrwt>
<rscale>  4 0.34373502E+03</rscale>
<asrwt>0</asrwt>
<pdfrwt beam="1">  1       21 0.35697865E-01 0.34373502E+03</pdfrwt>
<pdfrwt beam="2">  1       21 0.23036676E+00 0.34373502E+03</pdfrwt>
<totfact> 0.57261303E+02</totfact>
</mgrwt>
</event>
<event>
 5    0  0.1972558E-002  0.3251618E+03  0.7546771E-02  0.1073298E+00
         21   -1    0    0  501  502  0.00000000000E+00  0.00000000000E+00  0.17250174032E+04  0.17250174032E+04  0.00000000000E+00 0.  1.
         21   -1    0    0  502  503 -0.00000000000E+00 -0.00000000000E+00 -0.24044772209E+03  0.24044772209E+03  0.00000000000E+00 0. -1.
         25    1    1    2    0    0  0.11352877819E+03 -0.26827959733E+03  0.66643566089E+02  0.32392760105E+03  0.12500000000E+03 0.  0.
          4    1    1    2  501    0 -0.22213642002E+02 -0.28832923934E+02  0.13129595099E+04  0.13134639158E+04  0.00000000000E+00 0.  1.
         -4    1    1    2    0  503 -0.91315136185E+02  0.29711252126E+03  0.10496660513E+03  0.32807360848E+03  0.00000000000E+00 0. -1.
<mgrwt>
<rscale>  4 0.32516183E+03</rscale>
<asrwt>0</asrwt>
<pdfrwt beam="1">  1       21 0.26538728E+00 0.32516183E+03</pdfrwt>
<pdfrwt beam="2">  1       21 0.36991958E-01 0.32516183E+03</pdfrwt>
<totfact> 0.33105824E+02</totfact>
</mgrwt>
</event>
<event>
 5    0  0.1972558E-002  0.2348342E+03  0.7546771E-02  0.1123283E+00
         21   -1    0    0  501  502  0.00000000000E+00  0.00000000000E+00  0.17708714173E+03  0.17708714173E+03  0.00000000000E+00 0.  1.
         21   -1    0    0  502  503 -0.00000000000E+00 -0.00000000000E+00 -0.11772901822E+04  0.11772901822E+04  0.00000000000E+00 0. -1.
         25    1    1    2    0    0 -0.48321445665E+02  0.20254125903E+03 -0.99872858087E+03  0.10278334991E+04  0.12500000000E+03 0.  0.
          3    1    1    2  501    0  0.11741557761E+01 -0.39335467473E+02  0.11435300749E+03  0.12093497412E+03  0.00000000000E+00 0.  1.
         -3    1    1    2    0  503  0.47147289888E+02 -0.16320579155E+03 -0.11582746711E+03  0.20560885068E+03  0.00000000000E+00 0. -1.
<mgrwt>
<rscale>  4 0.23483416E+03</rscale>
<asrwt>0</asrwt>
<pdfrwt beam="1">  1       21 0.27244175E-01 0.23483416E+03</pdfrwt>
<pdfrwt beam="2">  1       21 0.18112157E+00 0.23483416E+03</pdfrwt>
<totfact> 0.22091439E+03</totfact>
</mgrwt>
</event>
<event>
 5    0  0.1972558E-002  0.2255197E+03  0.7546771E-02  0.1129834E+00
         21   -1    0    0  501  502  0.00000000000E+00  0.00000000000E+00  0.17803852389E+04  0.17803852389E+04  0.00000000000E+00 0.  1.
         21   -1    0    0  502  503 -0.00000000000E+00 -0.00000000000E+00 -0.44912876491E+02  0.44912876491E+02  0.00000000000E+00 0. -1.
         25    1    1    2    0    0 -0.97387679613E+02  0.17931190961E+03  0.50198642275E+03  0.55610474705E+03  0.12500000000E+03 0.  0.
          2    1    1    2  501    0  0.61228982367E+02 -0.16388385463E+03  0.42295128246E+03  0.45770590276E+03  0.00000000000E+00 0.  1.
         -2    1    1    2    0  503  0.36158697245E+02 -0.15428054979E+02  0.81053465720E+03  0.81148746557E+03  0.00000000000E+00 0. -1.
<mgrwt>
<rscale>  4 0.22551971E+03</rscale>
<asrwt>0</asrwt>
<pdfrwt beam="1">  1       21 0.27390537E+00 0.22551971E+03</pdfrwt>
<pdfrwt beam="2">  1       21 0.69096747E-02 0.22551971E+03</pdfrwt>
<totfact> 0.72263993E+03</totfact>
</mgrwt>
</event>
<event>
 5    0  0.1972558E-002  0.3468166E+03  0.7546771E-02  0.1063929E+00
         21   -1    0    0  503  502  0.00000000000E+00  0.00000000000E+00  0.13828291998E+04  0.13828291998E+04  0.00000000000E+00 0.  1.
         21   -1    0    0  501  503 -0.00000000000E+00 -0.00000000000E+00 -0.89627194442E+02  0.89627194442E+02  0.00000000000E+00 0.  1.
         25    1    1    2    0    0  0.13180993755E+03  0.29462228846E+03  0.57854315832E+03  0.67417604417E+03  0.12500000000E+03 0.  0.
          1    1    1    2  501    0 -0.24776842042E+02  0.12137462143E+02  0.90673861167E+02  0.94778473230E+02  0.00000000000E+00 0. -1.
         -1    1    1    2    0  502 -0.10703309550E+03 -0.30675975060E+03  0.62398498583E+03  0.70350187680E+03  0.00000000000E+00 0.  1.
<mgrwt>
<rscale>  4 0.34681657E+03</rscale>
<asrwt>0</asrwt>
<pdfrwt beam="1">  1       21 0.21274294E+00 0.34681657E+03</pdfrwt>
<pdfrwt beam="2">  1       21 0.13788800E-01 0.34681657E+03</pdfrwt>
<totfact> 0.45682185E+03</totfact>
</mgrwt>
</event>
<event>
 5    0  0.1972558E-002  0.2994168E+03  0.7546771E-02  0.1085533E+00
         21   -1    0    0  501  502  0.00000000000E+00  0.00000000000E+00  0.27236907314E+03  0.27236907314E+03  0.00000000000E+00 0.  1.
         21   -1    0    0  502  503 -0.00000000000E+00 -0.00000000000E+00 -0.70625074471E+03  0.70625074471E+03  0.00000000000E+00 0.  1.
         25    1    1    2    0    0 -0.15317641561E+03  0.23048273988E+03 -0.10746956749E+03  0.32211801505E+03  0.12500000000E+03 0.  0.
          4    1    1    2  501    0  0.28211121514E+02  0.98225233614E+01  0.12584406058E+03  0.12934093291E+03  0.00000000000E+00 0. -1.
         -4    1    1    2    0  503  0.12496529410E+03 -0.24030526324E+03 -0.45225616466E+03  0.52716086989E+03  0.00000000000E+00 0.  1.
<mgrwt>
<rscale>  4 0.29941679E+03</rscale>
<asrwt>0</asrwt>
<pdfrwt beam="1">  1       21 0.41902935E-01 0.29941679E+03</pdfrwt>
<pdfrwt beam="2">  1       21 0.10865396E+00 0.29941679E+03</pdfrwt>
<totfact> 0.34279669E+03</totfact>
</mgrwt>
</event>
<event>
 5    0  0.1972558E-002  0.4764400E+03  0.7546771E-02  0.1020785E+00
         21   -1    0    0  501  502  0.00000000000E+00  0.00000000000E+00  0.74512227147E+03  0.74512227147E+03  0.00000000000E+00 0.  1.
         21   -1    0    0  502  503 -0.00000000000E+00 -0.00000000000E+00 -0.32084988957E+03  0.32084988957E+03  0.00000000000E+00 0.  1.
         25    1    1    2    0    0  0.20093949202E+03  0.40251008240E+03  0.69750808308E+02  0.47210297727E+03  0.12500000000E+03 0.  0.
          2    1    1    2  501    0 -0.78589314047E+02 -0.54535380525E+02  0.24074226725E+02  0.98640541381E+02  0.00000000000E+00 0. -1.
         -2    1    1    2    0  503 -0.12235017797E+03 -0.34797470187E+03  0.33044734687E+03  0.49522864239E+03  0.00000000000E+00 0.  1.
<mgrwt>
<rscale>  4 0.47404242E+03</rscale>
<asrwt>0</asrwt>
<pdfrwt beam="1">  1       21 0.11463420E+00 0.47643999E+03</pdfrwt>
<pdfrwt beam="2">  1       21 0.49361522E-01 0.47643999E+03</pdfrwt>
<totfact> 0.19716525E+03</totfact>
</mgrwt>
</event>
<event>
 5    0  0.1972558E-002  0.3015402E+03  0.7546771E-02  0.1084473E+00
         21   -1    0    0  501  502  0.00000000000E+00  0.00000000000E+00  0.56561299021E+03  0.56561299021E+03  0.00000000000E+00 0.  1.
         21   -1    0    0  502  503 -0.00000000000E+00 -0.00000000000E+00 -0.74991041365E+03  0.74991041365E+03  0.00000000000E+00 0. -1.
         25    1    1    2    0    0  0.54689342912E+01 -0.29214856525E+03 -0.64463662049E+03  0.71872252358E+03  0.12500000000E+03 0.  0.
          4    1    1    2  501    0 -0.11293428224E+03  0.12394085449E+03  0.28720821406E+03  0.33257186552E+03  0.00000000000E+00 0.  1.
         -4    1    1    2    0  503  0.10746534794E+03  0.16820771076E+03  0.17313098299E+03  0.26422901476E+03  0.00000000000E+00 0. -1.
<mgrwt>
<rscale>  4 0.30154022E+03</rscale>
<asrwt>0</asrwt>
<pdfrwt beam="1">  1       21 0.87017383E-01 0.30154022E+03</pdfrwt>
<pdfrwt beam="2">  1       21 0.11537083E+00 0.30154022E+03</pdfrwt>
<totfact> 0.60102331E+02</totfact>
</mgrwt>
</event>
<event>
 5    0  0.1972558E-002  0.2156136E+03  0.7546771E-02  0.1137196E+00
         21   -1    0    0  501  502  0.00000000000E+00  0.00000000000E+00  0.18425269296E+03  0.18425269296E+03  0.00000000000E+00 0.  1.
         21   -1    0    0  502  503 -0.00000000000E+00 -0.00000000000E+00 -0.48517580591E+03  0.48517580591E+03  0.00000000000E+00 0. -1.
         25    1    1    2    0    0  0.11395399481E+03 -0.17036431002E+03 -0.26067357438E+03  0.35438005509E+03  0.12500000000E+03 0.  0.
          2    1    1    2  501    0 -0.37029124323E+02  0.15246991450E+03 -0.12396027255E+03  0.19996094630E+03  0.00000000000E+00 0. -1.
         -2    1    1    2    0  503 -0.76924870488E+02  0.17894395526E+02  0.83710733988E+02  0.11508749748E+03  0.00000000000E+00 0.  1.
<mgrwt>
<rscale>  4 0.21561355E+03</rscale>
<asrwt>0</asrwt>
<pdfrwt beam="1">  1       21 0.28346569E-01 0.21561355E+03</pdfrwt>
<pdfrwt beam="2">  1       21 0.74642430E-01 0.21561355E+03</pdfrwt>
<totfact> 0.18856197E+04</totfact>
</mgrwt>
</event>
<event>
 5    0  0.1972558E-002  0.1895856E+03  0.7546771E-02  0.1158836E+00
         21   -1    0    0  501  502  0.00000000000E+00  0.00000000000E+00  0.56498649540E+03  0.56498649540E+03  0.00000000000E+00 0.  1.
         21   -1    0    0  502  503 -0.00000000000E+00 -0.00000000000E+00 -0.10624619021E+04  0.10624619021E+04  0.00000000000E+00 0.  1.
         25    1    1    2    0    0 -0.10742602432E+03  0.17021809112E+03 -0.58775137434E+03  0.63371225906E+03  0.12500000000E+03 0.  0.
          3    1    1    2  501    0  0.77888730567E+02 -0.93635373092E+02 -0.44030690859E+03  0.45684177917E+03  0.00000000000E+00 0. -1.
         -3    1    1    2    0  503  0.29537293754E+02 -0.76582718028E+02  0.53058287625E+03  0.53689435924E+03  0.00000000000E+00 0.  1.
<mgrwt>
<rscale>  4 0.18958561E+03</rscale>
<asrwt>0</asrwt>
<pdfrwt beam="1">  1       21 0.86921000E-01 0.18958561E+03</pdfrwt>
<pdfrwt beam="2">  1       21 0.16345568E+00 0.18958561E+03</pdfrwt>
<totfact> 0.27148545E+02</totfact>
</mgrwt>
</event>
<event>
 5    0  0.1972558E-002  0.3104020E+03  0.7546771E-02  0.1080153E+00
         21   -1    0    0  501  502  0.00000000000E+00  0.00000000000E+00  0.10025979931E+04  0.10025979931E+04  0.00000000000E+00 0. -1.
         21   -1    0    0  502  503 -0.00000000000E+00 -0.00000000000E+00 -0.38234584552E+03  0.38234584552E+03  0.00000000000E+00 0.  1.
         25    1    1    2    0    0 -0.28233426965E+03 -0.67705724941E+02  0.11824612722E+02  0.31632503296E+03  0.12500000000E+03 0.  0.
          3    1    1    2  501    0  0.13829164814E+01  0.43840568901E+02  0.75126206312E+03  0.75254142439E+03  0.00000000000E+00 0.  1.
         -3    1    1    2    0  503  0.28095135317E+03  0.23865156041E+02 -0.14283452822E+03  0.31607738131E+03  0.00000000000E+00 0. -1.
<mgrwt>
<rscale>  4 0.31040201E+03</rscale>
<asrwt>0</asrwt>
<pdfrwt beam="1">  1       21 0.15424584E+00 0.31040201E+03</pdfrwt>
<pdfrwt beam="2">  1       21 0.58822438E-01 0.31040201E+03</pdfrwt>
<totfact> 0.67795975E+02</totfact>
</mgrwt>
</event>
<event>
 5    0  0.1972558E-002  0.2557623E+03  0.7546771E-02  0.1109716E+00
         21   -1    0    0  501  502  0.00000000000E+00  0.00000000000E+00  0.58065153411E+02  0.58065153411E+02  0.00000000000E+00 0. -1.
         21   -1    0    0  502  503 -0.00000000000E+00 -0.00000000000E+00 -0.14902161099E+04  0.14902161099E+04  0.00000000000E+00 0. -1.
         25    1    1    2    0    0 -0.92574634419E+02 -0.20246318159E+03 -0.97183794173E+03  0.10048160965E+04  0.12500000000E+03 0.  0.
          1    1    1    2  501    0  0.40280435980E+02 -0.18113616044E+02 -0.20550499931E+02  0.48712828457E+02  0.00000000000E+00 0.  1.
         -1    1    1    2    0  503  0.52294198439E+02  0.22057679763E+03 -0.43976251486E+03  0.49475233837E+03  0.00000000000E+00 0. -1.
<mgrwt>
<rscale>  4 0.25576230E+03</rscale>
<asrwt>0</asrwt>
<pdfrwt beam="1">  1       21 0.89331014E-02 0.25576230E+03</pdfrwt>
<pdfrwt beam="2">  1       21 0.22926400E+00 0.25576230E+03</pdfrwt>
<totfact> 0.83043363E+03</totfact>
</mgrwt>
</event>
<event>
 5    0  0.1972558E-002  0.3152649E+03  0.7546771E-02  0.1078024E+00
         21   -1    0    0  501  502  0.00000000000E+00  0.00000000000E+00  0.15379022845E+04  0.15379022845E+04  0.00000000000E+00 0.  1.
         21   -1    0    0  502  503 -0.00000000000E+00 -0.00000000000E+00 -0.28429981081E+03  0.28429981081E+03  0.00000000000E+00 0. -1.
         25    1    1    2    0    0  0.28768700680E+03 -0.82227782456E+01 -0.17496424385E+03  0.35926162415E+03  0.12500000000E+03 0.  0.
          1    1    1    2  501    0 -0.22045039084E+03 -0.35621157523E+02  0.12021865849E+04  0.12227509258E+04  0.00000000000E+00 0.  1.
         -1    1    1    2    0  503 -0.67236615963E+02  0.43843935768E+02  0.22638013258E+03  0.24018954527E+03  0.00000000000E+00 0. -1.
<mgrwt>
<rscale>  4 0.31489243E+03</rscale>
<asrwt>0</asrwt>
<pdfrwt beam="1">  1       21 0.23660035E+00 0.31526490E+03</pdfrwt>
<pdfrwt beam="2">  1       21 0.43738433E-01 0.31526490E+03</pdfrwt>
<totfact> 0.35349175E+02</totfact>
</mgrwt>
</event>
<event>
 5    0  0.1972558E-002  0.2435657E+03  0.7546771E-02  0.1117440E+00
         21   -1    0    0  501  502  0.00000000000E+00  0.00000000000E+00  0.31730289825E+03  0.31730289825E+03  0.00000000000E+00 0.  1.
         21   -1    0    0  502  503 -0.00000000000E+00 -0.00000000000E+00 -0.67505427445E+03  0.67505427445E+03  0.00000000000E+00 0.  1.
         25    1    1    2    0    0 -0.62875303779E+02  0.19202093884E+03 -0.54523336167E+03  0.59475185032E+03  0.12500000000E+03 0.  0.
          2    1    1    2  501    0  0.45152520584E+02 -0.26612857970E+03  0.11841075949E+03  0.29476139335E+03  0.00000000000E+00 0.  1.
         -2    1    1    2    0  503  0.17722783195E+02  0.74107640863E+02  0.69071225989E+02  0.10284392903E+03  0.00000000000E+00 0. -1.
<mgrwt>
<rscale>  4 0.24356570E+03</rscale>
<asrwt>0</asrwt>
<pdfrwt beam="1">  1       21 0.48815830E-01 0.24356570E+03</pdfrwt>
<pdfrwt beam="2">  1       21 0.10385450E+00 0.24356570E+03</pdfrwt>
<totfact> 0.28861621E+03</totfact>
</mgrwt>
</event>
<event>
 5    0  0.1972558E-002  0.2677727E+03  0.7546771E-02  0.1102561E+00
         21   -1    0    0  501  502  0.00000000000E+00  0.00000000000E+00  0.24524085822E+03  0.24524085822E+03  0.00000000000E+00 0. -1.
         21   -1    0    0  502  503 -0.00000000000E+00 -0.00000000000E+00 -0.71068701391E+03  0.71068701391E+03  0.00000000000E+00 0.  1.
         25    1    1    2    0    0 -0.83460825131E+02  0.22460252624E+03 -0.49684474702E+03  0.56558969825E+03  0.12500000000E+03 0.  0.
          1    1    1    2  501    0 -0.38434206287E+02 -0.25419296682E+02  0.12919403244E+03  0.13716569132E+03  0.00000000000E+00 0.  1.
         -1    1    1    2    0  503  0.12189503142E+03 -0.19918322956E+03 -0.97795441115E+02  0.25317248256E+03  0.00000000000E+00 0. -1.
<mgrwt>
<rscale>  4 0.26777269E+03</rscale>
<asrwt>0</asrwt>
<pdfrwt beam="1">  1       21 0.37729363E-01 0.26777269E+03</pdfrwt>
<pdfrwt beam="2">  1       21 0.10933646E+00 0.26777269E+03</pdfrwt>
<totfact> 0.42570246E+03</totfact>
</mgrwt>
</event>
<event>
 5    0  0.1972558E-002  0.4405384E+03  0.7546771E-02  0.1030582E+00
         21   -1    0    0  501  502  0.00000000000E+00  0.00000000000E+00  0.99589827248E+03  0.99589827248E+03  0.00000000000E+00 0. -1.
         21   -1    0    0  502  503 -0.00000000000E+00 -0.00000000000E+00 -0.32356739149E+03  0.32356739149E+03  0.00000000000E+00 0. -1.
         25    1    1    2    0    0 -0.38412080041E+03 -0.17578488824E+03 -0.82526277111E+02  0.44820163170E+03  0.12500000000E+03 0.  0.
          1    1    1    2  501    0  0.35678056411E+03  0.17862426924E+03  0.73818361821E+03  0.83911504258E+03  0.00000000000E+00 0. -1.
         -1    1    1    2    0  503  0.27340236308E+02 -0.28393810006E+01  0.16673539884E+02  0.32148989691E+02  0.00000000000E+00 0.  1.
<mgrwt>
<rscale>  4 0.44053844E+03</rscale>
<asrwt>0</asrwt>
<pdfrwt beam="1">  1       21 0.15321512E+00 0.44053844E+03</pdfrwt>
<pdfrwt beam="2">  1       21 0.49779599E-01 0.44053844E+03</pdfrwt>
<totfact> 0.91970022E+02</totfact>
</mgrwt>
</event>
<event>
 5    0  0.1972558E-002  0.3818764E+03  0.7546771E-02  0.1050242E+00
         21   -1    0    0  501  502  0.00000000000E+00  0.00000000000E+00  0.47551353845E+03  0.47551353845E+03  0.00000000000E+00 0.  1.
         21   -1    0    0  502  503 -0.00000000000E+00 -0.00000000000E+00 -0.27583599883E+04  0.27583599883E+04  0.00000000000E+00 0.  1.
         25    1    1    2    0    0 -0.23872002638E+03 -0.27707072078E+03 -0.24875584935E+04  0.25174049523E+04  0.12500000000E+03 0.  0.
          3    1    1    2  501    0  0.22950158458E+03 -0.18455895130E+02 -0.13436890880E+03  0.26658319723E+03  0.00000000000E+00 0. -1.
         -3    1    1    2    0  503  0.92184417974E+01  0.29552661591E+03  0.33908095241E+03  0.44988537726E+03  0.00000000000E+00 0.  1.
<mgrwt>
<rscale>  4 0.38187644E+03</rscale>
<asrwt>0</asrwt>
<pdfrwt beam="1">  1       21 0.73155929E-01 0.38187644E+03</pdfrwt>
<pdfrwt beam="2">  1       21 0.42436307E+00 0.38187644E+03</pdfrwt>
<totfact> 0.77995260E+00</totfact>
</mgrwt>
</event>
<event>
 5    0  0.1972558E-002  0.2469787E+03  0.7546771E-02  0.1115229E+00
         21   -1    0    0  501  502  0.00000000000E+00  0.00000000000E+00  0.25636197701E+03  0.25636197701E+03  0.00000000000E+00 0.  1.
         21   -1    0    0  502  503 -0.00000000000E+00 -0.00000000000E+00 -0.12285266599E+04  0.12285266599E+04  0.00000000000E+00 0. -1.
         25    1    1    2    0    0  0.10813512993E+03  0.20033119315E+03 -0.11427183075E+04  0.11718600273E+04  0.12500000000E+03 0.  0.
          4    1    1    2  501    0 -0.11234494748E+02 -0.13128114873E+03  0.43015127159E+02  0.13860467182E+03  0.00000000000E+00 0. -1.
         -4    1    1    2    0  503 -0.96900635186E+02 -0.69050044417E+02  0.12753849747E+03  0.17442393778E+03  0.00000000000E+00 0.  1.
<mgrwt>
<rscale>  4 0.24697873E+03</rscale>
<asrwt>0</asrwt>
<pdfrwt beam="1">  1       21 0.39440305E-01 0.24697873E+03</pdfrwt>
<pdfrwt beam="2">  1       21 0.18900410E+00 0.24697873E+03</pdfrwt>
<totfact> 0.92950665E+02</totfact>
</mgrwt>
</event>
<event>
 5    0  0.1972558E-002  0.4104389E+03  0.7546771E-02  0.1040224E+00
         21   -1    0    0  501  502  0.00000000000E+00  0.00000000000E+00  0.30440927148E+04  0.30440927148E+04  0.00000000000E+00 0.  1.
         21   -1    0    0  502  503 -0.00000000000E+00 -0.00000000000E+00 -0.11667200011E+04  0.11667200011E+04  0.00000000000E+00 0. -1.
         25    1    1    2    0    0 -0.34715938288E+03  0.17988705611E+03 -0.11124814020E+04  0.11857988278E+04  0.12500000000E+03 0.  0.
          1    1    1    2  501    0  0.31363708503E+03 -0.23536870894E+03  0.26716651122E+04  0.27002890812E+04  0.00000000000E+00 0.  1.
         -1    1    1    2    0  503  0.33522297848E+02  0.55481652831E+02  0.31818900354E+03  0.32472480692E+03  0.00000000000E+00 0. -1.
<mgrwt>
<rscale>  4 0.41043894E+03</rscale>
<asrwt>0</asrwt>
<pdfrwt beam="1">  1       21 0.46832195E+00 0.41043894E+03</pdfrwt>
<pdfrwt beam="2">  1       21 0.17949539E+00 0.41043894E+03</pdfrwt>
<totfact> 0.39654570E-01</totfact>
</mgrwt>
</event>
<event>
 5    0  0.1972558E-002  0.2737699E+03  0.7546771E-02  0.1099141E+00
         21   -1    0    0  503  502  0.00000000000E+00  0.00000000000E+00  0.41371225822E+02  0.41371225822E+02  0.00000000000E+00 0.  1.
         21   -1    0    0  501  503 -0.00000000000E+00 -0.00000000000E+00 -0.19012154745E+04  0.19012154745E+04  0.00000000000E+00 0.  1.
         25    1    1    2    0    0  0.18400451777E+03  0.15958478952E+03 -0.12720966249E+04  0.13012224217E+04  0.12500000000E+03 0.  0.
          1    1    1    2  501    0 -0.75245485802E+01 -0.43699716370E+02 -0.79917993850E+02  0.91395677049E+02  0.00000000000E+00 0. -1.
         -1    1    1    2    0  502 -0.17647996919E+03 -0.11588507315E+03 -0.50782962994E+03  0.54996860160E+03  0.00000000000E+00 0.  1.
<mgrwt>
<rscale>  4 0.27376992E+03</rscale>
<asrwt>0</asrwt>
<pdfrwt beam="1">  1       21 0.63648060E-02 0.27376992E+03</pdfrwt>
<pdfrwt beam="2">  1       21 0.29249459E+00 0.27376992E+03</pdfrwt>
<totfact> 0.62272207E+03</totfact>
</mgrwt>
</event>
<event>
 5    0  0.1972558E-002  0.1786968E+03  0.7546771E-02  0.1169070E+00
         21   -1    0    0  503  502  0.00000000000E+00  0.00000000000E+00  0.88820650034E+02  0.88820650034E+02  0.00000000000E+00 0. -1.
         21   -1    0    0  501  503 -0.00000000000E+00 -0.00000000000E+00 -0.10138122868E+04  0.10138122868E+04  0.00000000000E+00 0. -1.
         25    1    1    2    0    0  0.56849850290E+02  0.20220993730E+03 -0.40696566368E+03  0.47472814919E+03  0.12500000000E+03 0.  0.
          4    1    1    2  501    0 -0.35208471275E+02 -0.10732006616E+03 -0.51841615954E+03  0.53057756033E+03  0.00000000000E+00 0.  1.
         -4    1    1    2    0  502 -0.21641379015E+02 -0.94889871135E+02  0.39018646283E+00  0.97327227306E+02  0.00000000000E+00 0. -1.
<mgrwt>
<rscale>  4 0.17869681E+03</rscale>
<asrwt>0</asrwt>
<pdfrwt beam="1">  1       21 0.13664716E-01 0.17869681E+03</pdfrwt>
<pdfrwt beam="2">  1       21 0.15597112E+00 0.17869681E+03</pdfrwt>
<totfact> 0.12653792E+04</totfact>
</mgrwt>
</event>
<event>
 5    0  0.1972558E-002  0.3170568E+03  0.7546771E-02  0.1077012E+00
         21   -1    0    0  501  502  0.00000000000E+00  0.00000000000E+00  0.20926378912E+03  0.20926378912E+03  0.00000000000E+00 0. -1.
         21   -1    0    0  502  503 -0.00000000000E+00 -0.00000000000E+00 -0.16538984022E+04  0.16538984022E+04  0.00000000000E+00 0.  1.
         25    1    1    2    0    0 -0.23143131246E+03  0.19329039193E+03 -0.11921136245E+04  0.12359941430E+04  0.12500000000E+03 0.  0.
          2    1    1    2  501    0  0.20706508893E+03  0.13274916213E+03 -0.88661642689E+02  0.26145588152E+03  0.00000000000E+00 0.  1.
         -2    1    1    2    0  503  0.24366223534E+02 -0.32603955406E+03 -0.16385934592E+03  0.36571216675E+03  0.00000000000E+00 0. -1.
<mgrwt>
<rscale>  4 0.31705683E+03</rscale>
<asrwt>0</asrwt>
<pdfrwt beam="1">  1       21 0.32194428E-01 0.31705683E+03</pdfrwt>
<pdfrwt beam="2">  1       21 0.25444592E+00 0.31705683E+03</pdfrwt>
<totfact> 0.51200560E+02</totfact>
</mgrwt>
</event>
<event>
 5    0  0.1972558E-002  0.2291223E+03  0.7546771E-02  0.1127259E+00
         21   -1    0    0  501  502  0.00000000000E+00  0.00000000000E+00  0.88630643843E+02  0.88630643843E+02  0.00000000000E+00 0.  1.
         21   -1    0    0  502  503 -0.00000000000E+00 -0.00000000000E+00 -0.91895612351E+03  0.91895612351E+03  0.00000000000E+00 0.  1.
         25    1    1    2    0    0 -0.21316216344E+03  0.49294331759E+02 -0.32295664890E+03  0.40962670339E+03  0.12500000000E+03 0.  0.
          3    1    1    2  501    0  0.33017269524E+02 -0.19443908548E+02  0.17581248059E+02  0.42158106572E+02  0.00000000000E+00 0. -1.
         -3    1    1    2    0  503  0.18014489392E+03 -0.29850423211E+02 -0.52495007883E+03  0.55580195738E+03  0.00000000000E+00 0.  1.
<mgrwt>
<rscale>  4 0.22912232E+03</rscale>
<asrwt>0</asrwt>
<pdfrwt beam="1">  1       21 0.13635484E-01 0.22912232E+03</pdfrwt>
<pdfrwt beam="2">  1       21 0.14137787E+00 0.22912232E+03</pdfrwt>
<totfact> 0.15886281E+04</totfact>
</mgrwt>
</event>
<event>
 5    0  0.1972558E-002  0.2737561E+03  0.7546771E-02  0.1099149E+00
         21   -1    0    0  503  502  0.00000000000E+00  0.00000000000E+00  0.30354119778E+03  0.30354119778E+03  0.00000000000E+00 0. -1.
         21   -1    0    0  501  503 -0.00000000000E+00 -0.00000000000E+00 -0.14858716602E+04  0.14858716602E+04  0.00000000000E+00 0.  1.
         25    1    1    2    0    0 -0.19974726014E+03  0.13954996262E+03 -0.14052308370E+04  0.14316675121E+04  0.12500000000E+03 0.  0.
          2    1    1    2  501    0  0.22530356614E+02  0.27972072820E+02  0.26733596338E+02  0.44774311834E+02  0.00000000000E+00 0.  1.
         -2    1    1    2    0  502  0.17721690353E+03 -0.16752203544E+03  0.19616677824E+03  0.31297103403E+03  0.00000000000E+00 0. -1.
<mgrwt>
<rscale>  4 0.27375606E+03</rscale>
<asrwt>0</asrwt>
<pdfrwt beam="1">  1       21 0.46698646E-01 0.27375606E+03</pdfrwt>
<pdfrwt beam="2">  1       21 0.22859564E+00 0.27375606E+03</pdfrwt>
<totfact> 0.35800265E+02</totfact>
</mgrwt>
</event>
<event>
 5    0  0.1972558E-002  0.2721139E+03  0.7546771E-02  0.1100076E+00
         21   -1    0    0  503  502  0.00000000000E+00  0.00000000000E+00  0.41652529652E+03  0.41652529652E+03  0.00000000000E+00 0.  1.
         21   -1    0    0  501  503 -0.00000000000E+00 -0.00000000000E+00 -0.18153164258E+03  0.18153164258E+03  0.00000000000E+00 0.  1.
         25    1    1    2    0    0  0.20534338256E+03 -0.11248024430E+03  0.83145931300E+02  0.27812938718E+03  0.12500000000E+03 0.  0.
          4    1    1    2  501    0  0.15410809928E+01 -0.29422915485E+02  0.25826653621E+02  0.39180338482E+02  0.00000000000E+00 0. -1.
         -4    1    1    2    0  502 -0.20688446355E+03  0.14190315978E+03  0.12602106903E+03  0.28074721344E+03  0.00000000000E+00 0.  1.
<mgrwt>
<rscale>  4 0.27211387E+03</rscale>
<asrwt>0</asrwt>
<pdfrwt beam="1">  1       21 0.64080815E-01 0.27211387E+03</pdfrwt>
<pdfrwt beam="2">  1       21 0.27927945E-01 0.27211387E+03</pdfrwt>
<totfact> 0.26466500E+04</totfact>
</mgrwt>
</event>
<event>
 5    0  0.1972558E-002  0.3479098E+03  0.7546771E-02  0.1063476E+00
         21   -1    0    0  501  502  0.00000000000E+00  0.00000000000E+00  0.16562387442E+04  0.16562387442E+04  0.00000000000E+00 0.  1.
         21   -1    0    0  502  503 -0.00000000000E+00 -0.00000000000E+00 -0.18353486108E+03  0.18353486108E+03  0.00000000000E+00 0.  1.
         25    1    1    2    0    0  0.25410203795E+03 -0.18884206929E+03  0.11135128823E+03  0.35812467412E+03  0.12500000000E+03 0.  0.
          3    1    1    2  501    0  0.41812919204E+02  0.15352174820E+02  0.92752111127E+03  0.92859001790E+03  0.00000000000E+00 0.  1.
         -3    1    1    2    0  503 -0.29591495715E+03  0.17348989447E+03  0.43383148359E+03  0.55305891323E+03  0.00000000000E+00 0. -1.
<mgrwt>
<rscale>  4 0.34790979E+03</rscale>
<asrwt>0</asrwt>
<pdfrwt beam="1">  1       21 0.25480595E+00 0.34790979E+03</pdfrwt>
<pdfrwt beam="2">  1       21 0.28236134E-01 0.34790979E+03</pdfrwt>
<totfact> 0.64517960E+02</totfact>
</mgrwt>
</event>
<event>
 5    0  0.1972558E-002  0.2557298E+03  0.7546771E-02  0.1109736E+00
         21   -1    0    0  501  502  0.00000000000E+00  0.00000000000E+00  0.39664258175E+03  0.39664258175E+03  0.00000000000E+00 0. -1.
         21   -1    0    0  502  503 -0.00000000000E+00 -0.00000000000E+00 -0.38847032362E+03  0.38847032362E+03  0.00000000000E+00 0. -1.
         25    1    1    2    0    0  0.24221355802E+02 -0.23319807122E+03 -0.19352227185E+03  0.32870029540E+03  0.12500000000E+03 0.  0.
          3    1    1    2  501    0  0.29224018822E+02  0.20957480793E+03 -0.33349103691E+02  0.21421439287E+03  0.00000000000E+00 0.  1.
         -3    1    1    2    0  503 -0.53445374624E+02  0.23623263286E+02  0.23504363367E+03  0.24219821710E+03  0.00000000000E+00 0. -1.
<mgrwt>
<rscale>  4 0.25572985E+03</rscale>
<asrwt>0</asrwt>
<pdfrwt beam="1">  1       21 0.61021936E-01 0.25572985E+03</pdfrwt>
<pdfrwt beam="2">  1       21 0.59764665E-01 0.25572985E+03</pdfrwt>
<totfact> 0.62605639E+03</totfact>
</mgrwt>
</event>
