<LesHouchesEvents version="3.0">
  <!--
  <scalesfunctionalform>
    muR  H_T/2 := sum_i mT(i)/2, i=final state
    muF1 H_T/2 := sum_i mT(i)/2, i=final state
    muF2 H_T/2 := sum_i mT(i)/2, i=final state
    QES  H_T/2 := sum_i mT(i)/2, i=final state
  </scalesfunctionalform>
HERWIG6   
  -->
  <header>
      126
  </header>
  <init>
   2212   2212 0.65000000D+04 0.65000000D+04 -1 -1   244800   244800 -4   1
 0.11430053D-03 0.48873865D-05 0.18540751D-05     66
  </init>
  <event>
  6     66 -.18540751E-05 0.32016674E+03 0.75467711E-02 0.91496245E-01
        1 -1    0    0  502    0 0.00000000E+00 0.00000000E+00 0.14709752E+04 0.14709752E+04 0.32000000E+00 0.0000E+00 0.9000E+01
        1 -1    0    0  501    0 0.00000000E+00 0.00000000E+00 -.53983567E+03 0.53983576E+03 0.32000000E+00 0.0000E+00 0.9000E+01
       25  1    1    2    0    0 -.47494648E+03 -.44834618E+03 0.83869808E+03 0.10703401E+04 0.12500000E+03 0.0000E+00 0.9000E+01
        1  1    1    2  501    0 0.27747855E+03 0.18030868E+03 -.28367988E+03 0.43586689E+03 0.32000000E+00 0.0000E+00 0.9000E+01
        1  1    1    2  503    0 0.17613736E+03 0.21445012E+03 0.32660663E+03 0.42858513E+03 0.32000000E+00 0.0000E+00 0.9000E+01
       21  1    1    2  502  503 0.21330565E+02 0.53587382E+02 0.49514699E+02 0.76018869E+02 0.75000000E+00 0.0000E+00 0.9000E+01
#aMCatNLO 2  0  0  5  1 0.17552664D+02 0.00000000D+00  -5  6  0 0.00000000D+00 0.00000000D+00 0.00000000D+00 0.00000000D+00 0.00000000D+00
  <mgrwgt>
 -.8328406219D-05    6    2    0
 0.891114471972483D+03 0.000000000000000D+00 0.000000000000000D+00 0.891114471972483D+03
 0.891114471972483D+03 -.000000000000000D+00 -.000000000000000D+00 -.891114471972483D+03
 0.770260914624632D+03 -.475540023664836D+03 -.449034115500010D+03 0.387178157452543D+03
 0.640415943033169D+03 0.277077570242104D+03 0.179646669117853D+03 -.548714565539003D+03
 0.371552086287165D+03 0.198462453422733D+03 0.269387446382157D+03 0.161536408086460D+03
 0.000000000000000D+00 0.000000000000000D+00 0.000000000000000D+00 0.000000000000000D+00
 0.891114471972483D+03 0.000000000000000D+00 0.000000000000000D+00 0.891114471972483D+03
 0.891114471972483D+03 -.000000000000000D+00 -.000000000000000D+00 -.891114471972483D+03
 0.769540682913451D+03 -.474818613098537D+03 -.448054892745797D+03 0.387765341928124D+03
 0.640486553190697D+03 0.277677684306573D+03 0.180461247354579D+03 -.548226109064014D+03
 0.312315111711589D+03 0.175819378866404D+03 0.214009416973226D+03 0.144319937864572D+03
 0.598865961292303D+02 0.213215499255607D+02 0.535842284179920D+02 0.161408292713179D+02
-.739217303477D-08 0.000000000000D+00 0.000000000000D+00 0.823125945425D-08 0.000000000000D+00  6 1 1 25 1 1 21 2 0.22630389D+00 0.83051651D-01 0.44256461D+06 0.44256461D+06 0.44256461D+06 0.10722760D+01  1  2 13  3  6  5        1 -.293708858787D-07 0.100000000000D+01
-.760835280165D-05 0.000000000000D+00 0.000000000000D+00 0.823125945425D-08 0.000000000000D+00  6 1 1 25 1 1 21 2 0.22630389D+00 0.83051651D-01 0.44256461D+06 0.44256461D+06 0.44256461D+06 0.10722760D+01  1  2 13  3  6  5        1 -.302298202180D-04 0.100000000000D+01
-.155113951537D-05 0.000000000000D+00 0.000000000000D+00 0.823125945425D-08 0.000000000000D+00  6 1 1 25 1 1 21 2 0.22630389D+00 0.83051651D-01 0.44268945D+06 0.44268945D+06 0.44268945D+06 0.10722672D+01  1  2  8  3  6  5        1 -.616285887119D-05 0.100000000000D+01
-.493331101528D-06 0.000000000000D+00 0.000000000000D+00 0.823125945425D-08 0.000000000000D+00  6 1 1 25 1 1 21 2 0.22630389D+00 0.83051651D-01 0.44268945D+06 0.44268945D+06 0.44268945D+06 0.10722672D+01  1  2  9  3  6  5        1 -.196006221578D-05 0.100000000000D+01
0.579156351952D-06 0.000000000000D+00 0.000000000000D+00 0.823125945425D-08 0.000000000000D+00  6 1 1 25 1 1 21 2 0.22630389D+00 0.83051651D-01 0.44268945D+06 0.44268945D+06 0.44268945D+06 0.10722672D+01  1  2 10  3  6  5        1 0.230105598244D-05 0.100000000000D+01
0.698488944936D-05 0.000000000000D+00 0.000000000000D+00 0.823125945425D-08 0.872468721798D-10  6 1 1 25 1 1 21 2 0.22630389D+00 0.83051651D-01 0.44256461D+06 0.44256461D+06 0.44256461D+06 0.10722760D+01  1  2  1  3  6  5        1 0.277526499890D-04 0.100000000000D+01
  </mgrwgt>
  </event>
  <event>
  5     66 -.18540751E-05 0.14993853E+03 0.75467711E-02 0.95017654E-01
        1 -1    0    0  502    0 0.00000000E+00 0.00000000E+00 0.33758138E+04 0.33758138E+04 0.32000000E+00 0.0000E+00 0.9000E+01
        1 -1    0    0  501    0 0.00000000E+00 0.00000000E+00 -.13270036E+04 0.13270037E+04 0.32000000E+00 0.0000E+00 0.9000E+01
       25  1    1    2    0    0 -.26454190E+03 0.37422678E+03 0.67548930E+03 0.82579591E+03 0.12500000E+03 0.0000E+00 0.9000E+01
        1  1    1    2  501    0 0.11685698E+03 -.93930300E+02 -.12377511E+04 0.12467984E+04 0.32000000E+00 0.0000E+00 0.9000E+01
        1  1    1    2  502    0 0.14768492E+03 -.28029648E+03 0.26110720E+04 0.26302231E+04 0.32000000E+00 0.0000E+00 0.9000E+01
#aMCatNLO 1  0  0  2  4 0.49169178D+02 0.00000000D+00  -5  6  0 0.00000000D+00 0.00000000D+00 0.00000000D+00 0.00000000D+00 0.00000000D+00
  <mgrwgt>
 -.1444782246D-01   11    2    0
 0.211653426084472D+04 0.000000000000000D+00 0.000000000000000D+00 0.211653426084472D+04
 0.211653426084472D+04 0.000000000000000D+00 0.000000000000000D+00 -.211653426084472D+04
 0.590542340559530D+03 -.264544434049992D+03 0.374222916267028D+03 0.350840002490164D+03
 0.198424742212947D+04 0.116865003084850D+03 -.939368541342050D+02 -.197857430255141D+04
 0.165827875900043D+04 0.147679430965142D+03 -.280286062132823D+03 0.162773430006125D+04
 0.000000000000000D+00 0.000000000000000D+00 -.000000000000000D+00 -.000000000000000D+00
 0.211701555471083D+04 0.000000000000000D+00 0.000000000000000D+00 0.211701555471083D+04
 0.390211442211559D+04 0.000000000000000D+00 0.000000000000000D+00 -.390211442211559D+04
 0.594112569227772D+03 -.271382991278708D+03 0.374976412073810D+03 0.350840002490164D+03
 0.198291249519916D+04 0.939641144750277D+02 -.914135552917795D+02 -.197857430255141D+04
 0.165632900975343D+04 0.128545474966565D+03 -.278177816909468D+03 0.162773430006125D+04
 0.178577590264606D+04 0.488734018371152D+02 -.538503987256156D+01 -.178509886740476D+04
0.744705349346D-03 0.000000000000D+00 0.000000000000D+00 0.280943717348D-03 0.000000000000D+00  6 1 1 25 1 1 21 0 0.51935597D+00 0.20415441D+00 0.22173641D+06 0.22173641D+06 0.22173641D+06 0.10944006D+01  1  2  2  2  6  2        1 0.275649497097D-04 0.100000000000D+01
0.139757142357D-03 0.000000000000D+00 -.285986462691D-05 0.280943717348D-03 0.000000000000D+00  6 1 1 25 1 1 21 2 0.51935597D+00 0.20415441D+00 0.22173641D+06 0.22173641D+06 0.22173641D+06 0.10944006D+01  1  2  3  2  6  2        1 0.619582827539D-05 0.100000000000D+01
-.491892316293D-03 0.000000000000D+00 0.000000000000D+00 0.280943717348D-03 0.000000000000D+00  6 1 1 25 1 1 21 2 0.51935597D+00 0.20415441D+00 0.22173641D+06 0.22173641D+06 0.22173641D+06 0.10944006D+01  1  2 15  2  6  2        1 -.218069736569D-04 0.100000000000D+01
0.194168216058D-09 0.000000000000D+00 0.000000000000D+00 0.280943717348D-03 0.000000000000D+00  6 1 1 25 1 1 21 2 0.51935597D+00 0.37639938D+00 0.23336857D+06 0.23336857D+06 0.23336857D+06 0.10927154D+01  1  2 12  2  6  2        1 0.151692179747D-11 0.100000000000D+01
0.495015004166D+00 0.000000000000D+00 0.000000000000D+00 0.280943717348D-03 0.000000000000D+00  6 1 1 25 1 1 21 2 0.51935597D+00 0.39761897D+00 0.23336857D+06 0.23336857D+06 0.23336857D+06 0.10927154D+01  1  2 12  2  6  2        1 0.310393159775D-02 0.100000000000D+01
-.769744108574D+00 0.000000000000D+00 0.000000000000D+00 0.280943717348D-03 0.000000000000D+00  6 1 1 25 1 1 21 2 0.51935597D+00 0.20415441D+00 0.22173641D+06 0.22173641D+06 0.22173641D+06 0.10944006D+01  1  2  4  2  6  2        1 -.341249272294D-01 0.100000000000D+01
-.566669440284D+00 0.000000000000D+00 -.396738457983D-03 0.280943717348D-03 0.000000000000D+00  6 1 1 25 1 1 21 2 0.51935597D+00 0.37640478D+00 0.22173641D+06 0.22173641D+06 0.22173641D+06 0.10944006D+01  1  2  5  2  6  2        1 -.447183830792D-02 0.100000000000D+01
0.475231511257D+00 0.000000000000D+00 0.332540526991D-03 0.280943717348D-03 0.000000000000D+00  6 1 1 25 1 1 21 2 0.51935597D+00 0.20415441D+00 0.22173641D+06 0.22173641D+06 0.22173641D+06 0.10944006D+01  1  2  6  2  6  2        1 0.210683531814D-01 0.100000000000D+01
0.129655500747D-10 0.000000000000D+00 0.000000000000D+00 0.280943717348D-03 0.000000000000D+00  6 1 21 25 1 1 -1 2 0.51935597D+00 0.37639938D+00 0.23336857D+06 0.23336857D+06 0.23336857D+06 0.10927154D+01  1  2 12  5  6  2        1 0.363187038477D-13 0.100000000000D+01
0.357643411905D-01 0.000000000000D+00 0.000000000000D+00 0.280943717348D-03 0.000000000000D+00  6 1 21 25 1 1 -1 2 0.51935597D+00 0.39761897D+00 0.23336857D+06 0.23336857D+06 0.23336857D+06 0.10927154D+01  1  2 12  5  6  2        1 0.719849369221D-04 0.100000000000D+01
-.378182201502D-01 0.000000000000D+00 -.264926979105D-04 0.280943717348D-03 0.000000000000D+00  6 1 21 25 1 1 -1 2 0.51935597D+00 0.37640478D+00 0.22173641D+06 0.22173641D+06 0.22173641D+06 0.10944006D+01  1  2  5  5  6  2        1 -.107280440196D-03 0.100000000000D+01
  </mgrwgt>
  </event>
  <event>
  5     66 -.18540751E-05 0.15627330E+03 0.75467711E-02 0.94688037E-01
        1 -1    0    0  502    0 0.00000000E+00 0.00000000E+00 0.42729446E+03 0.42729458E+03 0.32000000E+00 0.0000E+00 0.9000E+01
        1 -1    0    0  501    0 -.00000000E+00 -.00000000E+00 -.11290778E+04 0.11290778E+04 0.32000000E+00 0.0000E+00 0.9000E+01
       25  1    1    2    0    0 0.21773401E+03 -.43559920E+03 -.45554818E+03 0.67845700E+03 0.12500000E+03 0.0000E+00 0.9000E+01
        1  1    1    2  501    0 -.13588745E+03 0.30243427E+03 -.48802594E+03 0.59000111E+03 0.32000000E+00 0.0000E+00 0.9000E+01
        1  1    1    2  502    0 -.81846563E+02 0.13316493E+03 0.24179079E+03 0.28791430E+03 0.32000000E+00 0.0000E+00 0.9000E+01
#aMCatNLO 1  0  0  5  1 0.24846631D+02 0.00000000D+00  -5  6  0 0.00000000D+00 0.00000000D+00 0.00000000D+00 0.00000000D+00 0.00000000D+00
  <mgrwgt>
 -.1196835910D-02    8    2    0
 0.694585351664260D+03 0.000000000000000D+00 0.000000000000000D+00 0.694585351664260D+03
 0.694585351664260D+03 -.000000000000000D+00 -.000000000000000D+00 -.694585351664260D+03
 0.529994867314306D+03 0.217753934883459D+03 -.435647773981183D+03 -.167522536536192D+03
 0.414554609401373D+03 -.135924817493577D+03 0.302511232547614D+03 -.248730622054836D+03
 0.444621226612841D+03 -.818291173898824D+02 0.133136541433569D+03 0.416253158591028D+03
 0.000000000000000D+00 0.000000000000000D+00 0.000000000000000D+00 0.000000000000000D+00
 0.694585351664260D+03 0.000000000000000D+00 0.000000000000000D+00 0.694585351664260D+03
 0.694585351664260D+03 -.000000000000000D+00 -.000000000000000D+00 -.694585351664260D+03
 0.529279439860139D+03 0.217540528966117D+03 -.435300561073813D+03 -.166436970786625D+03
 0.414298878774122D+03 -.136091801850498D+03 0.302782917254270D+03 -.247881196224266D+03
 0.287230311921778D+03 -.477975526921284D+02 0.109153843441737D+03 0.261346674945793D+03
 0.158362072772481D+03 -.336511744234905D+02 0.233638003778060D+02 0.152971492065098D+03
0.843549968860D-05 0.000000000000D+00 0.000000000000D+00 0.171797644975D-06 0.000000000000D+00  6 1 1 25 1 1 21 0 0.65737622D-01 0.17370429D+00 0.24539212D+06 0.24539212D+06 0.24539212D+06 0.10910674D+01  1  2  2  3  6  5        1 0.719554338200D-04 0.100000000000D+01
0.840237746146D-06 0.000000000000D+00 -.323945399223D-07 0.171797644975D-06 0.000000000000D+00  6 1 1 25 1 1 21 2 0.65737622D-01 0.17370429D+00 0.24539212D+06 0.24539212D+06 0.24539212D+06 0.10910674D+01  1  2  3  3  6  5        1 0.853214366186D-05 0.100000000000D+01
-.537315662993D-05 0.000000000000D+00 0.000000000000D+00 0.171797644975D-06 0.000000000000D+00  6 1 1 25 1 1 21 2 0.65737622D-01 0.17370429D+00 0.24539212D+06 0.24539212D+06 0.24539212D+06 0.10910674D+01  1  2 15  3  6  5        1 -.545613958603D-04 0.100000000000D+01
0.156412533521D-07 0.000000000000D+00 0.000000000000D+00 0.171797644975D-06 0.000000000000D+00  6 1 1 25 1 1 21 2 0.65737622D-01 0.17370429D+00 0.24726654D+06 0.24726654D+06 0.24726654D+06 0.10908185D+01  1  2 12  3  6  5        1 0.158704976311D-06 0.100000000000D+01
0.145421160766D-03 0.000000000000D+00 0.000000000000D+00 0.171797644975D-06 0.000000000000D+00  6 1 1 25 1 1 21 2 0.65737622D-01 0.17370429D+00 0.24726654D+06 0.24726654D+06 0.24726654D+06 0.10908185D+01  1  2 12  3  6  5        1 0.147552509731D-02 0.100000000000D+01
-.332078618555D-03 0.000000000000D+00 0.000000000000D+00 0.171797644975D-06 0.000000000000D+00  6 1 1 25 1 1 21 2 0.65737622D-01 0.17370429D+00 0.24539212D+06 0.24539212D+06 0.24539212D+06 0.10910674D+01  1  2  4  3  6  5        1 -.337207236112D-02 0.100000000000D+01
-.160270312359D-03 0.000000000000D+00 0.000000000000D+00 0.171797644975D-06 0.000000000000D+00  6 1 1 25 1 1 21 2 0.65737622D-01 0.17370429D+00 0.24539212D+06 0.24539212D+06 0.24539212D+06 0.10910674D+01  1  2  5  3  6  5        1 -.162745524829D-02 0.100000000000D+01
0.226608434025D-03 0.000000000000D+00 -.000000000000D+00 0.171797644975D-06 0.000000000000D+00  6 1 1 25 1 1 21 2 0.65737622D-01 0.17370429D+00 0.24539212D+06 0.24539212D+06 0.24539212D+06 0.10910674D+01  1  2  6  3  6  5        1 0.230108171522D-02 0.100000000000D+01
  </mgrwgt>
  </event>
  <event>
  5     66 0.18540751E-05 0.25322354E+03 0.75467711E-02 0.90559500E-01
        1 -1    0    0  502    0 0.00000000E+00 0.00000000E+00 0.91070838E+03 0.91070844E+03 0.32000000E+00 0.0000E+00 0.9000E+01
        1 -1    0    0  501    0 0.00000000E+00 0.00000000E+00 -.26072429E+04 0.26072429E+04 0.32000000E+00 0.0000E+00 0.9000E+01
       25  1    1    2    0    0 -.66203280E+03 -.17827763E+03 -.88360280E+03 0.11253663E+04 0.12500000E+03 0.0000E+00 0.9000E+01
        1  1    1    2  501    0 0.41107890E+03 0.21216435E+03 -.15477251E+04 0.16153801E+04 0.32000000E+00 0.0000E+00 0.9000E+01
        1  1    1    2  502    0 0.25095390E+03 -.33886718E+02 0.73479342E+03 0.77720502E+03 0.32000000E+00 0.0000E+00 0.9000E+01
#aMCatNLO 1  0  0  2  5 0.70087673D+02 0.00000000D+00  -5  6  0 0.00000000D+00 0.00000000D+00 0.00000000D+00 0.00000000D+00 0.00000000D+00
  <mgrwgt>
 0.1043393279D-02    9    2    0
 0.154092118217806D+04 0.000000000000000D+00 0.000000000000000D+00 0.154092118217806D+04
 0.154092118217806D+04 0.000000000000000D+00 0.000000000000000D+00 -.154092118217806D+04
 0.798199066321003D+03 -.662065174018509D+03 -.178295423774253D+03 -.389072225542665D+03
 0.991997991359690D+03 0.411119122331608D+03 0.212181082023000D+03 -.877507988879016D+03
 0.129164530667543D+04 0.250946051686901D+03 -.338856582487472D+02 0.126658021442168D+04
 0.000000000000000D+00 0.000000000000000D+00 0.000000000000000D+00 -.000000000000000D+00
 0.156039841946202D+04 0.000000000000000D+00 0.000000000000000D+00 0.156039841946202D+04
 0.160568793637886D+04 0.000000000000000D+00 0.000000000000000D+00 -.160568793637886D+04
 0.813595351550695D+03 -.678225744474121D+03 -.186935921932361D+03 -.389072225542665D+03
 0.981734085277814D+03 0.391329603313966D+03 0.201600310564998D+03 -.877507988879016D+03
 0.128730979615209D+04 0.225088296393184D+03 -.477109057919468D+02 0.126658021442168D+04
 0.834471228602834D+02 0.618078447669705D+02 0.330465171593094D+02 -.452895169168405D+02
0.875341197216D-03 0.000000000000D+00 0.000000000000D+00 0.109884735953D-05 0.000000000000D+00  6 1 1 25 1 1 21 0 0.14010899D+00 0.40111430D+00 0.49901622D+06 0.49901622D+06 0.49901622D+06 0.10685709D+01  1  2  2  2  6  2        1 0.226807305738D-03 0.100000000000D+01
0.110723239297D-03 0.000000000000D+00 -.336154067994D-05 0.109884735953D-05 0.000000000000D+00  6 1 1 25 1 1 21 2 0.14010899D+00 0.40111430D+00 0.49901622D+06 0.49901622D+06 0.49901622D+06 0.10685709D+01  1  2  3  2  6  2        1 0.327585825096D-04 0.100000000000D+01
-.541495600380D-03 0.000000000000D+00 0.000000000000D+00 0.109884735953D-05 0.000000000000D+00  6 1 1 25 1 1 21 2 0.14010899D+00 0.40111430D+00 0.49901622D+06 0.49901622D+06 0.49901622D+06 0.10685709D+01  1  2 15  2  6  2        1 -.160206912445D-03 0.100000000000D+01
0.168318876392D-08 0.000000000000D+00 0.000000000000D+00 0.109884735953D-05 0.000000000000D+00  6 1 1 25 1 1 21 2 0.14010899D+00 0.42095982D+00 0.52919670D+06 0.52919670D+06 0.52919670D+06 0.10667728D+01  1  2 12  2  6  2        1 0.399555287710D-09 0.100000000000D+01
-.218950636857D-03 0.000000000000D+00 0.000000000000D+00 0.109884735953D-05 0.000000000000D+00  6 1 1 25 1 1 21 2 0.14010899D+00 0.40111430D+00 0.49901622D+06 0.49901622D+06 0.49901622D+06 0.10685709D+01  1  2  4  2  6  2        1 -.647787451720D-04 0.100000000000D+01
-.184626027880D-01 0.000000000000D+00 -.304029442298D-02 0.109884735953D-05 0.000000000000D+00  6 1 1 25 1 1 21 2 0.14010899D+00 0.41971559D+00 0.49901622D+06 0.49901622D+06 0.49901622D+06 0.10685709D+01  1  2  5  2  6  2        1 -.447996205916D-02 0.100000000000D+01
0.185844453687D-01 0.000000000000D+00 0.303717335898D-02 0.109884735953D-05 0.000000000000D+00  6 1 1 25 1 1 21 2 0.14010899D+00 0.40111430D+00 0.49901622D+06 0.49901622D+06 0.49901622D+06 0.10685709D+01  1  2  6  2  6  2        1 0.549839483447D-02 0.100000000000D+01
0.259892371500D-10 0.000000000000D+00 0.000000000000D+00 0.109884735953D-05 0.000000000000D+00  6 1 21 25 1 1 -1 2 0.14010899D+00 0.42095982D+00 0.52919670D+06 0.52919670D+06 0.52919670D+06 0.10667728D+01  1  2 12  5  6  2        1 0.167548461527D-11 0.100000000000D+01
-.144572937427D-03 0.000000000000D+00 -.241715737619D-04 0.109884735953D-05 0.000000000000D+00  6 1 21 25 1 1 -1 2 0.14010899D+00 0.41971559D+00 0.49901622D+06 0.49901622D+06 0.49901622D+06 0.10685709D+01  1  2  5  5  6  2        1 -.962012842464D-05 0.100000000000D+01
  </mgrwgt>
  </event>
  <event>
  5     66 0.18540751E-05 0.55475676E+02 0.75467711E-02 0.94760700E-01
        1 -1    0    0  502    0 0.00000000E+00 0.00000000E+00 0.18208098E+04 0.18208098E+04 0.32000000E+00 0.0000E+00 0.9000E+01
        1 -1    0    0  501    0 0.00000000E+00 0.00000000E+00 -.96496374E+03 0.96496379E+03 0.32000000E+00 0.0000E+00 0.9000E+01
       25  1    1    2    0    0 0.40715160E+03 -.26311477E+03 -.73240135E+02 0.50595546E+03 0.12500000E+03 0.0000E+00 0.9000E+01
        1  1    1    2  501    0 -.35382776E+03 0.24780726E+03 -.60573888E+03 0.74399074E+03 0.32000000E+00 0.0000E+00 0.9000E+01
        1  1    1    2  502    0 -.53323841E+02 0.15307518E+02 0.15348251E+04 0.15358274E+04 0.32000000E+00 0.0000E+00 0.9000E+01
#aMCatNLO 1  0  0  5  1 0.28438343D+01 0.00000000D+00  -5  6  0 0.00000000D+00 0.00000000D+00 0.00000000D+00 0.00000000D+00 0.00000000D+00
  <mgrwgt>
 0.2270192542D-02    7    2    0
 0.132552463725733D+04 0.000000000000000D+00 0.000000000000000D+00 0.132552463725733D+04
 0.132552463725733D+04 -.000000000000000D+00 -.000000000000000D+00 -.132552463725733D+04
 0.555330154973783D+03 0.407183652379094D+03 -.263137292987978D+03 -.240264061601786D+03
 0.977370843946057D+03 -.353861556757714D+03 0.247830276564796D+03 -.876707430824361D+03
 0.111834827559483D+04 -.533220956213806D+02 0.153070164231821D+02 0.111697149242615D+04
 0.000000000000000D+00 0.000000000000000D+00 0.000000000000000D+00 0.000000000000000D+00
 0.132552463725733D+04 0.000000000000000D+00 0.000000000000000D+00 0.132552463725733D+04
 0.132552463725733D+04 -.000000000000000D+00 -.000000000000000D+00 -.132552463725733D+04
 0.555326953004789D+03 0.407183329995214D+03 -.263137200442190D+03 -.240257308423780D+03
 0.977360429379478D+03 -.353862124146017D+03 0.247830439443279D+03 -.876695545384518D+03
 0.143769486159923D+03 -.968947116870012D+01 0.212767449988851D+01 0.143426818623234D+03
 0.974592405970479D+03 -.436317346804974D+02 0.131790864990223D+02 0.973526035185064D+03
0.291840297615D-04 0.000000000000D+00 0.000000000000D+00 0.637597346666D-04 0.000000000000D+00  6 1 1 25 1 1 21 0 0.28012459D+00 0.14845597D+00 0.24411308D+06 0.24411308D+06 0.24411308D+06 0.10912385D+01  1  2  2  3  6  5        1 0.247921376057D-04 0.100000000000D+01
0.129973630380D-04 0.000000000000D+00 -.112074358616D-06 0.637597346666D-04 0.000000000000D+00  6 1 1 25 1 1 21 2 0.28012459D+00 0.14845597D+00 0.24411308D+06 0.24411308D+06 0.24411308D+06 0.10912385D+01  1  2  3  3  6  5        1 0.131481100979D-04 0.100000000000D+01
-.182288246187D-04 0.000000000000D+00 0.000000000000D+00 0.637597346666D-04 0.000000000000D+00  6 1 1 25 1 1 21 2 0.28012459D+00 0.14845597D+00 0.24411308D+06 0.24411308D+06 0.24411308D+06 0.10912385D+01  1  2 15  3  6  5        1 -.184402476364D-04 0.100000000000D+01
0.255392513442D-11 0.000000000000D+00 0.000000000000D+00 0.637597346666D-04 0.000000000000D+00  6 1 1 25 1 1 21 2 0.28012459D+00 0.14845597D+00 0.24412473D+06 0.24412473D+06 0.24412473D+06 0.10912369D+01  1  2 12  3  6  5        1 0.258352966770D-11 0.100000000000D+01
0.211268549795D-03 0.000000000000D+00 0.000000000000D+00 0.637597346666D-04 0.000000000000D+00  6 1 1 25 1 1 21 2 0.28012459D+00 0.14845597D+00 0.24412473D+06 0.24412473D+06 0.24412473D+06 0.10912369D+01  1  2 12  3  6  5        1 0.213717527931D-03 0.100000000000D+01
-.187491814152D-01 0.000000000000D+00 0.000000000000D+00 0.637597346666D-04 0.000000000000D+00  6 1 1 25 1 1 21 2 0.28012459D+00 0.14845597D+00 0.24411308D+06 0.24411308D+06 0.24411308D+06 0.10912385D+01  1  2  5  3  6  5        1 -.189666396769D-01 0.100000000000D+01
0.207629353503D-01 0.000000000000D+00 0.000000000000D+00 0.637597346666D-04 0.367886350486D-05  6 1 1 25 1 1 21 2 0.28012459D+00 0.14845597D+00 0.24412473D+06 0.24412473D+06 0.24412473D+06 0.10912369D+01  1  2 11  3  6  5        1 0.210036146883D-01 0.100000000000D+01
  </mgrwgt>
  </event>
  <event>
  5     66 0.18540751E-05 0.11538184E+03 0.75467711E-02 0.93849109E-01
        1 -1    0    0  502    0 0.00000000E+00 0.00000000E+00 0.57256501E+03 0.57256510E+03 0.32000000E+00 0.0000E+00 0.9000E+01
        1 -1    0    0  501    0 0.00000000E+00 0.00000000E+00 -.10963263E+04 0.10963263E+04 0.32000000E+00 0.0000E+00 0.9000E+01
       25  1    1    2    0    0 -.66956584E+02 0.44517188E+03 0.14779140E+01 0.46721341E+03 0.12500000E+03 0.0000E+00 0.9000E+01
        1  1    1    2  501    0 0.10738800E+03 0.42152355E+02 -.67926743E+03 0.68899445E+03 0.32000000E+00 0.0000E+00 0.9000E+01
        1  1    1    2  502    0 -.40431415E+02 -.48732424E+03 0.15402827E+03 0.51268355E+03 0.32000000E+00 0.0000E+00 0.9000E+01
#aMCatNLO 1  0  0  2  4 0.15502560D+02 0.00000000D+00  -5  6  0 0.00000000D+00 0.00000000D+00 0.00000000D+00 0.00000000D+00 0.00000000D+00
  <mgrwgt>
 0.2145881865D-02   11    2    0
 0.792286671738196D+03 0.000000000000000D+00 0.000000000000000D+00 0.792286671738196D+03
 0.792286671738196D+03 0.000000000000000D+00 0.000000000000000D+00 -.792286671738196D+03
 0.492550528912317D+03 -.669776006349982D+02 0.445117593400779D+03 0.156094050463434D+03
 0.501207217935586D+03 0.107404852398286D+03 0.421564566514729D+02 -.487745534223149D+03
 0.590815596628488D+03 -.404272517632878D+02 -.487274050052252D+03 0.331651483759715D+03
 0.000000000000000D+00 -.000000000000000D+00 0.000000000000000D+00 -.000000000000000D+00
 0.792718181380899D+03 0.000000000000000D+00 0.000000000000000D+00 0.792718181380899D+03
 0.944975330526663D+03 0.000000000000000D+00 0.000000000000000D+00 -.944975330526663D+03
 0.489061177617087D+03 -.635442625171215D+02 0.441760805825150D+03 0.156094050463434D+03
 0.501694222812968D+03 0.110912654640345D+03 0.387268652218964D+02 -.487745534223149D+03
 0.593893775324178D+03 -.362835482822933D+02 -.491325364511981D+03 0.331651483759715D+03
 0.153044336153329D+03 -.110848438409305D+02 0.108376934649348D+02 -.152257149145765D+03
0.496531294668D-05 0.000000000000D+00 0.000000000000D+00 0.376938597130D-06 0.000000000000D+00  6 1 1 25 1 1 21 0 0.88086935D-01 0.16866559D+00 0.28702400D+06 0.28702400D+06 0.28702400D+06 0.10859755D+01  1  2  2  2  6  2        1 0.295093364472D-04 0.100000000000D+01
0.824713367629D-06 0.000000000000D+00 -.190681091122D-07 0.376938597130D-06 0.000000000000D+00  6 1 1 25 1 1 21 2 0.88086935D-01 0.16866559D+00 0.28702400D+06 0.28702400D+06 0.28702400D+06 0.10859755D+01  1  2  3  2  6  2        1 0.578037310844D-05 0.100000000000D+01
-.344658036740D-05 0.000000000000D+00 0.000000000000D+00 0.376938597130D-06 0.000000000000D+00  6 1 1 25 1 1 21 2 0.88086935D-01 0.16866559D+00 0.28702400D+06 0.28702400D+06 0.28702400D+06 0.10859755D+01  1  2 15  2  6  2        1 -.241569025722D-04 0.100000000000D+01
0.295597841659D-07 0.000000000000D+00 0.000000000000D+00 0.376938597130D-06 0.000000000000D+00  6 1 1 25 1 1 21 2 0.88086935D-01 0.20124682D+00 0.29654944D+06 0.29654944D+06 0.29654944D+06 0.10849238D+01  1  2 12  2  6  2        1 0.145916813654D-06 0.100000000000D+01
0.906024090184D-03 0.000000000000D+00 0.000000000000D+00 0.376938597130D-06 0.000000000000D+00  6 1 1 25 1 1 21 2 0.88086935D-01 0.20688025D+00 0.29654944D+06 0.29654944D+06 0.29654944D+06 0.10849238D+01  1  2 12  2  6  2        1 0.421951441279D-02 0.100000000000D+01
-.600640526147D-03 0.000000000000D+00 0.000000000000D+00 0.376938597130D-06 0.000000000000D+00  6 1 1 25 1 1 21 2 0.88086935D-01 0.16866559D+00 0.28702400D+06 0.28702400D+06 0.28702400D+06 0.10859755D+01  1  2  4  2  6  2        1 -.420985821433D-02 0.100000000000D+01
-.109907635732D-02 0.000000000000D+00 -.665500162395D-05 0.376938597130D-06 0.000000000000D+00  6 1 1 25 1 1 21 2 0.88086935D-01 0.20121076D+00 0.28702400D+06 0.28702400D+06 0.28702400D+06 0.10859755D+01  1  2  5  2  6  2        1 -.544719982698D-02 0.100000000000D+01
0.108344555159D-02 0.000000000000D+00 0.655274561278D-05 0.376938597130D-06 0.000000000000D+00  6 1 1 25 1 1 21 2 0.88086935D-01 0.16866559D+00 0.28702400D+06 0.28702400D+06 0.28702400D+06 0.10859755D+01  1  2  6  2  6  2        1 0.759381353167D-02 0.100000000000D+01
0.768087270668D-09 0.000000000000D+00 0.000000000000D+00 0.376938597130D-06 0.000000000000D+00  6 1 21 25 1 1 -1 2 0.88086935D-01 0.20124682D+00 0.29654944D+06 0.29654944D+06 0.29654944D+06 0.10849238D+01  1  2 12  5  6  2        1 0.354851947242D-08 0.100000000000D+01
0.263454760023D-04 0.000000000000D+00 0.000000000000D+00 0.376938597130D-06 0.000000000000D+00  6 1 21 25 1 1 -1 2 0.88086935D-01 0.20688025D+00 0.29654944D+06 0.29654944D+06 0.29654944D+06 0.10849238D+01  1  2 12  5  6  2        1 0.110622081273D-03 0.100000000000D+01
-.284742304309D-04 0.000000000000D+00 -.172787097329D-06 0.376938597130D-06 0.000000000000D+00  6 1 21 25 1 1 -1 2 0.88086935D-01 0.20121076D+00 0.28702400D+06 0.28702400D+06 0.28702400D+06 0.10859755D+01  1  2  5  5  6  2        1 -.132292392062D-03 0.100000000000D+01
  </mgrwgt>
  </event>
  <event>
  5     66 0.18540751E-05 0.57295086E+02 0.75467711E-02 0.88590843E-01
        1 -1    0    0  502    0 0.00000000E+00 0.00000000E+00 0.19395322E+04 0.19395322E+04 0.32000000E+00 0.0000E+00 0.9000E+01
        1 -1    0    0  501    0 0.00000000E+00 0.00000000E+00 -.33993858E+04 0.33993858E+04 0.32000000E+00 0.0000E+00 0.9000E+01
       25  1    1    2    0    0 0.33240898E+03 0.44259356E+03 -.11248209E+04 0.12598539E+04 0.12500000E+03 0.0000E+00 0.9000E+01
        1  1    1    2  501    0 -.58501024E+01 0.56996314E+02 -.21590856E+04 0.21598457E+04 0.32000000E+00 0.0000E+00 0.9000E+01
        1  1    1    2  502    0 -.32655888E+03 -.49958987E+03 0.18240528E+04 0.19192184E+04 0.32000000E+00 0.0000E+00 0.9000E+01
#aMCatNLO 1  0  0  2  4 0.15502560D+02 0.00000000D+00  -5  6  0 0.00000000D+00 0.00000000D+00 0.00000000D+00 0.00000000D+00 0.00000000D+00
  <mgrwgt>
 0.2858773701D-01    7    2    0
 0.256772627661502D+04 0.000000000000000D+00 0.000000000000000D+00 0.256772627661502D+04
 0.256772627661502D+04 0.000000000000000D+00 0.000000000000000D+00 -.256772627661502D+04
 0.990028568178370D+03 0.332409109839618D+03 0.442594450929218D+03 -.811261919179996D+03
 0.163164247108753D+04 -.585008288978702D+01 0.569956437363857D+02 -.163063620301460D+04
 0.251378151396415D+04 -.326559026949831D+03 -.499590094665604D+03 0.244189812219459D+04
 0.000000000000000D+00 -.000000000000000D+00 0.000000000000000D+00 -.000000000000000D+00
 0.268733097424185D+04 0.000000000000000D+00 0.000000000000000D+00 0.268733097424185D+04
 0.298190847097712D+04 0.000000000000000D+00 0.000000000000000D+00 -.298190847097712D+04
 0.975611335299742D+03 0.373146794864655D+03 0.372569517722492D+03 -.811261919179996D+03
 0.163288431467078D+04 0.618068993065451D+02 -.593014815508037D+02 -.163063620301460D+04
 0.254443301680095D+04 -.221728050544255D+03 -.679786443974230D+03 0.244189812219459D+04
 0.516310778447492D+03 -.213225643626946D+03 0.366518407802541D+03 -.294577496735274D+03
0.950627732922D+00 0.000000000000D+00 0.000000000000D+00 0.395915610405D-03 0.000000000000D+00  6 1 1 25 1 1 21 0 0.29838957D+00 0.52298244D+00 0.37308023D+06 0.37308023D+06 0.37308023D+06 0.10776157D+01  1  2  2  2  6  2        1 0.122958591505D-01 0.100000000000D+01
0.392703030884D+00 0.000000000000D+00 -.365066080045D-02 0.395915610405D-03 0.000000000000D+00  6 1 1 25 1 1 21 2 0.29838957D+00 0.52298244D+00 0.37308023D+06 0.37308023D+06 0.37308023D+06 0.10776157D+01  1  2  3  2  6  2        1 0.589848481798D-02 0.100000000000D+01
-.658050504481D+00 0.000000000000D+00 0.000000000000D+00 0.395915610405D-03 0.000000000000D+00  6 1 1 25 1 1 21 2 0.29838957D+00 0.52298244D+00 0.37308023D+06 0.37308023D+06 0.37308023D+06 0.10776157D+01  1  2 15  2  6  2        1 -.988406150420D-02 0.100000000000D+01
-.332207609531D-02 0.000000000000D+00 0.000000000000D+00 0.395915610405D-03 0.000000000000D+00  6 1 1 25 1 1 21 2 0.29838957D+00 0.52298244D+00 0.37308023D+06 0.37308023D+06 0.37308023D+06 0.10776157D+01  1  2  4  2  6  2        1 -.498983044980D-04 0.100000000000D+01
-.180541737741D+01 0.000000000000D+00 -.802989026109D+00 0.395915610405D-03 0.000000000000D+00  6 1 1 25 1 1 21 2 0.29838957D+00 0.61298976D+00 0.37308023D+06 0.37308023D+06 0.37308023D+06 0.10776157D+01  1  2  5  2  6  2        1 -.848061019693D-02 0.100000000000D+01
0.191889300880D+01 0.000000000000D+00 0.804455140919D+00 0.395915610405D-03 0.000000000000D+00  6 1 1 25 1 1 21 2 0.29838957D+00 0.52298244D+00 0.37308023D+06 0.37308023D+06 0.37308023D+06 0.10776157D+01  1  2  6  2  6  2        1 0.288221897708D-01 0.100000000000D+01
-.369463821646D-01 0.000000000000D+00 -.191775535047D-01 0.395915610405D-03 0.000000000000D+00  6 1 21 25 1 1 -1 2 0.29838957D+00 0.61298976D+00 0.37308023D+06 0.37308023D+06 0.37308023D+06 0.10776157D+01  1  2  5  5  6  2        1 -.142267187610D-04 0.100000000000D+01
  </mgrwgt>
  </event>
  <event>
  5     66 0.18540751E-05 0.10526413E+03 0.75467711E-02 0.86749609E-01
        1 -1    0    0  502    0 0.00000000E+00 0.00000000E+00 0.32176084E+04 0.32176084E+04 0.32000000E+00 0.0000E+00 0.9000E+01
        1 -1    0    0  501    0 0.00000000E+00 0.00000000E+00 -.89660984E+03 0.89660990E+03 0.32000000E+00 0.0000E+00 0.9000E+01
       25  1    1    2    0    0 -.47595800E+03 0.12753002E+03 0.10766852E+03 0.51963202E+03 0.12500000E+03 0.0000E+00 0.9000E+01
        1  1    1    2  501    0 0.56115757E+02 -.89052095E+02 -.67120264E+03 0.67940587E+03 0.32000000E+00 0.0000E+00 0.9000E+01
        1  1    1    2  502    0 0.41984224E+03 -.38477926E+02 0.28845326E+04 0.29151804E+04 0.32000000E+00 0.0000E+00 0.9000E+01
#aMCatNLO 1  0  0  5  1 0.81936555D+01 0.00000000D+00  -5  6  0 0.00000000D+00 0.00000000D+00 0.00000000D+00 0.00000000D+00 0.00000000D+00
  <mgrwgt>
 0.1007590903D-01    3    2    0
 0.169851095847986D+04 0.000000000000000D+00 0.000000000000000D+00 0.169851095847986D+04
 0.169851095847986D+04 -.000000000000000D+00 -.000000000000000D+00 -.169851095847986D+04
 0.555756836792944D+03 -.475957507349896D+03 0.127534641507166D+03 -.224588575076765D+03
 0.128147478885053D+04 0.561192663933023D+02 -.890570826974711D+02 -.127714411810899D+04
 0.155979029131625D+04 0.419838240956594D+03 -.384775588096945D+02 0.150173269318576D+04
 0.000000000000000D+00 0.000000000000000D+00 0.000000000000000D+00 -.000000000000000D+00
 0.169851095847986D+04 0.000000000000000D+00 0.000000000000000D+00 0.169851095847986D+04
 0.169851095847986D+04 -.000000000000000D+00 -.000000000000000D+00 -.169851095847986D+04
 0.489046265496298D+03 -.443240648740658D+03 0.124536189416815D+03 -.107562607933128D+03
 0.103069478709428D+04 0.128522310498953D+03 -.956927154621961D+02 -.101816337787941D+04
 0.952408520953067D+03 -.122490735833254D+02 -.727140310360281D+03 0.614978796406439D+03
 0.924872343416077D+03 0.326967411825031D+03 0.698296836405662D+03 0.510747189406099D+03
0.198584131466D+00 0.000000000000D+00 0.000000000000D+00 0.961542483046D-04 0.000000000000D+00  6 1 1 25 1 1 21 0 0.49501668D+00 0.13793998D+00 0.26791892D+06 0.26791892D+06 0.26791892D+06 0.10882046D+01  1  2  2  3  6  5        1 0.198730727314D-01 0.100000000000D+01
0.491842642208D-01 0.000000000000D+00 -.762615353232D-03 0.961542483046D-04 0.000000000000D+00  6 1 1 25 1 1 21 2 0.49501668D+00 0.13793998D+00 0.26791892D+06 0.26791892D+06 0.26791892D+06 0.10882046D+01  1  2  3  3  6  5        1 0.582864762790D-02 0.100000000000D+01
-.131856321109D+00 0.000000000000D+00 0.000000000000D+00 0.961542483046D-04 0.000000000000D+00  6 1 1 25 1 1 21 2 0.49501668D+00 0.13793998D+00 0.26791892D+06 0.26791892D+06 0.26791892D+06 0.10882046D+01  1  2 15  3  6  5        1 -.156258113328D-01 0.100000000000D+01
  </mgrwgt>
  </event>
  <event>
  5     66 0.18540751E-05 0.11180461E+03 0.75467711E-02 0.92390559E-01
        1 -1    0    0  502    0 0.00000000E+00 0.00000000E+00 0.17550222E+04 0.17550222E+04 0.32000000E+00 0.0000E+00 0.9000E+01
        1 -1    0    0  501    0 0.00000000E+00 0.00000000E+00 -.60718443E+03 0.60718451E+03 0.32000000E+00 0.0000E+00 0.9000E+01
       25  1    1    2    0    0 -.23049448E+03 0.53407833E+03 -.29609792E+01 0.59497994E+03 0.12500000E+03 0.0000E+00 0.9000E+01
        1  1    1    2  501    0 0.26596941E+03 -.42803891E+03 -.98042128E+02 0.51339010E+03 0.32000000E+00 0.0000E+00 0.9000E+01
        1  1    1    2  502    0 -.35474930E+02 -.10603941E+03 0.12488409E+04 0.12538367E+04 0.32000000E+00 0.0000E+00 0.9000E+01
#aMCatNLO 1  0  0  1  5 0.10086178D+02 0.00000000D+00  -5  6  0 0.00000000D+00 0.00000000D+00 0.00000000D+00 0.00000000D+00 0.00000000D+00
  <mgrwgt>
 0.1621003844D-02   11    2    0
 0.103228981992959D+04 0.000000000000000D+00 0.000000000000000D+00 0.103228981992959D+04
 0.103228981992959D+04 0.000000000000000D+00 0.000000000000000D+00 -.103228981992959D+04
 0.682423476270840D+03 -.230530123723710D+03 0.534134628570909D+03 -.334115042437371D+03
 0.641957864042919D+03 0.266001427023938D+03 -.428106059263382D+03 -.397590671482310D+03
 0.740198299545418D+03 -.354713033002271D+02 -.106028569307527D+03 0.731705713919681D+03
 0.000000000000000D+00 -.000000000000000D+00 0.000000000000000D+00 0.000000000000000D+00
 0.111360575778139D+04 0.000000000000000D+00 0.000000000000000D+00 0.111360575778139D+04
 0.103261495047095D+04 0.000000000000000D+00 0.000000000000000D+00 -.103261495047095D+04
 0.679623705585657D+03 -.229699917230799D+03 0.530912862563357D+03 -.334115042437371D+03
 0.644315080874906D+03 0.266785446964474D+03 -.431148590025584D+03 -.397590671482310D+03
 0.740665490468598D+03 -.345686747055915D+02 -.109531382340757D+03 0.731705713919681D+03
 0.816164313231853D+02 -.251685502808279D+01 0.976710980298443D+01 0.809908073104366D+02
0.659868289701D-05 0.000000000000D+00 0.000000000000D+00 0.852880743064D-06 0.000000000000D+00  6 1 1 25 1 1 21 0 0.27000342D+00 0.93412998D-01 0.36654365D+06 0.36654365D+06 0.36654365D+06 0.10781730D+01  1  2  2  1  6  1        1 0.125359477554D-04 0.100000000000D+01
0.152736827265D-05 0.000000000000D+00 -.253406797976D-07 0.852880743064D-06 0.000000000000D+00  6 1 1 25 1 1 21 2 0.27000342D+00 0.93412998D-01 0.36654365D+06 0.36654365D+06 0.36654365D+06 0.10781730D+01  1  2  3  1  6  1        1 0.337303290263D-05 0.100000000000D+01
-.408345800291D-05 0.000000000000D+00 0.000000000000D+00 0.852880743064D-06 0.000000000000D+00  6 1 1 25 1 1 21 2 0.27000342D+00 0.93412998D-01 0.36654365D+06 0.36654365D+06 0.36654365D+06 0.10781730D+01  1  2 15  1  6  1        1 -.901788942916D-05 0.100000000000D+01
0.700675625845D-08 0.000000000000D+00 0.000000000000D+00 0.852880743064D-06 0.000000000000D+00  6 1 1 25 1 1 21 2 0.29135638D+00 0.93412998D-01 0.37441022D+06 0.37441022D+06 0.37441022D+06 0.10775036D+01  1  2 12  1  6  1        1 0.124754167504D-07 0.100000000000D+01
0.119697313110D-02 0.000000000000D+00 0.000000000000D+00 0.852880743064D-06 0.000000000000D+00  6 1 1 25 1 1 21 2 0.30162885D+00 0.93412998D-01 0.37441022D+06 0.37441022D+06 0.37441022D+06 0.10775036D+01  1  2 12  1  6  1        1 0.192356778564D-02 0.100000000000D+01
-.493719126569D-03 0.000000000000D+00 0.000000000000D+00 0.852880743064D-06 0.000000000000D+00  6 1 1 25 1 1 21 2 0.27000342D+00 0.93412998D-01 0.36654365D+06 0.36654365D+06 0.36654365D+06 0.10781730D+01  1  2  4  1  6  1        1 -.109032699474D-02 0.100000000000D+01
-.188574996882D-02 0.000000000000D+00 -.171061905690D-04 0.852880743064D-06 0.000000000000D+00  6 1 1 25 1 1 21 2 0.29130363D+00 0.93412998D-01 0.36654365D+06 0.36654365D+06 0.36654365D+06 0.10781730D+01  1  2  5  1  6  1        1 -.336814479655D-02 0.100000000000D+01
0.188167098237D-02 0.000000000000D+00 0.170569950998D-04 0.852880743064D-06 0.000000000000D+00  6 1 1 25 1 1 21 2 0.27000342D+00 0.93412998D-01 0.36654365D+06 0.36654365D+06 0.36654365D+06 0.10781730D+01  1  2  6  1  6  1        1 0.415547333875D-02 0.100000000000D+01
0.101389294505D-09 0.000000000000D+00 0.000000000000D+00 0.852880743064D-06 0.000000000000D+00  6 21 1 25 1 1 -1 2 0.29135638D+00 0.93412998D-01 0.37441022D+06 0.37441022D+06 0.37441022D+06 0.10775036D+01  1  2 12  4  6  1        1 0.982647994096D-10 0.100000000000D+01
0.240352864318D-04 0.000000000000D+00 0.000000000000D+00 0.852880743064D-06 0.000000000000D+00  6 21 1 25 1 1 -1 2 0.30162885D+00 0.93412998D-01 0.37441022D+06 0.37441022D+06 0.37441022D+06 0.10775036D+01  1  2 12  4  6  1        1 0.199093551805D-04 0.100000000000D+01
-.270975895449D-04 0.000000000000D+00 -.218101957015D-06 0.852880743064D-06 0.000000000000D+00  6 21 1 25 1 1 -1 2 0.29130363D+00 0.93412998D-01 0.36654365D+06 0.36654365D+06 0.36654365D+06 0.10781730D+01  1  2  5  4  6  1        1 -.263785094363D-04 0.100000000000D+01
  </mgrwgt>
  </event>
  <event>
  5     66 -.18540751E-05 0.25312373E+02 0.75467711E-02 0.93408196E-01
        1 -1    0    0  502    0 0.00000000E+00 0.00000000E+00 0.11776922E+04 0.11776922E+04 0.32000000E+00 0.0000E+00 0.9000E+01
        1 -1    0    0  501    0 0.00000000E+00 0.00000000E+00 -.13237885E+04 0.13237885E+04 0.32000000E+00 0.0000E+00 0.9000E+01
       25  1    1    2    0    0 -.24503443E+03 0.48848338E+03 -.45032273E+03 0.71907820E+03 0.12500000E+03 0.0000E+00 0.9000E+01
        1  1    1    2  501    0 0.24064551E+02 -.78465017E+01 -.67177896E+03 0.67225571E+03 0.32000000E+00 0.0000E+00 0.9000E+01
        1  1    1    2  502    0 0.22096988E+03 -.48063688E+03 0.97600537E+03 0.11101469E+04 0.32000000E+00 0.0000E+00 0.9000E+01
#aMCatNLO 1  0  0  2  5 0.27297529D+03 0.00000000D+00  -5  6  0 0.00000000D+00 0.00000000D+00 0.00000000D+00 0.00000000D+00 0.00000000D+00
  <mgrwgt>
 -.9176173716D-03    1    2    0
 0.124860541559734D+04 0.000000000000000D+00 0.000000000000000D+00 0.124860541559734D+04
 0.124860541559734D+04 0.000000000000000D+00 0.000000000000000D+00 -.124860541559734D+04
 0.693947154619312D+03 -.245034401276694D+03 0.488481919541087D+03 -.409000256572862D+03
 0.634123135374049D+03 0.240653762625450D+02 -.784690423218922D+01 -.633617735370410D+03
 0.116914054120132D+04 0.220969025014149D+03 -.480635015308898D+03 0.104261799194327D+04
 0.000000000000000D+00 -.000000000000000D+00 0.000000000000000D+00 -.000000000000000D+00
 0.155546856518684D+04 0.000000000000000D+00 0.000000000000000D+00 0.155546856518684D+04
 0.166851960122919D+04 0.000000000000000D+00 0.000000000000000D+00 -.166851960122919D+04
 0.604511638180107D+03 -.993028827653459D+02 0.415532246995370D+03 -.409000256572862D+03
 0.660805654517282D+03 0.169400707627256D+03 -.805982550770879D+02 -.633617735370410D+03
 0.131182943336352D+04 0.499418771574760D+03 -.620020222020050D+03 0.104261799194327D+04
 0.646841440355128D+03 -.569516596436670D+03 0.285086230101768D+03 -.113051036042352D+03
-.625161613366D-03 0.000000000000D+00 0.000000000000D+00 0.431973903820D-04 0.000000000000D+00  6 1 1 25 1 1 21 2 0.18118342D+00 0.20365978D+00 0.31075998D+06 0.31075998D+06 0.31075998D+06 0.10834214D+01  1  2 14  2  6  2        1 -.917617371616D-03 0.100000000000D+01
  </mgrwgt>
  </event>
  <event>
  6     66 0.18540751E-05 0.55498755E+02 0.75467711E-02 0.95092154E-01
        3 -1    0    0  502    0 0.00000000E+00 0.00000000E+00 0.35575425E+03 0.35575460E+03 0.50000000E+00 0.0000E+00 0.9000E+01
        3 -1    0    0  503    0 0.00000000E+00 0.00000000E+00 -.10303865E+04 0.10303867E+04 0.50000000E+00 0.0000E+00 0.9000E+01
       25  1    1    2    0    0 0.22352842E+02 0.45555828E+03 -.34788779E+03 0.58709787E+03 0.12500000E+03 0.0000E+00 0.9000E+01
        3  1    1    2  501    0 0.66490297E+01 -.32125777E+03 -.24523516E+03 0.40421690E+03 0.50000000E+00 0.0000E+00 0.9000E+01
        3  1    1    2  502    0 -.49099796E+02 -.26637671E+02 0.13834703E+03 0.14919955E+03 0.50000000E+00 0.0000E+00 0.9000E+01
       21  1    1    2  503  501 0.20097925E+02 -.10766283E+03 -.21985636E+03 0.24562694E+03 0.75000000E+00 0.0000E+00 0.9000E+01
#aMCatNLO 2  0  0  2  5 0.27297529D+03 0.00000000D+00  -5  6  0 0.00000000D+00 0.00000000D+00 0.00000000D+00 0.00000000D+00 0.00000000D+00
  <mgrwgt>
 0.6634288764D-03    1    2    0
 0.520085705154934D+03 0.000000000000000D+00 0.000000000000000D+00 0.520085705154934D+03
 0.520085705154934D+03 0.000000000000000D+00 0.000000000000000D+00 -.520085705154934D+03
 0.444990402729794D+03 0.313257092689025D+02 0.407505076137965D+03 -.123894194303912D+03
 0.369546490294560D+03 0.134007289433336D+02 -.357764002521559D+03 -.915966563394539D+02
 0.225634517285515D+03 -.447264382122362D+02 -.497410736164057D+02 0.215490850643366D+03
 0.000000000000000D+00 0.000000000000000D+00 -.000000000000000D+00 -.000000000000000D+00
 0.542613224625413D+03 0.000000000000000D+00 0.000000000000000D+00 0.542613224625413D+03
 0.675552362781239D+03 0.000000000000000D+00 0.000000000000000D+00 -.675552362781239D+03
 0.489023821090311D+03 0.223271896616589D+02 0.455709362218251D+03 -.123894194303912D+03
 0.334300097902560D+03 0.661970017218806D+01 -.321438621784508D+03 -.915966563394539D+02
 0.222597576843781D+03 -.490448149400784D+02 -.266079054646369D+02 0.215490850643366D+03
 0.172244091570000D+03 0.200979251062314D+02 -.107662834969107D+03 -.132939138155826D+03
0.151268066912D-02 0.000000000000D+00 0.000000000000D+00 0.145356009020D-06 0.421699079980D-09  6 3 3 25 3 3 21 2 0.54731380D-01 0.15852081D+00 0.23035024D+06 0.23035024D+06 0.23035024D+06 0.10931437D+01  1  2  1  2  6  2        3 0.663428876360D-03 0.100000000000D+01
  </mgrwgt>
  </event>
  <event>
  5     66 0.18540751E-05 0.52248153E+02 0.75467711E-02 0.89384303E-01
        1 -1    0    0  502    0 0.00000000E+00 0.00000000E+00 0.15536551E+04 0.15536551E+04 0.32000000E+00 0.0000E+00 0.9000E+01
        1 -1    0    0  501    0 0.00000000E+00 0.00000000E+00 -.69171316E+03 0.69171323E+03 0.32000000E+00 0.0000E+00 0.9000E+01
       25  1    1    2    0    0 0.23477971E+03 0.51556247E+03 0.88524507E+03 0.10583997E+04 0.12500000E+03 0.0000E+00 0.9000E+01
        1  1    1    2  501    0 -.27047969E+02 0.44693646E+02 -.44981288E+03 0.45283645E+03 0.32000000E+00 0.0000E+00 0.9000E+01
        1  1    1    2  502    0 -.20773174E+03 -.56025611E+03 0.42650974E+03 0.73413217E+03 0.32000000E+00 0.0000E+00 0.9000E+01
#aMCatNLO 1  0  0  2  4 0.10571623D+02 0.00000000D+00  -5  6  0 0.00000000D+00 0.00000000D+00 0.00000000D+00 0.00000000D+00 0.00000000D+00
  <mgrwgt>
 0.1357945729D-02    7    2    0
 0.103666956752370D+04 0.000000000000000D+00 0.000000000000000D+00 0.103666956752370D+04
 0.103666956752370D+04 0.000000000000000D+00 0.000000000000000D+00 -.103666956752370D+04
 0.778205208682270D+03 0.234744315854669D+03 0.515450274564545D+03 0.518829902227574D+03
 0.677517798531888D+03 -.270519380898498D+02 0.446996879936241D+02 -.675500183468777D+03
 0.617616127833236D+03 -.207692377764819D+03 -.560149962558169D+03 0.156670281241203D+03
 0.000000000000000D+00 0.000000000000000D+00 -.000000000000000D+00 -.000000000000000D+00
 0.113966592901772D+04 0.000000000000000D+00 0.000000000000000D+00 0.113966592901772D+04
 0.131357832546339D+04 0.000000000000000D+00 0.000000000000000D+00 -.131357832546339D+04
 0.756540448414829D+03 0.120361373322894D+03 0.522548679506574D+03 0.518829902227574D+03
 0.689586494792640D+03 -.128940750151422D+03 0.510227290963162D+02 -.675500183468777D+03
 0.650463520753892D+03 -.302200989598524D+03 -.554284923746825D+03 0.156670281241203D+03
 0.356653790519758D+03 0.310780366427051D+03 -.192864848560646D+02 -.173912396445670D+03
0.368131398736D-03 0.000000000000D+00 0.000000000000D+00 0.771708633963D-06 0.000000000000D+00  6 1 1 25 1 1 21 0 0.23902387D+00 0.10641742D+00 0.37802758D+06 0.37802758D+06 0.37802758D+06 0.10772009D+01  1  2  2  2  6  2        1 0.783280749102D-03 0.100000000000D+01
0.162046670916D-03 0.000000000000D+00 -.141372150237D-05 0.771708633963D-06 0.000000000000D+00  6 1 1 25 1 1 21 2 0.23902387D+00 0.10641742D+00 0.37802758D+06 0.37802758D+06 0.37802758D+06 0.10772009D+01  1  2  3  2  6  2        1 0.400081189083D-03 0.100000000000D+01
-.259494769929D-03 0.000000000000D+00 0.000000000000D+00 0.771708633963D-06 0.000000000000D+00  6 1 1 25 1 1 21 2 0.23902387D+00 0.10641742D+00 0.37802758D+06 0.37802758D+06 0.37802758D+06 0.10772009D+01  1  2 15  2  6  2        1 -.640673304346D-03 0.100000000000D+01
-.360154903903D-04 0.000000000000D+00 0.000000000000D+00 0.771708633963D-06 0.000000000000D+00  6 1 1 25 1 1 21 2 0.23902387D+00 0.10641742D+00 0.37802758D+06 0.37802758D+06 0.37802758D+06 0.10772009D+01  1  2  4  2  6  2        1 -.889195695248D-04 0.100000000000D+01
-.810803276774D-03 0.000000000000D+00 -.340761602239D-03 0.771708633963D-06 0.000000000000D+00  6 1 1 25 1 1 21 2 0.23902387D+00 0.14363248D+00 0.37802758D+06 0.37802758D+06 0.37802758D+06 0.10772009D+01  1  2  5  2  6  2        1 -.123541087234D-02 0.100000000000D+01
0.887552543020D-03 0.000000000000D+00 0.325992641946D-03 0.771708633963D-06 0.000000000000D+00  6 1 1 25 1 1 21 2 0.23902387D+00 0.10641742D+00 0.37802758D+06 0.37802758D+06 0.37802758D+06 0.10772009D+01  1  2  6  2  6  2        1 0.219130127622D-02 0.100000000000D+01
-.236973890115D-04 0.000000000000D+00 -.131686911187D-04 0.771708633963D-06 0.000000000000D+00  6 1 21 25 1 1 -1 2 0.23902387D+00 0.14363248D+00 0.37802758D+06 0.37802758D+06 0.37802758D+06 0.10772009D+01  1  2  5  5  6  2        1 -.517137389841D-04 0.100000000000D+01
  </mgrwgt>
  </event>
  <event>
  6     66 0.18540751E-05 0.20378487E+02 0.75467711E-02 0.91821295E-01
        1 -1    0    0  503    0 0.00000000E+00 0.00000000E+00 0.56916773E+03 0.56916782E+03 0.32000000E+00 0.0000E+00 0.9000E+01
        1 -1    0    0  501    0 0.00000000E+00 0.00000000E+00 -.18831457E+04 0.18831457E+04 0.32000000E+00 0.0000E+00 0.9000E+01
       25  1    1    2    0    0 -.15451323E+03 -.57913533E+03 -.51572254E+03 0.80054157E+03 0.12500000E+03 0.0000E+00 0.9000E+01
        1  1    1    2  501    0 0.74456748E+01 -.36341070E+02 -.96242624E+03 0.96314094E+03 0.32000000E+00 0.0000E+00 0.9000E+01
        1  1    1    2  502    0 0.16212689E+03 0.58561682E+03 0.99384496E+02 0.61571874E+03 0.32000000E+00 0.0000E+00 0.9000E+01
       21  1    1    2  503  502 -.15059338E+02 0.29859582E+02 0.64786296E+02 0.72912310E+02 0.75000000E+00 0.0000E+00 0.9000E+01
#aMCatNLO 2  0  0  1  5 0.23169922D+02 0.00000000D+00  -5  6  0 0.00000000D+00 0.00000000D+00 0.00000000D+00 0.00000000D+00 0.00000000D+00
  <mgrwgt>
 0.3197000480D-02    1    2    0
 0.969463897987226D+03 0.000000000000000D+00 0.000000000000000D+00 0.969463897987226D+03
 0.969463897987226D+03 0.000000000000000D+00 0.000000000000000D+00 -.969463897987226D+03
 0.607928217008338D+03 -.159260023759307D+03 -.569693654243116D+03 -.635381946725480D+02
 0.497000206073287D+03 0.358457498115087D+01 -.286871209071386D+02 -.496158648773911D+03
 0.833999372892828D+03 0.155675448778156D+03 0.598380775150255D+03 0.559696843446459D+03
 0.000000000000000D+00 -.000000000000000D+00 0.000000000000000D+00 0.000000000000000D+00
 0.110303560376953D+04 0.000000000000000D+00 0.000000000000000D+00 0.110303560376953D+04
 0.971703566997928D+03 0.000000000000000D+00 0.000000000000000D+00 -.971703566997928D+03
 0.615554998227891D+03 -.154509079177053D+03 -.579113804111896D+03 -.635381946725480D+02
 0.497543749559841D+03 0.744651861796309D+01 -.363445640142298D+02 -.496158648773911D+03
 0.826117427964153D+03 0.162121898408784D+03 0.585598786097196D+03 0.559696843446459D+03
 0.135522995015577D+03 -.150593378496939D+02 0.298595820289291D+02 0.131332036771606D+03
0.162875211766D-02 0.000000000000D+00 0.000000000000D+00 0.442219526855D-05 0.306312710918D-07  6 1 1 25 1 1 21 2 0.87564182D-01 0.28971442D+00 0.41630548D+06 0.41630548D+06 0.41630548D+06 0.10741790D+01  1  2  1  1  6  1        1 0.319700047974D-02 0.100000000000D+01
  </mgrwgt>
  </event>
  <event>
  5     66 0.18540751E-05 0.57877487E+02 0.75467711E-02 0.92436938E-01
        1 -1    0    0  502    0 0.00000000E+00 0.00000000E+00 0.11675352E+04 0.11675353E+04 0.32000000E+00 0.0000E+00 0.9000E+01
        1 -1    0    0  501    0 0.00000000E+00 0.00000000E+00 -.12543366E+04 0.12543367E+04 0.32000000E+00 0.0000E+00 0.9000E+01
       25  1    1    2    0    0 0.53877695E+03 -.10424311E+02 -.32465695E+03 0.64141750E+03 0.12500000E+03 0.0000E+00 0.9000E+01
        1  1    1    2  501    0 -.39232179E+02 0.42546547E+02 -.70797000E+03 0.71033161E+03 0.32000000E+00 0.0000E+00 0.9000E+01
        1  1    1    2  502    0 -.49954477E+03 -.32122237E+02 0.94582557E+03 0.10701229E+04 0.32000000E+00 0.0000E+00 0.9000E+01
#aMCatNLO 1  0  0  2  5 0.11479562D+01 0.00000000D+00  -5  6  0 0.00000000D+00 0.00000000D+00 0.00000000D+00 0.00000000D+00 0.00000000D+00
  <mgrwgt>
 0.3411852273D-02    7    2    0
 0.121015797809020D+04 0.000000000000000D+00 0.000000000000000D+00 0.121015797809020D+04
 0.121015797809020D+04 0.000000000000000D+00 0.000000000000000D+00 -.121015797809020D+04
 0.630161512675663D+03 0.538774286911859D+03 -.104272081448282D+02 -.301814633758209D+03
 0.685434819938804D+03 -.392349050144381D+02 0.425490979417710D+02 -.682986887778521D+03
 0.110471962356593D+04 -.499539381897421D+03 -.321218897969429D+02 0.984801521536730D+03
 0.000000000000000D+00 -.000000000000000D+00 -.000000000000000D+00 -.000000000000000D+00
 0.122359232944102D+04 0.000000000000000D+00 0.000000000000000D+00 0.122359232944102D+04
 0.153986774889440D+04 0.000000000000000D+00 0.000000000000000D+00 -.153986774889440D+04
 0.654331202720882D+03 0.566907890679060D+03 0.690602558445660D+01 -.301814633758209D+03
 0.685771952409335D+03 -.920204647523284D+01 0.610524706673618D+02 -.682986887778521D+03
 0.108341851908425D+04 -.451613682704792D+03 -.259466134021331D+01 0.984801521536730D+03
 0.339938404120952D+03 -.106092161499034D+03 -.653638349116051D+02 -.316275419453379D+03
0.398103218952D-03 0.000000000000D+00 0.000000000000D+00 0.219589271170D-04 0.000000000000D+00  6 1 1 25 1 1 21 0 0.17962081D+00 0.19297487D+00 0.30893120D+06 0.30893120D+06 0.30893120D+06 0.10836105D+01  1  2  2  2  6  2        1 0.566083300981D-03 0.100000000000D+01
0.142745863904D-03 0.000000000000D+00 -.152882118376D-05 0.219589271170D-04 0.000000000000D+00  6 1 1 25 1 1 21 2 0.17962081D+00 0.19297487D+00 0.30893120D+06 0.30893120D+06 0.30893120D+06 0.10836105D+01  1  2  3  2  6  2        1 0.238338727393D-03 0.100000000000D+01
-.269541435664D-03 0.000000000000D+00 0.000000000000D+00 0.219589271170D-04 0.000000000000D+00  6 1 1 25 1 1 21 2 0.17962081D+00 0.19297487D+00 0.30893120D+06 0.30893120D+06 0.30893120D+06 0.10836105D+01  1  2 15  2  6  2        1 -.450045703593D-03 0.100000000000D+01
-.570143641230D-04 0.000000000000D+00 0.000000000000D+00 0.219589271170D-04 0.000000000000D+00  6 1 1 25 1 1 21 2 0.17962081D+00 0.19297487D+00 0.30893120D+06 0.30893120D+06 0.30893120D+06 0.10836105D+01  1  2  4  2  6  2        1 -.951952695268D-04 0.100000000000D+01
-.471398557372D-02 0.000000000000D+00 -.391253955490D-03 0.219589271170D-04 0.000000000000D+00  6 1 1 25 1 1 21 2 0.17962081D+00 0.24651768D+00 0.30893120D+06 0.30893120D+06 0.30893120D+06 0.10836105D+01  1  2  5  2  6  2        1 -.455900850336D-02 0.100000000000D+01
0.468021491608D-02 0.000000000000D+00 0.379809649042D-03 0.219589271170D-04 0.000000000000D+00  6 1 1 25 1 1 21 2 0.17962081D+00 0.19297487D+00 0.30893120D+06 0.30893120D+06 0.30893120D+06 0.10836105D+01  1  2  6  2  6  2        1 0.781442233431D-02 0.100000000000D+01
-.150775337387D-03 0.000000000000D+00 -.130401416785D-04 0.219589271170D-04 0.000000000000D+00  6 1 21 25 1 1 -1 2 0.17962081D+00 0.24651768D+00 0.30893120D+06 0.30893120D+06 0.30893120D+06 0.10836105D+01  1  2  5  5  6  2        1 -.102742613385D-03 0.100000000000D+01
  </mgrwgt>
  </event>
  <event>
  5     66 0.18540751E-05 0.61468262E+02 0.75467711E-02 0.82100685E-01
        1 -1    0    0  502    0 0.00000000E+00 0.00000000E+00 0.26341211E+04 0.26341212E+04 0.32000000E+00 0.0000E+00 0.9000E+01
        1 -1    0    0  501    0 0.00000000E+00 0.00000000E+00 -.23536517E+04 0.23536518E+04 0.32000000E+00 0.0000E+00 0.9000E+01
       25  1    1    2    0    0 -.17470480E+03 -.79024100E+03 -.12510424E+04 0.14952374E+04 0.12500000E+03 0.0000E+00 0.9000E+01
        1  1    1    2  501    0 0.20659276E+02 0.57892794E+02 -.92372938E+03 0.92577236E+03 0.32000000E+00 0.0000E+00 0.9000E+01
        1  1    1    2  502    0 0.15404552E+03 0.73234820E+03 0.24552412E+04 0.25667632E+04 0.32000000E+00 0.0000E+00 0.9000E+01
#aMCatNLO 1  0  0  2  4 0.22618484D+03 0.00000000D+00  -5  6  0 0.00000000D+00 0.00000000D+00 0.00000000D+00 0.00000000D+00 0.00000000D+00
  <mgrwgt>
 0.1189721282D-02    4    2    0
 0.248994054584542D+04 0.000000000000000D+00 0.000000000000000D+00 0.248994054584542D+04
 0.248994054584542D+04 0.000000000000000D+00 0.000000000000000D+00 -.248994054584542D+04
 0.156807347046605D+04 -.174704734164278D+03 -.790240951099941D+03 -.133724601470510D+04
 0.979256486300043D+03 0.206591699371735D+02 0.578925375922869D+02 -.977325390414747D+03
 0.243255113492475D+04 0.154045564227105D+03 0.732348413507654D+03 0.231457140511985D+04
 0.000000000000000D+00 0.000000000000000D+00 -.000000000000000D+00 0.000000000000000D+00
 0.341154307576346D+04 0.000000000000000D+00 0.000000000000000D+00 0.341154307576346D+04
 0.312096833755360D+04 0.000000000000000D+00 0.000000000000000D+00 -.312096833755360D+04
 0.149376916963851D+04 -.440235538055026D+03 -.483411935466253D+03 -.133724601470510D+04
 0.102243171424211D+04 -.152932336715315D+03 0.258482865825793D+03 -.977325390414747D+03
 0.264173020190631D+04 -.286009056767578D+03 0.124084507079345D+04 0.231457140511985D+04
 0.137458032753013D+04 0.879176931537919D+03 -.101591600115298D+04 0.290574738209856D+03
0.803220459782D-01 0.000000000000D+00 0.000000000000D+00 0.479393415042D-04 0.000000000000D+00  6 1 1 25 1 1 21 0 0.40524941D+00 0.36210027D+00 0.66321572D+06 0.66321572D+06 0.66321572D+06 0.10599462D+01  1  2  2  2  6  2        1 0.191693677038D-02 0.100000000000D+01
0.273771123751D-01 0.000000000000D+00 -.308457805837D-03 0.479393415042D-04 0.000000000000D+00  6 1 1 25 1 1 21 2 0.40524941D+00 0.36210027D+00 0.66321572D+06 0.66321572D+06 0.66321572D+06 0.10599462D+01  1  2  3  2  6  2        1 0.734054538079D-03 0.100000000000D+01
-.542065224021D-01 0.000000000000D+00 0.000000000000D+00 0.479393415042D-04 0.000000000000D+00  6 1 1 25 1 1 21 2 0.40524941D+00 0.36210027D+00 0.66321572D+06 0.66321572D+06 0.66321572D+06 0.10599462D+01  1  2 15  2  6  2        1 -.145342369266D-02 0.100000000000D+01
-.292634881066D-03 0.000000000000D+00 0.000000000000D+00 0.479393415042D-04 0.000000000000D+00  6 1 1 25 1 1 21 2 0.40524941D+00 0.36210027D+00 0.66321572D+06 0.66321572D+06 0.66321572D+06 0.10599462D+01  1  2  4  2  6  2        1 -.784633380991D-05 0.100000000000D+01
  </mgrwgt>
  </event>
  <event>
  6     66 -.18540751E-05 0.11008807E+03 0.75467711E-02 0.93836622E-01
        1 -1    0    0  502    0 0.00000000E+00 0.00000000E+00 0.30964247E+03 0.30964263E+03 0.32000000E+00 0.0000E+00 0.9000E+01
        1 -1    0    0  501    0 -.00000000E+00 -.00000000E+00 -.20567398E+04 0.20567398E+04 0.32000000E+00 0.0000E+00 0.9000E+01
       25  1    1    2    0    0 -.50168452E+03 -.10241521E+03 -.68403693E+03 0.86354372E+03 0.12500000E+03 0.0000E+00 0.9000E+01
        1  1    1    2  501    0 0.84129301E+02 0.94952210E+02 -.10710139E+04 0.10785010E+04 0.32000000E+00 0.0000E+00 0.9000E+01
        1  1    1    2  503    0 0.34735043E+03 -.57960010E+01 0.32194931E+02 0.34888756E+03 0.32000000E+00 0.0000E+00 0.9000E+01
       21  1    1    2  502  503 0.70204788E+02 0.13259001E+02 -.24241474E+02 0.75450149E+02 0.75000000E+00 0.0000E+00 0.9000E+01
#aMCatNLO 2  0  0  5  1 0.25254082D+02 0.00000000D+00  -5  6  0 0.00000000D+00 0.00000000D+00 0.00000000D+00 0.00000000D+00 0.00000000D+00
  <mgrwgt>
 -.6168165612D-03    3    2    0
 0.798031457632081D+03 0.000000000000000D+00 0.000000000000000D+00 0.798031457632081D+03
 0.798031457632081D+03 -.000000000000000D+00 -.000000000000000D+00 -.798031457632081D+03
 0.532516260073525D+03 -.502593394126170D+03 -.102490286142071D+03 -.696002059619608D+02
 0.427645119224469D+03 0.834201881994472D+02 0.949983678756089D+02 -.408529962546506D+03
 0.635901535966169D+03 0.419173205926722D+03 0.749191826646216D+01 0.478130168508467D+03
 0.000000000000000D+00 0.000000000000000D+00 0.000000000000000D+00 0.000000000000000D+00
 0.798031457632081D+03 0.000000000000000D+00 0.000000000000000D+00 0.798031457632081D+03
 0.798031457632081D+03 -.000000000000000D+00 -.000000000000000D+00 -.798031457632081D+03
 0.531456039584397D+03 -.501625448814490D+03 -.102472985973408D+03 -.684961185622017D+02
 0.426953753181816D+03 0.841976567220566D+02 0.950122636364633D+02 -.407643142610333D+03
 0.552303350552660D+03 0.347199768412497D+03 -.580628771985626D+01 0.429485272004660D+03
 0.853497719452909D+02 0.702280236799361D+02 0.132670100568011D+02 0.466539891678753D+02
-.668759913654D-08 0.000000000000D+00 0.000000000000D+00 0.520753458147D-06 0.000000000000D+00  6 1 1 25 1 1 21 2 0.47637317D-01 0.31642152D+00 0.28766763D+06 0.28766763D+06 0.28766763D+06 0.10859032D+01  1  2 13  3  6  5        1 -.242705413464D-07 0.100000000000D+01
-.371348999449D-03 0.000000000000D+00 0.000000000000D+00 0.520753458147D-06 0.000000000000D+00  6 1 1 25 1 1 21 2 0.47637317D-01 0.31642152D+00 0.28766763D+06 0.28766763D+06 0.28766763D+06 0.10859032D+01  1  2 13  3  6  5        1 -.134769460027D-02 0.100000000000D+01
0.201395658417D-03 0.000000000000D+00 0.000000000000D+00 0.520753458147D-06 0.203230592348D-08  6 1 1 25 1 1 21 2 0.47637317D-01 0.31642152D+00 0.28766763D+06 0.28766763D+06 0.28766763D+06 0.10859032D+01  1  2  1  3  6  5        1 0.730902309603D-03 0.100000000000D+01
  </mgrwgt>
  </event>
  <event>
  5     66 0.18540751E-05 0.40669134E+02 0.75467711E-02 0.93423265E-01
        1 -1    0    0  502    0 0.00000000E+00 0.00000000E+00 0.10957196E+04 0.10957196E+04 0.32000000E+00 0.0000E+00 0.9000E+01
        1 -1    0    0  501    0 0.00000000E+00 0.00000000E+00 -.11648948E+04 0.11648949E+04 0.32000000E+00 0.0000E+00 0.9000E+01
       25  1    1    2    0    0 0.42148889E+03 0.30045707E+03 0.48197840E+02 0.53467314E+03 0.12500000E+03 0.0000E+00 0.9000E+01
        1  1    1    2  501    0 0.37573405E+02 -.15552013E+02 -.83036773E+03 0.83136291E+03 0.32000000E+00 0.0000E+00 0.9000E+01
        1  1    1    2  502    0 -.45906230E+03 -.28490505E+03 0.71299466E+03 0.89457843E+03 0.32000000E+00 0.0000E+00 0.9000E+01
#aMCatNLO 1  0  0  1  5 0.13559845D+03 0.00000000D+00  -5  6  0 0.00000000D+00 0.00000000D+00 0.00000000D+00 0.00000000D+00 0.00000000D+00
  <mgrwgt>
 0.5374724730D-02    3    2    0
 0.112977792705789D+04 0.000000000000000D+00 0.000000000000000D+00 0.112977792705789D+04
 0.112977792705789D+04 0.000000000000000D+00 0.000000000000000D+00 -.112977792705789D+04
 0.536383273201183D+03 0.421462386029623D+03 0.300444871495143D+03 0.646865683469030D+02
 0.806392155283869D+03 0.375773480292491D+02 -.155538220519160D+02 -.805365960069103D+03
 0.916780425630735D+03 -.459039734058873D+03 -.284891049443227D+03 0.740679391722201D+03
 0.000000000000000D+00 0.000000000000000D+00 0.000000000000000D+00 -.000000000000000D+00
 0.153634535189770D+04 0.000000000000000D+00 0.000000000000000D+00 0.153634535189770D+04
 0.254437669627885D+04 0.000000000000000D+00 0.000000000000000D+00 -.254437669627885D+04
 0.369783425466883D+03 0.326188709120820D+03 0.102622393597187D+03 0.646865683469030D+02
 0.905808493258672D+03 -.142442124802912D+03 -.389339103999519D+03 -.805365960069103D+03
 0.126584041312815D+04 -.688518827598710D+03 -.761372322998785D+03 0.740679391722201D+03
 0.153928971632285D+04 0.504772243280801D+03 0.104808903340112D+04 -.100803134438115D+04
0.346474632443D-02 0.000000000000D+00 0.000000000000D+00 0.176854843539D-04 0.000000000000D+00  6 1 1 25 1 1 21 0 0.16857225D+00 0.17921459D+00 0.30991330D+06 0.30991330D+06 0.30991330D+06 0.10835088D+01  1  2  2  1  6  1        1 0.642919782101D-02 0.100000000000D+01
0.190761231573D-02 0.000000000000D+00 -.133055381745D-04 0.176854843539D-04 0.000000000000D+00  6 1 1 25 1 1 21 2 0.16857225D+00 0.17921459D+00 0.30991330D+06 0.30991330D+06 0.30991330D+06 0.10835088D+01  1  2  3  1  6  1        1 0.415566347109D-02 0.100000000000D+01
-.239165676967D-02 0.000000000000D+00 0.000000000000D+00 0.176854843539D-04 0.000000000000D+00  6 1 1 25 1 1 21 2 0.16857225D+00 0.17921459D+00 0.30991330D+06 0.30991330D+06 0.30991330D+06 0.10835088D+01  1  2 15  1  6  1        1 -.521013656242D-02 0.100000000000D+01
  </mgrwgt>
  </event>
  <event>
  5     66 0.18540751E-05 0.14210412E+03 0.75467711E-02 0.87011638E-01
        1 -1    0    0  502    0 0.00000000E+00 0.00000000E+00 0.73504080E+03 0.73504087E+03 0.32000000E+00 0.0000E+00 0.9000E+01
        1 -1    0    0  501    0 0.00000000E+00 0.00000000E+00 -.20076530E+04 0.20076530E+04 0.32000000E+00 0.0000E+00 0.9000E+01
       25  1    1    2    0    0 -.58155818E+03 -.67624821E+03 -.43151838E+03 0.99867646E+03 0.12500000E+03 0.0000E+00 0.9000E+01
        1  1    1    2  501    0 -.10731861E+03 0.93125780E+02 -.82931342E+03 0.84139797E+03 0.32000000E+00 0.0000E+00 0.9000E+01
        1  1    1    2  502    0 0.68887679E+03 0.58312243E+03 -.11780404E+02 0.90261946E+03 0.32000000E+00 0.0000E+00 0.9000E+01
#aMCatNLO 1  0  0  1  4 0.11971318D+03 0.00000000D+00  -5  6  0 0.00000000D+00 0.00000000D+00 0.00000000D+00 0.00000000D+00 0.00000000D+00
  <mgrwgt>
 0.2370279325D-04    9    2    0
 0.121478680941677D+04 0.000000000000000D+00 0.000000000000000D+00 0.121478680941677D+04
 0.121478680941677D+04 0.000000000000000D+00 0.000000000000000D+00 -.121478680941677D+04
 0.901327214320898D+03 -.581523225265276D+03 -.676236849998295D+03 0.360584034161991D+02
 0.515507866805252D+03 -.107327239659889D+03 0.931366997500342D+02 -.495534841887795D+03
 0.101273853770739D+04 0.688850464925165D+03 0.583100150248261D+03 0.459476438471596D+03
 0.000000000000000D+00 -.000000000000000D+00 -.000000000000000D+00 0.000000000000000D+00
 0.130774426613636D+04 0.000000000000000D+00 0.000000000000000D+00 0.130774426613636D+04
 0.125542397344906D+04 0.000000000000000D+00 0.000000000000000D+00 -.125542397344906D+04
 0.859164573808123D+03 -.559506611653615D+03 -.638898198421203D+03 0.360584034161991D+02
 0.517400301977422D+03 -.944097468310329D+02 0.115043872782802D+03 -.495534841887795D+03
 0.105595628847900D+04 0.714721448803477D+03 0.626975546802309D+03 0.459476438471596D+03
 0.130647075320886D+03 -.608050903188295D+02 -.103121221163908D+03 0.523202926872998D+02
0.144622030093D-04 0.000000000000D+00 0.000000000000D+00 0.369944235097D-07 0.000000000000D+00  6 1 1 25 1 1 21 0 0.11308321D+00 0.30886970D+00 0.94596808D+06 0.94596808D+06 0.94596808D+06 0.10494736D+01  1  2  2  1  6  1        1 0.130796712685D-04 0.100000000000D+01
0.276197998810D-05 0.000000000000D+00 -.555386675413D-07 0.369944235097D-07 0.000000000000D+00  6 1 1 25 1 1 21 2 0.11308321D+00 0.30886970D+00 0.94596808D+06 0.94596808D+06 0.94596808D+06 0.10494736D+01  1  2  3  1  6  1        1 0.275122373090D-05 0.100000000000D+01
-.986061822974D-05 0.000000000000D+00 0.000000000000D+00 0.369944235097D-07 0.000000000000D+00  6 1 1 25 1 1 21 2 0.11308321D+00 0.30886970D+00 0.94596808D+06 0.94596808D+06 0.94596808D+06 0.10494736D+01  1  2 15  1  6  1        1 -.982221702976D-05 0.100000000000D+01
0.374524885739D-08 0.000000000000D+00 0.000000000000D+00 0.369944235097D-07 0.000000000000D+00  6 1 1 25 1 1 21 2 0.12613461D+00 0.30886970D+00 0.10792026D+07 0.10792026D+07 0.10792026D+07 0.10456675D+01  1  2 12  1  6  1        1 0.307961722843D-08 0.100000000000D+01
-.761284375722D-05 0.000000000000D+00 0.000000000000D+00 0.369944235097D-07 0.000000000000D+00  6 1 1 25 1 1 21 2 0.11308321D+00 0.30886970D+00 0.94596808D+06 0.94596808D+06 0.94596808D+06 0.10494736D+01  1  2  4  1  6  1        1 -.758319629205D-05 0.100000000000D+01
-.181277194745D-03 0.000000000000D+00 -.354892685594D-04 0.369944235097D-07 0.000000000000D+00  6 1 1 25 1 1 21 2 0.12482095D+00 0.30886970D+00 0.94596808D+06 0.94596808D+06 0.94596808D+06 0.10494736D+01  1  2  5  1  6  1        1 -.154157949934D-03 0.100000000000D+01
0.184056083902D-03 0.000000000000D+00 0.353169086818D-04 0.369944235097D-07 0.000000000000D+00  6 1 1 25 1 1 21 2 0.11308321D+00 0.30886970D+00 0.94596808D+06 0.94596808D+06 0.94596808D+06 0.10494736D+01  1  2  6  1  6  1        1 0.183339295733D-03 0.100000000000D+01
0.656190704978D-10 0.000000000000D+00 0.000000000000D+00 0.369944235097D-07 0.000000000000D+00  6 21 1 25 1 1 -1 2 0.12613461D+00 0.30886970D+00 0.10792026D+07 0.10792026D+07 0.10792026D+07 0.10456675D+01  1  2 12  4  6  1        1 0.870983283156D-10 0.100000000000D+01
-.279832904817D-05 0.000000000000D+00 -.570224239320D-06 0.369944235097D-07 0.000000000000D+00  6 21 1 25 1 1 -1 2 0.12482095D+00 0.30886970D+00 0.94596808D+06 0.94596808D+06 0.94596808D+06 0.10494736D+01  1  2  5  4  6  1        1 -.390720094627D-05 0.100000000000D+01
  </mgrwgt>
  </event>
  <event>
  5     66 0.18540751E-05 0.90486497E+02 0.75467711E-02 0.91225417E-01
        1 -1    0    0  502    0 0.00000000E+00 0.00000000E+00 0.10988275E+04 0.10988276E+04 0.32000000E+00 0.0000E+00 0.9000E+01
        1 -1    0    0  501    0 -.00000000E+00 -.00000000E+00 -.23586661E+04 0.23586661E+04 0.32000000E+00 0.0000E+00 0.9000E+01
       25  1    1    2    0    0 -.53755654E+03 0.33750549E+03 -.20035208E+03 0.67723183E+03 0.12500000E+03 0.0000E+00 0.9000E+01
        1  1    1    2  501    0 0.57828332E+02 0.69587083E+02 -.18035635E+04 0.18058317E+04 0.32000000E+00 0.0000E+00 0.9000E+01
        1  1    1    2  502    0 0.47972821E+03 -.40709258E+03 0.74407701E+03 0.97443021E+03 0.32000000E+00 0.0000E+00 0.9000E+01
#aMCatNLO 1  0  0  5  1 0.53692363D+02 0.00000000D+00  -5  6  0 0.00000000D+00 0.00000000D+00 0.00000000D+00 0.00000000D+00 0.00000000D+00
  <mgrwgt>
 0.9451006481D-03    8    2    0
 0.160989668775263D+04 0.000000000000000D+00 0.000000000000000D+00 0.160989668775263D+04
 0.160989668775263D+04 -.000000000000000D+00 -.000000000000000D+00 -.160989668775263D+04
 0.648823325036308D+03 -.537545961081699D+03 0.337486883030074D+03 0.499364658197526D+02
 0.123350427184246D+04 0.578333074112413D+02 0.695924901790162D+02 -.123018087390357D+04
 0.133746577862650D+04 0.479712653670458D+03 -.407079373209090D+03 0.118024440808382D+04
 0.000000000000000D+00 0.000000000000000D+00 -.000000000000000D+00 0.000000000000000D+00
 0.160989668775263D+04 0.000000000000000D+00 0.000000000000000D+00 0.160989668775263D+04
 0.160989668775263D+04 -.000000000000000D+00 -.000000000000000D+00 -.160989668775263D+04
 0.648485897866549D+03 -.537233221390687D+03 0.337221495247574D+03 0.507059040838452D+02
 0.123204554790387D+04 0.584276724825681D+02 0.690881179077371D+02 -.122871854839177D+04
 0.706343177868419D+03 0.220894926311700D+03 -.179038033080166D+03 0.646584487257304D+03
 0.632918751866423D+03 0.257910622596419D+03 -.227271580075145D+03 0.531428157050626D+03
0.148199785255D-03 0.000000000000D+00 0.000000000000D+00 0.161136980262D-04 0.000000000000D+00  6 1 1 25 1 1 21 0 0.16905039D+00 0.36287172D+00 0.46685909D+06 0.46685909D+06 0.46685909D+06 0.10706218D+01  1  2  2  3  6  5        1 0.411819621120D-04 0.100000000000D+01
0.538099100716D-04 0.000000000000D+00 -.569126197280D-06 0.161136980262D-04 0.000000000000D+00  6 1 1 25 1 1 21 2 0.16905039D+00 0.36287172D+00 0.46685909D+06 0.46685909D+06 0.46685909D+06 0.10706218D+01  1  2  3  3  6  5        1 0.171393309730D-04 0.100000000000D+01
-.961004710545D-04 0.000000000000D+00 0.000000000000D+00 0.161136980262D-04 0.000000000000D+00  6 1 1 25 1 1 21 2 0.16905039D+00 0.36287172D+00 0.46685909D+06 0.46685909D+06 0.46685909D+06 0.10706218D+01  1  2 15  3  6  5        1 -.306095620281D-04 0.100000000000D+01
0.959010730773D-10 0.000000000000D+00 0.000000000000D+00 0.161136980262D-04 0.000000000000D+00  6 1 1 25 1 1 21 2 0.16905039D+00 0.36287172D+00 0.46586169D+06 0.46586169D+06 0.46586169D+06 0.10706878D+01  1  2 12  3  6  5        1 0.305554354399D-10 0.100000000000D+01
0.430702482748D-02 0.000000000000D+00 0.000000000000D+00 0.161136980262D-04 0.000000000000D+00  6 1 1 25 1 1 21 2 0.16905039D+00 0.36287172D+00 0.46586169D+06 0.46586169D+06 0.46586169D+06 0.10706878D+01  1  2 12  3  6  5        1 0.137227889982D-02 0.100000000000D+01
-.391000901477D-02 0.000000000000D+00 0.000000000000D+00 0.161136980262D-04 0.000000000000D+00  6 1 1 25 1 1 21 2 0.16905039D+00 0.36287172D+00 0.46685909D+06 0.46685909D+06 0.46685909D+06 0.10706218D+01  1  2  4  3  6  5        1 -.124540142369D-02 0.100000000000D+01
-.438828239180D-02 0.000000000000D+00 0.000000000000D+00 0.161136980262D-04 0.000000000000D+00  6 1 1 25 1 1 21 2 0.16905039D+00 0.36287172D+00 0.46685909D+06 0.46685909D+06 0.46685909D+06 0.10706218D+01  1  2  5  3  6  5        1 -.139773926803D-02 0.100000000000D+01
0.687013818687D-02 0.000000000000D+00 -.000000000000D+00 0.161136980262D-04 0.000000000000D+00  6 1 1 25 1 1 21 2 0.16905039D+00 0.36287172D+00 0.46685909D+06 0.46685909D+06 0.46685909D+06 0.10706218D+01  1  2  6  3  6  5        1 0.218825067833D-02 0.100000000000D+01
  </mgrwgt>
  </event>
  <event>
  5     66 -.18540751E-05 0.29093007E+02 0.75467711E-02 0.93050743E-01
        1 -1    0    0  502    0 0.00000000E+00 0.00000000E+00 0.28051341E+03 0.28051359E+03 0.32000000E+00 0.0000E+00 0.9000E+01
        1 -1    0    0  501    0 -.00000000E+00 -.00000000E+00 -.18657821E+04 0.18657821E+04 0.32000000E+00 0.0000E+00 0.9000E+01
       25  1    1    2    0    0 0.50165079E+03 0.23024101E+03 -.10445170E+04 0.11879837E+04 0.12500000E+03 0.0000E+00 0.9000E+01
        1  1    1    2  501    0 -.17734126E+02 0.23066519E+02 -.39082125E+03 0.39190294E+03 0.32000000E+00 0.0000E+00 0.9000E+01
        1  1    1    2  502    0 -.48391667E+03 -.25330753E+03 -.14993045E+03 0.56640912E+03 0.32000000E+00 0.0000E+00 0.9000E+01
#aMCatNLO 1  0  0  5  1 0.46421691D+02 0.00000000D+00  -5  6  0 0.00000000D+00 0.00000000D+00 0.00000000D+00 0.00000000D+00 0.00000000D+00
  <mgrwgt>
 -.1830561736D-02    4    2    0
 0.723448083197129D+03 0.000000000000000D+00 0.000000000000000D+00 0.723448083197129D+03
 0.723448083197129D+03 -.000000000000000D+00 -.000000000000000D+00 -.723448083197129D+03
 0.617837435281804D+03 0.501654440663892D+03 0.230246006890709D+03 -.247846111344679D+03
 0.153120852921602D+03 -.177325243216090D+02 0.230642720573053D+02 -.150331608569486D+03
 0.675937878190852D+03 -.483921916342283D+03 -.253310278948014D+03 0.398177719914164D+03
 0.000000000000000D+00 -.000000000000000D+00 0.000000000000000D+00 0.000000000000000D+00
 0.723448083197129D+03 0.000000000000000D+00 0.000000000000000D+00 0.723448083197129D+03
 0.723448083197129D+03 -.000000000000000D+00 -.000000000000000D+00 -.723448083197129D+03
 0.606889038998189D+03 0.493459503730701D+03 0.225956344260427D+03 -.241103202638328D+03
 0.151567861146501D+03 -.197712691748310D+02 0.219970853686407D+02 -.148654100794516D+03
 0.274806432902638D+03 -.129017427997252D+03 -.167238394634117D+03 0.175796468104025D+03
 0.413632833346931D+03 -.344670806558618D+03 -.807150349949509D+02 0.213960835328818D+03
0.324198273023D-03 0.000000000000D+00 0.000000000000D+00 0.631586103312D-06 0.000000000000D+00  6 1 1 25 1 1 21 0 0.43155925D-01 0.28704342D+00 0.32561319D+06 0.32561319D+06 0.32561319D+06 0.10819292D+01  1  2  2  3  6  5        1 0.151442006185D-02 0.100000000000D+01
0.116960465703D-03 0.000000000000D+00 -.124500673177D-05 0.631586103312D-06 0.000000000000D+00  6 1 1 25 1 1 21 2 0.43155925D-01 0.28704342D+00 0.32561319D+06 0.32561319D+06 0.32561319D+06 0.10819292D+01  1  2  3  3  6  5        1 0.639546973856D-03 0.100000000000D+01
-.185153003475D-03 0.000000000000D+00 0.000000000000D+00 0.631586103312D-06 0.000000000000D+00  6 1 1 25 1 1 21 2 0.43155925D-01 0.28704342D+00 0.32561319D+06 0.32561319D+06 0.32561319D+06 0.10819292D+01  1  2 15  3  6  5        1 -.101242793760D-02 0.100000000000D+01
-.543538335593D-03 0.000000000000D+00 0.000000000000D+00 0.631586103312D-06 0.000000000000D+00  6 1 1 25 1 1 21 2 0.43155925D-01 0.28704342D+00 0.32561319D+06 0.32561319D+06 0.32561319D+06 0.10819292D+01  1  2  5  3  6  5        1 -.297210083437D-02 0.100000000000D+01
  </mgrwgt>
  </event>
  <event>
  6     66 0.18540751E-05 0.13398968E+03 0.75467711E-02 0.94732241E-01
        1 -1    0    0  503    0 0.00000000E+00 0.00000000E+00 0.12958920E+04 0.12958920E+04 0.32000000E+00 0.0000E+00 0.9000E+01
        1 -1    0    0  501    0 0.00000000E+00 0.00000000E+00 -.18069738E+04 0.18069739E+04 0.32000000E+00 0.0000E+00 0.9000E+01
       25  1    1    2    0    0 -.29108382E+03 0.37943340E+03 -.37498625E+03 0.62043468E+03 0.12500000E+03 0.0000E+00 0.9000E+01
        1  1    1    2  501    0 0.97722668E+02 -.10921435E+03 -.12786491E+04 0.12870202E+04 0.32000000E+00 0.0000E+00 0.9000E+01
        1  1    1    2  502    0 0.20767354E+03 -.24954533E+03 0.10865761E+04 0.11340410E+04 0.32000000E+00 0.0000E+00 0.9000E+01
       21  1    1    2  503  502 -.14312386E+02 -.20673726E+02 0.55977403E+02 0.61370021E+02 0.75000000E+00 0.0000E+00 0.9000E+01
#aMCatNLO 2  0  0  1  4 0.25144529D+02 0.00000000D+00  -5  6  0 0.00000000D+00 0.00000000D+00 0.00000000D+00 0.00000000D+00 0.00000000D+00
  <mgrwgt>
 0.2575095090D-02    5    2    0
 0.149403051317112D+04 0.000000000000000D+00 0.000000000000000D+00 0.149403051317112D+04
 0.149403051317112D+04 0.000000000000000D+00 0.000000000000000D+00 -.149403051317112D+04
 0.559119147037114D+03 -.293768756879380D+03 0.375565606356887D+03 -.263893185563473D+03
 0.106770004108393D+04 0.926157792253975D+02 -.116607886909581D+03 -.105726453448490D+04
 0.136124183822120D+04 0.201152977653982D+03 -.258957719447306D+03 0.132115772004837D+04
 0.000000000000000D+00 -.000000000000000D+00 -.000000000000000D+00 0.000000000000000D+00
 0.156493665621504D+04 0.000000000000000D+00 0.000000000000000D+00 0.156493665621504D+04
 0.149631424409956D+04 0.000000000000000D+00 0.000000000000000D+00 -.149631424409956D+04
 0.560330286947213D+03 -.291087802819096D+03 0.379438147968098D+03 -.263893185563473D+03
 0.106737467597840D+04 0.977290403142385D+02 -.109221965371847D+03 -.105726453448490D+04
 0.136046185713112D+04 0.207671148418492D+03 -.249542456467427D+03 0.132115772004837D+04
 0.730840802578637D+02 -.143123859136345D+02 -.206737261288244D+02 0.686224121154847D+02
-.186559521179D-09 0.000000000000D+00 0.000000000000D+00 0.469230526609D-04 0.000000000000D+00  6 1 1 25 1 1 21 2 0.19956977D+00 0.27757134D+00 0.24534988D+06 0.24534988D+06 0.24534988D+06 0.10910731D+01  1  2 13  1  6  1        1 -.110836247212D-09 0.100000000000D+01
-.547257105894D-02 0.000000000000D+00 0.000000000000D+00 0.469230526609D-04 0.000000000000D+00  6 1 1 25 1 1 21 2 0.19033454D+00 0.27757134D+00 0.23510010D+06 0.23510010D+06 0.23510010D+06 0.10924725D+01  1  2  8  1  6  1        1 -.360180210653D-02 0.100000000000D+01
-.631638677398D-02 0.000000000000D+00 0.000000000000D+00 0.469230526609D-04 0.000000000000D+00  6 1 1 25 1 1 21 2 0.19949205D+00 0.27757134D+00 0.23510010D+06 0.23510010D+06 0.23510010D+06 0.10924725D+01  1  2  9  1  6  1        1 -.377855591816D-02 0.100000000000D+01
0.630941936597D-02 0.000000000000D+00 0.000000000000D+00 0.469230526609D-04 0.000000000000D+00  6 1 1 25 1 1 21 2 0.19033454D+00 0.27757134D+00 0.23510010D+06 0.23510010D+06 0.23510010D+06 0.10924725D+01  1  2 10  1  6  1        1 0.415257832535D-02 0.100000000000D+01
0.978801909155D-02 0.000000000000D+00 0.000000000000D+00 0.469230526609D-04 0.205705649684D-06  6 1 1 25 1 1 21 2 0.19936775D+00 0.27799562D+00 0.24534988D+06 0.24534988D+06 0.24534988D+06 0.10910731D+01  1  2  1  1  6  1        1 0.580287490045D-02 0.100000000000D+01
  </mgrwgt>
  </event>
  <event>
  6     66 0.18540751E-05 0.25497603E+02 0.75467711E-02 0.95435171E-01
        1 -1    0    0  502    0 0.00000000E+00 0.00000000E+00 0.65128965E+03 0.65128973E+03 0.32000000E+00 0.0000E+00 0.9000E+01
        1 -1    0    0  501    0 -.00000000E+00 -.00000000E+00 -.68169637E+03 0.68169644E+03 0.32000000E+00 0.0000E+00 0.9000E+01
       25  1    1    2    0    0 -.17677379E+03 0.41617000E+03 -.26516203E+03 0.53887136E+03 0.12500000E+03 0.0000E+00 0.9000E+01
        1  1    1    2  501    0 0.27836266E+02 -.96702512E+01 -.18676675E+03 0.18907748E+03 0.32000000E+00 0.0000E+00 0.9000E+01
        1  1    1    2  503    0 0.14266571E+03 -.38013126E+03 0.38485819E+03 0.55943651E+03 0.32000000E+00 0.0000E+00 0.9000E+01
       21  1    1    2  502  503 0.62718174E+01 -.26368490E+02 0.36663879E+02 0.45600827E+02 0.75000000E+00 0.0000E+00 0.9000E+01
#aMCatNLO 2  0  0  5  1 0.81601428D+01 0.00000000D+00  -5  6  0 0.00000000D+00 0.00000000D+00 0.00000000D+00 0.00000000D+00 0.00000000D+00
  <mgrwgt>
 0.2702047185D-01    6    2    0
 0.666319662343583D+03 0.000000000000000D+00 0.000000000000000D+00 0.666319662343583D+03
 0.666319662343583D+03 -.000000000000000D+00 -.000000000000000D+00 -.666319662343583D+03
 0.533152303153602D+03 -.176855212714307D+03 0.416354769256148D+03 -.252976912407888D+03
 0.185083027288952D+03 0.278263490412721D+02 -.960573195209093D+01 -.182726985426731D+03
 0.614403994244612D+03 0.149028863673035D+03 -.406749037304057D+03 0.435703897834619D+03
 0.000000000000000D+00 0.000000000000000D+00 0.000000000000000D+00 0.000000000000000D+00
 0.666319662343583D+03 0.000000000000000D+00 0.000000000000000D+00 0.666319662343583D+03
 0.666319662343583D+03 -.000000000000000D+00 -.000000000000000D+00 -.666319662343583D+03
 0.532859067864832D+03 -.176779051952796D+03 0.416146901359543D+03 -.252754247215155D+03
 0.185014446733266D+03 0.278527905091788D+02 -.967789945945078D+01 -.182649680599012D+03
 0.568559291521964D+03 0.142719405806063D+03 -.380265933466785D+03 0.397855072893330D+03
 0.462065185671035D+02 0.620685563755440D+01 -.262030684333070D+02 0.375488549208371D+02
-.632940279797D-07 0.000000000000D+00 0.000000000000D+00 0.198930802170D-05 0.000000000000D+00  6 1 1 25 1 1 21 2 0.10019842D+00 0.10487638D+00 0.21700685D+06 0.21700685D+06 0.21700685D+06 0.10951136D+01  1  2 13  3  6  5        1 -.830423549984D-06 0.100000000000D+01
-.405730533011D-02 0.000000000000D+00 0.000000000000D+00 0.198930802170D-05 0.000000000000D+00  6 1 1 25 1 1 21 2 0.10019842D+00 0.10487638D+00 0.21700685D+06 0.21700685D+06 0.21700685D+06 0.10951136D+01  1  2 13  3  6  5        1 -.532322243211D-01 0.100000000000D+01
-.135779630088D-02 0.000000000000D+00 0.000000000000D+00 0.198930802170D-05 0.000000000000D+00  6 1 1 25 1 1 21 2 0.10019842D+00 0.10487638D+00 0.21712847D+06 0.21712847D+06 0.21712847D+06 0.10950950D+01  1  2  8  3  6  5        1 -.178134339412D-01 0.100000000000D+01
-.769097785424D-03 0.000000000000D+00 0.000000000000D+00 0.198930802170D-05 0.000000000000D+00  6 1 1 25 1 1 21 2 0.10019842D+00 0.10487638D+00 0.21712847D+06 0.21712847D+06 0.21712847D+06 0.10950950D+01  1  2  9  3  6  5        1 -.100900794811D-01 0.100000000000D+01
0.829106440681D-03 0.000000000000D+00 0.000000000000D+00 0.198930802170D-05 0.000000000000D+00  6 1 1 25 1 1 21 2 0.10019842D+00 0.10487638D+00 0.21712847D+06 0.21712847D+06 0.21712847D+06 0.10950950D+01  1  2 10  3  6  5        1 0.108773553159D-01 0.100000000000D+01
0.741455740932D-02 0.000000000000D+00 0.000000000000D+00 0.198930802170D-05 0.251478054051D-06  6 1 1 25 1 1 21 2 0.10019842D+00 0.10487638D+00 0.21700685D+06 0.21700685D+06 0.21700685D+06 0.10951136D+01  1  2  1  3  6  5        1 0.972796847025D-01 0.100000000000D+01
  </mgrwgt>
  </event>
  <event>
  5     66 0.18540751E-05 0.12819897E+03 0.75467711E-02 0.91734496E-01
        1 -1    0    0  502    0 0.00000000E+00 0.00000000E+00 0.82846813E+03 0.82846819E+03 0.32000000E+00 0.0000E+00 0.9000E+01
        1 -1    0    0  501    0 0.00000000E+00 0.00000000E+00 -.12282493E+04 0.12282493E+04 0.32000000E+00 0.0000E+00 0.9000E+01
       25  1    1    2    0    0 -.55210101E+03 -.93570524E+02 -.15491851E+03 0.59430271E+03 0.12500000E+03 0.0000E+00 0.9000E+01
        1  1    1    2  501    0 0.10629278E+02 0.12774292E+03 -.72601716E+03 0.73724641E+03 0.32000000E+00 0.0000E+00 0.9000E+01
        1  1    1    2  502    0 0.54147173E+03 -.34172400E+02 0.48115453E+03 0.72516838E+03 0.32000000E+00 0.0000E+00 0.9000E+01
#aMCatNLO 1  0  0  2  5 0.43953493D+02 0.00000000D+00  -5  6  0 0.00000000D+00 0.00000000D+00 0.00000000D+00 0.00000000D+00 0.00000000D+00
  <mgrwgt>
 0.3635142634D-02    9    2    0
 0.100874450501014D+04 0.000000000000000D+00 0.000000000000000D+00 0.100874450501014D+04
 0.100874450501014D+04 0.000000000000000D+00 0.000000000000000D+00 -.100874450501014D+04
 0.575136302039356D+03 -.552079908695972D+03 -.935864228989215D+02 -.400764492780569D+02
 0.607777249939755D+03 0.106326357089439D+02 0.127757279603298D+03 -.594102861557303D+03
 0.834575458041161D+03 0.541447272987028D+03 -.341708567043761D+02 0.634179310835360D+03
 0.000000000000000D+00 -.000000000000000D+00 -.000000000000000D+00 -.000000000000000D+00
 0.102726098170975D+04 0.000000000000000D+00 0.000000000000000D+00 0.102726098170975D+04
 0.103540913253127D+04 0.000000000000000D+00 0.000000000000000D+00 -.103540913253127D+04
 0.564639292128579D+03 -.542428246948595D+03 -.857788163884325D+02 -.400764492780569D+02
 0.609852081636322D+03 0.209435657746440D+02 0.136098194029980D+03 -.594102861557303D+03
 0.843476370058502D+03 0.555657077726012D+03 -.226759901314755D+02 0.634179310835360D+03
 0.447023704176152D+02 -.341723965520614D+02 -.276433875100718D+02 -.814815082152665D+01
0.412365120574D-03 0.000000000000D+00 0.000000000000D+00 0.786205596370D-06 0.000000000000D+00  6 1 1 25 1 1 21 0 0.12745664D+00 0.18896143D+00 0.38717126D+06 0.38717126D+06 0.38717126D+06 0.10764497D+01  1  2  2  2  6  2        1 0.110406660323D-02 0.100000000000D+01
0.746442866293D-04 0.000000000000D+00 -.158359064124D-05 0.786205596370D-06 0.000000000000D+00  6 1 1 25 1 1 21 2 0.12745664D+00 0.18896143D+00 0.38717126D+06 0.38717126D+06 0.38717126D+06 0.10764497D+01  1  2  3  2  6  2        1 0.231578041676D-03 0.100000000000D+01
-.265630949702D-03 0.000000000000D+00 0.000000000000D+00 0.786205596370D-06 0.000000000000D+00  6 1 1 25 1 1 21 2 0.12745664D+00 0.18896143D+00 0.38717126D+06 0.38717126D+06 0.38717126D+06 0.10764497D+01  1  2 15  2  6  2        1 -.824099176487D-03 0.100000000000D+01
0.467470595256D-08 0.000000000000D+00 0.000000000000D+00 0.786205596370D-06 0.000000000000D+00  6 1 1 25 1 1 21 2 0.12745664D+00 0.19629459D+00 0.42314279D+06 0.42314279D+06 0.42314279D+06 0.10736711D+01  1  2 12  2  6  2        1 0.132860241142D-07 0.100000000000D+01
-.355125054641D-04 0.000000000000D+00 0.000000000000D+00 0.786205596370D-06 0.000000000000D+00  6 1 1 25 1 1 21 2 0.12745664D+00 0.18896143D+00 0.38717126D+06 0.38717126D+06 0.38717126D+06 0.10764497D+01  1  2  4  2  6  2        1 -.110174761415D-03 0.100000000000D+01
-.142196413036D-01 0.000000000000D+00 -.232522715892D-02 0.786205596370D-06 0.000000000000D+00  6 1 1 25 1 1 21 2 0.12745664D+00 0.19621297D+00 0.38717126D+06 0.38717126D+06 0.38717126D+06 0.10764497D+01  1  2  5  2  6  2        1 -.408686385578D-01 0.100000000000D+01
0.142987120335D-01 0.000000000000D+00 0.232357942707D-02 0.786205596370D-06 0.000000000000D+00  6 1 1 25 1 1 21 2 0.12745664D+00 0.18896143D+00 0.38717126D+06 0.38717126D+06 0.38717126D+06 0.10764497D+01  1  2  6  2  6  2        1 0.443606320154D-01 0.100000000000D+01
0.855776920612D-10 0.000000000000D+00 0.000000000000D+00 0.786205596370D-06 0.000000000000D+00  6 1 21 25 1 1 -1 2 0.12745664D+00 0.19629459D+00 0.42314279D+06 0.42314279D+06 0.42314279D+06 0.10736711D+01  1  2 12  5  6  2        1 0.232034772427D-09 0.100000000000D+01
-.937870354915D-04 0.000000000000D+00 -.155290759434D-04 0.786205596370D-06 0.000000000000D+00  6 1 21 25 1 1 -1 2 0.12745664D+00 0.19621297D+00 0.38717126D+06 0.38717126D+06 0.38717126D+06 0.10764497D+01  1  2  5  5  6  2        1 -.258235048192D-03 0.100000000000D+01
  </mgrwgt>
  </event>
  <event>
  6     66 -.18540751E-05 0.20466331E+02 0.75467711E-02 0.90944026E-01
        1 -1    0    0  502    0 0.00000000E+00 0.00000000E+00 0.17672859E+04 0.17672859E+04 0.32000000E+00 0.0000E+00 0.9000E+01
        1 -1    0    0  501    0 0.00000000E+00 0.00000000E+00 -.30055782E+03 0.30055799E+03 0.32000000E+00 0.0000E+00 0.9000E+01
       25  1    1    2    0    0 0.67201580E+03 0.35093083E+02 0.81412983E+03 0.10636114E+04 0.12500000E+03 0.0000E+00 0.9000E+01
        1  1    1    2  501    0 -.65961069E+03 -.30606484E+02 0.46399208E+03 0.80703889E+03 0.32000000E+00 0.0000E+00 0.9000E+01
        1  1    1    2  503    0 0.18304523E+02 -.15895537E+02 0.93856598E+02 0.96937542E+02 0.32000000E+00 0.0000E+00 0.9000E+01
       21  1    1    2  502  503 -.30709635E+02 0.11408937E+02 0.94749566E+02 0.10025611E+03 0.75000000E+00 0.0000E+00 0.9000E+01
#aMCatNLO 2  0  0  5  1 0.18322483D+02 0.00000000D+00  -5  6  0 0.00000000D+00 0.00000000D+00 0.00000000D+00 0.00000000D+00 0.00000000D+00
  <mgrwgt>
 -.1765454375D-03    2    2    0
 0.728815342016786D+03 0.000000000000000D+00 0.000000000000000D+00 0.728815342016786D+03
 0.728815342016786D+03 -.000000000000000D+00 -.000000000000000D+00 -.728815342016786D+03
 0.690689913100874D+03 0.674055381965364D+03 0.356760977226164D+02 0.761847370154060D+02
 0.678991511808281D+03 -.658554822953100D+03 -.300699566692612D+02 -.162575570055325D+03
 0.879492591244171D+02 -.155005590122637D+02 -.560614105335513D+01 0.863908330399185D+02
 0.000000000000000D+00 -.000000000000000D+00 0.000000000000000D+00 0.000000000000000D+00
 0.728815342016786D+03 0.000000000000000D+00 0.000000000000000D+00 0.728815342016786D+03
 0.728815342016786D+03 -.000000000000000D+00 -.000000000000000D+00 -.728815342016786D+03
 0.690134128218168D+03 0.672430825602162D+03 0.350885387762562D+02 0.852390412780020D+02
 0.678495116977689D+03 -.660151922565191D+03 -.306475852370152D+02 -.153674293280268D+03
 0.420927864649306D+02 0.181876096486615D+02 -.156631948523638D+02 0.345785750815016D+02
 0.469086523727843D+02 -.304665126856319D+02 0.112222413131228D+02 0.338566769207639D+02
-.377475747806D-04 0.000000000000D+00 0.000000000000D+00 0.101969592619D-06 0.000000000000D+00  6 1 1 25 1 1 21 2 0.27189015D+00 0.46239680D-01 0.46389691D+06 0.46389691D+06 0.46389691D+06 0.10708184D+01  1  2  8  3  6  5        1 -.210694645344D-03 0.100000000000D+01
0.615614997266D-05 0.000000000000D+00 0.000000000000D+00 0.101969592619D-06 0.304486757533D-10  6 1 1 25 1 1 21 2 0.27189015D+00 0.46239680D-01 0.49152936D+06 0.49152936D+06 0.49152936D+06 0.10690352D+01  1  2  1  3  6  5        1 0.341492078333D-04 0.100000000000D+01
  </mgrwgt>
  </event>
  <event>
  6     66 -.18540751E-05 0.11854311E+03 0.75467711E-02 0.90135268E-01
        1 -1    0    0  502    0 0.00000000E+00 0.00000000E+00 0.45353643E+04 0.45353644E+04 0.32000000E+00 0.0000E+00 0.9000E+01
        1 -1    0    0  503    0 0.00000000E+00 0.00000000E+00 -.14541484E+03 0.14541520E+03 0.32000000E+00 0.0000E+00 0.9000E+01
       25  1    1    2    0    0 0.71833711E+03 -.15395158E+03 0.24422083E+04 0.25533734E+04 0.12500000E+03 0.0000E+00 0.9000E+01
        1  1    1    2  501    0 -.63652682E+03 0.71311780E+02 0.11373529E+04 0.13053059E+04 0.32000000E+00 0.0000E+00 0.9000E+01
        1  1    1    2  502    0 -.89380744E+02 0.83850582E+02 0.79904198E+03 0.80838606E+03 0.32000000E+00 0.0000E+00 0.9000E+01
       21  1    1    2  503  501 0.75704499E+01 -.12107837E+01 0.11346246E+02 0.13714135E+02 0.75000000E+00 0.0000E+00 0.9000E+01
#aMCatNLO 2  0  0  2  4 0.76666622D+01 0.00000000D+00  -5  6  0 0.00000000D+00 0.00000000D+00 0.00000000D+00 0.00000000D+00 0.00000000D+00
  <mgrwgt>
 -.8035277901D-05    4    2    0
 0.807662425142236D+03 0.000000000000000D+00 0.000000000000000D+00 0.807662425142236D+03
 0.807662425142236D+03 0.000000000000000D+00 0.000000000000000D+00 -.807662425142236D+03
 0.760856694117925D+03 0.721937458913481D+03 -.154457326877226D+03 0.135007957452683D+03
 0.685508368254751D+03 -.633480236016323D+03 0.708560394773114D+02 -.252198206166468D+03
 0.168959787911797D+03 -.884572228971571D+02 0.836012873999150D+02 0.117190248713785D+03
 0.000000000000000D+00 0.000000000000000D+00 -.000000000000000D+00 -.000000000000000D+00
 0.809893253188891D+03 0.000000000000000D+00 0.000000000000000D+00 0.809893253188891D+03
 0.814285475652325D+03 0.000000000000000D+00 0.000000000000000D+00 -.814285475652325D+03
 0.757366025960945D+03 0.718379795465312D+03 -.153888330199355D+03 0.135007957452683D+03
 0.688538095467866D+03 -.636700050089332D+03 0.713710020468729D+02 -.252198206166468D+03
 0.169438922526801D+03 -.892501953030583D+02 0.837281118371263D+02 0.117190248713785D+03
 0.883568488560396D+01 0.757044992707807D+01 -.121078368464386D+01 -.439222246343398D+01
-.265103695565D-06 0.000000000000D+00 0.000000000000D+00 0.270770641187D-08 0.000000000000D+00  6 1 1 25 1 1 21 2 0.69581283D+00 0.22543218D-01 0.57453859D+06 0.57453859D+06 0.57453859D+06 0.10642712D+01  1  2 13  2  6  2        1 -.224934352993D-07 0.100000000000D+01
-.419331873825D-04 0.000000000000D+00 0.000000000000D+00 0.270770641187D-08 0.000000000000D+00  6 1 1 25 1 1 21 2 0.69581283D+00 0.22484975D-01 0.57453859D+06 0.57453859D+06 0.57453859D+06 0.10642712D+01  1  2 13  2  6  2        1 -.357020713209D-05 0.100000000000D+01
-.524006594652D-03 0.000000000000D+00 0.000000000000D+00 0.270770641187D-08 0.000000000000D+00  6 1 1 25 1 1 21 2 0.69581283D+00 0.22189147D-01 0.56845994D+06 0.56845994D+06 0.56845994D+06 0.10645939D+01  1  2  8  2  6  2        1 -.454810830260D-04 0.100000000000D+01
0.494482898665D-03 0.000000000000D+00 0.000000000000D+00 0.270770641187D-08 0.843957487813D-10  6 1 1 25 1 1 21 2 0.69773472D+00 0.22371104D-01 0.57453859D+06 0.57453859D+06 0.57453859D+06 0.10642712D+01  1  2  1  2  6  2        1 0.410385056926D-04 0.100000000000D+01
  </mgrwgt>
  </event>
  <event>
  5     66 0.18540751E-05 0.16759926E+03 0.75467711E-02 0.91095645E-01
        1 -1    0    0  502    0 0.00000000E+00 0.00000000E+00 0.76697829E+03 0.76697836E+03 0.32000000E+00 0.0000E+00 0.9000E+01
        1 -1    0    0  501    0 0.00000000E+00 0.00000000E+00 -.89738277E+03 0.89738282E+03 0.32000000E+00 0.0000E+00 0.9000E+01
       25  1    1    2    0    0 -.76471472E+02 -.50745229E+03 -.14601826E+03 0.54799821E+03 0.12500000E+03 0.0000E+00 0.9000E+01
        1  1    1    2  501    0 -.31695903E+02 0.37939584E+03 -.46871064E+03 0.60385065E+03 0.32000000E+00 0.0000E+00 0.9000E+01
        1  1    1    2  502    0 0.10816737E+03 0.12805644E+03 0.48432443E+03 0.51251233E+03 0.32000000E+00 0.0000E+00 0.9000E+01
#aMCatNLO 1  0  0  2  4 0.17000282D+01 0.00000000D+00  -5  6  0 0.00000000D+00 0.00000000D+00 0.00000000D+00 0.00000000D+00 0.00000000D+00
  <mgrwgt>
 0.1078722951D-03    7    2    0
 0.829622326874199D+03 0.000000000000000D+00 0.000000000000000D+00 0.829622326874199D+03
 0.829622326874199D+03 0.000000000000000D+00 0.000000000000000D+00 -.829622326874199D+03
 0.538240657922301D+03 -.764574406936252D+02 -.507505418330667D+03 -.103298189568969D+03
 0.568936618097305D+03 -.316923778891764D+02 0.379469761578566D+03 -.422714050681113D+03
 0.552067377728792D+03 0.108149818582802D+03 0.128035656752101D+03 0.526012240250082D+03
 0.000000000000000D+00 -.000000000000000D+00 -.000000000000000D+00 -.000000000000000D+00
 0.858319017281436D+03 0.000000000000000D+00 0.000000000000000D+00 0.858319017281436D+03
 0.146226477498953D+04 0.000000000000000D+00 0.000000000000000D+00 -.146226477498953D+04
 0.495056182989135D+03 -.181342211609087D+02 -.467393044846019D+03 -.103298189568969D+03
 0.600307944510877D+03 0.343042501971732D+02 0.424859598006270D+03 -.422714050681113D+03
 0.579527230782399D+03 0.172021339486729D+03 0.171963929609083D+03 0.526012240250082D+03
 0.645692433988551D+03 -.188191368522993D+03 -.129430482769334D+03 -.603945757708091D+03
0.123958747430D-04 0.000000000000D+00 0.000000000000D+00 0.390778287658D-06 0.000000000000D+00  6 1 1 25 1 1 21 0 0.11799667D+00 0.13805890D+00 0.28978057D+06 0.28978057D+06 0.28978057D+06 0.10856672D+01  1  2  2  2  6  2        1 0.675248823000D-04 0.100000000000D+01
0.141170135949D-05 0.000000000000D+00 -.476034229218D-07 0.390778287658D-06 0.000000000000D+00  6 1 1 25 1 1 21 2 0.11799667D+00 0.13805890D+00 0.28978057D+06 0.28978057D+06 0.28978057D+06 0.10856672D+01  1  2  3  2  6  2        1 0.906406380131D-05 0.100000000000D+01
-.775730636260D-05 0.000000000000D+00 0.000000000000D+00 0.390778287658D-06 0.000000000000D+00  6 1 1 25 1 1 21 2 0.11799667D+00 0.13805890D+00 0.28978057D+06 0.28978057D+06 0.28978057D+06 0.10856672D+01  1  2 15  2  6  2        1 -.498070780510D-04 0.100000000000D+01
-.251721294103D-04 0.000000000000D+00 0.000000000000D+00 0.390778287658D-06 0.000000000000D+00  6 1 1 25 1 1 21 2 0.11799667D+00 0.13805890D+00 0.28978057D+06 0.28978057D+06 0.28978057D+06 0.10856672D+01  1  2  4  2  6  2        1 -.161621851149D-03 0.100000000000D+01
-.633571889030D-04 0.000000000000D+00 -.732436249056D-05 0.390778287658D-06 0.000000000000D+00  6 1 1 25 1 1 21 2 0.11799667D+00 0.24601760D+00 0.28978057D+06 0.28978057D+06 0.28978057D+06 0.10856672D+01  1  2  5  2  6  2        1 -.128350461374D-03 0.100000000000D+01
0.586059481060D-04 0.000000000000D+00 0.625172160246D-05 0.390778287658D-06 0.000000000000D+00  6 1 1 25 1 1 21 2 0.11799667D+00 0.13805890D+00 0.28978057D+06 0.28978057D+06 0.28978057D+06 0.10856672D+01  1  2  6  2  6  2        1 0.376289254946D-03 0.100000000000D+01
-.364053298700D-05 0.000000000000D+00 -.465175814509D-06 0.390778287658D-06 0.000000000000D+00  6 1 21 25 1 1 -1 2 0.11799667D+00 0.24601760D+00 0.28978057D+06 0.28978057D+06 0.28978057D+06 0.10856672D+01  1  2  5  5  6  2        1 -.522651539194D-05 0.100000000000D+01
  </mgrwgt>
  </event>
  <event>
  5     66 0.18540751E-05 0.13591536E+03 0.75467711E-02 0.92186577E-01
        1 -1    0    0  502    0 0.00000000E+00 0.00000000E+00 0.25075962E+04 0.25075962E+04 0.32000000E+00 0.0000E+00 0.9000E+01
        1 -1    0    0  501    0 0.00000000E+00 0.00000000E+00 -.25043034E+04 0.25043034E+04 0.32000000E+00 0.0000E+00 0.9000E+01
       25  1    1    2    0    0 -.33013962E+03 -.48082791E+03 -.21239053E+03 0.63318432E+03 0.12500000E+03 0.0000E+00 0.9000E+01
        1  1    1    2  501    0 0.13527690E+03 0.13095057E+02 -.20512987E+04 0.20557961E+04 0.32000000E+00 0.0000E+00 0.9000E+01
        1  1    1    2  502    0 0.19486273E+03 0.46773285E+03 0.22669821E+04 0.23229191E+04 0.32000000E+00 0.0000E+00 0.9000E+01
#aMCatNLO 1  0  0  5  1 0.46913978D+02 0.00000000D+00  -5  6  0 0.00000000D+00 0.00000000D+00 0.00000000D+00 0.00000000D+00 0.00000000D+00
  <mgrwgt>
 0.4048382748D-02    8    2    0
 0.250594925668862D+04 0.000000000000000D+00 0.000000000000000D+00 0.250594925668862D+04
 0.250594925668862D+04 -.000000000000000D+00 -.000000000000000D+00 -.250594925668862D+04
 0.633309206843042D+03 -.330144361417435D+03 -.480825545306264D+03 -.212760539286240D+03
 0.205717507353989D+04 0.135282974246663D+03 0.130959081455208D+02 -.205268027156269D+04
 0.232141423299430D+04 0.194861387170773D+03 0.467729637160743D+03 0.226544081084893D+04
 0.000000000000000D+00 0.000000000000000D+00 0.000000000000000D+00 0.000000000000000D+00
 0.250594925668862D+04 0.000000000000000D+00 0.000000000000000D+00 0.250594925668862D+04
 0.250594925668862D+04 -.000000000000000D+00 -.000000000000000D+00 -.250594925668862D+04
 0.633048650653858D+03 -.330102645922754D+03 -.480725414780281D+03 -.212275558729200D+03
 0.205561444947254D+04 0.135418454947048D+03 0.134211051471101D+02 -.205110518522983D+04
 0.199603693143888D+04 0.122461604652242D+03 0.390523666770338D+03 0.195362684582962D+04
 0.327198481811948D+03 0.722225863234639D+02 0.767806428628330D+02 0.309753898129408D+03
0.220423378446D-02 0.000000000000D+00 0.000000000000D+00 0.142624313990D-03 0.000000000000D+00  6 1 1 25 1 1 21 0 0.38578403D+00 0.38527744D+00 0.38385059D+06 0.38385059D+06 0.38385059D+06 0.10767202D+01  1  2  2  3  6  5        1 0.541981034606D-04 0.100000000000D+01
0.551253568309D-03 0.000000000000D+00 -.846483812040D-05 0.142624313990D-03 0.000000000000D+00  6 1 1 25 1 1 21 2 0.38578403D+00 0.38527744D+00 0.38385059D+06 0.38385059D+06 0.38385059D+06 0.10767202D+01  1  2  3  3  6  5        1 0.157138860807D-04 0.100000000000D+01
-.154098412348D-02 0.000000000000D+00 0.000000000000D+00 0.142624313990D-03 0.000000000000D+00  6 1 1 25 1 1 21 2 0.38578403D+00 0.38527744D+00 0.38385059D+06 0.38385059D+06 0.38385059D+06 0.10767202D+01  1  2 15  3  6  5        1 -.439268793177D-04 0.100000000000D+01
0.923704574712D-10 0.000000000000D+00 0.000000000000D+00 0.142624313990D-03 0.000000000000D+00  6 1 1 25 1 1 21 2 0.38578403D+00 0.38527744D+00 0.38885456D+06 0.38885456D+06 0.38885456D+06 0.10763135D+01  1  2 12  3  6  5        1 0.262697397667D-11 0.100000000000D+01
0.215913892305D+00 0.000000000000D+00 0.000000000000D+00 0.142624313990D-03 0.000000000000D+00  6 1 1 25 1 1 21 2 0.38578403D+00 0.38527744D+00 0.38885456D+06 0.38885456D+06 0.38885456D+06 0.10763135D+01  1  2 12  3  6  5        1 0.614049331154D-02 0.100000000000D+01
-.115908119732D+00 0.000000000000D+00 0.000000000000D+00 0.142624313990D-03 0.000000000000D+00  6 1 1 25 1 1 21 2 0.38578403D+00 0.38527744D+00 0.38385059D+06 0.38385059D+06 0.38385059D+06 0.10767202D+01  1  2  4  3  6  5        1 -.330404571327D-02 0.100000000000D+01
-.275947465548D+00 0.000000000000D+00 0.000000000000D+00 0.142624313990D-03 0.000000000000D+00  6 1 1 25 1 1 21 2 0.38578403D+00 0.38527744D+00 0.38385059D+06 0.38385059D+06 0.38385059D+06 0.10767202D+01  1  2  5  3  6  5        1 -.786608429800D-02 0.100000000000D+01
0.317551381113D+00 0.000000000000D+00 -.000000000000D+00 0.142624313990D-03 0.000000000000D+00  6 1 1 25 1 1 21 2 0.38578403D+00 0.38527744D+00 0.38385059D+06 0.38385059D+06 0.38385059D+06 0.10767202D+01  1  2  6  3  6  5        1 0.905203433493D-02 0.100000000000D+01
  </mgrwgt>
  </event>
  <event>
  5     66 0.18540751E-05 0.24777585E+02 0.75467711E-02 0.94930958E-01
        1 -1    0    0  502    0 0.00000000E+00 0.00000000E+00 0.13303873E+04 0.13303873E+04 0.32000000E+00 0.0000E+00 0.9000E+01
        1 -1    0    0  501    0 0.00000000E+00 0.00000000E+00 -.22741687E+03 0.22741710E+03 0.32000000E+00 0.0000E+00 0.9000E+01
       25  1    1    2    0    0 -.26484177E+03 0.39294240E+03 0.56699201E+03 0.74943300E+03 0.12500000E+03 0.0000E+00 0.9000E+01
        1  1    1    2  501    0 0.25359412E+03 -.37081209E+03 0.23615946E+03 0.50752633E+03 0.32000000E+00 0.0000E+00 0.9000E+01
        1  1    1    2  502    0 0.11247653E+02 -.22130301E+02 0.29981895E+03 0.30084508E+03 0.32000000E+00 0.0000E+00 0.9000E+01
#aMCatNLO 1  0  0  2  4 0.87070457D+01 0.00000000D+00  -5  6  0 0.00000000D+00 0.00000000D+00 0.00000000D+00 0.00000000D+00 0.00000000D+00
  <mgrwgt>
 0.1233786299D-02   13    2    0
 0.550047924557327D+03 0.000000000000000D+00 0.000000000000000D+00 0.550047924557327D+03
 0.550047924557327D+03 0.000000000000000D+00 0.000000000000000D+00 -.550047924557327D+03
 0.492888062902980D+03 -.264902741649347D+03 0.393025248863007D+03 0.516849472775459D+02
 0.482032582144206D+03 0.253676383265743D+03 -.370936845019281D+03 -.174383370276424D+03
 0.125175204067468D+03 0.112263583836046D+02 -.220884038437259D+02 0.122698422998878D+03
 0.000000000000000D+00 0.000000000000000D+00 0.000000000000000D+00 -.000000000000000D+00
 0.550244143547819D+03 0.000000000000000D+00 0.000000000000000D+00 0.550244143547819D+03
 0.655954286950736D+03 0.000000000000000D+00 0.000000000000000D+00 -.655954286950736D+03
 0.491633865100643D+03 -.267205837899681D+03 0.389882756391001D+03 0.516849472775459D+02
 0.483228830544677D+03 0.251418343219175D+03 -.374017859912514D+03 -.174383370276424D+03
 0.125267610220379D+03 0.106404964641256D+02 -.228877914817073D+02 0.122698422998878D+03
 0.106068124632855D+03 0.514699821638019D+01 0.702289500322057D+01 -.105710143402917D+03
0.426282267750D-05 0.000000000000D+00 0.000000000000D+00 0.285695054950D-06 0.000000000000D+00  6 1 1 25 1 1 21 0 0.20467499D+00 0.34987231D-01 0.23248412D+06 0.23248412D+06 0.23248412D+06 0.10928403D+01  1  2  2  2  6  2        1 0.609195436178D-04 0.100000000000D+01
0.157565780645D-05 0.000000000000D+00 -.163703615086D-07 0.285695054950D-06 0.000000000000D+00  6 1 1 25 1 1 21 2 0.20467499D+00 0.34987231D-01 0.23248412D+06 0.23248412D+06 0.23248412D+06 0.10928403D+01  1  2  3  2  6  2        1 0.268927181204D-04 0.100000000000D+01
-.271441584500D-05 0.000000000000D+00 0.000000000000D+00 0.285695054950D-06 0.000000000000D+00  6 1 1 25 1 1 21 2 0.20467499D+00 0.34987231D-01 0.23248412D+06 0.23248412D+06 0.23248412D+06 0.10928403D+01  1  2 15  2  6  2        1 -.463285999552D-04 0.100000000000D+01
0.535052488142D-06 0.000000000000D+00 0.000000000000D+00 0.285695054950D-06 0.000000000000D+00  6 1 1 25 1 1 21 2 0.20467499D+00 0.41752482D-01 0.23693706D+06 0.23693706D+06 0.23693706D+06 0.10922168D+01  1  2 12  2  6  2        1 0.722218355644D-05 0.100000000000D+01
0.164550676291D-02 0.000000000000D+00 0.000000000000D+00 0.285695054950D-06 0.000000000000D+00  6 1 1 25 1 1 21 2 0.20467499D+00 0.41746635D-01 0.23693706D+06 0.23693706D+06 0.23693706D+06 0.10922168D+01  1  2 12  2  6  2        1 0.222152954852D-01 0.100000000000D+01
-.155177706877D-02 0.000000000000D+00 0.000000000000D+00 0.285695054950D-06 0.000000000000D+00  6 1 1 25 1 1 21 2 0.20467499D+00 0.34987231D-01 0.23248412D+06 0.23248412D+06 0.23248412D+06 0.10928403D+01  1  2  4  2  6  2        1 -.264851309246D-01 0.100000000000D+01
-.166708897950D-02 0.000000000000D+00 -.663851765586D-05 0.285695054950D-06 0.000000000000D+00  6 1 1 25 1 1 21 2 0.20467499D+00 0.41730298D-01 0.23248412D+06 0.23248412D+06 0.23248412D+06 0.10928403D+01  1  2  5  2  6  2        1 -.225607933352D-01 0.100000000000D+01
0.164278059868D-02 0.000000000000D+00 0.653673248391D-05 0.285695054950D-06 0.000000000000D+00  6 1 1 25 1 1 21 2 0.20467499D+00 0.34987231D-01 0.23248412D+06 0.23248412D+06 0.23248412D+06 0.10928403D+01  1  2  6  2  6  2        1 0.280383439813D-01 0.100000000000D+01
0.951744960046D-06 0.000000000000D+00 0.000000000000D+00 0.285695054950D-06 0.227955194977D-07  6 1 1 25 1 1 21 2 0.20474800D+00 0.41723681D-01 0.23693706D+06 0.23693706D+06 0.23693706D+06 0.10922168D+01  1  2 11  2  6  2        1 0.128487847290D-04 0.100000000000D+01
0.139128982155D-07 0.000000000000D+00 0.000000000000D+00 0.285695054950D-06 0.000000000000D+00  6 1 21 25 1 1 -1 2 0.20467499D+00 0.41752482D-01 0.23693706D+06 0.23693706D+06 0.23693706D+06 0.10922168D+01  1  2 12  5  6  2        1 0.941592037352D-06 0.100000000000D+01
0.427612752619D-04 0.000000000000D+00 0.000000000000D+00 0.285695054950D-06 0.000000000000D+00  6 1 21 25 1 1 -1 2 0.20467499D+00 0.41746635D-01 0.23693706D+06 0.23693706D+06 0.23693706D+06 0.10922168D+01  1  2 12  5  6  2        1 0.289482863868D-02 0.100000000000D+01
-.431853397522D-04 0.000000000000D+00 -.172212763538D-06 0.285695054950D-06 0.000000000000D+00  6 1 21 25 1 1 -1 2 0.20467499D+00 0.41730298D-01 0.23248412D+06 0.23248412D+06 0.23248412D+06 0.10928403D+01  1  2  5  5  6  2        1 -.293300345501D-02 0.100000000000D+01
0.258354080218D-07 0.000000000000D+00 0.000000000000D+00 0.285695054950D-06 0.617922104604D-09  6 1 21 25 1 1 -1 2 0.20474800D+00 0.41723681D-01 0.23693706D+06 0.23693706D+06 0.23693706D+06 0.10922168D+01  1  2 11  5  6  2        1 0.174968626365D-05 0.100000000000D+01
  </mgrwgt>
  </event>
  <event>
  6     66 0.18540751E-05 0.49584887E+02 0.75467711E-02 0.93359882E-01
        1 -1    0    0  503    0 0.00000000E+00 0.00000000E+00 0.88391577E+03 0.88391583E+03 0.32000000E+00 0.0000E+00 0.9000E+01
        1 -1    0    0  501    0 0.00000000E+00 0.00000000E+00 -.18788147E+04 0.18788148E+04 0.32000000E+00 0.0000E+00 0.9000E+01
       25  1    1    2    0    0 0.12614636E+03 0.43725583E+03 -.20424857E+03 0.51424512E+03 0.12500000E+03 0.0000E+00 0.9000E+01
        1  1    1    2  501    0 -.50219751E+02 0.76552627E+01 -.13172107E+04 0.13181899E+04 0.32000000E+00 0.0000E+00 0.9000E+01
        1  1    1    2  502    0 -.11391134E+03 -.50956678E+03 0.14565586E+03 0.54207917E+03 0.32000000E+00 0.0000E+00 0.9000E+01
       21  1    1    2  503  502 0.37984728E+02 0.64655692E+02 0.38090443E+03 0.38821637E+03 0.75000000E+00 0.0000E+00 0.9000E+01
#aMCatNLO 2  0  0  1  5 0.17445212D+01 0.00000000D+00  -5  6  0 0.00000000D+00 0.00000000D+00 0.00000000D+00 0.00000000D+00 0.00000000D+00
  <mgrwgt>
 0.3343837283D-02    1    2    0
 0.966935833756959D+03 0.000000000000000D+00 0.000000000000000D+00 0.966935833756959D+03
 0.966935833756959D+03 0.000000000000000D+00 0.000000000000000D+00 -.966935833756959D+03
 0.503196442204487D+03 0.135852811480850D+03 0.453742688914128D+03 0.115079300123781D+03
 0.680786013497442D+03 -.368569433593061D+02 0.304127372902664D+02 -.679106933634507D+03
 0.749889211811989D+03 -.989958681215438D+02 -.484155426204394D+03 0.564027633510725D+03
 0.000000000000000D+00 0.000000000000000D+00 0.000000000000000D+00 0.000000000000000D+00
 0.171287222325308D+04 0.000000000000000D+00 0.000000000000000D+00 0.171287222325308D+04
 0.969548944104761D+03 0.000000000000000D+00 0.000000000000000D+00 -.969548944104761D+03
 0.485736094484663D+03 0.126144250126947D+03 0.437217264444286D+03 0.115079300123781D+03
 0.681004770171927D+03 -.502259335420910D+02 0.765671511043533D+01 -.679106933634507D+03
 0.768584127280736D+03 -.113903044324082D+03 -.509529671204620D+03 0.564027633510725D+03
 0.747096175420510D+03 0.379847277392256D+02 0.646556916498989D+02 0.743323279148315D+03
0.321844766187D-02 0.000000000000D+00 0.000000000000D+00 0.896981254207D-05 0.783938410515D-08  6 1 1 25 1 1 21 2 0.13598702D+00 0.28904837D+00 0.31349193D+06 0.31349193D+06 0.31349193D+06 0.10831412D+01  1  2  1  1  6  1        1 0.334383728318D-02 0.100000000000D+01
  </mgrwgt>
  </event>
  <event>
  5     66 0.18540751E-05 0.71924769E+02 0.75467711E-02 0.94351375E-01
        1 -1    0    0  502    0 0.00000000E+00 0.00000000E+00 0.19618132E+04 0.19618133E+04 0.32000000E+00 0.0000E+00 0.9000E+01
        1 -1    0    0  501    0 0.00000000E+00 0.00000000E+00 -.21970517E+03 0.21970540E+03 0.32000000E+00 0.0000E+00 0.9000E+01
       25  1    1    2    0    0 0.24358085E+03 0.40557832E+03 0.64914386E+03 0.81291953E+03 0.12500000E+03 0.0000E+00 0.9000E+01
        1  1    1    2  501    0 0.52766675E+02 -.48860971E+02 -.79828035E+02 0.10744456E+03 0.32000000E+00 0.0000E+00 0.9000E+01
        1  1    1    2  502    0 -.29634752E+03 -.35671735E+03 0.11727923E+04 0.12611546E+04 0.32000000E+00 0.0000E+00 0.9000E+01
#aMCatNLO 1  0  0  5  1 0.10510356D+02 0.00000000D+00  -5  6  0 0.00000000D+00 0.00000000D+00 0.00000000D+00 0.00000000D+00 0.00000000D+00
  <mgrwgt>
 0.7118271350D-02    8    2    0
 0.656521739835631D+03 0.000000000000000D+00 0.000000000000000D+00 0.656521739835631D+03
 0.656521739835631D+03 -.000000000000000D+00 -.000000000000000D+00 -.656521739835631D+03
 0.489316151791033D+03 0.243558421978998D+03 0.405566999922851D+03 0.776301917937872D-02
 0.284474287668420D+03 0.527729407238897D+02 -.488691023344154D+02 -.275231625924123D+03
 0.539253040211809D+03 -.296331362702888D+03 -.356697897588435D+03 0.275223862904943D+03
 0.000000000000000D+00 -.000000000000000D+00 0.000000000000000D+00 0.000000000000000D+00
 0.656521739835631D+03 0.000000000000000D+00 0.000000000000000D+00 0.656521739835631D+03
 0.656521739835631D+03 -.000000000000000D+00 -.000000000000000D+00 -.656521739835631D+03
 0.489157137368079D+03 0.243452080003324D+03 0.405438994710030D+03 0.106530321657792D+00
 0.284420061400044D+03 0.527111124147269D+02 -.489435258705834D+02 -.275174201607204D+03
 0.393494469540405D+03 -.212658742740198D+03 -.256122924046337D+03 0.209798008744120D+03
 0.145971811362734D+03 -.835044496778531D+02 -.100372544793109D+03 0.652696625414269D+02
0.322409742026D-04 0.000000000000D+00 0.000000000000D+00 0.358793416586D-06 0.000000000000D+00  6 1 1 25 1 1 21 0 0.30181744D+00 0.33800815D-01 0.26264143D+06 0.26264143D+06 0.26264143D+06 0.10888511D+01  1  2  2  3  6  5        1 0.181517000347D-03 0.100000000000D+01
0.667213773702D-05 0.000000000000D+00 -.123813830181D-06 0.358793416586D-06 0.000000000000D+00  6 1 1 25 1 1 21 2 0.30181744D+00 0.33800815D-01 0.26264143D+06 0.26264143D+06 0.26264143D+06 0.10888511D+01  1  2  3  3  6  5        1 0.445359929244D-04 0.100000000000D+01
-.200570000739D-04 0.000000000000D+00 0.000000000000D+00 0.358793416586D-06 0.000000000000D+00  6 1 1 25 1 1 21 2 0.30181744D+00 0.33800815D-01 0.26264143D+06 0.26264143D+06 0.26264143D+06 0.10888511D+01  1  2 15  3  6  5        1 -.133878892880D-03 0.100000000000D+01
0.412148293073D-06 0.000000000000D+00 0.000000000000D+00 0.358793416586D-06 0.000000000000D+00  6 1 1 25 1 1 21 2 0.30181744D+00 0.33800815D-01 0.26242783D+06 0.26242783D+06 0.26242783D+06 0.10888776D+01  1  2 12  3  6  5        1 0.275130288337D-05 0.100000000000D+01
0.530684535385D-02 0.000000000000D+00 0.000000000000D+00 0.358793416586D-06 0.000000000000D+00  6 1 1 25 1 1 21 2 0.30181744D+00 0.33800815D-01 0.26242783D+06 0.26242783D+06 0.26242783D+06 0.10888776D+01  1  2 12  3  6  5        1 0.354259356863D-01 0.100000000000D+01
-.587804749070D-02 0.000000000000D+00 0.000000000000D+00 0.358793416586D-06 0.000000000000D+00  6 1 1 25 1 1 21 2 0.30181744D+00 0.33800815D-01 0.26264143D+06 0.26264143D+06 0.26264143D+06 0.10888511D+01  1  2  4  3  6  5        1 -.392355031885D-01 0.100000000000D+01
-.531101978403D-02 0.000000000000D+00 0.000000000000D+00 0.358793416586D-06 0.000000000000D+00  6 1 1 25 1 1 21 2 0.30181744D+00 0.33800815D-01 0.26264143D+06 0.26264143D+06 0.26264143D+06 0.10888511D+01  1  2  5  3  6  5        1 -.354506379883D-01 0.100000000000D+01
0.693394735071D-02 0.000000000000D+00 -.000000000000D+00 0.358793416586D-06 0.000000000000D+00  6 1 1 25 1 1 21 2 0.30181744D+00 0.33800815D-01 0.26264143D+06 0.26264143D+06 0.26264143D+06 0.10888511D+01  1  2  6  3  6  5        1 0.462835514375D-01 0.100000000000D+01
  </mgrwgt>
  </event>
  <event>
  5     66 -.18540751E-05 0.64628488E+02 0.75467711E-02 0.93810460E-01
        1 -1    0    0  502    0 0.00000000E+00 0.00000000E+00 0.90660120E+03 0.90660126E+03 0.32000000E+00 0.0000E+00 0.9000E+01
        1 -1    0    0  501    0 0.00000000E+00 0.00000000E+00 -.34924391E+03 0.34924406E+03 0.32000000E+00 0.0000E+00 0.9000E+01
       25  1    1    2    0    0 0.46979417E+03 -.48894440E+02 0.55876896E+02 0.49177684E+03 0.12500000E+03 0.0000E+00 0.9000E+01
        1  1    1    2  501    0 -.47685761E+02 -.43624710E+02 -.36343292E+02 0.74148394E+02 0.32000000E+00 0.0000E+00 0.9000E+01
        1  1    1    2  502    0 -.42210841E+03 0.92519150E+02 0.53782369E+03 0.68992009E+03 0.32000000E+00 0.0000E+00 0.9000E+01
#aMCatNLO 1  0  0  1  1 0.90997952D+02 0.00000000D+00  -5  6  0 0.00000000D+00 0.00000000D+00 0.00000000D+00 0.00000000D+00 0.00000000D+00
  <mgrwgt>
 -.5613665745D-03    7    2    0
 0.562694479962231D+03 0.000000000000000D+00 0.000000000000000D+00 0.562694479962231D+03
 0.562694479962231D+03 0.000000000000000D+00 0.000000000000000D+00 -.562694479962231D+03
 0.521113100160968D+03 0.469794730795700D+03 -.488957670613784D+02 -.181207003284779D+03
 0.100738520463628D+03 -.476844422530802D+02 -.436237949561453D+02 -.772748858675167D+02
 0.503537339299865D+03 -.422110288542620D+03 0.925195620175237D+02 0.258481889152296D+03
 0.000000000000000D+00 -.000000000000000D+00 -.000000000000000D+00 0.000000000000000D+00
 0.810543495102731D+03 0.000000000000000D+00 0.000000000000000D+00 0.810543495102731D+03
 0.572945830100340D+03 0.000000000000000D+00 0.000000000000000D+00 -.572945830100340D+03
 0.550436158493485D+03 0.504000103952603D+03 -.224250251589658D+02 -.181207003284779D+03
 0.958592142694125D+02 -.414087635345958D+02 -.387671933088705D+02 -.772748858675167D+02
 0.482766600012918D+03 -.390626066965461D+03 0.116884468067355D+03 0.258481889152296D+03
 0.254427352427256D+03 -.719652734525463D+02 -.556922495995183D+02 0.237597665002391D+03
0.636648698487D-05 0.000000000000D+00 0.000000000000D+00 0.358302268623D-07 0.000000000000D+00  6 1 1 25 1 1 21 0 0.13947712D+00 0.53729848D-01 0.24272963D+06 0.24272963D+06 0.24272963D+06 0.10914247D+01  1  2  2  1  6  1        1 0.105293437663D-03 0.100000000000D+01
0.900297810454D-06 0.000000000000D+00 -.244489863564D-07 0.358302268623D-07 0.000000000000D+00  6 1 1 25 1 1 21 2 0.13947712D+00 0.53729848D-01 0.24272963D+06 0.24272963D+06 0.24272963D+06 0.10914247D+01  1  2  3  1  6  1        1 0.177367956562D-04 0.100000000000D+01
-.430929518605D-05 0.000000000000D+00 0.000000000000D+00 0.358302268623D-07 0.000000000000D+00  6 1 1 25 1 1 21 2 0.13947712D+00 0.53729848D-01 0.24272963D+06 0.24272963D+06 0.24272963D+06 0.10914247D+01  1  2 15  1  6  1        1 -.848975608401D-04 0.100000000000D+01
-.562378084163D-04 0.000000000000D+00 0.000000000000D+00 0.358302268623D-07 0.000000000000D+00  6 1 1 25 1 1 21 2 0.13947712D+00 0.53729848D-01 0.24272963D+06 0.24272963D+06 0.24272963D+06 0.10914247D+01  1  2  4  1  6  1        1 -.110794284341D-02 0.100000000000D+01
-.575839079022D-04 0.000000000000D+00 -.488952128192D-05 0.358302268623D-07 0.000000000000D+00  6 1 1 25 1 1 21 2 0.20224872D+00 0.53729848D-01 0.24272963D+06 0.24272963D+06 0.24272963D+06 0.10914247D+01  1  2  5  1  6  1        1 -.568642910756D-03 0.100000000000D+01
0.558214370756D-04 0.000000000000D+00 0.457032714857D-05 0.358302268623D-07 0.000000000000D+00  6 1 1 25 1 1 21 2 0.13947712D+00 0.53729848D-01 0.24272963D+06 0.24272963D+06 0.24272963D+06 0.10914247D+01  1  2  6  1  6  1        1 0.109973989845D-02 0.100000000000D+01
-.244694505991D-05 0.000000000000D+00 -.220568915509D-06 0.358302268623D-07 0.000000000000D+00  6 21 1 25 1 1 -1 2 0.20224872D+00 0.53729848D-01 0.24272963D+06 0.24272963D+06 0.24272963D+06 0.10914247D+01  1  2  5  4  6  1        1 -.226533912286D-04 0.100000000000D+01
  </mgrwgt>
  </event>
  <event>
  5     66 0.18540751E-05 0.46452626E+02 0.75467711E-02 0.92865353E-01
        1 -1    0    0  502    0 0.00000000E+00 0.00000000E+00 0.65547532E+03 0.65547540E+03 0.32000000E+00 0.0000E+00 0.9000E+01
        1 -1    0    0  501    0 0.00000000E+00 0.00000000E+00 -.85800609E+03 0.85800615E+03 0.32000000E+00 0.0000E+00 0.9000E+01
       25  1    1    2    0    0 -.32062158E+03 0.32877360E+03 -.13952089E+03 0.49596508E+03 0.12500000E+03 0.0000E+00 0.9000E+01
        1  1    1    2  501    0 0.28203453E+03 -.35465850E+03 -.44358884E+03 0.63411141E+03 0.32000000E+00 0.0000E+00 0.9000E+01
        1  1    1    2  502    0 0.38587051E+02 0.25884896E+02 0.38057896E+03 0.38340505E+03 0.32000000E+00 0.0000E+00 0.9000E+01
#aMCatNLO 1  0  0  2  4 0.17500864D+03 0.00000000D+00  -5  6  0 0.00000000D+00 0.00000000D+00 0.00000000D+00 0.00000000D+00 0.00000000D+00
  <mgrwgt>
 0.6137505689D-02    4    2    0
 0.749934609558124D+03 0.000000000000000D+00 0.000000000000000D+00 0.749934609558124D+03
 0.749934609558124D+03 0.000000000000000D+00 0.000000000000000D+00 -.749934609558124D+03
 0.481696160903646D+03 -.320671735890036D+03 0.328844663668876D+03 -.737361268787944D+02
 0.580013935885313D+03 0.282094890656444D+03 -.354722713415008D+03 -.361953636636234D+03
 0.438159122327290D+03 0.385768452335921D+02 0.258780497461315D+02 0.435689763515028D+03
 0.000000000000000D+00 0.000000000000000D+00 -.000000000000000D+00 0.000000000000000D+00
 0.141161773937954D+04 0.000000000000000D+00 0.000000000000000D+00 0.141161773937954D+04
 0.770943396115623D+03 0.000000000000000D+00 0.000000000000000D+00 -.770943396115623D+03
 0.539580086221389D+03 -.383292945282361D+03 0.350957506169008D+03 -.737361268787944D+02
 0.534772618955788D+03 0.213739945092038D+03 -.330585170240122D+03 -.361953636636234D+03
 0.438254905929142D+03 -.151619022721036D+02 0.448543114836354D+02 0.435689763515028D+03
 0.669953524388843D+03 0.184714902462426D+03 -.652266474125211D+02 0.640674343263917D+03
0.116796493535D-02 0.000000000000D+00 0.000000000000D+00 0.272714139877D-05 0.000000000000D+00  6 1 1 25 1 1 21 0 0.10084237D+00 0.13200095D+00 0.23799216D+06 0.23799216D+06 0.23799216D+06 0.10920710D+01  1  2  2  2  6  2        1 0.879247249905D-02 0.100000000000D+01
0.450420030312D-03 0.000000000000D+00 -.448529288398D-05 0.272714139877D-05 0.000000000000D+00  6 1 1 25 1 1 21 2 0.10084237D+00 0.13200095D+00 0.23799216D+06 0.23799216D+06 0.23799216D+06 0.10920710D+01  1  2  3  2  6  2        1 0.404390212347D-02 0.100000000000D+01
-.744700360125D-03 0.000000000000D+00 0.000000000000D+00 0.272714139877D-05 0.000000000000D+00  6 1 1 25 1 1 21 2 0.10084237D+00 0.13200095D+00 0.23799216D+06 0.23799216D+06 0.23799216D+06 0.10920710D+01  1  2 15  2  6  2        1 -.668597123793D-02 0.100000000000D+01
-.143657788769D-05 0.000000000000D+00 0.000000000000D+00 0.272714139877D-05 0.000000000000D+00  6 1 1 25 1 1 21 2 0.10084237D+00 0.13200095D+00 0.23799216D+06 0.23799216D+06 0.23799216D+06 0.10920710D+01  1  2  4  2  6  2        1 -.128976954389D-04 0.100000000000D+01
  </mgrwgt>
  </event>
  <event>
  5     66 0.18540751E-05 0.66544489E+02 0.75467711E-02 0.91546140E-01
        1 -1    0    0  502    0 0.00000000E+00 0.00000000E+00 0.38639267E+03 0.38639280E+03 0.32000000E+00 0.0000E+00 0.9000E+01
        1 -1    0    0  501    0 0.00000000E+00 0.00000000E+00 -.21801859E+04 0.21801859E+04 0.32000000E+00 0.0000E+00 0.9000E+01
       25  1    1    2    0    0 -.48154930E+03 -.45004777E+02 -.12018513E+04 0.13015325E+04 0.12500000E+03 0.0000E+00 0.9000E+01
        1  1    1    2  501    0 0.24705923E+02 -.61791185E+02 -.76283399E+03 0.76573124E+03 0.32000000E+00 0.0000E+00 0.9000E+01
        1  1    1    2  502    0 0.45684337E+03 0.10679596E+03 0.17089212E+03 0.49931499E+03 0.32000000E+00 0.0000E+00 0.9000E+01
#aMCatNLO 1  0  0  1  1 0.31053259D+03 0.00000000D+00  -5  6  0 0.00000000D+00 0.00000000D+00 0.00000000D+00 0.00000000D+00 0.00000000D+00
  <mgrwgt>
 0.1295192067D-02    7    2    0
 0.917827896295403D+03 0.000000000000000D+00 0.000000000000000D+00 0.917827896295403D+03
 0.917827896295403D+03 0.000000000000000D+00 0.000000000000000D+00 -.917827896295403D+03
 0.645348028412998D+03 -.481550016785562D+03 -.450076850568488D+02 -.408574310739419D+03
 0.325176575374952D+03 0.247046763120423D+02 -.617887371851378D+02 -.318294888582844D+03
 0.865131188802856D+03 0.456845340473520D+03 0.106796422241987D+03 0.726869199322263D+03
 0.000000000000000D+00 0.000000000000000D+00 -.000000000000000D+00 0.000000000000000D+00
 0.130623534062296D+04 0.000000000000000D+00 0.000000000000000D+00 0.130623534062296D+04
 0.995092356149354D+03 0.000000000000000D+00 0.000000000000000D+00 -.995092356149354D+03
 0.724479663341100D+03 -.585051717080535D+03 0.522527891703349D+01 -.408574310739419D+03
 0.321472921548379D+03 -.241549889066894D+02 -.380754474931450D+02 -.318294888582844D+03
 0.815783884026833D+03 0.329838440892933D+03 0.168437274449088D+03 0.726869199322263D+03
 0.439591227856005D+03 0.279368265094291D+03 -.135587105872977D+03 0.311142984473611D+03
0.598295364431D-03 0.000000000000D+00 0.000000000000D+00 0.272718554186D-05 0.000000000000D+00  6 1 1 25 1 1 21 0 0.59445038D-01 0.33541322D+00 0.26793438D+06 0.26793438D+06 0.26793438D+06 0.10882028D+01  1  2  2  1  6  1        1 0.113613817241D-02 0.100000000000D+01
0.118264292654D-03 0.000000000000D+00 -.229761173420D-05 0.272718554186D-05 0.000000000000D+00  6 1 1 25 1 1 21 2 0.59445038D-01 0.33541322D+00 0.26793438D+06 0.26793438D+06 0.26793438D+06 0.10882028D+01  1  2  3  1  6  1        1 0.265943144289D-03 0.100000000000D+01
-.416405508476D-03 0.000000000000D+00 0.000000000000D+00 0.272718554186D-05 0.000000000000D+00  6 1 1 25 1 1 21 2 0.59445038D-01 0.33541322D+00 0.26793438D+06 0.26793438D+06 0.26793438D+06 0.10882028D+01  1  2 15  1  6  1        1 -.936378916565D-03 0.100000000000D+01
-.211755637286D-03 0.000000000000D+00 0.000000000000D+00 0.272718554186D-05 0.000000000000D+00  6 1 1 25 1 1 21 2 0.59445038D-01 0.33541322D+00 0.26793438D+06 0.26793438D+06 0.26793438D+06 0.10882028D+01  1  2  4  1  6  1        1 -.476178893367D-03 0.100000000000D+01
-.118406604557D-02 0.000000000000D+00 -.465389246911D-03 0.272718554186D-05 0.000000000000D+00  6 1 1 25 1 1 21 2 0.90152376D-01 0.33541322D+00 0.26793438D+06 0.26793438D+06 0.26793438D+06 0.10882028D+01  1  2  5  1  6  1        1 -.149130725676D-02 0.100000000000D+01
0.130104876538D-02 0.000000000000D+00 0.427757118009D-03 0.272718554186D-05 0.000000000000D+00  6 1 1 25 1 1 21 2 0.59445038D-01 0.33541322D+00 0.26793438D+06 0.26793438D+06 0.26793438D+06 0.10882028D+01  1  2  6  1  6  1        1 0.292569288476D-02 0.100000000000D+01
-.412956770584D-04 0.000000000000D+00 -.228204478600D-04 0.272718554186D-05 0.000000000000D+00  6 21 1 25 1 1 -1 2 0.90152376D-01 0.33541322D+00 0.26793438D+06 0.26793438D+06 0.26793438D+06 0.10882028D+01  1  2  5  4  6  1        1 -.128717067362D-03 0.100000000000D+01
  </mgrwgt>
  </event>
  <event>
  5     66 0.18540751E-05 0.21668071E+03 0.75467711E-02 0.95480003E-01
        1 -1    0    0  502    0 0.00000000E+00 0.00000000E+00 0.54079861E+03 0.54079870E+03 0.32000000E+00 0.0000E+00 0.9000E+01
        1 -1    0    0  501    0 -.00000000E+00 -.00000000E+00 -.31940097E+04 0.31940097E+04 0.32000000E+00 0.0000E+00 0.9000E+01
       25  1    1    2    0    0 0.13559554E+03 -.43377947E+03 -.42275795E+03 0.63316670E+03 0.12500000E+03 0.0000E+00 0.9000E+01
        1  1    1    2  501    0 -.49926729E+02 0.23474225E+03 -.26332999E+04 0.26442135E+04 0.32000000E+00 0.0000E+00 0.9000E+01
        1  1    1    2  502    0 -.85668810E+02 0.19903722E+03 0.40284675E+03 0.45742821E+03 0.32000000E+00 0.0000E+00 0.9000E+01
#aMCatNLO 1  0  0  5  1 0.18716679D+02 0.00000000D+00  -5  6  0 0.00000000D+00 0.00000000D+00 0.00000000D+00 0.00000000D+00 0.00000000D+00
  <mgrwgt>
 0.1639533661D-02    4    2    0
 0.131427401537113D+04 0.000000000000000D+00 0.000000000000000D+00 0.131427401537113D+04
 0.131427401537113D+04 -.000000000000000D+00 -.000000000000000D+00 -.131427401537113D+04
 0.472939412051657D+03 0.135597060302657D+03 -.433794780019327D+03 0.384995264520012D+02
 0.109908883380622D+04 -.499322939384541D+02 0.234766951026040D+03 -.107256119141310D+04
 0.105651978488438D+04 -.856647663642027D+02 0.199027828993287D+03 0.103406166496110D+04
 0.000000000000000D+00 0.000000000000000D+00 0.000000000000000D+00 0.000000000000000D+00
 0.131427401537113D+04 0.000000000000000D+00 0.000000000000000D+00 0.131427401537113D+04
 0.131427401537113D+04 -.000000000000000D+00 -.000000000000000D+00 -.131427401537113D+04
 0.474743850221447D+03 0.125553518052076D+03 -.410460280967092D+03 0.159735391119961D+03
 0.870942397291862D+03 -.708106746086358D+02 0.283274394097969D+03 -.820537705051020D+03
 0.958227016407554D+03 -.220007357895468D+03 0.293727089450219D+03 0.885166749470563D+03
 0.324634766821397D+03 0.165264514452028D+03 -.166541202581096D+03 -.224364435539504D+03
0.194803840787D-01 0.000000000000D+00 0.000000000000D+00 0.266607978851D-04 0.000000000000D+00  6 1 1 25 1 1 21 0 0.83199794D-01 0.49138611D+00 0.21532789D+06 0.21532789D+06 0.21532789D+06 0.10953708D+01  1  2  2  3  6  5        1 0.449007916540D-02 0.100000000000D+01
0.253243246598D-02 0.000000000000D+00 -.748098041653D-04 0.266607978851D-04 0.000000000000D+00  6 1 1 25 1 1 21 2 0.83199794D-01 0.49138611D+00 0.21532789D+06 0.21532789D+06 0.21532789D+06 0.10953708D+01  1  2  3  3  6  5        1 0.700352438910D-03 0.100000000000D+01
-.126482122135D-01 0.000000000000D+00 0.000000000000D+00 0.266607978851D-04 0.000000000000D+00  6 1 1 25 1 1 21 2 0.83199794D-01 0.49138611D+00 0.21532789D+06 0.21532789D+06 0.21532789D+06 0.10953708D+01  1  2 15  3  6  5        1 -.349790424447D-02 0.100000000000D+01
-.191622041420D-03 0.000000000000D+00 0.000000000000D+00 0.266607978851D-04 0.000000000000D+00  6 1 1 25 1 1 21 2 0.83199794D-01 0.49138611D+00 0.21532789D+06 0.21532789D+06 0.21532789D+06 0.10953708D+01  1  2  4  3  6  5        1 -.529936990857D-04 0.100000000000D+01
  </mgrwgt>
  </event>
  <event>
  5     66 0.18540751E-05 0.48942902E+02 0.75467711E-02 0.90987531E-01
        1 -1    0    0  502    0 0.00000000E+00 0.00000000E+00 0.38920661E+03 0.38920674E+03 0.32000000E+00 0.0000E+00 0.9000E+01
        1 -1    0    0  501    0 0.00000000E+00 0.00000000E+00 -.20837466E+04 0.20837466E+04 0.32000000E+00 0.0000E+00 0.9000E+01
       25  1    1    2    0    0 -.48537357E+03 0.13656068E+03 -.13644449E+03 0.53710187E+03 0.12500000E+03 0.0000E+00 0.9000E+01
        1  1    1    2  501    0 0.44963800E+03 -.10308362E+03 -.17126691E+04 0.17737069E+04 0.32000000E+00 0.0000E+00 0.9000E+01
        1  1    1    2  502    0 0.35735568E+02 -.33477061E+02 0.15457365E+03 0.16214456E+03 0.32000000E+00 0.0000E+00 0.9000E+01
#aMCatNLO 1  0  0  2  4 0.12057667D+02 0.00000000D+00  -5  6  0 0.00000000D+00 0.00000000D+00 0.00000000D+00 0.00000000D+00 0.00000000D+00
  <mgrwgt>
 0.3325525337D-02    4    2    0
 0.900559895973954D+03 0.000000000000000D+00 0.000000000000000D+00 0.900559895973954D+03
 0.900559895973954D+03 0.000000000000000D+00 0.000000000000000D+00 -.900559895973954D+03
 0.609214816870200D+03 -.485436296022803D+03 0.136564929438222D+03 0.318149832068769D+03
 0.824031718018477D+03 0.449718145729963D+03 -.103104185872761D+03 -.682752801940206D+03
 0.367873257059232D+03 0.357181502928404D+02 -.334607435654610D+02 0.364602969871437D+03
 0.000000000000000D+00 0.000000000000000D+00 0.000000000000000D+00 0.000000000000000D+00
 0.116877507931423D+04 0.000000000000000D+00 0.000000000000000D+00 0.116877507931423D+04
 0.100496530762253D+04 0.000000000000000D+00 0.000000000000000D+00 -.100496530762253D+04
 0.630561933615105D+03 -.528262250643775D+03 0.412677964496344D+02 0.318149832068769D+03
 0.820491599329874D+03 0.392910917384762D+03 -.229512716452829D+03 -.682752801940206D+03
 0.375831172601007D+03 0.100281604268606D+02 -.906266001681038D+02 0.364602969871437D+03
 0.346855681390771D+03 0.125323172832152D+03 0.278871520171298D+03 0.163809771691703D+03
0.238242509287D-02 0.000000000000D+00 0.000000000000D+00 0.596203774208D-05 0.000000000000D+00  6 1 1 25 1 1 21 0 0.59877951D-01 0.32057641D+00 0.26515818D+06 0.26515818D+06 0.26515818D+06 0.10885411D+01  1  2  2  2  6  2        1 0.520154368003D-02 0.100000000000D+01
0.728431440991D-03 0.000000000000D+00 -.914913966354D-05 0.596203774208D-05 0.000000000000D+00  6 1 1 25 1 1 21 2 0.59877951D-01 0.32057641D+00 0.26515818D+06 0.26515818D+06 0.26515818D+06 0.10885411D+01  1  2  3  2  6  2        1 0.188447902115D-02 0.100000000000D+01
-.144144854459D-02 0.000000000000D+00 0.000000000000D+00 0.596203774208D-05 0.000000000000D+00  6 1 1 25 1 1 21 2 0.59877951D-01 0.32057641D+00 0.26515818D+06 0.26515818D+06 0.26515818D+06 0.10885411D+01  1  2 15  2  6  2        1 -.372908058258D-02 0.100000000000D+01
-.121439247257D-04 0.000000000000D+00 0.000000000000D+00 0.596203774208D-05 0.000000000000D+00  6 1 1 25 1 1 21 2 0.59877951D-01 0.32057641D+00 0.26515818D+06 0.26515818D+06 0.26515818D+06 0.10885411D+01  1  2  4  2  6  2        1 -.314167814458D-04 0.100000000000D+01
  </mgrwgt>
  </event>
  <event>
  6     66 0.18540751E-05 0.10359538E+03 0.75467711E-02 0.92040852E-01
        1 -1    0    0  503    0 0.00000000E+00 0.00000000E+00 0.10878954E+04 0.10878955E+04 0.32000000E+00 0.0000E+00 0.9000E+01
        1 -1    0    0  501    0 0.00000000E+00 0.00000000E+00 -.10239771E+04 0.10239772E+04 0.32000000E+00 0.0000E+00 0.9000E+01
       25  1    1    2    0    0 -.91445506E+02 -.48024054E+03 -.49680065E+02 0.50703684E+03 0.12500000E+03 0.0000E+00 0.9000E+01
        1  1    1    2  501    0 0.13024588E+03 0.60603016E+03 -.60831407E+03 0.86849448E+03 0.32000000E+00 0.0000E+00 0.9000E+01
        1  1    1    2  502    0 0.69520800E+00 -.76022258E+02 0.29089830E+03 0.30066891E+03 0.32000000E+00 0.0000E+00 0.9000E+01
       21  1    1    2  503  502 -.39495585E+02 -.49767366E+02 0.43101416E+03 0.43567242E+03 0.75000000E+00 0.0000E+00 0.9000E+01
#aMCatNLO 2  0  0  1  4 0.63534967D+02 0.00000000D+00  -5  6  0 0.00000000D+00 0.00000000D+00 0.00000000D+00 0.00000000D+00 0.00000000D+00
  <mgrwgt>
 0.1776667170D-02    2    2    0
 0.817136949390566D+03 0.000000000000000D+00 0.000000000000000D+00 0.817136949390566D+03
 0.817136949390566D+03 0.000000000000000D+00 0.000000000000000D+00 -.817136949390566D+03
 0.525853502492032D+03 -.103960550318318D+03 -.496109514231012D+03 0.629639575481068D+02
 0.732557862210373D+03 0.112314548076751D+03 0.583501623474508D+03 -.428430063346588D+03
 0.375862534078726D+03 -.835399775843353D+01 -.873921092434960D+02 0.365466105798481D+03
 0.000000000000000D+00 -.000000000000000D+00 -.000000000000000D+00 0.000000000000000D+00
 0.135914423426939D+04 0.000000000000000D+00 0.000000000000000D+00 0.135914423426939D+04
 0.819618262329296D+03 0.000000000000000D+00 0.000000000000000D+00 -.819618262329296D+03
 0.508630650711275D+03 -.914650529145726D+02 -.480364260731572D+03 0.629639575481068D+02
 0.753594509249642D+03 0.130265729872669D+03 0.606121443947324D+03 -.428430063346588D+03
 0.373283283375627D+03 0.694908005894552D+00 -.759898168378183D+02 0.365466105798481D+03
 0.543254053262147D+03 -.394955849639909D+02 -.497673663779338D+02 0.539525971940099D+03
-.396025616394D-07 0.000000000000D+00 0.000000000000D+00 0.377950277245D-06 0.000000000000D+00  6 1 1 25 1 1 21 2 0.16751044D+00 0.15705798D+00 0.39955544D+06 0.39955544D+06 0.39955544D+06 0.10754624D+01  1  2 13  1  6  1        1 -.108212199206D-06 0.100000000000D+01
0.652765527850D-03 0.000000000000D+00 0.000000000000D+00 0.377950277245D-06 0.169900774171D-08  6 1 1 25 1 1 21 2 0.16736848D+00 0.15753490D+00 0.39955544D+06 0.39955544D+06 0.39955544D+06 0.10754624D+01  1  2  1  1  6  1        1 0.177677538176D-02 0.100000000000D+01
  </mgrwgt>
  </event>
  <event>
  5     66 0.18540751E-05 0.78760776E+02 0.75467711E-02 0.95567319E-01
        1 -1    0    0  502    0 0.00000000E+00 0.00000000E+00 0.99272001E+03 0.99272006E+03 0.32000000E+00 0.0000E+00 0.9000E+01
        1 -1    0    0  501    0 -.00000000E+00 -.00000000E+00 -.24970054E+04 0.24970054E+04 0.32000000E+00 0.0000E+00 0.9000E+01
       25  1    1    2    0    0 0.35680053E+03 -.27607183E+03 -.28080984E+03 0.54589508E+03 0.12500000E+03 0.0000E+00 0.9000E+01
        1  1    1    2  501    0 -.51589309E+02 0.59505240E+02 -.20421527E+04 0.20436707E+04 0.32000000E+00 0.0000E+00 0.9000E+01
        1  1    1    2  502    0 -.30521123E+03 0.21656659E+03 0.81867717E+03 0.90015964E+03 0.32000000E+00 0.0000E+00 0.9000E+01
#aMCatNLO 1  0  0  5  1 0.23725228D+02 0.00000000D+00  -5  6  0 0.00000000D+00 0.00000000D+00 0.00000000D+00 0.00000000D+00 0.00000000D+00
  <mgrwgt>
 0.7559390580D-02    8    2    0
 0.157442921060808D+04 0.000000000000000D+00 0.000000000000000D+00 0.157442921060808D+04
 0.157442921060808D+04 -.000000000000000D+00 -.000000000000000D+00 -.157442921060808D+04
 0.470831745828873D+03 0.356798714247522D+03 -.276072189086222D+03 -.503622557548851D+02
 0.128934817523799D+04 -.515932138876410D+02 0.595096634984499D+02 -.128694034718808D+04
 0.138867850014930D+04 -.305205500359881D+03 0.216562525587772D+03 0.133730260294296D+04
 0.000000000000000D+00 0.000000000000000D+00 0.000000000000000D+00 0.000000000000000D+00
 0.157442921060808D+04 0.000000000000000D+00 0.000000000000000D+00 0.157442921060808D+04
 0.157442921060808D+04 -.000000000000000D+00 -.000000000000000D+00 -.157442921060808D+04
 0.470739917802048D+03 0.356742771621697D+03 -.276032494269706D+03 -.501171349459785D+02
 0.128868944964420D+04 -.517463856532981D+02 0.596183485135638D+02 -.128626920266195D+04
 0.119682498804151D+04 -.246574098082182D+03 0.170685702783948D+03 0.115864475013727D+04
 0.192604065728403D+03 -.584222878862173D+02 0.457284429721943D+02 0.177741587470658D+03
0.223352993579D-03 0.000000000000D+00 0.000000000000D+00 0.226632548985D-03 0.000000000000D+00  6 1 1 25 1 1 21 0 0.15272616D+00 0.38415468D+00 0.21211711D+06 0.21211711D+06 0.21211711D+06 0.10958688D+01  1  2  2  3  6  5        1 0.642244601797D-04 0.100000000000D+01
0.708910836704D-04 0.000000000000D+00 -.857734305538D-06 0.226632548985D-03 0.000000000000D+00  6 1 1 25 1 1 21 2 0.15272616D+00 0.38415468D+00 0.21211711D+06 0.21211711D+06 0.21211711D+06 0.10958688D+01  1  2  3  3  6  5        1 0.244803379709D-04 0.100000000000D+01
-.150558034052D-03 0.000000000000D+00 0.000000000000D+00 0.226632548985D-03 0.000000000000D+00  6 1 1 25 1 1 21 2 0.15272616D+00 0.38415468D+00 0.21211711D+06 0.21211711D+06 0.21211711D+06 0.10958688D+01  1  2 15  3  6  5        1 -.519911865782D-04 0.100000000000D+01
0.551494122115D-10 0.000000000000D+00 0.000000000000D+00 0.226632548985D-03 0.000000000000D+00  6 1 1 25 1 1 21 2 0.15272616D+00 0.38415468D+00 0.21209970D+06 0.21209970D+06 0.21209970D+06 0.10958715D+01  1  2 12  3  6  5        1 0.190446110462D-10 0.100000000000D+01
0.347788600005D-01 0.000000000000D+00 0.000000000000D+00 0.226632548985D-03 0.000000000000D+00  6 1 1 25 1 1 21 2 0.15272616D+00 0.38415468D+00 0.21209970D+06 0.21209970D+06 0.21209970D+06 0.10958715D+01  1  2 12  3  6  5        1 0.120100982908D-01 0.100000000000D+01
-.187483245664D-01 0.000000000000D+00 0.000000000000D+00 0.226632548985D-03 0.000000000000D+00  6 1 1 25 1 1 21 2 0.15272616D+00 0.38415468D+00 0.21211711D+06 0.21211711D+06 0.21211711D+06 0.10958688D+01  1  2  4  3  6  5        1 -.647423199098D-02 0.100000000000D+01
-.388203145110D-01 0.000000000000D+00 0.000000000000D+00 0.226632548985D-03 0.000000000000D+00  6 1 1 25 1 1 21 2 0.15272616D+00 0.38415468D+00 0.21211711D+06 0.21211711D+06 0.21211711D+06 0.10958688D+01  1  2  5  3  6  5        1 -.134055563854D-01 0.100000000000D+01
0.445737955356D-01 0.000000000000D+00 -.000000000000D+00 0.226632548985D-03 0.000000000000D+00  6 1 1 25 1 1 21 2 0.15272616D+00 0.38415468D+00 0.21211711D+06 0.21211711D+06 0.21211711D+06 0.10958688D+01  1  2  6  3  6  5        1 0.153923670349D-01 0.100000000000D+01
  </mgrwgt>
  </event>
  <event>
  6     66 0.18540751E-05 0.57080181E+02 0.75467711E-02 0.92152940E-01
        1 -1    0    0  502    0 0.00000000E+00 0.00000000E+00 0.35152543E+03 0.35152558E+03 0.32000000E+00 0.0000E+00 0.9000E+01
       21 -1    0    0  501  503 0.00000000E+00 0.00000000E+00 -.14791299E+04 0.14791301E+04 0.75000000E+00 0.0000E+00 0.9000E+01
       25  1    1    2    0    0 0.54949553E+03 -.30377504E+01 -.69749734E+02 0.56784205E+03 0.12500000E+03 0.0000E+00 0.9000E+01
        1  1    1    2  501    0 0.58167483E+02 0.40066638E+02 -.81888846E+02 0.10814193E+03 0.32000000E+00 0.0000E+00 0.9000E+01
        1  1    1    2  502    0 -.57381495E+03 -.58507033E+02 -.91911302E+03 0.10851062E+04 0.32000000E+00 0.0000E+00 0.9000E+01
       -1  1    1    2    0  503 -.33848062E+02 0.21478145E+02 -.56852860E+02 0.69565451E+02 0.32000000E+00 0.0000E+00 0.9000E+01
#aMCatNLO 2  0  0  2  4 0.40087429D+02 0.00000000D+00  -5  6  0 0.00000000D+00 0.00000000D+00 0.00000000D+00 0.00000000D+00 0.00000000D+00
  <mgrwgt>
 0.6151466644D-02    1    2    0
 0.698806611931206D+03 0.000000000000000D+00 0.000000000000000D+00 0.698806611931206D+03
 0.698806611931206D+03 0.000000000000000D+00 0.000000000000000D+00 -.698806611931206D+03
 0.648756218620392D+03 0.533675208721202D+03 0.706066486675114D+01 0.346987823715258D+03
 0.726884399438160D+02 0.563685630909303D+02 0.411610175028953D+02 -.202969218024782D+02
 0.676168565298204D+03 -.590043771812133D+03 -.482216823696464D+02 -.326690901912779D+03
 0.000000000000000D+00 -.000000000000000D+00 0.000000000000000D+00 -.000000000000000D+00
 0.711967253785749D+03 0.000000000000000D+00 0.000000000000000D+00 0.711967253785749D+03
 0.730302180656010D+03 0.000000000000000D+00 0.000000000000000D+00 -.730302180656010D+03
 0.661839323760253D+03 0.549542258956555D+03 -.300770505631388D+01 0.346987823715258D+03
 0.734509434419891D+02 0.581378358089909D+02 0.400383329486779D+02 -.202969218024782D+02
 0.662897747874757D+03 -.573832033123484D+03 -.585087728995366D+02 -.326690901912779D+03
 0.440814193647590D+02 -.338480616420618D+02 0.214781450071726D+02 -.183349268702605D+02
0.109458149510D-02 0.000000000000D+00 0.000000000000D+00 0.259257067239D-08 0.170677640882D-09  6 1 21 25 1 1 -1 2 0.54080818D-01 0.22755829D+00 0.39129583D+06 0.39129583D+06 0.39129583D+06 0.10761171D+01  1  2  1  5  6  2        1 0.615146664376D-02 0.100000000000D+01
  </mgrwgt>
  </event>
  <event>
  5     66 0.18540751E-05 0.10948875E+02 0.75467711E-02 0.89945305E-01
        1 -1    0    0  502    0 0.00000000E+00 0.00000000E+00 0.24020905E+03 0.24020926E+03 0.32000000E+00 0.0000E+00 0.9000E+01
        1 -1    0    0  501    0 0.00000000E+00 0.00000000E+00 -.31226633E+04 0.31226633E+04 0.32000000E+00 0.0000E+00 0.9000E+01
       25  1    1    2    0    0 0.43688359E+03 -.19871112E+03 -.92692619E+03 0.10512709E+04 0.12500000E+03 0.0000E+00 0.9000E+01
        1  1    1    2  501    0 -.44445821E+03 0.19080235E+03 -.21059501E+04 0.21607811E+04 0.32000000E+00 0.0000E+00 0.9000E+01
        1  1    1    2  502    0 0.75746269E+01 0.79087720E+01 0.15042213E+03 0.15082057E+03 0.32000000E+00 0.0000E+00 0.9000E+01
#aMCatNLO 1  0  0  2  4 0.37616898D+02 0.00000000D+00  -5  6  0 0.00000000D+00 0.00000000D+00 0.00000000D+00 0.00000000D+00 0.00000000D+00
  <mgrwgt>
 0.7253884714D-02    7    2    0
 0.866078726626913D+03 0.000000000000000D+00 0.000000000000000D+00 0.866078726626913D+03
 0.866078726626913D+03 0.000000000000000D+00 0.000000000000000D+00 -.866078726626913D+03
 0.498562528701874D+03 0.436957653344519D+03 -.198741990803424D+03 -.500921680579941D+02
 0.690575287499271D+03 -.444530834464931D+03 0.190834728355711D+03 -.492817076984975D+03
 0.543019637052682D+03 0.757318112041217D+01 0.790726244771259D+01 0.542909245042969D+03
 0.000000000000000D+00 -.000000000000000D+00 -.000000000000000D+00 -.000000000000000D+00
 0.102261274870010D+04 0.000000000000000D+00 0.000000000000000D+00 0.102261274870010D+04
 0.120893320702186D+04 0.000000000000000D+00 0.000000000000000D+00 -.120893320702186D+04
 0.565598828756484D+03 0.535482899385255D+03 -.122580072833709D+03 -.500921680579941D+02
 0.653990431722554D+03 -.320044385698675D+03 0.287065157410988D+03 -.492817076984975D+03
 0.560667933373382D+03 0.109757956639838D+03 0.868980673795421D+02 0.542909245042969D+03
 0.451288761869537D+03 -.325196470326419D+03 -.251383151956822D+03 -.186320458321764D+03
0.378682043637D-02 0.000000000000D+00 0.000000000000D+00 0.104076001407D-04 0.000000000000D+00  6 1 1 25 1 1 21 0 0.36955256D-01 0.48040975D+00 0.24539661D+06 0.24539661D+06 0.24539661D+06 0.10910668D+01  1  2  2  2  6  2        1 0.292690333940D-02 0.100000000000D+01
0.400506433748D-02 0.000000000000D+00 -.145423875684D-04 0.104076001407D-04 0.000000000000D+00  6 1 1 25 1 1 21 2 0.36955256D-01 0.48040975D+00 0.24539661D+06 0.24539661D+06 0.24539661D+06 0.10910668D+01  1  2  3  2  6  2        1 0.368507115600D-02 0.100000000000D+01
-.224262190670D-02 0.000000000000D+00 0.000000000000D+00 0.104076001407D-04 0.000000000000D+00  6 1 1 25 1 1 21 2 0.36955256D-01 0.48040975D+00 0.24539661D+06 0.24539661D+06 0.24539661D+06 0.10910668D+01  1  2 15  2  6  2        1 -.206344283283D-02 0.100000000000D+01
-.357845775932D-03 0.000000000000D+00 0.000000000000D+00 0.104076001407D-04 0.000000000000D+00  6 1 1 25 1 1 21 2 0.36955256D-01 0.48040975D+00 0.24539661D+06 0.24539661D+06 0.24539661D+06 0.10910668D+01  1  2  4  2  6  2        1 -.329254922285D-03 0.100000000000D+01
-.295499466552D-02 0.000000000000D+00 -.177346582687D-02 0.104076001407D-04 0.000000000000D+00  6 1 1 25 1 1 21 2 0.36955256D-01 0.68999210D+00 0.24539661D+06 0.24539661D+06 0.24539661D+06 0.10910668D+01  1  2  5  2  6  2        1 -.164255573436D-03 0.100000000000D+01
0.347689800147D-02 0.000000000000D+00 0.166326497740D-02 0.104076001407D-04 0.000000000000D+00  6 1 1 25 1 1 21 2 0.36955256D-01 0.48040975D+00 0.24539661D+06 0.24539661D+06 0.24539661D+06 0.10910668D+01  1  2  6  2  6  2        1 0.319910379908D-02 0.100000000000D+01
-.781418107108D-04 0.000000000000D+00 -.785063797550D-04 0.104076001407D-04 0.000000000000D+00  6 1 21 25 1 1 -1 2 0.36955256D-01 0.68999210D+00 0.24539661D+06 0.24539661D+06 0.24539661D+06 0.10910668D+01  1  2  5  5  6  2        1 -.240251990528D-06 0.100000000000D+01
  </mgrwgt>
  </event>
  <event>
  5     66 -.18540751E-05 0.29340793E+03 0.75467711E-02 0.91195849E-01
        1 -1    0    0  502    0 0.00000000E+00 0.00000000E+00 0.17493012E+04 0.17493013E+04 0.32000000E+00 0.0000E+00 0.9000E+01
        1 -1    0    0  501    0 0.00000000E+00 0.00000000E+00 -.26005864E+04 0.26005865E+04 0.32000000E+00 0.0000E+00 0.9000E+01
       25  1    1    2    0    0 -.61413013E+03 -.16474799E+02 -.21126781E+03 0.66157866E+03 0.12500000E+03 0.0000E+00 0.9000E+01
        1  1    1    2  501    0 0.20907184E+03 0.20583155E+03 -.21210535E+04 0.21412486E+04 0.32000000E+00 0.0000E+00 0.9000E+01
        1  1    1    2  502    0 0.40505829E+03 -.18935675E+03 0.14810361E+04 0.15470605E+04 0.32000000E+00 0.0000E+00 0.9000E+01
#aMCatNLO 1  0  0  2  4 0.32398551D+01 0.00000000D+00  -5  6  0 0.00000000D+00 0.00000000D+00 0.00000000D+00 0.00000000D+00 0.00000000D+00
  <mgrwgt>
 -.3112989998D-02   13    2    0
 0.213288752832313D+04 0.000000000000000D+00 0.000000000000000D+00 0.213288752832313D+04
 0.213288752832313D+04 0.000000000000000D+00 0.000000000000000D+00 -.213288752832313D+04
 0.632462476053953D+03 -.614137314601526D+03 -.164895186279954D+02 -.833500942155434D+02
 0.176021957124857D+04 0.209085610672455D+03 0.205843189257932D+03 -.173559348000975D+04
 0.187309300934374D+04 0.405051703929071D+03 -.189353670629937D+03 0.181894357422530D+04
 0.000000000000000D+00 0.000000000000000D+00 0.000000000000000D+00 -.000000000000000D+00
 0.213291696457105D+04 0.000000000000000D+00 0.000000000000000D+00 0.213291696457105D+04
 0.222393834914093D+04 0.000000000000000D+00 0.000000000000000D+00 -.222393834914093D+04
 0.632922252890551D+03 -.614608226301656D+03 -.165851789451579D+02 -.833500942155434D+02
 0.176003333429983D+04 0.207775551966418D+03 0.205577065839707D+03 -.173559348000975D+04
 0.187282069979030D+04 0.403657665773749D+03 -.189636853511224D+03 0.181894357422530D+04
 0.910790267312972D+02 0.317500856148930D+01 0.644966616675482D+00 -.910213845698811D+02
0.104725740734D-03 0.000000000000D+00 0.000000000000D+00 0.760385356837D-05 0.000000000000D+00  6 1 1 25 1 1 21 0 0.26912327D+00 0.40009023D+00 0.46750051D+06 0.46750051D+06 0.46750051D+06 0.10705794D+01  1  2  2  2  6  2        1 0.702113679340D-05 0.100000000000D+01
0.128003975835D-04 0.000000000000D+00 -.402174419339D-06 0.760385356837D-05 0.000000000000D+00  6 1 1 25 1 1 21 2 0.26912327D+00 0.40009023D+00 0.46750051D+06 0.46750051D+06 0.46750051D+06 0.10705794D+01  1  2  3  2  6  2        1 0.983592472967D-06 0.100000000000D+01
-.730287278883D-04 0.000000000000D+00 0.000000000000D+00 0.760385356837D-05 0.000000000000D+00  6 1 1 25 1 1 21 2 0.26912327D+00 0.40009023D+00 0.46750051D+06 0.46750051D+06 0.46750051D+06 0.10705794D+01  1  2 15  2  6  2        1 -.561158406155D-05 0.100000000000D+01
0.640104221189D-10 0.000000000000D+00 0.000000000000D+00 0.760385356837D-05 0.000000000000D+00  6 1 1 25 1 1 21 2 0.26912327D+00 0.41717281D+00 0.46848711D+06 0.46848711D+06 0.46848711D+06 0.10705143D+01  1  2 12  2  6  2        1 0.410013285142D-11 0.100000000000D+01
0.495439391932D-02 0.000000000000D+00 0.000000000000D+00 0.760385356837D-05 0.000000000000D+00  6 1 1 25 1 1 21 2 0.26912327D+00 0.41765722D+00 0.46848711D+06 0.46848711D+06 0.46848711D+06 0.10705143D+01  1  2 12  2  6  2        1 0.315706373123D-03 0.100000000000D+01
-.837347234322D+00 0.000000000000D+00 0.000000000000D+00 0.760385356837D-05 0.000000000000D+00  6 1 1 25 1 1 21 2 0.26912327D+00 0.40009023D+00 0.46750051D+06 0.46750051D+06 0.46750051D+06 0.10705794D+01  1  2  4  2  6  2        1 -.643424105826D-01 0.100000000000D+01
-.588302678833D+00 0.000000000000D+00 -.394324666765D-03 0.760385356837D-05 0.000000000000D+00  6 1 1 25 1 1 21 2 0.26912327D+00 0.41717132D+00 0.46750051D+06 0.46750051D+06 0.46750051D+06 0.10705794D+01  1  2  5  2  6  2        1 -.376969072422D-01 0.100000000000D+01
0.587805745812D+00 0.000000000000D+00 0.393980314138D-03 0.760385356837D-05 0.000000000000D+00  6 1 1 25 1 1 21 2 0.26912327D+00 0.40009023D+00 0.46750051D+06 0.46750051D+06 0.46750051D+06 0.10705794D+01  1  2  6  2  6  2        1 0.451674491651D-01 0.100000000000D+01
0.834300443718D+00 0.000000000000D+00 0.000000000000D+00 0.760385356837D-05 0.650540262797D-05  6 1 1 25 1 1 21 2 0.26912699D+00 0.41716967D+00 0.46848711D+06 0.46848711D+06 0.46848711D+06 0.10705143D+01  1  2 11  2  6  2        1 0.534402117834D-01 0.100000000000D+01
0.145243328463D-11 0.000000000000D+00 0.000000000000D+00 0.760385356837D-05 0.000000000000D+00  6 1 21 25 1 1 -1 2 0.26912327D+00 0.41717281D+00 0.46848711D+06 0.46848711D+06 0.46848711D+06 0.10705143D+01  1  2 12  5  6  2        1 0.259490709168D-13 0.100000000000D+01
0.115344251491D-03 0.000000000000D+00 0.000000000000D+00 0.760385356837D-05 0.000000000000D+00  6 1 21 25 1 1 -1 2 0.26912327D+00 0.41765722D+00 0.46848711D+06 0.46848711D+06 0.46848711D+06 0.10705143D+01  1  2 12  5  6  2        1 0.204464617255D-05 0.100000000000D+01
-.441356946287D-02 0.000000000000D+00 -.290610532809D-05 0.760385356837D-05 0.000000000000D+00  6 1 21 25 1 1 -1 2 0.26912327D+00 0.41717132D+00 0.46750051D+06 0.46750051D+06 0.46750051D+06 0.10705794D+01  1  2  5  5  6  2        1 -.788897872854D-04 0.100000000000D+01
0.433290891098D-02 0.000000000000D+00 0.000000000000D+00 0.760385356837D-05 0.329917745789D-07  6 1 21 25 1 1 -1 2 0.26912699D+00 0.41716967D+00 0.46848711D+06 0.46848711D+06 0.46848711D+06 0.10705143D+01  1  2 11  5  6  2        1 0.774124965154D-04 0.100000000000D+01
  </mgrwgt>
  </event>
  <event>
  6     66 0.18540751E-05 0.78453134E+02 0.75467711E-02 0.94016105E-01
        1 -1    0    0  502    0 0.00000000E+00 0.00000000E+00 0.19197213E+04 0.19197214E+04 0.32000000E+00 0.0000E+00 0.9000E+01
        1 -1    0    0  501    0 0.00000000E+00 0.00000000E+00 -.63103432E+03 0.63103441E+03 0.32000000E+00 0.0000E+00 0.9000E+01
       25  1    1    2    0    0 -.35597435E+03 0.30038452E+03 0.43932008E+03 0.65236166E+03 0.12500000E+03 0.0000E+00 0.9000E+01
        1  1    1    2  501    0 0.42036291E+03 -.25230772E+03 -.32907108E+03 0.59046764E+03 0.32000000E+00 0.0000E+00 0.9000E+01
        1  1    1    2  503    0 -.21081231E+01 0.18237002E+01 0.12185853E+04 0.12185885E+04 0.32000000E+00 0.0000E+00 0.9000E+01
       21  1    1    2  502  503 -.62280436E+02 -.49900500E+02 -.40147241E+02 0.89337988E+02 0.75000000E+00 0.0000E+00 0.9000E+01
#aMCatNLO 2  0  0  5  2 0.92249885D+02 0.00000000D+00  -5  6  0 0.00000000D+00 0.00000000D+00 0.00000000D+00 0.00000000D+00 0.00000000D+00
  <mgrwgt>
 0.8991832170D-02    1    2    0
 0.110064081381467D+04 0.000000000000000D+00 0.000000000000000D+00 0.110064081381467D+04
 0.110064081381467D+04 -.000000000000000D+00 -.000000000000000D+00 -.110064081381467D+04
 0.486977145542572D+03 -.350671063237956D+03 0.304612989075483D+03 0.759109516134045D+02
 0.960605113956576D+03 0.430860006466904D+03 -.244738567011481D+03 -.822936737303683D+03
 0.753699368130193D+03 -.801889432289484D+02 -.598744220640014D+02 0.747025785690279D+03
 0.000000000000000D+00 0.000000000000000D+00 0.000000000000000D+00 -.000000000000000D+00
 0.110064081381467D+04 0.000000000000000D+00 0.000000000000000D+00 0.110064081381467D+04
 0.110064081381467D+04 -.000000000000000D+00 -.000000000000000D+00 -.110064081381467D+04
 0.499037946465511D+03 -.356203464786950D+03 0.300482128485061D+03 0.127449810307327D+03
 0.876901618957216D+03 0.420549996835351D+03 -.252436708966053D+03 -.726890540217687D+03
 0.698285348366957D+03 -.204000915077198D+01 0.187586163341353D+01 0.698279848806880D+03
 0.127056713839656D+03 -.623065228976287D+02 -.499212811524215D+02 -.988391188965202D+02
0.535927734774D-02 0.000000000000D+00 0.000000000000D+00 0.615102519213D-05 0.113313308062D-07  6 1 1 25 1 1 21 2 0.29534175D+00 0.97082212D-01 0.27857033D+06 0.27857033D+06 0.27857033D+06 0.10869412D+01  1  2  1  3  6  5        1 0.899183217030D-02 0.100000000000D+01
  </mgrwgt>
  </event>
  <event>
  5     66 0.18540751E-05 0.11574985E+03 0.75467711E-02 0.90171551E-01
        1 -1    0    0  502    0 0.00000000E+00 0.00000000E+00 0.71040953E+03 0.71040961E+03 0.32000000E+00 0.0000E+00 0.9000E+01
        1 -1    0    0  501    0 0.00000000E+00 0.00000000E+00 -.11647652E+04 0.11647653E+04 0.32000000E+00 0.0000E+00 0.9000E+01
       25  1    1    2    0    0 -.38720167E+03 0.58940806E+03 -.34768836E+03 0.79614018E+03 0.12500000E+03 0.0000E+00 0.9000E+01
        1  1    1    2  501    0 0.34318317E+03 -.48231063E+03 -.43258242E+03 0.73316157E+03 0.32000000E+00 0.0000E+00 0.9000E+01
        1  1    1    2  502    0 0.44018502E+02 -.10709743E+03 0.32591508E+03 0.34587314E+03 0.32000000E+00 0.0000E+00 0.9000E+01
#aMCatNLO 1  0  0  1  4 0.95438546D+02 0.00000000D+00  -5  6  0 0.00000000D+00 0.00000000D+00 0.00000000D+00 0.00000000D+00 0.00000000D+00
  <mgrwgt>
 0.1011051681D-03    9    2    0
 0.909648524614619D+03 0.000000000000000D+00 0.000000000000000D+00 0.909648524614619D+03
 0.909648524614619D+03 0.000000000000000D+00 0.000000000000000D+00 -.909648524614619D+03
 0.733811049302687D+03 -.387252554562704D+03 0.589472998731739D+03 -.159407336184947D+03
 0.647749545541704D+03 0.343249586914021D+03 -.482413363105322D+03 -.262748057900056D+03
 0.437736454384846D+03 0.440029676486831D+02 -.107059635626417D+03 0.422155394085003D+03
 0.000000000000000D+00 0.000000000000000D+00 -.000000000000000D+00 0.000000000000000D+00
 0.113152863639618D+04 0.000000000000000D+00 0.000000000000000D+00 0.113152863639618D+04
 0.921220380558419D+03 0.000000000000000D+00 0.000000000000000D+00 -.921220380558419D+03
 0.763387281373959D+03 -.424733103008809D+03 0.601104178776401D+03 -.159407336184947D+03
 0.623942193449087D+03 0.311414323104841D+03 -.472534060360691D+03 -.262748057900056D+03
 0.434469160980218D+03 0.221683555255980D+02 -.100283792813601D+03 0.422155394085003D+03
 0.230950381151335D+03 0.911504243783703D+02 -.282863256021092D+02 0.210308255837762D+03
0.785515524686D-05 0.000000000000D+00 0.000000000000D+00 0.784014631013D-07 0.000000000000D+00  6 1 1 25 1 1 21 0 0.10929378D+00 0.17919466D+00 0.50701814D+06 0.50701814D+06 0.50701814D+06 0.10680828D+01  1  2  2  1  6  1        1 0.293522630527D-04 0.100000000000D+01
0.145803003798D-05 0.000000000000D+00 -.301658644578D-07 0.784014631013D-07 0.000000000000D+00  6 1 1 25 1 1 21 2 0.10929378D+00 0.17919466D+00 0.50701814D+06 0.50701814D+06 0.50701814D+06 0.10680828D+01  1  2  3  1  6  1        1 0.621531518647D-05 0.100000000000D+01
-.553547575890D-05 0.000000000000D+00 0.000000000000D+00 0.784014631013D-07 0.000000000000D+00  6 1 1 25 1 1 21 2 0.10929378D+00 0.17919466D+00 0.50701814D+06 0.50701814D+06 0.50701814D+06 0.10680828D+01  1  2 15  1  6  1        1 -.235967199938D-04 0.100000000000D+01
0.773729650006D-08 0.000000000000D+00 0.000000000000D+00 0.784014631013D-07 0.000000000000D+00  6 1 1 25 1 1 21 2 0.13728988D+00 0.17919466D+00 0.57049576D+06 0.57049576D+06 0.57049576D+06 0.10644854D+01  1  2 12  1  6  1        1 0.225518904741D-07 0.100000000000D+01
-.637355763485D-05 0.000000000000D+00 0.000000000000D+00 0.784014631013D-07 0.000000000000D+00  6 1 1 25 1 1 21 2 0.10929378D+00 0.17919466D+00 0.50701814D+06 0.50701814D+06 0.50701814D+06 0.10680828D+01  1  2  4  1  6  1        1 -.271693096355D-04 0.100000000000D+01
-.101676456078D-03 0.000000000000D+00 -.925752655961D-05 0.784014631013D-07 0.000000000000D+00  6 1 1 25 1 1 21 2 0.13672155D+00 0.17919466D+00 0.50701814D+06 0.50701814D+06 0.50701814D+06 0.10680828D+01  1  2  5  1  6  1        1 -.302454144538D-03 0.100000000000D+01
0.101423550923D-03 0.000000000000D+00 0.903021755366D-05 0.784014631013D-07 0.000000000000D+00  6 1 1 25 1 1 21 2 0.10929378D+00 0.17919466D+00 0.50701814D+06 0.50701814D+06 0.50701814D+06 0.10680828D+01  1  2  6  1  6  1        1 0.432350033882D-03 0.100000000000D+01
0.244573665191D-09 0.000000000000D+00 0.000000000000D+00 0.784014631013D-07 0.000000000000D+00  6 21 1 25 1 1 -1 2 0.13728988D+00 0.17919466D+00 0.57049576D+06 0.57049576D+06 0.57049576D+06 0.10644854D+01  1  2 12  4  6  1        1 0.106302391125D-08 0.100000000000D+01
-.304081977291D-05 0.000000000000D+00 -.288626214302D-06 0.784014631013D-07 0.000000000000D+00  6 21 1 25 1 1 -1 2 0.13672155D+00 0.17919466D+00 0.50701814D+06 0.50701814D+06 0.50701814D+06 0.10680828D+01  1  2  5  4  6  1        1 -.136158847509D-04 0.100000000000D+01
  </mgrwgt>
  </event>
  <event>
  5     66 0.18540751E-05 0.95219379E+02 0.75467711E-02 0.86279963E-01
        1 -1    0    0  502    0 0.00000000E+00 0.00000000E+00 0.30544607E+04 0.30544607E+04 0.32000000E+00 0.0000E+00 0.9000E+01
        1 -1    0    0  501    0 0.00000000E+00 0.00000000E+00 -.20238688E+04 0.20238689E+04 0.32000000E+00 0.0000E+00 0.9000E+01
       25  1    1    2    0    0 -.83615839E+03 0.38939864E+03 0.18349866E+04 0.20575696E+04 0.12500000E+03 0.0000E+00 0.9000E+01
        1  1    1    2  501    0 0.90895994E+03 -.45081173E+03 -.17755216E+04 0.20449735E+04 0.32000000E+00 0.0000E+00 0.9000E+01
        1  1    1    2  502    0 -.72801549E+02 0.61413096E+02 0.97112692E+03 0.97578647E+03 0.32000000E+00 0.0000E+00 0.9000E+01
#aMCatNLO 1  0  0  1  5 0.63969340D+02 0.00000000D+00  -5  6  0 0.00000000D+00 0.00000000D+00 0.00000000D+00 0.00000000D+00 0.00000000D+00
  <mgrwgt>
 0.1398046485D-03    7    2    0
 0.248632819340155D+04 0.000000000000000D+00 0.000000000000000D+00 0.248632819340155D+04
 0.248632819340155D+04 0.000000000000000D+00 0.000000000000000D+00 -.248632819340155D+04
 0.172119904505478D+04 -.836234393204307D+03 0.389442626340284D+03 0.144773880002882D+04
 0.245641739687744D+04 0.909016262596962D+03 -.450839121454644D+03 -.223705608972649D+04
 0.795039944870884D+03 -.727818693926551D+02 0.613964951143607D+02 0.789317289697674D+03
 0.000000000000000D+00 0.000000000000000D+00 -.000000000000000D+00 0.000000000000000D+00
 0.286476838646526D+04 0.000000000000000D+00 0.000000000000000D+00 0.286476838646526D+04
 0.251280667524981D+04 0.000000000000000D+00 0.000000000000000D+00 -.251280667524981D+04
 0.174477854618945D+04 -.852049464703380D+03 0.454633095839701D+03 0.144773880002882D+04
 0.243299394188325D+04 0.886706138577055D+03 -.358875739592397D+03 -.223705608972649D+04
 0.798610679544305D+03 -.800536124741276D+02 0.913709625448819D+02 0.789317289697674D+03
 0.401191894098058D+03 0.453969386004533D+02 -.187128318792187D+03 0.351961711215445D+03
0.121859673497D-02 0.000000000000D+00 0.000000000000D+00 0.276466024342D-05 0.000000000000D+00  6 1 1 25 1 1 21 0 0.46991703D+00 0.31136444D+00 0.10412130D+07 0.10412130D+07 0.10412130D+07 0.10466984D+01  1  2  2  1  6  1        1 0.227449540258D-04 0.100000000000D+01
0.284847228071D-03 0.000000000000D+00 -.467973232618D-05 0.276466024342D-05 0.000000000000D+00  6 1 1 25 1 1 21 2 0.46991703D+00 0.31136444D+00 0.10412130D+07 0.10412130D+07 0.10412130D+07 0.10466984D+01  1  2  3  1  6  1        1 0.582478861977D-05 0.100000000000D+01
-.833581005673D-03 0.000000000000D+00 0.000000000000D+00 0.276466024342D-05 0.000000000000D+00  6 1 1 25 1 1 21 2 0.46991703D+00 0.31136444D+00 0.10412130D+07 0.10412130D+07 0.10412130D+07 0.10466984D+01  1  2 15  1  6  1        1 -.170457447958D-04 0.100000000000D+01
-.842700920326D-04 0.000000000000D+00 0.000000000000D+00 0.276466024342D-05 0.000000000000D+00  6 1 1 25 1 1 21 2 0.46991703D+00 0.31136444D+00 0.10412130D+07 0.10412130D+07 0.10412130D+07 0.10466984D+01  1  2  4  1  6  1        1 -.172322362546D-05 0.100000000000D+01
-.108336213795D-01 0.000000000000D+00 -.125990235220D-02 0.276466024342D-05 0.000000000000D+00  6 1 1 25 1 1 21 2 0.54270926D+00 0.31136444D+00 0.10412130D+07 0.10412130D+07 0.10412130D+07 0.10466984D+01  1  2  5  1  6  1        1 -.929443322221D-04 0.100000000000D+01
0.109146369864D-01 0.000000000000D+00 0.124694846558D-02 0.276466024342D-05 0.000000000000D+00  6 1 1 25 1 1 21 2 0.46991703D+00 0.31136444D+00 0.10412130D+07 0.10412130D+07 0.10412130D+07 0.10466984D+01  1  2  6  1  6  1        1 0.223191405925D-03 0.100000000000D+01
-.230960735596D-03 0.000000000000D+00 -.278047823240D-04 0.276466024342D-05 0.000000000000D+00  6 21 1 25 1 1 -1 2 0.54270926D+00 0.31136444D+00 0.10412130D+07 0.10412130D+07 0.10412130D+07 0.10466984D+01  1  2  5  4  6  1        1 -.243199437174D-06 0.100000000000D+01
  </mgrwgt>
  </event>
  <event>
  6     66 0.18540751E-05 0.94409603E+02 0.75467711E-02 0.95000694E-01
        1 -1    0    0  502    0 0.00000000E+00 0.00000000E+00 0.94234678E+03 0.94234683E+03 0.32000000E+00 0.0000E+00 0.9000E+01
        1 -1    0    0  501    0 0.00000000E+00 0.00000000E+00 -.58991957E+03 0.58991966E+03 0.32000000E+00 0.0000E+00 0.9000E+01
       25  1    1    2    0    0 -.41966978E+03 -.19830146E+03 0.31546949E+03 0.57497147E+03 0.12500000E+03 0.0000E+00 0.9000E+01
        1  1    1    2  501    0 0.35249470E+03 0.10463306E+03 -.37583519E+03 0.52578777E+03 0.32000000E+00 0.0000E+00 0.9000E+01
        1  1    1    2  503    0 0.39180570E+02 0.29672203E+02 0.10568196E+03 0.11655186E+03 0.32000000E+00 0.0000E+00 0.9000E+01
       21  1    1    2  502  503 0.27994510E+02 0.63996198E+02 0.30711094E+03 0.31495539E+03 0.75000000E+00 0.0000E+00 0.9000E+01
#aMCatNLO 2  0  0  5  1 0.22166873D+02 0.00000000D+00  -5  6  0 0.00000000D+00 0.00000000D+00 0.00000000D+00 0.00000000D+00 0.00000000D+00
  <mgrwgt>
 0.5161363902D-03    3    2    0
 0.745592997202161D+03 0.000000000000000D+00 0.000000000000000D+00 0.745592997202161D+03
 0.745592997202161D+03 -.000000000000000D+00 -.000000000000000D+00 -.745592997202161D+03
 0.516487590678639D+03 -.420083697877050D+03 -.198601357987652D+03 0.187674235601026D+03
 0.630265721421783D+03 0.352466552788746D+03 0.104316544284565D+03 -.511976823062398D+03
 0.344432682303900D+03 0.676171450883041D+02 0.942848137030871D+02 0.324302587461372D+03
 0.000000000000000D+00 0.000000000000000D+00 0.000000000000000D+00 0.000000000000000D+00
 0.745592997202161D+03 0.000000000000000D+00 0.000000000000000D+00 0.745592997202161D+03
 0.745592997202161D+03 -.000000000000000D+00 -.000000000000000D+00 -.745592997202161D+03
 0.516586247838119D+03 -.419836688554329D+03 -.198256930136620D+03 0.188858931618298D+03
 0.629331461558276D+03 0.352767724143076D+03 0.104736495245207D+03 -.510532357322962D+03
 0.941110210330472D+02 0.389254739646357D+02 0.294646319525615D+02 0.804582327696252D+02
 0.251157263974881D+03 0.281434904466175D+02 0.640558029388517D+02 0.241215192935039D+03
-.369927819013D-08 0.000000000000D+00 0.000000000000D+00 0.749367815683D-06 0.000000000000D+00  6 1 1 25 1 1 21 2 0.14497644D+00 0.90756868D-01 0.23406189D+06 0.23406189D+06 0.23406189D+06 0.10926179D+01  1  2 13  3  6  5        1 -.332023989476D-07 0.100000000000D+01
-.221316255737D-03 0.000000000000D+00 0.000000000000D+00 0.749367815683D-06 0.000000000000D+00  6 1 1 25 1 1 21 2 0.14497644D+00 0.90756868D-01 0.23406189D+06 0.23406189D+06 0.23406189D+06 0.10926179D+01  1  2 13  3  6  5        1 -.198639578829D-02 0.100000000000D+01
0.278825802538D-03 0.000000000000D+00 0.000000000000D+00 0.749367815683D-06 0.181348982813D-08  6 1 1 25 1 1 21 2 0.14497644D+00 0.90756868D-01 0.23406189D+06 0.23406189D+06 0.23406189D+06 0.10926179D+01  1  2  1  3  6  5        1 0.250256538085D-02 0.100000000000D+01
  </mgrwgt>
  </event>
  <event>
  5     66 0.18540751E-05 0.24260534E+02 0.75467711E-02 0.90312023E-01
        1 -1    0    0  502    0 0.00000000E+00 0.00000000E+00 0.74024070E+03 0.74024077E+03 0.32000000E+00 0.0000E+00 0.9000E+01
        1 -1    0    0  501    0 -.00000000E+00 -.00000000E+00 -.27527532E+04 0.27527532E+04 0.32000000E+00 0.0000E+00 0.9000E+01
       25  1    1    2    0    0 -.51376177E+03 -.40424954E+02 -.23973204E+03 0.58196374E+03 0.12500000E+03 0.0000E+00 0.9000E+01
        1  1    1    2  501    0 0.49951171E+03 0.20788421E+02 -.23149492E+04 0.23683188E+04 0.32000000E+00 0.0000E+00 0.9000E+01
        1  1    1    2  502    0 0.14250059E+02 0.19636533E+02 0.54216874E+03 0.54271144E+03 0.32000000E+00 0.0000E+00 0.9000E+01
#aMCatNLO 1  0  0  5  1 0.22166873D+02 0.00000000D+00  -5  6  0 0.00000000D+00 0.00000000D+00 0.00000000D+00 0.00000000D+00 0.00000000D+00
  <mgrwgt>
 0.4754184825D-02    6    2    0
 0.142748033078759D+04 0.000000000000000D+00 0.000000000000000D+00 0.142748033078759D+04
 0.142748033078759D+04 -.000000000000000D+00 -.000000000000000D+00 -.142748033078759D+04
 0.543092076623479D+03 -.513810766042885D+03 -.404260689430156D+02 0.116996723626949D+03
 0.126576110180617D+04 0.499561724307268D+03 0.207909385946858D+02 -.116282285294238D+04
 0.104610748314553D+04 0.142490417356175D+02 0.196351303483309D+02 0.104582612931543D+04
 0.000000000000000D+00 0.000000000000000D+00 0.000000000000000D+00 0.000000000000000D+00
 0.142748033078759D+04 0.000000000000000D+00 0.000000000000000D+00 0.142748033078759D+04
 0.142748033078759D+04 -.000000000000000D+00 -.000000000000000D+00 -.142748033078759D+04
 0.547432309049984D+03 -.513540201370448D+03 -.400532317579240D+02 0.136855154064224D+03
 0.122449946063492D+04 0.500179570677521D+03 0.216423287611438D+02 -.111747525063326D+04
 0.543812033839374D+03 0.233938033594440D+03 0.418002753142955D+02 0.489139306915864D+03
 0.539216858050901D+03 -.220577402901513D+03 -.233893723175141D+02 0.491480789653168D+03
0.821952965433D-02 0.000000000000D+00 0.000000000000D+00 0.130355986491D-03 0.000000000000D+00  6 1 1 25 1 1 21 0 0.11388319D+00 0.42350050D+00 0.27804263D+06 0.27804263D+06 0.27804263D+06 0.10870026D+01  1  2  2  3  6  5        1 0.247054321956D-02 0.100000000000D+01
0.632133991616D-02 0.000000000000D+00 -.315651581245D-04 0.130355986491D-03 0.000000000000D+00  6 1 1 25 1 1 21 2 0.11388319D+00 0.42350050D+00 0.27804263D+06 0.27804263D+06 0.27804263D+06 0.10870026D+01  1  2  3  3  6  5        1 0.224499701483D-02 0.100000000000D+01
-.463659398487D-02 0.000000000000D+00 0.000000000000D+00 0.130355986491D-03 0.000000000000D+00  6 1 1 25 1 1 21 2 0.11388319D+00 0.42350050D+00 0.27804263D+06 0.27804263D+06 0.27804263D+06 0.10870026D+01  1  2 15  3  6  5        1 -.164666665502D-02 0.100000000000D+01
-.711397737394D-04 0.000000000000D+00 0.000000000000D+00 0.130355986491D-03 0.000000000000D+00  6 1 1 25 1 1 21 2 0.11388319D+00 0.42350050D+00 0.27804263D+06 0.27804263D+06 0.27804263D+06 0.10870026D+01  1  2  4  3  6  5        1 -.252649884041D-04 0.100000000000D+01
-.777224425497D-02 0.000000000000D+00 0.000000000000D+00 0.130355986491D-03 0.000000000000D+00  6 1 1 25 1 1 21 2 0.11388319D+00 0.42350050D+00 0.27804263D+06 0.27804263D+06 0.27804263D+06 0.10870026D+01  1  2  5  3  6  5        1 -.276027952655D-02 0.100000000000D+01
0.125887913401D-01 0.000000000000D+00 -.000000000000D+00 0.130355986491D-03 0.000000000000D+00  6 1 1 25 1 1 21 2 0.11388319D+00 0.42350050D+00 0.27804263D+06 0.27804263D+06 0.27804263D+06 0.10870026D+01  1  2  6  3  6  5        1 0.447085576059D-02 0.100000000000D+01
  </mgrwgt>
  </event>
  <event>
  5     66 0.18540751E-05 0.10932899E+03 0.75467711E-02 0.93473205E-01
        1 -1    0    0  502    0 0.00000000E+00 0.00000000E+00 0.34525024E+03 0.34525039E+03 0.32000000E+00 0.0000E+00 0.9000E+01
        1 -1    0    0  501    0 -.00000000E+00 -.00000000E+00 -.15315617E+04 0.15315617E+04 0.32000000E+00 0.0000E+00 0.9000E+01
       25  1    1    2    0    0 0.11837970E+03 0.53364590E+03 -.79788373E+03 0.97521031E+03 0.12500000E+03 0.0000E+00 0.9000E+01
        1  1    1    2  501    0 -.86575039E+02 -.42900600E+03 -.55224046E+03 0.70463537E+03 0.32000000E+00 0.0000E+00 0.9000E+01
        1  1    1    2  502    0 -.31804664E+02 -.10463990E+03 0.16381276E+03 0.19696641E+03 0.32000000E+00 0.0000E+00 0.9000E+01
#aMCatNLO 1  0  0  5  1 0.16866403D+02 0.00000000D+00  -5  6  0 0.00000000D+00 0.00000000D+00 0.00000000D+00 0.00000000D+00 0.00000000D+00
  <mgrwgt>
 0.1053839838D-02    8    2    0
 0.727167247362325D+03 0.000000000000000D+00 0.000000000000000D+00 0.727167247362325D+03
 0.727167247362325D+03 -.000000000000000D+00 -.000000000000000D+00 -.727167247362325D+03
 0.607692943134735D+03 0.118394277458557D+03 0.533723096539137D+03 -.234068717306472D+03
 0.458967364842212D+03 -.866005397387728D+02 -.429119142019835D+03 -.137870049174278D+03
 0.387674186747703D+03 -.317937377197837D+02 -.104603954519302D+03 0.371938766480750D+03
 0.000000000000000D+00 0.000000000000000D+00 -.000000000000000D+00 0.000000000000000D+00
 0.727167247362325D+03 0.000000000000000D+00 0.000000000000000D+00 0.727167247362325D+03
 0.727167247362325D+03 -.000000000000000D+00 -.000000000000000D+00 -.727167247362325D+03
 0.607059705271307D+03 0.118310782500604D+03 0.533448391411314D+03 -.233091952261039D+03
 0.458952278488716D+03 -.866636321404437D+02 -.429326721096352D+03 -.137131963257529D+03
 0.315666862180315D+03 -.283105530009967D+02 -.689363608597143D+02 0.306743962644683D+03
 0.726556487843123D+02 -.333659735916320D+01 -.351853094552475D+02 0.634799528738848D+02
0.721550255655D-05 0.000000000000D+00 0.000000000000D+00 0.857696558255D-07 0.000000000000D+00  6 1 1 25 1 1 21 0 0.53115435D-01 0.23562489D+00 0.30686317D+06 0.30686317D+06 0.30686317D+06 0.10838258D+01  1  2  2  3  6  5        1 0.427996923752D-04 0.100000000000D+01
0.110158554175D-05 0.000000000000D+00 -.277094297026D-07 0.857696558255D-07 0.000000000000D+00  6 1 1 25 1 1 21 2 0.53115435D-01 0.23562489D+00 0.30686317D+06 0.30686317D+06 0.30686317D+06 0.10838258D+01  1  2  3  3  6  5        1 0.767558140344D-05 0.100000000000D+01
-.486222947284D-05 0.000000000000D+00 0.000000000000D+00 0.857696558255D-07 0.000000000000D+00  6 1 1 25 1 1 21 2 0.53115435D-01 0.23562489D+00 0.30686317D+06 0.30686317D+06 0.30686317D+06 0.10838258D+01  1  2 15  3  6  5        1 -.338788380082D-04 0.100000000000D+01
0.482180180190D-07 0.000000000000D+00 0.000000000000D+00 0.857696558255D-07 0.000000000000D+00  6 1 1 25 1 1 21 2 0.53115435D-01 0.23562489D+00 0.30712595D+06 0.30712595D+06 0.30712595D+06 0.10837984D+01  1  2 12  3  6  5        1 0.335940905950D-06 0.100000000000D+01
0.174907021938D-03 0.000000000000D+00 0.000000000000D+00 0.857696558255D-07 0.000000000000D+00  6 1 1 25 1 1 21 2 0.53115435D-01 0.23562489D+00 0.30712595D+06 0.30712595D+06 0.30712595D+06 0.10837984D+01  1  2 12  3  6  5        1 0.121859889354D-02 0.100000000000D+01
-.712166039496D-04 0.000000000000D+00 0.000000000000D+00 0.857696558255D-07 0.000000000000D+00  6 1 1 25 1 1 21 2 0.53115435D-01 0.23562489D+00 0.30686317D+06 0.30686317D+06 0.30686317D+06 0.10838258D+01  1  2  4  3  6  5        1 -.496220057523D-03 0.100000000000D+01
-.220623355937D-03 0.000000000000D+00 0.000000000000D+00 0.857696558255D-07 0.000000000000D+00  6 1 1 25 1 1 21 2 0.53115435D-01 0.23562489D+00 0.30686317D+06 0.30686317D+06 0.30686317D+06 0.10838258D+01  1  2  5  3  6  5        1 -.153725013974D-02 0.100000000000D+01
0.265763934649D-03 0.000000000000D+00 -.000000000000D+00 0.857696558255D-07 0.000000000000D+00  6 1 1 25 1 1 21 2 0.53115435D-01 0.23562489D+00 0.30686317D+06 0.30686317D+06 0.30686317D+06 0.10838258D+01  1  2  6  3  6  5        1 0.185177876542D-02 0.100000000000D+01
  </mgrwgt>
  </event>
  <event>
  5     66 -.18540751E-05 0.77965286E+02 0.75467711E-02 0.90299677E-01
        1 -1    0    0  502    0 0.00000000E+00 0.00000000E+00 0.54238050E+03 0.54238060E+03 0.32000000E+00 0.0000E+00 0.9000E+01
        1 -1    0    0  501    0 0.00000000E+00 0.00000000E+00 -.19549203E+04 0.19549203E+04 0.32000000E+00 0.0000E+00 0.9000E+01
       25  1    1    2    0    0 -.42095018E+03 -.36623878E+03 -.36735395E+03 0.67963507E+03 0.12500000E+03 0.0000E+00 0.9000E+01
        1  1    1    2  501    0 0.34397543E+03 0.37870668E+03 -.13811039E+04 0.14728156E+04 0.32000000E+00 0.0000E+00 0.9000E+01
        1  1    1    2  502    0 0.76974756E+02 -.12467899E+02 0.33591810E+03 0.34485016E+03 0.32000000E+00 0.0000E+00 0.9000E+01
#aMCatNLO 1  0  0  1  5 0.36902645D+03 0.00000000D+00  -5  6  0 0.00000000D+00 0.00000000D+00 0.00000000D+00 0.00000000D+00 0.00000000D+00
  <mgrwgt>
 -.4256239841D-03    5    2    0
 0.102971392953275D+04 0.000000000000000D+00 0.000000000000000D+00 0.102971392953275D+04
 0.102971392953275D+04 0.000000000000000D+00 0.000000000000000D+00 -.102971392953275D+04
 0.572242793606446D+03 -.420991491001826D+03 -.366293411402051D+03 0.207874024836518D+02
 0.838716084637634D+03 0.344029241907661D+03 0.378759284691533D+03 -.664552447593327D+03
 0.648468980821414D+03 0.769622490941644D+02 -.124658732894815D+02 0.643765045109675D+03
 0.000000000000000D+00 0.000000000000000D+00 0.000000000000000D+00 0.000000000000000D+00
 0.237282369047912D+04 0.000000000000000D+00 0.000000000000000D+00 0.237282369047912D+04
 0.107177601089194D+04 0.000000000000000D+00 0.000000000000000D+00 -.107177601089194D+04
 0.664119559865437D+03 -.530094695041326D+03 -.379469745807079D+03 0.207874024836518D+02
 0.782735798279749D+03 0.200943685213550D+03 0.361478920103444D+03 -.664552447593327D+03
 0.645373985526349D+03 -.372133506045060D+02 -.262547981498330D+02 0.643765045109675D+03
 0.135237035769952D+04 0.366364360432282D+03 0.442456238534675D+02 0.130104767958718D+04
0.209617209602D-03 0.000000000000D+00 0.000000000000D+00 0.443463344749D-05 0.000000000000D+00  6 1 1 25 1 1 21 0 0.83443163D-01 0.30075697D+00 0.33727563D+06 0.33727563D+06 0.33727563D+06 0.10808087D+01  1  2  2  1  6  1        1 0.346926924326D-03 0.100000000000D+01
0.639712332381D-04 0.000000000000D+00 -.804985278352D-06 0.443463344749D-05 0.000000000000D+00  6 1 1 25 1 1 21 2 0.83443163D-01 0.30075697D+00 0.33727563D+06 0.33727563D+06 0.33727563D+06 0.10808087D+01  1  2  3  1  6  1        1 0.123678282800D-03 0.100000000000D+01
-.133255283290D-03 0.000000000000D+00 0.000000000000D+00 0.443463344749D-05 0.000000000000D+00  6 1 1 25 1 1 21 2 0.83443163D-01 0.30075697D+00 0.33727563D+06 0.33727563D+06 0.33727563D+06 0.10808087D+01  1  2 15  1  6  1        1 -.257628058382D-03 0.100000000000D+01
-.124224998020D-02 0.000000000000D+00 -.120216107805D-03 0.443463344749D-05 0.000000000000D+00  6 1 1 25 1 1 21 2 0.19472185D+00 0.30075697D+00 0.33727563D+06 0.33727563D+06 0.33727563D+06 0.10808087D+01  1  2  5  1  6  1        1 -.589138351102D-03 0.100000000000D+01
-.107159668054D-03 0.000000000000D+00 -.111052721145D-04 0.443463344749D-05 0.000000000000D+00  6 21 1 25 1 1 -1 2 0.19472185D+00 0.30075697D+00 0.33727563D+06 0.33727563D+06 0.33727563D+06 0.10808087D+01  1  2  5  4  6  1        1 -.494627817633D-04 0.100000000000D+01
  </mgrwgt>
  </event>
  <event>
  6     66 0.18540751E-05 0.47146456E+02 0.75467711E-02 0.91739356E-01
        1 -1    0    0  502    0 0.00000000E+00 0.00000000E+00 0.75075339E+03 0.75075346E+03 0.32000000E+00 0.0000E+00 0.9000E+01
        1 -1    0    0  501    0 0.00000000E+00 0.00000000E+00 -.67799323E+03 0.67799331E+03 0.32000000E+00 0.0000E+00 0.9000E+01
       25  1    1    2    0    0 -.33539189E+03 0.48462917E+03 0.15058659E+03 0.62101085E+03 0.12500000E+03 0.0000E+00 0.9000E+01
        1  1    1    2  501    0 0.36928159E+03 -.52318154E+03 -.18854744E+03 0.66756128E+03 0.32000000E+00 0.0000E+00 0.9000E+01
        1  1    1    2  503    0 -.37818861E+02 0.33704728E+02 0.11925909E+03 0.12957279E+03 0.32000000E+00 0.0000E+00 0.9000E+01
       21  1    1    2  502  503 0.39291633E+01 0.48476424E+01 -.85380782E+01 0.10601851E+02 0.75000000E+00 0.0000E+00 0.9000E+01
#aMCatNLO 2  0  0  5  2 0.79192006D+01 0.00000000D+00  -5  6  0 0.00000000D+00 0.00000000D+00 0.00000000D+00 0.00000000D+00 0.00000000D+00
  <mgrwgt>
 0.2939967755D-02    3    2    0
 0.713446439004135D+03 0.000000000000000D+00 0.000000000000000D+00 0.713446439004135D+03
 0.713446439004135D+03 -.000000000000000D+00 -.000000000000000D+00 -.713446439004135D+03
 0.610013845513193D+03 -.333418536983007D+03 0.482462542675745D+03 0.112044035221691D+03
 0.684699027426326D+03 0.372127388081601D+03 -.526497103503295D+03 -.230509794153659D+03
 0.132180005068753D+03 -.387088510985941D+02 0.440345608275501D+02 0.118465758931968D+03
 0.000000000000000D+00 0.000000000000000D+00 0.000000000000000D+00 -.000000000000000D+00
 0.713446439004135D+03 0.000000000000000D+00 0.000000000000000D+00 0.713446439004135D+03
 0.713446439004135D+03 -.000000000000000D+00 -.000000000000000D+00 -.713446439004135D+03
 0.614876912451367D+03 -.335822039826741D+03 0.485196728505804D+03 0.119399789277862D+03
 0.678180814356954D+03 0.369453120556848D+03 -.523454900166184D+03 -.222325383536561D+03
 0.122792428595763D+03 -.375665133158025D+02 0.334049574384823D+02 0.112030560189050D+03
 0.110427226041873D+02 0.393543258569622D+01 0.485321422189782D+01 -.910496593035020D+01
-.122616372712D-06 0.000000000000D+00 0.000000000000D+00 0.457710021237D-07 0.000000000000D+00  6 1 1 25 1 1 21 2 0.11550053D+00 0.10430666D+00 0.42275669D+06 0.42275669D+06 0.42275669D+06 0.10736996D+01  1  2 13  3  6  5        1 -.122291024895D-05 0.100000000000D+01
-.118374836903D-02 0.000000000000D+00 0.000000000000D+00 0.457710021237D-07 0.000000000000D+00  6 1 1 25 1 1 21 2 0.11550053D+00 0.10430666D+00 0.42444976D+06 0.42444976D+06 0.42444976D+06 0.10735751D+01  1  2  8  3  6  5        1 -.118014279292D-01 0.100000000000D+01
0.147818404326D-02 0.000000000000D+00 0.000000000000D+00 0.457710021237D-07 0.634546531519D-08  6 1 1 25 1 1 21 2 0.11550053D+00 0.10430666D+00 0.42275669D+06 0.42275669D+06 0.42275669D+06 0.10736996D+01  1  2  1  3  6  5        1 0.147426185946D-01 0.100000000000D+01
  </mgrwgt>
  </event>
  <event>
  5     66 0.18540751E-05 0.30637777E+02 0.75467711E-02 0.90902255E-01
        1 -1    0    0  502    0 0.00000000E+00 0.00000000E+00 0.10657318E+04 0.10657318E+04 0.32000000E+00 0.0000E+00 0.9000E+01
        1 -1    0    0  501    0 0.00000000E+00 0.00000000E+00 -.85900174E+03 0.85900180E+03 0.32000000E+00 0.0000E+00 0.9000E+01
       25  1    1    2    0    0 0.36313625E+03 0.36486107E+03 -.24625566E+03 0.58417325E+03 0.12500000E+03 0.0000E+00 0.9000E+01
        1  1    1    2  501    0 -.34210921E+03 -.34257341E+03 -.31134633E+03 0.57561436E+03 0.32000000E+00 0.0000E+00 0.9000E+01
        1  1    1    2  502    0 -.21027041E+02 -.22287659E+02 0.76433203E+03 0.76494603E+03 0.32000000E+00 0.0000E+00 0.9000E+01
#aMCatNLO 1  0  0  5  1 0.73266510D+01 0.00000000D+00  -5  6  0 0.00000000D+00 0.00000000D+00 0.00000000D+00 0.00000000D+00 0.00000000D+00
  <mgrwgt>
 0.2718733721D-02    3    2    0
 0.956799649112161D+03 0.000000000000000D+00 0.000000000000000D+00 0.956799649112161D+03
 0.956799649112161D+03 -.000000000000000D+00 -.000000000000000D+00 -.956799649112161D+03
 0.614207971828154D+03 0.363184759497926D+03 0.364909645601663D+03 -.310747829714958D+03
 0.612641047979861D+03 -.342159989358376D+03 -.342624393736404D+03 -.375318691472861D+03
 0.686750278416307D+03 -.210247701395503D+02 -.222852518652593D+02 0.686066521187819D+03
 0.000000000000000D+00 0.000000000000000D+00 0.000000000000000D+00 0.000000000000000D+00
 0.956799649112161D+03 0.000000000000000D+00 0.000000000000000D+00 0.956799649112161D+03
 0.956799649112161D+03 -.000000000000000D+00 -.000000000000000D+00 -.956799649112161D+03
 0.522608512984609D+03 0.355543416831189D+03 0.356810187448889D+03 -.614005433581571D+02
 0.511677561451941D+03 -.349717325019877D+03 -.350634808477160D+03 -.128712666659238D+03
 0.356245684547959D+03 -.196077535966705D+03 0.343492587557819D+02 -.295439868790922D+03
 0.523067539239814D+03 0.190251444155393D+03 -.405246377275110D+02 0.485553078808317D+03
0.833196003650D-03 0.000000000000D+00 0.000000000000D+00 0.589063361754D-05 0.000000000000D+00  6 1 1 25 1 1 21 0 0.16395874D+00 0.13215412D+00 0.27282487D+06 0.27282487D+06 0.27282487D+06 0.10876160D+01  1  2  2  3  6  5        1 0.281160408320D-02 0.100000000000D+01
0.526636588905D-03 0.000000000000D+00 -.319969203956D-05 0.589063361754D-05 0.000000000000D+00  6 1 1 25 1 1 21 2 0.16395874D+00 0.13215412D+00 0.27282487D+06 0.27282487D+06 0.27282487D+06 0.10876160D+01  1  2  3  3  6  5        1 0.210217668962D-02 0.100000000000D+01
-.549902440496D-03 0.000000000000D+00 0.000000000000D+00 0.589063361754D-05 0.000000000000D+00  6 1 1 25 1 1 21 2 0.16395874D+00 0.13215412D+00 0.27282487D+06 0.27282487D+06 0.27282487D+06 0.10876160D+01  1  2 15  3  6  5        1 -.219504705205D-02 0.100000000000D+01
  </mgrwgt>
  </event>
  <event>
  5     66 -.18540751E-05 0.83133357E+02 0.75467711E-02 0.91585825E-01
        1 -1    0    0  502    0 0.00000000E+00 0.00000000E+00 0.11321682E+04 0.11321682E+04 0.32000000E+00 0.0000E+00 0.9000E+01
        1 -1    0    0  501    0 0.00000000E+00 0.00000000E+00 -.14175708E+04 0.14175709E+04 0.32000000E+00 0.0000E+00 0.9000E+01
       25  1    1    2    0    0 -.41808438E+03 -.31722819E+03 -.12141579E+03 0.55298741E+03 0.12500000E+03 0.0000E+00 0.9000E+01
        1  1    1    2  501    0 -.82844966E+02 -.68412039E+01 -.98131767E+03 0.98483225E+03 0.32000000E+00 0.0000E+00 0.9000E+01
        1  1    1    2  502    0 0.50092935E+03 0.32406939E+03 0.81733079E+03 0.10119194E+04 0.32000000E+00 0.0000E+00 0.9000E+01
#aMCatNLO 1  0  0  1  4 0.48479125D+02 0.00000000D+00  -5  6  0 0.00000000D+00 0.00000000D+00 0.00000000D+00 0.00000000D+00 0.00000000D+00
  <mgrwgt>
 -.5617308172D-02    7    2    0
 0.126685779030274D+04 0.000000000000000D+00 0.000000000000000D+00 0.126685779030274D+04
 0.126685779030274D+04 0.000000000000000D+00 0.000000000000000D+00 -.126685779030274D+04
 0.542782155588650D+03 -.418066733998327D+03 -.317220655454286D+03 -.598224882681017D+02
 0.880573760052295D+03 -.828513696411410D+02 -.684146203098265D+01 -.876640742743858D+03
 0.111035966496454D+04 0.500918103639468D+03 0.324062117485268D+03 0.936463231011960D+03
 0.000000000000000D+00 0.000000000000000D+00 0.000000000000000D+00 0.000000000000000D+00
 0.171785408395224D+04 0.000000000000000D+00 0.000000000000000D+00 0.171785408395224D+04
 0.127194302565185D+04 0.000000000000000D+00 0.000000000000000D+00 -.127194302565185D+04
 0.559585693795199D+03 -.436852363961106D+03 -.321080100129641D+03 -.598224882681017D+02
 0.883979489180412D+03 -.112921408792077D+03 -.130192507300445D+02 -.876640742743858D+03
 0.109168456346836D+04 0.463392709497997D+03 0.316352651106080D+03 0.936463231011960D+03
 0.454547363160118D+03 0.863810632551867D+02 0.177466997536058D+02 0.445911058300392D+03
0.965653579978D-04 0.000000000000D+00 0.000000000000D+00 0.841364688597D-05 0.000000000000D+00  6 1 1 25 1 1 21 0 0.17417972D+00 0.21808783D+00 0.37161938D+06 0.37161938D+06 0.37161938D+06 0.10777393D+01  1  2  2  1  6  1        1 0.110937532048D-03 0.100000000000D+01
0.312896297290D-04 0.000000000000D+00 -.370836400954D-06 0.841364688597D-05 0.000000000000D+00  6 1 1 25 1 1 21 2 0.17417972D+00 0.21808783D+00 0.37161938D+06 0.37161938D+06 0.37161938D+06 0.10777393D+01  1  2  3  1  6  1        1 0.417527436913D-04 0.100000000000D+01
-.756906266336D-04 0.000000000000D+00 0.000000000000D+00 0.841364688597D-05 0.000000000000D+00  6 1 1 25 1 1 21 2 0.17417972D+00 0.21808783D+00 0.37161938D+06 0.37161938D+06 0.37161938D+06 0.10777393D+01  1  2 15  1  6  1        1 -.101001237823D-03 0.100000000000D+01
-.561882958425D-02 0.000000000000D+00 0.000000000000D+00 0.841364688597D-05 0.000000000000D+00  6 1 1 25 1 1 21 2 0.17417972D+00 0.21808783D+00 0.37161938D+06 0.37161938D+06 0.37161938D+06 0.10777393D+01  1  2  4  1  6  1        1 -.749774137656D-02 0.100000000000D+01
-.322123869011D-02 0.000000000000D+00 -.820483064308D-04 0.841364688597D-05 0.000000000000D+00  6 1 1 25 1 1 21 2 0.23650146D+00 0.21808783D+00 0.37161938D+06 0.37161938D+06 0.37161938D+06 0.10777393D+01  1  2  5  1  6  1        1 -.224844101326D-02 0.100000000000D+01
0.310371005806D-02 0.000000000000D+00 0.783544395267D-04 0.841364688597D-05 0.000000000000D+00  6 1 1 25 1 1 21 2 0.17417972D+00 0.21808783D+00 0.37161938D+06 0.37161938D+06 0.37161938D+06 0.10777393D+01  1  2  6  1  6  1        1 0.414157699112D-02 0.100000000000D+01
-.124375879883D-03 0.000000000000D+00 -.321626514811D-05 0.841364688597D-05 0.000000000000D+00  6 21 1 25 1 1 -1 2 0.23650146D+00 0.21808783D+00 0.37161938D+06 0.37161938D+06 0.37161938D+06 0.10777393D+01  1  2  5  4  6  1        1 -.643918114289D-04 0.100000000000D+01
  </mgrwgt>
  </event>
  <event>
  5     66 0.18540751E-05 0.13959005E+03 0.75467711E-02 0.91939154E-01
        1 -1    0    0  502    0 0.00000000E+00 0.00000000E+00 0.18550100E+04 0.18550100E+04 0.32000000E+00 0.0000E+00 0.9000E+01
        1 -1    0    0  501    0 0.00000000E+00 0.00000000E+00 -.65737000E+03 0.65737007E+03 0.32000000E+00 0.0000E+00 0.9000E+01
       25  1    1    2    0    0 -.57305068E+03 0.19752002E+03 -.27365613E+03 0.67669337E+03 0.12500000E+03 0.0000E+00 0.9000E+01
        1  1    1    2  501    0 0.45414534E+03 -.12437351E+03 0.13184257E+03 0.48897784E+03 0.32000000E+00 0.0000E+00 0.9000E+01
        1  1    1    2  502    0 0.11890533E+03 -.73146511E+02 0.13394535E+04 0.13467089E+04 0.32000000E+00 0.0000E+00 0.9000E+01
#aMCatNLO 1  0  0  1  5 0.39889662D+02 0.00000000D+00  -5  6  0 0.00000000D+00 0.00000000D+00 0.00000000D+00 0.00000000D+00 0.00000000D+00
  <mgrwgt>
 0.6344617452D-03   11    2    0
 0.110427715486719D+04 0.000000000000000D+00 0.000000000000000D+00 0.110427715486719D+04
 0.110427715486719D+04 0.000000000000000D+00 0.000000000000000D+00 -.110427715486719D+04
 0.918184622329315D+03 -.573111734853494D+03 0.197538299511062D+03 -.678203185101281D+03
 0.484819577103982D+03 0.454217102495568D+03 -.124398370771612D+03 -.115160286093703D+03
 0.805550110301086D+03 0.118894632357926D+03 -.731399287394500D+02 0.793363471194984D+03
 0.000000000000000D+00 -.000000000000000D+00 0.000000000000000D+00 0.000000000000000D+00
 0.150932364575551D+04 0.000000000000000D+00 0.000000000000000D+00 0.150932364575551D+04
 0.110543979351932D+04 0.000000000000000D+00 0.000000000000000D+00 -.110543979351932D+04
 0.907386901388951D+03 -.557443605385773D+03 0.192413760800080D+03 -.678203185101281D+03
 0.493394452525548D+03 0.462612711138805D+03 -.127144302989185D+03 -.115160286093703D+03
 0.808133158734720D+03 0.132744212092634D+03 -.776696786133936D+02 0.793363471194984D+03
 0.405848926625614D+03 -.379133178456667D+02 0.124002208024987D+02 0.403883852236192D+03
0.716909112399D-05 0.000000000000D+00 0.000000000000D+00 0.117483053217D-06 0.000000000000D+00  6 1 1 25 1 1 21 0 0.28538616D+00 0.10113385D+00 0.37790983D+06 0.37790983D+06 0.37790983D+06 0.10772107D+01  1  2  2  1  6  1        1 0.103654557765D-04 0.100000000000D+01
0.123241151270D-05 0.000000000000D+00 -.275311975812D-07 0.117483053217D-06 0.000000000000D+00  6 1 1 25 1 1 21 2 0.28538616D+00 0.10113385D+00 0.37790983D+06 0.37790983D+06 0.37790983D+06 0.10772107D+01  1  2  3  1  6  1        1 0.206767073145D-05 0.100000000000D+01
-.446768901480D-05 0.000000000000D+00 0.000000000000D+00 0.117483053217D-06 0.000000000000D+00  6 1 1 25 1 1 21 2 0.28538616D+00 0.10113385D+00 0.37790983D+06 0.37790983D+06 0.37790983D+06 0.10772107D+01  1  2 15  1  6  1        1 -.749563738892D-05 0.100000000000D+01
0.277083486948D-07 0.000000000000D+00 0.000000000000D+00 0.117483053217D-06 0.000000000000D+00  6 1 1 25 1 1 21 2 0.39063932D+00 0.10113385D+00 0.40721840D+06 0.40721840D+06 0.40721840D+06 0.10748681D+01  1  2 12  1  6  1        1 0.158203698852D-07 0.100000000000D+01
0.589088993360D-03 0.000000000000D+00 0.000000000000D+00 0.117483053217D-06 0.000000000000D+00  6 1 1 25 1 1 21 2 0.41925587D+00 0.10113385D+00 0.40721840D+06 0.40721840D+06 0.40721840D+06 0.10748681D+01  1  2 12  1  6  1        1 0.248448791137D-03 0.100000000000D+01
-.250979482497D-03 0.000000000000D+00 0.000000000000D+00 0.117483053217D-06 0.000000000000D+00  6 1 1 25 1 1 21 2 0.28538616D+00 0.10113385D+00 0.37790983D+06 0.37790983D+06 0.37790983D+06 0.10772107D+01  1  2  4  1  6  1        1 -.421079261923D-03 0.100000000000D+01
-.786750321253D-03 0.000000000000D+00 -.518268313222D-05 0.117483053217D-06 0.000000000000D+00  6 1 1 25 1 1 21 2 0.39017137D+00 0.10113385D+00 0.37790983D+06 0.37790983D+06 0.37790983D+06 0.10772107D+01  1  2  5  1  6  1        1 -.456084751924D-03 0.100000000000D+01
0.751559824245D-03 0.000000000000D+00 0.493916291527D-05 0.117483053217D-06 0.000000000000D+00  6 1 1 25 1 1 21 2 0.28538616D+00 0.10113385D+00 0.37790983D+06 0.37790983D+06 0.37790983D+06 0.10772107D+01  1  2  6  1  6  1        1 0.126092480921D-02 0.100000000000D+01
0.110676381829D-08 0.000000000000D+00 0.000000000000D+00 0.117483053217D-06 0.000000000000D+00  6 21 1 25 1 1 -1 2 0.39063932D+00 0.10113385D+00 0.40721840D+06 0.40721840D+06 0.40721840D+06 0.10748681D+01  1  2 12  4  6  1        1 0.204499993482D-09 0.100000000000D+01
0.272488846094D-04 0.000000000000D+00 0.000000000000D+00 0.117483053217D-06 0.000000000000D+00  6 21 1 25 1 1 -1 2 0.41925587D+00 0.10113385D+00 0.40721840D+06 0.40721840D+06 0.40721840D+06 0.10748681D+01  1  2 12  4  6  1        1 0.319145886881D-05 0.100000000000D+01
-.312149980052D-04 0.000000000000D+00 -.206443544366D-06 0.117483053217D-06 0.000000000000D+00  6 21 1 25 1 1 -1 2 0.39017137D+00 0.10113385D+00 0.37790983D+06 0.37790983D+06 0.37790983D+06 0.10772107D+01  1  2  5  4  6  1        1 -.589281412698D-05 0.100000000000D+01
  </mgrwgt>
  </event>
  <event>
  5     66 0.18540751E-05 0.48151710E+02 0.75467711E-02 0.88760324E-01
        1 -1    0    0  502    0 0.00000000E+00 0.00000000E+00 0.16811317E+04 0.16811317E+04 0.32000000E+00 0.0000E+00 0.9000E+01
        1 -1    0    0  501    0 0.00000000E+00 0.00000000E+00 -.17131311E+04 0.17131311E+04 0.32000000E+00 0.0000E+00 0.9000E+01
       25  1    1    2    0    0 -.98647656E+02 0.82917897E+03 -.38410864E+03 0.92759559E+03 0.12500000E+03 0.0000E+00 0.9000E+01
        1  1    1    2  501    0 -.40360020E+02 -.26255762E+02 -.93882727E+03 0.94006119E+03 0.32000000E+00 0.0000E+00 0.9000E+01
        1  1    1    2  502    0 0.13900768E+03 -.80292321E+03 0.12909365E+04 0.15266060E+04 0.32000000E+00 0.0000E+00 0.9000E+01
#aMCatNLO 1  0  0  2  5 0.46129246D+02 0.00000000D+00  -5  6  0 0.00000000D+00 0.00000000D+00 0.00000000D+00 0.00000000D+00 0.00000000D+00
  <mgrwgt>
 0.1207271976D-02    9    2    0
 0.169705599131623D+04 0.000000000000000D+00 0.000000000000000D+00 0.169705599131623D+04
 0.169705599131623D+04 0.000000000000000D+00 0.000000000000000D+00 -.169705599131623D+04
 0.923979053151731D+03 -.986435386511976D+02 0.829171019995594D+03 -.375309422403707D+03
 0.931306943956577D+03 -.403624473565565D+02 -.262575714993714D+02 -.930061308002910D+03
 0.153882598552416D+04 0.139005986007754D+03 -.802913448496223D+03 0.130537073040662D+04
 0.000000000000000D+00 -.000000000000000D+00 -.000000000000000D+00 -.000000000000000D+00
 0.169790757527344D+04 0.000000000000000D+00 0.000000000000000D+00 0.169790757527344D+04
 0.246280565203666D+04 0.000000000000000D+00 0.000000000000000D+00 -.246280565203666D+04
 0.933185950579412D+03 -.923861004722180D+02 0.840130147211332D+03 -.375309422403707D+03
 0.930811043790115D+03 -.340883208428212D+02 -.152692167342156D+02 -.930061308002910D+03
 0.153042844419738D+04 0.149347377220143D+03 -.784801783843266D+03 0.130537073040662D+04
 0.766287788743197D+03 -.228729559051041D+02 -.400591466338499D+02 -.764898076763217D+03
0.278591774667D-04 0.000000000000D+00 0.000000000000D+00 0.144197717546D-04 0.000000000000D+00  6 1 1 25 1 1 21 0 0.25863565D+00 0.26355863D+00 0.72874517D+06 0.72874517D+06 0.72874517D+06 0.10571362D+01  1  2  2  2  6  2        1 0.800125162225D-05 0.100000000000D+01
0.157644847427D-04 0.000000000000D+00 -.106986576962D-06 0.144197717546D-04 0.000000000000D+00  6 1 1 25 1 1 21 2 0.25863565D+00 0.26355863D+00 0.72874517D+06 0.72874517D+06 0.72874517D+06 0.10571362D+01  1  2  3  2  6  2        1 0.505977622214D-05 0.100000000000D+01
-.186439170753D-04 0.000000000000D+00 0.000000000000D+00 0.144197717546D-04 0.000000000000D+00  6 1 1 25 1 1 21 2 0.25863565D+00 0.26355863D+00 0.72874517D+06 0.72874517D+06 0.72874517D+06 0.10571362D+01  1  2 15  2  6  2        1 -.598396013855D-05 0.100000000000D+01
0.175567555159D-09 0.000000000000D+00 0.000000000000D+00 0.144197717546D-04 0.000000000000D+00  6 1 1 25 1 1 21 2 0.25863565D+00 0.38254029D+00 0.75407939D+06 0.75407939D+06 0.75407939D+06 0.10561227D+01  1  2 12  2  6  2        1 0.166998194528D-10 0.100000000000D+01
-.623084643434D-03 0.000000000000D+00 0.000000000000D+00 0.144197717546D-04 0.000000000000D+00  6 1 1 25 1 1 21 2 0.25863565D+00 0.26355863D+00 0.72874517D+06 0.72874517D+06 0.72874517D+06 0.10571362D+01  1  2  4  2  6  2        1 -.199985531699D-03 0.100000000000D+01
-.689068602135D-02 0.000000000000D+00 -.181270804269D-04 0.144197717546D-04 0.000000000000D+00  6 1 1 25 1 1 21 2 0.25863565D+00 0.38253061D+00 0.72874517D+06 0.72874517D+06 0.72874517D+06 0.10571362D+01  1  2  5  2  6  2        1 -.659012877311D-03 0.100000000000D+01
0.644613157130D-02 0.000000000000D+00 0.169380848325D-04 0.144197717546D-04 0.000000000000D+00  6 1 1 25 1 1 21 2 0.25863565D+00 0.26355863D+00 0.72874517D+06 0.72874517D+06 0.72874517D+06 0.10571362D+01  1  2  6  2  6  2        1 0.206895333286D-02 0.100000000000D+01
0.793479155594D-11 0.000000000000D+00 0.000000000000D+00 0.144197717546D-04 0.000000000000D+00  6 1 21 25 1 1 -1 2 0.25863565D+00 0.38254029D+00 0.75407939D+06 0.75407939D+06 0.75407939D+06 0.10561227D+01  1  2 12  5  6  2        1 0.247377807631D-12 0.100000000000D+01
-.310849169470D-03 0.000000000000D+00 -.819214683176D-06 0.144197717546D-04 0.000000000000D+00  6 1 21 25 1 1 -1 2 0.25863565D+00 0.38253061D+00 0.72874517D+06 0.72874517D+06 0.72874517D+06 0.10571362D+01  1  2  5  5  6  2        1 -.976003230081D-05 0.100000000000D+01
  </mgrwgt>
  </event>
  <event>
  5     66 0.18540751E-05 0.38974890E+02 0.75467711E-02 0.78285418E-01
        1 -1    0    0  502    0 0.00000000E+00 0.00000000E+00 0.64611148E+03 0.64611156E+03 0.32000000E+00 0.0000E+00 0.9000E+01
        1 -1    0    0  501    0 0.00000000E+00 0.00000000E+00 -.26819041E+04 0.26819041E+04 0.32000000E+00 0.0000E+00 0.9000E+01
       25  1    1    2    0    0 -.29155034E+03 -.63703257E+03 -.11524994E+04 0.13545080E+04 0.12500000E+03 0.0000E+00 0.9000E+01
        1  1    1    2  501    0 0.29099681E+03 0.59805847E+03 -.13501231E+04 0.15050533E+04 0.32000000E+00 0.0000E+00 0.9000E+01
        1  1    1    2  502    0 0.55352953E+00 0.38974097E+02 0.46682983E+03 0.46845435E+03 0.32000000E+00 0.0000E+00 0.9000E+01
#aMCatNLO 1  0  0  1  4 0.15408873D+03 0.00000000D+00  -5  6  0 0.00000000D+00 0.00000000D+00 0.00000000D+00 0.00000000D+00 0.00000000D+00
  <mgrwgt>
 0.9447749859D-03    5    2    0
 0.131636209634584D+04 0.000000000000000D+00 0.000000000000000D+00 0.131636209634584D+04
 0.131636209634584D+04 0.000000000000000D+00 0.000000000000000D+00 -.131636209634584D+04
 0.821076620400593D+03 -.291581602260664D+03 -.637096836582577D+03 -.409425947648702D+03
 0.858570128100882D+03 0.291028117279869D+03 0.598125876693754D+03 -.542854248808120D+03
 0.953077444190199D+03 0.553484980794491D+00 0.389709598888230D+02 0.952280196456821D+03
 0.000000000000000D+00 -.000000000000000D+00 -.000000000000000D+00 0.000000000000000D+00
 0.108245787982233D+05 0.000000000000000D+00 0.000000000000000D+00 0.108245787982233D+05
 0.205400046350545D+04 0.000000000000000D+00 0.000000000000000D+00 -.205400046350545D+04
 0.701335208334250D+03 0.313008533958999D+03 -.458957651107427D+03 -.409425947648702D+03
 0.166166619425325D+04 0.129188083838889D+04 0.893021671113679D+03 -.542854248808120D+03
 0.135891520800000D+04 0.918707118671449D+03 0.309499919341243D+03 0.952280196456821D+03
 0.915666265114124D+04 -.252359649101934D+04 -.743563939347495D+03 0.877057833471784D+04
0.216316810125D-02 0.000000000000D+00 0.000000000000D+00 0.571064723488D-05 0.000000000000D+00  6 1 1 25 1 1 21 0 0.99401773D-01 0.41260064D+00 0.50116472D+06 0.50116472D+06 0.50116472D+06 0.10684390D+01  1  2  2  1  6  1        1 0.855574338822D-03 0.100000000000D+01
0.143494874293D-02 0.000000000000D+00 -.830713508406D-05 0.571064723488D-05 0.000000000000D+00  6 1 1 25 1 1 21 2 0.99401773D-01 0.41260064D+00 0.50116472D+06 0.50116472D+06 0.50116472D+06 0.10684390D+01  1  2  3  1  6  1        1 0.647893052158D-03 0.100000000000D+01
-.123735700284D-02 0.000000000000D+00 0.000000000000D+00 0.571064723488D-05 0.000000000000D+00  6 1 1 25 1 1 21 2 0.99401773D-01 0.41260064D+00 0.50116472D+06 0.50116472D+06 0.50116472D+06 0.10684390D+01  1  2 15  1  6  1        1 -.558678495749D-03 0.100000000000D+01
-.794548409159D-03 0.000000000000D+00 -.244891741471D-02 0.571064723488D-05 0.000000000000D+00  6 1 1 25 1 1 21 2 0.83907556D+00 0.41260064D+00 0.50116472D+06 0.50116472D+06 0.50116472D+06 0.10684390D+01  1  2  5  1  6  1        1 -.136876378407D-07 0.100000000000D+01
-.522203599473D-03 0.000000000000D+00 -.631601994929D-03 0.571064723488D-05 0.000000000000D+00  6 21 1 25 1 1 -1 2 0.83907556D+00 0.41260064D+00 0.50116472D+06 0.50116472D+06 0.50116472D+06 0.10684390D+01  1  2  5  4  6  1        1 -.221692090913D-09 0.100000000000D+01
  </mgrwgt>
  </event>
  <event>
  5     66 0.18540751E-05 0.22687617E+02 0.75467711E-02 0.89481072E-01
        1 -1    0    0  502    0 0.00000000E+00 0.00000000E+00 0.71812331E+03 0.71812338E+03 0.32000000E+00 0.0000E+00 0.9000E+01
        1 -1    0    0  501    0 -.00000000E+00 -.00000000E+00 -.15346876E+04 0.15346876E+04 0.32000000E+00 0.0000E+00 0.9000E+01
       25  1    1    2    0    0 0.44321049E+03 0.53519276E+03 -.56325091E+03 0.90318516E+03 0.12500000E+03 0.0000E+00 0.9000E+01
        1  1    1    2  501    0 -.44849817E+03 -.51312484E+03 -.65621875E+03 0.94608184E+03 0.32000000E+00 0.0000E+00 0.9000E+01
        1  1    1    2  502    0 0.52876777E+01 -.22067927E+02 0.40290536E+03 0.40354403E+03 0.32000000E+00 0.0000E+00 0.9000E+01
#aMCatNLO 1  0  0  5  1 0.76940422D+01 0.00000000D+00  -5  6  0 0.00000000D+00 0.00000000D+00 0.00000000D+00 0.00000000D+00 0.00000000D+00
  <mgrwgt>
 0.1797061942D-02    6    2    0
 0.104980715885790D+04 0.000000000000000D+00 0.000000000000000D+00 0.104980715885790D+04
 0.104980715885790D+04 -.000000000000000D+00 -.000000000000000D+00 -.104980715885790D+04
 0.750094849424102D+03 0.443274639449136D+03 0.535264650096248D+03 -.253015081588325D+03
 0.759965526716897D+03 -.448561161898897D+03 -.513201544394078D+03 -.336102158079259D+03
 0.589553941574806D+03 0.528652244976126D+01 -.220631057021682D+02 0.589117239667583D+03
 0.000000000000000D+00 0.000000000000000D+00 -.000000000000000D+00 0.000000000000000D+00
 0.104980715885790D+04 0.000000000000000D+00 0.000000000000000D+00 0.104980715885790D+04
 0.104980715885790D+04 -.000000000000000D+00 -.000000000000000D+00 -.104980715885790D+04
 0.742464384561783D+03 0.443472676280017D+03 0.534438150715192D+03 -.230946337480965D+03
 0.750806531255108D+03 -.448360708540844D+03 -.514038129061807D+03 -.313764122045073D+03
 0.422316284068487D+03 -.872324463539007D+00 0.104075597709786D+03 0.409290303819668D+03
 0.184027117830427D+03 0.576035672436546D+01 -.124475619363168D+03 0.135420155706370D+03
0.594991813807D-03 0.000000000000D+00 0.000000000000D+00 0.196111341530D-05 0.000000000000D+00  6 1 1 25 1 1 21 0 0.11048052D+00 0.23610579D+00 0.49732476D+06 0.49732476D+06 0.49732476D+06 0.10686751D+01  1  2  2  3  6  5        1 0.121068746227D-02 0.100000000000D+01
0.479745421360D-03 0.000000000000D+00 -.228492522996D-05 0.196111341530D-05 0.000000000000D+00  6 1 1 25 1 1 21 2 0.11048052D+00 0.23610579D+00 0.49732476D+06 0.49732476D+06 0.49732476D+06 0.10686751D+01  1  2  3  3  6  5        1 0.111486754999D-02 0.100000000000D+01
-.378146636309D-03 0.000000000000D+00 0.000000000000D+00 0.196111341530D-05 0.000000000000D+00  6 1 1 25 1 1 21 2 0.11048052D+00 0.23610579D+00 0.49732476D+06 0.49732476D+06 0.49732476D+06 0.10686751D+01  1  2 15  3  6  5        1 -.878764851500D-03 0.100000000000D+01
-.163431424809D-03 0.000000000000D+00 0.000000000000D+00 0.196111341530D-05 0.000000000000D+00  6 1 1 25 1 1 21 2 0.11048052D+00 0.23610579D+00 0.49732476D+06 0.49732476D+06 0.49732476D+06 0.10686751D+01  1  2  4  3  6  5        1 -.379793915805D-03 0.100000000000D+01
-.878418031740D-03 0.000000000000D+00 0.000000000000D+00 0.196111341530D-05 0.000000000000D+00  6 1 1 25 1 1 21 2 0.11048052D+00 0.23610579D+00 0.49732476D+06 0.49732476D+06 0.49732476D+06 0.10686751D+01  1  2  5  3  6  5        1 -.204133216350D-02 0.100000000000D+01
0.119257703243D-02 0.000000000000D+00 -.000000000000D+00 0.196111341530D-05 0.000000000000D+00  6 1 1 25 1 1 21 2 0.11048052D+00 0.23610579D+00 0.49732476D+06 0.49732476D+06 0.49732476D+06 0.10686751D+01  1  2  6  3  6  5        1 0.277139786046D-02 0.100000000000D+01
  </mgrwgt>
  </event>
  <event>
  6     66 0.18540751E-05 0.41175025E+02 0.75467711E-02 0.89841882E-01
        1 -1    0    0  502    0 0.00000000E+00 0.00000000E+00 0.92708964E+03 0.92708970E+03 0.32000000E+00 0.0000E+00 0.9000E+01
        1 -1    0    0  503    0 0.00000000E+00 0.00000000E+00 -.19965041E+04 0.19965042E+04 0.32000000E+00 0.0000E+00 0.9000E+01
       25  1    1    2    0    0 -.68033681E+03 0.27600465E+03 0.43960185E+03 0.86481878E+03 0.12500000E+03 0.0000E+00 0.9000E+01
        1  1    1    2  501    0 0.63215644E+03 -.29324100E+03 -.12306293E+04 0.14142350E+04 0.32000000E+00 0.0000E+00 0.9000E+01
        1  1    1    2  502    0 -.98311637E+01 0.50462683E+02 0.17697734E+03 0.18429383E+03 0.32000000E+00 0.0000E+00 0.9000E+01
       21  1    1    2  503  501 0.58011532E+02 -.33226337E+02 -.45536435E+03 0.46024621E+03 0.75000000E+00 0.0000E+00 0.9000E+01
#aMCatNLO 2  0  0  2  4 0.13676307D+04 0.00000000D+00  -5  6  0 0.00000000D+00 0.00000000D+00 0.00000000D+00 0.00000000D+00 0.00000000D+00
  <mgrwgt>
 0.3905571316D-02    1    2    0
 0.119232490846253D+04 0.000000000000000D+00 0.000000000000000D+00 0.119232490846253D+04
 0.119232490846253D+04 0.000000000000000D+00 0.000000000000000D+00 -.119232490846253D+04
 0.986387356449819D+03 -.656199660110052D+03 0.262211889604893D+03 0.676743635348973D+03
 0.116351050815820D+04 0.660300196769091D+03 -.309344012334972D+03 -.906678903898035D+03
 0.234751952317046D+03 -.410053665903838D+01 0.471321227300798D+02 0.229935268549062D+03
 0.000000000000000D+00 0.000000000000000D+00 -.000000000000000D+00 -.000000000000000D+00
 0.119594177191138D+04 0.000000000000000D+00 0.000000000000000D+00 0.119594177191138D+04
 0.154768172175079D+04 0.000000000000000D+00 0.000000000000000D+00 -.154768172175079D+04
 0.100639182547883D+04 -.680434133812613D+03 0.276092281579805D+03 0.676743635348973D+03
 0.114359425956590D+04 0.632243164495023D+03 -.293274234612683D+03 -.906678903898035D+03
 0.235600651302586D+03 -.982056219258444D+01 0.504082902873615D+02 0.229935268549062D+03
 0.358036757314853D+03 0.580115315101742D+02 -.332263372544832D+02 -.351739949839410D+03
0.532995819718D-02 0.000000000000D+00 0.000000000000D+00 0.899974560240D-06 0.198675961363D-08  6 1 1 25 1 1 21 2 0.14262914D+00 0.30715439D+00 0.60842959D+06 0.60842959D+06 0.60842959D+06 0.10625377D+01  1  2  1  2  6  2        1 0.390557131627D-02 0.100000000000D+01
  </mgrwgt>
  </event>
  <event>
  5     66 0.18540751E-05 0.12944836E+02 0.75467711E-02 0.94668014E-01
        1 -1    0    0  502    0 0.00000000E+00 0.00000000E+00 0.59505585E+03 0.59505594E+03 0.32000000E+00 0.0000E+00 0.9000E+01
        1 -1    0    0  501    0 -.00000000E+00 -.00000000E+00 -.12059331E+04 0.12059332E+04 0.32000000E+00 0.0000E+00 0.9000E+01
       25  1    1    2    0    0 0.34382236E+03 0.33875196E+03 -.15368821E+03 0.52173918E+03 0.12500000E+03 0.0000E+00 0.9000E+01
        1  1    1    2  501    0 0.10375541E+02 -.77377691E+01 -.72519194E+03 0.72530750E+03 0.32000000E+00 0.0000E+00 0.9000E+01
        1  1    1    2  502    0 -.35419790E+03 -.33101419E+03 0.26800288E+03 0.55394241E+03 0.32000000E+00 0.0000E+00 0.9000E+01
#aMCatNLO 1  0  0  5  2 0.72151225D+01 0.00000000D+00  -5  6  0 0.00000000D+00 0.00000000D+00 0.00000000D+00 0.00000000D+00 0.00000000D+00
  <mgrwgt>
 0.1129454661D-01    6    2    0
 0.847111367705356D+03 0.000000000000000D+00 0.000000000000000D+00 0.847111367705356D+03
 0.847111367705356D+03 -.000000000000000D+00 -.000000000000000D+00 -.847111367705356D+03
 0.499180361817036D+03 0.343800214468094D+03 0.338733572995036D+03 0.248397399643436D+02
 0.509599688820176D+03 0.103768278650704D+02 -.773887766929168D+01 -.509435250116733D+03
 0.685442684773501D+03 -.354177042333165D+03 -.330994695325744D+03 0.484595510152389D+03
 0.000000000000000D+00 0.000000000000000D+00 0.000000000000000D+00 0.000000000000000D+00
 0.847111367705356D+03 0.000000000000000D+00 0.000000000000000D+00 0.847111367705356D+03
 0.847111367705356D+03 -.000000000000000D+00 -.000000000000000D+00 -.847111367705356D+03
 0.461943236893132D+03 0.312256732915441D+03 0.309254742302751D+03 0.679984648616263D+02
 0.467583667515331D+03 -.216937249914969D+02 -.377102806765544D+02 -.465555370664303D+03
 0.462110828955286D+03 -.477474814340599D+02 -.382389983155093D+03 0.255038226619253D+03
 0.302585002046963D+03 -.242815526489884D+03 0.110845521528897D+03 0.142518679183424D+03
0.149009734812D-02 0.000000000000D+00 0.000000000000D+00 0.916121359706D-05 0.000000000000D+00  6 1 1 25 1 1 21 0 0.91547064D-01 0.18552818D+00 0.24814027D+06 0.24814027D+06 0.24814027D+06 0.10907031D+01  1  2  2  3  6  5        1 0.703206887628D-02 0.100000000000D+01
0.141944440329D-02 0.000000000000D+00 -.572236616842D-05 0.916121359706D-05 0.000000000000D+00  6 1 1 25 1 1 21 2 0.91547064D-01 0.18552818D+00 0.24814027D+06 0.24814027D+06 0.24814027D+06 0.10907031D+01  1  2  3  3  6  5        1 0.796892958668D-02 0.100000000000D+01
-.912448840325D-03 0.000000000000D+00 0.000000000000D+00 0.916121359706D-05 0.000000000000D+00  6 1 1 25 1 1 21 2 0.91547064D-01 0.18552818D+00 0.24814027D+06 0.24814027D+06 0.24814027D+06 0.10907031D+01  1  2 15  3  6  5        1 -.512259623774D-02 0.100000000000D+01
-.909186413721D-04 0.000000000000D+00 0.000000000000D+00 0.916121359706D-05 0.000000000000D+00  6 1 1 25 1 1 21 2 0.91547064D-01 0.18552818D+00 0.24814027D+06 0.24814027D+06 0.24814027D+06 0.10907031D+01  1  2  4  3  6  5        1 -.510428058703D-03 0.100000000000D+01
-.654385737460D-03 0.000000000000D+00 0.000000000000D+00 0.916121359706D-05 0.000000000000D+00  6 1 1 25 1 1 21 2 0.91547064D-01 0.18552818D+00 0.24814027D+06 0.24814027D+06 0.24814027D+06 0.10907031D+01  1  2  5  3  6  5        1 -.367379930644D-02 0.100000000000D+01
0.997551334126D-03 0.000000000000D+00 -.000000000000D+00 0.916121359706D-05 0.000000000000D+00  6 1 1 25 1 1 21 2 0.91547064D-01 0.18552818D+00 0.24814027D+06 0.24814027D+06 0.24814027D+06 0.10907031D+01  1  2  6  3  6  5        1 0.560037175271D-02 0.100000000000D+01
  </mgrwgt>
  </event>
  <event>
  5     66 0.18540751E-05 0.49418019E+02 0.75467711E-02 0.89841153E-01
        1 -1    0    0  502    0 0.00000000E+00 0.00000000E+00 0.33790992E+04 0.33790992E+04 0.32000000E+00 0.0000E+00 0.9000E+01
        1 -1    0    0  501    0 0.00000000E+00 0.00000000E+00 -.25469688E+03 0.25469708E+03 0.32000000E+00 0.0000E+00 0.9000E+01
       25  1    1    2    0    0 -.57170516E+03 -.15094640E+03 0.32426191E+03 0.68585887E+03 0.12500000E+03 0.0000E+00 0.9000E+01
        1  1    1    2  501    0 0.37993589E+02 0.31607477E+02 -.34981227E+02 0.60550261E+02 0.32000000E+00 0.0000E+00 0.9000E+01
        1  1    1    2  502    0 0.53371157E+03 0.11933893E+03 0.28351217E+04 0.28873872E+04 0.32000000E+00 0.0000E+00 0.9000E+01
#aMCatNLO 1  0  0  1  4 0.24764475D+03 0.00000000D+00  -5  6  0 0.00000000D+00 0.00000000D+00 0.00000000D+00 0.00000000D+00 0.00000000D+00
  <mgrwgt>
 0.2034537530D-03    4    2    0
 0.927710313689809D+03 0.000000000000000D+00 0.000000000000000D+00 0.927710313689809D+03
 0.927710313689809D+03 0.000000000000000D+00 0.000000000000000D+00 -.927710313689809D+03
 0.797220782072918D+03 -.571705361502224D+03 -.150944768849231D+03 -.519908291678079D+03
 0.177468651382334D+03 0.379902757783175D+02 0.316050561152037D+02 -.170449352001428D+03
 0.880731193924365D+03 0.533715085723907D+03 0.119339712734028D+03 0.690357643679507D+03
 0.000000000000000D+00 -.000000000000000D+00 -.000000000000000D+00 -.000000000000000D+00
 0.104298287122795D+04 0.000000000000000D+00 0.000000000000000D+00 0.104298287122795D+04
 0.116075807403891D+04 0.000000000000000D+00 0.000000000000000D+00 -.116075807403891D+04
 0.757429849604998D+03 -.535565704610096D+03 -.306548750205126D+02 -.519908291678079D+03
 0.186501430337377D+03 0.464511824311220D+02 0.597669605294712D+02 -.170449352001428D+03
 0.935869718843124D+03 0.575944080688832D+03 0.259897807571136D+03 0.690357643679507D+03
 0.323939946481361D+03 -.868295585098586D+02 -.289009893080095D+03 -.117775202810957D+03
0.107995403186D-02 0.000000000000D+00 0.000000000000D+00 0.698797817954D-06 0.000000000000D+00  6 1 1 25 1 1 21 0 0.51986144D+00 0.39184152D-01 0.36040636D+06 0.36040636D+06 0.36040636D+06 0.10787062D+01  1  2  2  1  6  1        1 0.473273068823D-03 0.100000000000D+01
0.237970325224D-03 0.000000000000D+00 -.414730784079D-05 0.698797817954D-06 0.000000000000D+00  6 1 1 25 1 1 21 2 0.51986144D+00 0.39184152D-01 0.36040636D+06 0.36040636D+06 0.36040636D+06 0.10787062D+01  1  2  3  1  6  1        1 0.121348852914D-03 0.100000000000D+01
-.761671278814D-03 0.000000000000D+00 0.000000000000D+00 0.698797817954D-06 0.000000000000D+00  6 1 1 25 1 1 21 2 0.51986144D+00 0.39184152D-01 0.36040636D+06 0.36040636D+06 0.36040636D+06 0.10787062D+01  1  2 15  1  6  1        1 -.388401099569D-03 0.100000000000D+01
-.542634171786D-05 0.000000000000D+00 0.000000000000D+00 0.698797817954D-06 0.000000000000D+00  6 1 1 25 1 1 21 2 0.51986144D+00 0.39184152D-01 0.36040636D+06 0.36040636D+06 0.36040636D+06 0.10787062D+01  1  2  4  1  6  1        1 -.276706913924D-05 0.100000000000D+01
  </mgrwgt>
  </event>
  <event>
  5     66 0.18540751E-05 0.92432437E+02 0.75467711E-02 0.94834180E-01
        1 -1    0    0  502    0 0.00000000E+00 0.00000000E+00 0.95253881E+03 0.95253887E+03 0.32000000E+00 0.0000E+00 0.9000E+01
        1 -1    0    0  501    0 0.00000000E+00 0.00000000E+00 -.27430579E+04 0.27430580E+04 0.32000000E+00 0.0000E+00 0.9000E+01
       25  1    1    2    0    0 0.33382718E+03 0.30580510E+03 -.43422361E+03 0.63963465E+03 0.12500000E+03 0.0000E+00 0.9000E+01
        1  1    1    2  501    0 -.86275331E+02 0.33155220E+02 -.21532502E+04 0.21552330E+04 0.32000000E+00 0.0000E+00 0.9000E+01
        1  1    1    2  502    0 -.24755185E+03 -.33896032E+03 0.79695474E+03 0.90072913E+03 0.32000000E+00 0.0000E+00 0.9000E+01
#aMCatNLO 1  0  0  2  4 0.96974720D+02 0.00000000D+00  -5  6  0 0.00000000D+00 0.00000000D+00 0.00000000D+00 0.00000000D+00 0.00000000D+00
  <mgrwgt>
 0.1063861512D-01    7    2    0
 0.161643722139340D+04 0.000000000000000D+00 0.000000000000000D+00 0.161643722139340D+04
 0.161643722139340D+04 0.000000000000000D+00 0.000000000000000D+00 -.161643722139340D+04
 0.490676134769831D+03 0.333829750801831D+03 0.305799425378903D+03 -.142065049009887D+03
 0.127117327714806D+04 -.862807666594644D+02 0.331569696257483D+02 -.126780824465107D+04
 0.147102503086891D+04 -.247548984142367D+03 -.338956395004651D+03 0.140987329366096D+04
 0.000000000000000D+00 -.000000000000000D+00 0.000000000000000D+00 -.000000000000000D+00
 0.166531511881569D+04 0.000000000000000D+00 0.000000000000000D+00 0.166531511881569D+04
 0.300896019079368D+04 0.000000000000000D+00 0.000000000000000D+00 -.300896019079368D+04
 0.471724676263039D+03 0.355791431807845D+03 0.245212457060018D+03 -.142065049009887D+03
 0.127447529244610D+04 -.281898743847146D+02 -.127101757786887D+03 -.126780824465107D+04
 0.151579710393928D+04 -.179390651154306D+03 -.526988757385512D+03 0.140987329366096D+04
 0.141227823696095D+04 -.148210906268825D+03 0.408878058112382D+03 -.134364507197799D+04
0.120542287399D-01 0.000000000000D+00 0.000000000000D+00 0.116951312421D-03 0.000000000000D+00  6 1 1 25 1 1 21 0 0.14654444D+00 0.42200892D+00 0.24099308D+06 0.24099308D+06 0.24099308D+06 0.10916600D+01  1  2  2  2  6  2        1 0.247376911657D-02 0.100000000000D+01
0.331886914039D-02 0.000000000000D+00 -.462914123127D-04 0.116951312421D-03 0.000000000000D+00  6 1 1 25 1 1 21 2 0.14654444D+00 0.42200892D+00 0.24099308D+06 0.24099308D+06 0.24099308D+06 0.10916600D+01  1  2  3  2  6  2        1 0.811679581583D-03 0.100000000000D+01
-.796423226809D-02 0.000000000000D+00 0.000000000000D+00 0.116951312421D-03 0.000000000000D+00  6 1 1 25 1 1 21 2 0.14654444D+00 0.42200892D+00 0.24099308D+06 0.24099308D+06 0.24099308D+06 0.10916600D+01  1  2 15  2  6  2        1 -.194777330517D-02 0.100000000000D+01
-.583050258690D-03 0.000000000000D+00 0.000000000000D+00 0.116951312421D-03 0.000000000000D+00  6 1 1 25 1 1 21 2 0.14654444D+00 0.42200892D+00 0.24099308D+06 0.24099308D+06 0.24099308D+06 0.10916600D+01  1  2  4  2  6  2        1 -.142593748050D-03 0.100000000000D+01
-.429617337974D-01 0.000000000000D+00 -.462960384086D-02 0.116951312421D-03 0.000000000000D+00  6 1 1 25 1 1 21 2 0.14654444D+00 0.78738651D+00 0.24099308D+06 0.24099308D+06 0.24099308D+06 0.10916600D+01  1  2  5  2  6  2        1 -.514622671235D-04 0.100000000000D+01
0.388244357084D-01 0.000000000000D+00 0.385516491632D-02 0.116951312421D-03 0.000000000000D+00  6 1 1 25 1 1 21 2 0.14654444D+00 0.42200892D+00 0.24099308D+06 0.24099308D+06 0.24099308D+06 0.10916600D+01  1  2  6  2  6  2        1 0.949510221645D-02 0.100000000000D+01
-.266017399570D-02 0.000000000000D+00 -.314539577903D-03 0.116951312421D-03 0.000000000000D+00  6 1 21 25 1 1 -1 2 0.14654444D+00 0.78738651D+00 0.24099308D+06 0.24099308D+06 0.24099308D+06 0.10916600D+01  1  2  5  5  6  2        1 -.106475700793D-06 0.100000000000D+01
  </mgrwgt>
  </event>
  <event>
  5     66 0.18540751E-05 0.48986667E+02 0.75467711E-02 0.94805936E-01
        1 -1    0    0  502    0 0.00000000E+00 0.00000000E+00 0.62388241E+03 0.62388249E+03 0.32000000E+00 0.0000E+00 0.9000E+01
        1 -1    0    0  501    0 -.00000000E+00 -.00000000E+00 -.11882928E+04 0.11882929E+04 0.32000000E+00 0.0000E+00 0.9000E+01
       25  1    1    2    0    0 -.68195567E+02 0.45962084E+03 -.91598585E+01 0.48125965E+03 0.12500000E+03 0.0000E+00 0.9000E+01
        1  1    1    2  501    0 0.10799454E+03 -.43103552E+03 -.88885093E+03 0.99373564E+03 0.32000000E+00 0.0000E+00 0.9000E+01
        1  1    1    2  502    0 -.39798976E+02 -.28585318E+02 0.33360038E+03 0.33718007E+03 0.32000000E+00 0.0000E+00 0.9000E+01
#aMCatNLO 1  0  0  5  2 0.46008829D+02 0.00000000D+00  -5  6  0 0.00000000D+00 0.00000000D+00 0.00000000D+00 0.00000000D+00 0.00000000D+00
  <mgrwgt>
 0.2699024091D-01    7    2    0
 0.861019803485173D+03 0.000000000000000D+00 0.000000000000000D+00 0.861019803485173D+03
 0.861019803485173D+03 -.000000000000000D+00 -.000000000000000D+00 -.861019803485173D+03
 0.503548551043209D+03 -.682224009811796D+02 0.459689457057810D+03 0.148214204217997D+03
 0.754456372215766D+03 0.108009893810948D+03 -.431112387402711D+03 -.609655960229913D+03
 0.464034683711371D+03 -.397874928297685D+02 -.285770696550987D+02 0.461441756011916D+03
 0.000000000000000D+00 0.000000000000000D+00 0.000000000000000D+00 0.000000000000000D+00
 0.861019803485173D+03 0.000000000000000D+00 0.000000000000000D+00 0.861019803485173D+03
 0.861019803485173D+03 -.000000000000000D+00 -.000000000000000D+00 -.861019803485173D+03
 0.504906067450951D+03 -.686823283437979D+02 0.459359117663617D+03 0.153548284722958D+03
 0.748233424830256D+03 0.107324559892580D+03 -.431604623372592D+03 -.601707691458637D+03
 0.759579135041282D+02 -.449144644745225D+02 -.264115672172191D+02 0.552695632513757D+02
 0.392942201185009D+03 0.627223292574027D+01 -.134292707380571D+01 0.392889843484303D+03
0.420176717053D-02 0.000000000000D+00 0.000000000000D+00 0.818480318234D-05 0.000000000000D+00  6 1 1 25 1 1 21 0 0.95981919D-01 0.18281429D+00 0.23749308D+06 0.23749308D+06 0.23749308D+06 0.10921399D+01  1  2  2  3  6  5        1 0.190888250630D-01 0.100000000000D+01
0.149254858180D-02 0.000000000000D+00 -.161358922856D-04 0.818480318234D-05 0.000000000000D+00  6 1 1 25 1 1 21 2 0.95981919D-01 0.18281429D+00 0.23749308D+06 0.23749308D+06 0.23749308D+06 0.10921399D+01  1  2  3  3  6  5        1 0.808783381185D-02 0.100000000000D+01
-.235132858053D-02 0.000000000000D+00 0.000000000000D+00 0.818480318234D-05 0.000000000000D+00  6 1 1 25 1 1 21 2 0.95981919D-01 0.18281429D+00 0.23749308D+06 0.23749308D+06 0.23749308D+06 0.10921399D+01  1  2 15  3  6  5        1 -.127413975185D-01 0.100000000000D+01
0.199917073613D-08 0.000000000000D+00 0.000000000000D+00 0.818480318234D-05 0.000000000000D+00  6 1 1 25 1 1 21 2 0.95981919D-01 0.18281429D+00 0.24219145D+06 0.24219145D+06 0.24219145D+06 0.10914974D+01  1  2 12  3  6  5        1 0.108096789845D-07 0.100000000000D+01
-.132342435156D-03 0.000000000000D+00 0.000000000000D+00 0.818480318234D-05 0.000000000000D+00  6 1 1 25 1 1 21 2 0.95981919D-01 0.18281429D+00 0.23749308D+06 0.23749308D+06 0.23749308D+06 0.10921399D+01  1  2  4  3  6  5        1 -.717138212350D-03 0.100000000000D+01
-.256700802014D-02 0.000000000000D+00 0.000000000000D+00 0.818480318234D-05 0.000000000000D+00  6 1 1 25 1 1 21 2 0.95981919D-01 0.18281429D+00 0.23749308D+06 0.23749308D+06 0.23749308D+06 0.10921399D+01  1  2  5  3  6  5        1 -.139101229358D-01 0.100000000000D+01
0.501627501504D-02 0.000000000000D+00 -.000000000000D+00 0.818480318234D-05 0.000000000000D+00  6 1 1 25 1 1 21 2 0.95981919D-01 0.18281429D+00 0.23749308D+06 0.23749308D+06 0.23749308D+06 0.10921399D+01  1  2  6  3  6  5        1 0.271822298925D-01 0.100000000000D+01
  </mgrwgt>
  </event>
  <event>
  6     66 0.18540751E-05 0.11305991E+03 0.75467711E-02 0.93960568E-01
        1 -1    0    0  503    0 0.00000000E+00 0.00000000E+00 0.66935773E+03 0.66935781E+03 0.32000000E+00 0.0000E+00 0.9000E+01
        1 -1    0    0  501    0 0.00000000E+00 0.00000000E+00 -.94099552E+03 0.94099557E+03 0.32000000E+00 0.0000E+00 0.9000E+01
       25  1    1    2    0    0 0.39046739E+03 0.28102674E+03 -.32017511E+03 0.59125114E+03 0.12500000E+03 0.0000E+00 0.9000E+01
        1  1    1    2  501    0 0.18088567E+02 -.12198690E+03 -.37620790E+03 0.39590464E+03 0.32000000E+00 0.0000E+00 0.9000E+01
        1  1    1    2  502    0 -.38805817E+03 -.16046107E+03 0.35306634E+03 0.54862814E+03 0.32000000E+00 0.0000E+00 0.9000E+01
       21  1    1    2  503  502 -.20497789E+02 0.14212200E+01 0.71678884E+02 0.74569458E+02 0.75000000E+00 0.0000E+00 0.9000E+01
#aMCatNLO 2  0  0  1  5 0.20547000D+02 0.00000000D+00  -5  6  0 0.00000000D+00 0.00000000D+00 0.00000000D+00 0.00000000D+00 0.00000000D+00
  <mgrwgt>
 0.2740704304D-02    3    2    0
 0.748388892276649D+03 0.000000000000000D+00 0.000000000000000D+00 0.748388892276649D+03
 0.748388892276649D+03 0.000000000000000D+00 0.000000000000000D+00 -.748388892276649D+03
 0.528121503740034D+03 0.383192014574937D+03 0.281539374763055D+03 -.192838749053876D+03
 0.319603092187638D+03 0.137082815645132D+02 -.121696318059452D+03 -.295208783275872D+03
 0.649053188625625D+03 -.396900296139450D+03 -.159843056703603D+03 0.488047532329748D+03
 0.000000000000000D+00 -.000000000000000D+00 0.000000000000000D+00 0.000000000000000D+00
 0.840251381407797D+03 0.000000000000000D+00 0.000000000000000D+00 0.840251381407797D+03
 0.749609229675665D+03 0.000000000000000D+00 0.000000000000000D+00 -.749609229675665D+03
 0.533151600342860D+03 0.390458533285100D+03 0.281035548634575D+03 -.192838749053876D+03
 0.319936487036024D+03 0.180871980756731D+02 -.121999931473352D+03 -.295208783275872D+03
 0.643830719890836D+03 -.388047942230584D+03 -.160456837163784D+03 0.488047532329748D+03
 0.929418038137425D+02 -.204977891301898D+02 0.142122000256024D+01 0.906421517321317D+02
-.260098989206D-07 0.000000000000D+00 0.000000000000D+00 0.292270680130D-06 0.000000000000D+00  6 1 1 25 1 1 21 2 0.10316044D+00 0.14453258D+00 0.28135036D+06 0.28135036D+06 0.28135036D+06 0.10866201D+01  1  2 13  1  6  1        1 -.190591832656D-06 0.100000000000D+01
-.530417833817D-03 0.000000000000D+00 0.000000000000D+00 0.292270680130D-06 0.000000000000D+00  6 1 1 25 1 1 21 2 0.10369845D+00 0.14453258D+00 0.28135036D+06 0.28135036D+06 0.28135036D+06 0.10866201D+01  1  2 13  1  6  1        1 -.385640054409D-02 0.100000000000D+01
0.900436956917D-03 0.000000000000D+00 0.000000000000D+00 0.292270680130D-06 0.785274163388D-08  6 1 1 25 1 1 21 2 0.10297792D+00 0.14476826D+00 0.28135036D+06 0.28135036D+06 0.28135036D+06 0.10866201D+01  1  2  1  1  6  1        1 0.659729543944D-02 0.100000000000D+01
  </mgrwgt>
  </event>
  <event>
  5     66 -.18540751E-05 0.82353047E+02 0.75467711E-02 0.92933548E-01
        1 -1    0    0  502    0 0.00000000E+00 0.00000000E+00 0.99702185E+03 0.99702190E+03 0.32000000E+00 0.0000E+00 0.9000E+01
        1 -1    0    0  501    0 0.00000000E+00 0.00000000E+00 -.80785001E+03 0.80785008E+03 0.32000000E+00 0.0000E+00 0.9000E+01
       25  1    1    2    0    0 0.22858288E+03 0.43765276E+03 -.17178098E+03 0.53751630E+03 0.12500000E+03 0.0000E+00 0.9000E+01
        1  1    1    2  501    0 0.13372636E+02 0.81261997E+02 -.34712308E+03 0.35675885E+03 0.32000000E+00 0.0000E+00 0.9000E+01
        1  1    1    2  502    0 -.24195552E+03 -.51891476E+03 0.70807589E+03 0.91059682E+03 0.32000000E+00 0.0000E+00 0.9000E+01
#aMCatNLO 1  0  0  5  1 0.17934501D+01 0.00000000D+00  -5  6  0 0.00000000D+00 0.00000000D+00 0.00000000D+00 0.00000000D+00 0.00000000D+00
  <mgrwgt>
 -.1206774179D-02    9    2    0
 0.897465440386276D+03 0.000000000000000D+00 0.000000000000000D+00 0.897465440386276D+03
 0.897465440386276D+03 -.000000000000000D+00 -.000000000000000D+00 -.897465440386276D+03
 0.558605447079044D+03 0.228583867922676D+03 0.437656119882635D+03 -.229393944037682D+03
 0.395308741126740D+03 0.133723341905381D+02 0.812601071859065D+02 -.386635456819004D+03
 0.841016692566769D+03 -.241956202113214D+03 -.518916227068541D+03 0.616029400856686D+03
 0.000000000000000D+00 0.000000000000000D+00 0.000000000000000D+00 0.000000000000000D+00
 0.897465440386276D+03 0.000000000000000D+00 0.000000000000000D+00 0.897465440386276D+03
 0.897465440386276D+03 -.000000000000000D+00 -.000000000000000D+00 -.897465440386276D+03
 0.558562665272839D+03 0.228570221521285D+03 0.437626852853887D+03 -.229359199797198D+03
 0.395280109293920D+03 0.133626770112211D+02 0.812393957223790D+02 -.386610869284827D+03
 0.830325365389319D+03 -.239611201773442D+03 -.513417913454705D+03 0.606983303343189D+03
 0.107627408164743D+02 -.232169675906410D+01 -.544833512156095D+01 0.898676573883608D+01
0.971244913234D-05 0.000000000000D+00 0.000000000000D+00 0.979899256712D-06 0.000000000000D+00  6 1 1 25 1 1 21 0 0.15338799D+00 0.12428463D+00 0.33886216D+06 0.33886216D+06 0.33886216D+06 0.10806595D+01  1  2  2  3  6  5        1 0.403455001431D-04 0.100000000000D+01
0.204170119443D-05 0.000000000000D+00 -.372983620148D-07 0.979899256712D-06 0.000000000000D+00  6 1 1 25 1 1 21 2 0.15338799D+00 0.12428463D+00 0.33886216D+06 0.33886216D+06 0.33886216D+06 0.10806595D+01  1  2  3  3  6  5        1 0.990458535283D-05 0.100000000000D+01
-.679457314783D-05 0.000000000000D+00 0.000000000000D+00 0.979899256712D-06 0.000000000000D+00  6 1 1 25 1 1 21 2 0.15338799D+00 0.12428463D+00 0.33886216D+06 0.33886216D+06 0.33886216D+06 0.10806595D+01  1  2 15  3  6  5        1 -.329614489438D-04 0.100000000000D+01
0.111866177513D-11 0.000000000000D+00 0.000000000000D+00 0.979899256712D-06 0.000000000000D+00  6 1 1 25 1 1 21 2 0.15338799D+00 0.12428463D+00 0.33880100D+06 0.33880100D+06 0.33880100D+06 0.10806653D+01  1  2 12  3  6  5        1 0.542689581828D-11 0.100000000000D+01
0.163739680058D-06 0.000000000000D+00 0.000000000000D+00 0.979899256712D-06 0.000000000000D+00  6 1 1 25 1 1 21 2 0.15338799D+00 0.12428463D+00 0.33880100D+06 0.33880100D+06 0.33880100D+06 0.10806653D+01  1  2 12  3  6  5        1 0.794340349113D-06 0.100000000000D+01
-.238803324337D-01 0.000000000000D+00 0.000000000000D+00 0.979899256712D-06 0.000000000000D+00  6 1 1 25 1 1 21 2 0.15338799D+00 0.12428463D+00 0.33886216D+06 0.33886216D+06 0.33886216D+06 0.10806595D+01  1  2  4  3  6  5        1 -.115846917996D+00 0.100000000000D+01
-.148159540219D-01 0.000000000000D+00 0.000000000000D+00 0.979899256712D-06 0.000000000000D+00  6 1 1 25 1 1 21 2 0.15338799D+00 0.12428463D+00 0.33886216D+06 0.33886216D+06 0.33886216D+06 0.10806595D+01  1  2  5  3  6  5        1 -.718743181389D-01 0.100000000000D+01
0.150067713031D-01 0.000000000000D+00 -.000000000000D+00 0.979899256712D-06 0.000000000000D+00  6 1 1 25 1 1 21 2 0.15338799D+00 0.12428463D+00 0.33886216D+06 0.33886216D+06 0.33886216D+06 0.10806595D+01  1  2  6  3  6  5        1 0.728000001407D-01 0.100000000000D+01
0.234365643325D-01 0.000000000000D+00 0.000000000000D+00 0.979899256712D-06 0.297885669182D-05  6 1 1 25 1 1 21 2 0.15338799D+00 0.12428463D+00 0.33880100D+06 0.33880100D+06 0.33880100D+06 0.10806653D+01  1  2 11  3  6  5        1 0.113696378833D+00 0.100000000000D+01
  </mgrwgt>
  </event>
  <event>
  6     66 0.18540751E-05 0.70644721E+02 0.75467711E-02 0.94643168E-01
        1 -1    0    0  502    0 0.00000000E+00 0.00000000E+00 0.95259703E+03 0.95259708E+03 0.32000000E+00 0.0000E+00 0.9000E+01
        1 -1    0    0  501    0 -.00000000E+00 -.00000000E+00 -.35069236E+04 0.35069237E+04 0.32000000E+00 0.0000E+00 0.9000E+01
       25  1    1    2    0    0 0.18840011E+03 0.44714581E+03 -.16834835E+03 0.52858315E+03 0.12500000E+03 0.0000E+00 0.9000E+01
        1  1    1    2  501    0 -.16549420E+02 -.60808405E+02 -.30964565E+04 0.30970978E+04 0.32000000E+00 0.0000E+00 0.9000E+01
        1  1    1    2  503    0 -.34590253E+02 -.20023184E+03 0.29246708E+03 0.35612690E+03 0.32000000E+00 0.0000E+00 0.9000E+01
       21  1    1    2  502  503 -.13726044E+03 -.18610556E+03 0.41801118E+03 0.47771291E+03 0.75000000E+00 0.0000E+00 0.9000E+01
#aMCatNLO 2  0  0  5  1 0.17934501D+01 0.00000000D+00  -5  6  0 0.00000000D+00 0.00000000D+00 0.00000000D+00 0.00000000D+00 0.00000000D+00
  <mgrwgt>
 0.2384017984D-02    1    2    0
 0.182775413771306D+04 0.000000000000000D+00 0.000000000000000D+00 0.182775413771306D+04
 0.182775413771306D+04 -.000000000000000D+00 -.000000000000000D+00 -.182775413771306D+04
 0.527243842073404D+03 0.188448621113658D+03 0.447261480446755D+03 0.163723407957636D+03
 0.161634869031937D+04 -.163590707843502D+02 -.603871043936451D+02 -.161513741431594D+04
 0.151191574303335D+04 -.172089550329307D+03 -.386874376053110D+03 0.145141400635830D+04
 0.000000000000000D+00 0.000000000000000D+00 0.000000000000000D+00 0.000000000000000D+00
 0.182775413771306D+04 0.000000000000000D+00 0.000000000000000D+00 0.182775413771306D+04
 0.182775413771306D+04 -.000000000000000D+00 -.000000000000000D+00 -.182775413771306D+04
 0.527266699830256D+03 0.188384980119825D+03 0.447118409181049D+03 0.164260160071001D+03
 0.161472373035122D+04 -.165540699349756D+02 -.608254818232146D+02 -.161349277931106D+04
 0.638429725205038D+03 -.345580928204378D+02 -.200119943328643D+03 0.605268750662162D+03
 0.875088120039609D+03 -.137272817364411D+03 -.186172984029191D+03 0.843963868577892D+03
0.374515515496D-01 0.000000000000D+00 0.000000000000D+00 0.356936344959D-03 0.215001089420D-06  6 1 1 25 1 1 21 2 0.14655339D+00 0.53952672D+00 0.24922923D+06 0.24922923D+06 0.24922923D+06 0.10905600D+01  1  2  1  3  6  5        1 0.238401798392D-02 0.100000000000D+01
  </mgrwgt>
  </event>
  <event>
  5     66 0.18540751E-05 0.10934139E+03 0.75467711E-02 0.94005329E-01
        1 -1    0    0  502    0 0.00000000E+00 0.00000000E+00 0.17611498E+04 0.17611498E+04 0.32000000E+00 0.0000E+00 0.9000E+01
        1 -1    0    0  501    0 0.00000000E+00 0.00000000E+00 -.13100701E+04 0.13100701E+04 0.32000000E+00 0.0000E+00 0.9000E+01
       25  1    1    2    0    0 -.52068050E+02 -.47356004E+03 -.89305477E+03 0.10198735E+04 0.12500000E+03 0.0000E+00 0.9000E+01
        1  1    1    2  501    0 0.13454596E+03 0.40177341E+03 -.22409114E+03 0.47931350E+03 0.32000000E+00 0.0000E+00 0.9000E+01
        1  1    1    2  502    0 -.82477910E+02 0.71786631E+02 0.15682256E+04 0.15720329E+04 0.32000000E+00 0.0000E+00 0.9000E+01
#aMCatNLO 1  0  0  5  2 0.37665837D+02 0.00000000D+00  -5  6  0 0.00000000D+00 0.00000000D+00 0.00000000D+00 0.00000000D+00 0.00000000D+00
  <mgrwgt>
 0.2465706443D-03    7    2    0
 0.151895681774583D+04 0.000000000000000D+00 0.000000000000000D+00 0.151895681774583D+04
 0.151895681774583D+04 -.000000000000000D+00 -.000000000000000D+00 -.151895681774583D+04
 0.116365975848927D+04 -.520741603270787D+02 -.473590971861922D+03 -.105426699973223D+04
 0.517863287720636D+03 0.134550735623846D+03 0.401805502889651D+03 -.297709291355683D+03
 0.135639058928175D+04 -.824765752967678D+02 0.717854689722710D+02 0.135197629108792D+04
 0.000000000000000D+00 0.000000000000000D+00 0.000000000000000D+00 0.000000000000000D+00
 0.151895681774583D+04 0.000000000000000D+00 0.000000000000000D+00 0.151895681774583D+04
 0.151895681774583D+04 -.000000000000000D+00 -.000000000000000D+00 -.151895681774583D+04
 0.116258142112434D+04 -.521452931671959D+02 -.473529059685419D+03 -.105310097273596D+04
 0.517578255519514D+03 0.134519073430609D+03 0.401833060840282D+03 -.297190276903071D+03
 0.105899527215804D+04 -.751806700092287D+02 0.919947635489702D+02 0.105230975325216D+04
 0.298758686689760D+03 -.719311025418444D+01 -.202987647038333D+02 0.297981496386872D+03
0.724894639477D-04 0.000000000000D+00 0.000000000000D+00 0.222672394492D-05 0.000000000000D+00  6 1 1 25 1 1 21 0 0.27094613D+00 0.20154925D+00 0.26298772D+06 0.26298772D+06 0.26298772D+06 0.10888082D+01  1  2  2  3  6  5        1 0.376327953056D-04 0.100000000000D+01
0.166380861386D-04 0.000000000000D+00 -.278378628474D-06 0.222672394492D-05 0.000000000000D+00  6 1 1 25 1 1 21 2 0.27094613D+00 0.20154925D+00 0.26298772D+06 0.26298772D+06 0.26298772D+06 0.10888082D+01  1  2  3  3  6  5        1 0.102399482387D-04 0.100000000000D+01
-.491720030317D-04 0.000000000000D+00 0.000000000000D+00 0.222672394492D-05 0.000000000000D+00  6 1 1 25 1 1 21 2 0.27094613D+00 0.20154925D+00 0.26298772D+06 0.26298772D+06 0.26298772D+06 0.10888082D+01  1  2 15  3  6  5        1 -.302630219390D-04 0.100000000000D+01
0.280322433501D-08 0.000000000000D+00 0.000000000000D+00 0.222672394492D-05 0.000000000000D+00  6 1 1 25 1 1 21 2 0.27094613D+00 0.20154925D+00 0.27910728D+06 0.27910728D+06 0.27910728D+06 0.10868789D+01  1  2 12  3  6  5        1 0.171074149760D-08 0.100000000000D+01
-.102633680446D-02 0.000000000000D+00 0.000000000000D+00 0.222672394492D-05 0.000000000000D+00  6 1 1 25 1 1 21 2 0.27094613D+00 0.20154925D+00 0.26298772D+06 0.26298772D+06 0.26298772D+06 0.10888082D+01  1  2  4  3  6  5        1 -.631661338061D-03 0.100000000000D+01
-.573600500588D-02 0.000000000000D+00 0.000000000000D+00 0.222672394492D-05 0.000000000000D+00  6 1 1 25 1 1 21 2 0.27094613D+00 0.20154925D+00 0.26298772D+06 0.26298772D+06 0.26298772D+06 0.10888082D+01  1  2  5  3  6  5        1 -.353023742440D-02 0.100000000000D+01
0.713435961765D-02 0.000000000000D+00 -.000000000000D+00 0.222672394492D-05 0.000000000000D+00  6 1 1 25 1 1 21 2 0.27094613D+00 0.20154925D+00 0.26298772D+06 0.26298772D+06 0.26298772D+06 0.10888082D+01  1  2  6  3  6  5        1 0.439085797442D-02 0.100000000000D+01
  </mgrwgt>
  </event>
  <event>
  5     66 -.18540751E-05 0.27920557E+02 0.75467711E-02 0.91937424E-01
        1 -1    0    0  502    0 0.00000000E+00 0.00000000E+00 0.23580841E+04 0.23580841E+04 0.32000000E+00 0.0000E+00 0.9000E+01
        1 -1    0    0  501    0 -.00000000E+00 -.00000000E+00 -.25133468E+04 0.25133469E+04 0.32000000E+00 0.0000E+00 0.9000E+01
       25  1    1    2    0    0 -.57953030E+03 -.23846900E+03 0.17778130E+02 0.63926825E+03 0.12500000E+03 0.0000E+00 0.9000E+01
        1  1    1    2  501    0 0.55505345E+03 0.22503495E+03 -.21617859E+04 0.22432217E+04 0.32000000E+00 0.0000E+00 0.9000E+01
        1  1    1    2  502    0 0.24476856E+02 0.13434049E+02 0.19887450E+04 0.19889411E+04 0.32000000E+00 0.0000E+00 0.9000E+01
#aMCatNLO 1  0  0  5  2 0.14786671D+02 0.00000000D+00  -5  6  0 0.00000000D+00 0.00000000D+00 0.00000000D+00 0.00000000D+00 0.00000000D+00
  <mgrwgt>
 -.6944727938D-02    5    2    0
 0.243447803953565D+04 0.000000000000000D+00 0.000000000000000D+00 0.243447803953565D+04
 0.243447803953565D+04 -.000000000000000D+00 -.000000000000000D+00 -.243447803953565D+04
 0.640195570883846D+03 -.579561576668241D+03 -.238481632841142D+03 0.382133304821663D+02
 0.217543375388283D+04 0.555085232969421D+03 0.225047864927849D+03 -.209135024808458D+04
 0.205332675430462D+04 0.244763436988098D+02 0.134337679132882D+02 0.205313691760242D+04
 0.000000000000000D+00 0.000000000000000D+00 0.000000000000000D+00 0.000000000000000D+00
 0.243447803953565D+04 0.000000000000000D+00 0.000000000000000D+00 0.243447803953565D+04
 0.243447803953565D+04 -.000000000000000D+00 -.000000000000000D+00 -.243447803953565D+04
 0.640197077423779D+03 -.579561190309730D+03 -.238481420789431D+03 0.382457392002149D+02
 0.217532829558907D+04 0.555086545811968D+03 0.225048585477548D+03 -.209124012356868D+04
 0.648097561250907D+03 0.726193538548128D+01 0.190182192358404D+02 0.647777755507958D+03
 0.140533314480754D+04 0.172127091122705D+02 -.558538392396244D+01 0.140521662886051D+04
0.479901305261D-03 0.000000000000D+00 0.000000000000D+00 0.667225365694D-03 0.000000000000D+00  6 1 1 25 1 1 21 0 0.36278217D+00 0.38666875D+00 0.40065453D+06 0.40065453D+06 0.40065453D+06 0.10753764D+01  1  2  2  3  6  5        1 0.146747467556D-04 0.100000000000D+01
0.410477281820D-03 0.000000000000D+00 -.184294737312D-05 0.667225365694D-03 0.000000000000D+00  6 1 1 25 1 1 21 2 0.36278217D+00 0.38666875D+00 0.40065453D+06 0.40065453D+06 0.40065453D+06 0.10753764D+01  1  2  3  3  6  5        1 0.145153944895D-04 0.100000000000D+01
-.345915023474D-03 0.000000000000D+00 0.000000000000D+00 0.667225365694D-03 0.000000000000D+00  6 1 1 25 1 1 21 2 0.36278217D+00 0.38666875D+00 0.40065453D+06 0.40065453D+06 0.40065453D+06 0.10753764D+01  1  2 15  3  6  5        1 -.122323286767D-04 0.100000000000D+01
0.160124378032D-10 0.000000000000D+00 0.000000000000D+00 0.667225365694D-03 0.000000000000D+00  6 1 1 25 1 1 21 2 0.36278217D+00 0.38666875D+00 0.40735017D+06 0.40735017D+06 0.40735017D+06 0.10748580D+01  1  2 12  3  6  5        1 0.564578117042D-12 0.100000000000D+01
-.196867804473D+00 0.000000000000D+00 0.000000000000D+00 0.667225365694D-03 0.000000000000D+00  6 1 1 25 1 1 21 2 0.36278217D+00 0.38666875D+00 0.40065453D+06 0.40065453D+06 0.40065453D+06 0.10753764D+01  1  2  5  3  6  5        1 -.696168575161D-02 0.100000000000D+01
  </mgrwgt>
  </event>
  <event>
  5     66 0.18540751E-05 0.56923493E+02 0.75467711E-02 0.90558721E-01
        1 -1    0    0  502    0 0.00000000E+00 0.00000000E+00 0.21862212E+04 0.21862213E+04 0.32000000E+00 0.0000E+00 0.9000E+01
        1 -1    0    0  501    0 0.00000000E+00 0.00000000E+00 -.11735892E+04 0.11735892E+04 0.32000000E+00 0.0000E+00 0.9000E+01
       25  1    1    2    0    0 -.18472564E+03 -.61763130E+03 0.61960915E+03 0.90284687E+03 0.12500000E+03 0.0000E+00 0.9000E+01
        1  1    1    2  501    0 0.13276652E+03 0.59436533E+03 -.94145887E+03 0.11212680E+04 0.32000000E+00 0.0000E+00 0.9000E+01
        1  1    1    2  502    0 0.51959119E+02 0.23265962E+02 0.13344818E+04 0.13356956E+04 0.32000000E+00 0.0000E+00 0.9000E+01
#aMCatNLO 1  0  0  1  2 0.12600061D+03 0.00000000D+00  -5  6  0 0.00000000D+00 0.00000000D+00 0.00000000D+00 0.00000000D+00 0.00000000D+00
  <mgrwgt>
 0.8956863147D-03    7    2    0
 0.160178829431974D+04 0.000000000000000D+00 0.000000000000000D+00 0.160178829431974D+04
 0.160178829431974D+04 0.000000000000000D+00 0.000000000000000D+00 -.160178829431974D+04
 0.751121587205205D+03 -.184733140301606D+03 -.617685084810008D+03 0.364551013773416D+03
 0.147355788216567D+04 0.132780201495080D+03 0.594421890498025D+03 -.134179166277044D+04
 0.978897119268598D+03 0.519529388065262D+02 0.232631943119835D+02 0.977240648997025D+03
 0.000000000000000D+00 0.000000000000000D+00 -.000000000000000D+00 0.000000000000000D+00
 0.191351529406997D+04 0.000000000000000D+00 0.000000000000000D+00 0.191351529406997D+04
 0.161580995932850D+04 0.000000000000000D+00 0.000000000000000D+00 -.161580995932850D+04
 0.744673099866663D+03 -.209465023554135D+03 -.601780680920603D+03 0.364551013773416D+03
 0.148295021190186D+04 0.838964785820291D+02 0.625857687961910D+03 -.134179166277044D+04
 0.978430198804110D+03 0.195899473238362D+02 0.440749571023263D+02 0.977240648997025D+03
 0.323271742825849D+03 0.105978597648270D+03 -.681519641436326D+02 0.297705334741474D+03
0.365037692507D-03 0.000000000000D+00 0.000000000000D+00 0.391435350849D-04 0.000000000000D+00  6 1 1 25 1 1 21 0 0.33634173D+00 0.18055219D+00 0.43739621D+06 0.43739621D+06 0.43739621D+06 0.10726406D+01  1  2  2  1  6  1        1 0.117899094910D-03 0.100000000000D+01
0.162140618344D-03 0.000000000000D+00 -.140184085586D-05 0.391435350849D-04 0.000000000000D+00  6 1 1 25 1 1 21 2 0.33634173D+00 0.18055219D+00 0.43739621D+06 0.43739621D+06 0.43739621D+06 0.10726406D+01  1  2  3  1  6  1        1 0.602522211918D-04 0.100000000000D+01
-.271637965807D-03 0.000000000000D+00 0.000000000000D+00 0.391435350849D-04 0.000000000000D+00  6 1 1 25 1 1 21 2 0.33634173D+00 0.18055219D+00 0.43739621D+06 0.43739621D+06 0.43739621D+06 0.10726406D+01  1  2 15  1  6  1        1 -.100941953762D-03 0.100000000000D+01
-.263833909477D-04 0.000000000000D+00 0.000000000000D+00 0.391435350849D-04 0.000000000000D+00  6 1 1 25 1 1 21 2 0.33634173D+00 0.18055219D+00 0.43739621D+06 0.43739621D+06 0.43739621D+06 0.10726406D+01  1  2  4  1  6  1        1 -.980419294934D-05 0.100000000000D+01
-.452123109544D-02 0.000000000000D+00 -.386419508327D-03 0.391435350849D-04 0.000000000000D+00  6 1 1 25 1 1 21 2 0.40279015D+00 0.18055219D+00 0.43739621D+06 0.43739621D+06 0.43739621D+06 0.10726406D+01  1  2  5  1  6  1        1 -.846083447973D-03 0.100000000000D+01
0.452338120616D-02 0.000000000000D+00 0.380223407133D-03 0.391435350849D-04 0.000000000000D+00  6 1 1 25 1 1 21 2 0.33634173D+00 0.18055219D+00 0.43739621D+06 0.43739621D+06 0.43739621D+06 0.10726406D+01  1  2  6  1  6  1        1 0.168090986547D-02 0.100000000000D+01
-.115674813380D-03 0.000000000000D+00 -.102041364065D-04 0.391435350849D-04 0.000000000000D+00  6 21 1 25 1 1 -1 2 0.40279015D+00 0.18055219D+00 0.43739621D+06 0.43739621D+06 0.43739621D+06 0.10726406D+01  1  2  5  4  6  1        1 -.654527213911D-05 0.100000000000D+01
  </mgrwgt>
  </event>
  <event>
  6     66 -.18540751E-05 0.38569015E+02 0.75467711E-02 0.95366359E-01
        1 -1    0    0  502    0 0.00000000E+00 0.00000000E+00 0.11332762E+04 0.11332763E+04 0.32000000E+00 0.0000E+00 0.9000E+01
        1 -1    0    0  501    0 0.00000000E+00 0.00000000E+00 -.98390325E+03 0.98390330E+03 0.32000000E+00 0.0000E+00 0.9000E+01
       25  1    1    2    0    0 0.45346469E+03 -.25109113E+02 0.37022306E+03 0.59912504E+03 0.12500000E+03 0.0000E+00 0.9000E+01
        1  1    1    2  501    0 -.31711488E+03 0.46458723E+02 -.82969122E+03 0.88944245E+03 0.32000000E+00 0.0000E+00 0.9000E+01
        1  1    1    2  503    0 -.73361504E+02 0.11960879E+02 0.42486497E+03 0.43131812E+03 0.32000000E+00 0.0000E+00 0.9000E+01
       21  1    1    2  502  503 -.62988309E+02 -.33310490E+02 0.18397617E+03 0.19729397E+03 0.75000000E+00 0.0000E+00 0.9000E+01
#aMCatNLO 2  0  0  5  1 0.34133385D+02 0.00000000D+00  -5  6  0 0.00000000D+00 0.00000000D+00 0.00000000D+00 0.00000000D+00 0.00000000D+00
  <mgrwgt>
 -.2467045905D-02    3    2    0
 0.105595183248827D+04 0.000000000000000D+00 0.000000000000000D+00 0.105595183248827D+04
 0.105595183248827D+04 -.000000000000000D+00 -.000000000000000D+00 -.105595183248827D+04
 0.574311849373339D+03 0.453820274166431D+03 -.251016203257618D+02 0.328064273798827D+03
 0.952219049883873D+03 -.316794935992400D+03 0.465570048922085D+02 -.896768940578778D+03
 0.585372765719329D+03 -.137025338174031D+03 -.214553845664467D+02 0.568704666779951D+03
 0.000000000000000D+00 0.000000000000000D+00 -.000000000000000D+00 0.000000000000000D+00
 0.105595183248827D+04 0.000000000000000D+00 0.000000000000000D+00 0.105595183248827D+04
 0.105595183248827D+04 -.000000000000000D+00 -.000000000000000D+00 -.105595183248827D+04
 0.574781720096920D+03 0.453525035950235D+03 -.251478486332530D+02 0.329289619078755D+03
 0.950467831565108D+03 -.317283795991082D+03 0.464804593466134D+02 -.894739994937354D+03
 0.401789593881966D+03 -.732321792625734D+02 0.119797946452996D+02 0.394877715492462D+03
 0.184864519432546D+03 -.630090606965797D+02 -.333124053586601D+02 0.170572660366136D+03
-.540454472235D-09 0.000000000000D+00 0.000000000000D+00 0.738113534049D-05 0.000000000000D+00  6 1 1 25 1 1 21 2 0.17435020D+00 0.15136974D+00 0.21961248D+06 0.21961248D+06 0.21961248D+06 0.10947187D+01  1  2 13  3  6  5        1 -.156978810103D-08 0.100000000000D+01
-.130346710694D-02 0.000000000000D+00 0.000000000000D+00 0.738113534049D-05 0.000000000000D+00  6 1 1 25 1 1 21 2 0.17435020D+00 0.15136974D+00 0.21961248D+06 0.21961248D+06 0.21961248D+06 0.10947187D+01  1  2 13  3  6  5        1 -.378601206889D-02 0.100000000000D+01
0.454100785924D-03 0.000000000000D+00 0.000000000000D+00 0.738113534049D-05 0.567271858647D-08  6 1 1 25 1 1 21 2 0.17435020D+00 0.15136974D+00 0.21961248D+06 0.21961248D+06 0.21961248D+06 0.10947187D+01  1  2  1  3  6  5        1 0.131896773371D-02 0.100000000000D+01
  </mgrwgt>
  </event>
  <event>
  5     66 0.18540751E-05 0.99610536E+02 0.75467711E-02 0.93296518E-01
        1 -1    0    0  502    0 0.00000000E+00 0.00000000E+00 0.24489163E+03 0.24489184E+03 0.32000000E+00 0.0000E+00 0.9000E+01
        1 -1    0    0  501    0 -.00000000E+00 -.00000000E+00 -.24075124E+04 0.24075124E+04 0.32000000E+00 0.0000E+00 0.9000E+01
       25  1    1    2    0    0 0.44872023E+03 0.11539388E+03 -.32768278E+03 0.58109087E+03 0.12500000E+03 0.0000E+00 0.9000E+01
        1  1    1    2  501    0 -.51220595E+03 -.19225348E+03 -.18828383E+04 0.19607133E+04 0.32000000E+00 0.0000E+00 0.9000E+01
        1  1    1    2  502    0 0.63485713E+02 0.76859597E+02 0.47900351E+02 0.11060009E+03 0.32000000E+00 0.0000E+00 0.9000E+01
#aMCatNLO 1  0  0  5  1 0.14514292D+02 0.00000000D+00  -5  6  0 0.00000000D+00 0.00000000D+00 0.00000000D+00 0.00000000D+00 0.00000000D+00
  <mgrwgt>
 0.4490489260D-02    8    2    0
 0.767841089354230D+03 0.000000000000000D+00 0.000000000000000D+00 0.767841089354230D+03
 0.767841089354230D+03 -.000000000000000D+00 -.000000000000000D+00 -.767841089354230D+03
 0.542376638045636D+03 0.448859369180232D+03 0.115475421519683D+03 0.252464079071979D+03
 0.735026210173259D+03 -.512295315493618D+03 -.192274767992313D+03 -.490762114428631D+03
 0.258279330489565D+03 0.634359463133862D+02 0.767993464726304D+02 0.238298035356652D+03
 0.000000000000000D+00 0.000000000000000D+00 0.000000000000000D+00 0.000000000000000D+00
 0.767841089354230D+03 0.000000000000000D+00 0.000000000000000D+00 0.767841089354230D+03
 0.767841089354230D+03 -.000000000000000D+00 -.000000000000000D+00 -.767841089354230D+03
 0.542780300709690D+03 0.449001753126412D+03 0.115647800031399D+03 0.252998946392683D+03
 0.734347318963556D+03 -.512102518310078D+03 -.192041356203602D+03 -.490037869064136D+03
 0.136494660819452D+03 0.258974413084127D+02 0.292075698879253D+02 0.130793856228557D+03
 0.122059898215763D+03 0.372033238752540D+02 0.471859862842774D+02 0.106245066442896D+03
0.958178925288D-04 0.000000000000D+00 0.000000000000D+00 0.178844947514D-06 0.000000000000D+00  6 1 1 25 1 1 21 0 0.37675653D-01 0.37038654D+00 0.31743957D+06 0.31743957D+06 0.31743957D+06 0.10827410D+01  1  2  2  3  6  5        1 0.231791551550D-03 0.100000000000D+01
0.119824680023D-04 0.000000000000D+00 -.367965936741D-06 0.178844947514D-06 0.000000000000D+00  6 1 1 25 1 1 21 2 0.37675653D-01 0.37038654D+00 0.31743957D+06 0.31743957D+06 0.31743957D+06 0.10827410D+01  1  2  3  3  6  5        1 0.339818014794D-04 0.100000000000D+01
-.608737153481D-04 0.000000000000D+00 0.000000000000D+00 0.178844947514D-06 0.000000000000D+00  6 1 1 25 1 1 21 2 0.37675653D-01 0.37038654D+00 0.31743957D+06 0.31743957D+06 0.31743957D+06 0.10827410D+01  1  2 15  3  6  5        1 -.172635429518D-03 0.100000000000D+01
0.146258432995D-06 0.000000000000D+00 0.000000000000D+00 0.178844947514D-06 0.000000000000D+00  6 1 1 25 1 1 21 2 0.37675653D-01 0.37038654D+00 0.31711584D+06 0.31711584D+06 0.31711584D+06 0.10827736D+01  1  2 12  3  6  5        1 0.414833254490D-06 0.100000000000D+01
0.141872656726D-02 0.000000000000D+00 0.000000000000D+00 0.178844947514D-06 0.000000000000D+00  6 1 1 25 1 1 21 2 0.37675653D-01 0.37038654D+00 0.31711584D+06 0.31711584D+06 0.31711584D+06 0.10827736D+01  1  2 12  3  6  5        1 0.402393863436D-02 0.100000000000D+01
-.111191916793D-02 0.000000000000D+00 0.000000000000D+00 0.178844947514D-06 0.000000000000D+00  6 1 1 25 1 1 21 2 0.37675653D-01 0.37038654D+00 0.31743957D+06 0.31743957D+06 0.31743957D+06 0.10827410D+01  1  2  4  3  6  5        1 -.315335842484D-02 0.100000000000D+01
-.144945113281D-02 0.000000000000D+00 0.000000000000D+00 0.178844947514D-06 0.000000000000D+00  6 1 1 25 1 1 21 2 0.37675653D-01 0.37038654D+00 0.31743957D+06 0.31743957D+06 0.31743957D+06 0.10827410D+01  1  2  5  3  6  5        1 -.411058561889D-02 0.100000000000D+01
0.269289467053D-02 0.000000000000D+00 -.000000000000D+00 0.178844947514D-06 0.000000000000D+00  6 1 1 25 1 1 21 2 0.37675653D-01 0.37038654D+00 0.31743957D+06 0.31743957D+06 0.31743957D+06 0.10827410D+01  1  2  6  3  6  5        1 0.763694191223D-02 0.100000000000D+01
  </mgrwgt>
  </event>
  <event>
  5     66 0.18540751E-05 0.47891994E+02 0.75467711E-02 0.83506796E-01
        1 -1    0    0  502    0 0.00000000E+00 0.00000000E+00 0.84066817E+03 0.84066823E+03 0.32000000E+00 0.0000E+00 0.9000E+01
        1 -1    0    0  501    0 0.00000000E+00 0.00000000E+00 -.13610326E+04 0.13610327E+04 0.32000000E+00 0.0000E+00 0.9000E+01
       25  1    1    2    0    0 0.46239824E+03 -.28721681E+03 0.36504186E+03 0.66722274E+03 0.12500000E+03 0.0000E+00 0.9000E+01
        1  1    1    2  501    0 -.45353985E+03 0.33431405E+03 -.11420083E+04 0.12734392E+04 0.32000000E+00 0.0000E+00 0.9000E+01
        1  1    1    2  502    0 -.88583865E+01 -.47097242E+02 0.25660203E+03 0.26103894E+03 0.32000000E+00 0.0000E+00 0.9000E+01
#aMCatNLO 1  0  0  2  4 0.53232903D+02 0.00000000D+00  -5  6  0 0.00000000D+00 0.00000000D+00 0.00000000D+00 0.00000000D+00 0.00000000D+00
  <mgrwgt>
 0.1187672637D-01    3    2    0
 0.106966205732093D+04 0.000000000000000D+00 0.000000000000000D+00 0.106966205732093D+04
 0.106966205732093D+04 0.000000000000000D+00 0.000000000000000D+00 -.106966205732093D+04
 0.775662481476311D+03 0.462459917889895D+03 -.287292245916832D+03 0.538164728453401D+03
 0.103281109035771D+04 -.453607276892855D+03 0.334358941536914D+03 -.865530637776640D+03
 0.330850542807847D+03 -.885264099704020D+01 -.470666956200820D+02 0.327365909323239D+03
 0.000000000000000D+00 0.000000000000000D+00 0.000000000000000D+00 0.000000000000000D+00
 0.748519333366928D+04 0.000000000000000D+00 0.000000000000000D+00 0.748519333366928D+04
 0.131401027827331D+04 0.000000000000000D+00 0.000000000000000D+00 -.131401027827331D+04
 0.965151444233929D+03 0.287723906015285D+03 -.737215022407184D+03 0.538164728453401D+03
 0.111624788053931D+04 -.669321310605384D+03 -.221076975390849D+03 -.865530637776640D+03
 0.414235138617099D+03 -.836413927149778D+02 -.239638120721214D+03 0.327365909323239D+03
 0.630356914855225D+04 0.465238797305077D+03 0.119793011851925D+04 0.617118305539597D+04
0.120682799387D-01 0.000000000000D+00 0.000000000000D+00 0.418936656903D-05 0.000000000000D+00  6 1 1 25 1 1 21 0 0.12933357D+00 0.20938964D+00 0.34223082D+06 0.34223082D+06 0.34223082D+06 0.10803453D+01  1  2  2  2  6  2        1 0.256788225954D-01 0.100000000000D+01
0.339210416601D-02 0.000000000000D+00 -.463453726156D-04 0.418936656903D-05 0.000000000000D+00  6 1 1 25 1 1 21 2 0.12933357D+00 0.20938964D+00 0.34223082D+06 0.34223082D+06 0.34223082D+06 0.10803453D+01  1  2  3  2  6  2        1 0.842411131736D-02 0.100000000000D+01
-.894974061481D-02 0.000000000000D+00 0.000000000000D+00 0.418936656903D-05 0.000000000000D+00  6 1 1 25 1 1 21 2 0.12933357D+00 0.20938964D+00 0.34223082D+06 0.34223082D+06 0.34223082D+06 0.10803453D+01  1  2 15  2  6  2        1 -.222262075428D-01 0.100000000000D+01
  </mgrwgt>
  </event>
  <event>
  5     66 0.18540751E-05 0.90294248E+02 0.75467711E-02 0.92908745E-01
        1 -1    0    0  502    0 0.00000000E+00 0.00000000E+00 0.28829239E+04 0.28829239E+04 0.32000000E+00 0.0000E+00 0.9000E+01
        1 -1    0    0  501    0 0.00000000E+00 0.00000000E+00 -.11278957E+04 0.11278958E+04 0.32000000E+00 0.0000E+00 0.9000E+01
       25  1    1    2    0    0 0.18762175E+03 0.45742232E+03 -.10231715E+02 0.51006548E+03 0.12500000E+03 0.0000E+00 0.9000E+01
        1  1    1    2  501    0 -.40438176E+02 0.80728984E+02 -.83573357E+03 0.84059688E+03 0.32000000E+00 0.0000E+00 0.9000E+01
        1  1    1    2  502    0 -.14718357E+03 -.53815131E+03 0.26009935E+04 0.26601573E+04 0.32000000E+00 0.0000E+00 0.9000E+01
#aMCatNLO 1  0  0  2  4 0.75575854D+01 0.00000000D+00  -5  6  0 0.00000000D+00 0.00000000D+00 0.00000000D+00 0.00000000D+00 0.00000000D+00
  <mgrwgt>
 0.5974017740D-01   13    2    0
 0.180322978448268D+04 0.000000000000000D+00 0.000000000000000D+00 0.180322978448268D+04
 0.180322978448268D+04 0.000000000000000D+00 0.000000000000000D+00 -.180322978448268D+04
 0.572211581186823D+03 0.187622750780929D+03 0.457416469198193D+03 -.259555332713431D+03
 0.134157334893270D+04 -.404399421470303D+02 0.807320400348412D+02 -.133853128441493D+04
 0.169267463884583D+04 -.147182808633899D+03 -.538148509233034D+03 0.159808661712836D+04
 0.000000000000000D+00 0.000000000000000D+00 -.000000000000000D+00 -.000000000000000D+00
 0.180336205343797D+04 0.000000000000000D+00 0.000000000000000D+00 0.180336205343797D+04
 0.191452139918248D+04 0.000000000000000D+00 0.000000000000000D+00 -.191452139918248D+04
 0.572832238053745D+03 0.187005158432285D+03 0.458445059885478D+03 -.259555332713431D+03
 0.134176496119368D+04 -.418872310466448D+02 0.831424777405883D+02 -.133853128441493D+04
 0.169187028843071D+04 -.149008301261872D+03 -.535108178955367D+03 0.159808661712836D+04
 0.111415964942316D+03 0.389037387623244D+01 -.647935867069923D+01 -.111159345744507D+03
0.120401037142D-02 0.000000000000D+00 0.000000000000D+00 0.610543564087D-04 0.000000000000D+00  6 1 1 25 1 1 21 0 0.44352676D+00 0.17352242D+00 0.33533650D+06 0.33533650D+06 0.33533650D+06 0.10809920D+01  1  2  2  2  6  2        1 0.139943605592D-03 0.100000000000D+01
0.368988498321D-03 0.000000000000D+00 -.462371684946D-05 0.610543564087D-04 0.000000000000D+00  6 1 1 25 1 1 21 2 0.44352676D+00 0.17352242D+00 0.33533650D+06 0.33533650D+06 0.33533650D+06 0.10809920D+01  1  2  3  2  6  2        1 0.501164909825D-04 0.100000000000D+01
-.828252210566D-03 0.000000000000D+00 0.000000000000D+00 0.610543564087D-04 0.000000000000D+00  6 1 1 25 1 1 21 2 0.44352676D+00 0.17352242D+00 0.33533650D+06 0.33533650D+06 0.33533650D+06 0.10809920D+01  1  2 15  2  6  2        1 -.112494277277D-03 0.100000000000D+01
0.380290694368D-08 0.000000000000D+00 0.000000000000D+00 0.610543564087D-04 0.000000000000D+00  6 1 1 25 1 1 21 2 0.44352676D+00 0.18423865D+00 0.34034233D+06 0.34034233D+06 0.34034233D+06 0.10805210D+01  1  2 12  2  6  2        1 0.459070536451D-09 0.100000000000D+01
0.666767333082D+00 0.000000000000D+00 0.000000000000D+00 0.610543564087D-04 0.000000000000D+00  6 1 1 25 1 1 21 2 0.44352676D+00 0.19169937D+00 0.34034233D+06 0.34034233D+06 0.34034233D+06 0.10805210D+01  1  2 12  2  6  2        1 0.743686221295D-01 0.100000000000D+01
-.238754031979D+00 0.000000000000D+00 0.000000000000D+00 0.610543564087D-04 0.000000000000D+00  6 1 1 25 1 1 21 2 0.44352676D+00 0.17352242D+00 0.33533650D+06 0.33533650D+06 0.33533650D+06 0.10809920D+01  1  2  4  2  6  2        1 -.324278787690D-01 0.100000000000D+01
-.120785209788D+01 0.000000000000D+00 -.440118867774D-02 0.610543564087D-04 0.000000000000D+00  6 1 1 25 1 1 21 2 0.44352676D+00 0.18423722D+00 0.33533650D+06 0.33533650D+06 0.33533650D+06 0.10809920D+01  1  2  5  2  6  2        1 -.146152205516D+00 0.100000000000D+01
0.120595829672D+01 0.000000000000D+00 0.439330014597D-02 0.610543564087D-04 0.000000000000D+00  6 1 1 25 1 1 21 2 0.44352676D+00 0.17352242D+00 0.33533650D+06 0.33533650D+06 0.33533650D+06 0.10809920D+01  1  2  6  2  6  2        1 0.163794802217D+00 0.100000000000D+01
0.496036666084D-02 0.000000000000D+00 0.000000000000D+00 0.610543564087D-04 0.156622457789D-05  6 1 1 25 1 1 21 2 0.44355929D+00 0.18423187D+00 0.34034233D+06 0.34034233D+06 0.34034233D+06 0.10805210D+01  1  2 11  2  6  2        1 0.598624143453D-03 0.100000000000D+01
0.593315028433D-10 0.000000000000D+00 0.000000000000D+00 0.610543564087D-04 0.000000000000D+00  6 1 21 25 1 1 -1 2 0.44352676D+00 0.18423865D+00 0.34034233D+06 0.34034233D+06 0.34034233D+06 0.10805210D+01  1  2 12  5  6  2        1 0.749924521013D-11 0.100000000000D+01
0.163627895408D-01 0.000000000000D+00 0.000000000000D+00 0.610543564087D-04 0.000000000000D+00  6 1 21 25 1 1 -1 2 0.44352676D+00 0.19169937D+00 0.34034233D+06 0.34034233D+06 0.34034233D+06 0.10805210D+01  1  2 12  5  6  2        1 0.181324378611D-02 0.100000000000D+01
-.186394001276D-01 0.000000000000D+00 -.452928767618D-04 0.610543564087D-04 0.000000000000D+00  6 1 21 25 1 1 -1 2 0.44352676D+00 0.18423722D+00 0.33533650D+06 0.33533650D+06 0.33533650D+06 0.10809920D+01  1  2  5  5  6  2        1 -.236292679730D-02 0.100000000000D+01
0.240016629798D-03 0.000000000000D+00 0.000000000000D+00 0.610543564087D-04 0.642033221612D-07  6 1 21 25 1 1 -1 2 0.44355929D+00 0.18423187D+00 0.34034233D+06 0.34034233D+06 0.34034233D+06 0.10805210D+01  1  2 11  5  6  2        1 0.303299236501D-04 0.100000000000D+01
  </mgrwgt>
  </event>
  <event>
  5     66 0.18540751E-05 0.20056442E+03 0.75467711E-02 0.87615867E-01
        1 -1    0    0  502    0 0.00000000E+00 0.00000000E+00 0.14852586E+04 0.14852587E+04 0.32000000E+00 0.0000E+00 0.9000E+01
        1 -1    0    0  501    0 0.00000000E+00 0.00000000E+00 -.14423361E+04 0.14423361E+04 0.32000000E+00 0.0000E+00 0.9000E+01
       25  1    1    2    0    0 -.26825459E+03 -.42729682E+03 -.52023558E+02 0.52237396E+03 0.12500000E+03 0.0000E+00 0.9000E+01
        1  1    1    2  501    0 -.66261753E+02 0.18928474E+03 -.11122178E+04 0.11301539E+04 0.32000000E+00 0.0000E+00 0.9000E+01
        1  1    1    2  502    0 0.33451635E+03 0.23801208E+03 0.12071639E+04 0.12750669E+04 0.32000000E+00 0.0000E+00 0.9000E+01
#aMCatNLO 1  0  0  5  1 0.12949146D+02 0.00000000D+00  -5  6  0 0.00000000D+00 0.00000000D+00 0.00000000D+00 0.00000000D+00 0.00000000D+00
  <mgrwgt>
 0.4215932835D-03    4    2    0
 0.146364005606741D+04 0.000000000000000D+00 0.000000000000000D+00 0.146364005606741D+04
 0.146364005606741D+04 -.000000000000000D+00 -.000000000000000D+00 -.146364005606741D+04
 0.523187017982426D+03 -.268241787353359D+03 -.427307027767568D+03 -.596213327867214D+02
 0.114662248932556D+04 -.662658411500555D+02 0.189301152306255D+03 -.112894510276600D+04
 0.125747060482684D+04 0.334507628503415D+03 0.238005875461313D+03 0.118856643555272D+04
 0.000000000000000D+00 -.000000000000000D+00 0.000000000000000D+00 0.000000000000000D+00
 0.146364005606741D+04 0.000000000000000D+00 0.000000000000000D+00 0.146364005606741D+04
 0.146364005606741D+04 -.000000000000000D+00 -.000000000000000D+00 -.146364005606741D+04
 0.480900857799302D+03 -.221374940116736D+03 -.393960747873834D+03 0.106905098358805D+03
 0.839695778228348D+03 0.264476324951538D+02 0.255267813696646D+03 -.799517270607988D+03
 0.104746041504141D+04 0.659007153083093D+03 -.154496871346184D+03 0.799383268531610D+03
 0.559223061065764D+03 -.464079845461510D+03 0.293189805523372D+03 -.106771096282427D+03
0.203324196378D-02 0.000000000000D+00 0.000000000000D+00 0.713621450951D-05 0.000000000000D+00  6 1 1 25 1 1 21 0 0.22850133D+00 0.22189787D+00 0.31972354D+06 0.31972354D+06 0.31972354D+06 0.10825119D+01  1  2  2  3  6  5        1 0.128920231057D-02 0.100000000000D+01
0.272456633508D-03 0.000000000000D+00 -.780818450582D-05 0.713621450951D-05 0.000000000000D+00  6 1 1 25 1 1 21 2 0.22850133D+00 0.22189787D+00 0.31972354D+06 0.31972354D+06 0.31972354D+06 0.10825119D+01  1  2  3  3  6  5        1 0.202439251608D-03 0.100000000000D+01
-.143224493482D-02 0.000000000000D+00 0.000000000000D+00 0.713621450951D-05 0.000000000000D+00  6 1 1 25 1 1 21 2 0.22850133D+00 0.22189787D+00 0.31972354D+06 0.31972354D+06 0.31972354D+06 0.10825119D+01  1  2 15  3  6  5        1 -.106417887130D-02 0.100000000000D+01
-.789945116104D-05 0.000000000000D+00 0.000000000000D+00 0.713621450951D-05 0.000000000000D+00  6 1 1 25 1 1 21 2 0.22850133D+00 0.22189787D+00 0.31972354D+06 0.31972354D+06 0.31972354D+06 0.10825119D+01  1  2  4  3  6  5        1 -.586940740097D-05 0.100000000000D+01
  </mgrwgt>
  </event>
  <event>
  5     66 -.18540751E-05 0.29361907E+02 0.75467711E-02 0.91800309E-01
        1 -1    0    0  502    0 0.00000000E+00 0.00000000E+00 0.65261964E+03 0.65261972E+03 0.32000000E+00 0.0000E+00 0.9000E+01
        1 -1    0    0  501    0 -.00000000E+00 -.00000000E+00 -.19972691E+04 0.19972692E+04 0.32000000E+00 0.0000E+00 0.9000E+01
       25  1    1    2    0    0 0.16408104E+03 0.59993890E+03 0.34995194E+03 0.72452787E+03 0.12500000E+03 0.0000E+00 0.9000E+01
        1  1    1    2  501    0 -.19349871E+03 -.59878521E+03 -.17516008E+04 0.18612068E+04 0.32000000E+00 0.0000E+00 0.9000E+01
        1  1    1    2  502    0 0.29417674E+02 -.11536940E+01 0.56999345E+02 0.64154176E+02 0.32000000E+00 0.0000E+00 0.9000E+01
#aMCatNLO 1  0  0  5  1 0.71234157D+01 0.00000000D+00  -5  6  0 0.00000000D+00 0.00000000D+00 0.00000000D+00 0.00000000D+00 0.00000000D+00
  <mgrwgt>
 -.2420418040D-03    9    2    0
 0.114169050506556D+04 0.000000000000000D+00 0.000000000000000D+00 0.114169050506556D+04
 0.114169050506556D+04 -.000000000000000D+00 -.000000000000000D+00 -.114169050506556D+04
 0.104716560479171D+04 0.164178871812478D+03 0.600020119538708D+03 0.833037789093582D+03
 0.112848575571494D+04 -.193518225036572D+03 -.598869497140832D+03 -.936688914648026D+03
 0.107729649624482D+03 0.293393532240941D+02 -.115062239787598D+01 0.103651125554444D+03
 0.000000000000000D+00 0.000000000000000D+00 0.000000000000000D+00 0.000000000000000D+00
 0.114169050506556D+04 0.000000000000000D+00 0.000000000000000D+00 0.114169050506556D+04
 0.114169050506556D+04 -.000000000000000D+00 -.000000000000000D+00 -.114169050506556D+04
 0.104751632188234D+04 0.164297960148374D+03 0.600015449166272D+03 0.833458508663020D+03
 0.112809025014638D+04 -.193389932584176D+03 -.598874528477688D+03 -.936235678443760D+03
 0.492136082329933D+02 0.201103513386440D+02 -.786682951759296D+00 0.449102898485442D+02
 0.585608298694125D+02 0.898162109715891D+01 -.354237736824123D+00 0.578668799321957D+02
0.575279337977D-04 0.000000000000D+00 0.000000000000D+00 0.904381832273D-06 0.000000000000D+00  6 1 1 25 1 1 21 0 0.10040303D+00 0.30727218D+00 0.41811264D+06 0.41811264D+06 0.41811264D+06 0.10740439D+01  1  2  2  3  6  5        1 0.671188245416D-04 0.100000000000D+01
0.155954265306D-04 0.000000000000D+00 -.220922413236D-06 0.904381832273D-06 0.000000000000D+00  6 1 1 25 1 1 21 2 0.10040303D+00 0.30727218D+00 0.41811264D+06 0.41811264D+06 0.41811264D+06 0.10740439D+01  1  2  3  3  6  5        1 0.209897299147D-04 0.100000000000D+01
-.420300581867D-04 0.000000000000D+00 0.000000000000D+00 0.904381832273D-06 0.000000000000D+00  6 1 1 25 1 1 21 2 0.10040303D+00 0.30727218D+00 0.41811264D+06 0.41811264D+06 0.41811264D+06 0.10740439D+01  1  2 15  3  6  5        1 -.565678385203D-04 0.100000000000D+01
0.284559500501D-08 0.000000000000D+00 0.000000000000D+00 0.904381832273D-06 0.000000000000D+00  6 1 1 25 1 1 21 2 0.10040303D+00 0.30727218D+00 0.41794724D+06 0.41794724D+06 0.41794724D+06 0.10740562D+01  1  2 12  3  6  5        1 0.383005070636D-08 0.100000000000D+01
0.256800390005D-03 0.000000000000D+00 0.000000000000D+00 0.904381832273D-06 0.000000000000D+00  6 1 1 25 1 1 21 2 0.10040303D+00 0.30727218D+00 0.41794724D+06 0.41794724D+06 0.41794724D+06 0.10740562D+01  1  2 12  3  6  5        1 0.345642480185D-03 0.100000000000D+01
-.149651971166D-02 0.000000000000D+00 0.000000000000D+00 0.904381832273D-06 0.000000000000D+00  6 1 1 25 1 1 21 2 0.10040303D+00 0.30727218D+00 0.41811264D+06 0.41811264D+06 0.41811264D+06 0.10740439D+01  1  2  4  3  6  5        1 -.201415103961D-02 0.100000000000D+01
-.331583094437D-03 0.000000000000D+00 0.000000000000D+00 0.904381832273D-06 0.000000000000D+00  6 1 1 25 1 1 21 2 0.10040303D+00 0.30727218D+00 0.41811264D+06 0.41811264D+06 0.41811264D+06 0.10740439D+01  1  2  5  3  6  5        1 -.446274398643D-03 0.100000000000D+01
0.131598919692D-02 0.000000000000D+00 -.000000000000D+00 0.904381832273D-06 0.000000000000D+00  6 1 1 25 1 1 21 2 0.10040303D+00 0.30727218D+00 0.41811264D+06 0.41811264D+06 0.41811264D+06 0.10740439D+01  1  2  6  3  6  5        1 0.177117681007D-02 0.100000000000D+01
0.520222845224D-04 0.000000000000D+00 0.000000000000D+00 0.904381832273D-06 0.936087684052D-07  6 1 1 25 1 1 21 2 0.10040303D+00 0.30727218D+00 0.41794724D+06 0.41794724D+06 0.41794724D+06 0.10740562D+01  1  2 11  3  6  5        1 0.700197980497D-04 0.100000000000D+01
  </mgrwgt>
  </event>
  <event>
  5     66 0.18540751E-05 0.21289185E+02 0.75467711E-02 0.94058118E-01
        1 -1    0    0  502    0 0.00000000E+00 0.00000000E+00 0.51232842E+03 0.51232852E+03 0.32000000E+00 0.0000E+00 0.9000E+01
        1 -1    0    0  501    0 -.00000000E+00 -.00000000E+00 -.18475543E+04 0.18475544E+04 0.32000000E+00 0.0000E+00 0.9000E+01
       25  1    1    2    0    0 -.32075233E+03 0.35809714E+03 -.84761477E+03 0.98244156E+03 0.12500000E+03 0.0000E+00 0.9000E+01
        1  1    1    2  501    0 -.19909183E+02 0.75425422E+01 -.79200632E+03 0.79229249E+03 0.32000000E+00 0.0000E+00 0.9000E+01
        1  1    1    2  502    0 0.34066152E+03 -.36563968E+03 0.30439518E+03 0.58514884E+03 0.32000000E+00 0.0000E+00 0.9000E+01
#aMCatNLO 1  0  0  5  4 0.18754800D+03 0.00000000D+00  -5  6  0 0.00000000D+00 0.00000000D+00 0.00000000D+00 0.00000000D+00 0.00000000D+00
  <mgrwgt>
 0.3143080349D-02    6    2    0
 0.972910452997876D+03 0.000000000000000D+00 0.000000000000000D+00 0.972910452997876D+03
 0.972910452997876D+03 -.000000000000000D+00 -.000000000000000D+00 -.972910452997876D+03
 0.609877505602183D+03 -.320754170482335D+03 0.358098691882980D+03 -.353846945485515D+03
 0.417398107009670D+03 -.199084258653863D+02 0.754214661698921D+01 -.416854831253311D+03
 0.918545293383899D+03 0.340662596347722D+03 -.365640838499969D+03 0.770701776738825D+03
 0.000000000000000D+00 0.000000000000000D+00 0.000000000000000D+00 0.000000000000000D+00
 0.972910452997876D+03 0.000000000000000D+00 0.000000000000000D+00 0.972910452997876D+03
 0.972910452997876D+03 -.000000000000000D+00 -.000000000000000D+00 -.972910452997876D+03
 0.587886953564894D+03 -.311814259662954D+03 0.348503284218157D+03 -.333621639783473D+03
 0.403234530675438D+03 -.137833630116428D+02 0.967978681564329D+00 -.402997727847691D+03
 0.478966205065723D+03 -.852263314234168D+01 -.178029668274847D+03 0.444568810796854D+03
 0.475733216689698D+03 0.334120255816939D+03 -.171441594624874D+03 0.292050556834310D+03
0.102996339336D-02 0.000000000000D+00 0.000000000000D+00 0.168377863994D-04 0.000000000000D+00  6 1 1 25 1 1 21 0 0.78819767D-01 0.28423914D+00 0.25896169D+06 0.25896169D+06 0.25896169D+06 0.10893103D+01  1  2  2  3  6  5        1 0.221439892599D-02 0.100000000000D+01
0.615983887741D-03 0.000000000000D+00 -.395533062609D-05 0.168377863994D-04 0.000000000000D+00  6 1 1 25 1 1 21 2 0.78819767D-01 0.28423914D+00 0.25896169D+06 0.25896169D+06 0.25896169D+06 0.10893103D+01  1  2  3  3  6  5        1 0.157147197648D-02 0.100000000000D+01
-.713423861799D-03 0.000000000000D+00 0.000000000000D+00 0.168377863994D-04 0.000000000000D+00  6 1 1 25 1 1 21 2 0.78819767D-01 0.28423914D+00 0.25896169D+06 0.25896169D+06 0.25896169D+06 0.10893103D+01  1  2 15  3  6  5        1 -.182005670681D-02 0.100000000000D+01
-.240090781379D-03 0.000000000000D+00 0.000000000000D+00 0.168377863994D-04 0.000000000000D+00  6 1 1 25 1 1 21 2 0.78819767D-01 0.28423914D+00 0.25896169D+06 0.25896169D+06 0.25896169D+06 0.10893103D+01  1  2  4  3  6  5        1 -.612509421523D-03 0.100000000000D+01
-.112636414359D-02 0.000000000000D+00 0.000000000000D+00 0.168377863994D-04 0.000000000000D+00  6 1 1 25 1 1 21 2 0.78819767D-01 0.28423914D+00 0.25896169D+06 0.25896169D+06 0.25896169D+06 0.10893103D+01  1  2  5  3  6  5        1 -.287353244490D-02 0.100000000000D+01
0.182791844005D-02 0.000000000000D+00 -.000000000000D+00 0.168377863994D-04 0.000000000000D+00  6 1 1 25 1 1 21 2 0.78819767D-01 0.28423914D+00 0.25896169D+06 0.25896169D+06 0.25896169D+06 0.10893103D+01  1  2  6  3  6  5        1 0.466330801988D-02 0.100000000000D+01
  </mgrwgt>
  </event>
  <event>
  6     66 0.18540751E-05 0.41796224E+02 0.75467711E-02 0.94366594E-01
        1 -1    0    0  502    0 0.00000000E+00 0.00000000E+00 0.17983745E+04 0.17983746E+04 0.32000000E+00 0.0000E+00 0.9000E+01
        1 -1    0    0  501    0 0.00000000E+00 0.00000000E+00 -.10171246E+04 0.10171247E+04 0.32000000E+00 0.0000E+00 0.9000E+01
       25  1    1    2    0    0 -.35093875E+03 0.33155575E+03 0.36574327E+03 0.61844997E+03 0.12500000E+03 0.0000E+00 0.9000E+01
        1  1    1    2  501    0 0.59338803E+01 -.53010366E+02 -.84714564E+03 0.84882339E+03 0.32000000E+00 0.0000E+00 0.9000E+01
        1  1    1    2  503    0 0.34369442E+03 -.21010377E+03 0.10400904E+04 0.11153733E+04 0.32000000E+00 0.0000E+00 0.9000E+01
       21  1    1    2  502  503 0.13104525E+01 -.68441618E+02 0.22256190E+03 0.23285260E+03 0.75000000E+00 0.0000E+00 0.9000E+01
#aMCatNLO 2  0  0  5  1 0.31097420D+01 0.00000000D+00  -5  6  0 0.00000000D+00 0.00000000D+00 0.00000000D+00 0.00000000D+00 0.00000000D+00
  <mgrwgt>
 0.5311388627D-02    1    2    0
 0.135246853883386D+04 0.000000000000000D+00 0.000000000000000D+00 0.135246853883386D+04
 0.135246853883386D+04 -.000000000000000D+00 -.000000000000000D+00 -.135246853883386D+04
 0.538289491547951D+03 -.351731403186601D+03 0.332214138635976D+03 0.200123368984465D+03
 0.113319225363697D+04 0.410576208423782D+01 -.515528300652252D+02 -.113201154240265D+04
 0.103345533248281D+04 0.347625641102363D+03 -.280661308570750D+03 0.931888173418180D+03
 0.000000000000000D+00 0.000000000000000D+00 0.000000000000000D+00 0.000000000000000D+00
 0.135246853883386D+04 0.000000000000000D+00 0.000000000000000D+00 0.135246853883386D+04
 0.135246853883386D+04 -.000000000000000D+00 -.000000000000000D+00 -.135246853883386D+04
 0.538160574519496D+03 -.350859974526354D+03 0.331510576299966D+03 0.202459428142491D+03
 0.112836611779059D+04 0.593658252246117D+01 -.530309732146212D+02 -.112710361930289D+04
 0.860260274685525D+03 0.343609001470747D+03 -.210014882425863D+03 0.760180467698258D+03
 0.178150110672115D+03 0.131439053314655D+01 -.684647206594812D+02 0.164463723462143D+03
0.561670854541D-02 0.000000000000D+00 0.000000000000D+00 0.731012853754D-04 0.992143599923D-07  6 1 1 25 1 1 21 2 0.27667301D+00 0.15648072D+00 0.26172036D+06 0.26172036D+06 0.26172036D+06 0.10889654D+01  1  2  1  3  6  5        1 0.531138862691D-02 0.100000000000D+01
  </mgrwgt>
  </event>
  <event>
  5     66 -.18540751E-05 0.11383868E+03 0.75467711E-02 0.90764645E-01
        1 -1    0    0  502    0 0.00000000E+00 0.00000000E+00 0.95871833E+03 0.95871838E+03 0.32000000E+00 0.0000E+00 0.9000E+01
        1 -1    0    0  501    0 -.00000000E+00 -.00000000E+00 -.19607757E+04 0.19607757E+04 0.32000000E+00 0.0000E+00 0.9000E+01
       25  1    1    2    0    0 -.54680662E+03 -.31151170E+03 -.26293460E+01 0.64161431E+03 0.12500000E+03 0.0000E+00 0.9000E+01
        1  1    1    2  501    0 0.34407056E+03 0.42554805E+03 -.15695049E+04 0.16621737E+04 0.32000000E+00 0.0000E+00 0.9000E+01
        1  1    1    2  502    0 0.20273606E+03 -.11403635E+03 0.57007689E+03 0.61570607E+03 0.32000000E+00 0.0000E+00 0.9000E+01
#aMCatNLO 1  0  0  5  1 0.39568673D+02 0.00000000D+00  -5  6  0 0.00000000D+00 0.00000000D+00 0.00000000D+00 0.00000000D+00 0.00000000D+00
  <mgrwgt>
 -.3424314245D-03    8    2    0
 0.137106955620252D+04 0.000000000000000D+00 0.000000000000000D+00 0.137106955620252D+04
 0.137106955620252D+04 -.000000000000000D+00 -.000000000000000D+00 -.137106955620252D+04
 0.682228918834953D+03 -.546824409645571D+03 -.311568834572292D+03 0.231774079727968D+03
 0.119616782749145D+04 0.344113866155778D+03 0.425590833643837D+03 -.106361438546274D+04
 0.863742366078637D+03 0.202710543489793D+03 -.114021999071545D+03 0.831840305734775D+03
 0.000000000000000D+00 0.000000000000000D+00 0.000000000000000D+00 0.000000000000000D+00
 0.137106955620252D+04 0.000000000000000D+00 0.000000000000000D+00 0.137106955620252D+04
 0.137106955620252D+04 -.000000000000000D+00 -.000000000000000D+00 -.137106955620252D+04
 0.682429630198777D+03 -.546588965276194D+03 -.311701268915391D+03 0.232740246128758D+03
 0.119469919636979D+04 0.344526362145411D+03 0.425358810106544D+03 -.106192167237430D+04
 0.568201269710431D+03 0.150715234935265D+03 -.109056535213006D+03 0.536883854279758D+03
 0.296809016126041D+03 0.513473681955172D+02 -.460100597814667D+01 0.292297571965782D+03
0.207462795181D-04 0.000000000000D+00 0.000000000000D+00 0.540030426770D-06 0.000000000000D+00  6 1 1 25 1 1 21 0 0.14749513D+00 0.30165781D+00 0.50518985D+06 0.50518985D+06 0.50518985D+06 0.10681936D+01  1  2  2  3  6  5        1 0.136170514987D-04 0.100000000000D+01
0.222640313539D-05 0.000000000000D+00 -.796711759703D-07 0.540030426770D-06 0.000000000000D+00  6 1 1 25 1 1 21 2 0.14749513D+00 0.30165781D+00 0.50518985D+06 0.50518985D+06 0.50518985D+06 0.10681936D+01  1  2  3  3  6  5        1 0.166742610641D-05 0.100000000000D+01
-.131157452572D-04 0.000000000000D+00 0.000000000000D+00 0.540030426770D-06 0.000000000000D+00  6 1 1 25 1 1 21 2 0.14749513D+00 0.30165781D+00 0.50518985D+06 0.50518985D+06 0.50518985D+06 0.10681936D+01  1  2 15  3  6  5        1 -.982281047815D-05 0.100000000000D+01
0.857645231583D-09 0.000000000000D+00 0.000000000000D+00 0.540030426770D-06 0.000000000000D+00  6 1 1 25 1 1 21 2 0.14749513D+00 0.30165781D+00 0.50871510D+06 0.50871510D+06 0.50871510D+06 0.10679804D+01  1  2 12  3  6  5        1 0.641727002832D-09 0.100000000000D+01
0.524270306681D-03 0.000000000000D+00 0.000000000000D+00 0.540030426770D-06 0.000000000000D+00  6 1 1 25 1 1 21 2 0.14749513D+00 0.30165781D+00 0.50871510D+06 0.50871510D+06 0.50871510D+06 0.10679804D+01  1  2 12  3  6  5        1 0.392281563741D-03 0.100000000000D+01
-.122482013608D-02 0.000000000000D+00 0.000000000000D+00 0.540030426770D-06 0.000000000000D+00  6 1 1 25 1 1 21 2 0.14749513D+00 0.30165781D+00 0.50518985D+06 0.50518985D+06 0.50518985D+06 0.10681936D+01  1  2  4  3  6  5        1 -.917307848742D-03 0.100000000000D+01
-.594553104142D-03 0.000000000000D+00 0.000000000000D+00 0.540030426770D-06 0.000000000000D+00  6 1 1 25 1 1 21 2 0.14749513D+00 0.30165781D+00 0.50518985D+06 0.50518985D+06 0.50518985D+06 0.10681936D+01  1  2  5  3  6  5        1 -.445280260225D-03 0.100000000000D+01
0.831066414649D-03 0.000000000000D+00 -.000000000000D+00 0.540030426770D-06 0.000000000000D+00  6 1 1 25 1 1 21 2 0.14749513D+00 0.30165781D+00 0.50518985D+06 0.50518985D+06 0.50518985D+06 0.10681936D+01  1  2  6  3  6  5        1 0.622412811910D-03 0.100000000000D+01
  </mgrwgt>
  </event>
  <event>
  5     66 -.18540751E-05 0.26202721E+03 0.75467711E-02 0.93872275E-01
        1 -1    0    0  502    0 0.00000000E+00 0.00000000E+00 0.39548945E+03 0.39548958E+03 0.32000000E+00 0.0000E+00 0.9000E+01
        1 -1    0    0  501    0 0.00000000E+00 0.00000000E+00 -.23162289E+04 0.23162290E+04 0.32000000E+00 0.0000E+00 0.9000E+01
       25  1    1    2    0    0 -.44068446E+03 0.18778437E+03 -.20751744E+03 0.53680001E+03 0.12500000E+03 0.0000E+00 0.9000E+01
        1  1    1    2  501    0 0.26623067E+03 0.52175585E+02 -.18344722E+04 0.18544242E+04 0.32000000E+00 0.0000E+00 0.9000E+01
        1  1    1    2  502    0 0.17445379E+03 -.23995996E+03 0.12125010E+03 0.32049430E+03 0.32000000E+00 0.0000E+00 0.9000E+01
#aMCatNLO 1  0  0  2  4 0.87463590D+01 0.00000000D+00  -5  6  0 0.00000000D+00 0.00000000D+00 0.00000000D+00 0.00000000D+00 0.00000000D+00
  <mgrwgt>
 -.9246616415D-03   13    2    0
 0.957102035107956D+03 0.000000000000000D+00 0.000000000000000D+00 0.957102035107956D+03
 0.957102035107956D+03 0.000000000000000D+00 0.000000000000000D+00 -.957102035107956D+03
 0.552275622038444D+03 -.440694074133046D+03 0.187733651432824D+03 0.244802311757195D+03
 0.786356728094998D+03 0.266274841085244D+03 0.521787780241758D+02 -.738059610024287D+03
 0.575571720082471D+03 0.174419233047801D+03 -.239912429456999D+03 0.493257298267092D+03
 0.000000000000000D+00 0.000000000000000D+00 -.000000000000000D+00 -.000000000000000D+00
 0.957455275674177D+03 0.000000000000000D+00 0.000000000000000D+00 0.957455275674177D+03
 0.101282860882129D+04 0.000000000000000D+00 0.000000000000000D+00 -.101282860882129D+04
 0.554391272064722D+03 -.442672792981069D+03 0.189307445849902D+03 0.244802311757195D+03
 0.785561141553311D+03 0.263464254148207D+03 0.544142072943018D+02 -.738059610024287D+03
 0.574271638374726D+03 0.172363314742323D+03 -.238277233656261D+03 0.493257298267092D+03
 0.560598325027096D+02 0.684522409053815D+01 -.544441948794285D+01 -.553733331471159D+02
0.101040522676D-04 0.000000000000D+00 0.000000000000D+00 0.494403318778D-06 0.000000000000D+00  6 1 1 25 1 1 21 0 0.60844542D-01 0.35634293D+00 0.28249712D+06 0.28249712D+06 0.28249712D+06 0.10864887D+01  1  2  2  2  6  2        1 0.149946933745D-04 0.100000000000D+01
0.718002865747D-06 0.000000000000D+00 -.388022211655D-07 0.494403318778D-06 0.000000000000D+00  6 1 1 25 1 1 21 2 0.60844542D-01 0.35634293D+00 0.28249712D+06 0.28249712D+06 0.28249712D+06 0.10864887D+01  1  2  3  2  6  2        1 0.125782031621D-05 0.100000000000D+01
-.641472200620D-05 0.000000000000D+00 0.000000000000D+00 0.494403318778D-06 0.000000000000D+00  6 1 1 25 1 1 21 2 0.60844542D-01 0.35634293D+00 0.28249712D+06 0.28249712D+06 0.28249712D+06 0.10864887D+01  1  2 15  2  6  2        1 -.112375145659D-04 0.100000000000D+01
0.103301491293D-07 0.000000000000D+00 0.000000000000D+00 0.494403318778D-06 0.000000000000D+00  6 1 1 25 1 1 21 2 0.60844542D-01 0.37720786D+00 0.28583433D+06 0.28583433D+06 0.28583433D+06 0.10861095D+01  1  2 12  2  6  2        1 0.145935286149D-07 0.100000000000D+01
0.125797706761D-02 0.000000000000D+00 0.000000000000D+00 0.494403318778D-06 0.000000000000D+00  6 1 1 25 1 1 21 2 0.60844542D-01 0.37974802D+00 0.28583433D+06 0.28583433D+06 0.28583433D+06 0.10861095D+01  1  2 12  2  6  2        1 0.173117173272D-02 0.100000000000D+01
-.181751680983D-02 0.000000000000D+00 0.000000000000D+00 0.494403318778D-06 0.000000000000D+00  6 1 1 25 1 1 21 2 0.60844542D-01 0.35634293D+00 0.28249712D+06 0.28249712D+06 0.28249712D+06 0.10864887D+01  1  2  4  2  6  2        1 -.318398390523D-02 0.100000000000D+01
-.155806169199D-02 0.000000000000D+00 -.303404665395D-04 0.494403318778D-06 0.000000000000D+00  6 1 1 25 1 1 21 2 0.60844542D-01 0.37713303D+00 0.28249712D+06 0.28249712D+06 0.28249712D+06 0.10864887D+01  1  2  5  2  6  2        1 -.220614153500D-02 0.100000000000D+01
0.155732646442D-02 0.000000000000D+00 0.302917535324D-04 0.494403318778D-06 0.000000000000D+00  6 1 1 25 1 1 21 2 0.60844542D-01 0.35634293D+00 0.28249712D+06 0.28249712D+06 0.28249712D+06 0.10864887D+01  1  2  6  2  6  2        1 0.272817416109D-02 0.100000000000D+01
0.162422030729D-05 0.000000000000D+00 0.000000000000D+00 0.494403318778D-06 0.668538242617D-07  6 1 1 25 1 1 21 2 0.60866998D-01 0.37709073D+00 0.28583433D+06 0.28583433D+06 0.28583433D+06 0.10861095D+01  1  2 11  2  6  2        1 0.229618005338D-05 0.100000000000D+01
0.167272949333D-09 0.000000000000D+00 0.000000000000D+00 0.494403318778D-06 0.000000000000D+00  6 1 21 25 1 1 -1 2 0.60844542D-01 0.37720786D+00 0.28583433D+06 0.28583433D+06 0.28583433D+06 0.10861095D+01  1  2 12  5  6  2        1 0.834968673478D-10 0.100000000000D+01
0.225560627908D-04 0.000000000000D+00 0.000000000000D+00 0.494403318778D-06 0.000000000000D+00  6 1 21 25 1 1 -1 2 0.60844542D-01 0.37974802D+00 0.28583433D+06 0.28583433D+06 0.28583433D+06 0.10861095D+01  1  2 12  5  6  2        1 0.108242765403D-04 0.100000000000D+01
-.240380048860D-04 0.000000000000D+00 -.296850027350D-06 0.494403318778D-06 0.000000000000D+00  6 1 21 25 1 1 -1 2 0.60844542D-01 0.37713303D+00 0.28249712D+06 0.28249712D+06 0.28249712D+06 0.10864887D+01  1  2  5  5  6  2        1 -.120385454507D-04 0.100000000000D+01
0.126397631541D-07 0.000000000000D+00 0.000000000000D+00 0.494403318778D-06 0.409606942792D-09  6 1 21 25 1 1 -1 2 0.60866998D-01 0.37709073D+00 0.28583433D+06 0.28583433D+06 0.28583433D+06 0.10861095D+01  1  2 11  5  6  2        1 0.631763231051D-08 0.100000000000D+01
  </mgrwgt>
  </event>
  <event>
  6     66 0.18540751E-05 0.55914369E+02 0.75467711E-02 0.92285396E-01
        1 -1    0    0  502    0 0.00000000E+00 0.00000000E+00 0.37098637E+03 0.37098651E+03 0.32000000E+00 0.0000E+00 0.9000E+01
        1 -1    0    0  503    0 0.00000000E+00 0.00000000E+00 -.22004356E+04 0.22004356E+04 0.32000000E+00 0.0000E+00 0.9000E+01
       25  1    1    2    0    0 0.50484613E+03 -.22102945E+03 -.31309976E+03 0.64604960E+03 0.12500000E+03 0.0000E+00 0.9000E+01
        1  1    1    2  501    0 -.48224589E+03 0.20417018E+03 -.11350149E+04 0.12500022E+04 0.32000000E+00 0.0000E+00 0.9000E+01
        1  1    1    2  502    0 0.51164399E+02 -.30074141E+02 0.13721561E+03 0.14950076E+03 0.32000000E+00 0.0000E+00 0.9000E+01
       21  1    1    2  503  501 -.73764634E+02 0.46933406E+02 -.51855019E+03 0.52586959E+03 0.75000000E+00 0.0000E+00 0.9000E+01
#aMCatNLO 2  0  0  2  4 0.18681860D+02 0.00000000D+00  -5  6  0 0.00000000D+00 0.00000000D+00 0.00000000D+00 0.00000000D+00 0.00000000D+00
  <mgrwgt>
 0.1280863613D-02    1    2    0
 0.783929995540812D+03 0.000000000000000D+00 0.000000000000000D+00 0.783929995540812D+03
 0.783929995540812D+03 0.000000000000000D+00 0.000000000000000D+00 -.783929995540812D+03
 0.550879666010754D+03 0.478377760254648D+03 -.204167575946189D+03 0.131581631887290D+03
 0.710694592107030D+03 -.515046090319341D+03 0.225019952875391D+03 -.434948673874165D+03
 0.306285732963841D+03 0.366683300646929D+02 -.208523769292014D+02 0.303367041986875D+03
 0.000000000000000D+00 -.000000000000000D+00 0.000000000000000D+00 -.000000000000000D+00
 0.792969831398654D+03 0.000000000000000D+00 0.000000000000000D+00 0.792969831398654D+03
 0.102945995986294D+04 0.000000000000000D+00 0.000000000000000D+00 -.102945995986294D+04
 0.580353905468709D+03 0.504968227902303D+03 -.221085998090941D+03 0.131581631887290D+03
 0.680830944168656D+03 -.482337270773938D+03 0.204208674779105D+03 -.434948673874165D+03
 0.309110956076237D+03 0.511336767118873D+02 -.300560827191967D+02 0.303367041986875D+03
 0.252133985547988D+03 -.737646338402532D+02 0.469334060310333D+02 -.236490128464282D+03
0.580887365683D-03 0.000000000000D+00 0.000000000000D+00 0.136115209167D-05 0.164088883502D-08  6 1 1 25 1 1 21 2 0.57074799D-01 0.33852833D+00 0.38178063D+06 0.38178063D+06 0.38178063D+06 0.10768902D+01  1  2  1  2  6  2        1 0.128086361281D-02 0.100000000000D+01
  </mgrwgt>
  </event>
  <event>
  5     66 0.18540751E-05 0.50768013E+02 0.75467711E-02 0.84873684E-01
        1 -1    0    0  502    0 0.00000000E+00 0.00000000E+00 0.48259824E+03 0.48259835E+03 0.32000000E+00 0.0000E+00 0.9000E+01
        1 -1    0    0  501    0 0.00000000E+00 0.00000000E+00 -.20162939E+04 0.20162939E+04 0.32000000E+00 0.0000E+00 0.9000E+01
       25  1    1    2    0    0 0.42973050E+03 0.26775162E+03 -.67819940E+03 0.85553413E+03 0.12500000E+03 0.0000E+00 0.9000E+01
        1  1    1    2  501    0 -.38425212E+01 -.50618011E+02 -.11035983E+04 0.11047653E+04 0.32000000E+00 0.0000E+00 0.9000E+01
        1  1    1    2  502    0 -.42588797E+03 -.21713361E+03 0.24810205E+03 0.53859289E+03 0.32000000E+00 0.0000E+00 0.9000E+01
#aMCatNLO 1  0  0  1  5 0.62258603D+00 0.00000000D+00  -5  6  0 0.00000000D+00 0.00000000D+00 0.00000000D+00 0.00000000D+00 0.00000000D+00
  <mgrwgt>
 0.3190121265D-02    5    2    0
 0.986438072393039D+03 0.000000000000000D+00 0.000000000000000D+00 0.986438072393039D+03
 0.986438072393039D+03 0.000000000000000D+00 0.000000000000000D+00 -.986438072393039D+03
 0.556388759655771D+03 0.429722965834416D+03 0.267751757755320D+03 -.193883007828684D+03
 0.541437394375685D+03 -.384320328783951D+01 -.506223365692378D+02 -.539052001997108D+03
 0.875049990754623D+03 -.425879762546576D+03 -.217129421186082D+03 0.732935009825792D+03
 0.000000000000000D+00 -.000000000000000D+00 0.000000000000000D+00 0.000000000000000D+00
 0.355370643228818D+04 0.000000000000000D+00 0.000000000000000D+00 0.355370643228818D+04
 0.127870510837254D+04 0.000000000000000D+00 0.000000000000000D+00 -.127870510837254D+04
 0.862718535762519D+03 0.806955544196181D+03 0.199725814341992D+03 -.193883007828684D+03
 0.629693281029538D+03 0.307471272867713D+03 -.106761339808768D+03 -.539052001997108D+03
 0.791004068989642D+03 0.169971578078950D+02 -.296992937889590D+03 0.732935009825792D+03
 0.254899565487902D+04 -.113142397487179D+04 0.204028463356366D+03 0.227500132391564D+04
0.258385745883D-02 0.000000000000D+00 0.000000000000D+00 0.113228421632D-04 0.000000000000D+00  6 1 1 25 1 1 21 0 0.74245894D-01 0.31019908D+00 0.27579266D+06 0.27579266D+06 0.27579266D+06 0.10872655D+01  1  2  2  1  6  1        1 0.464811341131D-02 0.100000000000D+01
0.964377118619D-03 0.000000000000D+00 -.992269298719D-05 0.113228421632D-04 0.000000000000D+00  6 1 1 25 1 1 21 2 0.74245894D-01 0.31019908D+00 0.27579266D+06 0.27579266D+06 0.27579266D+06 0.10872655D+01  1  2  3  1  6  1        1 0.205081417766D-02 0.100000000000D+01
-.159698099674D-02 0.000000000000D+00 0.000000000000D+00 0.113228421632D-04 0.000000000000D+00  6 1 1 25 1 1 21 2 0.74245894D-01 0.31019908D+00 0.27579266D+06 0.27579266D+06 0.27579266D+06 0.10872655D+01  1  2 15  1  6  1        1 -.339608977271D-02 0.100000000000D+01
-.659324254418D-03 0.000000000000D+00 -.175352564135D-02 0.113228421632D-04 0.000000000000D+00  6 1 1 25 1 1 21 2 0.29659471D+00 0.31019908D+00 0.27579266D+06 0.27579266D+06 0.27579266D+06 0.10872655D+01  1  2  5  1  6  1        1 -.105171033207D-03 0.100000000000D+01
-.881017088781D-04 0.000000000000D+00 -.289781852070D-03 0.113228421632D-04 0.000000000000D+00  6 21 1 25 1 1 -1 2 0.29659471D+00 0.31019908D+00 0.27579266D+06 0.27579266D+06 0.27579266D+06 0.10872655D+01  1  2  5  4  6  1        1 -.754551797097D-05 0.100000000000D+01
  </mgrwgt>
  </event>
  <event>
  5     66 0.18540751E-05 0.38035064E+02 0.75467711E-02 0.89672993E-01
        1 -1    0    0  502    0 0.00000000E+00 0.00000000E+00 0.18958631E+04 0.18958632E+04 0.32000000E+00 0.0000E+00 0.9000E+01
        1 -1    0    0  501    0 0.00000000E+00 0.00000000E+00 -.17080299E+04 0.17080300E+04 0.32000000E+00 0.0000E+00 0.9000E+01
       25  1    1    2    0    0 0.53139570E+03 0.54376787E+03 -.51750292E+02 0.77224865E+03 0.12500000E+03 0.0000E+00 0.9000E+01
        1  1    1    2  501    0 -.36961455E+02 -.89614183E+01 -.12093513E+04 0.12099492E+04 0.32000000E+00 0.0000E+00 0.9000E+01
        1  1    1    2  502    0 -.49443424E+03 -.53480645E+03 0.14489348E+04 0.16216952E+04 0.32000000E+00 0.0000E+00 0.9000E+01
#aMCatNLO 1  0  0  2  1 0.59566356D+02 0.00000000D+00  -5  6  0 0.00000000D+00 0.00000000D+00 0.00000000D+00 0.00000000D+00 0.00000000D+00
  <mgrwgt>
 0.1712428052D-02    7    2    0
 0.179949744570087D+04 0.000000000000000D+00 0.000000000000000D+00 0.179949744570087D+04
 0.179949744570087D+04 0.000000000000000D+00 0.000000000000000D+00 -.179949744570087D+04
 0.775976211475038D+03 0.531387272026712D+03 0.543756571062520D+03 -.920349897022455D+02
 0.127477169409152D+04 -.369641244930086D+02 -.896212071656919D+01 -.127420414610442D+04
 0.154824698583518D+04 -.494423147533703D+03 -.534794450345951D+03 0.136623913580667D+04
 0.000000000000000D+00 -.000000000000000D+00 0.000000000000000D+00 -.000000000000000D+00
 0.180101644260538D+04 0.000000000000000D+00 0.000000000000000D+00 0.180101644260538D+04
 0.249680158727629D+04 0.000000000000000D+00 0.000000000000000D+00 -.249680158727629D+04
 0.778216014287217D+03 0.541976039030188D+03 0.536457546019009D+03 -.920349897022455D+02
 0.127452675517229D+04 -.195956633373506D+02 -.209345092770864D+02 -.127420414610442D+04
 0.154674502453848D+04 -.473336856705428D+03 -.549329604890367D+03 0.136623913580667D+04
 0.698330235883688D+03 -.490435189874088D+02 0.338065681484444D+02 -.695785144670913D+03
0.898689647744D-04 0.000000000000D+00 0.000000000000D+00 0.485785256046D-04 0.000000000000D+00  6 1 1 25 1 1 21 0 0.29167126D+00 0.26277384D+00 0.59048499D+06 0.59048499D+06 0.59048499D+06 0.10634421D+01  1  2  2  2  6  2        1 0.190153359632D-04 0.100000000000D+01
0.646296026289D-04 0.000000000000D+00 -.345120487775D-06 0.485785256046D-04 0.000000000000D+00  6 1 1 25 1 1 21 2 0.29167126D+00 0.26277384D+00 0.59048499D+06 0.59048499D+06 0.59048499D+06 0.10634421D+01  1  2  3  2  6  2        1 0.154651251679D-04 0.100000000000D+01
-.621018769121D-04 0.000000000000D+00 0.000000000000D+00 0.485785256046D-04 0.000000000000D+00  6 1 1 25 1 1 21 2 0.29167126D+00 0.26277384D+00 0.59048499D+06 0.59048499D+06 0.59048499D+06 0.10634421D+01  1  2 15  2  6  2        1 -.148602692968D-04 0.100000000000D+01
-.393088565094D-03 0.000000000000D+00 0.000000000000D+00 0.485785256046D-04 0.000000000000D+00  6 1 1 25 1 1 21 2 0.29167126D+00 0.26277384D+00 0.59048499D+06 0.59048499D+06 0.59048499D+06 0.10634421D+01  1  2  4  2  6  2        1 -.940616004737D-04 0.100000000000D+01
-.126963283888D-01 0.000000000000D+00 -.641760834921D-04 0.485785256046D-04 0.000000000000D+00  6 1 1 25 1 1 21 2 0.29167126D+00 0.36468067D+00 0.59048499D+06 0.59048499D+06 0.59048499D+06 0.10634421D+01  1  2  5  2  6  2        1 -.108438150537D-02 0.100000000000D+01
0.120668149582D-01 0.000000000000D+00 0.608774200586D-04 0.485785256046D-04 0.000000000000D+00  6 1 1 25 1 1 21 2 0.29167126D+00 0.26277384D+00 0.59048499D+06 0.59048499D+06 0.59048499D+06 0.10634421D+01  1  2  6  2  6  2        1 0.288745089117D-02 0.100000000000D+01
-.521436180009D-03 0.000000000000D+00 -.264402536042D-05 0.485785256046D-04 0.000000000000D+00  6 1 21 25 1 1 -1 2 0.29167126D+00 0.36468067D+00 0.59048499D+06 0.59048499D+06 0.59048499D+06 0.10634421D+01  1  2  5  5  6  2        1 -.161999249719D-04 0.100000000000D+01
  </mgrwgt>
  </event>
  <event>
  5     66 -.18540751E-05 0.26258837E+02 0.75467711E-02 0.95275604E-01
        1 -1    0    0  502    0 0.00000000E+00 0.00000000E+00 0.28144797E+03 0.28144815E+03 0.32000000E+00 0.0000E+00 0.9000E+01
        1 -1    0    0  501    0 -.00000000E+00 -.00000000E+00 -.16414505E+04 0.16414506E+04 0.32000000E+00 0.0000E+00 0.9000E+01
       25  1    1    2    0    0 -.35788937E+03 0.29010223E+03 -.48711102E+03 0.68201631E+03 0.12500000E+03 0.0000E+00 0.9000E+01
        1  1    1    2  501    0 0.26244428E+02 0.73890375E+00 -.79197888E+03 0.79241401E+03 0.32000000E+00 0.0000E+00 0.9000E+01
        1  1    1    2  502    0 0.33164495E+03 -.29084113E+03 -.80912665E+02 0.44846839E+03 0.32000000E+00 0.0000E+00 0.9000E+01
#aMCatNLO 1  0  0  5  1 0.12148235D+03 0.00000000D+00  -5  6  0 0.00000000D+00 0.00000000D+00 0.00000000D+00 0.00000000D+00 0.00000000D+00
  <mgrwgt>
 -.1830621114D-02    1    2    0
 0.679693403052213D+03 0.000000000000000D+00 0.000000000000000D+00 0.679693403052213D+03
 0.679693403052213D+03 -.000000000000000D+00 -.000000000000000D+00 -.679693403052213D+03
 0.477380181866931D+03 -.357873621083152D+03 0.290084999346803D+03 -.663343999000971D+01
 0.328615282327548D+03 0.262484420237337D+02 0.738795628988339D+00 -.327564462742159D+03
 0.553391341909948D+03 0.331625179059419D+03 -.290823794975792D+03 0.334197902732169D+03
 0.000000000000000D+00 0.000000000000000D+00 0.000000000000000D+00 -.000000000000000D+00
 0.679693403052213D+03 0.000000000000000D+00 0.000000000000000D+00 0.679693403052213D+03
 0.679693403052213D+03 -.000000000000000D+00 -.000000000000000D+00 -.679693403052213D+03
 0.459511065080991D+03 -.343911098354458D+03 0.277840350557131D+03 0.743740295989757D+01
 0.319940293657940D+03 0.359138882535055D+02 -.773746591619740D+01 -.317824032693627D+03
 0.545220340950873D+03 0.315109993088190D+03 -.287525548281697D+03 0.339558495001754D+03
 0.347151064146220D+02 -.711278298723710D+01 0.174226636407636D+02 -.291718652680251D+02
-.229044070017D-03 0.000000000000D+00 0.000000000000D+00 0.282306727512D-05 0.000000000000D+00  6 1 1 25 1 1 21 2 0.43299704D-01 0.25253087D+00 0.22310290D+06 0.22310290D+06 0.22310290D+06 0.10941977D+01  1  2 14  3  6  5        1 -.183062111354D-02 0.100000000000D+01
  </mgrwgt>
  </event>
  <event>
  5     66 -.18540751E-05 0.12994720E+03 0.75467711E-02 0.92215188E-01
        1 -1    0    0  502    0 0.00000000E+00 0.00000000E+00 0.11094308E+04 0.11094308E+04 0.32000000E+00 0.0000E+00 0.9000E+01
        1 -1    0    0  501    0 0.00000000E+00 0.00000000E+00 -.88817013E+03 0.88817019E+03 0.32000000E+00 0.0000E+00 0.9000E+01
       25  1    1    2    0    0 -.57112566E+03 0.13512699E+03 0.15878670E+02 0.60026740E+03 0.12500000E+03 0.0000E+00 0.9000E+01
        1  1    1    2  501    0 0.11321664E+03 0.63747874E+02 -.50926652E+03 0.52557996E+03 0.32000000E+00 0.0000E+00 0.9000E+01
        1  1    1    2  502    0 0.45790901E+03 -.19887486E+03 0.71464849E+03 0.87175366E+03 0.32000000E+00 0.0000E+00 0.9000E+01
#aMCatNLO 1  0  0  2  4 0.21782604D+02 0.00000000D+00  -5  6  0 0.00000000D+00 0.00000000D+00 0.00000000D+00 0.00000000D+00 0.00000000D+00
  <mgrwgt>
 -.1101138303D-02   11    2    0
 0.992654717423896D+03 0.000000000000000D+00 0.000000000000000D+00 0.992654717423896D+03
 0.992654717423896D+03 0.000000000000000D+00 0.000000000000000D+00 -.992654717423896D+03
 0.602191758271098D+03 -.571115392853670D+03 0.135108770612414D+03 -.508206835730932D+02
 0.585659226145935D+03 0.113232553619023D+03 0.637547214724057D+02 -.571060814152702D+03
 0.797458450430760D+03 0.457882839234647D+03 -.198863492084820D+03 0.621881497725795D+03
 0.000000000000000D+00 0.000000000000000D+00 -.000000000000000D+00 -.000000000000000D+00
 0.993315111606688D+03 0.000000000000000D+00 0.000000000000000D+00 0.993315111606688D+03
 0.119020230579342D+04 0.000000000000000D+00 0.000000000000000D+00 -.119020230579342D+04
 0.608573764099047D+03 -.577744726748603D+03 0.135518689430751D+03 -.508206835730932D+02
 0.584497640518760D+03 0.106825565283757D+03 0.641508917557428D+02 -.571060814152702D+03
 0.792357524837305D+03 0.449178081181313D+03 -.198325241305528D+03 0.621881497725795D+03
 0.198088487944994D+03 0.217410802835335D+02 -.134433988096602D+01 -.196887194186731D+03
0.690803883355D-05 0.000000000000D+00 0.000000000000D+00 0.838835331101D-06 0.000000000000D+00  6 1 1 25 1 1 21 0 0.17068167D+00 0.13664157D+00 0.37772912D+06 0.37772912D+06 0.37772912D+06 0.10772258D+01  1  2  2  2  6  2        1 0.201142760998D-04 0.100000000000D+01
0.121176561886D-05 0.000000000000D+00 -.265286880492D-07 0.838835331101D-06 0.000000000000D+00  6 1 1 25 1 1 21 2 0.17068167D+00 0.13664157D+00 0.37772912D+06 0.37772912D+06 0.37772912D+06 0.10772258D+01  1  2  3  2  6  2        1 0.409431950807D-05 0.100000000000D+01
-.493543700509D-05 0.000000000000D+00 0.000000000000D+00 0.838835331101D-06 0.000000000000D+00  6 1 1 25 1 1 21 2 0.17068167D+00 0.13664157D+00 0.37772912D+06 0.37772912D+06 0.37772912D+06 0.10772258D+01  1  2 15  2  6  2        1 -.166758783186D-04 0.100000000000D+01
0.506996232629D-08 0.000000000000D+00 0.000000000000D+00 0.838835331101D-06 0.000000000000D+00  6 1 1 25 1 1 21 2 0.17068167D+00 0.16389396D+00 0.38679152D+06 0.38679152D+06 0.38679152D+06 0.10764805D+01  1  2 12  2  6  2        1 0.124303025129D-07 0.100000000000D+01
0.101461792173D-02 0.000000000000D+00 0.000000000000D+00 0.838835331101D-06 0.000000000000D+00  6 1 1 25 1 1 21 2 0.17068167D+00 0.17030893D+00 0.38679152D+06 0.38679152D+06 0.38679152D+06 0.10764805D+01  1  2 12  2  6  2        1 0.231672209112D-02 0.100000000000D+01
-.134364309194D-02 0.000000000000D+00 0.000000000000D+00 0.838835331101D-06 0.000000000000D+00  6 1 1 25 1 1 21 2 0.17068167D+00 0.13664157D+00 0.37772912D+06 0.37772912D+06 0.37772912D+06 0.10772258D+01  1  2  4  2  6  2        1 -.453990774912D-02 0.100000000000D+01
-.130616372448D-02 0.000000000000D+00 -.936719270372D-05 0.838835331101D-06 0.000000000000D+00  6 1 1 25 1 1 21 2 0.17068167D+00 0.16387628D+00 0.37772912D+06 0.37772912D+06 0.37772912D+06 0.10772258D+01  1  2  5  2  6  2        1 -.321204292544D-02 0.100000000000D+01
0.128670817689D-02 0.000000000000D+00 0.921457945994D-05 0.838835331101D-06 0.000000000000D+00  6 1 1 25 1 1 21 2 0.17068167D+00 0.13664157D+00 0.37772912D+06 0.37772912D+06 0.37772912D+06 0.10772258D+01  1  2  6  2  6  2        1 0.434753578399D-02 0.100000000000D+01
0.134792551613D-09 0.000000000000D+00 0.000000000000D+00 0.838835331101D-06 0.000000000000D+00  6 1 21 25 1 1 -1 2 0.17068167D+00 0.16389396D+00 0.38679152D+06 0.38679152D+06 0.38679152D+06 0.10764805D+01  1  2 12  5  6  2        1 0.400760542312D-09 0.100000000000D+01
0.312440314260D-04 0.000000000000D+00 0.000000000000D+00 0.838835331101D-06 0.000000000000D+00  6 1 21 25 1 1 -1 2 0.17068167D+00 0.17030893D+00 0.38679152D+06 0.38679152D+06 0.38679152D+06 0.10764805D+01  1  2 12  5  6  2        1 0.823561410591D-04 0.100000000000D+01
-.346188490629D-04 0.000000000000D+00 -.248925474495D-06 0.838835331101D-06 0.000000000000D+00  6 1 21 25 1 1 -1 2 0.17068167D+00 0.16387628D+00 0.37772912D+06 0.37772912D+06 0.37772912D+06 0.10772258D+01  1  2  5  5  6  2        1 -.103347193253D-03 0.100000000000D+01
  </mgrwgt>
  </event>
  <event>
  6     66 0.18540751E-05 0.39881030E+02 0.75467711E-02 0.92135688E-01
        1 -1    0    0  503    0 0.00000000E+00 0.00000000E+00 0.16537124E+04 0.16537125E+04 0.32000000E+00 0.0000E+00 0.9000E+01
        1 -1    0    0  501    0 0.00000000E+00 0.00000000E+00 -.79037990E+03 0.79037996E+03 0.32000000E+00 0.0000E+00 0.9000E+01
       25  1    1    2    0    0 -.94639001E+02 0.56438732E+03 -.20149994E+03 0.61944880E+03 0.12500000E+03 0.0000E+00 0.9000E+01
        1  1    1    2  501    0 -.27930659E+01 0.47226874E+02 -.30904885E+03 0.31264912E+03 0.32000000E+00 0.0000E+00 0.9000E+01
        1  1    1    2  502    0 0.99550092E+02 -.59691334E+03 0.12672197E+04 0.14043011E+04 0.32000000E+00 0.0000E+00 0.9000E+01
       21  1    1    2  503  502 -.21180249E+01 -.14700847E+02 0.10666168E+03 0.10769344E+03 0.75000000E+00 0.0000E+00 0.9000E+01
#aMCatNLO 2  0  0  1  5 0.14852641D+02 0.00000000D+00  -5  6  0 0.00000000D+00 0.00000000D+00 0.00000000D+00 0.00000000D+00 0.00000000D+00
  <mgrwgt>
 0.6050206210D-02    6    2    0
 0.110521365169813D+04 0.000000000000000D+00 0.000000000000000D+00 0.110521365169813D+04
 0.110521365169813D+04 0.000000000000000D+00 0.000000000000000D+00 -.110521365169813D+04
 0.720082239265456D+03 -.953311934946576D+02 0.559590309749454D+03 -.425045974086272D+03
 0.435928277351675D+03 -.321078204595835D+01 0.443246436365092D+02 -.433657099376857D+03
 0.105441678677914D+04 0.985419755406160D+02 -.603914953385963D+03 0.858703073463129D+03
 0.000000000000000D+00 -.000000000000000D+00 -.000000000000000D+00 0.000000000000000D+00
 0.118183161585433D+04 0.000000000000000D+00 0.000000000000000D+00 0.118183161585433D+04
 0.110595864409207D+04 0.000000000000000D+00 0.000000000000000D+00 -.110595864409207D+04
 0.723728805554655D+03 -.946394735624065D+02 0.564391419093567D+03 -.425045974086272D+03
 0.436229830772006D+03 -.279293710036940D+01 0.472248336977222D+02 -.433657099376857D+03
 0.105051856657441D+04 0.995504355778476D+02 -.596915405328759D+03 0.858703073463129D+03
 0.773130570453242D+02 -.211802491507170D+01 -.147008474625303D+02 0.758729717622561D+02
-.302110496538D-08 0.000000000000D+00 0.000000000000D+00 0.581420593086D-05 0.000000000000D+00  6 1 1 25 1 1 21 2 0.25462164D+00 0.12151481D+00 0.39255461D+06 0.39255461D+06 0.39255461D+06 0.10760164D+01  1  2 13  1  6  1        1 -.516289110250D-08 0.100000000000D+01
-.591470982265D-02 0.000000000000D+00 0.000000000000D+00 0.581420593086D-05 0.000000000000D+00  6 1 1 25 1 1 21 2 0.25534374D+00 0.12151481D+00 0.39255461D+06 0.39255461D+06 0.39255461D+06 0.10760164D+01  1  2 13  1  6  1        1 -.100350955179D-01 0.100000000000D+01
-.312790505329D-02 0.000000000000D+00 0.000000000000D+00 0.581420593086D-05 0.000000000000D+00  6 1 1 25 1 1 21 2 0.23792308D+00 0.12151481D+00 0.38291032D+06 0.38291032D+06 0.38291032D+06 0.10767973D+01  1  2  8  1  6  1        1 -.634030022840D-02 0.100000000000D+01
-.162811458936D-02 0.000000000000D+00 0.000000000000D+00 0.581420593086D-05 0.000000000000D+00  6 1 1 25 1 1 21 2 0.25447932D+00 0.12151481D+00 0.38291032D+06 0.38291032D+06 0.38291032D+06 0.10767973D+01  1  2  9  1  6  1        1 -.279492127348D-02 0.100000000000D+01
0.162443747189D-02 0.000000000000D+00 0.000000000000D+00 0.581420593086D-05 0.000000000000D+00  6 1 1 25 1 1 21 2 0.23792308D+00 0.12151481D+00 0.38291032D+06 0.38291032D+06 0.38291032D+06 0.10767973D+01  1  2 10  1  6  1        1 0.329275380761D-02 0.100000000000D+01
0.128187108522D-01 0.000000000000D+00 0.000000000000D+00 0.581420593086D-05 0.290327539116D-06  6 1 1 25 1 1 21 2 0.25441689D+00 0.12159671D+00 0.39255461D+06 0.39255461D+06 0.39255461D+06 0.10760164D+01  1  2  1  1  6  1        1 0.219277745848D-01 0.100000000000D+01
  </mgrwgt>
  </event>
  <event>
  5     66 -.18540751E-05 0.46360000E+02 0.75467711E-02 0.93934242E-01
        1 -1    0    0  502    0 0.00000000E+00 0.00000000E+00 0.86416563E+03 0.86416569E+03 0.32000000E+00 0.0000E+00 0.9000E+01
        1 -1    0    0  501    0 0.00000000E+00 0.00000000E+00 -.68488921E+03 0.68488928E+03 0.32000000E+00 0.0000E+00 0.9000E+01
       25  1    1    2    0    0 -.49139929E+03 0.15011995E+03 0.84799665E+02 0.53556069E+03 0.12500000E+03 0.0000E+00 0.9000E+01
        1  1    1    2  501    0 0.45432578E+03 -.17798548E+03 -.32834676E+03 0.58813472E+03 0.32000000E+00 0.0000E+00 0.9000E+01
        1  1    1    2  502    0 0.37073513E+02 0.27865536E+02 0.42282352E+03 0.42535957E+03 0.32000000E+00 0.0000E+00 0.9000E+01
#aMCatNLO 1  0  0  5  1 0.13567412D+01 0.00000000D+00  -5  6  0 0.00000000D+00 0.00000000D+00 0.00000000D+00 0.00000000D+00 0.00000000D+00
  <mgrwgt>
 -.2578793239D-02    9    2    0
 0.769322961673286D+03 0.000000000000000D+00 0.000000000000000D+00 0.769322961673286D+03
 0.769322961673286D+03 -.000000000000000D+00 -.000000000000000D+00 -.769322961673286D+03
 0.529394725375160D+03 -.491479853779221D+03 0.150160820740882D+03 0.230880163422788D+02
 0.630428116389969D+03 0.454420854763336D+03 -.178015447407032D+03 -.399063650531638D+03
 0.378823081581443D+03 0.370589990158849D+02 0.278546266661498D+02 0.375975634189359D+03
 0.000000000000000D+00 0.000000000000000D+00 0.000000000000000D+00 0.000000000000000D+00
 0.769322961673286D+03 0.000000000000000D+00 0.000000000000000D+00 0.769322961673286D+03
 0.769322961673286D+03 -.000000000000000D+00 -.000000000000000D+00 -.769322961673286D+03
 0.529394363308073D+03 -.491478525550509D+03 0.150161819076398D+03 0.231014916558448D+02
 0.630418763172352D+03 0.454422436469310D+03 -.178014258550599D+03 -.399047603608561D+03
 0.353844956587170D+03 0.353575874726486D+02 0.271425939080754D+02 0.351026172679804D+03
 0.249878402789764D+02 0.169850160855116D+01 0.709845566125550D+00 0.249199392729123D+02
0.614238119136D-06 0.000000000000D+00 0.000000000000D+00 0.200702697633D-05 0.000000000000D+00  6 1 1 25 1 1 21 0 0.13294857D+00 0.10536758D+00 0.28264955D+06 0.28264955D+06 0.28264955D+06 0.10864713D+01  1  2  2  3  6  5        1 0.424636053666D-05 0.100000000000D+01
0.228848336681D-06 0.000000000000D+00 -.235883611009D-08 0.200702697633D-05 0.000000000000D+00  6 1 1 25 1 1 21 2 0.13294857D+00 0.10536758D+00 0.28264955D+06 0.28264955D+06 0.28264955D+06 0.10864713D+01  1  2  3  3  6  5        1 0.186751608076D-05 0.100000000000D+01
-.397779055351D-06 0.000000000000D+00 0.000000000000D+00 0.200702697633D-05 0.000000000000D+00  6 1 1 25 1 1 21 2 0.13294857D+00 0.10536758D+00 0.28264955D+06 0.28264955D+06 0.28264955D+06 0.10864713D+01  1  2 15  3  6  5        1 -.324607464153D-05 0.100000000000D+01
0.154260955207D-12 0.000000000000D+00 0.000000000000D+00 0.200702697633D-05 0.000000000000D+00  6 1 1 25 1 1 21 2 0.13294857D+00 0.10536758D+00 0.28267899D+06 0.28267899D+06 0.28267899D+06 0.10864679D+01  1  2 12  3  6  5        1 0.125883240715D-11 0.100000000000D+01
0.251725331158D-07 0.000000000000D+00 0.000000000000D+00 0.200702697633D-05 0.000000000000D+00  6 1 1 25 1 1 21 2 0.13294857D+00 0.10536758D+00 0.28267899D+06 0.28267899D+06 0.28267899D+06 0.10864679D+01  1  2 12  3  6  5        1 0.205418152725D-06 0.100000000000D+01
-.395837356552D-02 0.000000000000D+00 0.000000000000D+00 0.200702697633D-05 0.000000000000D+00  6 1 1 25 1 1 21 2 0.13294857D+00 0.10536758D+00 0.28264955D+06 0.28264955D+06 0.28264955D+06 0.10864713D+01  1  2  4  3  6  5        1 -.323022941503D-01 0.100000000000D+01
-.146326597670D-02 0.000000000000D+00 0.000000000000D+00 0.200702697633D-05 0.000000000000D+00  6 1 1 25 1 1 21 2 0.13294857D+00 0.10536758D+00 0.28264955D+06 0.28264955D+06 0.28264955D+06 0.10864713D+01  1  2  5  3  6  5        1 -.119409770748D-01 0.100000000000D+01
0.156453840177D-02 0.000000000000D+00 -.000000000000D+00 0.200702697633D-05 0.000000000000D+00  6 1 1 25 1 1 21 2 0.13294857D+00 0.10536758D+00 0.28264955D+06 0.28264955D+06 0.28264955D+06 0.10864713D+01  1  2  6  3  6  5        1 0.127674103586D-01 0.100000000000D+01
0.354075344061D-02 0.000000000000D+00 0.000000000000D+00 0.200702697633D-05 0.167370849552D-04  6 1 1 25 1 1 21 2 0.13294857D+00 0.10536758D+00 0.28267899D+06 0.28267899D+06 0.28267899D+06 0.10864679D+01  1  2 11  3  6  5        1 0.288939944057D-01 0.100000000000D+01
  </mgrwgt>
  </event>
  <event>
  6     66 -.18540751E-05 0.36219928E+02 0.75467711E-02 0.92157975E-01
        1 -1    0    0  502    0 0.00000000E+00 0.00000000E+00 0.23632183E+04 0.23632183E+04 0.32000000E+00 0.0000E+00 0.9000E+01
        1 -1    0    0  501    0 0.00000000E+00 0.00000000E+00 -.29701153E+03 0.29701171E+03 0.32000000E+00 0.0000E+00 0.9000E+01
       25  1    1    2    0    0 -.38824313E+02 0.55396452E+03 0.10312454E+04 0.11779117E+04 0.12500000E+03 0.0000E+00 0.9000E+01
        1  1    1    2  501    0 0.11058264E+03 -.58405079E+03 0.17817434E+03 0.62055624E+03 0.32000000E+00 0.0000E+00 0.9000E+01
        1  1    1    2  503    0 -.18978550E+02 0.27478339E+02 0.49620365E+03 0.49732626E+03 0.32000000E+00 0.0000E+00 0.9000E+01
       21  1    1    2  502  503 -.52779779E+02 0.26079329E+01 0.36058338E+03 0.36443579E+03 0.75000000E+00 0.0000E+00 0.9000E+01
#aMCatNLO 2  0  0  5  1 0.24677948D+02 0.00000000D+00  -5  6  0 0.00000000D+00 0.00000000D+00 0.00000000D+00 0.00000000D+00 0.00000000D+00
  <mgrwgt>
 -.4131435141D-03    3    2    0
 0.837796722133193D+03 0.000000000000000D+00 0.000000000000000D+00 0.837796722133193D+03
 0.837796722133193D+03 -.000000000000000D+00 -.000000000000000D+00 -.837796722133193D+03
 0.598391304874188D+03 -.386606103574968D+02 0.554239842293930D+03 0.183768082565552D+03
 0.766966716739306D+03 0.111030715787940D+03 -.584582615016443D+03 -.483914549231602D+03
 0.310235422652891D+03 -.723701054304433D+02 0.303427727225137D+02 0.300146466666051D+03
 0.000000000000000D+00 -.000000000000000D+00 0.000000000000000D+00 0.000000000000000D+00
 0.837796722133193D+03 0.000000000000000D+00 0.000000000000000D+00 0.837796722133193D+03
 0.837796722133193D+03 -.000000000000000D+00 -.000000000000000D+00 -.837796722133193D+03
 0.598972054821118D+03 -.389961232516708D+02 0.554380513520437D+03 0.185159582676105D+03
 0.765644596062413D+03 0.110601263146820D+03 -.584402557466339D+03 -.482133445113182D+03
 0.176924910416231D+03 -.188322905800119D+02 0.273872839016124D+02 0.173774869983533D+03
 0.134051882966623D+03 -.527728493151368D+02 0.263476004428919D+01 0.123198992453543D+03
-.971897638718D-08 0.000000000000D+00 0.000000000000D+00 0.371676225703D-06 0.000000000000D+00  6 1 1 25 1 1 21 2 0.36357206D+00 0.45694097D-01 0.39092931D+06 0.39092931D+06 0.39092931D+06 0.10761465D+01  1  2 13  3  6  5        1 -.223212548241D-07 0.100000000000D+01
-.265401987144D-03 0.000000000000D+00 0.000000000000D+00 0.371676225703D-06 0.000000000000D+00  6 1 1 25 1 1 21 2 0.36357206D+00 0.45694097D-01 0.39092931D+06 0.39092931D+06 0.39092931D+06 0.10761465D+01  1  2 13  3  6  5        1 -.609540053382D-03 0.100000000000D+01
0.855234296932D-04 0.000000000000D+00 0.000000000000D+00 0.371676225703D-06 0.395281737567D-09  6 1 1 25 1 1 21 2 0.36357206D+00 0.45694097D-01 0.39092931D+06 0.39092931D+06 0.39092931D+06 0.10761465D+01  1  2  1  3  6  5        1 0.196418860543D-03 0.100000000000D+01
  </mgrwgt>
  </event>
  <event>
  5     66 0.18540751E-05 0.64597257E+02 0.75467711E-02 0.95186137E-01
        1 -1    0    0  502    0 0.00000000E+00 0.00000000E+00 0.16119991E+04 0.16119991E+04 0.32000000E+00 0.0000E+00 0.9000E+01
        1 -1    0    0  501    0 0.00000000E+00 0.00000000E+00 -.11691638E+04 0.11691639E+04 0.32000000E+00 0.0000E+00 0.9000E+01
       25  1    1    2    0    0 0.12732524E+03 0.43217221E+03 0.10018776E+03 0.47817060E+03 0.12500000E+03 0.0000E+00 0.9000E+01
        1  1    1    2  501    0 -.65119576E+02 -.41474593E+03 -.93436342E+03 0.10243485E+04 0.32000000E+00 0.0000E+00 0.9000E+01
        1  1    1    2  502    0 -.62205660E+02 -.17426274E+02 0.12770109E+04 0.12786439E+04 0.32000000E+00 0.0000E+00 0.9000E+01
#aMCatNLO 1  0  0  2  5 0.13173454D+03 0.00000000D+00  -5  6  0 0.00000000D+00 0.00000000D+00 0.00000000D+00 0.00000000D+00 0.00000000D+00
  <mgrwgt>
 0.6392594220D-02    4    2    0
 0.137284053700437D+04 0.000000000000000D+00 0.000000000000000D+00 0.137284053700437D+04
 0.137284053700437D+04 0.000000000000000D+00 0.000000000000000D+00 -.137284053700437D+04
 0.468231867005207D+03 0.127329698150920D+03 0.432211989390765D+03 0.244136329712380D+02
 0.118829746586710D+04 -.651271202978037D+02 -.414786578597274D+03 -.111164806472348D+04
 0.108915174113643D+04 -.622025778531160D+02 -.174254107934907D+02 0.108723443175224D+04
 0.000000000000000D+00 0.000000000000000D+00 0.000000000000000D+00 0.000000000000000D+00
 0.175607320430023D+04 0.000000000000000D+00 0.000000000000000D+00 0.175607320430023D+04
 0.146581238290672D+04 0.000000000000000D+00 0.000000000000000D+00 -.146581238290672D+04
 0.420247926427613D+03 0.897925421718314D+02 0.390287834248230D+03 0.244136329712380D+02
 0.124269707121694D+04 -.167833587903851D+03 -.529496437928557D+03 -.111164806472348D+04
 0.110485346540497D+04 -.154896543732379D+03 -.120952598853874D+03 0.108723443175224D+04
 0.454087124157427D+03 0.232937589464398D+03 0.260161202534201D+03 0.290260821393513D+03
0.110795644995D-01 0.000000000000D+00 0.000000000000D+00 0.102092062222D-03 0.000000000000D+00  6 1 1 25 1 1 21 0 0.24799987D+00 0.17987136D+00 0.22660484D+06 0.22660484D+06 0.22660484D+06 0.10936838D+01  1  2  2  2  6  2        1 0.917932505443D-02 0.100000000000D+01
0.412499580541D-02 0.000000000000D+00 -.425484449944D-04 0.102092062222D-03 0.000000000000D+00  6 1 1 25 1 1 21 2 0.24799987D+00 0.17987136D+00 0.22660484D+06 0.22660484D+06 0.22660484D+06 0.10936838D+01  1  2  3  2  6  2        1 0.408785175395D-02 0.100000000000D+01
-.692147544358D-02 0.000000000000D+00 0.000000000000D+00 0.102092062222D-03 0.000000000000D+00  6 1 1 25 1 1 21 2 0.24799987D+00 0.17987136D+00 0.22660484D+06 0.22660484D+06 0.22660484D+06 0.10936838D+01  1  2 15  2  6  2        1 -.685915013413D-02 0.100000000000D+01
-.155726800643D-04 0.000000000000D+00 0.000000000000D+00 0.102092062222D-03 0.000000000000D+00  6 1 1 25 1 1 21 2 0.24799987D+00 0.17987136D+00 0.22660484D+06 0.22660484D+06 0.22660484D+06 0.10936838D+01  1  2  4  2  6  2        1 -.154324538781D-04 0.100000000000D+01
  </mgrwgt>
  </event>
  <event>
  5     66 0.18540751E-05 0.20312790E+03 0.75467711E-02 0.93097921E-01
        1 -1    0    0  502    0 0.00000000E+00 0.00000000E+00 0.14308102E+04 0.14308103E+04 0.32000000E+00 0.0000E+00 0.9000E+01
        1 -1    0    0  501    0 0.00000000E+00 0.00000000E+00 -.14444077E+04 0.14444077E+04 0.32000000E+00 0.0000E+00 0.9000E+01
       25  1    1    2    0    0 0.23246717E+03 0.44249799E+03 0.24953095E+03 0.57248244E+03 0.12500000E+03 0.0000E+00 0.9000E+01
        1  1    1    2  501    0 -.29400402E+03 -.14514862E+03 -.12385125E+04 0.12811791E+04 0.32000000E+00 0.0000E+00 0.9000E+01
        1  1    1    2  502    0 0.61536849E+02 -.29734936E+03 0.97538410E+03 0.10215565E+04 0.32000000E+00 0.0000E+00 0.9000E+01
#aMCatNLO 1  0  0  2  5 0.29751980D+03 0.00000000D+00  -5  6  0 0.00000000D+00 0.00000000D+00 0.00000000D+00 0.00000000D+00 0.00000000D+00
  <mgrwgt>
 0.2537592479D-03    9    2    0
 0.143759292418959D+04 0.000000000000000D+00 0.000000000000000D+00 0.143759292418959D+04
 0.143759292418959D+04 0.000000000000000D+00 0.000000000000000D+00 -.143759292418959D+04
 0.573721104271260D+03 0.232500903924037D+03 0.442491608136432D+03 0.252339873760714D+03
 0.127536521459384D+04 -.294032885428388D+03 -.145165763911344D+03 -.123248853701391D+04
 0.102609952951409D+04 0.615319815043503D+02 -.297325844225089D+03 0.980148663253194D+03
 0.000000000000000D+00 0.000000000000000D+00 0.000000000000000D+00 -.000000000000000D+00
 0.146965158923239D+04 0.000000000000000D+00 0.000000000000000D+00 0.146965158923239D+04
 0.235286949237876D+04 0.000000000000000D+00 0.000000000000000D+00 -.235286949237876D+04
 0.529928912621931D+03 0.229857665074405D+03 0.385603026893763D+03 0.252339873760714D+03
 0.129859272270124D+04 -.300197507829546D+03 -.277842620695369D+03 -.123248853701391D+04
 0.106201666987424D+04 0.565309487708866D+02 -.404959574334054D+03 0.980148663253194D+03
 0.931982776413738D+03 0.138088939842550D+02 0.297199168135660D+03 -.883217903146365D+03
0.847573262039D-04 0.000000000000D+00 0.000000000000D+00 0.289542809925D-05 0.000000000000D+00  6 1 1 25 1 1 21 0 0.22012466D+00 0.22221657D+00 0.32878150D+06 0.32878150D+06 0.32878150D+06 0.10816205D+01  1  2  2  2  6  2        1 0.581923608562D-04 0.100000000000D+01
0.738986171557D-05 0.000000000000D+00 -.325490449739D-06 0.289542809925D-05 0.000000000000D+00  6 1 1 25 1 1 21 2 0.22012466D+00 0.22221657D+00 0.32878150D+06 0.32878150D+06 0.32878150D+06 0.10816205D+01  1  2  3  2  6  2        1 0.593574021771D-05 0.100000000000D+01
-.564742108880D-04 0.000000000000D+00 0.000000000000D+00 0.289542809925D-05 0.000000000000D+00  6 1 1 25 1 1 21 2 0.22012466D+00 0.22221657D+00 0.32878150D+06 0.32878150D+06 0.32878150D+06 0.10816205D+01  1  2 15  2  6  2        1 -.453616397348D-04 0.100000000000D+01
0.620313521862D-10 0.000000000000D+00 0.000000000000D+00 0.289542809925D-05 0.000000000000D+00  6 1 1 25 1 1 21 2 0.22012466D+00 0.36613153D+00 0.62523850D+06 0.62523850D+06 0.62523850D+06 0.10617165D+01  1  2 12  2  6  2        1 0.106501534637D-10 0.100000000000D+01
-.745956796911D-04 0.000000000000D+00 0.000000000000D+00 0.289542809925D-05 0.000000000000D+00  6 1 1 25 1 1 21 2 0.22012466D+00 0.22221657D+00 0.32878150D+06 0.32878150D+06 0.32878150D+06 0.10816205D+01  1  2  4  2  6  2        1 -.599173019810D-04 0.100000000000D+01
-.527414899944D-03 0.000000000000D+00 -.485943061096D-04 0.289542809925D-05 0.000000000000D+00  6 1 1 25 1 1 21 2 0.22012466D+00 0.36578258D+00 0.32878150D+06 0.32878150D+06 0.32878150D+06 0.10816205D+01  1  2  5  2  6  2        1 -.100274426066D-03 0.100000000000D+01
0.494416115427D-03 0.000000000000D+00 0.431264454689D-04 0.289542809925D-05 0.000000000000D+00  6 1 1 25 1 1 21 2 0.22012466D+00 0.22221657D+00 0.32878150D+06 0.32878150D+06 0.32878150D+06 0.10816205D+01  1  2  6  2  6  2        1 0.397128624807D-03 0.100000000000D+01
0.349382983545D-11 0.000000000000D+00 0.000000000000D+00 0.289542809925D-05 0.000000000000D+00  6 1 21 25 1 1 -1 2 0.22012466D+00 0.36613153D+00 0.62523850D+06 0.62523850D+06 0.62523850D+06 0.10617165D+01  1  2 12  5  6  2        1 0.215962629814D-12 0.100000000000D+01
-.274771686234D-04 0.000000000000D+00 -.273286874076D-05 0.289542809925D-05 0.000000000000D+00  6 1 21 25 1 1 -1 2 0.22012466D+00 0.36578258D+00 0.32878150D+06 0.32878150D+06 0.32878150D+06 0.10816205D+01  1  2  5  5  6  2        1 -.194412102722D-05 0.100000000000D+01
  </mgrwgt>
  </event>
  <event>
  5     66 0.18540751E-05 0.39903109E+02 0.75467711E-02 0.88973563E-01
        1 -1    0    0  502    0 0.00000000E+00 0.00000000E+00 0.10023603E+04 0.10023603E+04 0.32000000E+00 0.0000E+00 0.9000E+01
        1 -1    0    0  501    0 -.00000000E+00 -.00000000E+00 -.18033088E+04 0.18033088E+04 0.32000000E+00 0.0000E+00 0.9000E+01
       25  1    1    2    0    0 -.11238980E+02 -.81134737E+03 -.77544837E+03 0.11293166E+04 0.12500000E+03 0.0000E+00 0.9000E+01
        1  1    1    2  501    0 0.50234489E+02 0.80286156E+03 -.66003989E+03 0.10405590E+04 0.32000000E+00 0.0000E+00 0.9000E+01
        1  1    1    2  502    0 -.38995510E+02 0.84858013E+01 0.63453976E+03 0.63579358E+03 0.32000000E+00 0.0000E+00 0.9000E+01
#aMCatNLO 1  0  0  5  4 0.53396283D+02 0.00000000D+00  -5  6  0 0.00000000D+00 0.00000000D+00 0.00000000D+00 0.00000000D+00 0.00000000D+00
  <mgrwgt>
 0.4554655551D-03    6    2    0
 0.134445722703380D+04 0.000000000000000D+00 0.000000000000000D+00 0.134445722703380D+04
 0.134445722703380D+04 -.000000000000000D+00 -.000000000000000D+00 -.134445722703380D+04
 0.947418388408534D+03 -.112446797412345D+02 -.811435879542091D+03 -.472675336001248D+03
 0.889192376291716D+03 0.502352857274331D+02 0.802951145292982D+03 -.378693750141035D+03
 0.852303689367349D+03 -.389906059861980D+02 0.848473424910919D+01 0.851369086142283D+03
 0.000000000000000D+00 -.000000000000000D+00 0.000000000000000D+00 0.000000000000000D+00
 0.134445722703380D+04 0.000000000000000D+00 0.000000000000000D+00 0.134445722703380D+04
 0.134445722703380D+04 -.000000000000000D+00 -.000000000000000D+00 -.134445722703380D+04
 0.940836994328641D+03 -.118454542322286D+02 -.811305145182601D+03 -.459557283166769D+03
 0.884095660062409D+03 0.496710896832082D+02 0.803073919827477D+03 -.366374396326763D+03
 0.805993750635295D+03 0.164306648009152D+02 0.115899710256495D+02 0.805742906818903D+03
 0.579880490412535D+02 -.542563002518941D+02 -.335874567052558D+01 0.201887726746294D+02
0.511246053914D-03 0.000000000000D+00 0.000000000000D+00 0.166859938646D-05 0.000000000000D+00  6 1 1 25 1 1 21 0 0.15420928D+00 0.27743213D+00 0.69347971D+06 0.69347971D+06 0.69347971D+06 0.10586126D+01  1  2  2  3  6  5        1 0.386423636836D-03 0.100000000000D+01
0.341519069700D-03 0.000000000000D+00 -.196331946121D-05 0.166859938646D-05 0.000000000000D+00  6 1 1 25 1 1 21 2 0.15420928D+00 0.27743213D+00 0.69347971D+06 0.69347971D+06 0.69347971D+06 0.10586126D+01  1  2  3  3  6  5        1 0.289282932179D-03 0.100000000000D+01
-.328379185685D-03 0.000000000000D+00 0.000000000000D+00 0.166859938646D-05 0.000000000000D+00  6 1 1 25 1 1 21 2 0.15420928D+00 0.27743213D+00 0.69347971D+06 0.69347971D+06 0.69347971D+06 0.10586126D+01  1  2 15  3  6  5        1 -.278152824042D-03 0.100000000000D+01
-.140228810426D-03 0.000000000000D+00 0.000000000000D+00 0.166859938646D-05 0.000000000000D+00  6 1 1 25 1 1 21 2 0.15420928D+00 0.27743213D+00 0.69347971D+06 0.69347971D+06 0.69347971D+06 0.10586126D+01  1  2  4  3  6  5        1 -.118780487109D-03 0.100000000000D+01
-.296532813413D-02 0.000000000000D+00 0.000000000000D+00 0.166859938646D-05 0.000000000000D+00  6 1 1 25 1 1 21 2 0.15420928D+00 0.27743213D+00 0.69347971D+06 0.69347971D+06 0.69347971D+06 0.10586126D+01  1  2  5  3  6  5        1 -.251177428618D-02 0.100000000000D+01
0.317392595397D-02 0.000000000000D+00 -.000000000000D+00 0.166859938646D-05 0.000000000000D+00  6 1 1 25 1 1 21 2 0.15420928D+00 0.27743213D+00 0.69347971D+06 0.69347971D+06 0.69347971D+06 0.10586126D+01  1  2  6  3  6  5        1 0.268846658340D-02 0.100000000000D+01
  </mgrwgt>
  </event>
  <event>
  5     66 0.18540751E-05 0.38342822E+02 0.75467711E-02 0.86742998E-01
        1 -1    0    0  502    0 0.00000000E+00 0.00000000E+00 0.28464353E+04 0.28464353E+04 0.32000000E+00 0.0000E+00 0.9000E+01
        1 -1    0    0  501    0 0.00000000E+00 0.00000000E+00 -.17435367E+04 0.17435368E+04 0.32000000E+00 0.0000E+00 0.9000E+01
       25  1    1    2    0    0 -.68392365E+03 0.74498902E+03 -.58244589E+03 0.11737242E+04 0.12500000E+03 0.0000E+00 0.9000E+01
        1  1    1    2  501    0 0.70513527E+03 -.77693183E+03 -.54723113E+03 0.11833431E+04 0.32000000E+00 0.0000E+00 0.9000E+01
        1  1    1    2  502    0 -.21211619E+02 0.31942809E+02 0.22325756E+04 0.22329049E+04 0.32000000E+00 0.0000E+00 0.9000E+01
#aMCatNLO 1  0  0  1  4 0.21967063D+02 0.00000000D+00  -5  6  0 0.00000000D+00 0.00000000D+00 0.00000000D+00 0.00000000D+00 0.00000000D+00
  <mgrwgt>
 0.3074761078D-02    9    2    0
 0.222774879951269D+04 0.000000000000000D+00 0.000000000000000D+00 0.222774879951269D+04
 0.222774879951269D+04 0.000000000000000D+00 0.000000000000000D+00 -.222774879951269D+04
 0.135335900372107D+04 -.683968975981498D+03 0.745038817972864D+03 -.890538709187489D+03
 0.135454665525249D+04 0.705179845989500D+03 -.776980499389385D+03 -.856632552285137D+03
 0.174759194005181D+04 -.212108700080016D+02 0.319416814165211D+02 0.174717126147263D+04
 0.000000000000000D+00 0.000000000000000D+00 -.000000000000000D+00 0.000000000000000D+00
 0.239772154518900D+04 0.000000000000000D+00 0.000000000000000D+00 0.239772154518900D+04
 0.222848573750396D+04 0.000000000000000D+00 0.000000000000000D+00 -.222848573750396D+04
 0.135803552877321D+04 -.686441236231558D+03 0.751248783060509D+03 -.890538709187489D+03
 0.134971804719152D+04 0.702714086746656D+03 -.770786863904519D+03 -.856632552285137D+03
 0.174779817514079D+04 -.243979805286880D+02 0.399472484127329D+02 0.174717126147263D+04
 0.170655531587439D+03 0.812513001359032D+01 -.204091675687226D+02 0.169235807685032D+03
0.110810181646D-02 0.000000000000D+00 0.000000000000D+00 0.721322503281D-05 0.000000000000D+00  6 1 1 25 1 1 21 0 0.43791313D+00 0.26823643D+00 0.11095422D+07 0.11095422D+07 0.11095422D+07 0.10448720D+01  1  2  2  1  6  1        1 0.454751682448D-04 0.100000000000D+01
0.984785221250D-03 0.000000000000D+00 -.425540274513D-05 0.721322503281D-05 0.000000000000D+00  6 1 1 25 1 1 21 2 0.43791313D+00 0.26823643D+00 0.11095422D+07 0.11095422D+07 0.11095422D+07 0.10448720D+01  1  2  3  1  6  1        1 0.441227310267D-04 0.100000000000D+01
-.754156473380D-03 0.000000000000D+00 0.000000000000D+00 0.721322503281D-05 0.000000000000D+00  6 1 1 25 1 1 21 2 0.43791313D+00 0.26823643D+00 0.11095422D+07 0.11095422D+07 0.11095422D+07 0.10448720D+01  1  2 15  1  6  1        1 -.337895436578D-04 0.100000000000D+01
0.450523243933D-08 0.000000000000D+00 0.000000000000D+00 0.721322503281D-05 0.000000000000D+00  6 1 1 25 1 1 21 2 0.47147056D+00 0.26823643D+00 0.11417890D+07 0.11417890D+07 0.11417890D+07 0.10440520D+01  1  2 12  1  6  1        1 0.137856026641D-09 0.100000000000D+01
-.239050668749D-02 0.000000000000D+00 0.000000000000D+00 0.721322503281D-05 0.000000000000D+00  6 1 1 25 1 1 21 2 0.43791313D+00 0.26823643D+00 0.11095422D+07 0.11095422D+07 0.11095422D+07 0.10448720D+01  1  2  4  1  6  1        1 -.107105266523D-03 0.100000000000D+01
-.225713344194D+00 0.000000000000D+00 -.227855976422D-02 0.721322503281D-05 0.000000000000D+00  6 1 1 25 1 1 21 2 0.47136480D+00 0.26823643D+00 0.11095422D+07 0.11095422D+07 0.11095422D+07 0.10448720D+01  1  2  5  1  6  1        1 -.694781193371D-02 0.100000000000D+01
0.225276604578D+00 0.000000000000D+00 0.227240026509D-02 0.721322503281D-05 0.000000000000D+00  6 1 1 25 1 1 21 2 0.43791313D+00 0.26823643D+00 0.11095422D+07 0.11095422D+07 0.11095422D+07 0.10448720D+01  1  2  6  1  6  1        1 0.100933876910D-01 0.100000000000D+01
0.651892868458D-10 0.000000000000D+00 0.000000000000D+00 0.721322503281D-05 0.000000000000D+00  6 21 1 25 1 1 -1 2 0.47147056D+00 0.26823643D+00 0.11417890D+07 0.11417890D+07 0.11417890D+07 0.10440520D+01  1  2 12  4  6  1        1 0.389765282313D-12 0.100000000000D+01
-.323890520171D-02 0.000000000000D+00 -.282555953868D-04 0.721322503281D-05 0.000000000000D+00  6 21 1 25 1 1 -1 2 0.47136480D+00 0.26823643D+00 0.11095422D+07 0.11095422D+07 0.11095422D+07 0.10448720D+01  1  2  5  4  6  1        1 -.195179068077D-04 0.100000000000D+01
  </mgrwgt>
  </event>
  <event>
  5     66 0.18540751E-05 0.29592890E+02 0.75467711E-02 0.89654322E-01
        1 -1    0    0  502    0 0.00000000E+00 0.00000000E+00 0.15753338E+04 0.15753338E+04 0.32000000E+00 0.0000E+00 0.9000E+01
        1 -1    0    0  501    0 0.00000000E+00 0.00000000E+00 -.10707528E+04 0.10707528E+04 0.32000000E+00 0.0000E+00 0.9000E+01
       25  1    1    2    0    0 0.98274706E+02 -.75550042E+03 -.52210383E+03 0.93201728E+03 0.12500000E+03 0.0000E+00 0.9000E+01
        1  1    1    2  501    0 0.18289637E+02 0.23265814E+02 -.24243381E+03 0.24423362E+03 0.32000000E+00 0.0000E+00 0.9000E+01
        1  1    1    2  502    0 -.11656434E+03 0.73223461E+03 0.12691187E+04 0.14698357E+04 0.32000000E+00 0.0000E+00 0.9000E+01
#aMCatNLO 1  0  0  2  2 0.61820443D+01 0.00000000D+00  -5  6  0 0.00000000D+00 0.00000000D+00 0.00000000D+00 0.00000000D+00 0.00000000D+00
  <mgrwgt>
 0.3627425527D-03    7    2    0
 0.129876599117032D+04 0.000000000000000D+00 0.000000000000000D+00 0.129876599117032D+04
 0.129876599117032D+04 0.000000000000000D+00 0.000000000000000D+00 -.129876599117032D+04
 0.105087730270776D+04 0.982758961966831D+02 -.755501803899005D+03 -.712935465437382D+03
 0.295871543590050D+03 0.182888003902872D+02 0.232649721369546D+02 -.294387892342925D+03
 0.125078313604283D+04 -.116564696586970D+03 0.732236831762050D+03 0.100732335778031D+04
 0.000000000000000D+00 -.000000000000000D+00 0.000000000000000D+00 -.000000000000000D+00
 0.131186891102806D+04 0.000000000000000D+00 0.000000000000000D+00 0.131186891102806D+04
 0.133854175741194D+04 0.000000000000000D+00 0.000000000000000D+00 -.133854175741194D+04
 0.105631681274489D+04 0.115893928239524D+03 -.760573355046252D+03 -.712935465437382D+03
 0.296110189167309D+03 0.232382984265681D+02 0.218402027652586D+02 -.294387892342925D+03
 0.124549826187991D+04 -.956935460204249D+02 0.726228833403168D+03 0.100732335778031D+04
 0.524854046478893D+02 -.434386806456673D+02 0.125043188778262D+02 -.266728463838798D+02
0.101675234892D-03 0.000000000000D+00 0.000000000000D+00 0.347485405321D-05 0.000000000000D+00  6 1 1 25 1 1 21 0 0.24235905D+00 0.16473120D+00 0.59529158D+06 0.59529158D+06 0.59529158D+06 0.10631969D+01  1  2  2  2  6  2        1 0.980846282937D-04 0.100000000000D+01
0.456925104503D-04 0.000000000000D+00 -.390459673689D-06 0.347485405321D-05 0.000000000000D+00  6 1 1 25 1 1 21 2 0.24235905D+00 0.16473120D+00 0.59529158D+06 0.59529158D+06 0.59529158D+06 0.10631969D+01  1  2  3  2  6  2        1 0.498262526845D-04 0.100000000000D+01
-.695533946613D-04 0.000000000000D+00 0.000000000000D+00 0.347485405321D-05 0.000000000000D+00  6 1 1 25 1 1 21 2 0.24235905D+00 0.16473120D+00 0.59529158D+06 0.59529158D+06 0.59529158D+06 0.10631969D+01  1  2 15  2  6  2        1 -.758458001827D-04 0.100000000000D+01
-.240217342719D-05 0.000000000000D+00 0.000000000000D+00 0.347485405321D-05 0.000000000000D+00  6 1 1 25 1 1 21 2 0.24235905D+00 0.16473120D+00 0.59529158D+06 0.59529158D+06 0.59529158D+06 0.10631969D+01  1  2  4  2  6  2        1 -.261949494558D-05 0.100000000000D+01
-.426792967561D-02 0.000000000000D+00 -.617118779874D-03 0.347485405321D-05 0.000000000000D+00  6 1 1 25 1 1 21 2 0.24235905D+00 0.17076930D+00 0.59529158D+06 0.59529158D+06 0.59529158D+06 0.10631969D+01  1  2  5  2  6  2        1 -.435120130090D-02 0.100000000000D+01
0.428776610722D-02 0.000000000000D+00 0.616719137013D-03 0.347485405321D-05 0.000000000000D+00  6 1 1 25 1 1 21 2 0.24235905D+00 0.16473120D+00 0.59529158D+06 0.59529158D+06 0.59529158D+06 0.10631969D+01  1  2  6  2  6  2        1 0.467567475293D-02 0.100000000000D+01
-.270268826024D-04 0.000000000000D+00 -.394937355398D-05 0.347485405321D-05 0.000000000000D+00  6 1 21 25 1 1 -1 2 0.24235905D+00 0.17076930D+00 0.59529158D+06 0.59529158D+06 0.59529158D+06 0.10631969D+01  1  2  5  5  6  2        1 -.311764852204D-04 0.100000000000D+01
  </mgrwgt>
  </event>
  <event>
  5     66 -.18540751E-05 0.38232002E+02 0.75467711E-02 0.94408569E-01
        1 -1    0    0  502    0 0.00000000E+00 0.00000000E+00 0.86806379E+03 0.86806385E+03 0.32000000E+00 0.0000E+00 0.9000E+01
        1 -1    0    0  501    0 -.00000000E+00 -.00000000E+00 -.10831790E+04 0.10831790E+04 0.32000000E+00 0.0000E+00 0.9000E+01
       25  1    1    2    0    0 -.30738384E+03 0.36779918E+03 0.23828628E+03 0.54969665E+03 0.12500000E+03 0.0000E+00 0.9000E+01
        1  1    1    2  501    0 -.37914655E+02 -.48731969E+01 -.79455039E+03 0.79546948E+03 0.32000000E+00 0.0000E+00 0.9000E+01
        1  1    1    2  502    0 0.34529849E+03 -.36292598E+03 0.34114893E+03 0.60607674E+03 0.32000000E+00 0.0000E+00 0.9000E+01
#aMCatNLO 1  0  0  5  1 0.75434368D+02 0.00000000D+00  -5  6  0 0.00000000D+00 0.00000000D+00 0.00000000D+00 0.00000000D+00 0.00000000D+00
  <mgrwgt>
 -.5610940428D-02    6    2    0
 0.969674452389367D+03 0.000000000000000D+00 0.000000000000000D+00 0.969674452389367D+03
 0.969674452389367D+03 -.000000000000000D+00 -.000000000000000D+00 -.969674452389367D+03
 0.579510049562656D+03 -.307329663363519D+03 0.367748759583199D+03 0.300859145425225D+03
 0.712295957802996D+03 -.379200413879131D+02 -.487405752527104D+01 -.711269179373651D+03
 0.647542897413082D+03 0.345249704751432D+03 -.362874702057928D+03 0.410410033948426D+03
 0.000000000000000D+00 0.000000000000000D+00 0.000000000000000D+00 0.000000000000000D+00
 0.969674452389367D+03 0.000000000000000D+00 0.000000000000000D+00 0.969674452389367D+03
 0.969674452389367D+03 -.000000000000000D+00 -.000000000000000D+00 -.969674452389367D+03
 0.577847353659732D+03 -.304423686325359D+03 0.364694432418260D+03 0.304313578893149D+03
 0.707916821261330D+03 -.343540679783420D+02 -.862207387615030D+01 -.707030185833787D+03
 0.380634462527774D+03 0.219285029725737D+03 -.254126330480165D+03 0.179489492613569D+03
 0.272950267329898D+03 0.119492724577965D+03 -.101946028061945D+03 0.223227114327069D+03
0.133852626521D-03 0.000000000000D+00 0.000000000000D+00 0.591831925549D-05 0.000000000000D+00  6 1 1 25 1 1 21 0 0.13354828D+00 0.16664293D+00 0.26749593D+06 0.26749593D+06 0.26749593D+06 0.10882559D+01  1  2  2  3  6  5        1 0.431408417393D-03 0.100000000000D+01
0.727825715056D-04 0.000000000000D+00 -.514029330046D-06 0.591831925549D-05 0.000000000000D+00  6 1 1 25 1 1 21 2 0.13354828D+00 0.16664293D+00 0.26749593D+06 0.26749593D+06 0.26749593D+06 0.10882559D+01  1  2  3  3  6  5        1 0.277812127519D-03 0.100000000000D+01
-.954653950138D-04 0.000000000000D+00 0.000000000000D+00 0.591831925549D-05 0.000000000000D+00  6 1 1 25 1 1 21 2 0.13354828D+00 0.16664293D+00 0.26749593D+06 0.26749593D+06 0.26749593D+06 0.10882559D+01  1  2 15  3  6  5        1 -.364392792733D-03 0.100000000000D+01
-.182614509346D-02 0.000000000000D+00 0.000000000000D+00 0.591831925549D-05 0.000000000000D+00  6 1 1 25 1 1 21 2 0.13354828D+00 0.16664293D+00 0.26749593D+06 0.26749593D+06 0.26749593D+06 0.10882559D+01  1  2  4  3  6  5        1 -.697042221893D-02 0.100000000000D+01
-.533217363159D-03 0.000000000000D+00 0.000000000000D+00 0.591831925549D-05 0.000000000000D+00  6 1 1 25 1 1 21 2 0.13354828D+00 0.16664293D+00 0.26749593D+06 0.26749593D+06 0.26749593D+06 0.10882559D+01  1  2  5  3  6  5        1 -.203529838291D-02 0.100000000000D+01
0.799041360025D-03 0.000000000000D+00 -.000000000000D+00 0.591831925549D-05 0.000000000000D+00  6 1 1 25 1 1 21 2 0.13354828D+00 0.16664293D+00 0.26749593D+06 0.26749593D+06 0.26749593D+06 0.10882559D+01  1  2  6  3  6  5        1 0.304995242147D-02 0.100000000000D+01
  </mgrwgt>
  </event>
  <event>
  5     66 -.18540751E-05 0.70310547E+02 0.75467711E-02 0.94165933E-01
        1 -1    0    0  502    0 0.00000000E+00 0.00000000E+00 0.98777402E+03 0.98777408E+03 0.32000000E+00 0.0000E+00 0.9000E+01
        1 -1    0    0  501    0 0.00000000E+00 0.00000000E+00 -.14680078E+04 0.14680078E+04 0.32000000E+00 0.0000E+00 0.9000E+01
       25  1    1    2    0    0 -.13039606E+02 0.46681490E+03 -.32463717E+02 0.48452562E+03 0.12500000E+03 0.0000E+00 0.9000E+01
        1  1    1    2  501    0 0.68431078E+02 -.16116164E+02 -.11406617E+04 0.11428262E+04 0.32000000E+00 0.0000E+00 0.9000E+01
        1  1    1    2  502    0 -.55391471E+02 -.45069874E+03 0.69289161E+03 0.82843011E+03 0.32000000E+00 0.0000E+00 0.9000E+01
#aMCatNLO 1  0  0  1  5 0.36577404D+02 0.00000000D+00  -5  6  0 0.00000000D+00 0.00000000D+00 0.00000000D+00 0.00000000D+00 0.00000000D+00
  <mgrwgt>
 -.8675553933D-02   11    2    0
 0.120418439988686D+04 0.000000000000000D+00 0.000000000000000D+00 0.120418439988686D+04
 0.120418439988686D+04 0.000000000000000D+00 0.000000000000000D+00 -.120418439988686D+04
 0.487585363746858D+03 -.130491595675598D+02 0.466796537529603D+03 0.636018783143238D+02
 0.937924662129152D+03 0.684381251136710D+02 -.161181906749152D+02 -.935285570716440D+03
 0.982858773897720D+03 -.553889655461111D+02 -.450678346854688D+03 0.871683692402116D+03
 0.000000000000000D+00 -.000000000000000D+00 -.000000000000000D+00 0.000000000000000D+00
 0.137336954941193D+04 0.000000000000000D+00 0.000000000000000D+00 0.137336954941193D+04
 0.120630188270419D+04 0.000000000000000D+00 0.000000000000000D+00 -.120630188270419D+04
 0.493834615685911D+03 -.960050013894428D+01 0.473402850774712D+03 0.636018783143238D+02
 0.938296824536243D+03 0.750310711059662D+02 -.348862625003055D+01 -.935285570716440D+03
 0.976515105502169D+03 -.485038263141984D+02 -.437489051871025D+03 0.871683692402116D+03
 0.171024886391804D+03 -.169267446528235D+02 -.324251726536565D+02 0.167067666707739D+03
0.994035781830D-04 0.000000000000D+00 0.000000000000D+00 0.294038312102D-04 0.000000000000D+00  6 1 1 25 1 1 21 0 0.15196524D+00 0.22584736D+00 0.25391481D+06 0.25391481D+06 0.25391481D+06 0.10899518D+01  1  2  2  1  6  1        1 0.138880389214D-03 0.100000000000D+01
0.349195042324D-04 0.000000000000D+00 -.381735913786D-06 0.294038312102D-04 0.000000000000D+00  6 1 1 25 1 1 21 2 0.15196524D+00 0.22584736D+00 0.25391481D+06 0.25391481D+06 0.25391481D+06 0.10899518D+01  1  2  3  1  6  1        1 0.579590926615D-04 0.100000000000D+01
-.715047006375D-04 0.000000000000D+00 0.000000000000D+00 0.294038312102D-04 0.000000000000D+00  6 1 1 25 1 1 21 2 0.15196524D+00 0.22584736D+00 0.25391481D+06 0.25391481D+06 0.25391481D+06 0.10899518D+01  1  2 15  1  6  1        1 -.118682886859D-03 0.100000000000D+01
0.256707137493D-09 0.000000000000D+00 0.000000000000D+00 0.294038312102D-04 0.000000000000D+00  6 1 1 25 1 1 21 2 0.17347890D+00 0.22584736D+00 0.27122271D+06 0.27122271D+06 0.27122271D+06 0.10878070D+01  1  2 12  1  6  1        1 0.332239732100D-09 0.100000000000D+01
0.591168712206D-02 0.000000000000D+00 0.000000000000D+00 0.294038312102D-04 0.000000000000D+00  6 1 1 25 1 1 21 2 0.17632754D+00 0.22584736D+00 0.27122271D+06 0.27122271D+06 0.27122271D+06 0.10878070D+01  1  2 12  1  6  1        1 0.741851710176D-02 0.100000000000D+01
-.111925036893D-01 0.000000000000D+00 0.000000000000D+00 0.294038312102D-04 0.000000000000D+00  6 1 1 25 1 1 21 2 0.15196524D+00 0.22584736D+00 0.25391481D+06 0.25391481D+06 0.25391481D+06 0.10899518D+01  1  2  4  1  6  1        1 -.185772213180D-01 0.100000000000D+01
-.704688682938D-02 0.000000000000D+00 -.177845318273D-03 0.294038312102D-04 0.000000000000D+00  6 1 1 25 1 1 21 2 0.17343652D+00 0.22584736D+00 0.25391481D+06 0.25391481D+06 0.25391481D+06 0.10899518D+01  1  2  5  1  6  1        1 -.920367660513D-02 0.100000000000D+01
0.701061906711D-02 0.000000000000D+00 0.176303398474D-03 0.294038312102D-04 0.000000000000D+00  6 1 1 25 1 1 21 2 0.15196524D+00 0.22584736D+00 0.25391481D+06 0.25391481D+06 0.25391481D+06 0.10899518D+01  1  2  6  1  6  1        1 0.116361652050D-01 0.100000000000D+01
0.528721228364D-11 0.000000000000D+00 0.000000000000D+00 0.294038312102D-04 0.000000000000D+00  6 21 1 25 1 1 -1 2 0.17347890D+00 0.22584736D+00 0.27122271D+06 0.27122271D+06 0.27122271D+06 0.10878070D+01  1  2 12  4  6  1        1 0.782309489073D-11 0.100000000000D+01
0.133897453301D-03 0.000000000000D+00 0.000000000000D+00 0.294038312102D-04 0.000000000000D+00  6 21 1 25 1 1 -1 2 0.17632754D+00 0.22584736D+00 0.27122271D+06 0.27122271D+06 0.27122271D+06 0.10878070D+01  1  2 12  4  6  1        1 0.188062024116D-03 0.100000000000D+01
-.143936449593D-03 0.000000000000D+00 -.365735833954D-05 0.294038312102D-04 0.000000000000D+00  6 21 1 25 1 1 -1 2 0.17343652D+00 0.22584736D+00 0.25391481D+06 0.25391481D+06 0.25391481D+06 0.10899518D+01  1  2  5  4  6  1        1 -.215557275764D-03 0.100000000000D+01
  </mgrwgt>
  </event>
  <event>
  5     66 0.18540751E-05 0.68799311E+02 0.75467711E-02 0.91681838E-01
        1 -1    0    0  502    0 0.00000000E+00 0.00000000E+00 0.11300954E+04 0.11300955E+04 0.32000000E+00 0.0000E+00 0.9000E+01
        1 -1    0    0  501    0 0.00000000E+00 0.00000000E+00 -.17788280E+04 0.17788280E+04 0.32000000E+00 0.0000E+00 0.9000E+01
       25  1    1    2    0    0 -.58878642E+02 -.46405764E+03 -.19777896E+03 0.52302744E+03 0.12500000E+03 0.0000E+00 0.9000E+01
        1  1    1    2  501    0 -.63129613E+02 -.27337481E+02 -.13512461E+04 0.13529963E+04 0.32000000E+00 0.0000E+00 0.9000E+01
        1  1    1    2  502    0 0.12200826E+03 0.49139513E+03 0.90029251E+03 0.10328998E+04 0.32000000E+00 0.0000E+00 0.9000E+01
#aMCatNLO 1  0  0  2  1 0.12735044D+03 0.00000000D+00  -5  6  0 0.00000000D+00 0.00000000D+00 0.00000000D+00 0.00000000D+00 0.00000000D+00
  <mgrwgt>
 0.1016963596D-01    7    2    0
 0.141783124262846D+04 0.000000000000000D+00 0.000000000000000D+00 0.141783124262846D+04
 0.141783124262846D+04 0.000000000000000D+00 0.000000000000000D+00 -.141783124262846D+04
 0.491272559048131D+03 -.588721126778863D+02 -.464047738594271D+03 -.831714970893582D+02
 0.107886016542699D+04 -.631341028627537D+02 -.273391701646762D+02 -.107666425192609D+04
 0.126552976078181D+04 0.122006215540640D+03 0.491386908758947D+03 0.115983574901545D+04
 0.000000000000000D+00 0.000000000000000D+00 0.000000000000000D+00 -.000000000000000D+00
 0.148065678092989D+04 0.000000000000000D+00 0.000000000000000D+00 0.148065678092989D+04
 0.164841512267360D+04 0.000000000000000D+00 0.000000000000000D+00 -.164841512267360D+04
 0.528394402531373D+03 -.778017706335552D+02 -.500604665564241D+03 -.831714970893582D+02
 0.108669444227212D+04 -.103336648941688D+03 -.104978266679588D+03 -.107666425192609D+04
 0.122983297154824D+04 0.756809301502414D+02 0.401923587295569D+03 0.115983574901545D+04
 0.284150087251752D+03 0.105457489425002D+03 0.203659344948260D+03 -.167758341743711D+03
0.605050885952D-02 0.000000000000D+00 0.000000000000D+00 0.506252712855D-04 0.000000000000D+00  6 1 1 25 1 1 21 0 0.17386084D+00 0.27366585D+00 0.28052231D+06 0.28052231D+06 0.28052231D+06 0.10867154D+01  1  2  2  2  6  2        1 0.407723454723D-02 0.100000000000D+01
0.223637409895D-02 0.000000000000D+00 -.232355471561D-04 0.506252712855D-04 0.000000000000D+00  6 1 1 25 1 1 21 2 0.17386084D+00 0.27366585D+00 0.28052231D+06 0.28052231D+06 0.28052231D+06 0.10867154D+01  1  2  3  2  6  2        1 0.177971268898D-02 0.100000000000D+01
-.438924007058D-02 0.000000000000D+00 0.000000000000D+00 0.506252712855D-04 0.000000000000D+00  6 1 1 25 1 1 21 2 0.17386084D+00 0.27366585D+00 0.28052231D+06 0.28052231D+06 0.28052231D+06 0.10867154D+01  1  2 15  2  6  2        1 -.349296937943D-02 0.100000000000D+01
-.145657481554D-03 0.000000000000D+00 0.000000000000D+00 0.506252712855D-04 0.000000000000D+00  6 1 1 25 1 1 21 2 0.17386084D+00 0.27366585D+00 0.28052231D+06 0.28052231D+06 0.28052231D+06 0.10867154D+01  1  2  4  2  6  2        1 -.115914626398D-03 0.100000000000D+01
-.231859513286D-01 0.000000000000D+00 -.740091604895D-02 0.506252712855D-04 0.000000000000D+00  6 1 1 25 1 1 21 2 0.17386084D+00 0.32372094D+00 0.28052231D+06 0.28052231D+06 0.28052231D+06 0.10867154D+01  1  2  5  2  6  2        1 -.112128432948D-01 0.100000000000D+01
0.241902386199D-01 0.000000000000D+00 0.729772016242D-02 0.506252712855D-04 0.000000000000D+00  6 1 1 25 1 1 21 2 0.17386084D+00 0.27366585D+00 0.28052231D+06 0.28052231D+06 0.28052231D+06 0.10867154D+01  1  2  6  2  6  2        1 0.192506587522D-01 0.100000000000D+01
-.516238655337D-03 0.000000000000D+00 -.184844768444D-03 0.506252712855D-04 0.000000000000D+00  6 1 21 25 1 1 -1 2 0.17386084D+00 0.32372094D+00 0.28052231D+06 0.28052231D+06 0.28052231D+06 0.10867154D+01  1  2  5  5  6  2        1 -.116242730765D-03 0.100000000000D+01
  </mgrwgt>
  </event>
  <event>
  5     66 0.18540751E-05 0.56344961E+02 0.75467711E-02 0.90326722E-01
        1 -1    0    0  502    0 0.00000000E+00 0.00000000E+00 0.16794953E+04 0.16794953E+04 0.32000000E+00 0.0000E+00 0.9000E+01
        1 -1    0    0  501    0 -.00000000E+00 -.00000000E+00 -.19238372E+04 0.19238372E+04 0.32000000E+00 0.0000E+00 0.9000E+01
       25  1    1    2    0    0 -.28534916E+03 -.63744665E+03 0.67245922E+02 0.71267762E+03 0.12500000E+03 0.0000E+00 0.9000E+01
        1  1    1    2  501    0 0.23351883E+03 0.65955467E+03 -.15239982E+04 0.16769359E+04 0.32000000E+00 0.0000E+00 0.9000E+01
        1  1    1    2  502    0 0.51830331E+02 -.22108020E+02 0.12124103E+04 0.12137190E+04 0.32000000E+00 0.0000E+00 0.9000E+01
#aMCatNLO 1  0  0  5  2 0.31519258D+02 0.00000000D+00  -5  6  0 0.00000000D+00 0.00000000D+00 0.00000000D+00 0.00000000D+00 0.00000000D+00
  <mgrwgt>
 0.2078568576D-02    7    2    0
 0.179751928670396D+04 0.000000000000000D+00 0.000000000000000D+00 0.179751928670396D+04
 0.179751928670396D+04 -.000000000000000D+00 -.000000000000000D+00 -.179751928670396D+04
 0.718958376116862D+03 -.285366167796517D+03 -.637501184619174D+03 0.115907447883537D+03
 0.157723827283948D+04 0.233539045442186D+03 0.659607835961100D+03 -.141352664859999D+04
 0.129884192445158D+04 0.518271223543317D+02 -.221066513419262D+02 0.129761920071645D+04
 0.000000000000000D+00 0.000000000000000D+00 0.000000000000000D+00 0.000000000000000D+00
 0.179751928670396D+04 0.000000000000000D+00 0.000000000000000D+00 0.179751928670396D+04
 0.179751928670396D+04 -.000000000000000D+00 -.000000000000000D+00 -.179751928670396D+04
 0.719010638592213D+03 -.285353177726047D+03 -.637506725481675D+03 0.116232686177602D+03
 0.157659815072459D+04 0.233567536012549D+03 0.659595683422488D+03 -.141281331725024D+04
 0.808441911662640D+03 0.630289346054466D+01 -.316516168882739D+02 0.807797482798211D+03
 0.490987872428483D+03 0.454827482529536D+02 0.956265894746056D+01 0.488783148274428D+03
0.266016203122D-03 0.000000000000D+00 0.000000000000D+00 0.418349244857D-04 0.000000000000D+00  6 1 1 25 1 1 21 0 0.25838389D+00 0.29597496D+00 0.53701740D+06 0.53701740D+06 0.53701740D+06 0.10663251D+01  1  2  2  3  6  5        1 0.568293201027D-04 0.100000000000D+01
0.143943373999D-03 0.000000000000D+00 -.102157226366D-05 0.418349244857D-04 0.000000000000D+00  6 1 1 25 1 1 21 2 0.25838389D+00 0.29597496D+00 0.53701740D+06 0.53701740D+06 0.53701740D+06 0.10663251D+01  1  2  3  3  6  5        1 0.349651411498D-04 0.100000000000D+01
-.167644060823D-03 0.000000000000D+00 0.000000000000D+00 0.418349244857D-04 0.000000000000D+00  6 1 1 25 1 1 21 2 0.25838389D+00 0.29597496D+00 0.53701740D+06 0.53701740D+06 0.53701740D+06 0.10663251D+01  1  2 15  3  6  5        1 -.407222513044D-04 0.100000000000D+01
0.140020718381D-09 0.000000000000D+00 0.000000000000D+00 0.418349244857D-04 0.000000000000D+00  6 1 1 25 1 1 21 2 0.25838389D+00 0.29597496D+00 0.55356017D+06 0.55356017D+06 0.55356017D+06 0.10654009D+01  1  2 12  3  6  5        1 0.338596222178D-10 0.100000000000D+01
-.315217036110D-02 0.000000000000D+00 0.000000000000D+00 0.418349244857D-04 0.000000000000D+00  6 1 1 25 1 1 21 2 0.25838389D+00 0.29597496D+00 0.53701740D+06 0.53701740D+06 0.53701740D+06 0.10663251D+01  1  2  4  3  6  5        1 -.765690552764D-03 0.100000000000D+01
-.260093084604D-01 0.000000000000D+00 0.000000000000D+00 0.418349244857D-04 0.000000000000D+00  6 1 1 25 1 1 21 2 0.25838389D+00 0.29597496D+00 0.53701740D+06 0.53701740D+06 0.53701740D+06 0.10663251D+01  1  2  5  3  6  5        1 -.631789512961D-02 0.100000000000D+01
0.375082108312D-01 0.000000000000D+00 -.000000000000D+00 0.418349244857D-04 0.000000000000D+00  6 1 1 25 1 1 21 2 0.25838389D+00 0.29597496D+00 0.53701740D+06 0.53701740D+06 0.53701740D+06 0.10663251D+01  1  2  6  3  6  5        1 0.911108201478D-02 0.100000000000D+01
  </mgrwgt>
  </event>
  <event>
  6     66 0.18540751E-05 0.24333730E+02 0.75467711E-02 0.95197387E-01
        1 -1    0    0  502    0 0.00000000E+00 0.00000000E+00 0.16253926E+04 0.16253926E+04 0.32000000E+00 0.0000E+00 0.9000E+01
        1 -1    0    0  503    0 0.00000000E+00 0.00000000E+00 -.10477041E+04 0.10477041E+04 0.32000000E+00 0.0000E+00 0.9000E+01
       25  1    1    2    0    0 -.36542250E+03 -.27227453E+03 -.16658423E+03 0.50104124E+03 0.12500000E+03 0.0000E+00 0.9000E+01
        1  1    1    2  501    0 0.28701865E+02 -.18051591E+02 -.29009557E+03 0.29207054E+03 0.32000000E+00 0.0000E+00 0.9000E+01
        1  1    1    2  502    0 0.32340694E+03 0.27657002E+03 0.14258699E+04 0.14880148E+04 0.32000000E+00 0.0000E+00 0.9000E+01
       21  1    1    2  503  501 0.13313691E+02 0.13756101E+02 -.39150164E+03 0.39197013E+03 0.75000000E+00 0.0000E+00 0.9000E+01
#aMCatNLO 2  0  0  2  5 0.10181379D+03 0.00000000D+00  -5  6  0 0.00000000D+00 0.00000000D+00 0.00000000D+00 0.00000000D+00 0.00000000D+00
  <mgrwgt>
 0.4918511147D-02    1    2    0
 0.103245371690854D+04 0.000000000000000D+00 0.000000000000000D+00 0.103245371690854D+04
 0.103245371690854D+04 0.000000000000000D+00 0.000000000000000D+00 -.103245371690854D+04
 0.627536926582061D+03 -.361363332363786D+03 -.268081716081594D+03 -.419197244444362D+03
 0.458863049710409D+03 0.316593503045312D+02 -.149944258176860D+02 -.457523935026606D+03
 0.978507457524610D+03 0.329703982059255D+03 0.283076141899280D+03 0.876721179470968D+03
 0.000000000000000D+00 0.000000000000000D+00 0.000000000000000D+00 -.000000000000000D+00
 0.103264667884957D+04 0.000000000000000D+00 0.000000000000000D+00 0.103264667884957D+04
 0.164909242442439D+04 0.000000000000000D+00 0.000000000000000D+00 -.164909242442439D+04
 0.631679739956469D+03 -.365422706090769D+03 -.272275981303946D+03 -.419197244444362D+03
 0.458778533178367D+03 0.287011222002246D+02 -.180509547534677D+02 -.457523935026606D+03
 0.974537899964726D+03 0.323407892416801D+03 0.276570835514550D+03 0.876721179470968D+03
 0.616742930174401D+03 0.133136914737428D+02 0.137561005428633D+02 -.616445745574826D+03
0.412968202978D-02 0.000000000000D+00 0.000000000000D+00 0.294549806243D-04 0.766020015103D-06  6 1 1 25 1 1 21 2 0.25006035D+00 0.16118522D+00 0.22616113D+06 0.22616113D+06 0.22616113D+06 0.10937484D+01  1  2  1  2  6  2        1 0.491851114675D-02 0.100000000000D+01
  </mgrwgt>
  </event>
  <event>
  5     66 0.18540751E-05 0.18610344E+03 0.75467711E-02 0.93695481E-01
        1 -1    0    0  502    0 0.00000000E+00 0.00000000E+00 0.71462154E+03 0.71462161E+03 0.32000000E+00 0.0000E+00 0.9000E+01
        1 -1    0    0  501    0 -.00000000E+00 -.00000000E+00 -.10346696E+04 0.10346696E+04 0.32000000E+00 0.0000E+00 0.9000E+01
       25  1    1    2    0    0 -.20608875E+03 -.44105305E+03 -.12752237E+01 0.50262013E+03 0.12500000E+03 0.0000E+00 0.9000E+01
        1  1    1    2  501    0 -.14247676E+03 0.11968651E+03 -.64491367E+03 0.67122145E+03 0.32000000E+00 0.0000E+00 0.9000E+01
        1  1    1    2  502    0 0.34856552E+03 0.32136654E+03 0.32614085E+03 0.57544967E+03 0.32000000E+00 0.0000E+00 0.9000E+01
#aMCatNLO 1  0  0  5  1 0.19720116D+03 0.00000000D+00  -5  6  0 0.00000000D+00 0.00000000D+00 0.00000000D+00 0.00000000D+00 0.00000000D+00
  <mgrwgt>
 0.2265778151D-03    6    2    0
 0.859882131293620D+03 0.000000000000000D+00 0.000000000000000D+00 0.859882131293620D+03
 0.859882131293620D+03 -.000000000000000D+00 -.000000000000000D+00 -.859882131293620D+03
 0.511003922051174D+03 -.206039031017879D+03 -.441044433295939D+03 0.923457303158061D+02
 0.562796623180092D+03 -.142493742180221D+03 0.119708083799916D+03 -.531136091011845D+03
 0.645963717355974D+03 0.348532773198100D+03 0.321336349496023D+03 0.438790360696039D+03
 0.000000000000000D+00 0.000000000000000D+00 0.000000000000000D+00 0.000000000000000D+00
 0.859882131293620D+03 0.000000000000000D+00 0.000000000000000D+00 0.859882131293620D+03
 0.859882131293620D+03 -.000000000000000D+00 -.000000000000000D+00 -.859882131293620D+03
 0.491837995034127D+03 -.185173198324206D+03 -.421806786157463D+03 0.118615071272950D+03
 0.535266526581381D+03 -.119646669695854D+03 0.140772372249556D+03 -.502372439650525D+03
 0.396463099759905D+03 0.613014336112669D+02 0.112638633746668D+03 0.375150185787132D+03
 0.296196641211826D+03 0.243518434408793D+03 0.168395780161239D+03 0.860718259044256D+01
0.773360430827D-04 0.000000000000D+00 0.000000000000D+00 0.165108343153D-06 0.000000000000D+00  6 1 1 25 1 1 21 0 0.10994178D+00 0.15917995D+00 0.33799877D+06 0.33799877D+06 0.33799877D+06 0.10807406D+01  1  2  2  3  6  5        1 0.364641669231D-03 0.100000000000D+01
0.754369031263D-05 0.000000000000D+00 -.296990768485D-06 0.165108343153D-06 0.000000000000D+00  6 1 1 25 1 1 21 2 0.10994178D+00 0.15917995D+00 0.33799877D+06 0.33799877D+06 0.33799877D+06 0.10807406D+01  1  2  3  3  6  5        1 0.415442703727D-04 0.100000000000D+01
-.506657380649D-04 0.000000000000D+00 0.000000000000D+00 0.165108343153D-06 0.000000000000D+00  6 1 1 25 1 1 21 2 0.10994178D+00 0.15917995D+00 0.33799877D+06 0.33799877D+06 0.33799877D+06 0.10807406D+01  1  2 15  3  6  5        1 -.279024062968D-03 0.100000000000D+01
-.668275984833D-05 0.000000000000D+00 0.000000000000D+00 0.165108343153D-06 0.000000000000D+00  6 1 1 25 1 1 21 2 0.10994178D+00 0.15917995D+00 0.33799877D+06 0.33799877D+06 0.33799877D+06 0.10807406D+01  1  2  4  3  6  5        1 -.368029930272D-04 0.100000000000D+01
-.452548357448D-04 0.000000000000D+00 0.000000000000D+00 0.165108343153D-06 0.000000000000D+00  6 1 1 25 1 1 21 2 0.10994178D+00 0.15917995D+00 0.33799877D+06 0.33799877D+06 0.33799877D+06 0.10807406D+01  1  2  5  3  6  5        1 -.249225386242D-03 0.100000000000D+01
0.699897371998D-04 0.000000000000D+00 -.000000000000D+00 0.165108343153D-06 0.000000000000D+00  6 1 1 25 1 1 21 2 0.10994178D+00 0.15917995D+00 0.33799877D+06 0.33799877D+06 0.33799877D+06 0.10807406D+01  1  2  6  3  6  5        1 0.385444317707D-03 0.100000000000D+01
  </mgrwgt>
  </event>
  <event>
  5     66 -.18540751E-05 0.71902506E+02 0.75467711E-02 0.93209458E-01
        1 -1    0    0  502    0 0.00000000E+00 0.00000000E+00 0.20928744E+04 0.20928744E+04 0.32000000E+00 0.0000E+00 0.9000E+01
        1 -1    0    0  501    0 0.00000000E+00 0.00000000E+00 -.10024389E+04 0.10024390E+04 0.32000000E+00 0.0000E+00 0.9000E+01
       25  1    1    2    0    0 0.16257979E+03 0.52566426E+03 0.10313639E+04 0.11756240E+04 0.12500000E+03 0.0000E+00 0.9000E+01
        1  1    1    2  501    0 -.11537928E+03 -.47139787E+03 -.86552416E+03 0.99230061E+03 0.32000000E+00 0.0000E+00 0.9000E+01
        1  1    1    2  502    0 -.47200514E+02 -.54266396E+02 0.92459565E+03 0.92738878E+03 0.32000000E+00 0.0000E+00 0.9000E+01
#aMCatNLO 1  0  0  1  5 0.22396424D+02 0.00000000D+00  -5  6  0 0.00000000D+00 0.00000000D+00 0.00000000D+00 0.00000000D+00 0.00000000D+00
  <mgrwgt>
 -.1429806236D-01   11    2    0
 0.144844013243421D+04 0.000000000000000D+00 0.000000000000000D+00 0.144844013243421D+04
 0.144844013243421D+04 0.000000000000000D+00 0.000000000000000D+00 -.144844013243421D+04
 0.868082334460764D+03 0.162580529725217D+03 0.525701436200248D+03 0.659657116033864D+03
 0.138608932051218D+04 -.115392609569788D+03 -.471449519009374D+03 -.129833104450307D+04
 0.642708609895472D+03 -.471879201554293D+02 -.542519171908736D+02 0.638673928469206D+03
 0.000000000000000D+00 -.000000000000000D+00 -.000000000000000D+00 0.000000000000000D+00
 0.235397723609589D+04 0.000000000000000D+00 0.000000000000000D+00 0.235397723609589D+04
 0.144862190763017D+04 0.000000000000000D+00 0.000000000000000D+00 -.144862190763017D+04
 0.872326651792022D+03 0.165384338347345D+03 0.531816977278816D+03 0.659657116033864D+03
 0.138244568459558D+04 -.110932484174379D+03 -.461721294388078D+03 -.129833104450307D+04
 0.642194503046398D+03 -.451179340457724D+02 -.497369567239695D+02 0.638673928469206D+03
 0.905632304292060D+03 -.933392012719386D+01 -.203587261667686D+02 0.905355328465720D+03
0.436907351493D-04 0.000000000000D+00 0.000000000000D+00 0.246776784884D-04 0.000000000000D+00  6 1 1 25 1 1 21 0 0.32198068D+00 0.15422138D+00 0.31447147D+06 0.31447147D+06 0.31447147D+06 0.10830414D+01  1  2  2  1  6  1        1 0.224474718762D-04 0.100000000000D+01
0.101970150013D-04 0.000000000000D+00 -.167783927008D-06 0.246776784884D-04 0.000000000000D+00  6 1 1 25 1 1 21 2 0.32198068D+00 0.15422138D+00 0.31447147D+06 0.31447147D+06 0.31447147D+06 0.10830414D+01  1  2  3  1  6  1        1 0.614527392285D-05 0.100000000000D+01
-.300016086845D-04 0.000000000000D+00 0.000000000000D+00 0.246776784884D-04 0.000000000000D+00  6 1 1 25 1 1 21 2 0.32198068D+00 0.15422138D+00 0.31447147D+06 0.31447147D+06 0.31447147D+06 0.10830414D+01  1  2 15  1  6  1        1 -.180805954947D-04 0.100000000000D+01
0.139244769409D-08 0.000000000000D+00 0.000000000000D+00 0.246776784884D-04 0.000000000000D+00  6 1 1 25 1 1 21 2 0.52328820D+00 0.15422138D+00 0.32217171D+06 0.32217171D+06 0.32217171D+06 0.10822683D+01  1  2 12  1  6  1        1 0.946696296415D-10 0.100000000000D+01
0.407056567664D-01 0.000000000000D+00 0.000000000000D+00 0.246776784884D-04 0.000000000000D+00  6 1 1 25 1 1 21 2 0.54064484D+00 0.15422138D+00 0.32217171D+06 0.32217171D+06 0.32217171D+06 0.10822683D+01  1  2 12  1  6  1        1 0.223958149161D-02 0.100000000000D+01
-.624661300210D-01 0.000000000000D+00 0.000000000000D+00 0.246776784884D-04 0.000000000000D+00  6 1 1 25 1 1 21 2 0.32198068D+00 0.15422138D+00 0.31447147D+06 0.31447147D+06 0.31447147D+06 0.10830414D+01  1  2  4  1  6  1        1 -.376454756445D-01 0.100000000000D+01
-.449181934613D-01 0.000000000000D+00 -.223353544788D-04 0.246776784884D-04 0.000000000000D+00  6 1 1 25 1 1 21 2 0.52328877D+00 0.15422138D+00 0.31447147D+06 0.31447147D+06 0.31447147D+06 0.10830414D+01  1  2  5  1  6  1        1 -.306598187292D-02 0.100000000000D+01
0.401080440503D-01 0.000000000000D+00 0.199376520813D-04 0.246776784884D-04 0.000000000000D+00  6 1 1 25 1 1 21 2 0.32198068D+00 0.15422138D+00 0.31447147D+06 0.31447147D+06 0.31447147D+06 0.10830414D+01  1  2  6  1  6  1        1 0.241712812197D-01 0.100000000000D+01
0.767297703814D-10 0.000000000000D+00 0.000000000000D+00 0.246776784884D-04 0.000000000000D+00  6 21 1 25 1 1 -1 2 0.52328820D+00 0.15422138D+00 0.32217171D+06 0.32217171D+06 0.32217171D+06 0.10822683D+01  1  2 12  4  6  1        1 0.768287472131D-12 0.100000000000D+01
0.236190449803D-02 0.000000000000D+00 0.000000000000D+00 0.246776784884D-04 0.000000000000D+00  6 21 1 25 1 1 -1 2 0.54064484D+00 0.15422138D+00 0.32217171D+06 0.32217171D+06 0.32217171D+06 0.10822683D+01  1  2 12  4  6  1        1 0.169180819250D-04 0.100000000000D+01
-.247421285756D-02 0.000000000000D+00 -.123077487402D-05 0.246776784884D-04 0.000000000000D+00  6 21 1 25 1 1 -1 2 0.52328877D+00 0.15422138D+00 0.31447147D+06 0.31447147D+06 0.31447147D+06 0.10830414D+01  1  2  5  4  6  1        1 -.248978777339D-04 0.100000000000D+01
  </mgrwgt>
  </event>
  <event>
  5     66 0.18540751E-05 0.78001035E+02 0.75467711E-02 0.90421312E-01
        1 -1    0    0  502    0 0.00000000E+00 0.00000000E+00 0.12609781E+04 0.12609781E+04 0.32000000E+00 0.0000E+00 0.9000E+01
        1 -1    0    0  501    0 0.00000000E+00 0.00000000E+00 -.31301252E+04 0.31301252E+04 0.32000000E+00 0.0000E+00 0.9000E+01
       25  1    1    2    0    0 0.66321404E+03 0.45242420E+02 0.65076865E+03 0.93862909E+03 0.12500000E+03 0.0000E+00 0.9000E+01
        1  1    1    2  501    0 0.28243192E+02 0.72701703E+02 -.27215165E+04 0.27226339E+04 0.32000000E+00 0.0000E+00 0.9000E+01
        1  1    1    2  502    0 -.69145723E+03 -.11794412E+03 0.20160073E+03 0.72984031E+03 0.32000000E+00 0.0000E+00 0.9000E+01
#aMCatNLO 1  0  0  1  5 0.22309334D+02 0.00000000D+00  -5  6  0 0.00000000D+00 0.00000000D+00 0.00000000D+00 0.00000000D+00 0.00000000D+00
  <mgrwgt>
 0.1330993730D-02   11    2    0
 0.198671067959204D+04 0.000000000000000D+00 0.000000000000000D+00 0.198671067959204D+04
 0.198671067959204D+04 0.000000000000000D+00 0.000000000000000D+00 -.198671067959204D+04
 0.134351921775411D+04 0.663081495576872D+03 0.452144716539692D+02 0.116090372996697D+04
 0.172867639405534D+04 0.282452752866280D+02 0.727073985865708D+02 -.172691572289412D+04
 0.901225747374626D+03 -.691326770863500D+03 -.117921870240540D+03 0.566011992927157D+03
 0.000000000000000D+00 0.000000000000000D+00 -.000000000000000D+00 0.000000000000000D+00
 0.210165464310346D+04 0.000000000000000D+00 0.000000000000000D+00 0.210165464310346D+04
 0.198782478695732D+04 0.000000000000000D+00 0.000000000000000D+00 -.198782478695732D+04
 0.133994438460847D+04 0.655701877561675D+03 0.467282714706971D+02 0.116090372996697D+04
 0.172863032148276D+04 0.187375618600013D+02 0.746577400287823D+02 -.172691572289412D+04
 0.904909282050173D+03 -.696293704862264D+03 -.116902990433815D+03 0.566011992927157D+03
 0.115995441919382D+03 0.218542654405882D+02 -.448302106566459D+01 0.113829856146136D+03
0.613277318038D-03 0.000000000000D+00 0.000000000000D+00 0.460701077304D-05 0.000000000000D+00  6 1 1 25 1 1 21 0 0.19399663D+00 0.48155773D+00 0.52968322D+06 0.52968322D+06 0.52968322D+06 0.10667448D+01  1  2  2  1  6  1        1 0.356776957756D-04 0.100000000000D+01
0.273865813522D-03 0.000000000000D+00 -.235514638089D-05 0.460701077304D-05 0.000000000000D+00  6 1 1 25 1 1 21 2 0.19399663D+00 0.48155773D+00 0.52968322D+06 0.52968322D+06 0.52968322D+06 0.10667448D+01  1  2  3  1  6  1        1 0.181300395122D-04 0.100000000000D+01
-.403051982536D-03 0.000000000000D+00 0.000000000000D+00 0.460701077304D-05 0.000000000000D+00  6 1 1 25 1 1 21 2 0.19399663D+00 0.48155773D+00 0.52968322D+06 0.52968322D+06 0.52968322D+06 0.10667448D+01  1  2 15  1  6  1        1 -.266822217599D-04 0.100000000000D+01
0.442822871328D-08 0.000000000000D+00 0.000000000000D+00 0.460701077304D-05 0.000000000000D+00  6 1 1 25 1 1 21 2 0.20528163D+00 0.48155773D+00 0.54351213D+06 0.54351213D+06 0.54351213D+06 0.10659586D+01  1  2 12  1  6  1        1 0.259348369370D-09 0.100000000000D+01
0.679007642914D-01 0.000000000000D+00 0.000000000000D+00 0.460701077304D-05 0.000000000000D+00  6 1 1 25 1 1 21 2 0.20587811D+00 0.48155773D+00 0.54351213D+06 0.54351213D+06 0.54351213D+06 0.10659586D+01  1  2 12  1  6  1        1 0.395214461522D-02 0.100000000000D+01
-.489861347107D-01 0.000000000000D+00 0.000000000000D+00 0.460701077304D-05 0.000000000000D+00  6 1 1 25 1 1 21 2 0.19399663D+00 0.48155773D+00 0.52968322D+06 0.52968322D+06 0.52968322D+06 0.10667448D+01  1  2  4  1  6  1        1 -.324290405740D-02 0.100000000000D+01
-.811902583533D-01 0.000000000000D+00 -.233496322658D-02 0.460701077304D-05 0.000000000000D+00  6 1 1 25 1 1 21 2 0.20526560D+00 0.48155773D+00 0.52968322D+06 0.52968322D+06 0.52968322D+06 0.10667448D+01  1  2  5  1  6  1        1 -.477598806713D-02 0.100000000000D+01
0.811963481861D-01 0.000000000000D+00 0.233124602396D-02 0.460701077304D-05 0.000000000000D+00  6 1 1 25 1 1 21 2 0.19399663D+00 0.48155773D+00 0.52968322D+06 0.52968322D+06 0.52968322D+06 0.10667448D+01  1  2  6  1  6  1        1 0.537523461555D-02 0.100000000000D+01
0.716239475592D-10 0.000000000000D+00 0.000000000000D+00 0.460701077304D-05 0.000000000000D+00  6 21 1 25 1 1 -1 2 0.20528163D+00 0.48155773D+00 0.54351213D+06 0.54351213D+06 0.54351213D+06 0.10659586D+01  1  2 12  4  6  1        1 0.372926864633D-11 0.100000000000D+01
0.114984063797D-02 0.000000000000D+00 0.000000000000D+00 0.460701077304D-05 0.000000000000D+00  6 21 1 25 1 1 -1 2 0.20587811D+00 0.48155773D+00 0.54351213D+06 0.54351213D+06 0.54351213D+06 0.10659586D+01  1  2 12  4  6  1        1 0.592642485827D-04 0.100000000000D+01
-.122017792505D-02 0.000000000000D+00 -.227561307415D-04 0.460701077304D-05 0.000000000000D+00  6 21 1 25 1 1 -1 2 0.20526560D+00 0.48155773D+00 0.52968322D+06 0.52968322D+06 0.52968322D+06 0.10667448D+01  1  2  5  4  6  1        1 -.638834009254D-04 0.100000000000D+01
  </mgrwgt>
  </event>
  <event>
  6     66 -.18540751E-05 0.27077490E+03 0.75467711E-02 0.89865717E-01
        1 -1    0    0  503    0 0.00000000E+00 0.00000000E+00 0.30933191E+04 0.30933192E+04 0.32000000E+00 0.0000E+00 0.9000E+01
        1 -1    0    0  501    0 0.00000000E+00 0.00000000E+00 -.15167338E+04 0.15167339E+04 0.32000000E+00 0.0000E+00 0.9000E+01
       25  1    1    2    0    0 0.43747903E+03 -.26085014E+03 -.24882950E+03 0.58049273E+03 0.12500000E+03 0.0000E+00 0.9000E+01
        1  1    1    2  501    0 0.24610502E+03 0.18457994E+03 -.10345167E+04 0.10792879E+04 0.32000000E+00 0.0000E+00 0.9000E+01
        1  1    1    2  502    0 -.65050298E+03 0.10387434E+02 0.25885349E+04 0.26690401E+04 0.32000000E+00 0.0000E+00 0.9000E+01
       21  1    1    2  503  502 -.33081059E+02 0.65882763E+02 0.27139663E+03 0.28123227E+03 0.75000000E+00 0.0000E+00 0.9000E+01
#aMCatNLO 2  0  0  1  5 0.73721740D+02 0.00000000D+00  -5  6  0 0.00000000D+00 0.00000000D+00 0.00000000D+00 0.00000000D+00 0.00000000D+00
  <mgrwgt>
 -.7163698840D-04    6    2    0
 0.206335507757994D+04 0.000000000000000D+00 0.000000000000000D+00 0.206335507757994D+04
 0.206335507757994D+04 0.000000000000000D+00 0.000000000000000D+00 -.206335507757994D+04
 0.679941622236050D+03 0.431995431284428D+03 -.249938590640343D+03 -.444529254275905D+03
 0.146032809936134D+04 0.234406661864635D+03 0.207885724329855D+03 -.142632226382316D+04
 0.198644043356250D+04 -.666402093149063D+03 0.420528663104874D+02 0.187085151809907D+04
 0.000000000000000D+00 -.000000000000000D+00 0.000000000000000D+00 0.000000000000000D+00
 0.226610630396166D+04 0.000000000000000D+00 0.000000000000000D+00 0.226610630396166D+04
 0.207039663469612D+04 0.000000000000000D+00 0.000000000000000D+00 -.207039663469612D+04
 0.687503388770188D+03 0.437475937445089D+03 -.260853322424578D+03 -.444529254275905D+03
 0.145912129961048D+04 0.246107359361077D+03 0.184583136736971D+03 -.142632226382316D+04
 0.198074391639225D+04 -.650502237509233D+03 0.103874225304048D+02 0.187085151809907D+04
 0.209134333884858D+03 -.330810592969331D+02 0.658827631572016D+02 0.195709669265543D+03
-.441066865603D-08 0.000000000000D+00 0.000000000000D+00 0.896181503147D-06 0.000000000000D+00  6 1 1 25 1 1 21 2 0.47692322D+00 0.23254998D+00 0.60559462D+06 0.60559462D+06 0.60559462D+06 0.10626786D+01  1  2 13  1  6  1        1 -.202169835413D-09 0.100000000000D+01
-.196801570161D-01 0.000000000000D+00 0.000000000000D+00 0.896181503147D-06 0.000000000000D+00  6 1 1 25 1 1 21 2 0.50201281D+00 0.23254998D+00 0.60559462D+06 0.60559462D+06 0.60559462D+06 0.10626786D+01  1  2 13  1  6  1        1 -.674237186837D-03 0.100000000000D+01
-.844709473401D-04 0.000000000000D+00 0.000000000000D+00 0.896181503147D-06 0.000000000000D+00  6 1 1 25 1 1 21 2 0.43331620D+00 0.23254998D+00 0.55916095D+06 0.55916095D+06 0.55916095D+06 0.10650948D+01  1  2  8  1  6  1        1 -.638038182802D-05 0.100000000000D+01
-.319795611080D-04 0.000000000000D+00 0.000000000000D+00 0.896181503147D-06 0.000000000000D+00  6 1 1 25 1 1 21 2 0.47630781D+00 0.23254998D+00 0.55916095D+06 0.55916095D+06 0.55916095D+06 0.10650948D+01  1  2  9  1  6  1        1 -.149601513069D-05 0.100000000000D+01
0.318370079022D-04 0.000000000000D+00 0.000000000000D+00 0.896181503147D-06 0.000000000000D+00  6 1 1 25 1 1 21 2 0.43331620D+00 0.23254998D+00 0.55916095D+06 0.55916095D+06 0.55916095D+06 0.10650948D+01  1  2 10  1  6  1        1 0.240475895055D-05 0.100000000000D+01
0.132174761139D-01 0.000000000000D+00 0.000000000000D+00 0.896181503147D-06 0.903018871820D-09  6 1 1 25 1 1 21 2 0.47589510D+00 0.23334359D+00 0.60559462D+06 0.60559462D+06 0.60559462D+06 0.10626786D+01  1  2  1  1  6  1        1 0.608072038618D-03 0.100000000000D+01
  </mgrwgt>
  </event>
  <event>
  5     66 0.18540751E-05 0.53935146E+02 0.75467711E-02 0.93947754E-01
        1 -1    0    0  502    0 0.00000000E+00 0.00000000E+00 0.85859898E+03 0.85859904E+03 0.32000000E+00 0.0000E+00 0.9000E+01
        1 -1    0    0  501    0 -.00000000E+00 -.00000000E+00 -.21225209E+04 0.21225209E+04 0.32000000E+00 0.0000E+00 0.9000E+01
       25  1    1    2    0    0 -.43482530E+03 0.30377676E+03 0.58911551E+02 0.54813222E+03 0.12500000E+03 0.0000E+00 0.9000E+01
        1  1    1    2  501    0 -.53705947E+02 0.49065404E+01 -.17269693E+04 0.17278112E+04 0.32000000E+00 0.0000E+00 0.9000E+01
        1  1    1    2  502    0 0.48853125E+03 -.30868331E+03 0.40413580E+03 0.70517658E+03 0.32000000E+00 0.0000E+00 0.9000E+01
#aMCatNLO 1  0  0  5  1 0.30695197D+02 0.00000000D+00  -5  6  0 0.00000000D+00 0.00000000D+00 0.00000000D+00 0.00000000D+00 0.00000000D+00
  <mgrwgt>
 0.1273282619D-02    4    2    0
 0.134996088807730D+04 0.000000000000000D+00 0.000000000000000D+00 0.134996088807730D+04
 0.134996088807730D+04 -.000000000000000D+00 -.000000000000000D+00 -.134996088807730D+04
 0.632818127810083D+03 -.434779691820791D+03 0.303751011837490D+03 0.321769677367176D+03
 0.109937282505632D+04 -.537114671588424D+02 0.490696347754911D+01 -.109804900094549D+04
 0.967730823288197D+03 0.488491158979633D+03 -.308657975315039D+03 0.776279323578315D+03
 0.000000000000000D+00 0.000000000000000D+00 0.000000000000000D+00 -.000000000000000D+00
 0.134996088807730D+04 0.000000000000000D+00 0.000000000000000D+00 0.134996088807730D+04
 0.134996088807730D+04 -.000000000000000D+00 -.000000000000000D+00 -.134996088807730D+04
 0.631584249663783D+03 -.383780260624868D+03 0.271526516294862D+03 0.402814755100714D+03
 0.967220394239670D+03 0.296441802008336D+02 -.477621276045778D+02 -.965585466326025D+03
 0.876954585139573D+03 0.401231709379433D+03 -.143092237953028D+03 0.766542282736819D+03
 0.224162547111575D+03 -.470956289553995D+02 -.806721507372570D+02 -.203771571511508D+03
0.268714582243D-02 0.000000000000D+00 0.000000000000D+00 0.174142249308D-04 0.000000000000D+00  6 1 1 25 1 1 21 0 0.13209216D+00 0.32654168D+00 0.34614200D+06 0.34614200D+06 0.34614200D+06 0.10799847D+01  1  2  2  3  6  5        1 0.170441052815D-02 0.100000000000D+01
0.134360911849D-02 0.000000000000D+00 -.103193474999D-04 0.174142249308D-04 0.000000000000D+00  6 1 1 25 1 1 21 2 0.13209216D+00 0.32654168D+00 0.34614200D+06 0.34614200D+06 0.34614200D+06 0.10799847D+01  1  2  3  3  6  5        1 0.994010855443D-03 0.100000000000D+01
-.192128414167D-02 0.000000000000D+00 0.000000000000D+00 0.174142249308D-04 0.000000000000D+00  6 1 1 25 1 1 21 2 0.13209216D+00 0.32654168D+00 0.34614200D+06 0.34614200D+06 0.34614200D+06 0.10799847D+01  1  2 15  3  6  5        1 -.142137863381D-02 0.100000000000D+01
-.508258574282D-05 0.000000000000D+00 0.000000000000D+00 0.174142249308D-04 0.000000000000D+00  6 1 1 25 1 1 21 2 0.13209216D+00 0.32654168D+00 0.34614200D+06 0.34614200D+06 0.34614200D+06 0.10799847D+01  1  2  4  3  6  5        1 -.376013033297D-05 0.100000000000D+01
  </mgrwgt>
  </event>
  <event>
  5     66 0.18540751E-05 0.10841003E+03 0.75467711E-02 0.94490787E-01
        1 -1    0    0  502    0 0.00000000E+00 0.00000000E+00 0.41886047E+04 0.41886047E+04 0.32000000E+00 0.0000E+00 0.9000E+01
        1 -1    0    0  501    0 0.00000000E+00 0.00000000E+00 -.39652442E+03 0.39652455E+03 0.32000000E+00 0.0000E+00 0.9000E+01
       25  1    1    2    0    0 0.45958170E+03 0.18582530E+03 0.45780467E+03 0.68626270E+03 0.12500000E+03 0.0000E+00 0.9000E+01
        1  1    1    2  501    0 -.86025090E+02 -.65957956E+02 -.26080877E+03 0.28243953E+03 0.32000000E+00 0.0000E+00 0.9000E+01
        1  1    1    2  502    0 -.37355661E+03 -.11986735E+03 0.35950844E+04 0.36164271E+04 0.32000000E+00 0.0000E+00 0.9000E+01
#aMCatNLO 1  0  0  5  1 0.11342862D+02 0.00000000D+00  -5  6  0 0.00000000D+00 0.00000000D+00 0.00000000D+00 0.00000000D+00 0.00000000D+00
  <mgrwgt>
 0.1088634836D-01    8    2    0
 0.128875304178773D+04 0.000000000000000D+00 0.000000000000000D+00 0.128875304178773D+04
 0.128875304178773D+04 -.000000000000000D+00 -.000000000000000D+00 -.128875304178773D+04
 0.547241484430898D+03 0.459582064318187D+03 0.185828386361332D+03 -.195193184464801D+03
 0.886181310118126D+03 -.860324406632225D+02 -.659632823644892D+02 -.879525200853227D+03
 0.114408328902643D+04 -.373549623654965D+03 -.119865103996843D+03 0.107471838531803D+04
 0.000000000000000D+00 -.000000000000000D+00 0.000000000000000D+00 0.000000000000000D+00
 0.128875304178773D+04 0.000000000000000D+00 0.000000000000000D+00 0.128875304178773D+04
 0.128875304178773D+04 -.000000000000000D+00 -.000000000000000D+00 -.128875304178773D+04
 0.547156353760201D+03 0.459538954998867D+03 0.185814553385159D+03 -.195069157093021D+03
 0.885990429228949D+03 -.861022481086823D+02 -.659856822711681D+02 -.879324361820561D+03
 0.102906666979742D+04 -.325270929597571D+03 -.107592831538133D+03 0.970361178040571D+03
 0.115292630788884D+03 -.481657772926142D+02 -.122360395758578D+02 0.104032340873011D+03
0.107609195123D-02 0.000000000000D+00 0.000000000000D+00 0.269585428225D-04 0.000000000000D+00  6 1 1 25 1 1 21 0 0.64440074D+00 0.61003769D-01 0.25601890D+06 0.25601890D+06 0.25601890D+06 0.10896827D+01  1  2  2  3  6  5        1 0.519541985569D-04 0.100000000000D+01
0.231020066230D-03 0.000000000000D+00 -.413247643423D-05 0.269585428225D-04 0.000000000000D+00  6 1 1 25 1 1 21 2 0.64440074D+00 0.61003769D-01 0.25601890D+06 0.25601890D+06 0.25601890D+06 0.10896827D+01  1  2  3  3  6  5        1 0.132440578954D-04 0.100000000000D+01
-.689827930965D-03 0.000000000000D+00 0.000000000000D+00 0.269585428225D-04 0.000000000000D+00  6 1 1 25 1 1 21 2 0.64440074D+00 0.61003769D-01 0.25601890D+06 0.25601890D+06 0.25601890D+06 0.10896827D+01  1  2 15  3  6  5        1 -.395468722896D-04 0.100000000000D+01
0.141689961332D-07 0.000000000000D+00 0.000000000000D+00 0.269585428225D-04 0.000000000000D+00  6 1 1 25 1 1 21 2 0.64440074D+00 0.61003769D-01 0.25602649D+06 0.25602649D+06 0.25602649D+06 0.10896817D+01  1  2 12  3  6  5        1 0.812284801684D-09 0.100000000000D+01
0.433410560743D+00 0.000000000000D+00 0.000000000000D+00 0.269585428225D-04 0.000000000000D+00  6 1 1 25 1 1 21 2 0.64440074D+00 0.61003769D-01 0.25602649D+06 0.25602649D+06 0.25602649D+06 0.10896817D+01  1  2 12  3  6  5        1 0.248467010699D-01 0.100000000000D+01
-.291662078075D+00 0.000000000000D+00 0.000000000000D+00 0.269585428225D-04 0.000000000000D+00  6 1 1 25 1 1 21 2 0.64440074D+00 0.61003769D-01 0.25601890D+06 0.25601890D+06 0.25601890D+06 0.10896827D+01  1  2  4  3  6  5        1 -.167205797789D-01 0.100000000000D+01
-.450756935739D+00 0.000000000000D+00 0.000000000000D+00 0.269585428225D-04 0.000000000000D+00  6 1 1 25 1 1 21 2 0.64440074D+00 0.61003769D-01 0.25601890D+06 0.25601890D+06 0.25601890D+06 0.10896827D+01  1  2  5  3  6  5        1 -.258412658739D-01 0.100000000000D+01
0.498456943787D+00 0.000000000000D+00 -.000000000000D+00 0.269585428225D-04 0.000000000000D+00  6 1 1 25 1 1 21 2 0.64440074D+00 0.61003769D-01 0.25601890D+06 0.25601890D+06 0.25601890D+06 0.10896827D+01  1  2  6  3  6  5        1 0.285758407466D-01 0.100000000000D+01
  </mgrwgt>
  </event>
  <event>
  5     66 -.18540751E-05 0.99037374E+02 0.75467711E-02 0.93557714E-01
        1 -1    0    0  502    0 0.00000000E+00 0.00000000E+00 0.19101670E+04 0.19101670E+04 0.32000000E+00 0.0000E+00 0.9000E+01
        1 -1    0    0  501    0 0.00000000E+00 0.00000000E+00 -.20142217E+04 0.20142217E+04 0.32000000E+00 0.0000E+00 0.9000E+01
       25  1    1    2    0    0 0.50385293E+03 0.12695711E+03 -.19464251E+03 0.56876760E+03 0.12500000E+03 0.0000E+00 0.9000E+01
        1  1    1    2  501    0 -.39634904E+02 -.90754644E+02 -.15995011E+04 0.16025639E+04 0.32000000E+00 0.0000E+00 0.9000E+01
        1  1    1    2  502    0 -.46421802E+03 -.36202467E+02 0.16900889E+04 0.17530572E+04 0.32000000E+00 0.0000E+00 0.9000E+01
#aMCatNLO 1  0  0  1  5 0.16533739D+01 0.00000000D+00  -5  6  0 0.00000000D+00 0.00000000D+00 0.00000000D+00 0.00000000D+00 0.00000000D+00
  <mgrwgt>
 -.6443202072D-02   13    2    0
 0.196150449247519D+04 0.000000000000000D+00 0.000000000000000D+00 0.196150449247519D+04
 0.196150449247519D+04 0.000000000000000D+00 0.000000000000000D+00 -.196150449247519D+04
 0.563788354879782D+03 0.503850942759909D+03 0.126961627782356D+03 -.179575281285752D+03
 0.156073554371519D+04 -.396372849209020D+02 -.907595011642757D+02 -.155759013736235D+04
 0.179848508635540D+04 -.464213657839007D+03 -.362021266180805D+02 0.173716541864811D+04
 0.000000000000000D+00 -.000000000000000D+00 0.000000000000000D+00 0.000000000000000D+00
 0.202414732107187D+04 0.000000000000000D+00 0.000000000000000D+00 0.202414732107187D+04
 0.196151557636168D+04 0.000000000000000D+00 0.000000000000000D+00 -.196151557636168D+04
 0.564000334207739D+03 0.504088592003166D+03 0.126959783986310D+03 -.179575281285752D+03
 0.156071927423783D+04 -.389795275036430D+02 -.907646043596779D+02 -.155759013736235D+04
 0.179828972491661D+04 -.463455740313910D+03 -.362080069033160D+02 0.173716541864811D+04
 0.626535640713651D+02 -.165332418561305D+01 0.128272766841270D-01 0.626317447101938D+02
0.141159151912D-03 0.000000000000D+00 0.000000000000D+00 0.153428543451D-03 0.000000000000D+00  6 1 1 25 1 1 21 0 0.29387185D+00 0.30988026D+00 0.30199722D+06 0.30199722D+06 0.30199722D+06 0.10843387D+01  1  2  2  1  6  1        1 0.194518336186D-04 0.100000000000D+01
0.412780072219D-04 0.000000000000D+00 -.542088311400D-06 0.153428543451D-03 0.000000000000D+00  6 1 1 25 1 1 21 2 0.29387185D+00 0.30988026D+00 0.30199722D+06 0.30199722D+06 0.30199722D+06 0.10843387D+01  1  2  3  1  6  1        1 0.668806012919D-05 0.100000000000D+01
-.938404295963D-04 0.000000000000D+00 0.000000000000D+00 0.153428543451D-03 0.000000000000D+00  6 1 1 25 1 1 21 2 0.29387185D+00 0.30988026D+00 0.30199722D+06 0.30199722D+06 0.30199722D+06 0.10843387D+01  1  2 15  1  6  1        1 -.152044751655D-04 0.100000000000D+01
0.122223895529D-12 0.000000000000D+00 0.000000000000D+00 0.153428543451D-03 0.000000000000D+00  6 1 1 25 1 1 21 2 0.30325801D+00 0.30988026D+00 0.30247282D+06 0.30247282D+06 0.30247282D+06 0.10842882D+01  1  2 12  1  6  1        1 0.180325098672D-13 0.100000000000D+01
0.140785066134D-03 0.000000000000D+00 0.000000000000D+00 0.153428543451D-03 0.000000000000D+00  6 1 1 25 1 1 21 2 0.30331089D+00 0.30988026D+00 0.30247282D+06 0.30247282D+06 0.30247282D+06 0.10842882D+01  1  2 12  1  6  1        1 0.207600259938D-04 0.100000000000D+01
-.286820919565D+01 0.000000000000D+00 0.000000000000D+00 0.153428543451D-03 0.000000000000D+00  6 1 1 25 1 1 21 2 0.29387185D+00 0.30988026D+00 0.30199722D+06 0.30199722D+06 0.30199722D+06 0.10843387D+01  1  2  4  1  6  1        1 -.464720970188D+00 0.100000000000D+01
-.232387226852D+01 0.000000000000D+00 -.834284122877D-03 0.153428543451D-03 0.000000000000D+00  6 1 1 25 1 1 21 2 0.30325756D+00 0.30988026D+00 0.30199722D+06 0.30199722D+06 0.30199722D+06 0.10843387D+01  1  2  5  1  6  1        1 -.342945531105D+00 0.100000000000D+01
0.232275092109D+01 0.000000000000D+00 0.833871992875D-03 0.153428543451D-03 0.000000000000D+00  6 1 1 25 1 1 21 2 0.29387185D+00 0.30988026D+00 0.30199722D+06 0.30199722D+06 0.30199722D+06 0.10843387D+01  1  2  6  1  6  1        1 0.376343212061D+00 0.100000000000D+01
0.287959953212D+01 0.000000000000D+00 0.000000000000D+00 0.153428543451D-03 0.437571614157D-03  6 1 1 25 1 1 21 2 0.30325697D+00 0.30988201D+00 0.30247282D+06 0.30247282D+06 0.30247282D+06 0.10842882D+01  1  2 11  1  6  1        1 0.424843558573D+00 0.100000000000D+01
0.410972348692D-14 0.000000000000D+00 0.000000000000D+00 0.153428543451D-03 0.000000000000D+00  6 21 1 25 1 1 -1 2 0.30325801D+00 0.30988026D+00 0.30247282D+06 0.30247282D+06 0.30247282D+06 0.10842882D+01  1  2 12  4  6  1        1 0.312912617828D-15 0.100000000000D+01
0.475887457261D-05 0.000000000000D+00 0.000000000000D+00 0.153428543451D-03 0.000000000000D+00  6 21 1 25 1 1 -1 2 0.30331089D+00 0.30988026D+00 0.30247282D+06 0.30247282D+06 0.30247282D+06 0.10842882D+01  1  2 12  4  6  1        1 0.362046971959D-06 0.100000000000D+01
-.130787256704D-01 0.000000000000D+00 -.469402473925D-05 0.153428543451D-03 0.000000000000D+00  6 21 1 25 1 1 -1 2 0.30325756D+00 0.30988026D+00 0.30199722D+06 0.30199722D+06 0.30199722D+06 0.10843387D+01  1  2  5  4  6  1        1 -.996146504302D-03 0.100000000000D+01
0.131419076198D-01 0.000000000000D+00 0.000000000000D+00 0.153428543451D-03 0.199360267186D-05  6 21 1 25 1 1 -1 2 0.30325697D+00 0.30988201D+00 0.30247282D+06 0.30247282D+06 0.30247282D+06 0.10842882D+01  1  2 11  4  6  1        1 0.100061759949D-02 0.100000000000D+01
  </mgrwgt>
  </event>
  <event>
  5     66 0.18540751E-05 0.19599371E+03 0.75467711E-02 0.89124998E-01
        1 -1    0    0  502    0 0.00000000E+00 0.00000000E+00 0.11488549E+04 0.11488550E+04 0.32000000E+00 0.0000E+00 0.9000E+01
        1 -1    0    0  501    0 0.00000000E+00 0.00000000E+00 -.10218343E+04 0.10218344E+04 0.32000000E+00 0.0000E+00 0.9000E+01
       25  1    1    2    0    0 0.15684385E+03 -.52714523E+03 0.11021140E+03 0.57467698E+03 0.12500000E+03 0.0000E+00 0.9000E+01
        1  1    1    2  501    0 -.16471221E+02 0.19527285E+03 -.73587429E+03 0.76152075E+03 0.32000000E+00 0.0000E+00 0.9000E+01
        1  1    1    2  502    0 -.14037263E+03 0.33187237E+03 0.75268347E+03 0.83449161E+03 0.32000000E+00 0.0000E+00 0.9000E+01
#aMCatNLO 1  0  0  5  1 0.44222707D+02 0.00000000D+00  -5  6  0 0.00000000D+00 0.00000000D+00 0.00000000D+00 0.00000000D+00 0.00000000D+00
  <mgrwgt>
 0.7552798903D-03    4    2    0
 0.108348489008688D+04 0.000000000000000D+00 0.000000000000000D+00 0.108348489008688D+04
 0.108348489008688D+04 -.000000000000000D+00 -.000000000000000D+00 -.108348489008688D+04
 0.569214096703661D+03 0.156834293850591D+03 -.527142388030577D+03 0.768348547208348D+02
 0.806023338778241D+03 -.164743953281105D+02 0.195300102867000D+03 -.781831239318266D+03
 0.791732344691862D+03 -.140359898522480D+03 0.331842285163577D+03 0.704996384597431D+03
 0.000000000000000D+00 0.000000000000000D+00 0.000000000000000D+00 -.000000000000000D+00
 0.108348489008688D+04 0.000000000000000D+00 0.000000000000000D+00 0.108348489008688D+04
 0.108348489008688D+04 -.000000000000000D+00 -.000000000000000D+00 -.108348489008688D+04
 0.540262889162326D+03 0.128402714466486D+03 -.459923756691084D+03 0.219640320421416D+03
 0.659896902905188D+03 -.540402288272686D+02 0.284114159899382D+03 -.593146457695588D+03
 0.448784919870261D+03 -.353913955664914D+03 -.212843415026419D+03 0.175643095419266D+03
 0.518025068235989D+03 0.279551470025697D+03 0.388653011818121D+03 0.197863041854905D+03
0.103846130025D-02 0.000000000000D+00 0.000000000000D+00 0.178580604699D-05 0.000000000000D+00  6 1 1 25 1 1 21 0 0.17674692D+00 0.15720529D+00 0.31377023D+06 0.31377023D+06 0.31377023D+06 0.10831128D+01  1  2  2  3  6  5        1 0.224554050342D-02 0.100000000000D+01
0.130084526823D-03 0.000000000000D+00 -.398796482611D-05 0.178580604699D-05 0.000000000000D+00  6 1 1 25 1 1 21 2 0.17674692D+00 0.15720529D+00 0.31377023D+06 0.31377023D+06 0.31377023D+06 0.10831128D+01  1  2  3  3  6  5        1 0.329992147771D-03 0.100000000000D+01
-.710116006216D-03 0.000000000000D+00 0.000000000000D+00 0.178580604699D-05 0.000000000000D+00  6 1 1 25 1 1 21 2 0.17674692D+00 0.15720529D+00 0.31377023D+06 0.31377023D+06 0.31377023D+06 0.10831128D+01  1  2 15  3  6  5        1 -.180138800348D-02 0.100000000000D+01
-.743658008831D-05 0.000000000000D+00 0.000000000000D+00 0.178580604699D-05 0.000000000000D+00  6 1 1 25 1 1 21 2 0.17674692D+00 0.15720529D+00 0.31377023D+06 0.31377023D+06 0.31377023D+06 0.10831128D+01  1  2  4  3  6  5        1 -.188647573646D-04 0.100000000000D+01
  </mgrwgt>
  </event>
  <event>
  6     66 0.18540751E-05 0.53877114E+02 0.75467711E-02 0.93226138E-01
        1 -1    0    0  503    0 0.00000000E+00 0.00000000E+00 0.18678026E+04 0.18678026E+04 0.32000000E+00 0.0000E+00 0.9000E+01
        1 -1    0    0  501    0 0.00000000E+00 0.00000000E+00 -.55182400E+03 0.55182410E+03 0.32000000E+00 0.0000E+00 0.9000E+01
       25  1    1    2    0    0 0.31786949E+03 0.38198348E+03 -.34970096E+02 0.51361493E+03 0.12500000E+03 0.0000E+00 0.9000E+01
        1  1    1    2  501    0 -.65906297E+02 0.65807617E+02 -.22290095E+03 0.24157652E+03 0.32000000E+00 0.0000E+00 0.9000E+01
        1  1    1    2  502    0 -.17367728E+03 -.40031764E+03 0.11319113E+04 0.12131122E+04 0.32000000E+00 0.0000E+00 0.9000E+01
       21  1    1    2  503  502 -.78285913E+02 -.47473461E+02 0.44193831E+03 0.45132300E+03 0.75000000E+00 0.0000E+00 0.9000E+01
#aMCatNLO 2  0  0  1  5 0.91555523D+02 0.00000000D+00  -5  6  0 0.00000000D+00 0.00000000D+00 0.00000000D+00 0.00000000D+00 0.00000000D+00
  <mgrwgt>
 0.1138760890D-02    3    2    0
 0.880609252735129D+03 0.000000000000000D+00 0.000000000000000D+00 0.880609252735129D+03
 0.880609252735129D+03 0.000000000000000D+00 0.000000000000000D+00 -.880609252735129D+03
 0.566930261432570D+03 0.292162785947726D+03 0.366392304586377D+03 -.293568572866969D+03
 0.381763086098646D+03 -.828285942879146D+02 0.555473211142534D+02 -.368506408347101D+03
 0.812525157939042D+03 -.209334191659812D+03 -.421939625700630D+03 0.662074981214070D+03
 0.000000000000000D+00 -.000000000000000D+00 -.000000000000000D+00 0.000000000000000D+00
 0.115891976880923D+04 0.000000000000000D+00 0.000000000000000D+00 0.115891976880923D+04
 0.889360349558583D+03 0.000000000000000D+00 0.000000000000000D+00 -.889360349558583D+03
 0.590558429333569D+03 0.317870534073320D+03 0.381981773190456D+03 -.293568572866969D+03
 0.380094120985222D+03 -.659077955417799D+02 0.658082844440669D+02 -.368506408347101D+03
 0.792944069601058D+03 -.173676825109064D+03 -.400316596190955D+03 0.662074981214070D+03
 0.284683498447964D+03 -.782859134224767D+02 -.474734614435676D+02 0.269559419250647D+03
-.510351076769D-08 0.000000000000D+00 0.000000000000D+00 0.111420038464D-05 0.000000000000D+00  6 1 1 25 1 1 21 2 0.28983422D+00 0.84060607D-01 0.32119610D+06 0.32119610D+06 0.32119610D+06 0.10823651D+01  1  2 13  1  6  1        1 -.109507421173D-07 0.100000000000D+01
-.733997902136D-03 0.000000000000D+00 0.000000000000D+00 0.111420038464D-05 0.000000000000D+00  6 1 1 25 1 1 21 2 0.30074798D+00 0.84060607D-01 0.32119610D+06 0.32119610D+06 0.32119610D+06 0.10823651D+01  1  2 13  1  6  1        1 -.141279820877D-02 0.100000000000D+01
0.117667808922D-02 0.000000000000D+00 0.000000000000D+00 0.111420038464D-05 0.258605233799D-08  6 1 1 25 1 1 21 2 0.28735409D+00 0.84895963D-01 0.32119610D+06 0.32119610D+06 0.32119610D+06 0.10823651D+01  1  2  1  1  6  1        1 0.255157004992D-02 0.100000000000D+01
  </mgrwgt>
  </event>
  <event>
  5     66 0.18540751E-05 0.56962880E+02 0.75467711E-02 0.93497833E-01
        1 -1    0    0  502    0 0.00000000E+00 0.00000000E+00 0.43716572E+03 0.43716584E+03 0.32000000E+00 0.0000E+00 0.9000E+01
        1 -1    0    0  501    0 0.00000000E+00 0.00000000E+00 -.13114963E+04 0.13114964E+04 0.32000000E+00 0.0000E+00 0.9000E+01
       25  1    1    2    0    0 -.96903375E+01 -.49408148E+03 -.47432275E+03 0.69628836E+03 0.12500000E+03 0.0000E+00 0.9000E+01
        1  1    1    2  501    0 0.35544726E+02 -.44511696E+02 -.50062311E+03 0.50385347E+03 0.32000000E+00 0.0000E+00 0.9000E+01
        1  1    1    2  502    0 -.25854389E+02 0.53859318E+03 0.10061526E+03 0.54852037E+03 0.32000000E+00 0.0000E+00 0.9000E+01
#aMCatNLO 1  0  0  1  4 0.93609064D+02 0.00000000D+00  -5  6  0 0.00000000D+00 0.00000000D+00 0.00000000D+00 0.00000000D+00 0.00000000D+00
  <mgrwgt>
 0.9522338038D-02    3    2    0
 0.757193086301528D+03 0.000000000000000D+00 0.000000000000000D+00 0.757193086301528D+03
 0.757193086301528D+03 0.000000000000000D+00 0.000000000000000D+00 -.757193086301528D+03
 0.530151610267929D+03 -.969085412156040D+01 -.494080178950863D+03 -.145693493279405D+03
 0.292769206046072D+03 0.355451899103435D+02 -.445118990520386D+02 -.287174229912550D+03
 0.691465356289055D+03 -.258543357887831D+02 0.538592078002902D+03 0.432867723191955D+03
 0.000000000000000D+00 -.000000000000000D+00 -.000000000000000D+00 -.000000000000000D+00
 0.114390415685287D+04 0.000000000000000D+00 0.000000000000000D+00 0.114390415685287D+04
 0.211285770184771D+04 0.000000000000000D+00 0.000000000000000D+00 -.211285770184771D+04
 0.397106813521029D+03 0.192294831423968D+03 -.289594414947003D+03 -.145693493279405D+03
 0.350422261842335D+03 0.175652269280531D+03 0.973293561338613D+02 -.287174229912550D+03
 0.108880296711402D+04 0.361943400562004D+03 0.931189782055469D+03 0.432867723191955D+03
 0.142042981622320D+04 -.729890501266503D+03 -.738924723242327D+03 -.968953544994834D+03
0.289619391894D-02 0.000000000000D+00 0.000000000000D+00 0.856796060723D-06 0.000000000000D+00  6 1 1 25 1 1 21 0 0.67256277D-01 0.20176868D+00 0.30576168D+06 0.30576168D+06 0.30576168D+06 0.10839412D+01  1  2  2  1  6  1        1 0.176175983887D-01 0.100000000000D+01
0.777153160148D-03 0.000000000000D+00 -.111221472341D-04 0.856796060723D-06 0.000000000000D+00  6 1 1 25 1 1 21 2 0.67256277D-01 0.20176868D+00 0.30576168D+06 0.30576168D+06 0.30576168D+06 0.10839412D+01  1  2  3  1  6  1        1 0.555439925003D-02 0.100000000000D+01
-.190981519622D-02 0.000000000000D+00 0.000000000000D+00 0.856796060723D-06 0.000000000000D+00  6 1 1 25 1 1 21 2 0.67256277D-01 0.20176868D+00 0.30576168D+06 0.30576168D+06 0.30576168D+06 0.10839412D+01  1  2 15  1  6  1        1 -.136496596006D-01 0.100000000000D+01
  </mgrwgt>
  </event>
  <event>
  5     66 0.18540751E-05 0.10474843E+02 0.75467711E-02 0.90112412E-01
        1 -1    0    0  502    0 0.00000000E+00 0.00000000E+00 0.20921058E+04 0.20921059E+04 0.32000000E+00 0.0000E+00 0.9000E+01
        1 -1    0    0  501    0 0.00000000E+00 0.00000000E+00 -.12261146E+04 0.12261146E+04 0.32000000E+00 0.0000E+00 0.9000E+01
       25  1    1    2    0    0 0.33218480E+03 0.59339445E+03 0.53152229E+03 0.87212652E+03 0.12500000E+03 0.0000E+00 0.9000E+01
        1  1    1    2  501    0 0.53763138E+01 -.89887464E+01 -.97387878E+03 0.97393515E+03 0.32000000E+00 0.0000E+00 0.9000E+01
        1  1    1    2  502    0 -.33756112E+03 -.58440571E+03 0.13083478E+04 0.14721588E+04 0.32000000E+00 0.0000E+00 0.9000E+01
#aMCatNLO 1  0  0  5  1 0.31496995D+01 0.00000000D+00  -5  6  0 0.00000000D+00 0.00000000D+00 0.00000000D+00 0.00000000D+00 0.00000000D+00
  <mgrwgt>
 0.8966874353D-03    4    2    0
 0.160161216908652D+04 0.000000000000000D+00 0.000000000000000D+00 0.160161216908652D+04
 0.160161216908652D+04 -.000000000000000D+00 -.000000000000000D+00 -.160161216908652D+04
 0.759752154919859D+03 0.332162302040751D+03 0.593357143697173D+03 0.314950539024607D+03
 0.127225085063219D+04 0.537678247827841D+01 -.898958000094058D+01 -.127220772855533D+04
 0.117122133262099D+04 -.337539084519030D+03 -.584367563696232D+03 0.957257189530726D+03
 0.000000000000000D+00 0.000000000000000D+00 0.000000000000000D+00 0.000000000000000D+00
 0.160161216908652D+04 0.000000000000000D+00 0.000000000000000D+00 0.160161216908652D+04
 0.160161216908652D+04 -.000000000000000D+00 -.000000000000000D+00 -.160161216908652D+04
 0.754845076492991D+03 0.323140610356737D+03 0.577738259154311D+03 0.340535958972516D+03
 0.123045962867465D+04 -.953060137953798D+01 -.347981218428130D+02 -.122993054932045D+04
 0.112231832241797D+04 -.346085768265214D+03 -.628828732349852D+03 0.862784725879311D+03
 0.956013105874287D+02 0.324757592880147D+02 0.858885950383542D+02 0.266098644686240D+02
0.152961896507D-02 0.000000000000D+00 0.000000000000D+00 0.386878374884D-04 0.000000000000D+00  6 1 1 25 1 1 21 0 0.32186244D+00 0.18863301D+00 0.47383834D+06 0.47383834D+06 0.47383834D+06 0.10701638D+01  1  2  2  3  6  5        1 0.520865497559D-03 0.100000000000D+01
0.214381529496D-02 0.000000000000D+00 -.587413958380D-05 0.386878374884D-04 0.000000000000D+00  6 1 1 25 1 1 21 2 0.32186244D+00 0.18863301D+00 0.47383834D+06 0.47383834D+06 0.47383834D+06 0.10701638D+01  1  2  3  3  6  5        1 0.836046140227D-03 0.100000000000D+01
-.104160882857D-02 0.000000000000D+00 0.000000000000D+00 0.386878374884D-04 0.000000000000D+00  6 1 1 25 1 1 21 2 0.32186244D+00 0.18863301D+00 0.47383834D+06 0.47383834D+06 0.47383834D+06 0.10701638D+01  1  2 15  3  6  5        1 -.406207121856D-03 0.100000000000D+01
-.138512264011D-03 0.000000000000D+00 0.000000000000D+00 0.386878374884D-04 0.000000000000D+00  6 1 1 25 1 1 21 2 0.32186244D+00 0.18863301D+00 0.47383834D+06 0.47383834D+06 0.47383834D+06 0.10701638D+01  1  2  4  3  6  5        1 -.540170806568D-04 0.100000000000D+01
  </mgrwgt>
  </event>
  <event>
  5     66 0.18540751E-05 0.11509020E+03 0.75467711E-02 0.91663326E-01
        1 -1    0    0  502    0 0.00000000E+00 0.00000000E+00 0.13314117E+04 0.13314118E+04 0.32000000E+00 0.0000E+00 0.9000E+01
        1 -1    0    0  501    0 0.00000000E+00 0.00000000E+00 -.13159024E+04 0.13159025E+04 0.32000000E+00 0.0000E+00 0.9000E+01
       25  1    1    2    0    0 -.45816577E+03 0.24070929E+03 -.86305398E+02 0.53937969E+03 0.12500000E+03 0.0000E+00 0.9000E+01
        1  1    1    2  501    0 0.58697859E+02 -.98984170E+02 -.95884048E+03 0.96572174E+03 0.32000000E+00 0.0000E+00 0.9000E+01
        1  1    1    2  502    0 0.39946791E+03 -.14172512E+03 0.10606552E+04 0.11422128E+04 0.32000000E+00 0.0000E+00 0.9000E+01
#aMCatNLO 1  0  0  2  1 0.22239230D+03 0.00000000D+00  -5  6  0 0.00000000D+00 0.00000000D+00 0.00000000D+00 0.00000000D+00 0.00000000D+00
  <mgrwgt>
 0.1568955274D-01    7    2    0
 0.132363440773694D+04 0.000000000000000D+00 0.000000000000000D+00 0.132363440773694D+04
 0.132363440773694D+04 0.000000000000000D+00 0.000000000000000D+00 -.132363440773694D+04
 0.539879856240060D+03 -.458160461585147D+03 0.240714234434726D+03 -.893918785705768D+02
 0.971402252851904D+03 0.587037024380276D+02 -.989930730831099D+02 -.964560305863446D+03
 0.113598670638191D+04 0.399456759147120D+03 -.141721161351617D+03 0.105395218443402D+04
 0.000000000000000D+00 -.000000000000000D+00 -.000000000000000D+00 -.000000000000000D+00
 0.141244716253074D+04 0.000000000000000D+00 0.000000000000000D+00 0.141244716253074D+04
 0.147523145979598D+04 0.000000000000000D+00 0.000000000000000D+00 -.147523145979598D+04
 0.539994439684882D+03 -.435470901366802D+03 0.279898519108262D+03 -.893918785705768D+02
 0.970098457690462D+03 0.994971516867476D+02 -.285438394798572D+02 -.964560305863446D+03
 0.114650088363167D+04 0.447414785203181D+03 -.588988885848599D+02 0.105395218443402D+04
 0.231084841319707D+03 -.111441035523127D+03 -.192455791043545D+03 -.627842972652465D+02
0.823362378013D-02 0.000000000000D+00 0.000000000000D+00 0.197367281300D-04 0.000000000000D+00  6 1 1 25 1 1 21 0 0.20483258D+00 0.20244653D+00 0.28695846D+06 0.28695846D+06 0.28695846D+06 0.10859828D+01  1  2  2  2  6  2        1 0.817907928070D-02 0.100000000000D+01
0.185288770273D-02 0.000000000000D+00 -.316192832786D-04 0.197367281300D-04 0.000000000000D+00  6 1 1 25 1 1 21 2 0.20483258D+00 0.20244653D+00 0.28695846D+06 0.28695846D+06 0.28695846D+06 0.10859828D+01  1  2  3  2  6  2        1 0.217074300820D-02 0.100000000000D+01
-.575469195560D-02 0.000000000000D+00 0.000000000000D+00 0.197367281300D-04 0.000000000000D+00  6 1 1 25 1 1 21 2 0.20483258D+00 0.20244653D+00 0.28695846D+06 0.28695846D+06 0.28695846D+06 0.10859828D+01  1  2 15  2  6  2        1 -.674188581883D-02 0.100000000000D+01
-.189927776421D-03 0.000000000000D+00 0.000000000000D+00 0.197367281300D-04 0.000000000000D+00  6 1 1 25 1 1 21 2 0.20483258D+00 0.20244653D+00 0.28695846D+06 0.28695846D+06 0.28695846D+06 0.10859828D+01  1  2  4  2  6  2        1 -.222509109494D-03 0.100000000000D+01
-.335648748995D-01 0.000000000000D+00 -.125603677373D-01 0.197367281300D-04 0.000000000000D+00  6 1 1 25 1 1 21 2 0.20483258D+00 0.23422373D+00 0.28695846D+06 0.28695846D+06 0.28695846D+06 0.10859828D+01  1  2  5  2  6  2        1 -.284518194712D-01 0.100000000000D+01
0.351542045641D-01 0.000000000000D+00 0.124280365113D-01 0.197367281300D-04 0.000000000000D+00  6 1 1 25 1 1 21 2 0.20483258D+00 0.20244653D+00 0.28695846D+06 0.28695846D+06 0.28695846D+06 0.10859828D+01  1  2  6  2  6  2        1 0.411847645455D-01 0.100000000000D+01
-.665372402434D-03 0.000000000000D+00 -.279987384883D-03 0.197367281300D-04 0.000000000000D+00  6 1 21 25 1 1 -1 2 0.20483258D+00 0.23422373D+00 0.28695846D+06 0.28695846D+06 0.28695846D+06 0.10859828D+01  1  2  5  5  6  2        1 -.428819699531D-03 0.100000000000D+01
  </mgrwgt>
  </event>
  <event>
  5     66 0.18540751E-05 0.18813577E+03 0.75467711E-02 0.93187101E-01
        1 -1    0    0  502    0 0.00000000E+00 0.00000000E+00 0.15944914E+04 0.15944914E+04 0.32000000E+00 0.0000E+00 0.9000E+01
        1 -1    0    0  501    0 0.00000000E+00 0.00000000E+00 -.12511130E+04 0.12511131E+04 0.32000000E+00 0.0000E+00 0.9000E+01
       25  1    1    2    0    0 -.20288916E+03 -.41236403E+03 0.30993337E+03 0.56823569E+03 0.12500000E+03 0.0000E+00 0.9000E+01
        1  1    1    2  501    0 0.19653926E+03 0.41183199E+02 -.10826695E+04 0.11011345E+04 0.32000000E+00 0.0000E+00 0.9000E+01
        1  1    1    2  502    0 0.63498982E+01 0.37118083E+03 0.11161145E+04 0.11762343E+04 0.32000000E+00 0.0000E+00 0.9000E+01
#aMCatNLO 1  0  0  2  5 0.13585080D+03 0.00000000D+00  -5  6  0 0.00000000D+00 0.00000000D+00 0.00000000D+00 0.00000000D+00 0.00000000D+00
  <mgrwgt>
 0.9734182981D-03    9    2    0
 0.141240540071648D+04 0.000000000000000D+00 0.000000000000000D+00 0.141240540071648D+04
 0.141240540071648D+04 0.000000000000000D+00 0.000000000000000D+00 -.141240540071648D+04
 0.534780375817958D+03 -.202908340333175D+03 -.412344222052335D+03 0.243239590369841D+03
 0.124088169083187D+04 0.196558873310511D+03 0.411885921690568D+02 -.122452255178898D+04
 0.104914873478313D+04 0.634946702266388D+01 0.371155629883278D+03 0.981282961419143D+03
 0.000000000000000D+00 0.000000000000000D+00 0.000000000000000D+00 -.000000000000000D+00
 0.142530682596650D+04 0.000000000000000D+00 0.000000000000000D+00 0.142530682596650D+04
 0.182346592153042D+04 0.000000000000000D+00 0.000000000000000D+00 -.182346592153042D+04
 0.546593033993929D+03 -.228825216393816D+03 -.414261350876139D+03 0.243239590369841D+03
 0.123274256262701D+04 0.137274436856093D+03 0.368031908705430D+02 -.122452255178898D+04
 0.104873998631242D+04 -.439298550693311D+02 0.367436356873739D+03 0.981282961419143D+03
 0.420697164563559D+03 0.135480634607054D+03 0.100218031318568D+02 -.398159095563915D+03
0.227624593981D-03 0.000000000000D+00 0.000000000000D+00 0.800642959582D-05 0.000000000000D+00  6 1 1 25 1 1 21 0 0.24530637D+00 0.19247893D+00 0.27473268D+06 0.27473268D+06 0.27473268D+06 0.10873902D+01  1  2  2  2  6  2        1 0.167044358676D-03 0.100000000000D+01
0.287654756632D-04 0.000000000000D+00 -.874138375820D-06 0.800642959582D-05 0.000000000000D+00  6 1 1 25 1 1 21 2 0.24530637D+00 0.19247893D+00 0.27473268D+06 0.27473268D+06 0.27473268D+06 0.10873902D+01  1  2  3  2  6  2        1 0.249606021067D-04 0.100000000000D+01
-.156296842317D-03 0.000000000000D+00 0.000000000000D+00 0.800642959582D-05 0.000000000000D+00  6 1 1 25 1 1 21 2 0.24530637D+00 0.19247893D+00 0.27473268D+06 0.27473268D+06 0.27473268D+06 0.10873902D+01  1  2 15  2  6  2        1 -.135623110749D-03 0.100000000000D+01
0.211374325901D-09 0.000000000000D+00 0.000000000000D+00 0.800642959582D-05 0.000000000000D+00  6 1 1 25 1 1 21 2 0.24530637D+00 0.24958192D+00 0.32348461D+06 0.32348461D+06 0.32348461D+06 0.10821385D+01  1  2 12  2  6  2        1 0.100207498509D-09 0.100000000000D+01
-.240417795153D-03 0.000000000000D+00 0.000000000000D+00 0.800642959582D-05 0.000000000000D+00  6 1 1 25 1 1 21 2 0.24530637D+00 0.19247893D+00 0.27473268D+06 0.27473268D+06 0.27473268D+06 0.10873902D+01  1  2  4  2  6  2        1 -.208617197729D-03 0.100000000000D+01
-.314509271825D-02 0.000000000000D+00 -.214088252819D-03 0.800642959582D-05 0.000000000000D+00  6 1 1 25 1 1 21 2 0.24530637D+00 0.24928162D+00 0.27473268D+06 0.27473268D+06 0.27473268D+06 0.10873902D+01  1  2  5  2  6  2        1 -.153123531033D-02 0.100000000000D+01
0.310308479635D-02 0.000000000000D+00 0.207124151574D-03 0.800642959582D-05 0.000000000000D+00  6 1 1 25 1 1 21 2 0.24530637D+00 0.19247893D+00 0.27473268D+06 0.27473268D+06 0.27473268D+06 0.10873902D+01  1  2  6  2  6  2        1 0.269263285655D-02 0.100000000000D+01
0.735883499514D-11 0.000000000000D+00 0.000000000000D+00 0.800642959582D-05 0.000000000000D+00  6 1 21 25 1 1 -1 2 0.24530637D+00 0.24958192D+00 0.32348461D+06 0.32348461D+06 0.32348461D+06 0.10821385D+01  1  2 12  5  6  2        1 0.240990310497D-11 0.100000000000D+01
-.105330114079D-03 0.000000000000D+00 -.742795627731D-05 0.800642959582D-05 0.000000000000D+00  6 1 21 25 1 1 -1 2 0.24530637D+00 0.24928162D+00 0.27473268D+06 0.27473268D+06 0.27473268D+06 0.10873902D+01  1  2  5  5  6  2        1 -.357440030377D-04 0.100000000000D+01
  </mgrwgt>
  </event>
  <event>
  5     66 0.18540751E-05 0.39240778E+02 0.75467711E-02 0.94929415E-01
        1 -1    0    0  502    0 0.00000000E+00 0.00000000E+00 0.69192981E+03 0.69192989E+03 0.32000000E+00 0.0000E+00 0.9000E+01
        1 -1    0    0  501    0 -.00000000E+00 -.00000000E+00 -.11347294E+04 0.11347295E+04 0.32000000E+00 0.0000E+00 0.9000E+01
       25  1    1    2    0    0 -.25616604E+03 -.39141441E+03 0.22920143E+03 0.53570941E+03 0.12500000E+03 0.0000E+00 0.9000E+01
        1  1    1    2  501    0 0.26930657E+03 0.35441534E+03 -.92944129E+03 0.10305326E+04 0.32000000E+00 0.0000E+00 0.9000E+01
        1  1    1    2  502    0 -.13140533E+02 0.36999066E+02 0.25744025E+03 0.26041733E+03 0.32000000E+00 0.0000E+00 0.9000E+01
#aMCatNLO 1  0  0  5  1 0.94530771D+01 0.00000000D+00  -5  6  0 0.00000000D+00 0.00000000D+00 0.00000000D+00 0.00000000D+00 0.00000000D+00
  <mgrwgt>
 0.9435740980D-02    9    2    0
 0.886088725021847D+03 0.000000000000000D+00 0.000000000000000D+00 0.886088725021847D+03
 0.886088725021847D+03 -.000000000000000D+00 -.000000000000000D+00 -.886088725021847D+03
 0.609605749732847D+03 -.256219596937483D+03 -.391458517989525D+03 0.370278161583945D+03
 0.830014657606478D+03 0.269352602114714D+03 0.354480648737087D+03 -.700511939403295D+03
 0.332557042704369D+03 -.131330051772316D+02 0.369778692524373D+02 0.330233777819350D+03
 0.000000000000000D+00 -.000000000000000D+00 0.000000000000000D+00 0.000000000000000D+00
 0.886088725021847D+03 0.000000000000000D+00 0.000000000000000D+00 0.886088725021847D+03
 0.886088725021847D+03 -.000000000000000D+00 -.000000000000000D+00 -.886088725021847D+03
 0.609724883683549D+03 -.256228174627199D+03 -.391434366267620D+03 0.370493850441269D+03
 0.829777134476501D+03 0.269340925889583D+03 0.354513524832121D+03 -.700218336843646D+03
 0.102432869908369D+03 0.541417114296421D+01 0.116427345813927D+02 0.101624929618508D+03
 0.230242561975276D+03 -.185269224053480D+02 0.252781068541066D+02 0.228099556783869D+03
0.509749016788D-04 0.000000000000D+00 0.000000000000D+00 0.858987309889D-05 0.000000000000D+00  6 1 1 25 1 1 21 0 0.10645075D+00 0.17457377D+00 0.23460040D+06 0.23460040D+06 0.23460040D+06 0.10925424D+01  1  2  2  3  6  5        1 0.216928514983D-03 0.100000000000D+01
0.168320034429D-04 0.000000000000D+00 -.195757044446D-06 0.858987309889D-05 0.000000000000D+00  6 1 1 25 1 1 21 2 0.10645075D+00 0.17457377D+00 0.23460040D+06 0.23460040D+06 0.23460040D+06 0.10925424D+01  1  2  3  3  6  5        1 0.855012869623D-04 0.100000000000D+01
-.340161617256D-04 0.000000000000D+00 0.000000000000D+00 0.858987309889D-05 0.000000000000D+00  6 1 1 25 1 1 21 2 0.10645075D+00 0.17457377D+00 0.23460040D+06 0.23460040D+06 0.23460040D+06 0.10925424D+01  1  2 15  3  6  5        1 -.172791409824D-03 0.100000000000D+01
0.102468017578D-08 0.000000000000D+00 0.000000000000D+00 0.858987309889D-05 0.000000000000D+00  6 1 1 25 1 1 21 2 0.10645075D+00 0.17457377D+00 0.23700113D+06 0.23700113D+06 0.23700113D+06 0.10922080D+01  1  2 12  3  6  5        1 0.519915207982D-08 0.100000000000D+01
0.119962192588D-02 0.000000000000D+00 0.000000000000D+00 0.858987309889D-05 0.000000000000D+00  6 1 1 25 1 1 21 2 0.10645075D+00 0.17457377D+00 0.23700113D+06 0.23700113D+06 0.23700113D+06 0.10922080D+01  1  2 12  3  6  5        1 0.608679369268D-02 0.100000000000D+01
-.895922951637D-03 0.000000000000D+00 0.000000000000D+00 0.858987309889D-05 0.000000000000D+00  6 1 1 25 1 1 21 2 0.10645075D+00 0.17457377D+00 0.23460040D+06 0.23460040D+06 0.23460040D+06 0.10925424D+01  1  2  4  3  6  5        1 -.455100699355D-02 0.100000000000D+01
-.128552384171D-02 0.000000000000D+00 0.000000000000D+00 0.858987309889D-05 0.000000000000D+00  6 1 1 25 1 1 21 2 0.10645075D+00 0.17457377D+00 0.23460040D+06 0.23460040D+06 0.23460040D+06 0.10925424D+01  1  2  5  3  6  5        1 -.653005705826D-02 0.100000000000D+01
0.281519575216D-02 0.000000000000D+00 -.000000000000D+00 0.858987309889D-05 0.000000000000D+00  6 1 1 25 1 1 21 2 0.10645075D+00 0.17457377D+00 0.23460040D+06 0.23460040D+06 0.23460040D+06 0.10925424D+01  1  2  6  3  6  5        1 0.143003095667D-01 0.100000000000D+01
0.114666726362D-07 0.000000000000D+00 0.000000000000D+00 0.858987309889D-05 0.682960844963D-07  6 1 1 25 1 1 21 2 0.10645075D+00 0.17457377D+00 0.23700113D+06 0.23700113D+06 0.23700113D+06 0.10922080D+01  1  2 11  3  6  5        1 0.581810561911D-07 0.100000000000D+01
  </mgrwgt>
  </event>
  <event>
  5     66 0.18540751E-05 0.11413204E+03 0.75467711E-02 0.90922620E-01
        1 -1    0    0  502    0 0.00000000E+00 0.00000000E+00 0.15626460E+04 0.15626460E+04 0.32000000E+00 0.0000E+00 0.9000E+01
        1 -1    0    0  501    0 0.00000000E+00 0.00000000E+00 -.82264804E+03 0.82264810E+03 0.32000000E+00 0.0000E+00 0.9000E+01
       25  1    1    2    0    0 0.42120792E+03 0.23250557E+03 0.42221787E+02 0.49888138E+03 0.12500000E+03 0.0000E+00 0.9000E+01
        1  1    1    2  501    0 -.32096234E+03 -.28708204E+03 -.51327868E+03 0.66999107E+03 0.32000000E+00 0.0000E+00 0.9000E+01
        1  1    1    2  502    0 -.10024558E+03 0.54576475E+02 0.12110548E+04 0.12164216E+04 0.32000000E+00 0.0000E+00 0.9000E+01
#aMCatNLO 1  0  0  5  1 0.70550909D+01 0.00000000D+00  -5  6  0 0.00000000D+00 0.00000000D+00 0.00000000D+00 0.00000000D+00 0.00000000D+00
  <mgrwgt>
 0.3389164136D-02    4    2    0
 0.113380233695425D+04 0.000000000000000D+00 0.000000000000000D+00 0.113380233695425D+04
 0.113380233695425D+04 -.000000000000000D+00 -.000000000000000D+00 -.113380233695425D+04
 0.511026591780515D+03 0.421242498462054D+03 0.232539914881838D+03 -.118334791937974D+03
 0.872288738991154D+03 -.321003247127570D+03 -.287112946172197D+03 -.758558313938128D+03
 0.884289343136823D+03 -.100239251334484D+03 0.545730312903587D+02 0.876893105876102D+03
 0.000000000000000D+00 0.000000000000000D+00 0.000000000000000D+00 -.000000000000000D+00
 0.113380233695425D+04 0.000000000000000D+00 0.000000000000000D+00 0.113380233695425D+04
 0.113380233695425D+04 -.000000000000000D+00 -.000000000000000D+00 -.113380233695425D+04
 0.488537455264354D+03 0.402382228569506D+03 0.242807969414250D+03 0.466548745206424D+02
 0.670841270801576D+03 -.350119789034038D+03 -.271261092418555D+03 -.503846766068144D+03
 0.753206620324386D+03 -.103486275878964D+03 -.208846202294072D+03 0.716236041673784D+03
 0.355019327518176D+03 0.512238363434960D+02 0.237299325298377D+03 -.259044150126283D+03
0.447800482328D-02 0.000000000000D+00 0.000000000000D+00 0.785957296638D-05 0.000000000000D+00  6 1 1 25 1 1 21 0 0.24040708D+00 0.12656124D+00 0.27140934D+06 0.27140934D+06 0.27140934D+06 0.10877847D+01  1  2  2  3  6  5        1 0.731260246039D-02 0.100000000000D+01
0.991333501901D-03 0.000000000000D+00 -.171967176071D-04 0.785957296638D-05 0.000000000000D+00  6 1 1 25 1 1 21 2 0.24040708D+00 0.12656124D+00 0.27140934D+06 0.27140934D+06 0.27140934D+06 0.10877847D+01  1  2  3  3  6  5        1 0.191554808060D-02 0.100000000000D+01
-.287311337029D-02 0.000000000000D+00 0.000000000000D+00 0.785957296638D-05 0.000000000000D+00  6 1 1 25 1 1 21 2 0.24040708D+00 0.12656124D+00 0.27140934D+06 0.27140934D+06 0.27140934D+06 0.10877847D+01  1  2 15  3  6  5        1 -.555170060452D-02 0.100000000000D+01
-.148676006242D-03 0.000000000000D+00 0.000000000000D+00 0.785957296638D-05 0.000000000000D+00  6 1 1 25 1 1 21 2 0.24040708D+00 0.12656124D+00 0.27140934D+06 0.27140934D+06 0.27140934D+06 0.10877847D+01  1  2  4  3  6  5        1 -.287285800229D-03 0.100000000000D+01
  </mgrwgt>
  </event>
  <event>
  5     66 -.18540751E-05 0.16831993E+03 0.75467711E-02 0.89163132E-01
        1 -1    0    0  502    0 0.00000000E+00 0.00000000E+00 0.19532381E+04 0.19532381E+04 0.32000000E+00 0.0000E+00 0.9000E+01
        1 -1    0    0  501    0 -.00000000E+00 -.00000000E+00 -.26854623E+04 0.26854623E+04 0.32000000E+00 0.0000E+00 0.9000E+01
       25  1    1    2    0    0 0.29970898E+03 0.60603010E+03 0.62823108E+02 0.69041270E+03 0.12500000E+03 0.0000E+00 0.9000E+01
        1  1    1    2  501    0 -.25977491E+03 -.76955065E+03 -.22972902E+04 0.24366439E+04 0.32000000E+00 0.0000E+00 0.9000E+01
        1  1    1    2  502    0 -.39934061E+02 0.16352055E+03 0.15022428E+04 0.15116439E+04 0.32000000E+00 0.0000E+00 0.9000E+01
#aMCatNLO 1  0  0  5  1 0.12784395D+02 0.00000000D+00  -5  6  0 0.00000000D+00 0.00000000D+00 0.00000000D+00 0.00000000D+00 0.00000000D+00
  <mgrwgt>
 -.4329517328D-02    8    2    0
 0.229027232797023D+04 0.000000000000000D+00 0.000000000000000D+00 0.229027232797023D+04
 0.229027232797023D+04 -.000000000000000D+00 -.000000000000000D+00 -.229027232797023D+04
 0.709284027519646D+03 0.299724647386470D+03 0.606082550923274D+03 0.174034217640907D+03
 0.210034872479283D+04 -.259792065009416D+03 -.769597039696017D+03 -.193692881779072D+04
 0.177091190362798D+04 -.399325823770535D+02 0.163514488772742D+03 0.176289460014981D+04
 0.000000000000000D+00 0.000000000000000D+00 0.000000000000000D+00 0.000000000000000D+00
 0.229027232797023D+04 0.000000000000000D+00 0.000000000000000D+00 0.229027232797023D+04
 0.229027232797023D+04 -.000000000000000D+00 -.000000000000000D+00 -.229027232797023D+04
 0.709293341807979D+03 0.299723977744430D+03 0.606085292949191D+03 0.174063780175200D+03
 0.210026526722825D+04 -.259794047916928D+03 -.769588920158316D+03 -.193684127882536D+04
 0.714040237262493D+03 -.175812283364782D+02 0.785599713482925D+02 0.709487626207684D+03
 0.105694580964173D+04 -.223487014910235D+02 0.849436558608319D+02 0.105328987244247D+04
0.906306317486D-04 0.000000000000D+00 0.000000000000D+00 0.627345522513D-05 0.000000000000D+00  6 1 1 25 1 1 21 0 0.30049817D+00 0.41314805D+00 0.69571006D+06 0.69571006D+06 0.69571006D+06 0.10585169D+01  1  2  2  3  6  5        1 0.369865504878D-05 0.100000000000D+01
0.219175537484D-04 0.000000000000D+00 -.348045489508D-06 0.627345522513D-05 0.000000000000D+00  6 1 1 25 1 1 21 2 0.30049817D+00 0.41314805D+00 0.69571006D+06 0.69571006D+06 0.69571006D+06 0.10585169D+01  1  2  3  3  6  5        1 0.100220475368D-05 0.100000000000D+01
-.636399725736D-04 0.000000000000D+00 0.000000000000D+00 0.627345522513D-05 0.000000000000D+00  6 1 1 25 1 1 21 2 0.30049817D+00 0.41314805D+00 0.69571006D+06 0.69571006D+06 0.69571006D+06 0.10585169D+01  1  2 15  3  6  5        1 -.291000919947D-05 0.100000000000D+01
0.680165531318D-09 0.000000000000D+00 0.000000000000D+00 0.627345522513D-05 0.000000000000D+00  6 1 1 25 1 1 21 2 0.30049817D+00 0.41314805D+00 0.69572073D+06 0.69572073D+06 0.69572073D+06 0.10585164D+01  1  2 12  3  6  5        1 0.311012537299D-10 0.100000000000D+01
0.548707447118D-01 0.000000000000D+00 0.000000000000D+00 0.627345522513D-05 0.000000000000D+00  6 1 1 25 1 1 21 2 0.30049817D+00 0.41314805D+00 0.69572073D+06 0.69572073D+06 0.69572073D+06 0.10585164D+01  1  2 12  3  6  5        1 0.250902004741D-02 0.100000000000D+01
-.189692116214D+00 0.000000000000D+00 0.000000000000D+00 0.627345522513D-05 0.000000000000D+00  6 1 1 25 1 1 21 2 0.30049817D+00 0.41314805D+00 0.69571006D+06 0.69571006D+06 0.69571006D+06 0.10585169D+01  1  2  4  3  6  5        1 -.867388499593D-02 0.100000000000D+01
-.556639656503D-01 0.000000000000D+00 0.000000000000D+00 0.627345522513D-05 0.000000000000D+00  6 1 1 25 1 1 21 2 0.30049817D+00 0.41314805D+00 0.69571006D+06 0.69571006D+06 0.69571006D+06 0.10585169D+01  1  2  5  3  6  5        1 -.254529732761D-02 0.100000000000D+01
0.957626363423D-01 0.000000000000D+00 -.000000000000D+00 0.627345522513D-05 0.000000000000D+00  6 1 1 25 1 1 21 2 0.30049817D+00 0.41314805D+00 0.69571006D+06 0.69571006D+06 0.69571006D+06 0.10585169D+01  1  2  6  3  6  5        1 0.437885406689D-02 0.100000000000D+01
  </mgrwgt>
  </event>
  <event>
  5     66 -.18540751E-05 0.84003758E+02 0.75467711E-02 0.91725134E-01
        1 -1    0    0  502    0 0.00000000E+00 0.00000000E+00 0.37764583E+03 0.37764596E+03 0.32000000E+00 0.0000E+00 0.9000E+01
        1 -1    0    0  501    0 -.00000000E+00 -.00000000E+00 -.31007504E+04 0.31007504E+04 0.32000000E+00 0.0000E+00 0.9000E+01
       25  1    1    2    0    0 0.50922231E+03 -.37502872E+03 -.17174799E+03 0.66714037E+03 0.12500000E+03 0.0000E+00 0.9000E+01
        1  1    1    2  501    0 -.42559137E+03 0.38360979E+03 -.26326692E+04 0.26942962E+04 0.32000000E+00 0.0000E+00 0.9000E+01
        1  1    1    2  502    0 -.83630934E+02 -.85810708E+01 0.81312609E+02 0.11695987E+03 0.32000000E+00 0.0000E+00 0.9000E+01
#aMCatNLO 1  0  0  5  1 0.56348748D+01 0.00000000D+00  -5  6  0 0.00000000D+00 0.00000000D+00 0.00000000D+00 0.00000000D+00 0.00000000D+00
  <mgrwgt>
 -.7985717934D-03    9    2    0
 0.108212093515624D+04 0.000000000000000D+00 0.000000000000000D+00 0.108212093515624D+04
 0.108212093515624D+04 -.000000000000000D+00 -.000000000000000D+00 -.108212093515624D+04
 0.856314679188067D+03 0.509227124227743D+03 -.375090571910417D+03 0.563599706003845D+03
 0.101786719764224D+04 -.425662103961807D+03 0.383664879579170D+03 -.841229258564147D+03
 0.290059993482173D+03 -.835650202659369D+02 -.857430766875229D+01 0.277629552560302D+03
 0.000000000000000D+00 0.000000000000000D+00 0.000000000000000D+00 0.000000000000000D+00
 0.108212093515624D+04 0.000000000000000D+00 0.000000000000000D+00 0.108212093515624D+04
 0.108212093515624D+04 -.000000000000000D+00 -.000000000000000D+00 -.108212093515624D+04
 0.856358009147644D+03 0.509200656116481D+03 -.375093287708590D+03 0.563687641480476D+03
 0.101779275917597D+04 -.425693563606487D+03 0.383661651617616D+03 -.841124739627293D+03
 0.110511333785825D+03 -.357440278087511D+02 0.613890026019547D+00 0.104569319162770D+03
 0.179579768203047D+03 -.477630647012432D+02 -.918225393504521D+01 0.172867778984047D+03
0.233284973425D-04 0.000000000000D+00 0.000000000000D+00 0.592632230863D-06 0.000000000000D+00  6 1 1 25 1 1 21 0 0.58099369D-01 0.47703854D+00 0.42363711D+06 0.42363711D+06 0.42363711D+06 0.10736348D+01  1  2  2  3  6  5        1 0.982605284886D-05 0.100000000000D+01
0.379048772288D-05 0.000000000000D+00 -.895875723295D-07 0.592632230863D-06 0.000000000000D+00  6 1 1 25 1 1 21 2 0.58099369D-01 0.47703854D+00 0.42363711D+06 0.42363711D+06 0.42363711D+06 0.10736348D+01  1  2  3  3  6  5        1 0.184035052168D-05 0.100000000000D+01
-.142603126924D-04 0.000000000000D+00 0.000000000000D+00 0.592632230863D-06 0.000000000000D+00  6 1 1 25 1 1 21 2 0.58099369D-01 0.47703854D+00 0.42363711D+06 0.42363711D+06 0.42363711D+06 0.10736348D+01  1  2 15  3  6  5        1 -.692364039184D-05 0.100000000000D+01
0.848379397305D-08 0.000000000000D+00 0.000000000000D+00 0.592632230863D-06 0.000000000000D+00  6 1 1 25 1 1 21 2 0.58099369D-01 0.47703854D+00 0.42388780D+06 0.42388780D+06 0.42388780D+06 0.10736163D+01  1  2 12  3  6  5        1 0.411869711402D-08 0.100000000000D+01
0.118224628840D-02 0.000000000000D+00 0.000000000000D+00 0.592632230863D-06 0.000000000000D+00  6 1 1 25 1 1 21 2 0.58099369D-01 0.47703854D+00 0.42388780D+06 0.42388780D+06 0.42388780D+06 0.10736163D+01  1  2 12  3  6  5        1 0.573954812147D-03 0.100000000000D+01
-.610844902701D-02 0.000000000000D+00 0.000000000000D+00 0.592632230863D-06 0.000000000000D+00  6 1 1 25 1 1 21 2 0.58099369D-01 0.47703854D+00 0.42363711D+06 0.42363711D+06 0.42363711D+06 0.10736348D+01  1  2  4  3  6  5        1 -.296576276601D-02 0.100000000000D+01
-.180464109839D-02 0.000000000000D+00 0.000000000000D+00 0.592632230863D-06 0.000000000000D+00  6 1 1 25 1 1 21 2 0.58099369D-01 0.47703854D+00 0.42363711D+06 0.42363711D+06 0.42363711D+06 0.10736348D+01  1  2  5  3  6  5        1 -.876185976496D-03 0.100000000000D+01
0.436861967690D-02 0.000000000000D+00 -.000000000000D+00 0.592632230863D-06 0.000000000000D+00  6 1 1 25 1 1 21 2 0.58099369D-01 0.47703854D+00 0.42363711D+06 0.42363711D+06 0.42363711D+06 0.10736348D+01  1  2  6  3  6  5        1 0.212104406852D-02 0.100000000000D+01
0.707820000070D-03 0.000000000000D+00 0.000000000000D+00 0.592632230863D-06 0.286230590866D-07  6 1 1 25 1 1 21 2 0.58099369D-01 0.47703854D+00 0.42388780D+06 0.42388780D+06 0.42388780D+06 0.10736163D+01  1  2 11  3  6  5        1 0.343631186801D-03 0.100000000000D+01
  </mgrwgt>
  </event>
  <event>
  5     66 0.18540751E-05 0.97928039E+02 0.75467711E-02 0.94002327E-01
        1 -1    0    0  502    0 0.00000000E+00 0.00000000E+00 0.27601949E+03 0.27601968E+03 0.32000000E+00 0.0000E+00 0.9000E+01
        1 -1    0    0  501    0 -.00000000E+00 -.00000000E+00 -.41006160E+04 0.41006160E+04 0.32000000E+00 0.0000E+00 0.9000E+01
       25  1    1    2    0    0 0.36161267E+03 0.29653057E+03 -.67285203E+03 0.82888416E+03 0.12500000E+03 0.0000E+00 0.9000E+01
        1  1    1    2  501    0 -.64288569E+02 0.73855319E+02 -.30630082E+04 0.30645729E+04 0.32000000E+00 0.0000E+00 0.9000E+01
        1  1    1    2  502    0 -.29732410E+03 -.37038589E+03 -.88736223E+02 0.48317859E+03 0.32000000E+00 0.0000E+00 0.9000E+01
#aMCatNLO 1  0  0  5  1 0.56348748D+01 0.00000000D+00  -5  6  0 0.00000000D+00 0.00000000D+00 0.00000000D+00 0.00000000D+00 0.00000000D+00
  <mgrwgt>
 0.2100486280D-02    1    2    0
 0.106388456587024D+04 0.000000000000000D+00 0.000000000000000D+00 0.106388456587024D+04
 0.106388456587024D+04 -.000000000000000D+00 -.000000000000000D+00 -.106388456587024D+04
 0.495507451724030D+03 0.361601947535025D+03 0.296498726423374D+03 0.105996091825296D+03
 0.797959330986901D+03 -.642968560476859D+02 0.738634900295303D+02 -.791927517549493D+03
 0.834302349029555D+03 -.297305091487339D+03 -.370362216452904D+03 0.685931425724198D+03
 0.000000000000000D+00 0.000000000000000D+00 0.000000000000000D+00 -.000000000000000D+00
 0.106388456587024D+04 0.000000000000000D+00 0.000000000000000D+00 0.106388456587024D+04
 0.106388456587024D+04 -.000000000000000D+00 -.000000000000000D+00 -.106388456587024D+04
 0.494344313953490D+03 0.360406883468174D+03 0.295009997877259D+03 0.108753299901035D+03
 0.793498881897504D+03 -.662182493209631D+02 0.714699505586500D+02 -.787494549312311D+03
 0.107958869233805D+02 0.468325149643324D+01 0.931804747862029D+01 0.279147292120036D+01
 0.829130048966112D+03 -.298871885643644D+03 -.375797995914529D+03 0.675949776490075D+03
0.188132015518D-01 0.000000000000D+00 0.000000000000D+00 0.562820893649D-05 0.000000000000D+00  6 1 1 25 1 1 21 2 0.42464552D-01 0.63086401D+00 0.27925712D+06 0.27925712D+06 0.27925712D+06 0.10868616D+01  1  2 14  3  6  5        1 0.210048628045D-02 0.100000000000D+01
  </mgrwgt>
  </event>
  <event>
  5     66 0.18540751E-05 0.29955972E+03 0.75467711E-02 0.87585555E-01
        1 -1    0    0  502    0 0.00000000E+00 0.00000000E+00 0.27973563E+04 0.27973563E+04 0.32000000E+00 0.0000E+00 0.9000E+01
        1 -1    0    0  501    0 0.00000000E+00 0.00000000E+00 -.20200995E+03 0.20201021E+03 0.32000000E+00 0.0000E+00 0.9000E+01
       25  1    1    2    0    0 -.91133684E+02 0.44279438E+03 0.10861384E+04 0.11830866E+04 0.12500000E+03 0.0000E+00 0.9000E+01
        1  1    1    2  501    0 0.27418272E+03 -.20557266E+03 0.74601228E+02 0.35071602E+03 0.32000000E+00 0.0000E+00 0.9000E+01
        1  1    1    2  502    0 -.18304904E+03 -.23722172E+03 0.14346067E+04 0.14655639E+04 0.32000000E+00 0.0000E+00 0.9000E+01
#aMCatNLO 1  0  0  2  4 0.72378145D+03 0.00000000D+00  -5  6  0 0.00000000D+00 0.00000000D+00 0.00000000D+00 0.00000000D+00 0.00000000D+00
  <mgrwgt>
 0.1497781676D-02    3    2    0
 0.751727488724941D+03 0.000000000000000D+00 0.000000000000000D+00 0.751727488724941D+03
 0.751727488724941D+03 0.000000000000000D+00 0.000000000000000D+00 -.751727488724941D+03
 0.485329006542751D+03 -.912194034446163D+02 0.442790438334039D+03 0.124639049847673D+03
 0.570960528538481D+03 0.274222491762640D+03 -.205628265401498D+03 -.456634390544997D+03
 0.447165442368651D+03 -.183003088318024D+03 -.237162172932541D+03 0.331995340697324D+03
 0.000000000000000D+00 -.000000000000000D+00 -.000000000000000D+00 0.000000000000000D+00
 0.164591068245088D+04 0.000000000000000D+00 0.000000000000000D+00 0.164591068245088D+04
 0.995666073573981D+03 0.000000000000000D+00 0.000000000000000D+00 -.995666073573981D+03
 0.669995019903757D+03 0.825442751712961D+02 0.641030324232287D+03 0.124639049847673D+03
 0.646253636984362D+03 0.457294605059888D+03 0.323123354717285D+01 -.456634390544997D+03
 0.352354490022144D+03 -.627532524288860D+02 -.999740451498772D+02 0.331995340697324D+03
 0.972973609114595D+03 -.477085627802298D+03 -.544287512629582D+03 0.650244608876897D+03
0.226123989938D-02 0.000000000000D+00 0.000000000000D+00 0.418337382333D-07 0.000000000000D+00  6 1 1 25 1 1 21 0 0.43036252D+00 0.31078475D-01 0.30878372D+06 0.30878372D+06 0.30878372D+06 0.10836258D+01  1  2  2  2  6  2        1 0.375847542063D-02 0.100000000000D+01
0.794313271222D-04 0.000000000000D+00 -.868375661177D-05 0.418337382333D-07 0.000000000000D+00  6 1 1 25 1 1 21 2 0.43036252D+00 0.31078475D-01 0.30878372D+06 0.30878372D+06 0.30878372D+06 0.10836258D+01  1  2  3  2  6  2        1 0.155029942947D-03 0.100000000000D+01
-.123772307967D-02 0.000000000000D+00 0.000000000000D+00 0.418337382333D-07 0.000000000000D+00  6 1 1 25 1 1 21 2 0.43036252D+00 0.31078475D-01 0.30878372D+06 0.30878372D+06 0.30878372D+06 0.10836258D+01  1  2 15  2  6  2        1 -.241572368708D-02 0.100000000000D+01
  </mgrwgt>
  </event>
  <event>
  5     66 0.18540751E-05 0.34322040E+03 0.75467711E-02 0.85352777E-01
        1 -1    0    0  502    0 0.00000000E+00 0.00000000E+00 0.85284459E+03 0.85284465E+03 0.32000000E+00 0.0000E+00 0.9000E+01
        1 -1    0    0  501    0 0.00000000E+00 0.00000000E+00 -.95833422E+03 0.95833427E+03 0.32000000E+00 0.0000E+00 0.9000E+01
       25  1    1    2    0    0 -.34633236E+03 -.42339464E+03 0.65832501E+02 0.56494959E+03 0.12500000E+03 0.0000E+00 0.9000E+01
        1  1    1    2  501    0 -.25364480E+03 -.23152690E+03 -.85412454E+02 0.35388668E+03 0.32000000E+00 0.0000E+00 0.9000E+01
        1  1    1    2  502    0 0.59997716E+03 0.65492154E+03 -.85909677E+02 0.89234264E+03 0.32000000E+00 0.0000E+00 0.9000E+01
#aMCatNLO 1  0  0  1  1 0.59686240D+02 0.00000000D+00  -5  6  0 0.00000000D+00 0.00000000D+00 0.00000000D+00 0.00000000D+00 0.00000000D+00
  <mgrwgt>
 0.3955893228D-04    6    2    0
 0.904052127976560D+03 0.000000000000000D+00 0.000000000000000D+00 0.904052127976560D+03
 0.904052127976560D+03 0.000000000000000D+00 0.000000000000000D+00 -.904052127976560D+03
 0.569947591954458D+03 -.346504917231952D+03 -.423534991734367D+03 0.988317291426875D+02
 0.349290811547140D+03 -.253484425051784D+03 -.231399849422003D+03 -.648369260136556D+02
 0.888865852451522D+03 0.599989342283735D+03 0.654934841156370D+03 -.339948031290320D+02
 0.000000000000000D+00 -.000000000000000D+00 0.000000000000000D+00 0.000000000000000D+00
 0.146788164342573D+04 0.000000000000000D+00 0.000000000000000D+00 0.146788164342573D+04
 0.111982541464266D+04 0.000000000000000D+00 0.000000000000000D+00 -.111982541464266D+04
 0.693528769052790D+03 -.280989929257607D+03 -.613705224415068D+03 0.988317291426875D+02
 0.411952799528103D+03 -.214011691279874D+03 -.345977279687076D+03 -.648369260136556D+02
 0.796651373724874D+03 0.687388397945896D+03 0.401241766254862D+03 -.339948031290320D+02
 0.685574115762621D+03 -.192386777408415D+03 0.558440737847283D+03 0.348056228783062D+03
0.791538113784D-05 0.000000000000D+00 0.000000000000D+00 0.244581847233D-09 0.000000000000D+00  6 1 1 25 1 1 21 0 0.13120687D+00 0.14743604D+00 0.80348741D+06 0.80348741D+06 0.80348741D+06 0.10542484D+01  1  2  2  1  6  1        1 0.308974868364D-04 0.100000000000D+01
-.172618272642D-06 0.000000000000D+00 -.303971477370D-07 0.244581847233D-09 0.000000000000D+00  6 1 1 25 1 1 21 2 0.13120687D+00 0.14743604D+00 0.80348741D+06 0.80348741D+06 0.80348741D+06 0.10542484D+01  1  2  3  1  6  1        1 -.748900222041D-06 0.100000000000D+01
-.522599331864D-05 0.000000000000D+00 0.000000000000D+00 0.244581847233D-09 0.000000000000D+00  6 1 1 25 1 1 21 2 0.13120687D+00 0.14743604D+00 0.80348741D+06 0.80348741D+06 0.80348741D+06 0.10542484D+01  1  2 15  1  6  1        1 -.226728462568D-04 0.100000000000D+01
-.827333099672D-05 0.000000000000D+00 -.466290050667D-05 0.244581847233D-09 0.000000000000D+00  6 1 1 25 1 1 21 2 0.24024672D+00 0.14743604D+00 0.80348741D+06 0.80348741D+06 0.80348741D+06 0.10542484D+01  1  2  5  1  6  1        1 -.108415581461D-04 0.100000000000D+01
0.995608592266D-05 0.000000000000D+00 0.392304089121D-05 0.244581847233D-09 0.000000000000D+00  6 1 1 25 1 1 21 2 0.13120687D+00 0.14743604D+00 0.80348741D+06 0.80348741D+06 0.80348741D+06 0.10542484D+01  1  2  6  1  6  1        1 0.431942391963D-04 0.100000000000D+01
-.292789369367D-06 0.000000000000D+00 -.308250966259D-06 0.244581847233D-09 0.000000000000D+00  6 21 1 25 1 1 -1 2 0.24024672D+00 0.14743604D+00 0.80348741D+06 0.80348741D+06 0.80348741D+06 0.10542484D+01  1  2  5  4  6  1        1 -.269489123785D-06 0.100000000000D+01
  </mgrwgt>
  </event>
  <event>
  5     66 0.18540751E-05 0.48589111E+02 0.75467711E-02 0.94061474E-01
        1 -1    0    0  502    0 0.00000000E+00 0.00000000E+00 0.21081915E+03 0.21081939E+03 0.32000000E+00 0.0000E+00 0.9000E+01
        1 -1    0    0  501    0 -.00000000E+00 -.00000000E+00 -.18533999E+04 0.18534000E+04 0.32000000E+00 0.0000E+00 0.9000E+01
       25  1    1    2    0    0 -.38674540E+03 -.32214037E+03 -.91028239E+03 0.10476571E+04 0.12500000E+03 0.0000E+00 0.9000E+01
        1  1    1    2  501    0 -.11694518E+02 0.47159375E+02 -.45713589E+03 0.45971088E+03 0.32000000E+00 0.0000E+00 0.9000E+01
        1  1    1    2  502    0 0.39843992E+03 0.27498100E+03 -.27516250E+03 0.55685135E+03 0.32000000E+00 0.0000E+00 0.9000E+01
#aMCatNLO 1  0  0  5  1 0.57819250D+01 0.00000000D+00  -5  6  0 0.00000000D+00 0.00000000D+00 0.00000000D+00 0.00000000D+00 0.00000000D+00
  <mgrwgt>
 0.1422069503D-02    4    2    0
 0.625085977440444D+03 0.000000000000000D+00 0.000000000000000D+00 0.625085977440444D+03
 0.625085977440444D+03 -.000000000000000D+00 -.000000000000000D+00 -.625085977440444D+03
 0.533829253201768D+03 -.386743726383155D+03 -.322140560755887D+03 -.126504627556115D+03
 0.158432756545429D+03 -.116943574381164D+02 0.471608282191339D+02 -.150797999430954D+03
 0.557909945133693D+03 0.398438083821271D+03 0.274979732536753D+03 0.277302626987069D+03
 0.000000000000000D+00 0.000000000000000D+00 -.000000000000000D+00 0.000000000000000D+00
 0.625085977440444D+03 0.000000000000000D+00 0.000000000000000D+00 0.625085977440444D+03
 0.625085977440444D+03 -.000000000000000D+00 -.000000000000000D+00 -.625085977440444D+03
 0.385662969333520D+03 -.269793453607001D+03 -.241428008332026D+03 -.451102549182094D+02
 0.146718826582006D+03 0.271178913337419D+02 0.739468765910133D+02 -.123785675607663D+03
 0.482061044299226D+03 0.245378695400080D+03 0.397706682001719D+03 0.118328108942037D+03
 0.235729114666137D+03 -.270313312682058D+01 -.230225550260706D+03 0.505678215838346D+02
0.454849184397D-03 0.000000000000D+00 0.000000000000D+00 0.225068843959D-06 0.000000000000D+00  6 1 1 25 1 1 21 0 0.32433736D-01 0.28513847D+00 0.27632208D+06 0.27632208D+06 0.27632208D+06 0.10872035D+01  1  2  2  3  6  5        1 0.318291649756D-02 0.100000000000D+01
0.105689696550D-03 0.000000000000D+00 -.174674063263D-05 0.225068843959D-06 0.000000000000D+00  6 1 1 25 1 1 21 2 0.32433736D-01 0.28513847D+00 0.27632208D+06 0.27632208D+06 0.27632208D+06 0.10872035D+01  1  2  3  3  6  5        1 0.874202655880D-03 0.100000000000D+01
-.313167681031D-03 0.000000000000D+00 0.000000000000D+00 0.225068843959D-06 0.000000000000D+00  6 1 1 25 1 1 21 2 0.32433736D-01 0.28513847D+00 0.27632208D+06 0.27632208D+06 0.27632208D+06 0.10872035D+01  1  2 15  3  6  5        1 -.259033782318D-02 0.100000000000D+01
-.540558804586D-05 0.000000000000D+00 0.000000000000D+00 0.225068843959D-06 0.000000000000D+00  6 1 1 25 1 1 21 2 0.32433736D-01 0.28513847D+00 0.27632208D+06 0.27632208D+06 0.27632208D+06 0.10872035D+01  1  2  4  3  6  5        1 -.447118269855D-04 0.100000000000D+01
  </mgrwgt>
  </event>
  <event>
  5     66 0.18540751E-05 0.58745205E+02 0.75467711E-02 0.93790749E-01
        1 -1    0    0  502    0 0.00000000E+00 0.00000000E+00 0.43132095E+03 0.43132107E+03 0.32000000E+00 0.0000E+00 0.9000E+01
        1 -1    0    0  501    0 -.00000000E+00 -.00000000E+00 -.17244279E+04 0.17244280E+04 0.32000000E+00 0.0000E+00 0.9000E+01
       25  1    1    2    0    0 -.43186582E+03 -.30389409E+03 -.19899374E+03 0.57799932E+03 0.12500000E+03 0.0000E+00 0.9000E+01
        1  1    1    2  501    0 0.44874996E+01 0.58563982E+02 -.10832516E+04 0.10848429E+04 0.32000000E+00 0.0000E+00 0.9000E+01
        1  1    1    2  502    0 0.42737832E+03 0.24533011E+03 -.10861645E+02 0.49290686E+03 0.32000000E+00 0.0000E+00 0.9000E+01
#aMCatNLO 1  0  0  5  2 0.62830004D+02 0.00000000D+00  -5  6  0 0.00000000D+00 0.00000000D+00 0.00000000D+00 0.00000000D+00 0.00000000D+00
  <mgrwgt>
 0.2499201309D-03    6    2    0
 0.862427997037676D+03 0.000000000000000D+00 0.000000000000000D+00 0.862427997037676D+03
 0.862427997037676D+03 -.000000000000000D+00 -.000000000000000D+00 -.862427997037676D+03
 0.573198926317865D+03 -.431813097540302D+03 -.303872592192568D+03 0.184745515882719D+03
 0.543834932153708D+03 0.448874782577539D+01 0.585734601344516D+02 -.540652785382136D+03
 0.607822135603779D+03 0.427324349714527D+03 0.245299132058116D+03 0.355907269499417D+03
 0.000000000000000D+00 0.000000000000000D+00 0.000000000000000D+00 0.000000000000000D+00
 0.862427997037676D+03 0.000000000000000D+00 0.000000000000000D+00 0.862427997037676D+03
 0.862427997037676D+03 -.000000000000000D+00 -.000000000000000D+00 -.862427997037676D+03
 0.557465151176320D+03 -.411200619227381D+03 -.292040308253906D+03 0.201913109723015D+03
 0.529528108786108D+03 0.240566043126427D+02 0.698060945857132D+02 -.524355229727164D+03
 0.434964907974517D+03 0.184744675099207D+03 0.211728577905818D+03 0.332016393405128D+03
 0.202897826138408D+03 0.202399339815532D+03 0.105056357623755D+02 -.957427340097907D+01
0.807065312897D-04 0.000000000000D+00 0.000000000000D+00 0.194046021896D-05 0.000000000000D+00  6 1 1 25 1 1 21 0 0.66357080D-01 0.26529662D+00 0.29925303D+06 0.29925303D+06 0.29925303D+06 0.10846320D+01  1  2  2  3  6  5        1 0.263607292520D-03 0.100000000000D+01
0.293435166489D-04 0.000000000000D+00 -.309934330670D-06 0.194046021896D-05 0.000000000000D+00  6 1 1 25 1 1 21 2 0.66357080D-01 0.26529662D+00 0.29925303D+06 0.29925303D+06 0.29925303D+06 0.10846320D+01  1  2  3  3  6  5        1 0.112752377335D-03 0.100000000000D+01
-.511941202261D-04 0.000000000000D+00 0.000000000000D+00 0.194046021896D-05 0.000000000000D+00  6 1 1 25 1 1 21 2 0.66357080D-01 0.26529662D+00 0.29925303D+06 0.29925303D+06 0.29925303D+06 0.10846320D+01  1  2 15  3  6  5        1 -.196713257997D-03 0.100000000000D+01
-.142099536443D-04 0.000000000000D+00 0.000000000000D+00 0.194046021896D-05 0.000000000000D+00  6 1 1 25 1 1 21 2 0.66357080D-01 0.26529662D+00 0.29925303D+06 0.29925303D+06 0.29925303D+06 0.10846320D+01  1  2  4  3  6  5        1 -.546017055279D-04 0.100000000000D+01
-.843621499149D-04 0.000000000000D+00 0.000000000000D+00 0.194046021896D-05 0.000000000000D+00  6 1 1 25 1 1 21 2 0.66357080D-01 0.26529662D+00 0.29925303D+06 0.29925303D+06 0.29925303D+06 0.10846320D+01  1  2  5  3  6  5        1 -.324161315558D-03 0.100000000000D+01
0.116860658479D-03 0.000000000000D+00 -.000000000000D+00 0.194046021896D-05 0.000000000000D+00  6 1 1 25 1 1 21 2 0.66357080D-01 0.26529662D+00 0.29925303D+06 0.29925303D+06 0.29925303D+06 0.10846320D+01  1  2  6  3  6  5        1 0.449036740148D-03 0.100000000000D+01
  </mgrwgt>
  </event>
  <event>
  5     66 0.18540751E-05 0.18324879E+03 0.75467711E-02 0.91345193E-01
        1 -1    0    0  502    0 0.00000000E+00 0.00000000E+00 0.45147530E+03 0.45147541E+03 0.32000000E+00 0.0000E+00 0.9000E+01
        1 -1    0    0  501    0 0.00000000E+00 0.00000000E+00 -.29036705E+04 0.29036705E+04 0.32000000E+00 0.0000E+00 0.9000E+01
       25  1    1    2    0    0 0.11475359E+03 -.55242448E+03 -.13730407E+04 0.14897003E+04 0.12500000E+03 0.0000E+00 0.9000E+01
        1  1    1    2  501    0 0.31797014E+01 0.18320359E+03 -.13691582E+04 0.13813645E+04 0.32000000E+00 0.0000E+00 0.9000E+01
        1  1    1    2  502    0 -.11793329E+03 0.36922088E+03 0.29000367E+03 0.48408114E+03 0.32000000E+00 0.0000E+00 0.9000E+01
#aMCatNLO 1  0  0  2  5 0.16853340D+03 0.00000000D+00  -5  6  0 0.00000000D+00 0.00000000D+00 0.00000000D+00 0.00000000D+00 0.00000000D+00
  <mgrwgt>
 0.4381297068D-03    9    2    0
 0.114496100820467D+04 0.000000000000000D+00 0.000000000000000D+00 0.114496100820467D+04
 0.114496100820467D+04 0.000000000000000D+00 0.000000000000000D+00 -.114496100820467D+04
 0.712312433085174D+03 0.114752251922173D+03 -.552435413975593D+03 -.416426507792342D+03
 0.557808026636170D+03 0.317890043944705D+01 0.183221217864032D+03 -.526848815597183D+03
 0.101980155668800D+04 -.117931152361620D+03 0.369214196111561D+03 0.943275323389525D+03
 0.000000000000000D+00 -.000000000000000D+00 -.000000000000000D+00 -.000000000000000D+00
 0.116162339942030D+04 0.000000000000000D+00 0.000000000000000D+00 0.116162339942030D+04
 0.167150296983925D+04 0.000000000000000D+00 0.000000000000000D+00 -.167150296983925D+04
 0.701885588480642D+03 0.160188664464487D+03 -.527206728619596D+03 -.416426507792342D+03
 0.566067271684009D+03 0.392876072272367D+02 0.203270670520814D+03 -.526848815597183D+03
 0.102816263088203D+04 -.521326260737035D+02 0.405748997688605D+03 0.943275323389525D+03
 0.537010878212868D+03 -.147343645618020D+03 -.818129395898230D+02 -.509879570418956D+03
0.157073373908D-03 0.000000000000D+00 0.000000000000D+00 0.119360073178D-05 0.000000000000D+00  6 1 1 25 1 1 21 0 0.69457749D-01 0.44671854D+00 0.32990560D+06 0.32990560D+06 0.32990560D+06 0.10815118D+01  1  2  2  2  6  2        1 0.742064560318D-04 0.100000000000D+01
0.144577823418D-04 0.000000000000D+00 -.603203114174D-06 0.119360073178D-05 0.000000000000D+00  6 1 1 25 1 1 21 2 0.69457749D-01 0.44671854D+00 0.32990560D+06 0.32990560D+06 0.32990560D+06 0.10815118D+01  1  2  3  2  6  2        1 0.798920041735D-05 0.100000000000D+01
-.105938761842D-03 0.000000000000D+00 0.000000000000D+00 0.119360073178D-05 0.000000000000D+00  6 1 1 25 1 1 21 2 0.69457749D-01 0.44671854D+00 0.32990560D+06 0.32990560D+06 0.32990560D+06 0.10815118D+01  1  2 15  2  6  2        1 -.585405133593D-04 0.100000000000D+01
0.155752825548D-08 0.000000000000D+00 0.000000000000D+00 0.119360073178D-05 0.000000000000D+00  6 1 1 25 1 1 21 2 0.69457749D-01 0.65487115D+00 0.45539342D+06 0.45539342D+06 0.45539342D+06 0.10713905D+01  1  2 12  2  6  2        1 0.581807067070D-10 0.100000000000D+01
-.171186489876D-03 0.000000000000D+00 0.000000000000D+00 0.119360073178D-05 0.000000000000D+00  6 1 1 25 1 1 21 2 0.69457749D-01 0.44671854D+00 0.32990560D+06 0.32990560D+06 0.32990560D+06 0.10815118D+01  1  2  4  2  6  2        1 -.945956401911D-04 0.100000000000D+01
-.103589095789D-02 0.000000000000D+00 -.756813601182D-04 0.119360073178D-05 0.000000000000D+00  6 1 1 25 1 1 21 2 0.69457749D-01 0.65352057D+00 0.32990560D+06 0.32990560D+06 0.32990560D+06 0.10815118D+01  1  2  5  2  6  2        1 -.416482722492D-04 0.100000000000D+01
0.996834115850D-03 0.000000000000D+00 0.705162944530D-04 0.119360073178D-05 0.000000000000D+00  6 1 1 25 1 1 21 2 0.69457749D-01 0.44671854D+00 0.32990560D+06 0.32990560D+06 0.32990560D+06 0.10815118D+01  1  2  6  2  6  2        1 0.550838804051D-03 0.100000000000D+01
0.717543455077D-10 0.000000000000D+00 0.000000000000D+00 0.119360073178D-05 0.000000000000D+00  6 1 21 25 1 1 -1 2 0.69457749D-01 0.65487115D+00 0.45539342D+06 0.45539342D+06 0.45539342D+06 0.10713905D+01  1  2 12  5  6  2        1 0.174730247833D-12 0.100000000000D+01
-.451242781966D-04 0.000000000000D+00 -.347288528917D-05 0.119360073178D-05 0.000000000000D+00  6 1 21 25 1 1 -1 2 0.69457749D-01 0.65352057D+00 0.32990560D+06 0.32990560D+06 0.32990560D+06 0.10815118D+01  1  2  5  5  6  2        1 -.120386251555D-06 0.100000000000D+01
  </mgrwgt>
  </event>
  <event>
  5     66 -.18540751E-05 0.17349669E+03 0.75467711E-02 0.91201111E-01
        1 -1    0    0  502    0 0.00000000E+00 0.00000000E+00 0.13765525E+04 0.13765526E+04 0.32000000E+00 0.0000E+00 0.9000E+01
        1 -1    0    0  501    0 -.00000000E+00 -.00000000E+00 -.16400398E+04 0.16400398E+04 0.32000000E+00 0.0000E+00 0.9000E+01
       25  1    1    2    0    0 -.56805689E+03 0.29902806E+03 -.29119330E+03 0.71590848E+03 0.12500000E+03 0.0000E+00 0.9000E+01
        1  1    1    2  501    0 0.16391075E+03 0.56829247E+02 -.10668371E+04 0.10808505E+04 0.32000000E+00 0.0000E+00 0.9000E+01
        1  1    1    2  502    0 0.40414614E+03 -.35585731E+03 0.10945432E+04 0.12198334E+04 0.32000000E+00 0.0000E+00 0.9000E+01
#aMCatNLO 1  0  0  5  5 0.44875361D+03 0.00000000D+00  -5  6  0 0.00000000D+00 0.00000000D+00 0.00000000D+00 0.00000000D+00 0.00000000D+00
  <mgrwgt>
 -.4644052149D-03    4    2    0
 0.150253154062904D+04 0.000000000000000D+00 0.000000000000000D+00 0.150253154062904D+04
 0.150253154062904D+04 -.000000000000000D+00 -.000000000000000D+00 -.150253154062904D+04
 0.693098655358007D+03 -.568062325429006D+03 0.299017734974884D+03 -.229465323432011D+03
 0.991506824262760D+03 0.163924304119209D+03 0.568324264490500D+02 -.976209342499123D+03
 0.132045760163732D+04 0.404138021309798D+03 -.355850161423934D+03 0.120567466593113D+04
 0.000000000000000D+00 0.000000000000000D+00 0.000000000000000D+00 0.000000000000000D+00
 0.150253154062904D+04 0.000000000000000D+00 0.000000000000000D+00 0.150253154062904D+04
 0.150253154062904D+04 -.000000000000000D+00 -.000000000000000D+00 -.150253154062904D+04
 0.689566838491889D+03 -.566442408280476D+03 0.297591371335725D+03 -.224632585694144D+03
 0.984978475918109D+03 0.166239934650109D+03 0.547934757570349D+02 -.969301066317349D+03
 0.429028304214873D+03 0.229034340085978D+03 -.139846834826929D+03 0.334740824620721D+03
 0.901489462633219D+03 0.171168133544389D+03 -.212538012265831D+03 0.859192827390772D+03
0.289807664676D-03 0.000000000000D+00 0.000000000000D+00 0.287829698399D-05 0.000000000000D+00  6 1 1 25 1 1 21 0 0.21177732D+00 0.25231382D+00 0.46647870D+06 0.46647870D+06 0.46647870D+06 0.10706469D+01  1  2  2  3  6  5        1 0.155673586142D-03 0.100000000000D+01
0.475952618419D-04 0.000000000000D+00 -.111293774047D-05 0.287829698399D-05 0.000000000000D+00  6 1 1 25 1 1 21 2 0.21177732D+00 0.25231382D+00 0.46647870D+06 0.46647870D+06 0.46647870D+06 0.10706469D+01  1  2  3  3  6  5        1 0.293063237975D-04 0.100000000000D+01
-.206476382777D-03 0.000000000000D+00 0.000000000000D+00 0.287829698399D-05 0.000000000000D+00  6 1 1 25 1 1 21 2 0.21177732D+00 0.25231382D+00 0.46647870D+06 0.46647870D+06 0.46647870D+06 0.10706469D+01  1  2 15  3  6  5        1 -.127135842855D-03 0.100000000000D+01
-.848164767967D-03 0.000000000000D+00 0.000000000000D+00 0.287829698399D-05 0.000000000000D+00  6 1 1 25 1 1 21 2 0.21177732D+00 0.25231382D+00 0.46647870D+06 0.46647870D+06 0.46647870D+06 0.10706469D+01  1  2  5  3  6  5        1 -.522249282003D-03 0.100000000000D+01
  </mgrwgt>
  </event>
  <event>
  5     66 0.18540751E-05 0.14988377E+03 0.75467711E-02 0.88536395E-01
        1 -1    0    0  502    0 0.00000000E+00 0.00000000E+00 0.13694142E+04 0.13694143E+04 0.32000000E+00 0.0000E+00 0.9000E+01
        1 -1    0    0  501    0 0.00000000E+00 0.00000000E+00 -.67917558E+03 0.67917565E+03 0.32000000E+00 0.0000E+00 0.9000E+01
       25  1    1    2    0    0 -.38386324E+03 0.30353866E+03 -.13423982E+03 0.52262036E+03 0.12500000E+03 0.0000E+00 0.9000E+01
        1  1    1    2  501    0 0.48370048E+03 -.19172481E+03 -.14883505E+03 0.54118069E+03 0.32000000E+00 0.0000E+00 0.9000E+01
        1  1    1    2  502    0 -.99837240E+02 -.11181385E+03 0.97331352E+03 0.98478888E+03 0.32000000E+00 0.0000E+00 0.9000E+01
#aMCatNLO 1  0  0  5  1 0.35697982D+02 0.00000000D+00  -5  6  0 0.00000000D+00 0.00000000D+00 0.00000000D+00 0.00000000D+00 0.00000000D+00
  <mgrwgt>
 0.6872306262D-03    3    2    0
 0.964402827697610D+03 0.000000000000000D+00 0.000000000000000D+00 0.964402827697610D+03
 0.964402827697610D+03 -.000000000000000D+00 -.000000000000000D+00 -.964402827697610D+03
 0.603155527573944D+03 -.383929350015375D+03 0.303567395888495D+03 -.329570448907745D+03
 0.628083681046920D+03 0.483756225362104D+03 -.191765156111304D+03 -.351703212556363D+03
 0.697566446774355D+03 -.998268753467286D+02 -.111802239777191D+03 0.681273661464108D+03
 0.000000000000000D+00 0.000000000000000D+00 0.000000000000000D+00 -.000000000000000D+00
 0.964402827697610D+03 0.000000000000000D+00 0.000000000000000D+00 0.964402827697610D+03
 0.964402827697610D+03 -.000000000000000D+00 -.000000000000000D+00 -.964402827697610D+03
 0.537348194283816D+03 -.406673749054010D+03 0.278094548560824D+03 -.174350124150186D+03
 0.544391506160292D+03 0.460374238079063D+03 -.217952077615218D+03 -.192131633927898D+03
 0.360276909190220D+03 0.296456313770860D+03 0.168054445080364D+03 0.116922234026647D+03
 0.486789045760892D+03 -.350156802795913D+03 -.228196916025971D+03 0.249559524051437D+03
0.618806001538D-03 0.000000000000D+00 0.000000000000D+00 0.271695544772D-06 0.000000000000D+00  6 1 1 25 1 1 21 0 0.21067912D+00 0.10448856D+00 0.34540057D+06 0.34540057D+06 0.34540057D+06 0.10800527D+01  1  2  2  3  6  5        1 0.181503925611D-02 0.100000000000D+01
0.912385788274D-04 0.000000000000D+00 -.237637798127D-05 0.271695544772D-06 0.000000000000D+00  6 1 1 25 1 1 21 2 0.21067912D+00 0.10448856D+00 0.34540057D+06 0.34540057D+06 0.34540057D+06 0.10800527D+01  1  2  3  3  6  5        1 0.312176300693D-03 0.100000000000D+01
-.420858913100D-03 0.000000000000D+00 0.000000000000D+00 0.271695544772D-06 0.000000000000D+00  6 1 1 25 1 1 21 2 0.21067912D+00 0.10448856D+00 0.34540057D+06 0.34540057D+06 0.34540057D+06 0.10800527D+01  1  2 15  3  6  5        1 -.143998493065D-02 0.100000000000D+01
  </mgrwgt>
  </event>
  <event>
  5     66 0.18540751E-05 0.42487913E+02 0.75467711E-02 0.94629565E-01
        1 -1    0    0  502    0 0.00000000E+00 0.00000000E+00 0.89648055E+03 0.89648060E+03 0.32000000E+00 0.0000E+00 0.9000E+01
        1 -1    0    0  501    0 0.00000000E+00 0.00000000E+00 -.68207588E+03 0.68207596E+03 0.32000000E+00 0.0000E+00 0.9000E+01
       25  1    1    2    0    0 0.82253252E+02 -.46115432E+03 0.24950742E+03 0.54525944E+03 0.12500000E+03 0.0000E+00 0.9000E+01
        1  1    1    2  501    0 -.12438199E+03 0.45548586E+03 -.42849795E+03 0.63761183E+03 0.32000000E+00 0.0000E+00 0.9000E+01
        1  1    1    2  502    0 0.42128735E+02 0.56684625E+01 0.39339520E+03 0.39568529E+03 0.32000000E+00 0.0000E+00 0.9000E+01
#aMCatNLO 1  0  0  1  5 0.38729240D+02 0.00000000D+00  -5  6  0 0.00000000D+00 0.00000000D+00 0.00000000D+00 0.00000000D+00 0.00000000D+00
  <mgrwgt>
 0.2046196593D-02    5    2    0
 0.781964105511971D+03 0.000000000000000D+00 0.000000000000000D+00 0.781964105511971D+03
 0.781964105511971D+03 0.000000000000000D+00 0.000000000000000D+00 -.781964105511971D+03
 0.516282935422076D+03 0.822918927563291D+02 -.461241239174074D+03 0.177221988138552D+03
 0.702357328764040D+03 -.124400350382071D+03 0.455575505058432D+03 -.519885881020182D+03
 0.345287946837826D+03 0.421084576257423D+02 0.566573411564234D+01 0.342663892881630D+03
 0.000000000000000D+00 0.000000000000000D+00 -.000000000000000D+00 0.000000000000000D+00
 0.142162461287691D+04 0.000000000000000D+00 0.000000000000000D+00 0.142162461287691D+04
 0.103581262307571D+04 0.000000000000000D+00 0.000000000000000D+00 -.103581262307571D+04
 0.364654795536193D+03 0.306988694686374D+02 -.291544278354266D+03 0.177221988138552D+03
 0.959825754331878D+03 -.221747810368023D+03 0.775765465841072D+03 -.519885881020182D+03
 0.371599049735052D+03 0.123234142812677D+00 0.143761243360462D+03 0.342663892881630D+03
 0.761357636349503D+03 0.190925706756573D+03 -.627982430847268D+03 0.385811989801199D+03
0.524315504671D-03 0.000000000000D+00 0.000000000000D+00 0.373483051081D-05 0.000000000000D+00  6 1 1 25 1 1 21 0 0.13792009D+00 0.10493476D+00 0.24982774D+06 0.24982774D+06 0.24982774D+06 0.10904816D+01  1  2  2  1  6  1        1 0.345096363930D-02 0.100000000000D+01
0.186475111136D-03 0.000000000000D+00 -.201350959338D-05 0.373483051081D-05 0.000000000000D+00  6 1 1 25 1 1 21 2 0.13792009D+00 0.10493476D+00 0.24982774D+06 0.24982774D+06 0.24982774D+06 0.10904816D+01  1  2  3  1  6  1        1 0.145950391548D-02 0.100000000000D+01
-.346897752919D-03 0.000000000000D+00 0.000000000000D+00 0.373483051081D-05 0.000000000000D+00  6 1 1 25 1 1 21 2 0.13792009D+00 0.10493476D+00 0.24982774D+06 0.24982774D+06 0.24982774D+06 0.10904816D+01  1  2 15  1  6  1        1 -.271510029180D-02 0.100000000000D+01
-.991570857896D-04 0.000000000000D+00 -.287610811635D-03 0.373483051081D-05 0.000000000000D+00  6 1 1 25 1 1 21 2 0.29028991D+00 0.10493476D+00 0.24982774D+06 0.24982774D+06 0.24982774D+06 0.10904816D+01  1  2  5  1  6  1        1 -.157922350472D-03 0.100000000000D+01
0.985095480104D-05 0.000000000000D+00 -.231501090269D-04 0.373483051081D-05 0.000000000000D+00  6 21 1 25 1 1 -1 2 0.29028991D+00 0.10493476D+00 0.24982774D+06 0.24982774D+06 0.24982774D+06 0.10904816D+01  1  2  5  4  6  1        1 0.875168023360D-05 0.100000000000D+01
  </mgrwgt>
  </event>
  <event>
  5     66 -.18540751E-05 0.24118160E+03 0.75467711E-02 0.93016988E-01
        1 -1    0    0  502    0 0.00000000E+00 0.00000000E+00 0.25488298E+04 0.25488298E+04 0.32000000E+00 0.0000E+00 0.9000E+01
        1 -1    0    0  501    0 0.00000000E+00 0.00000000E+00 -.10234873E+04 0.10234873E+04 0.32000000E+00 0.0000E+00 0.9000E+01
       25  1    1    2    0    0 -.53855966E+01 -.53997537E+03 0.32513508E+03 0.64260425E+03 0.12500000E+03 0.0000E+00 0.9000E+01
        1  1    1    2  501    0 -.12640177E+03 0.20538050E+03 -.83183878E+03 0.86609146E+03 0.32000000E+00 0.0000E+00 0.9000E+01
        1  1    1    2  502    0 0.13178737E+03 0.33459487E+03 0.20320462E+04 0.20636214E+04 0.32000000E+00 0.0000E+00 0.9000E+01
#aMCatNLO 1  0  0  2  4 0.30399221D+00 0.00000000D+00  -5  6  0 0.00000000D+00 0.00000000D+00 0.00000000D+00 0.00000000D+00 0.00000000D+00
  <mgrwgt>
 -.6756704044D-03    9    2    0
 0.161514550520507D+04 0.000000000000000D+00 0.000000000000000D+00 0.161514550520507D+04
 0.161514550520507D+04 0.000000000000000D+00 0.000000000000000D+00 -.161514550520507D+04
 0.557128720454274D+03 -.537098951895432D+01 -.539981663650251D+03 0.561993465096422D+02
 0.135062180967053D+04 -.126411654134967D+03 0.205398779097418D+03 -.132891335609280D+04
 0.132254048028533D+04 0.131782643653921D+03 0.334582884552833D+03 0.127271400958316D+04
 0.000000000000000D+00 -.000000000000000D+00 0.000000000000000D+00 -.000000000000000D+00
 0.161514574921372D+04 0.000000000000000D+00 0.000000000000000D+00 0.161514574921372D+04
 0.171268471573787D+04 0.000000000000000D+00 0.000000000000000D+00 -.171268471573787D+04
 0.557147256924359D+03 -.532236302684943D+01 -.540001270185578D+03 0.561993465096422D+02
 0.135060355426177D+04 -.126293773900178D+03 0.205351248977772D+03 -.132891335609280D+04
 0.132254021352787D+04 0.131898073761081D+03 0.334536342341462D+03 0.127271400958316D+04
 0.975394402375978D+02 -.281936834053372D+00 0.113678866344930D+00 -.975389665241583D+02
0.964544266989D-06 0.000000000000D+00 0.000000000000D+00 0.973523326874D-05 0.000000000000D+00  6 1 1 25 1 1 21 0 0.39212766D+00 0.15745959D+00 0.33354602D+06 0.33354602D+06 0.33354602D+06 0.10811624D+01  1  2  2  2  6  2        1 0.232245049190D-06 0.100000000000D+01
0.122666920694D-06 0.000000000000D+00 -.370410395557D-08 0.973523326874D-05 0.000000000000D+00  6 1 1 25 1 1 21 2 0.39212766D+00 0.15745959D+00 0.33354602D+06 0.33354602D+06 0.33354602D+06 0.10811624D+01  1  2  3  2  6  2        1 0.345249939321D-07 0.100000000000D+01
-.633475530393D-06 0.000000000000D+00 0.000000000000D+00 0.973523326874D-05 0.000000000000D+00  6 1 1 25 1 1 21 2 0.39212766D+00 0.15745959D+00 0.33354602D+06 0.33354602D+06 0.33354602D+06 0.10811624D+01  1  2 15  2  6  2        1 -.178293697430D-06 0.100000000000D+01
-.732222019840D+00 0.000000000000D+00 0.000000000000D+00 0.973523326874D-05 0.000000000000D+00  6 1 1 25 1 1 21 2 0.39212766D+00 0.15745959D+00 0.33354602D+06 0.33354602D+06 0.33354602D+06 0.10811624D+01  1  2  4  2  6  2        1 -.206086210112D+00 0.100000000000D+01
-.712686645393D+00 0.000000000000D+00 -.367022910711D-05 0.973523326874D-05 0.000000000000D+00  6 1 1 25 1 1 21 2 0.39212766D+00 0.16696864D+00 0.33354602D+06 0.33354602D+06 0.33354602D+06 0.10811624D+01  1  2  5  2  6  2        1 -.180299141141D+00 0.100000000000D+01
0.711463398190D+00 0.000000000000D+00 0.366392842907D-05 0.973523326874D-05 0.000000000000D+00  6 1 1 25 1 1 21 2 0.39212766D+00 0.15745959D+00 0.33354602D+06 0.33354602D+06 0.33354602D+06 0.10811624D+01  1  2  6  2  6  2        1 0.200243630201D+00 0.100000000000D+01
0.733151021551D+00 0.000000000000D+00 0.000000000000D+00 0.973523326874D-05 0.676771647424D-03  6 1 1 25 1 1 21 2 0.39212772D+00 0.16696863D+00 0.33367274D+06 0.33367274D+06 0.33367274D+06 0.10811503D+01  1  2 11  2  6  2        1 0.185465688753D+00 0.100000000000D+01
-.719069526434D-02 0.000000000000D+00 -.370310224736D-07 0.973523326874D-05 0.000000000000D+00  6 1 21 25 1 1 -1 2 0.39212766D+00 0.16696864D+00 0.33354602D+06 0.33354602D+06 0.33354602D+06 0.10811624D+01  1  2  5  5  6  2        1 -.216654249484D-02 0.100000000000D+01
0.719211983470D-02 0.000000000000D+00 0.000000000000D+00 0.973523326874D-05 0.663899384584D-05  6 1 21 25 1 1 -1 2 0.39212772D+00 0.16696863D+00 0.33367274D+06 0.33367274D+06 0.33367274D+06 0.10811503D+01  1  2 11  5  6  2        1 0.216681591249D-02 0.100000000000D+01
  </mgrwgt>
  </event>
  <event>
  5     66 0.18540751E-05 0.27066275E+02 0.75467711E-02 0.91890868E-01
        1 -1    0    0  502    0 0.00000000E+00 0.00000000E+00 0.15149372E+04 0.15149373E+04 0.32000000E+00 0.0000E+00 0.9000E+01
        1 -1    0    0  501    0 -.00000000E+00 -.00000000E+00 -.17476676E+04 0.17476676E+04 0.32000000E+00 0.0000E+00 0.9000E+01
       25  1    1    2    0    0 0.26917461E+03 -.55272414E+03 -.97522438E+03 0.11595889E+04 0.12500000E+03 0.0000E+00 0.9000E+01
        1  1    1    2  501    0 0.27046416E+02 -.11022457E+01 -.61063190E+03 0.61123166E+03 0.32000000E+00 0.0000E+00 0.9000E+01
        1  1    1    2  502    0 -.29622103E+03 0.55382639E+03 0.13531259E+04 0.14917843E+04 0.32000000E+00 0.0000E+00 0.9000E+01
#aMCatNLO 1  0  0  5  1 0.23113253D+02 0.00000000D+00  -5  6  0 0.00000000D+00 0.00000000D+00 0.00000000D+00 0.00000000D+00 0.00000000D+00
  <mgrwgt>
 0.2511055641D-01    8    2    0
 0.162714683682443D+04 0.000000000000000D+00 0.000000000000000D+00 0.162714683682443D+04
 0.162714683682443D+04 -.000000000000000D+00 -.000000000000000D+00 -.162714683682443D+04
 0.109286718264317D+04 0.269178256210255D+03 -.552726342098358D+03 -.894857718317604D+03
 0.569058005586568D+03 0.270438309602372D+02 -.110202704224184D+01 -.568413960477357D+03
 0.159236848541913D+04 -.296222087170493D+03 0.553828369140600D+03 0.146327167879496D+04
 0.000000000000000D+00 0.000000000000000D+00 0.000000000000000D+00 0.000000000000000D+00
 0.162714683682443D+04 0.000000000000000D+00 0.000000000000000D+00 0.162714683682443D+04
 0.162714683682443D+04 -.000000000000000D+00 -.000000000000000D+00 -.162714683682443D+04
 0.109238723437264D+04 0.269086603568704D+03 -.552554984744548D+03 -.894404974513287D+03
 0.568820092620950D+03 0.269961067535492D+02 -.101280000380233D+01 -.568178213438010D+03
 0.138277106646242D+04 -.250701257645288D+03 0.460584103135977D+03 0.127947918529343D+04
 0.210315280192849D+03 -.453814526769653D+02 0.929836816123735D+02 0.183104002657871D+03
0.568516906463D-03 0.000000000000D+00 0.000000000000D+00 0.445635806648D-04 0.000000000000D+00  6 1 1 25 1 1 21 0 0.23306727D+00 0.26887194D+00 0.41120389D+06 0.41120389D+06 0.41120389D+06 0.10745638D+01  1  2  2  3  6  5        1 0.210372582500D-03 0.100000000000D+01
0.290472419069D-03 0.000000000000D+00 -.218325461476D-05 0.445635806648D-04 0.000000000000D+00  6 1 1 25 1 1 21 2 0.23306727D+00 0.26887194D+00 0.41120389D+06 0.41120389D+06 0.41120389D+06 0.10745638D+01  1  2  3  3  6  5        1 0.124112374539D-03 0.100000000000D+01
-.429826006688D-03 0.000000000000D+00 0.000000000000D+00 0.445635806648D-04 0.000000000000D+00  6 1 1 25 1 1 21 2 0.23306727D+00 0.26887194D+00 0.41120389D+06 0.41120389D+06 0.41120389D+06 0.10745638D+01  1  2 15  3  6  5        1 -.183655048902D-03 0.100000000000D+01
0.184047344189D-08 0.000000000000D+00 0.000000000000D+00 0.445635806648D-04 0.000000000000D+00  6 1 1 25 1 1 21 2 0.23306727D+00 0.26887194D+00 0.41091426D+06 0.41091426D+06 0.41091426D+06 0.10745858D+01  1  2 12  3  6  5        1 0.786472842941D-09 0.100000000000D+01
0.127860292978D+00 0.000000000000D+00 0.000000000000D+00 0.445635806648D-04 0.000000000000D+00  6 1 1 25 1 1 21 2 0.23306727D+00 0.26887194D+00 0.41091426D+06 0.41091426D+06 0.41091426D+06 0.10745858D+01  1  2 12  3  6  5        1 0.546373807027D-01 0.100000000000D+01
-.882155412824D-01 0.000000000000D+00 0.000000000000D+00 0.445635806648D-04 0.000000000000D+00  6 1 1 25 1 1 21 2 0.23306727D+00 0.26887194D+00 0.41120389D+06 0.41120389D+06 0.41120389D+06 0.10745638D+01  1  2  4  3  6  5        1 -.376925297587D-01 0.100000000000D+01
-.133307373098D+00 0.000000000000D+00 0.000000000000D+00 0.445635806648D-04 0.000000000000D+00  6 1 1 25 1 1 21 2 0.23306727D+00 0.26887194D+00 0.41120389D+06 0.41120389D+06 0.41120389D+06 0.10745638D+01  1  2  5  3  6  5        1 -.569592619905D-01 0.100000000000D+01
0.152065374248D+00 0.000000000000D+00 -.000000000000D+00 0.445635806648D-04 0.000000000000D+00  6 1 1 25 1 1 21 2 0.23306727D+00 0.26887194D+00 0.41120389D+06 0.41120389D+06 0.41120389D+06 0.10745638D+01  1  2  6  3  6  5        1 0.649741367654D-01 0.100000000000D+01
  </mgrwgt>
  </event>
  <event>
  6     66 -.18540751E-05 0.72234466E+02 0.75467711E-02 0.94271894E-01
        1 -1    0    0  502    0 0.00000000E+00 0.00000000E+00 0.13942834E+04 0.13942834E+04 0.32000000E+00 0.0000E+00 0.9000E+01
        1 -1    0    0  501    0 -.00000000E+00 -.00000000E+00 -.18250677E+04 0.18250677E+04 0.32000000E+00 0.0000E+00 0.9000E+01
       25  1    1    2    0    0 0.24890384E+03 0.42730503E+03 0.68923480E+03 0.85744523E+03 0.12500000E+03 0.0000E+00 0.9000E+01
        1  1    1    2  501    0 -.26939765E+03 -.35085922E+03 -.17100503E+04 0.17663379E+04 0.32000000E+00 0.0000E+00 0.9000E+01
        1  1    1    2  503    0 0.95216071E+01 -.29327934E+02 0.29348654E+03 0.29510209E+03 0.32000000E+00 0.0000E+00 0.9000E+01
       21  1    1    2  502  503 0.10972196E+02 -.47117877E+02 0.29654464E+03 0.30046592E+03 0.75000000E+00 0.0000E+00 0.9000E+01
#aMCatNLO 2  0  0  5  1 0.86260513D+01 0.00000000D+00  -5  6  0 0.00000000D+00 0.00000000D+00 0.00000000D+00 0.00000000D+00 0.00000000D+00
  <mgrwgt>
 -.5024884909D-02    3    2    0
 0.159519955122642D+04 0.000000000000000D+00 0.000000000000000D+00 0.159519955122642D+04
 0.159519955122642D+04 -.000000000000000D+00 -.000000000000000D+00 -.159519955122642D+04
 0.958800965621666D+03 0.249009230494489D+03 0.427364711691908D+03 0.811805455762693D+03
 0.155161124052095D+04 -.269489960598039D+03 -.350967665509493D+03 -.148717662051777D+04
 0.679986896310215D+03 0.204807301035502D+02 -.763970461824141D+02 0.675371164755075D+03
 0.000000000000000D+00 0.000000000000000D+00 -.000000000000000D+00 0.000000000000000D+00
 0.159519955122642D+04 0.000000000000000D+00 0.000000000000000D+00 0.159519955122642D+04
 0.159519955122642D+04 -.000000000000000D+00 -.000000000000000D+00 -.159519955122642D+04
 0.958853508663725D+03 0.249011211919737D+03 0.427357320596207D+03 0.811870795107096D+03
 0.155151204894739D+04 -.269486754281720D+03 -.350979625683503D+03 -.148707088924863D+04
 0.337243158873521D+03 0.951827775740453D+01 -.293312419258552D+02 0.335830357238012D+03
 0.342790385968194D+03 0.109572646045786D+02 -.470464529868494D+02 0.339369736903521D+03
-.374976473158D-09 0.000000000000D+00 0.000000000000D+00 0.409964006154D-04 0.000000000000D+00  6 1 1 25 1 1 21 2 0.21450514D+00 0.28077965D+00 0.26615755D+06 0.26615755D+06 0.26615755D+06 0.10884188D+01  1  2 13  3  6  5        1 -.182941226511D-09 0.100000000000D+01
-.283659237890D-01 0.000000000000D+00 0.000000000000D+00 0.409964006154D-04 0.000000000000D+00  6 1 1 25 1 1 21 2 0.21450514D+00 0.28077965D+00 0.26615755D+06 0.26615755D+06 0.26615755D+06 0.10884188D+01  1  2 13  3  6  5        1 -.138389932717D-01 0.100000000000D+01
0.180663669938D-01 0.000000000000D+00 0.000000000000D+00 0.409964006154D-04 0.674321854482D-06  6 1 1 25 1 1 21 2 0.21450514D+00 0.28077965D+00 0.26615755D+06 0.26615755D+06 0.26615755D+06 0.10884188D+01  1  2  1  3  6  5        1 0.881410854556D-02 0.100000000000D+01
  </mgrwgt>
  </event>
  <event>
  5     66 0.18540751E-05 0.24485761E+03 0.75467711E-02 0.92373796E-01
        1 -1    0    0  502    0 0.00000000E+00 0.00000000E+00 0.13291297E+04 0.13291297E+04 0.32000000E+00 0.0000E+00 0.9000E+01
        1 -1    0    0  501    0 -.00000000E+00 -.00000000E+00 -.27368155E+04 0.27368155E+04 0.32000000E+00 0.0000E+00 0.9000E+01
       25  1    1    2    0    0 0.47729131E+03 0.30216726E+03 0.32541058E+03 0.66379899E+03 0.12500000E+03 0.0000E+00 0.9000E+01
        1  1    1    2  501    0 -.38086029E+03 -.77072212E+02 -.25345252E+04 0.25641397E+04 0.32000000E+00 0.0000E+00 0.9000E+01
        1  1    1    2  502    0 -.96431023E+02 -.22509504E+03 0.80142878E+03 0.83800651E+03 0.32000000E+00 0.0000E+00 0.9000E+01
#aMCatNLO 1  0  0  5  1 0.61989083D+02 0.00000000D+00  -5  6  0 0.00000000D+00 0.00000000D+00 0.00000000D+00 0.00000000D+00 0.00000000D+00
  <mgrwgt>
 0.4922474116D-03    8    2    0
 0.190724482380098D+04 0.000000000000000D+00 0.000000000000000D+00 0.190724482380098D+04
 0.190724482380098D+04 -.000000000000000D+00 -.000000000000000D+00 -.190724482380098D+04
 0.827741101687019D+03 0.477312919163719D+03 0.302153014622257D+03 0.591951234795681D+03
 0.179785699700893D+04 -.380891119531591D+03 -.770794997846697D+02 -.175535480386983D+04
 0.118889154890600D+04 -.964217996321280D+02 -.225073514837587D+03 0.116340356907415D+04
 0.000000000000000D+00 -.000000000000000D+00 0.000000000000000D+00 0.000000000000000D+00
 0.190724482380098D+04 0.000000000000000D+00 0.000000000000000D+00 0.190724482380098D+04
 0.190724482380098D+04 -.000000000000000D+00 -.000000000000000D+00 -.190724482380098D+04
 0.828678416130988D+03 0.477182878519767D+03 0.301849465996140D+03 0.593520275716675D+03
 0.179462290464470D+04 -.381173154604693D+03 -.777378428715325D+02 -.175195183263404D+04
 0.388184626517136D+03 0.161300474944945D+02 -.340128800115525D+02 0.386355082567051D+03
 0.803003700309132D+03 -.112139771409568D+03 -.190098743113055D+03 0.772076474350311D+03
0.364893249992D-03 0.000000000000D+00 0.000000000000D+00 0.890634750291D-05 0.000000000000D+00  6 1 1 25 1 1 21 0 0.20448149D+00 0.42104854D+00 0.36726306D+06 0.36726306D+06 0.36726306D+06 0.10781111D+01  1  2  2  3  6  5        1 0.386142487600D-04 0.100000000000D+01
0.338602221476D-04 0.000000000000D+00 -.140128615857D-05 0.890634750291D-05 0.000000000000D+00  6 1 1 25 1 1 21 2 0.20448149D+00 0.42104854D+00 0.36726306D+06 0.36726306D+06 0.36726306D+06 0.10781111D+01  1  2  3  3  6  5        1 0.416484286868D-05 0.100000000000D+01
-.231572463941D-03 0.000000000000D+00 0.000000000000D+00 0.890634750291D-05 0.000000000000D+00  6 1 1 25 1 1 21 2 0.20448149D+00 0.42104854D+00 0.36726306D+06 0.36726306D+06 0.36726306D+06 0.10781111D+01  1  2 15  3  6  5        1 -.284836561563D-04 0.100000000000D+01
0.625445273385D-10 0.000000000000D+00 0.000000000000D+00 0.890634750291D-05 0.000000000000D+00  6 1 1 25 1 1 21 2 0.20448149D+00 0.42104854D+00 0.37557434D+06 0.37557434D+06 0.37557434D+06 0.10774058D+01  1  2 12  3  6  5        1 0.766568031818D-11 0.100000000000D+01
0.262623552163D-02 0.000000000000D+00 0.000000000000D+00 0.890634750291D-05 0.000000000000D+00  6 1 1 25 1 1 21 2 0.20448149D+00 0.42104854D+00 0.37557434D+06 0.37557434D+06 0.37557434D+06 0.10774058D+01  1  2 12  3  6  5        1 0.321880791266D-03 0.100000000000D+01
-.117121960608D-02 0.000000000000D+00 0.000000000000D+00 0.890634750291D-05 0.000000000000D+00  6 1 1 25 1 1 21 2 0.20448149D+00 0.42104854D+00 0.36726306D+06 0.36726306D+06 0.36726306D+06 0.10781111D+01  1  2  4  3  6  5        1 -.144061241028D-03 0.100000000000D+01
-.301475079034D-02 0.000000000000D+00 0.000000000000D+00 0.890634750291D-05 0.000000000000D+00  6 1 1 25 1 1 21 2 0.20448149D+00 0.42104854D+00 0.36726306D+06 0.36726306D+06 0.36726306D+06 0.10781111D+01  1  2  5  3  6  5        1 -.370817511925D-03 0.100000000000D+01
0.545483092633D-02 0.000000000000D+00 -.000000000000D+00 0.890634750291D-05 0.000000000000D+00  6 1 1 25 1 1 21 2 0.20448149D+00 0.42104854D+00 0.36726306D+06 0.36726306D+06 0.36726306D+06 0.10781111D+01  1  2  6  3  6  5        1 0.670949930109D-03 0.100000000000D+01
  </mgrwgt>
  </event>
  <event>
  6     66 0.18540751E-05 0.44580372E+02 0.75467711E-02 0.93581742E-01
        1 -1    0    0  502    0 0.00000000E+00 0.00000000E+00 0.75342172E+03 0.75342178E+03 0.32000000E+00 0.0000E+00 0.9000E+01
        1 -1    0    0  501    0 -.00000000E+00 -.00000000E+00 -.17494349E+04 0.17494349E+04 0.32000000E+00 0.0000E+00 0.9000E+01
       25  1    1    2    0    0 0.28442243E+03 0.41916877E+03 -.25335869E+02 0.52236528E+03 0.12500000E+03 0.0000E+00 0.9000E+01
        1  1    1    2  501    0 -.25541774E+03 -.34572950E+03 -.97630145E+03 0.10667388E+04 0.32000000E+00 0.0000E+00 0.9000E+01
        1  1    1    2  503    0 -.67213809E+02 -.51963145E+01 0.45381153E+03 0.45879157E+03 0.32000000E+00 0.0000E+00 0.9000E+01
       21  1    1    2  502  503 0.38209113E+02 -.68242953E+02 -.44818739E+03 0.45496102E+03 0.75000000E+00 0.0000E+00 0.9000E+01
#aMCatNLO 2  0  0  5  4 0.12092602D+03 0.00000000D+00  -5  6  0 0.00000000D+00 0.00000000D+00 0.00000000D+00 0.00000000D+00 0.00000000D+00
  <mgrwgt>
 0.2807251780D-03    1    2    0
 0.114806896746703D+04 0.000000000000000D+00 0.000000000000000D+00 0.114806896746703D+04
 0.114806896746703D+04 -.000000000000000D+00 -.000000000000000D+00 -.114806896746703D+04
 0.553138575117561D+03 0.296062421179772D+03 0.448504552038585D+03 0.390895491010653D+02
 0.925286396457583D+03 -.238238469277595D+03 -.302095551285268D+03 -.841507947151647D+03
 0.817712963358923D+03 -.578239519021772D+02 -.146409000753318D+03 0.802418398050581D+03
 0.000000000000000D+00 0.000000000000000D+00 0.000000000000000D+00 -.000000000000000D+00
 0.114806896746703D+04 0.000000000000000D+00 0.000000000000000D+00 0.114806896746703D+04
 0.114806896746703D+04 -.000000000000000D+00 -.000000000000000D+00 -.114806896746703D+04
 0.558664162169378D+03 0.284510091697380D+03 0.419254302613375D+03 0.199400309816545D+03
 0.739400943014628D+03 -.255535617400901D+03 -.345891557772330D+03 -.601476793427887D+03
 0.696540095923033D+03 -.671937611540204D+02 -.505588527571160D+01 0.693273064322077D+03
 0.301532733827028D+03 0.382192868575410D+02 -.683068595653325D+02 -.291196580710736D+03
0.170502007731D-03 0.000000000000D+00 0.000000000000D+00 0.458556374356D-05 0.131016083931D-07  6 1 1 25 1 1 21 2 0.11591104D+00 0.26914384D+00 0.30116430D+06 0.30116430D+06 0.30116430D+06 0.10844274D+01  1  2  1  3  6  5        1 0.280725177995D-03 0.100000000000D+01
  </mgrwgt>
  </event>
  <event>
  5     66 -.18540751E-05 0.33544659E+02 0.75467711E-02 0.91625367E-01
        1 -1    0    0  502    0 0.00000000E+00 0.00000000E+00 0.17716355E+04 0.17716355E+04 0.32000000E+00 0.0000E+00 0.9000E+01
        1 -1    0    0  501    0 0.00000000E+00 0.00000000E+00 -.10740217E+04 0.10740218E+04 0.32000000E+00 0.0000E+00 0.9000E+01
       25  1    1    2    0    0 -.24716499E+03 -.59332770E+03 0.62140643E+03 0.90271770E+03 0.12500000E+03 0.0000E+00 0.9000E+01
        1  1    1    2  501    0 0.32573764E+02 0.79969302E+01 -.83675406E+03 0.83742609E+03 0.32000000E+00 0.0000E+00 0.9000E+01
        1  1    1    2  502    0 0.21459122E+03 0.58533077E+03 0.91296140E+03 0.11055135E+04 0.32000000E+00 0.0000E+00 0.9000E+01
#aMCatNLO 1  0  0  5  2 0.82738195D+02 0.00000000D+00  -5  6  0 0.00000000D+00 0.00000000D+00 0.00000000D+00 0.00000000D+00 0.00000000D+00
  <mgrwgt>
 -.2019355918D-02    6    2    0
 0.137941115592804D+04 0.000000000000000D+00 0.000000000000000D+00 0.137941115592804D+04
 0.137941115592804D+04 -.000000000000000D+00 -.000000000000000D+00 -.137941115592804D+04
 0.774022195846330D+03 -.247145135258725D+03 -.593264932058070D+03 0.412845445864253D+03
 0.107544653352570D+04 0.325772673083480D+02 0.799786158506249D+01 -.107492325416154D+04
 0.909353582484046D+03 0.214567867950377D+03 0.585267070473008D+03 0.662077808297289D+03
 0.000000000000000D+00 0.000000000000000D+00 0.000000000000000D+00 0.000000000000000D+00
 0.137941115592804D+04 0.000000000000000D+00 0.000000000000000D+00 0.137941115592804D+04
 0.137941115592804D+04 -.000000000000000D+00 -.000000000000000D+00 -.137941115592804D+04
 0.773866274331191D+03 -.246940477009543D+03 -.592706695006591D+03 0.413476946220586D+03
 0.107458450755729D+04 0.328615394616927D+02 0.877325788272036D+01 -.107404609447289D+04
 0.653048712295579D+03 0.121268187680725D+03 0.427410750043464D+03 0.478630022078463D+03
 0.257322817672023D+03 0.928107498671259D+02 0.156522687080407D+03 0.181939126173839D+03
0.643427567946D-04 0.000000000000D+00 0.000000000000D+00 0.134916148994D-04 0.000000000000D+00  6 1 1 25 1 1 21 0 0.27255931D+00 0.16523412D+00 0.43009477D+06 0.43009477D+06 0.43009477D+06 0.10731639D+01  1  2  2  3  6  5        1 0.466573142005D-04 0.100000000000D+01
0.468127465339D-04 0.000000000000D+00 -.247093127928D-06 0.134916148994D-04 0.000000000000D+00  6 1 1 25 1 1 21 2 0.27255931D+00 0.16523412D+00 0.43009477D+06 0.43009477D+06 0.43009477D+06 0.10731639D+01  1  2  3  3  6  5        1 0.390945544908D-04 0.100000000000D+01
-.395299676309D-04 0.000000000000D+00 0.000000000000D+00 0.134916148994D-04 0.000000000000D+00  6 1 1 25 1 1 21 2 0.27255931D+00 0.16523412D+00 0.43009477D+06 0.43009477D+06 0.43009477D+06 0.10731639D+01  1  2 15  3  6  5        1 -.330125144964D-04 0.100000000000D+01
-.341919540799D-02 0.000000000000D+00 0.000000000000D+00 0.134916148994D-04 0.000000000000D+00  6 1 1 25 1 1 21 2 0.27255931D+00 0.16523412D+00 0.43009477D+06 0.43009477D+06 0.43009477D+06 0.10731639D+01  1  2  4  3  6  5        1 -.285545991401D-02 0.100000000000D+01
-.292315358961D-02 0.000000000000D+00 0.000000000000D+00 0.134916148994D-04 0.000000000000D+00  6 1 1 25 1 1 21 2 0.27255931D+00 0.16523412D+00 0.43009477D+06 0.43009477D+06 0.43009477D+06 0.10731639D+01  1  2  5  3  6  5        1 -.244120235951D-02 0.100000000000D+01
0.386117298591D-02 0.000000000000D+00 -.000000000000D+00 0.134916148994D-04 0.000000000000D+00  6 1 1 25 1 1 21 2 0.27255931D+00 0.16523412D+00 0.43009477D+06 0.43009477D+06 0.43009477D+06 0.10731639D+01  1  2  6  3  6  5        1 0.322456700092D-02 0.100000000000D+01
  </mgrwgt>
  </event>
  <event>
  5     66 0.18540751E-05 0.17386572E+03 0.75467711E-02 0.92090599E-01
        1 -1    0    0  502    0 0.00000000E+00 0.00000000E+00 0.56486340E+03 0.56486349E+03 0.32000000E+00 0.0000E+00 0.9000E+01
        1 -1    0    0  501    0 0.00000000E+00 0.00000000E+00 -.36530965E+04 0.36530965E+04 0.32000000E+00 0.0000E+00 0.9000E+01
       25  1    1    2    0    0 -.45592654E+03 0.37499416E+03 -.75865148E+03 0.96936407E+03 0.12500000E+03 0.0000E+00 0.9000E+01
        1  1    1    2  501    0 0.32475104E+03 -.26086602E+03 -.27564121E+04 0.27877091E+04 0.32000000E+00 0.0000E+00 0.9000E+01
        1  1    1    2  502    0 0.13117550E+03 -.11412814E+03 0.42683051E+03 0.46088679E+03 0.32000000E+00 0.0000E+00 0.9000E+01
#aMCatNLO 1  0  0  1  5 0.45037241D+02 0.00000000D+00  -5  6  0 0.00000000D+00 0.00000000D+00 0.00000000D+00 0.00000000D+00 0.00000000D+00
  <mgrwgt>
 0.1068452617D-02   11    2    0
 0.143648902589506D+04 0.000000000000000D+00 0.000000000000000D+00 0.143648902589506D+04
 0.143648902589506D+04 0.000000000000000D+00 0.000000000000000D+00 -.143648902589506D+04
 0.607702656696940D+03 -.455953058425712D+03 0.375015192833083D+03 -.717490948592694D+02
 0.112987009429842D+04 0.324783972202006D+03 -.260892637026555D+03 -.105026512525930D+04
 0.113540530079477D+04 0.131169086223705D+03 -.114122555806528D+03 0.112201422011857D+04
 0.000000000000000D+00 -.000000000000000D+00 -.000000000000000D+00 0.000000000000000D+00
 0.222171104617889D+04 0.000000000000000D+00 0.000000000000000D+00 0.222171104617889D+04
 0.143731145257446D+04 0.000000000000000D+00 0.000000000000000D+00 -.143731145257446D+04
 0.601099080838144D+03 -.446506573954657D+03 0.375738009504777D+03 -.717490948592694D+02
 0.113477341084339D+04 0.342481597080855D+03 -.259538467827315D+03 -.105026512525930D+04
 0.113745854374778D+04 0.148930951007317D+03 -.112763471162363D+03 0.112201422011857D+04
 0.785691463324032D+03 -.449059741335155D+02 -.343607051509882D+01 0.784399593604429D+03
0.108335800505D-03 0.000000000000D+00 0.000000000000D+00 0.770538539827D-05 0.000000000000D+00  6 1 1 25 1 1 21 0 0.86902069D-01 0.56201486D+00 0.35635574D+06 0.35635574D+06 0.35635574D+06 0.10790636D+01  1  2  2  1  6  1        1 0.952163646614D-05 0.100000000000D+01
0.187213508894D-04 0.000000000000D+00 -.416037999410D-06 0.770538539827D-05 0.000000000000D+00  6 1 1 25 1 1 21 2 0.86902069D-01 0.56201486D+00 0.35635574D+06 0.35635574D+06 0.35635574D+06 0.10790636D+01  1  2  3  1  6  1        1 0.191589119912D-05 0.100000000000D+01
-.639433157801D-04 0.000000000000D+00 0.000000000000D+00 0.770538539827D-05 0.000000000000D+00  6 1 1 25 1 1 21 2 0.86902069D-01 0.56201486D+00 0.35635574D+06 0.35635574D+06 0.35635574D+06 0.10790636D+01  1  2 15  1  6  1        1 -.654378183871D-05 0.100000000000D+01
0.218293530530D-08 0.000000000000D+00 0.000000000000D+00 0.770538539827D-05 0.000000000000D+00  6 1 1 25 1 1 21 2 0.13442828D+00 0.56201486D+00 0.39586580D+06 0.39586580D+06 0.39586580D+06 0.10757530D+01  1  2 12  1  6  1        1 0.112292616250D-09 0.100000000000D+01
0.270425157508D-01 0.000000000000D+00 0.000000000000D+00 0.770538539827D-05 0.000000000000D+00  6 1 1 25 1 1 21 2 0.14058586D+00 0.56201486D+00 0.39586580D+06 0.39586580D+06 0.39586580D+06 0.10757530D+01  1  2 12  1  6  1        1 0.129036602930D-02 0.100000000000D+01
-.145002074505D-01 0.000000000000D+00 0.000000000000D+00 0.770538539827D-05 0.000000000000D+00  6 1 1 25 1 1 21 2 0.86902069D-01 0.56201486D+00 0.35635574D+06 0.35635574D+06 0.35635574D+06 0.10790636D+01  1  2  4  1  6  1        1 -.148391107052D-02 0.100000000000D+01
-.312016146915D-01 0.000000000000D+00 -.794462745547D-04 0.770538539827D-05 0.000000000000D+00  6 1 1 25 1 1 21 2 0.13443128D+00 0.56201486D+00 0.35635574D+06 0.35635574D+06 0.35635574D+06 0.10790636D+01  1  2  5  1  6  1        1 -.163319568250D-02 0.100000000000D+01
0.284888259811D-01 0.000000000000D+00 0.724421753657D-04 0.770538539827D-05 0.000000000000D+00  6 1 1 25 1 1 21 2 0.86902069D-01 0.56201486D+00 0.35635574D+06 0.35635574D+06 0.35635574D+06 0.10790636D+01  1  2  6  1  6  1        1 0.291546754789D-02 0.100000000000D+01
0.110811882482D-09 0.000000000000D+00 0.000000000000D+00 0.770538539827D-05 0.000000000000D+00  6 21 1 25 1 1 -1 2 0.13442828D+00 0.56201486D+00 0.39586580D+06 0.39586580D+06 0.39586580D+06 0.10757530D+01  1  2 12  4  6  1        1 0.883649519103D-11 0.100000000000D+01
0.147912422667D-02 0.000000000000D+00 0.000000000000D+00 0.770538539827D-05 0.000000000000D+00  6 21 1 25 1 1 -1 2 0.14058586D+00 0.56201486D+00 0.39586580D+06 0.39586580D+06 0.39586580D+06 0.10757530D+01  1  2 12  4  6  1        1 0.103608889173D-03 0.100000000000D+01
-.158090149233D-02 0.000000000000D+00 -.403306917443D-05 0.770538539827D-05 0.000000000000D+00  6 21 1 25 1 1 -1 2 0.13443128D+00 0.56201486D+00 0.35635574D+06 0.35635574D+06 0.35635574D+06 0.10790636D+01  1  2  5  4  6  1        1 -.128776963610D-03 0.100000000000D+01
  </mgrwgt>
  </event>
</LesHouchesEvents>
