<event>
 5    0  0.2159162E+000  0.2945520E+03  0.7546771E-02  0.1087996E+00
         21   -1    0    0  502  501  0.00000000000E+00  0.00000000000E+00  0.65860299098E+03  0.65860299098E+03  0.00000000000E+00 0.  1.
         21   -1    0    0  503  502 -0.00000000000E+00 -0.00000000000E+00 -0.14156877976E+03  0.14156877976E+03  0.00000000000E+00 0.  1.
         25    1    1    2    0    0  0.20219559763E+03 -0.17393333567E+03  0.13202981467E+03  0.32278899752E+03  0.12500000000E+03 0.  0.
         21    1    1    2  503  504 -0.67526569328E+02  0.59749192939E+02  0.62494740699E+02  0.10970595352E+03  0.00000000000E+00 0.  1.
         21    1    1    2  504  501 -0.13466902830E+03  0.11418414273E+03  0.32250965584E+03  0.36767681970E+03  0.00000000000E+00 0.  1.
<mgrwt>
<rscale>  4 0.29455197E+03</rscale>
<asrwt>0</asrwt>
<pdfrwt beam="1">  1       21 0.10132354E+00 0.29455197E+03</pdfrwt>
<pdfrwt beam="2">  1       21 0.21779813E-01 0.29455197E+03</pdfrwt>
<totfact> 0.14807008E+04</totfact>
</mgrwt>
</event>
<event>
 5    0  0.1794110E+001  0.2732635E+03  0.7546771E-02  0.1099426E+00
         21   -1    0    0  502  501  0.00000000000E+00  0.00000000000E+00  0.15686317511E+03  0.15686317511E+03  0.00000000000E+00 0.  1.
         21   -1    0    0  503  502 -0.00000000000E+00 -0.00000000000E+00 -0.73616010056E+03  0.73616010056E+03  0.00000000000E+00 0.  1.
         25    1    1    2    0    0  0.18485641088E+03  0.17440051327E+03 -0.39244393863E+02  0.28592403558E+03  0.12500000000E+03 0.  0.
         21    1    1    2  503  504 -0.16091553842E+03 -0.17911402765E+03 -0.52706104777E+03  0.57945577353E+03  0.00000000000E+00 0.  1.
         21    1    1    2  504  501 -0.23940872457E+02  0.47135143768E+01 -0.12991483818E+02  0.27643466562E+02  0.00000000000E+00 0. -1.
<mgrwt>
<rscale>  4 0.27326348E+03</rscale>
<asrwt>0</asrwt>
<pdfrwt beam="1">  1       21 0.24132796E-01 0.27326348E+03</pdfrwt>
<pdfrwt beam="2">  1       21 0.11325540E+00 0.27326348E+03</pdfrwt>
<totfact> 0.93751970E+03</totfact>
</mgrwt>
</event>
<event>
 5    0  0.2159162E+000  0.3587777E+03  0.7546771E-02  0.1059069E+00
         21   -1    0    0  502  501  0.00000000000E+00  0.00000000000E+00  0.10303647274E+03  0.10303647274E+03  0.00000000000E+00 0.  1.
         21   -1    0    0  503  502 -0.00000000000E+00 -0.00000000000E+00 -0.20030004923E+04  0.20030004923E+04  0.00000000000E+00 0.  1.
         25    1    1    2    0    0  0.25465437883E+03  0.21965337649E+03 -0.29385388968E+03  0.46375809097E+03  0.12500000000E+03 0.  0.
         21    1    1    2  503  504 -0.20938485998E+03 -0.20474097669E+03 -0.13079796111E+04  0.13403624697E+04  0.00000000000E+00 0.  1.
         21    1    1    2  504  501 -0.45269518843E+02 -0.14912399795E+02 -0.29813051871E+03  0.30191640431E+03  0.00000000000E+00 0.  1.
<mgrwt>
<rscale>  4 0.35877773E+03</rscale>
<asrwt>0</asrwt>
<pdfrwt beam="1">  1       21 0.15851766E-01 0.35877773E+03</pdfrwt>
<pdfrwt beam="2">  1       21 0.30815391E+00 0.35877773E+03</pdfrwt>
<totfact> 0.92389372E+02</totfact>
</mgrwt>
</event>
<event>
 5    0  0.2159162E+000  0.2635196E+03  0.7546771E-02  0.1105047E+00
         21   -1    0    0  502  501  0.00000000000E+00  0.00000000000E+00  0.97223286886E+03  0.97223286886E+03  0.00000000000E+00 0. -1.
         21   -1    0    0  503  502 -0.00000000000E+00 -0.00000000000E+00 -0.11374694398E+04  0.11374694398E+04  0.00000000000E+00 0. -1.
         25    1    1    2    0    0  0.22469850356E+03  0.65428367558E+02  0.92476569699E+03  0.96207426071E+03  0.12500000000E+03 0.  0.
         21    1    1    2  503  504 -0.11839026663E+03 -0.33017643594E+02 -0.99159486398E+03  0.99918306345E+03  0.00000000000E+00 0. -1.
         21    1    1    2  504  501 -0.10630823693E+03 -0.32410723963E+02 -0.98407403950E+02  0.14844498448E+03  0.00000000000E+00 0. -1.
<mgrwt>
<rscale>  4 0.26351962E+03</rscale>
<asrwt>0</asrwt>
<pdfrwt beam="1">  1       21 0.14957429E+00 0.26351962E+03</pdfrwt>
<pdfrwt beam="2">  1       21 0.17499530E+00 0.26351962E+03</pdfrwt>
<totfact> 0.54078703E+01</totfact>
</mgrwt>
</event>
<event>
 5    0  0.2159162E+000  0.3272550E+03  0.7546771E-02  0.1072358E+00
         21   -1    0    0  502  501  0.00000000000E+00  0.00000000000E+00  0.50208731634E+03  0.50208731634E+03  0.00000000000E+00 0. -1.
         21   -1    0    0  503  502 -0.00000000000E+00 -0.00000000000E+00 -0.49690533430E+03  0.49690533430E+03  0.00000000000E+00 0. -1.
         25    1    1    2    0    0 -0.27627287415E+03 -0.13304072739E+03  0.34937977289E+03  0.48137071145E+03  0.12500000000E+03 0.  0.
         21    1    1    2  503  504  0.57190175124E+02 -0.49340489927E+02 -0.66735439695E+01  0.75827015411E+02  0.00000000000E+00 0. -1.
         21    1    1    2  504  501  0.21908269903E+03  0.18238121732E+03 -0.33752424688E+03  0.44179492378E+03  0.00000000000E+00 0. -1.
<mgrwt>
<rscale>  4 0.32725503E+03</rscale>
<asrwt>0</asrwt>
<pdfrwt beam="1">  1       21 0.77244202E-01 0.32725503E+03</pdfrwt>
<pdfrwt beam="2">  1       21 0.76446975E-01 0.32725503E+03</pdfrwt>
<totfact> 0.20663222E+03</totfact>
</mgrwt>
</event>
<event>
 5    0  0.2159162E+000  0.2462244E+03  0.7546771E-02  0.1115714E+00
         21   -1    0    0  502  501  0.00000000000E+00  0.00000000000E+00  0.25807502915E+03  0.25807502915E+03  0.00000000000E+00 0.  1.
         21   -1    0    0  503  502 -0.00000000000E+00 -0.00000000000E+00 -0.60231441601E+03  0.60231441601E+03  0.00000000000E+00 0. -1.
         25    1    1    2    0    0  0.27948708710E+02 -0.21028633043E+03  0.17192795742E+03  0.30030932991E+03  0.12500000000E+03 0.  0.
         21    1    1    2  503  504  0.88225364845E+01  0.57983369344E+02 -0.17719425831E+03  0.18664863634E+03  0.00000000000E+00 0.  1.
         21    1    1    2  504  501 -0.36771245195E+02  0.15230296109E+03 -0.33897308597E+03  0.37343147891E+03  0.00000000000E+00 0. -1.
<mgrwt>
<rscale>  4 0.24622443E+03</rscale>
<asrwt>0</asrwt>
<pdfrwt beam="1">  1       21 0.39703851E-01 0.24622443E+03</pdfrwt>
<pdfrwt beam="2">  1       21 0.92663756E-01 0.24622443E+03</pdfrwt>
<totfact> 0.57825695E+03</totfact>
</mgrwt>
</event>
<event>
 5    0  0.2188216E+000  0.2871522E+03  0.7546771E-02  0.1091845E+00
         21   -1    0    0  502  501  0.00000000000E+00  0.00000000000E+00  0.40066767611E+02  0.40066767611E+02  0.00000000000E+00 0. -1.
         21   -1    0    0  503  502 -0.00000000000E+00 -0.00000000000E+00 -0.19737887736E+04  0.19737887736E+04  0.00000000000E+00 0. -1.
         25    1    1    2    0    0  0.14755014075E+02  0.25809619753E+03 -0.80919081679E+03  0.85863038358E+03  0.12500000000E+03 0.  0.
         21    1    1    2  503  504 -0.43479244515E+01 -0.79776525894E+02 -0.24360755610E+03  0.25637441354E+03  0.00000000000E+00 0.  1.
         21    1    1    2  504  501 -0.10407089623E+02 -0.17831967163E+03 -0.88092363314E+03  0.89885074414E+03  0.00000000000E+00 0. -1.
<mgrwt>
<rscale>  4 0.28715215E+03</rscale>
<asrwt>0</asrwt>
<pdfrwt beam="1">  1       21 0.61641186E-02 0.28715215E+03</pdfrwt>
<pdfrwt beam="2">  1       21 0.30365979E+00 0.28715215E+03</pdfrwt>
<totfact> 0.56010997E+03</totfact>
</mgrwt>
</event>
<event>
 5    0  0.2159162E+000  0.2980905E+03  0.7546771E-02  0.1086199E+00
         21   -1    0    0  502  501  0.00000000000E+00  0.00000000000E+00  0.25822386055E+04  0.25822386055E+04  0.00000000000E+00 0.  1.
         21   -1    0    0  503  502 -0.00000000000E+00 -0.00000000000E+00 -0.33160697764E+03  0.33160697764E+03  0.00000000000E+00 0.  1.
         25    1    1    2    0    0  0.18581361820E+03  0.19673897508E+03  0.25130024814E+04  0.25306203580E+04  0.12500000000E+03 0.  0.
         21    1    1    2  503  504 -0.29209830629E+01 -0.20091971662E+02 -0.42396036017E+02  0.47006843515E+02  0.00000000000E+00 0.  1.
         21    1    1    2  504  501 -0.18289263514E+03 -0.17664700342E+03 -0.21997481749E+03  0.33621838161E+03  0.00000000000E+00 0.  1.
<mgrwt>
<rscale>  4 0.29809046E+03</rscale>
<asrwt>0</asrwt>
<pdfrwt beam="1">  1       21 0.39726746E+00 0.29809046E+03</pdfrwt>
<pdfrwt beam="2">  1       21 0.51016460E-01 0.29809046E+03</pdfrwt>
<totfact> 0.28098525E+01</totfact>
</mgrwt>
</event>
