<event>
 5    0  0.2349231E+000  0.4734463E+03  0.7546771E-02  0.1020952E+00
         21   -1    0    0  503  501  0.00000000000E+00  0.00000000000E+00  0.98882128280E+03  0.98882128280E+03  0.00000000000E+00 0.  1.
         21   -1    0    0  504  502 -0.00000000000E+00 -0.00000000000E+00 -0.28728713868E+03  0.28728713868E+03  0.00000000000E+00 0.  1.
         25    1    1    2    0    0  0.21132150138E+03  0.80971016378E+01 -0.18837887582E+02  0.24637817681E+03  0.12500000000E+03 0.  0.
         21    1    1    2  503  502 -0.37689065767E+01 -0.94553724121E+02  0.78899673664E+03  0.79465115732E+03  0.00000000000E+00 0.  1.
         21    1    1    2  504  501 -0.20755259480E+03  0.86456622483E+02 -0.68624704937E+02  0.23507908735E+03  0.00000000000E+00 0.  1.
<mgrwt>
<rscale>  4 0.47344629E+03</rscale>
<asrwt>0</asrwt>
<pdfrwt beam="1">  1       21 0.15212635E+00 0.47344629E+03</pdfrwt>
<pdfrwt beam="2">  1       21 0.44198022E-01 0.47344629E+03</pdfrwt>
<totfact> 0.11883303E+03</totfact>
</mgrwt>
</event>
<event>
 5    0  0.2349231E+000  0.5285116E+03  0.7546771E-02  0.1006594E+00
         21   -1    0    0  503  501  0.00000000000E+00  0.00000000000E+00  0.69176173805E+03  0.69176173805E+03  0.00000000000E+00 0. -1.
         21   -1    0    0  504  502 -0.00000000000E+00 -0.00000000000E+00 -0.60199494799E+03  0.60199494799E+03  0.00000000000E+00 0.  1.
         25    1    1    2    0    0  0.32109554858E+02 -0.33193613869E+03 -0.35861186161E+03  0.50541081406E+03  0.12500000000E+03 0.  0.
         21    1    1    2  503  502 -0.22914678965E+02  0.16700843208E+03 -0.11314913745E+03  0.20302617122E+03  0.00000000000E+00 0. -1.
         21    1    1    2  504  501 -0.91948758929E+01  0.16492770662E+03  0.56152778911E+03  0.58531970076E+03  0.00000000000E+00 0. -1.
<mgrwt>
<rscale>  4 0.52851161E+03</rscale>
<asrwt>0</asrwt>
<pdfrwt beam="1">  1       21 0.10642488E+00 0.52851161E+03</pdfrwt>
<pdfrwt beam="2">  1       21 0.92614607E-01 0.52851161E+03</pdfrwt>
<totfact> 0.56553356E+02</totfact>
</mgrwt>
</event>
<event>
 5    0  0.2349231E+000  0.4161723E+03  0.7546771E-02  0.1038319E+00
         21   -1    0    0  503  501  0.00000000000E+00  0.00000000000E+00  0.46624678384E+03  0.46624678384E+03  0.00000000000E+00 0.  1.
         21   -1    0    0  504  502 -0.00000000000E+00 -0.00000000000E+00 -0.41819229154E+03  0.41819229154E+03  0.00000000000E+00 0.  1.
         25    1    1    2    0    0 -0.16721233012E+03 -0.20544046737E+03 -0.21939264615E+03  0.36595612054E+03  0.12500000000E+03 0.  0.
         21    1    1    2  503  502  0.17520879119E+03  0.84226428081E+02  0.32912032012E+03  0.38224651315E+03  0.00000000000E+00 0.  1.
         21    1    1    2  504  501 -0.79964610777E+01  0.12121403929E+03 -0.61673181668E+02  0.13623644170E+03  0.00000000000E+00 0.  1.
<mgrwt>
<rscale>  4 0.41617228E+03</rscale>
<asrwt>0</asrwt>
<pdfrwt beam="1">  1       21 0.71730275E-01 0.41617228E+03</pdfrwt>
<pdfrwt beam="2">  1       21 0.64337275E-01 0.41617228E+03</pdfrwt>
<totfact> 0.34584120E+03</totfact>
</mgrwt>
</event>
<event>
 5    0  0.2349231E+000  0.4374586E+03  0.7546771E-02  0.1031529E+00
         21   -1    0    0  504  501  0.00000000000E+00  0.00000000000E+00  0.39672494101E+03  0.39672494101E+03  0.00000000000E+00 0.  1.
         21   -1    0    0  503  502 -0.00000000000E+00 -0.00000000000E+00 -0.14278153561E+04  0.14278153561E+04  0.00000000000E+00 0.  1.
         25    1    1    2    0    0  0.12752051144E+03 -0.17346161368E+03 -0.90196729758E+03  0.93569248055E+03  0.12500000000E+03 0.  0.
         21    1    1    2  503  501 -0.89060651971E+02  0.16104359712E+03 -0.49118984104E+03  0.52453245833E+03  0.00000000000E+00 0.  1.
         21    1    1    2  504  502 -0.38459859466E+02  0.12418016559E+02  0.36206672355E+03  0.36431535821E+03  0.00000000000E+00 0.  1.
<mgrwt>
<rscale>  4 0.43745864E+03</rscale>
<asrwt>0</asrwt>
<pdfrwt beam="1">  1       21 0.61034607E-01 0.43745864E+03</pdfrwt>
<pdfrwt beam="2">  1       21 0.21966390E+00 0.43745864E+03</pdfrwt>
<totfact> 0.20443072E+02</totfact>
</mgrwt>
</event>
