<event>
 5    0  0.3696258E+000  0.2078518E+03  0.7546771E-02  0.1143279E+00
          1   -1    0    0  503    0 -0.00000000000E+00  0.00000000000E+00  0.11630265537E+04  0.11630265537E+04  0.00000000000E+00 0. -1.
         21   -1    0    0  501  502  0.00000000000E+00 -0.00000000000E+00 -0.36845081013E+03  0.36845081013E+03  0.00000000000E+00 0. -1.
         25    1    1    2    0    0  0.18577373586E+03 -0.17295107893E+03 -0.23306397396E+03  0.36656209924E+03  0.12500000000E+03 0.  0.
         21    1    1    2  503  502 -0.52855040786E+02  0.76470297224E+02 -0.27600352418E+02  0.96969795027E+02  0.00000000000E+00 0. -1.
          1    1    1    2  501    0 -0.13291869507E+03  0.96480781706E+02  0.10552400699E+04  0.10679454695E+04  0.00000000000E+00 0. -1.
<mgrwt>
<rscale>  4 0.20785177E+03</rscale>
<asrwt>0</asrwt>
<pdfrwt beam="1">  1       21 0.56684740E-01 0.20785177E+03</pdfrwt>
<pdfrwt beam="2">  1        1 0.17892716E+00 0.20785177E+03</pdfrwt>
<totfact> 0.39720525E+02</totfact>
</mgrwt>
</event>
<event>
 5    0  0.3696258E+000  0.2682838E+03  0.7546771E-02  0.1102266E+00
          1   -1    0    0  503    0 -0.00000000000E+00  0.00000000000E+00  0.21883499693E+03  0.21883499693E+03  0.00000000000E+00 0.  1.
         21   -1    0    0  501  502  0.00000000000E+00 -0.00000000000E+00 -0.55200687716E+03  0.55200687716E+03  0.00000000000E+00 0.  1.
         25    1    1    2    0    0  0.68219263612E+02  0.23574204602E+03 -0.38872318311E+03  0.47640202904E+03  0.12500000000E+03 0.  0.
         21    1    1    2  503  502 -0.67709392541E+02 -0.16235305059E+02  0.12053839921E+02  0.70664291021E+02  0.00000000000E+00 0.  1.
          1    1    1    2  501    0 -0.50987107112E+00 -0.21950674096E+03  0.43497462971E+02  0.22377555403E+03  0.00000000000E+00 0.  1.
<mgrwt>
<rscale>  4 0.26828379E+03</rscale>
<asrwt>0</asrwt>
<pdfrwt beam="1">  1       21 0.84924135E-01 0.26828379E+03</pdfrwt>
<pdfrwt beam="2">  1        1 0.33666923E-01 0.26828379E+03</pdfrwt>
<totfact> 0.16577784E+03</totfact>
</mgrwt>
</event>
<event>
 5    0  0.3702043E+000  0.2620908E+03  0.7546771E-02  0.1105893E+00
          2   -1    0    0  503    0 -0.00000000000E+00  0.00000000000E+00  0.14009261036E+04  0.14009261036E+04  0.00000000000E+00 0.  1.
         21   -1    0    0  501  502  0.00000000000E+00 -0.00000000000E+00 -0.50608690967E+03  0.50608690967E+03  0.00000000000E+00 0. -1.
         25    1    1    2    0    0 -0.17427466188E+03  0.16024318831E+03 -0.45509787935E+03  0.52800437210E+03  0.12500000000E+03 0.  0.
         21    1    1    2  503  502  0.13224415354E+03 -0.72236492406E+02  0.46718538391E+03  0.49088574019E+03  0.00000000000E+00 0.  1.
          2    1    1    2  501    0  0.42030508334E+02 -0.88006695904E+02  0.88275168933E+03  0.88812290094E+03  0.00000000000E+00 0.  1.
<mgrwt>
<rscale>  4 0.26209082E+03</rscale>
<asrwt>0</asrwt>
<pdfrwt beam="1">  1       21 0.77859525E-01 0.26209082E+03</pdfrwt>
<pdfrwt beam="2">  1        2 0.21552709E+00 0.26209082E+03</pdfrwt>
<totfact> 0.27593193E+02</totfact>
</mgrwt>
</event>
<event>
 5    0  0.3696258E+000  0.3228430E+03  0.7546771E-02  0.1074348E+00
          1   -1    0    0  503    0 -0.00000000000E+00  0.00000000000E+00  0.27205216947E+04  0.27205216947E+04  0.00000000000E+00 0. -1.
         21   -1    0    0  501  502  0.00000000000E+00 -0.00000000000E+00 -0.77291256164E+03  0.77291256164E+03  0.00000000000E+00 0. -1.
         25    1    1    2    0    0  0.29115193983E+03 -0.13820756978E+03 -0.10102952460E+03  0.36014267902E+03  0.12500000000E+03 0.  0.
         21    1    1    2  503  502 -0.25368119416E+03  0.14139177672E+03 -0.50329652914E+03  0.58107932250E+03  0.00000000000E+00 0. -1.
          1    1    1    2  501    0 -0.37470745676E+02 -0.31842069362E+01  0.25519351869E+04  0.25522122549E+04  0.00000000000E+00 0. -1.
<mgrwt>
<rscale>  4 0.32284300E+03</rscale>
<asrwt>0</asrwt>
<pdfrwt beam="1">  1       21 0.11890963E+00 0.32284300E+03</pdfrwt>
<pdfrwt beam="2">  1        1 0.41854180E+00 0.32284300E+03</pdfrwt>
<totfact> 0.61658237E+00</totfact>
</mgrwt>
</event>
<event>
 5    0  0.3696258E+000  0.1829313E+03  0.7546771E-02  0.1164996E+00
         21   -1    0    0  503  502  0.00000000000E+00  0.00000000000E+00  0.91303747625E+02  0.91303747625E+02  0.00000000000E+00 0.  1.
         -2   -1    0    0    0  501 -0.00000000000E+00 -0.00000000000E+00 -0.18564978301E+04  0.18564978301E+04  0.00000000000E+00 0. -1.
         25    1    1    2    0    0 -0.20664877559E+02 -0.21152975923E+03 -0.61518280757E+03  0.66275694107E+03  0.12500000000E+03 0.  0.
         21    1    1    2  503  501  0.46652010669E+02  0.90422640436E+02  0.23981267628E+02  0.10453595171E+03  0.00000000000E+00 0.  1.
         -2    1    1    2    0  502 -0.25987133110E+02  0.12110711879E+03 -0.11739925425E+04  0.11805086849E+04  0.00000000000E+00 0. -1.
<mgrwt>
<rscale>  4 0.18293129E+03</rscale>
<asrwt>0</asrwt>
<pdfrwt beam="1">  1       21 0.14046729E-01 0.18293129E+03</pdfrwt>
<pdfrwt beam="2">  1       -2 0.28561508E+00 0.18293129E+03</pdfrwt>
<totfact> 0.16592366E+02</totfact>
</mgrwt>
</event>
<event>
 5    0  0.3696258E+000  0.4799839E+03  0.7546771E-02  0.1019140E+00
         21   -1    0    0  503  502  0.00000000000E+00  0.00000000000E+00  0.71360989937E+03  0.71360989937E+03  0.00000000000E+00 0.  1.
         -4   -1    0    0    0  501 -0.00000000000E+00 -0.00000000000E+00 -0.87781275080E+03  0.87781275080E+03  0.00000000000E+00 0. -1.
         25    1    1    2    0    0 -0.35191423225E+03  0.33891739674E+03  0.43115494535E+03  0.66349695973E+03  0.12500000000E+03 0.  0.
         21    1    1    2  503  501  0.55774457159E+02  0.13724571525E+02  0.87282323485E+02  0.10448616142E+03  0.00000000000E+00 0. -1.
         -4    1    1    2    0  502  0.29613977509E+03 -0.35264196826E+03 -0.68264012026E+03  0.82343952903E+03  0.00000000000E+00 0. -1.
<mgrwt>
<rscale>  4 0.47998393E+03</rscale>
<asrwt>0</asrwt>
<pdfrwt beam="1">  1       21 0.10978614E+00 0.47998393E+03</pdfrwt>
<pdfrwt beam="2">  1       -4 0.13504811E+00 0.47998393E+03</pdfrwt>
<totfact> 0.10331954E+01</totfact>
</mgrwt>
</event>
<event>
 5    0  0.3696258E+000  0.2341651E+03  0.7546771E-02  0.1123742E+00
          2   -1    0    0  503    0 -0.00000000000E+00  0.00000000000E+00  0.12552284347E+04  0.12552284347E+04  0.00000000000E+00 0.  1.
         21   -1    0    0  501  502  0.00000000000E+00 -0.00000000000E+00 -0.13474522181E+04  0.13474522181E+04  0.00000000000E+00 0. -1.
         25    1    1    2    0    0  0.21404836336E+03  0.73579326857E+01 -0.60025566580E+03  0.64946339801E+03  0.12500000000E+03 0.  0.
         21    1    1    2  503  502 -0.18752975068E+03 -0.33246284416E+02 -0.70975639410E+03  0.73486519973E+03  0.00000000000E+00 0. -1.
          2    1    1    2  501    0 -0.26518612676E+02  0.25888351730E+02  0.12177882765E+04  0.12183520550E+04  0.00000000000E+00 0.  1.
<mgrwt>
<rscale>  4 0.23416515E+03</rscale>
<asrwt>0</asrwt>
<pdfrwt beam="1">  1       21 0.20730034E+00 0.23416515E+03</pdfrwt>
<pdfrwt beam="2">  1        2 0.19311207E+00 0.23416515E+03</pdfrwt>
<totfact> 0.27375277E+01</totfact>
</mgrwt>
</event>
<event>
 5    0  0.3696258E+000  0.2419881E+03  0.7546771E-02  0.1118475E+00
         21   -1    0    0  501  502  0.00000000000E+00  0.00000000000E+00  0.40392991977E+03  0.40392991977E+03  0.00000000000E+00 0. -1.
          2   -1    0    0  503    0 -0.00000000000E+00 -0.00000000000E+00 -0.24848345678E+04  0.24848345678E+04  0.00000000000E+00 0. -1.
         25    1    1    2    0    0 -0.20139037073E+03  0.10927927618E+03  0.33579146423E+03  0.42530100996E+03  0.12500000000E+03 0.  0.
         21    1    1    2  503  502  0.76697858508E+02 -0.10061422443E+03 -0.16315696428E+03  0.20646059830E+03  0.00000000000E+00 0. -1.
          2    1    1    2  501    0  0.12469251222E+03 -0.86650517427E+01 -0.22535391479E+04  0.22570028793E+04  0.00000000000E+00 0. -1.
<mgrwt>
<rscale>  4 0.24198806E+03</rscale>
<asrwt>0</asrwt>
<pdfrwt beam="1">  1       21 0.62143062E-01 0.24198806E+03</pdfrwt>
<pdfrwt beam="2">  1        2 0.38228226E+00 0.24198806E+03</pdfrwt>
<totfact> 0.12272459E+02</totfact>
</mgrwt>
</event>
<event>
 5    0  0.3696258E+000  0.2285878E+03  0.7546771E-02  0.1127638E+00
         21   -1    0    0  501  502  0.00000000000E+00  0.00000000000E+00  0.35170917545E+03  0.35170917545E+03  0.00000000000E+00 0. -1.
          1   -1    0    0  503    0 -0.00000000000E+00 -0.00000000000E+00 -0.94959175335E+03  0.94959175335E+03  0.00000000000E+00 0. -1.
         25    1    1    2    0    0  0.14886838437E+03  0.14257463864E+03 -0.11737045895E+02  0.24135468028E+03  0.12500000000E+03 0.  0.
         21    1    1    2  503  502 -0.14456092742E+03 -0.11893602727E+03  0.19970663469E+03  0.27372683510E+03  0.00000000000E+00 0. -1.
          1    1    1    2  501    0 -0.43074569505E+01 -0.23638611373E+02 -0.78585216670E+03  0.78621941342E+03  0.00000000000E+00 0. -1.
<mgrwt>
<rscale>  4 0.22858784E+03</rscale>
<asrwt>0</asrwt>
<pdfrwt beam="1">  1       21 0.54109104E-01 0.22858784E+03</pdfrwt>
<pdfrwt beam="2">  1        1 0.14609104E+00 0.22858784E+03</pdfrwt>
<totfact> 0.61967808E+02</totfact>
</mgrwt>
</event>
<event>
 5    0  0.3696258E+000  0.4045903E+03  0.7546771E-02  0.1042202E+00
         21   -1    0    0  501  502  0.00000000000E+00  0.00000000000E+00  0.32665825631E+04  0.32665825631E+04  0.00000000000E+00 0. -1.
          2   -1    0    0  503    0 -0.00000000000E+00 -0.00000000000E+00 -0.80730692227E+03  0.80730692227E+03  0.00000000000E+00 0.  1.
         25    1    1    2    0    0 -0.83635486175E+02  0.38931128201E+03  0.30920914781E+04  0.31201302661E+04  0.12500000000E+03 0.  0.
         21    1    1    2  503  502  0.43494213271E+02 -0.26774990959E+03  0.35248185834E+02  0.27354011640E+03  0.00000000000E+00 0. -1.
          2    1    1    2  501    0  0.40141272904E+02 -0.12156137243E+03 -0.66806402303E+03  0.68021910288E+03  0.00000000000E+00 0.  1.
<mgrwt>
<rscale>  4 0.40459030E+03</rscale>
<asrwt>0</asrwt>
<pdfrwt beam="1">  1       21 0.50255116E+00 0.40459030E+03</pdfrwt>
<pdfrwt beam="2">  1        2 0.12420107E+00 0.40459030E+03</pdfrwt>
<totfact> 0.60701706E-01</totfact>
</mgrwt>
</event>
<event>
 5    0  0.3696258E+000  0.3372255E+03  0.7546771E-02  0.1067984E+00
         21   -1    0    0  501  502  0.00000000000E+00  0.00000000000E+00  0.15634475998E+04  0.15634475998E+04  0.00000000000E+00 0.  1.
          3   -1    0    0  503    0 -0.00000000000E+00 -0.00000000000E+00 -0.22555469208E+03  0.22555469208E+03  0.00000000000E+00 0.  1.
         25    1    1    2    0    0  0.30837322039E+03 -0.26676950236E+02  0.10723373620E+04  0.11230931042E+04  0.12500000000E+03 0.  0.
         21    1    1    2  503  502 -0.31605018173E+03  0.66565459212E+02  0.40652032075E+03  0.51920848309E+03  0.00000000000E+00 0.  1.
          3    1    1    2  501    0  0.76769613329E+01 -0.39888508975E+02 -0.14096477511E+03  0.14670070452E+03  0.00000000000E+00 0.  1.
<mgrwt>
<rscale>  4 0.33722550E+03</rscale>
<asrwt>0</asrwt>
<pdfrwt beam="1">  1       21 0.24053039E+00 0.33722550E+03</pdfrwt>
<pdfrwt beam="2">  1        3 0.34700723E-01 0.33722550E+03</pdfrwt>
<totfact> 0.27901761E+01</totfact>
</mgrwt>
</event>
<event>
 5    0  0.3696258E+000  0.2809228E+03  0.7546771E-02  0.1095186E+00
         -4   -1    0    0    0  501 -0.00000000000E+00  0.00000000000E+00  0.11496543434E+04  0.11496543434E+04  0.00000000000E+00 0. -1.
         21   -1    0    0  503  502  0.00000000000E+00 -0.00000000000E+00 -0.58828118792E+03  0.58828118792E+03  0.00000000000E+00 0. -1.
         25    1    1    2    0    0  0.56143307037E+02  0.26860644570E+03 -0.30586780387E+03  0.42951322103E+03  0.12500000000E+03 0.  0.
         21    1    1    2  503  501  0.65823680955E+02 -0.23293945965E+03 -0.14901539264E+03  0.28425188844E+03  0.00000000000E+00 0. -1.
         -4    1    1    2    0  502 -0.12196698799E+03 -0.35666986048E+02  0.10162563520E+04  0.10241704219E+04  0.00000000000E+00 0. -1.
<mgrwt>
<rscale>  4 0.28092282E+03</rscale>
<asrwt>0</asrwt>
<pdfrwt beam="1">  1       21 0.90504798E-01 0.28092282E+03</pdfrwt>
<pdfrwt beam="2">  1       -4 0.17686990E+00 0.28092282E+03</pdfrwt>
<totfact> 0.85636454E+00</totfact>
</mgrwt>
</event>
<event>
 5    0  0.3696258E+000  0.3337931E+03  0.7546771E-02  0.1069471E+00
         -3   -1    0    0    0  501 -0.00000000000E+00  0.00000000000E+00  0.79891424515E+03  0.79891424515E+03  0.00000000000E+00 0. -1.
         21   -1    0    0  503  502  0.00000000000E+00 -0.00000000000E+00 -0.30375855432E+03  0.30375855432E+03  0.00000000000E+00 0. -1.
         25    1    1    2    0    0 -0.85181772407E+02 -0.32688551356E+03 -0.80107522385E+02  0.36898819557E+03  0.12500000000E+03 0.  0.
         21    1    1    2  503  501 -0.86504316306E+02  0.24791564634E+03  0.38053705321E+03  0.46233495791E+03  0.00000000000E+00 0. -1.
         -3    1    1    2    0  502  0.17168608871E+03  0.78969867221E+02  0.19472616001E+03  0.27134964599E+03  0.00000000000E+00 0. -1.
<mgrwt>
<rscale>  4 0.33379314E+03</rscale>
<asrwt>0</asrwt>
<pdfrwt beam="1">  1       21 0.46732085E-01 0.33379314E+03</pdfrwt>
<pdfrwt beam="2">  1       -3 0.12290988E+00 0.33379314E+03</pdfrwt>
<totfact> 0.11646959E+02</totfact>
</mgrwt>
</event>
<event>
 5    0  0.3696258E+000  0.2573707E+03  0.7546771E-02  0.1108733E+00
          2   -1    0    0  503    0 -0.00000000000E+00  0.00000000000E+00  0.15152222425E+03  0.15152222425E+03  0.00000000000E+00 0. -1.
         21   -1    0    0  501  502  0.00000000000E+00 -0.00000000000E+00 -0.65375600075E+03  0.65375600075E+03  0.00000000000E+00 0. -1.
         25    1    1    2    0    0  0.85864461709E+02 -0.20794704698E+03 -0.51704807298E+03  0.57756245541E+03  0.12500000000E+03 0.  0.
         21    1    1    2  503  502 -0.74336955755E+02  0.18865706848E+03  0.40891588113E+01  0.20281566433E+03  0.00000000000E+00 0. -1.
          2    1    1    2  501    0 -0.11527505954E+02  0.19289978497E+02  0.10725137661E+02  0.24900105256E+02  0.00000000000E+00 0. -1.
<mgrwt>
<rscale>  4 0.25737071E+03</rscale>
<asrwt>0</asrwt>
<pdfrwt beam="1">  1       21 0.10057785E+00 0.25737071E+03</pdfrwt>
<pdfrwt beam="2">  1        2 0.23311112E-01 0.25737071E+03</pdfrwt>
<totfact> 0.22580667E+03</totfact>
</mgrwt>
</event>
<event>
 5    0  0.3696258E+000  0.2211375E+03  0.7546771E-02  0.1133038E+00
          2   -1    0    0  503    0 -0.00000000000E+00  0.00000000000E+00  0.11482009786E+04  0.11482009786E+04  0.00000000000E+00 0. -1.
         21   -1    0    0  501  502  0.00000000000E+00 -0.00000000000E+00 -0.13911905026E+03  0.13911905026E+03  0.00000000000E+00 0.  1.
         25    1    1    2    0    0 -0.27304637522E+02 -0.19816411546E+03  0.16767337296E+02  0.23647558750E+03  0.12500000000E+03 0.  0.
         21    1    1    2  503  502  0.34288803346E+02  0.15007300901E+03  0.17904563659E+03  0.23612490349E+03  0.00000000000E+00 0.  1.
          2    1    1    2  501    0 -0.69841658233E+01  0.48091106445E+02  0.81326895446E+03  0.81471953787E+03  0.00000000000E+00 0. -1.
<mgrwt>
<rscale>  4 0.22113752E+03</rscale>
<asrwt>0</asrwt>
<pdfrwt beam="1">  1       21 0.21402932E-01 0.22113752E+03</pdfrwt>
<pdfrwt beam="2">  1        2 0.17664630E+00 0.22113752E+03</pdfrwt>
<totfact> 0.54934206E+03</totfact>
</mgrwt>
</event>
<event>
 5    0  0.3696258E+000  0.2438173E+03  0.7546771E-02  0.1117276E+00
          2   -1    0    0  503    0 -0.00000000000E+00  0.00000000000E+00  0.18611836545E+04  0.18611836545E+04  0.00000000000E+00 0. -1.
         21   -1    0    0  501  502  0.00000000000E+00 -0.00000000000E+00 -0.44378438049E+03  0.44378438049E+03  0.00000000000E+00 0.  1.
         25    1    1    2    0    0 -0.17863266842E+03 -0.17646591101E+03 -0.18384293963E+03  0.33537005595E+03  0.12500000000E+03 0.  0.
         21    1    1    2  503  502  0.58418316023E+02  0.18271449313E+03 -0.13156899008E+03  0.23261058617E+03  0.00000000000E+00 0.  1.
          2    1    1    2  501    0  0.12021435239E+03 -0.62485821189E+01  0.17328112037E+04  0.17369873928E+04  0.00000000000E+00 0. -1.
<mgrwt>
<rscale>  4 0.24381732E+03</rscale>
<asrwt>0</asrwt>
<pdfrwt beam="1">  1       21 0.68274521E-01 0.24381732E+03</pdfrwt>
<pdfrwt beam="2">  1        2 0.28633594E+00 0.24381732E+03</pdfrwt>
<totfact> 0.21367966E+02</totfact>
</mgrwt>
</event>
<event>
 5    0  0.3696258E+000  0.2614772E+03  0.7546771E-02  0.1106259E+00
         21   -1    0    0  503  502  0.00000000000E+00  0.00000000000E+00  0.23257803692E+03  0.23257803692E+03  0.00000000000E+00 0.  1.
         -1   -1    0    0    0  501 -0.00000000000E+00 -0.00000000000E+00 -0.39123967819E+03  0.39123967819E+03  0.00000000000E+00 0.  1.
         25    1    1    2    0    0  0.33635874891E+01 -0.25034470249E+03  0.20649941509E+02  0.28059793988E+03  0.12500000000E+03 0.  0.
         21    1    1    2  503  501 -0.68807554351E+02  0.19550118528E+03 -0.12550234364E+03  0.24229327526E+03  0.00000000000E+00 0.  1.
         -1    1    1    2    0  502  0.65443966862E+02  0.54843517209E+02 -0.53809239139E+02  0.10092649996E+03  0.00000000000E+00 0.  1.
<mgrwt>
<rscale>  4 0.26147717E+03</rscale>
<asrwt>0</asrwt>
<pdfrwt beam="1">  1       21 0.35781237E-01 0.26147717E+03</pdfrwt>
<pdfrwt beam="2">  1       -1 0.60190719E-01 0.26147717E+03</pdfrwt>
<totfact> 0.19797772E+03</totfact>
</mgrwt>
</event>
<event>
 5    0  0.3696258E+000  0.2484442E+03  0.7546771E-02  0.1114292E+00
         21   -1    0    0  501  502  0.00000000000E+00  0.00000000000E+00  0.32783790212E+03  0.32783790212E+03  0.00000000000E+00 0.  1.
          2   -1    0    0  503    0 -0.00000000000E+00 -0.00000000000E+00 -0.12570648198E+04  0.12570648198E+04  0.00000000000E+00 0.  1.
         25    1    1    2    0    0 -0.10099781958E+03  0.18886977342E+03  0.24587959014E+03  0.34921930606E+03  0.12500000000E+03 0.  0.
         21    1    1    2  503  502  0.14798460058E+03 -0.16856889804E+03 -0.39772058945E+03  0.45661426026E+03  0.00000000000E+00 0.  1.
          2    1    1    2  501    0 -0.46986781005E+02 -0.20300875380E+02 -0.77738591835E+03  0.77906915558E+03  0.00000000000E+00 0.  1.
<mgrwt>
<rscale>  4 0.24844423E+03</rscale>
<asrwt>0</asrwt>
<pdfrwt beam="1">  1       21 0.50436600E-01 0.24844423E+03</pdfrwt>
<pdfrwt beam="2">  1        2 0.19339459E+00 0.24844423E+03</pdfrwt>
<totfact> 0.85981909E+02</totfact>
</mgrwt>
</event>
<event>
 5    0  0.3696258E+000  0.3162240E+03  0.7546771E-02  0.1077400E+00
          1   -1    0    0  503    0 -0.00000000000E+00  0.00000000000E+00  0.67052155163E+03  0.67052155163E+03  0.00000000000E+00 0.  1.
         21   -1    0    0  501  502  0.00000000000E+00 -0.00000000000E+00 -0.90162588570E+03  0.90162588570E+03  0.00000000000E+00 0.  1.
         25    1    1    2    0    0 -0.25908222918E+03  0.12896664655E+03 -0.81441997068E+03  0.87330457805E+03  0.12500000000E+03 0.  0.
         21    1    1    2  503  502  0.25963460760E+03 -0.16386280697E+03  0.36142734745E+03  0.47422660876E+03  0.00000000000E+00 0.  1.
          1    1    1    2  501    0 -0.55237841808E+00  0.34896160419E+02  0.22188828916E+03  0.22461625053E+03  0.00000000000E+00 0.  1.
<mgrwt>
<rscale>  4 0.31622400E+03</rscale>
<asrwt>0</asrwt>
<pdfrwt beam="1">  1       21 0.13871167E+00 0.31622400E+03</pdfrwt>
<pdfrwt beam="2">  1        1 0.10315716E+00 0.31622400E+03</pdfrwt>
<totfact> 0.11263570E+02</totfact>
</mgrwt>
</event>
<event>
 5    0  0.3696258E+000  0.3852285E+03  0.7546771E-02  0.1049018E+00
          1   -1    0    0  503    0 -0.00000000000E+00  0.00000000000E+00  0.29789690090E+04  0.29789690090E+04  0.00000000000E+00 0. -1.
         21   -1    0    0  501  502  0.00000000000E+00 -0.00000000000E+00 -0.14666808076E+03  0.14666808076E+03  0.00000000000E+00 0. -1.
         25    1    1    2    0    0 -0.29679004768E+03 -0.79126744394E+02  0.18587232481E+04  0.18880737504E+04  0.12500000000E+03 0.  0.
         21    1    1    2  503  502  0.35781941764E+03  0.10354569790E+03  0.13468859959E+03  0.39610284782E+03  0.00000000000E+00 0. -1.
          1    1    1    2  501    0 -0.61029369955E+02 -0.24418953507E+02  0.83888908057E+03  0.84146049152E+03  0.00000000000E+00 0. -1.
<mgrwt>
<rscale>  4 0.38522850E+03</rscale>
<asrwt>0</asrwt>
<pdfrwt beam="1">  1       21 0.22564322E-01 0.38522850E+03</pdfrwt>
<pdfrwt beam="2">  1        1 0.45830288E+00 0.38522850E+03</pdfrwt>
<totfact> 0.14143892E+02</totfact>
</mgrwt>
</event>
<event>
 5    0  0.3696258E+000  0.2378225E+03  0.7546771E-02  0.1121252E+00
         21   -1    0    0  501  502  0.00000000000E+00  0.00000000000E+00  0.15709285774E+04  0.15709285774E+04  0.00000000000E+00 0. -1.
          2   -1    0    0  503    0 -0.00000000000E+00 -0.00000000000E+00 -0.93708083866E+03  0.93708083866E+03  0.00000000000E+00 0.  1.
         25    1    1    2    0    0  0.11027492864E+03  0.25453709768E+03  0.58958577682E+03  0.66346520799E+03  0.12500000000E+03 0.  0.
         21    1    1    2  503  502 -0.53787351700E+02 -0.17628727172E+03  0.93277264854E+03  0.95080760159E+03  0.00000000000E+00 0. -1.
          2    1    1    2  501    0 -0.56487576936E+02 -0.78249825958E+02 -0.88851068660E+03  0.89373660651E+03  0.00000000000E+00 0.  1.
<mgrwt>
<rscale>  4 0.23782250E+03</rscale>
<asrwt>0</asrwt>
<pdfrwt beam="1">  1       21 0.24168132E+00 0.23782250E+03</pdfrwt>
<pdfrwt beam="2">  1        2 0.14416628E+00 0.23782250E+03</pdfrwt>
<totfact> 0.25787540E+01</totfact>
</mgrwt>
</event>
<event>
 5    0  0.3696258E+000  0.4036671E+03  0.7546771E-02  0.1042517E+00
          1   -1    0    0  503    0 -0.00000000000E+00  0.00000000000E+00  0.22897173820E+04  0.22897173820E+04  0.00000000000E+00 0.  1.
         21   -1    0    0  501  502  0.00000000000E+00 -0.00000000000E+00 -0.10504663604E+03  0.10504663604E+03  0.00000000000E+00 0.  1.
         25    1    1    2    0    0  0.28164811955E+03 -0.18255086103E+03  0.10249400668E+04  0.10857152576E+04  0.12500000000E+03 0.  0.
         21    1    1    2  503  502 -0.28732745331E+03  0.30118092049E+03  0.56048881960E+03  0.69815093583E+03  0.00000000000E+00 0.  1.
          1    1    1    2  501    0  0.56793337680E+01 -0.11863005947E+03  0.59924185956E+03  0.61089782459E+03  0.00000000000E+00 0.  1.
<mgrwt>
<rscale>  4 0.40366713E+03</rscale>
<asrwt>0</asrwt>
<pdfrwt beam="1">  1       21 0.16161023E-01 0.40366713E+03</pdfrwt>
<pdfrwt beam="2">  1        1 0.35226417E+00 0.40366713E+03</pdfrwt>
<totfact> 0.77758167E+02</totfact>
</mgrwt>
</event>
<event>
 5    0  0.3696258E+000  0.2531856E+03  0.7546771E-02  0.1111308E+00
          2   -1    0    0  503    0 -0.00000000000E+00  0.00000000000E+00  0.14767852370E+04  0.14767852370E+04  0.00000000000E+00 0.  1.
         21   -1    0    0  501  502  0.00000000000E+00 -0.00000000000E+00 -0.48231372441E+02  0.48231372441E+02  0.00000000000E+00 0.  1.
         25    1    1    2    0    0  0.93804351823E+02 -0.18572829696E+03  0.48829428914E+03  0.54529860583E+03  0.12500000000E+03 0.  0.
         21    1    1    2  503  502 -0.10985303317E+03  0.21117465507E+03  0.74361135689E+03  0.78078183504E+03  0.00000000000E+00 0.  1.
          2    1    1    2  501    0  0.16048681348E+02 -0.25446358107E+02  0.19664821857E+03  0.19893616861E+03  0.00000000000E+00 0.  1.
<mgrwt>
<rscale>  4 0.25318556E+03</rscale>
<asrwt>0</asrwt>
<pdfrwt beam="1">  1       21 0.74202123E-02 0.25318556E+03</pdfrwt>
<pdfrwt beam="2">  1        2 0.22719769E+00 0.25318556E+03</pdfrwt>
<totfact> 0.24329097E+04</totfact>
</mgrwt>
</event>
<event>
 5    0  0.3696258E+000  0.3231276E+03  0.7546771E-02  0.1074219E+00
         21   -1    0    0  501  502  0.00000000000E+00  0.00000000000E+00  0.10021466141E+03  0.10021466141E+03  0.00000000000E+00 0. -1.
          1   -1    0    0  503    0 -0.00000000000E+00 -0.00000000000E+00 -0.20333734007E+04  0.20333734007E+04  0.00000000000E+00 0. -1.
         25    1    1    2    0    0 -0.19713984623E+03  0.19827205757E+03 -0.11651819882E+04  0.12047613845E+04  0.12500000000E+03 0.  0.
         21    1    1    2  503  502  0.20213479376E+03 -0.22500778601E+03 -0.20545636305E+03  0.36564914294E+03  0.00000000000E+00 0. -1.
          1    1    1    2  501    0 -0.49949475311E+01  0.26735728440E+02 -0.56252038803E+03  0.56317753473E+03  0.00000000000E+00 0. -1.
<mgrwt>
<rscale>  4 0.32312757E+03</rscale>
<asrwt>0</asrwt>
<pdfrwt beam="1">  1       21 0.15417642E-01 0.32312757E+03</pdfrwt>
<pdfrwt beam="2">  1        1 0.31282665E+00 0.32312757E+03</pdfrwt>
<totfact> 0.12873234E+03</totfact>
</mgrwt>
</event>
<event>
 5    0  0.3696258E+000  0.3937265E+03  0.7546771E-02  0.1045974E+00
          2   -1    0    0  503    0 -0.00000000000E+00  0.00000000000E+00  0.10127930149E+04  0.10127930149E+04  0.00000000000E+00 0.  1.
         21   -1    0    0  501  502  0.00000000000E+00 -0.00000000000E+00 -0.66813552937E+03  0.66813552937E+03  0.00000000000E+00 0.  1.
         25    1    1    2    0    0 -0.65075706311E+02 -0.37075902745E+03 -0.47931381272E+03  0.62214454515E+03  0.12500000000E+03 0.  0.
         21    1    1    2  503  502  0.26962258987E+02  0.36169144489E+03  0.16468131267E+03  0.39833101745E+03  0.00000000000E+00 0.  1.
          2    1    1    2  501    0  0.38113447324E+02  0.90675825627E+01  0.65928998560E+03  0.66045298170E+03  0.00000000000E+00 0.  1.
<mgrwt>
<rscale>  4 0.39372653E+03</rscale>
<asrwt>0</asrwt>
<pdfrwt beam="1">  1       21 0.10279008E+00 0.39372653E+03</pdfrwt>
<pdfrwt beam="2">  1        2 0.15581431E+00 0.39372653E+03</pdfrwt>
<totfact> 0.22586313E+02</totfact>
</mgrwt>
</event>
<event>
 5    0  0.3696258E+000  0.2994123E+03  0.7546771E-02  0.1086007E+00
          2   -1    0    0  503    0 -0.00000000000E+00  0.00000000000E+00  0.43934268104E+03  0.43934268104E+03  0.00000000000E+00 0. -1.
         21   -1    0    0  501  502  0.00000000000E+00 -0.00000000000E+00 -0.31075692918E+03  0.31075692918E+03  0.00000000000E+00 0. -1.
         25    1    1    2    0    0  0.24134656642E+03 -0.11639576191E+03 -0.15834230301E+03  0.33540039272E+03  0.12500000000E+03 0.  0.
         21    1    1    2  503  502 -0.13294230357E+03  0.90412527974E+02  0.79822244871E+02  0.17949839016E+03  0.00000000000E+00 0. -1.
          2    1    1    2  501    0 -0.10840426285E+03  0.25983233940E+02  0.20710581000E+03  0.23520082735E+03  0.00000000000E+00 0. -1.
<mgrwt>
<rscale>  4 0.29847248E+03</rscale>
<asrwt>0</asrwt>
<pdfrwt beam="1">  1       21 0.47808758E-01 0.29941231E+03</pdfrwt>
<pdfrwt beam="2">  1        2 0.67591182E-01 0.29941231E+03</pdfrwt>
<totfact> 0.36404671E+03</totfact>
</mgrwt>
</event>
<event>
 5    0  0.3696258E+000  0.2132205E+03  0.7546771E-02  0.1139041E+00
          2   -1    0    0  503    0 -0.00000000000E+00  0.00000000000E+00  0.11921345558E+04  0.11921345558E+04  0.00000000000E+00 0.  1.
         21   -1    0    0  501  502  0.00000000000E+00 -0.00000000000E+00 -0.60437068541E+02  0.60437068541E+02  0.00000000000E+00 0.  1.
         25    1    1    2    0    0  0.21884439182E+03 -0.13575323455E+01  0.37878398023E+03  0.45496924556E+03  0.12500000000E+03 0.  0.
         21    1    1    2  503  502 -0.62485667082E+02 -0.41616064549E+02  0.10113368255E+03  0.12595386919E+03  0.00000000000E+00 0. -1.
          2    1    1    2  501    0 -0.15635872474E+03  0.42973596894E+02  0.65177982451E+03  0.67164850962E+03  0.00000000000E+00 0.  1.
<mgrwt>
<rscale>  4 0.21322053E+03</rscale>
<asrwt>0</asrwt>
<pdfrwt beam="1">  1       21 0.92980114E-02 0.21322053E+03</pdfrwt>
<pdfrwt beam="2">  1        2 0.18340530E+00 0.21322053E+03</pdfrwt>
<totfact> 0.23686297E+04</totfact>
</mgrwt>
</event>
<event>
 5    0  0.3696258E+000  0.2628530E+03  0.7546771E-02  0.1105441E+00
          2   -1    0    0  503    0 -0.00000000000E+00  0.00000000000E+00  0.13868476342E+04  0.13868476342E+04  0.00000000000E+00 0.  1.
         21   -1    0    0  501  502  0.00000000000E+00 -0.00000000000E+00 -0.99696561188E+02  0.99696561188E+02  0.00000000000E+00 0. -1.
         25    1    1    2    0    0 -0.17905917363E+02  0.23053429482E+03  0.11331334673E+03  0.28623696042E+03  0.12500000000E+03 0.  0.
         21    1    1    2  503  502 -0.35247865153E+02 -0.10183649717E+03  0.41268912278E+03  0.42652713421E+03  0.00000000000E+00 0.  1.
          2    1    1    2  501    0  0.53153782517E+02 -0.12869779765E+03  0.76114860351E+03  0.77378010076E+03  0.00000000000E+00 0.  1.
<mgrwt>
<rscale>  4 0.26285297E+03</rscale>
<asrwt>0</asrwt>
<pdfrwt beam="1">  1       21 0.15337933E-01 0.26285297E+03</pdfrwt>
<pdfrwt beam="2">  1        2 0.21336116E+00 0.26285297E+03</pdfrwt>
<totfact> 0.74123323E+03</totfact>
</mgrwt>
</event>
<event>
 5    0  0.3696258E+000  0.2555881E+03  0.7546771E-02  0.1109823E+00
         21   -1    0    0  501  502  0.00000000000E+00  0.00000000000E+00  0.72690875708E+02  0.72690875708E+02  0.00000000000E+00 0.  1.
          2   -1    0    0  503    0 -0.00000000000E+00 -0.00000000000E+00 -0.12380465829E+04  0.12380465829E+04  0.00000000000E+00 0.  1.
         25    1    1    2    0    0  0.23155039726E+03 -0.94929811827E+01 -0.27234076220E+03  0.37881419445E+03  0.12500000000E+03 0.  0.
         21    1    1    2  503  502 -0.20768995390E+03 -0.71417777234E+01 -0.55452445431E+03  0.59218535305E+03  0.00000000000E+00 0.  1.
          2    1    1    2  501    0 -0.23860443361E+02  0.16634758906E+02 -0.33849049064E+03  0.33973791107E+03  0.00000000000E+00 0.  1.
<mgrwt>
<rscale>  4 0.25558806E+03</rscale>
<asrwt>0</asrwt>
<pdfrwt beam="1">  1       21 0.11183212E-01 0.25558806E+03</pdfrwt>
<pdfrwt beam="2">  1        2 0.19046870E+00 0.25558806E+03</pdfrwt>
<totfact> 0.15920403E+04</totfact>
</mgrwt>
</event>
<event>
 5    0  0.3696258E+000  0.2513862E+03  0.7546771E-02  0.1112432E+00
          1   -1    0    0  503    0 -0.00000000000E+00  0.00000000000E+00  0.28090550390E+04  0.28090550390E+04  0.00000000000E+00 0.  1.
         21   -1    0    0  501  502  0.00000000000E+00 -0.00000000000E+00 -0.11747676446E+03  0.11747676446E+03  0.00000000000E+00 0. -1.
         25    1    1    2    0    0  0.17070145583E+03  0.18578424837E+03  0.21819466241E+03  0.35621438021E+03  0.12500000000E+03 0.  0.
         21    1    1    2  503  502  0.58308281988E+02 -0.23397007367E+03  0.30244152683E+03  0.38679804585E+03  0.00000000000E+00 0. -1.
          1    1    1    2  501    0 -0.22900973782E+03  0.48185825301E+02  0.21709420853E+04  0.21835193774E+04  0.00000000000E+00 0.  1.
<mgrwt>
<rscale>  4 0.25138621E+03</rscale>
<asrwt>0</asrwt>
<pdfrwt beam="1">  1       21 0.18073350E-01 0.25138621E+03</pdfrwt>
<pdfrwt beam="2">  1        1 0.43216226E+00 0.25138621E+03</pdfrwt>
<totfact> 0.30330612E+02</totfact>
</mgrwt>
</event>
<event>
 5    0  0.3696258E+000  0.2717525E+03  0.7546771E-02  0.1100281E+00
          2   -1    0    0  503    0 -0.00000000000E+00  0.00000000000E+00  0.15634919066E+04  0.15634919066E+04  0.00000000000E+00 0.  1.
         21   -1    0    0  501  502  0.00000000000E+00 -0.00000000000E+00 -0.49158364988E+02  0.49158364988E+02  0.00000000000E+00 0. -1.
         25    1    1    2    0    0  0.17318160440E+03  0.16802545721E+03  0.50040769049E+03  0.56943593061E+03  0.12500000000E+03 0.  0.
         21    1    1    2  503  502 -0.14721466663E+03 -0.16158024952E+03  0.89289312935E+03  0.91925974324E+03  0.00000000000E+00 0.  1.
          2    1    1    2  501    0 -0.25966937768E+02 -0.64452076912E+01  0.12103272175E+03  0.12395459771E+03  0.00000000000E+00 0.  1.
<mgrwt>
<rscale>  4 0.27175250E+03</rscale>
<asrwt>0</asrwt>
<pdfrwt beam="1">  1       21 0.75628266E-02 0.27175250E+03</pdfrwt>
<pdfrwt beam="2">  1        2 0.24053718E+00 0.27175250E+03</pdfrwt>
<totfact> 0.21065764E+04</totfact>
</mgrwt>
</event>
<event>
 5    0  0.3696258E+000  0.2799462E+03  0.7546771E-02  0.1095718E+00
         21   -1    0    0  501  502  0.00000000000E+00  0.00000000000E+00  0.32453164291E+03  0.32453164291E+03  0.00000000000E+00 0. -1.
          1   -1    0    0  503    0 -0.00000000000E+00 -0.00000000000E+00 -0.45645853109E+03  0.45645853109E+03  0.00000000000E+00 0. -1.
         25    1    1    2    0    0 -0.18071345287E+03 -0.90960801713E+02 -0.59409161188E+02  0.24512378083E+03  0.12500000000E+03 0.  0.
         21    1    1    2  503  502  0.28026644711E+03  0.44896311523E+02  0.12483377425E+03  0.31007810525E+03  0.00000000000E+00 0. -1.
          1    1    1    2  501    0 -0.99552994238E+02  0.46064490190E+02 -0.19735150124E+03  0.22578828791E+03  0.00000000000E+00 0. -1.
<mgrwt>
<rscale>  4 0.27994622E+03</rscale>
<asrwt>0</asrwt>
<pdfrwt beam="1">  1       21 0.49927945E-01 0.27994622E+03</pdfrwt>
<pdfrwt beam="2">  1        1 0.70224389E-01 0.27994622E+03</pdfrwt>
<totfact> 0.20821403E+03</totfact>
</mgrwt>
</event>
<event>
 5    0  0.3696258E+000  0.2491500E+03  0.7546771E-02  0.1113843E+00
          2   -1    0    0  503    0 -0.00000000000E+00  0.00000000000E+00  0.17584289507E+04  0.17584289507E+04  0.00000000000E+00 0.  1.
         21   -1    0    0  501  502  0.00000000000E+00 -0.00000000000E+00 -0.80270214266E+02  0.80270214266E+02  0.00000000000E+00 0. -1.
         25    1    1    2    0    0  0.31829833523E+02 -0.20489692943E+03  0.19398461332E+03  0.31024332418E+03  0.12500000000E+03 0.  0.
         21    1    1    2  503  502 -0.44277147916E+02  0.23210478242E+03  0.61597140822E+03  0.65973772940E+03  0.00000000000E+00 0. -1.
          2    1    1    2  501    0  0.12447314393E+02 -0.27207852985E+02  0.86820271488E+03  0.86871811137E+03  0.00000000000E+00 0.  1.
<mgrwt>
<rscale>  4 0.24914997E+03</rscale>
<asrwt>0</asrwt>
<pdfrwt beam="1">  1       21 0.12349265E-01 0.24914997E+03</pdfrwt>
<pdfrwt beam="2">  1        2 0.27052750E+00 0.24914997E+03</pdfrwt>
<totfact> 0.70065061E+03</totfact>
</mgrwt>
</event>
<event>
 5    0  0.3696258E+000  0.2579078E+03  0.7546771E-02  0.1108407E+00
          2   -1    0    0  503    0 -0.00000000000E+00  0.00000000000E+00  0.27079009151E+04  0.27079009151E+04  0.00000000000E+00 0. -1.
         21   -1    0    0  501  502  0.00000000000E+00 -0.00000000000E+00 -0.23189797533E+03  0.23189797533E+03  0.00000000000E+00 0.  1.
         25    1    1    2    0    0  0.17546382135E+02  0.25056650335E+03  0.62251333300E+03  0.68281717750E+03  0.12500000000E+03 0.  0.
         21    1    1    2  503  502 -0.24085819290E+02 -0.22188219321E+03 -0.13987836627E+03  0.26339664331E+03  0.00000000000E+00 0.  1.
          2    1    1    2  501    0  0.65394371554E+01 -0.28684310131E+02  0.19933679731E+04  0.19935850697E+04  0.00000000000E+00 0. -1.
<mgrwt>
<rscale>  4 0.25790783E+03</rscale>
<asrwt>0</asrwt>
<pdfrwt beam="1">  1       21 0.35676614E-01 0.25790783E+03</pdfrwt>
<pdfrwt beam="2">  1        2 0.41660012E+00 0.25790783E+03</pdfrwt>
<totfact> 0.28988051E+02</totfact>
</mgrwt>
</event>
