<event>
 5    0  0.1856407E+000  0.3007990E+03  0.7546771E-02  0.1084842E+00
         21   -1    0    0  502  501  0.00000000000E+00  0.00000000000E+00  0.42010722297E+03  0.42010722297E+03  0.00000000000E+00 0. -1.
         21   -1    0    0  503  502 -0.00000000000E+00 -0.00000000000E+00 -0.36202130568E+03  0.36202130568E+03  0.00000000000E+00 0. -1.
         25    1    1    2    0    0 -0.10797302301E+03 -0.25138986326E+03  0.28787369382E+03  0.41635477737E+03  0.12500000000E+03 0.  0.
         21    1    1    2  503  504  0.49633906008E+02  0.19499639473E+03 -0.18370771990E+03  0.27246218992E+03  0.00000000000E+00 0. -1.
         21    1    1    2  504  501  0.58339116999E+02  0.56393468525E+02 -0.46080056630E+02  0.93311561361E+02  0.00000000000E+00 0. -1.
<mgrwt>
<rscale>  4 0.30079900E+03</rscale>
<asrwt>0</asrwt>
<pdfrwt beam="1">  1       21 0.64631881E-01 0.30079900E+03</pdfrwt>
<pdfrwt beam="2">  1       21 0.55695585E-01 0.30079900E+03</pdfrwt>
<totfact> 0.62751438E+03</totfact>
</mgrwt>
</event>
<event>
 5    0  0.1856407E+000  0.3264394E+03  0.7546771E-02  0.1072723E+00
         21   -1    0    0  502  501  0.00000000000E+00  0.00000000000E+00  0.12855669570E+04  0.12855669570E+04  0.00000000000E+00 0.  1.
         21   -1    0    0  503  502 -0.00000000000E+00 -0.00000000000E+00 -0.15401898367E+03  0.15401898367E+03  0.00000000000E+00 0.  1.
         25    1    1    2    0    0 -0.57051811592E+02 -0.31329348503E+03  0.98117478416E+03  0.10391037841E+04  0.12500000000E+03 0.  0.
         21    1    1    2  503  504  0.11008172391E+03  0.22350232497E+03  0.46785932568E+02  0.25349595400E+03  0.00000000000E+00 0.  1.
         21    1    1    2  504  501 -0.53029912314E+02  0.89791160058E+02  0.10358725655E+03  0.14698620256E+03  0.00000000000E+00 0. -1.
<mgrwt>
<rscale>  4 0.32643940E+03</rscale>
<asrwt>0</asrwt>
<pdfrwt beam="1">  1       21 0.19777952E+00 0.32643940E+03</pdfrwt>
<pdfrwt beam="2">  1       21 0.23695229E-01 0.32643940E+03</pdfrwt>
<totfact> 0.20952865E+03</totfact>
</mgrwt>
</event>
<event>
 5    0  0.1856407E+000  0.3090883E+03  0.7546771E-02  0.1080784E+00
         21   -1    0    0  502  501  0.00000000000E+00  0.00000000000E+00  0.23834982700E+03  0.23834982700E+03  0.00000000000E+00 0.  1.
         21   -1    0    0  503  502 -0.00000000000E+00 -0.00000000000E+00 -0.45686069608E+03  0.45686069608E+03  0.00000000000E+00 0.  1.
         25    1    1    2    0    0 -0.98033271083E+02 -0.26514159251E+03 -0.25959649691E+03  0.40364083976E+03  0.12500000000E+03 0.  0.
         21    1    1    2  503  504  0.97803892500E+02  0.21224488462E+03  0.46896378990E+02  0.23835428001E+03  0.00000000000E+00 0.  1.
         21    1    1    2  504  501  0.22937858249E+00  0.52896707888E+02 -0.58107511557E+01  0.53215403305E+02  0.00000000000E+00 0.  1.
<mgrwt>
<rscale>  4 0.30908831E+03</rscale>
<asrwt>0</asrwt>
<pdfrwt beam="1">  1       21 0.36669204E-01 0.30908831E+03</pdfrwt>
<pdfrwt beam="2">  1       21 0.70286262E-01 0.30908831E+03</pdfrwt>
<totfact> 0.12377132E+04</totfact>
</mgrwt>
</event>
<event>
 5    0  0.1880424E+000  0.2526441E+03  0.7546771E-02  0.1111645E+00
         21   -1    0    0  502  501  0.00000000000E+00  0.00000000000E+00  0.61668594791E+03  0.61668594791E+03  0.00000000000E+00 0.  1.
         21   -1    0    0  503  502 -0.00000000000E+00 -0.00000000000E+00 -0.14176158540E+03  0.14176158540E+03  0.00000000000E+00 0.  1.
         25    1    1    2    0    0  0.46344341653E+01 -0.21950523586E+03  0.46477821334E+03  0.52900644055E+03  0.12500000000E+03 0.  0.
         21    1    1    2  503  504  0.22730248930E+02  0.39057856962E+02 -0.84917580610E+01  0.45981413222E+02  0.00000000000E+00 0.  1.
         21    1    1    2  504  501 -0.27364683095E+02  0.18044737889E+03  0.18637907225E+02  0.18345967954E+03  0.00000000000E+00 0.  1.
<mgrwt>
<rscale>  4 0.25264407E+03</rscale>
<asrwt>0</asrwt>
<pdfrwt beam="1">  1       21 0.94874760E-01 0.25264407E+03</pdfrwt>
<pdfrwt beam="2">  1       21 0.21809475E-01 0.25264407E+03</pdfrwt>
<totfact> 0.17619356E+04</totfact>
</mgrwt>
</event>
<event>
 5    0  0.1856407E+000  0.3376856E+03  0.7546771E-02  0.1067786E+00
         21   -1    0    0  502  501  0.00000000000E+00  0.00000000000E+00  0.16440993634E+03  0.16440993634E+03  0.00000000000E+00 0.  1.
         21   -1    0    0  503  502 -0.00000000000E+00 -0.00000000000E+00 -0.95386225247E+03  0.95386225247E+03  0.00000000000E+00 0.  1.
         25    1    1    2    0    0 -0.30431132134E+03  0.76165569400E+02 -0.89264455238E+02  0.34928457914E+03  0.12500000000E+03 0.  0.
         21    1    1    2  503  504  0.27928290348E+03 -0.82631999159E+02 -0.62631442625E+03  0.69072190351E+03  0.00000000000E+00 0.  1.
         21    1    1    2  504  501  0.25028417851E+02  0.64664297588E+01 -0.73873434644E+02  0.78265706156E+02  0.00000000000E+00 0.  1.
<mgrwt>
<rscale>  4 0.33768561E+03</rscale>
<asrwt>0</asrwt>
<pdfrwt beam="1">  1       21 0.25293837E-01 0.33768561E+03</pdfrwt>
<pdfrwt beam="2">  1       21 0.14674804E+00 0.33768561E+03</pdfrwt>
<totfact> 0.42685453E+03</totfact>
</mgrwt>
</event>
<event>
 5    0  0.1856407E+000  0.2367364E+03  0.7546771E-02  0.1121986E+00
         21   -1    0    0  502  501  0.00000000000E+00  0.00000000000E+00  0.20462325510E+04  0.20462325510E+04  0.00000000000E+00 0.  1.
         21   -1    0    0  503  502 -0.00000000000E+00 -0.00000000000E+00 -0.28841279568E+02  0.28841279568E+02  0.00000000000E+00 0.  1.
         25    1    1    2    0    0  0.19842188840E+03  0.74610252175E+02  0.10752375627E+04  0.11030406845E+04  0.12500000000E+03 0.  0.
         21    1    1    2  503  504 -0.18962378490E+03 -0.39584421494E+02  0.87050355913E+03  0.89179625065E+03  0.00000000000E+00 0.  1.
         21    1    1    2  504  501 -0.87981034963E+01 -0.35025830681E+02  0.71650149608E+02  0.80236895372E+02  0.00000000000E+00 0.  1.
<mgrwt>
<rscale>  4 0.23673643E+03</rscale>
<asrwt>0</asrwt>
<pdfrwt beam="1">  1       21 0.31480489E+00 0.23673643E+03</pdfrwt>
<pdfrwt beam="2">  1       21 0.44371216E-02 0.23673643E+03</pdfrwt>
<totfact> 0.88216498E+03</totfact>
</mgrwt>
</event>
<event>
 5    0  0.1856407E+000  0.2834572E+03  0.7546771E-02  0.1093816E+00
         21   -1    0    0  502  501  0.00000000000E+00  0.00000000000E+00  0.10022145650E+04  0.10022145650E+04  0.00000000000E+00 0.  1.
         21   -1    0    0  503  502 -0.00000000000E+00 -0.00000000000E+00 -0.16156560420E+03  0.16156560420E+03  0.00000000000E+00 0.  1.
         25    1    1    2    0    0  0.90238610403E+02  0.26384251038E+03  0.74738424733E+03  0.80744293312E+03  0.12500000000E+03 0.  0.
         21    1    1    2  503  504 -0.50564104052E+02 -0.16011602418E+02  0.91014012537E+02  0.10534064035E+03  0.00000000000E+00 0.  1.
         21    1    1    2  504  501 -0.39674506350E+02 -0.24783090796E+03  0.22507008958E+01  0.25099659570E+03  0.00000000000E+00 0.  1.
<mgrwt>
<rscale>  4 0.28345720E+03</rscale>
<asrwt>0</asrwt>
<pdfrwt beam="1">  1       21 0.15418685E+00 0.28345720E+03</pdfrwt>
<pdfrwt beam="2">  1       21 0.24856247E-01 0.28345720E+03</pdfrwt>
<totfact> 0.39820476E+03</totfact>
</mgrwt>
</event>
<event>
 5    0  0.2394740E+000  0.2905104E+03  0.7546771E-02  0.1090083E+00
         21   -1    0    0  502  501  0.00000000000E+00  0.00000000000E+00  0.37224842825E+03  0.37224842825E+03  0.00000000000E+00 0. -1.
         21   -1    0    0  503  502 -0.00000000000E+00 -0.00000000000E+00 -0.23962786915E+03  0.23962786915E+03  0.00000000000E+00 0. -1.
         25    1    1    2    0    0  0.25935246020E+03  0.38827460967E+02  0.17247782068E+03  0.33785332463E+03  0.12500000000E+03 0.  0.
         21    1    1    2  503  504 -0.22658522791E+03 -0.14839784650E+02 -0.17692792915E+02  0.22775890682E+03  0.00000000000E+00 0. -1.
         21    1    1    2  504  501 -0.32767232285E+02 -0.23987676317E+02 -0.22164468673E+02  0.46264065951E+02  0.00000000000E+00 0. -1.
<mgrwt>
<rscale>  4 0.29051036E+03</rscale>
<asrwt>0</asrwt>
<pdfrwt beam="1">  1       21 0.57268989E-01 0.29051036E+03</pdfrwt>
<pdfrwt beam="2">  1       21 0.36865826E-01 0.29051036E+03</pdfrwt>
<totfact> 0.19333222E+04</totfact>
</mgrwt>
</event>
<event>
 5    0  0.3312008E+000  0.2610721E+03  0.7546771E-02  0.1106501E+00
         21   -1    0    0  502  501  0.00000000000E+00  0.00000000000E+00  0.12580041897E+03  0.12580041897E+03  0.00000000000E+00 0.  1.
         21   -1    0    0  503  502 -0.00000000000E+00 -0.00000000000E+00 -0.11614589285E+04  0.11614589285E+04  0.00000000000E+00 0.  1.
         25    1    1    2    0    0  0.22515641574E+03 -0.42874501850E+02 -0.39743110983E+02  0.26407981621E+03  0.12500000000E+03 0.  0.
         21    1    1    2  503  504 -0.19887800381E+03  0.20460339173E+02 -0.83541317688E+03  0.85900306285E+03  0.00000000000E+00 0.  1.
         21    1    1    2  504  501 -0.26278411937E+02  0.22414162677E+02 -0.16050222165E+03  0.16417646840E+03  0.00000000000E+00 0. -1.
<mgrwt>
<rscale>  4 0.26107209E+03</rscale>
<asrwt>0</asrwt>
<pdfrwt beam="1">  1       21 0.19353911E-01 0.26107209E+03</pdfrwt>
<pdfrwt beam="2">  1       21 0.17868599E+00 0.26107209E+03</pdfrwt>
<totfact> 0.43183950E+03</totfact>
</mgrwt>
</event>
<event>
 5    0  0.1856407E+000  0.2768102E+03  0.7546771E-02  0.1097444E+00
         21   -1    0    0  502  501  0.00000000000E+00  0.00000000000E+00  0.40665018593E+03  0.40665018593E+03  0.00000000000E+00 0. -1.
         21   -1    0    0  503  502 -0.00000000000E+00 -0.00000000000E+00 -0.58883487875E+03  0.58883487875E+03  0.00000000000E+00 0.  1.
         25    1    1    2    0    0 -0.10925746048E+03 -0.22328652562E+03  0.32128705772E+03  0.42502286839E+03  0.12500000000E+03 0.  0.
         21    1    1    2  503  504  0.12178727290E+03  0.19777303107E+03 -0.48130524193E+03  0.53441654874E+03  0.00000000000E+00 0.  1.
         21    1    1    2  504  501 -0.12529812414E+02  0.25513494552E+02 -0.22166508614E+02  0.36045647553E+02  0.00000000000E+00 0.  1.
<mgrwt>
<rscale>  4 0.27681025E+03</rscale>
<asrwt>0</asrwt>
<pdfrwt beam="1">  1       21 0.62561567E-01 0.27681025E+03</pdfrwt>
<pdfrwt beam="2">  1       21 0.90589982E-01 0.27681025E+03</pdfrwt>
<totfact> 0.23001001E+03</totfact>
</mgrwt>
</event>
<event>
 5    0  0.2221879E+000  0.2501709E+03  0.7546771E-02  0.1113197E+00
         21   -1    0    0  502  501  0.00000000000E+00  0.00000000000E+00  0.82295591666E+03  0.82295591666E+03  0.00000000000E+00 0.  1.
         21   -1    0    0  503  502 -0.00000000000E+00 -0.00000000000E+00 -0.17227105934E+03  0.17227105934E+03  0.00000000000E+00 0. -1.
         25    1    1    2    0    0 -0.16877432223E+03 -0.13592532876E+03  0.72211138588E+03  0.76421876479E+03  0.12500000000E+03 0.  0.
         21    1    1    2  503  504  0.20600503632E+02  0.33671423746E+01 -0.68948145632E+01  0.21983104092E+02  0.00000000000E+00 0. -1.
         21    1    1    2  504  501  0.14817381859E+03  0.13255818639E+03 -0.64531713989E+02  0.20902510712E+03  0.00000000000E+00 0. -1.
<mgrwt>
<rscale>  4 0.25017088E+03</rscale>
<asrwt>0</asrwt>
<pdfrwt beam="1">  1       21 0.12660860E+00 0.25017088E+03</pdfrwt>
<pdfrwt beam="2">  1       21 0.26503240E-01 0.25017088E+03</pdfrwt>
<totfact> 0.60059549E+03</totfact>
</mgrwt>
</event>
<event>
 5    0  0.1856407E+000  0.2548758E+03  0.7546771E-02  0.1110262E+00
         21   -1    0    0  502  501  0.00000000000E+00  0.00000000000E+00  0.68437875860E+03  0.68437875860E+03  0.00000000000E+00 0. -1.
         21   -1    0    0  503  502 -0.00000000000E+00 -0.00000000000E+00 -0.71958674840E+03  0.71958674840E+03  0.00000000000E+00 0.  1.
         25    1    1    2    0    0  0.32146258088E+02  0.21978006001E+03  0.64017534981E+03  0.68904726630E+03  0.12500000000E+03 0.  0.
         21    1    1    2  503  504  0.12123071996E+02 -0.27161202978E+02 -0.42366274457E+02  0.51764862921E+02  0.00000000000E+00 0. -1.
         21    1    1    2  504  501 -0.44269330084E+02 -0.19261885703E+03 -0.63301706516E+03  0.66315337777E+03  0.00000000000E+00 0.  1.
<mgrwt>
<rscale>  4 0.25487577E+03</rscale>
<asrwt>0</asrwt>
<pdfrwt beam="1">  1       21 0.10528904E+00 0.25487577E+03</pdfrwt>
<pdfrwt beam="2">  1       21 0.11070565E+00 0.25487577E+03</pdfrwt>
<totfact> 0.43868223E+02</totfact>
</mgrwt>
</event>
<event>
 5    0  0.1856407E+000  0.2381568E+03  0.7546771E-02  0.1121027E+00
         21   -1    0    0  502  501  0.00000000000E+00  0.00000000000E+00  0.13270051315E+04  0.13270051315E+04  0.00000000000E+00 0. -1.
         21   -1    0    0  503  502 -0.00000000000E+00 -0.00000000000E+00 -0.15853072460E+03  0.15853072460E+03  0.00000000000E+00 0. -1.
         25    1    1    2    0    0 -0.33178241215E+02  0.19998213091E+03  0.12338998602E+04  0.12566731928E+04  0.12500000000E+03 0.  0.
         21    1    1    2  503  504  0.88130337683E+01 -0.12622899720E+03  0.11806587998E+01  0.12654178461E+03  0.00000000000E+00 0. -1.
         21    1    1    2  504  501  0.24365207447E+02 -0.73753133709E+02 -0.66606112072E+02  0.10232087876E+03  0.00000000000E+00 0. -1.
<mgrwt>
<rscale>  4 0.23815677E+03</rscale>
<asrwt>0</asrwt>
<pdfrwt beam="1">  1       21 0.20415463E+00 0.23815677E+03</pdfrwt>
<pdfrwt beam="2">  1       21 0.24389343E-01 0.23815677E+03</pdfrwt>
<totfact> 0.19194752E+03</totfact>
</mgrwt>
</event>
<event>
 5    0  0.1856407E+000  0.2380181E+03  0.7546771E-02  0.1121120E+00
         21   -1    0    0  502  501  0.00000000000E+00  0.00000000000E+00  0.75887428157E+02  0.75887428157E+02  0.00000000000E+00 0. -1.
         21   -1    0    0  503  502 -0.00000000000E+00 -0.00000000000E+00 -0.10486029343E+04  0.10486029343E+04  0.00000000000E+00 0. -1.
         25    1    1    2    0    0 -0.18219133352E+03 -0.88509527460E+02 -0.16243328567E+03  0.28816174408E+03  0.12500000000E+03 0.  0.
         21    1    1    2  503  504  0.14800402857E+03  0.76903201838E+02 -0.59062228940E+03  0.61372142187E+03  0.00000000000E+00 0. -1.
         21    1    1    2  504  501  0.34187304952E+02  0.11606325622E+02 -0.21965993107E+03  0.22260719650E+03  0.00000000000E+00 0. -1.
<mgrwt>
<rscale>  4 0.23801811E+03</rscale>
<asrwt>0</asrwt>
<pdfrwt beam="1">  1       21 0.11674990E-01 0.23801811E+03</pdfrwt>
<pdfrwt beam="2">  1       21 0.16132351E+00 0.23801811E+03</pdfrwt>
<totfact> 0.14713000E+04</totfact>
</mgrwt>
</event>
