<LesHouchesEvents version="3.0">
  <!--
  <scalesfunctionalform>
    muR  H_T/2 := sum_i mT(i)/2, i=final state
    muF1 H_T/2 := sum_i mT(i)/2, i=final state
    muF2 H_T/2 := sum_i mT(i)/2, i=final state
    QES  H_T/2 := sum_i mT(i)/2, i=final state
  </scalesfunctionalform>
HERWIG6   
  -->
  <header>
      113
  </header>
  <init>
   2212   2212 0.65000000D+04 0.65000000D+04 -1 -1   247000   247000 -3   1
 0.23577936D-01 0.56872582D-03 0.42989208D-03     66
  </init>
  <event>
  5     66 -.42989208E-03 0.43709007E+02 0.75467711E-02 0.12212904E+00
        1 -1    0    0  502    0 0.00000000E+00 0.00000000E+00 0.33229197E+03 0.33229213E+03 0.32000000E+00 0.0000E+00 0.9000E+01
       -1 -1    0    0    0  501 0.00000000E+00 0.00000000E+00 -.63268480E+02 0.63269289E+02 0.32000000E+00 0.0000E+00 0.9000E+01
       25  1    1    2    0    0 0.11149888E+01 -.41584617E+02 0.19389065E+03 0.23441226E+03 0.12500000E+03 0.0000E+00 0.9000E+01
       23  1    1    2    0    0 -.45393919E+01 -.19871539E+01 0.73802388E+02 0.11741635E+03 0.91188000E+02 0.0000E+00 0.9000E+01
       21  1    1    2  502  501 0.34244031E+01 0.43571771E+02 0.13304528E+01 0.43732807E+02 0.75000000E+00 0.0000E+00 0.9000E+01
#aMCatNLO 1  0  0  2  5 0.17826971D+01 0.00000000D+00  -5  6  0 0.00000000D+00 0.00000000D+00 0.00000000D+00 0.00000000D+00 0.00000000D+00
  <mgrwgt>
 -.1057007761D+00   11    4    0
 0.144995857166737D+03 0.000000000000000D+00 0.000000000000000D+00 0.144995857166737D+03
 0.144995857166737D+03 0.000000000000000D+00 0.000000000000000D+00 -.144995857166737D+03
 0.139878496770787D+03 0.111485264522931D+01 -.415863496670398D+02 0.470141094120177D+02
 0.916949735808545D+02 -.453948110259342D+01 -.198828948417185D+01 -.825570422434898D+01
 0.584182439818317D+02 0.342462845736410D+01 0.435746391512117D+02 -.387584051876688D+02
 0.000000000000000D+00 -.000000000000000D+00 0.000000000000000D+00 -.000000000000000D+00
 0.145285348905569D+03 0.000000000000000D+00 0.000000000000000D+00 0.145285348905569D+03
 0.147769291463289D+03 0.000000000000000D+00 0.000000000000000D+00 -.147769291463289D+03
 0.140134047973636D+03 0.126534325321895D+01 -.424337580721262D+02 0.470141094120177D+02
 0.917038612301651D+02 -.444091479664276D+01 -.254331359655137D+01 -.825570422434898D+01
 0.581592845605113D+02 0.348728216155539D+01 0.432218378950353D+02 -.387584051876688D+02
 0.305744660454511D+01 -.311710618131584D+00 0.175523377364226D+01 -.248394255772028D+01
 0.144995857166737D+03 0.000000000000000D+00 0.000000000000000D+00 0.144995857166737D+03
 0.144995857166737D+03 0.000000000000000D+00 0.000000000000000D+00 -.144995857166737D+03
 0.139878496770787D+03 0.111485264522931D+01 -.415863496670398D+02 0.470141094120177D+02
 0.916949735808545D+02 -.453948110259342D+01 -.198828948417185D+01 -.825570422434898D+01
 0.000000000000000D+00 -.000000000000000D+00 0.000000000000000D+00 -.000000000000000D+00
 0.584182439818317D+02 0.342462845736410D+01 0.435746391512117D+02 -.387584051876688D+02
 0.145285348905569D+03 0.000000000000000D+00 0.000000000000000D+00 0.145285348905569D+03
 0.147769291463289D+03 0.000000000000000D+00 0.000000000000000D+00 -.147769291463289D+03
 0.140134047973636D+03 0.126534325321895D+01 -.424337580721262D+02 0.470141094120177D+02
 0.917038612301651D+02 -.444091479664276D+01 -.254331359655137D+01 -.825570422434898D+01
 0.305744660454511D+01 -.311710618131584D+00 0.175523377364226D+01 -.248394255772028D+01
 0.581592845605113D+02 0.348728216155539D+01 0.432218378950353D+02 -.387584051876688D+02
0.299733918523D-04 0.000000000000D+00 0.000000000000D+00 0.106522721294D-04 0.000000000000D+00  6 1 -1 25 23 21 21 2 0.51121916D-01 0.97336864D-02 0.17791890D+05 0.17791890D+05 0.17791890D+05 0.12394591D+01  1  2  2  2  6  2       -1 0.216165053106D-01 0.100000000000D+01
0.369959447855D-06 0.158173934388D-05 -.115105716888D-06 0.106522721294D-04 0.000000000000D+00  6 1 -1 25 23 21 21 4 0.51121916D-01 0.97336864D-02 0.17791890D+05 0.17791890D+05 0.17791890D+05 0.12394591D+01  1  2  3  2  6  2       -1 0.409890732786D-03 0.100000000000D+01
0.118261597505D-05 0.000000000000D+00 0.000000000000D+00 0.106522721294D-04 0.000000000000D+00  6 1 -1 25 23 21 21 4 0.51121916D-01 0.97336864D-02 0.17791890D+05 0.17791890D+05 0.17791890D+05 0.12394591D+01  1  2 15  2  6  2       -1 0.131026070946D-02 0.100000000000D+01
0.336098680482D-07 0.000000000000D+00 0.000000000000D+00 0.106415934659D-04 0.000000000000D+00  6 1 -1 25 23 21 21 4 0.51121916D-01 0.10062319D-01 0.18021545D+05 0.18021545D+05 0.18021545D+05 0.12388377D+01  1  2 12  2  6  2       -1 0.353402055588D-04 0.100000000000D+01
-.477810479104D-03 0.000000000000D+00 0.000000000000D+00 0.106522721294D-04 0.000000000000D+00  6 1 -1 25 23 21 21 4 0.51121916D-01 0.97336864D-02 0.17791890D+05 0.17791890D+05 0.17791890D+05 0.12394591D+01  1  2  4  2  6  2       -1 -.529382581113D+00 0.100000000000D+01
-.331861592973D-02 0.000000000000D+00 -.273370082498D-03 0.106522721294D-04 0.000000000000D+00  6 1 -1 25 23 21 21 4 0.51121916D-01 0.99378138D-02 0.17791890D+05 0.17791890D+05 0.17791890D+05 0.12394591D+01  1  2  5  2  6  2       -1 -.356232257284D+01 0.100000000000D+01
0.332363257381D-02 0.000000000000D+00 0.273311216888D-03 0.106522721294D-04 0.000000000000D+00  6 1 -1 25 23 21 21 4 0.51121916D-01 0.97336864D-02 0.17791890D+05 0.17791890D+05 0.17791890D+05 0.12394591D+01  1  2  6  2  6  2       -1 0.368236626768D+01 0.100000000000D+01
0.445063117537D-03 0.000000000000D+00 0.000000000000D+00 0.106522721294D-04 0.174512592721D-03  6 1 -1 25 23 21 21 4 0.51223984D-01 0.99198693D-02 0.18021545D+05 0.18021545D+05 0.18021545D+05 0.12388377D+01  1  2 11  2  6  2       -1 0.477083632604D+00 0.100000000000D+01
0.311434938208D-08 0.000000000000D+00 0.000000000000D+00 0.106415934659D-04 0.000000000000D+00  6 1 21 25 23 1 21 4 0.51121916D-01 0.10062319D-01 0.18021545D+05 0.18021545D+05 0.18021545D+05 0.12388377D+01  3  4 12  5  5  2       -1 0.493446631937D-04 0.100000000000D+01
-.124783695334D-04 0.000000000000D+00 -.103144607050D-05 0.106522721294D-04 0.000000000000D+00  6 1 21 25 23 1 21 4 0.51121916D-01 0.99378138D-02 0.17791890D+05 0.17791890D+05 0.17791890D+05 0.12394591D+01  3  4  5  5  5  2       -1 -.202447925629D+00 0.100000000000D+01
0.344411705967D-06 0.000000000000D+00 0.000000000000D+00 0.106522721294D-04 0.269889433631D-06  6 1 21 25 23 1 21 4 0.51223984D-01 0.99198693D-02 0.18021545D+05 0.18021545D+05 0.18021545D+05 0.12388377D+01  3  4 11  5  5  2       -1 0.558106161678D-02 0.100000000000D+01
  </mgrwgt>
  </event>
  <event>
  5     66 0.42989208E-03 0.46618201E+02 0.75467711E-02 0.11775887E+00
        1 -1    0    0  502    0 0.00000000E+00 0.00000000E+00 0.49325413E+03 0.49325424E+03 0.32000000E+00 0.0000E+00 0.9000E+01
       -1 -1    0    0    0  501 0.00000000E+00 0.00000000E+00 -.68187172E+02 0.68187923E+02 0.32000000E+00 0.0000E+00 0.9000E+01
       25  1    1    2    0    0 0.11112064E+03 -.21077336E+02 0.11889135E+03 0.20628186E+03 0.12500000E+03 0.0000E+00 0.9000E+01
       23  1    1    2    0    0 -.79435795E+02 0.55611549E+02 0.22526840E+03 0.26165586E+03 0.91188000E+02 0.0000E+00 0.9000E+01
       21  1    1    2  502  501 -.31684841E+02 -.34534212E+02 0.80907213E+02 0.93504441E+02 0.75000000E+00 0.0000E+00 0.9000E+01
#aMCatNLO 1  0  0  5  2 0.11210667D+02 0.00000000D+00  -5  6  0 0.00000000D+00 0.00000000D+00 0.00000000D+00 0.00000000D+00 0.00000000D+00
  <mgrwgt>
 0.1133840073D+00   20    2    0
 0.183395322692578D+03 0.000000000000000D+00 0.000000000000000D+00 0.183395322692578D+03
 0.183395322692578D+03 -.000000000000000D+00 -.000000000000000D+00 -.183395322692578D+03
 0.177973373106276D+03 0.111122410667022D+03 -.210754021148120D+02 -.570715236179518D+02
 0.139453769356531D+03 -.794344047346505D+02 0.556130644646247D+02 0.415868350448774D+02
 0.493635029223491D+02 -.316880059323712D+02 -.345376623498128D+02 0.154846885730745D+02
 0.000000000000000D+00 0.000000000000000D+00 0.000000000000000D+00 0.000000000000000D+00
 0.183395322692578D+03 0.000000000000000D+00 0.000000000000000D+00 0.183395322692578D+03
 0.183395322692578D+03 -.000000000000000D+00 -.000000000000000D+00 -.183395322692578D+03
 0.176193886132127D+03 0.108324993471705D+03 -.241243869815028D+02 -.557045352952757D+02
 0.140114427504662D+03 -.816425955280201D+02 0.532062942756727D+02 0.426658914808751D+02
 0.123040379619798D+02 -.730399735166484D+01 -.450010118789763D+01 -.881986746813103D+01
 0.381782937863877D+02 -.193784005920200D+02 -.245818061062722D+02 0.218585112825316D+02
0.157688945893D-03 0.000000000000D+00 0.000000000000D+00 0.565088507562D-05 0.000000000000D+00  6 1 -1 25 23 21 21 2 0.75885317D-01 0.10490400D-01 0.30372649D+05 0.30372649D+05 0.30372649D+05 0.12143361D+01  1  2  2  3  6  5       21 0.595924385872D-01 0.100000000000D+01
0.108324921508D-04 0.832147429439D-05 -.605567072683D-06 0.565088507562D-05 0.000000000000D+00  6 1 -1 25 23 21 21 4 0.75885317D-01 0.10490400D-01 0.30372649D+05 0.30372649D+05 0.30372649D+05 0.12143361D+01  1  2  3  3  6  5       21 0.603665147801D-02 0.100000000000D+01
0.268690566412D-05 0.000000000000D+00 0.000000000000D+00 0.565088507562D-05 0.000000000000D+00  6 1 -1 25 23 21 21 4 0.75885317D-01 0.10490400D-01 0.30372649D+05 0.30372649D+05 0.30372649D+05 0.12143361D+01  1  2 15  3  6  5       21 0.149733900775D-02 0.100000000000D+01
0.144848027252D-04 0.000000000000D+00 0.000000000000D+00 0.567077165656D-05 0.000000000000D+00  6 1 -1 25 23 21 21 4 0.75885317D-01 0.10490400D-01 0.28984625D+05 0.28984625D+05 0.28984625D+05 0.12164710D+01  1  2 12  3  6  5       21 0.812310647600D-02 0.100000000000D+01
0.158047685135D-04 0.000000000000D+00 0.000000000000D+00 0.567077165656D-05 0.000000000000D+00  6 1 -1 25 23 21 21 4 0.75885317D-01 0.10490400D-01 0.28984625D+05 0.28984625D+05 0.28984625D+05 0.12164710D+01  1  2 12  3  6  5       21 0.886334594259D-02 0.100000000000D+01
-.604392926742D-04 0.000000000000D+00 0.000000000000D+00 0.565088507562D-05 0.000000000000D+00  6 1 -1 25 23 21 21 4 0.75885317D-01 0.10490400D-01 0.30372649D+05 0.30372649D+05 0.30372649D+05 0.12143361D+01  1  2  4  3  6  5       21 -.336811640730D-01 0.100000000000D+01
-.191015666413D-04 0.000000000000D+00 0.000000000000D+00 0.565088507562D-05 0.000000000000D+00  6 1 -1 25 23 21 21 4 0.75885317D-01 0.10490400D-01 0.30372649D+05 0.30372649D+05 0.30372649D+05 0.12143361D+01  1  2  5  3  6  5       21 -.106447804339D-01 0.100000000000D+01
0.121529059566D-03 0.000000000000D+00 -.000000000000D+00 0.565088507562D-05 0.000000000000D+00  6 1 -1 25 23 21 21 4 0.75885317D-01 0.10490400D-01 0.30372649D+05 0.30372649D+05 0.30372649D+05 0.12143361D+01  1  2  6  3  6  5       21 0.677248196294D-01 0.100000000000D+01
0.215331343406D-05 0.000000000000D+00 0.000000000000D+00 0.567077165656D-05 0.000000000000D+00  6 1 -1 25 23 1 -1 4 0.75885317D-01 0.10490400D-01 0.28984625D+05 0.28984625D+05 0.28984625D+05 0.12164710D+01  1  2 12  6  6  5       21 0.120758250097D-02 0.100000000000D+01
0.227099749917D-05 0.000000000000D+00 0.000000000000D+00 0.567077165656D-05 0.000000000000D+00  6 1 -1 25 23 1 -1 4 0.75885317D-01 0.10490400D-01 0.28984625D+05 0.28984625D+05 0.28984625D+05 0.12164710D+01  1  2 12  6  6  5       21 0.127357996118D-02 0.100000000000D+01
-.181796078251D-05 0.000000000000D+00 0.000000000000D+00 0.565088507562D-05 0.000000000000D+00  6 1 -1 25 23 1 -1 4 0.75885317D-01 0.10490400D-01 0.30372649D+05 0.30372649D+05 0.30372649D+05 0.12143361D+01  1  2  5  6  6  5       21 -.101309980122D-02 0.100000000000D+01
0.215331343406D-05 0.000000000000D+00 0.000000000000D+00 0.567077165656D-05 0.000000000000D+00  6 1 -1 25 23 2 -2 4 0.75885317D-01 0.10490400D-01 0.28984625D+05 0.28984625D+05 0.28984625D+05 0.12164710D+01  1  2 12  7  6  5       21 0.120758250097D-02 0.100000000000D+01
0.215331343406D-05 0.000000000000D+00 0.000000000000D+00 0.567077165656D-05 0.000000000000D+00  6 1 -1 25 23 4 -4 4 0.75885317D-01 0.10490400D-01 0.28984625D+05 0.28984625D+05 0.28984625D+05 0.12164710D+01  1  2 12  7  6  5       21 0.120758250097D-02 0.100000000000D+01
0.227099749917D-05 0.000000000000D+00 0.000000000000D+00 0.567077165656D-05 0.000000000000D+00  6 1 -1 25 23 2 -2 4 0.75885317D-01 0.10490400D-01 0.28984625D+05 0.28984625D+05 0.28984625D+05 0.12164710D+01  1  2 12  7  6  5       21 0.127357996118D-02 0.100000000000D+01
0.227099749917D-05 0.000000000000D+00 0.000000000000D+00 0.567077165656D-05 0.000000000000D+00  6 1 -1 25 23 4 -4 4 0.75885317D-01 0.10490400D-01 0.28984625D+05 0.28984625D+05 0.28984625D+05 0.12164710D+01  1  2 12  7  6  5       21 0.127357996118D-02 0.100000000000D+01
-.181796078251D-05 0.000000000000D+00 0.000000000000D+00 0.565088507562D-05 0.000000000000D+00  6 1 -1 25 23 2 -2 4 0.75885317D-01 0.10490400D-01 0.30372649D+05 0.30372649D+05 0.30372649D+05 0.12143361D+01  1  2  5  7  6  5       21 -.101309980122D-02 0.100000000000D+01
-.181796078251D-05 0.000000000000D+00 0.000000000000D+00 0.565088507562D-05 0.000000000000D+00  6 1 -1 25 23 4 -4 4 0.75885317D-01 0.10490400D-01 0.30372649D+05 0.30372649D+05 0.30372649D+05 0.12143361D+01  1  2  5  7  6  5       21 -.101309980122D-02 0.100000000000D+01
0.215331343406D-05 0.000000000000D+00 0.000000000000D+00 0.567077165656D-05 0.000000000000D+00  6 1 -1 25 23 3 -3 4 0.75885317D-01 0.10490400D-01 0.28984625D+05 0.28984625D+05 0.28984625D+05 0.12164710D+01  1  2 12  8  6  5       21 0.120758250097D-02 0.100000000000D+01
0.227099749917D-05 0.000000000000D+00 0.000000000000D+00 0.567077165656D-05 0.000000000000D+00  6 1 -1 25 23 3 -3 4 0.75885317D-01 0.10490400D-01 0.28984625D+05 0.28984625D+05 0.28984625D+05 0.12164710D+01  1  2 12  8  6  5       21 0.127357996118D-02 0.100000000000D+01
-.181796078251D-05 0.000000000000D+00 0.000000000000D+00 0.565088507562D-05 0.000000000000D+00  6 1 -1 25 23 3 -3 4 0.75885317D-01 0.10490400D-01 0.30372649D+05 0.30372649D+05 0.30372649D+05 0.12143361D+01  1  2  5  8  6  5       21 -.101309980122D-02 0.100000000000D+01
  </mgrwgt>
  </event>
  <event>
  5     66 0.42989208E-03 0.64266869E+02 0.75467711E-02 0.11659577E+00
        1 -1    0    0  502    0 0.00000000E+00 0.00000000E+00 0.17147029E+04 0.17147030E+04 0.32000000E+00 0.0000E+00 0.9000E+01
       -1 -1    0    0    0  501 0.00000000E+00 0.00000000E+00 -.20577864E+02 0.20580352E+02 0.32000000E+00 0.0000E+00 0.9000E+01
       25  1    1    2    0    0 0.51499252E+02 -.11796447E+03 0.69974783E+03 0.72238481E+03 0.12500000E+03 0.0000E+00 0.9000E+01
       23  1    1    2    0    0 -.57921043E+02 0.54022638E+02 0.77306342E+03 0.78244207E+03 0.91188000E+02 0.0000E+00 0.9000E+01
       21  1    1    2  502  501 0.64217908E+01 0.63941835E+02 0.22131381E+03 0.23045642E+03 0.75000000E+00 0.0000E+00 0.9000E+01
#aMCatNLO 1  0  0  5  1 0.21928957D+02 0.00000000D+00  -5  6  0 0.00000000D+00 0.00000000D+00 0.00000000D+00 0.00000000D+00 0.00000000D+00
  <mgrwgt>
 0.7724799416D-01   14    2    0
 0.187848629175054D+03 0.000000000000000D+00 0.000000000000000D+00 0.187848629175054D+03
 0.187848629175054D+03 -.000000000000000D+00 -.000000000000000D+00 -.187848629175054D+03
 0.181216120544581D+03 0.514990549960120D+02 -.117966435693635D+03 -.254175083256685D+02
 0.128008388816935D+03 -.579211822474431D+02 0.540212507529733D+02 0.423997332261706D+02
 0.664727489885912D+02 0.642212725143114D+01 0.639451849406618D+02 -.169822249005021D+02
 0.000000000000000D+00 -.000000000000000D+00 0.000000000000000D+00 0.000000000000000D+00
 0.187848629175054D+03 0.000000000000000D+00 0.000000000000000D+00 0.187848629175054D+03
 0.187848629175054D+03 -.000000000000000D+00 -.000000000000000D+00 -.187848629175054D+03
 0.176010610316696D+03 0.524229228135967D+02 -.108767474641748D+03 -.278605198765628D+02
 0.130096024007969D+03 -.572536668014108D+02 0.606677086906874D+02 0.406346019876774D+02
 0.453711683547034D+02 0.237069944347734D+02 0.386748600186884D+02 -.881212389449535D+00
 0.242194556707389D+02 -.188762504469593D+02 0.942490593237189D+01 -.118928697216650D+02
0.169338057548D-03 0.000000000000D+00 0.000000000000D+00 0.325297334567D-05 0.000000000000D+00  6 1 -1 25 23 21 21 2 0.26380064D+00 0.31660188D-02 0.33210340D+05 0.33210340D+05 0.33210340D+05 0.12102916D+01  1  2  2  3  6  5       21 0.447641501804D-01 0.100000000000D+01
0.170949466328D-05 0.893621480546D-05 -.650302728720D-06 0.325297334567D-05 0.000000000000D+00  6 1 -1 25 23 21 21 4 0.26380064D+00 0.31660188D-02 0.33210340D+05 0.33210340D+05 0.33210340D+05 0.12102916D+01  1  2  3  3  6  5       21 0.661947527678D-03 0.100000000000D+01
0.535921307706D-05 0.000000000000D+00 0.000000000000D+00 0.325297334567D-05 0.000000000000D+00  6 1 -1 25 23 21 21 4 0.26380064D+00 0.31660188D-02 0.33210340D+05 0.33210340D+05 0.33210340D+05 0.12102916D+01  1  2 15  3  6  5       21 0.207518509584D-02 0.100000000000D+01
0.844173808290D-04 0.000000000000D+00 0.000000000000D+00 0.325381710152D-05 0.000000000000D+00  6 1 -1 25 23 21 21 4 0.26380064D+00 0.31660188D-02 0.33094858D+05 0.33094858D+05 0.33094858D+05 0.12104486D+01  1  2 12  3  6  5       21 0.327051250346D-01 0.100000000000D+01
0.765874722203D-04 0.000000000000D+00 0.000000000000D+00 0.325381710152D-05 0.000000000000D+00  6 1 -1 25 23 21 21 4 0.26380064D+00 0.31660188D-02 0.33094858D+05 0.33094858D+05 0.33094858D+05 0.12104486D+01  1  2 12  3  6  5       21 0.296716485451D-01 0.100000000000D+01
-.978628371521D-04 0.000000000000D+00 0.000000000000D+00 0.325297334567D-05 0.000000000000D+00  6 1 -1 25 23 21 21 4 0.26380064D+00 0.31660188D-02 0.33210340D+05 0.33210340D+05 0.33210340D+05 0.12102916D+01  1  2  4  3  6  5       21 -.378942763003D-01 0.100000000000D+01
0.176663498293D-05 0.000000000000D+00 0.000000000000D+00 0.325381710152D-05 0.000000000000D+00  6 1 -1 25 23 1 -1 4 0.26380064D+00 0.31660188D-02 0.33094858D+05 0.33094858D+05 0.33094858D+05 0.12104486D+01  1  2 12  6  6  5       21 0.684432725108D-03 0.100000000000D+01
0.163031858118D-05 0.000000000000D+00 0.000000000000D+00 0.325381710152D-05 0.000000000000D+00  6 1 -1 25 23 1 -1 4 0.26380064D+00 0.31660188D-02 0.33094858D+05 0.33094858D+05 0.33094858D+05 0.12104486D+01  1  2 12  6  6  5       21 0.631620793256D-03 0.100000000000D+01
0.176663498293D-05 0.000000000000D+00 0.000000000000D+00 0.325381710152D-05 0.000000000000D+00  6 1 -1 25 23 2 -2 4 0.26380064D+00 0.31660188D-02 0.33094858D+05 0.33094858D+05 0.33094858D+05 0.12104486D+01  1  2 12  7  6  5       21 0.684432725108D-03 0.100000000000D+01
0.176663498293D-05 0.000000000000D+00 0.000000000000D+00 0.325381710152D-05 0.000000000000D+00  6 1 -1 25 23 4 -4 4 0.26380064D+00 0.31660188D-02 0.33094858D+05 0.33094858D+05 0.33094858D+05 0.12104486D+01  1  2 12  7  6  5       21 0.684432725108D-03 0.100000000000D+01
0.163031858118D-05 0.000000000000D+00 0.000000000000D+00 0.325381710152D-05 0.000000000000D+00  6 1 -1 25 23 2 -2 4 0.26380064D+00 0.31660188D-02 0.33094858D+05 0.33094858D+05 0.33094858D+05 0.12104486D+01  1  2 12  7  6  5       21 0.631620793256D-03 0.100000000000D+01
0.163031858118D-05 0.000000000000D+00 0.000000000000D+00 0.325381710152D-05 0.000000000000D+00  6 1 -1 25 23 4 -4 4 0.26380064D+00 0.31660188D-02 0.33094858D+05 0.33094858D+05 0.33094858D+05 0.12104486D+01  1  2 12  7  6  5       21 0.631620793256D-03 0.100000000000D+01
0.176663498293D-05 0.000000000000D+00 0.000000000000D+00 0.325381710152D-05 0.000000000000D+00  6 1 -1 25 23 3 -3 4 0.26380064D+00 0.31660188D-02 0.33094858D+05 0.33094858D+05 0.33094858D+05 0.12104486D+01  1  2 12  8  6  5       21 0.684432725108D-03 0.100000000000D+01
0.163031858118D-05 0.000000000000D+00 0.000000000000D+00 0.325381710152D-05 0.000000000000D+00  6 1 -1 25 23 3 -3 4 0.26380064D+00 0.31660188D-02 0.33094858D+05 0.33094858D+05 0.33094858D+05 0.12104486D+01  1  2 12  8  6  5       21 0.631620793256D-03 0.100000000000D+01
  </mgrwgt>
  </event>
  <event>
  6     66 0.42989208E-03 0.26720598E+02 0.75467711E-02 0.12258370E+00
       21 -1    0    0  502  503 0.00000000E+00 0.00000000E+00 0.85498859E+02 0.85502148E+02 0.75000000E+00 0.0000E+00 0.9000E+01
       -1 -1    0    0    0  501 0.00000000E+00 0.00000000E+00 -.26300185E+03 0.26300205E+03 0.32000000E+00 0.0000E+00 0.9000E+01
       25  1    1    2    0    0 -.16755162E+02 -.21400985E+00 -.15215200E+03 0.19762594E+03 0.12500000E+03 0.0000E+00 0.9000E+01
       23  1    1    2    0    0 -.34477261E+01 -.46880479E+01 -.36489627E+02 0.98390085E+02 0.91188000E+02 0.0000E+00 0.9000E+01
       -1  1    1    2    0  503 0.32052736E+02 0.65508587E+01 0.19300805E+02 0.37985722E+02 0.32000000E+00 0.0000E+00 0.9000E+01
       21  1    1    2  502  501 -.11849848E+02 -.16488009E+01 -.81621715E+01 0.14502448E+02 0.75000000E+00 0.0000E+00 0.9000E+01
#aMCatNLO 2  0  0  1  5 0.19679198D+02 0.00000000D+00  -5  6  0 0.00000000D+00 0.00000000D+00 0.00000000D+00 0.00000000D+00 0.00000000D+00
  <mgrwgt>
 0.3478925057D-01    1    2    0
 0.118974467151530D+03 0.000000000000000D+00 0.000000000000000D+00 0.118974467151530D+03
 0.118974467151530D+03 0.000000000000000D+00 0.000000000000000D+00 -.118974467151530D+03
 0.129793021789141D+03 0.730116029249356D+00 0.335851479426030D+01 -.347766561664143D+02
 0.976241185694802D+02 0.963023286158771D+01 -.201601420473346D+01 0.334426596464132D+02
 0.000000000000000D+00 0.000000000000000D+00 0.000000000000000D+00 0.000000000000000D+00
 0.105317939444391D+02 -.103603488908371D+02 -.134250058952684D+01 0.133399652000104D+01
 0.180593261274595D+03 0.000000000000000D+00 0.000000000000000D+00 0.180593261274595D+03
 0.124516424576691D+03 0.000000000000000D+00 0.000000000000000D+00 -.124516424576691D+03
 0.130823216834041D+03 -.167407659619225D+02 -.212140749394404D+00 -.347766561664143D+02
 0.973007698752233D+02 -.343691038762357D+01 -.468664454303597D+01 0.334426596464132D+02
 0.649222861736047D+02 0.320527358955061D+02 0.655085869004331D+01 0.560768366979045D+02
 0.120634129684171D+02 -.118750595459601D+02 -.165207339761294D+01 0.133399652000104D+01
0.531361106483D-05 0.000000000000D+00 0.000000000000D+00 0.162307212512D-03 0.662041849124D-07  6 21 -1 25 23 -1 21 4 0.13153898D-01 0.40461967D-01 0.17186419D+05 0.17186419D+05 0.17186419D+05 0.12411415D+01  1  2  1  4  5  1        1 0.347892505670D-01 0.100000000000D+01
  </mgrwgt>
  </event>
  <event>
  5     66 0.42989208E-03 0.41110142E+02 0.75467711E-02 0.11984053E+00
        1 -1    0    0  502    0 0.00000000E+00 0.00000000E+00 0.37747396E+03 0.37747410E+03 0.32000000E+00 0.0000E+00 0.9000E+01
       -1 -1    0    0    0  501 0.00000000E+00 0.00000000E+00 -.10230155E+03 0.10230205E+03 0.32000000E+00 0.0000E+00 0.9000E+01
       25  1    1    2    0    0 -.69421748E+02 0.62701089E+02 0.23390056E+03 0.28122104E+03 0.12500000E+03 0.0000E+00 0.9000E+01
       23  1    1    2    0    0 0.33501165E+02 -.42708718E+02 0.86880625E+02 0.13714903E+03 0.91188000E+02 0.0000E+00 0.9000E+01
       21  1    1    2  502  501 0.35920583E+02 -.19992371E+02 -.45608767E+02 0.61406069E+02 0.75000000E+00 0.0000E+00 0.9000E+01
#aMCatNLO 1  0  0  5  1 0.55952531D+01 0.00000000D+00  -5  6  0 0.00000000D+00 0.00000000D+00 0.00000000D+00 0.00000000D+00 0.00000000D+00
  <mgrwgt>
 0.7203370163D-01   25    2    0
 0.196510363546357D+03 0.000000000000000D+00 0.000000000000000D+00 0.196510363546357D+03
 0.196510363546357D+03 -.000000000000000D+00 -.000000000000000D+00 -.196510363546357D+03
 0.179533725580074D+03 -.694221515697826D+02 0.627013136020934D+02 0.886367235667893D+02
 0.106594012284646D+03 0.335009248436930D+02 -.427085841036545D+02 0.100347889572978D+02
 0.106892989227994D+03 0.359212267260896D+02 -.199927294984389D+02 -.986715125240871D+02
 0.000000000000000D+00 0.000000000000000D+00 -.000000000000000D+00 0.000000000000000D+00
 0.196510363546357D+03 0.000000000000000D+00 0.000000000000000D+00 0.196510363546357D+03
 0.196510363546357D+03 -.000000000000000D+00 -.000000000000000D+00 -.196510363546357D+03
 0.179349375483053D+03 -.693269223964295D+02 0.626483117623254D+02 0.883751398897389D+02
 0.106609910582456D+03 0.335574982328276D+02 -.427400712372761D+02 0.987938831029068D+01
 0.411352691260553D+02 0.104175923089108D+02 -.356012846675395D+01 -.396347022425870D+02
 0.659261719011500D+02 0.253518318546911D+02 -.163481120582953D+02 -.586198259574427D+02
0.188015335429D-04 0.000000000000D+00 0.000000000000D+00 0.112113740202D-04 0.000000000000D+00  6 1 -1 25 23 21 21 2 0.58072966D-01 0.15738749D-01 0.23006605D+05 0.23006605D+05 0.23006605D+05 0.12271857D+01  1  2  2  3  6  5       21 0.541368541306D-02 0.100000000000D+01
0.101402319500D-05 0.992184183778D-06 -.722028393620D-07 0.112113740202D-04 0.000000000000D+00  6 1 -1 25 23 21 21 4 0.58072966D-01 0.15738749D-01 0.23006605D+05 0.23006605D+05 0.23006605D+05 0.12271857D+01  1  2  3  3  6  5       21 0.439711873504D-03 0.100000000000D+01
0.701380803236D-06 0.000000000000D+00 0.000000000000D+00 0.112113740202D-04 0.000000000000D+00  6 1 -1 25 23 21 21 4 0.58072966D-01 0.15738749D-01 0.23006605D+05 0.23006605D+05 0.23006605D+05 0.12271857D+01  1  2 15  3  6  5       21 0.304140446244D-03 0.100000000000D+01
0.620073840668D-04 0.000000000000D+00 0.000000000000D+00 0.112111942904D-04 0.000000000000D+00  6 1 -1 25 23 21 21 4 0.58072966D-01 0.15738749D-01 0.23011418D+05 0.23011418D+05 0.23011418D+05 0.12271758D+01  1  2 12  3  6  5       21 0.268875430186D-01 0.100000000000D+01
0.591038239226D-04 0.000000000000D+00 0.000000000000D+00 0.112111942904D-04 0.000000000000D+00  6 1 -1 25 23 21 21 4 0.58072966D-01 0.15738749D-01 0.23011418D+05 0.23011418D+05 0.23011418D+05 0.12271758D+01  1  2 12  3  6  5       21 0.256285058981D-01 0.100000000000D+01
-.316496169203D-03 0.000000000000D+00 0.000000000000D+00 0.112113740202D-04 0.000000000000D+00  6 1 -1 25 23 21 21 4 0.58072966D-01 0.15738749D-01 0.23006605D+05 0.23006605D+05 0.23006605D+05 0.12271857D+01  1  2  4  3  6  5       21 -.137242544552D+00 0.100000000000D+01
-.194011586501D-03 0.000000000000D+00 0.000000000000D+00 0.112113740202D-04 0.000000000000D+00  6 1 -1 25 23 21 21 4 0.58072966D-01 0.15738749D-01 0.23006605D+05 0.23006605D+05 0.23006605D+05 0.12271857D+01  1  2  5  3  6  5       21 -.841294347134D-01 0.100000000000D+01
0.439658760362D-03 0.000000000000D+00 -.000000000000D+00 0.112113740202D-04 0.000000000000D+00  6 1 -1 25 23 21 21 4 0.58072966D-01 0.15738749D-01 0.23006605D+05 0.23006605D+05 0.23006605D+05 0.12271857D+01  1  2  6  3  6  5       21 0.190649659864D+00 0.100000000000D+01
0.950334191134D-04 0.000000000000D+00 0.000000000000D+00 0.112113740202D-04 0.301262370338D-05  6 1 -1 25 23 21 21 4 0.58072966D-01 0.15738749D-01 0.23011418D+05 0.23011418D+05 0.23011418D+05 0.12271758D+01  1  2 11  3  6  5       21 0.412082396810D-01 0.100000000000D+01
0.241269504649D-05 0.000000000000D+00 0.000000000000D+00 0.112111942904D-04 0.000000000000D+00  6 1 -1 25 23 1 -1 4 0.58072966D-01 0.15738749D-01 0.23011418D+05 0.23011418D+05 0.23011418D+05 0.12271758D+01  1  2 12  6  6  5       21 0.104618897942D-02 0.100000000000D+01
0.229435603109D-05 0.000000000000D+00 0.000000000000D+00 0.112111942904D-04 0.000000000000D+00  6 1 -1 25 23 1 -1 4 0.58072966D-01 0.15738749D-01 0.23011418D+05 0.23011418D+05 0.23011418D+05 0.12271758D+01  1  2 12  6  6  5       21 0.994875004233D-03 0.100000000000D+01
-.562574926155D-05 0.000000000000D+00 0.000000000000D+00 0.112113740202D-04 0.000000000000D+00  6 1 -1 25 23 1 -1 4 0.58072966D-01 0.15738749D-01 0.23006605D+05 0.23006605D+05 0.23006605D+05 0.12271857D+01  1  2  5  6  6  5       21 -.243949917501D-02 0.100000000000D+01
0.263286000360D-05 0.000000000000D+00 0.000000000000D+00 0.112113740202D-04 0.417087324965D-07  6 1 -1 25 23 1 -1 4 0.58072966D-01 0.15738749D-01 0.23011418D+05 0.23011418D+05 0.23011418D+05 0.12271758D+01  1  2 11  6  6  5       21 0.114165655710D-02 0.100000000000D+01
0.241269504649D-05 0.000000000000D+00 0.000000000000D+00 0.112111942904D-04 0.000000000000D+00  6 1 -1 25 23 2 -2 4 0.58072966D-01 0.15738749D-01 0.23011418D+05 0.23011418D+05 0.23011418D+05 0.12271758D+01  1  2 12  7  6  5       21 0.104618897942D-02 0.100000000000D+01
0.241269504649D-05 0.000000000000D+00 0.000000000000D+00 0.112111942904D-04 0.000000000000D+00  6 1 -1 25 23 4 -4 4 0.58072966D-01 0.15738749D-01 0.23011418D+05 0.23011418D+05 0.23011418D+05 0.12271758D+01  1  2 12  7  6  5       21 0.104618897942D-02 0.100000000000D+01
0.229435603109D-05 0.000000000000D+00 0.000000000000D+00 0.112111942904D-04 0.000000000000D+00  6 1 -1 25 23 2 -2 4 0.58072966D-01 0.15738749D-01 0.23011418D+05 0.23011418D+05 0.23011418D+05 0.12271758D+01  1  2 12  7  6  5       21 0.994875004233D-03 0.100000000000D+01
0.229435603109D-05 0.000000000000D+00 0.000000000000D+00 0.112111942904D-04 0.000000000000D+00  6 1 -1 25 23 4 -4 4 0.58072966D-01 0.15738749D-01 0.23011418D+05 0.23011418D+05 0.23011418D+05 0.12271758D+01  1  2 12  7  6  5       21 0.994875004233D-03 0.100000000000D+01
-.562574926155D-05 0.000000000000D+00 0.000000000000D+00 0.112113740202D-04 0.000000000000D+00  6 1 -1 25 23 2 -2 4 0.58072966D-01 0.15738749D-01 0.23006605D+05 0.23006605D+05 0.23006605D+05 0.12271857D+01  1  2  5  7  6  5       21 -.243949917501D-02 0.100000000000D+01
-.562574926155D-05 0.000000000000D+00 0.000000000000D+00 0.112113740202D-04 0.000000000000D+00  6 1 -1 25 23 4 -4 4 0.58072966D-01 0.15738749D-01 0.23006605D+05 0.23006605D+05 0.23006605D+05 0.12271857D+01  1  2  5  7  6  5       21 -.243949917501D-02 0.100000000000D+01
0.255217961710D-05 0.000000000000D+00 0.000000000000D+00 0.112113740202D-04 0.400235439244D-07  6 1 -1 25 23 2 -2 4 0.58072966D-01 0.15738749D-01 0.23011418D+05 0.23011418D+05 0.23011418D+05 0.12271758D+01  1  2 11  7  6  5       21 0.110667205654D-02 0.100000000000D+01
0.255217961710D-05 0.000000000000D+00 0.000000000000D+00 0.112113740202D-04 0.400235439244D-07  6 1 -1 25 23 4 -4 4 0.58072966D-01 0.15738749D-01 0.23011418D+05 0.23011418D+05 0.23011418D+05 0.12271758D+01  1  2 11  7  6  5       21 0.110667205654D-02 0.100000000000D+01
0.241269504649D-05 0.000000000000D+00 0.000000000000D+00 0.112111942904D-04 0.000000000000D+00  6 1 -1 25 23 3 -3 4 0.58072966D-01 0.15738749D-01 0.23011418D+05 0.23011418D+05 0.23011418D+05 0.12271758D+01  1  2 12  8  6  5       21 0.104618897942D-02 0.100000000000D+01
0.229435603109D-05 0.000000000000D+00 0.000000000000D+00 0.112111942904D-04 0.000000000000D+00  6 1 -1 25 23 3 -3 4 0.58072966D-01 0.15738749D-01 0.23011418D+05 0.23011418D+05 0.23011418D+05 0.12271758D+01  1  2 12  8  6  5       21 0.994875004233D-03 0.100000000000D+01
-.562574926155D-05 0.000000000000D+00 0.000000000000D+00 0.112113740202D-04 0.000000000000D+00  6 1 -1 25 23 3 -3 4 0.58072966D-01 0.15738749D-01 0.23006605D+05 0.23006605D+05 0.23006605D+05 0.12271857D+01  1  2  5  8  6  5       21 -.243949917501D-02 0.100000000000D+01
0.256662259840D-05 0.000000000000D+00 0.000000000000D+00 0.112113740202D-04 0.402500402465D-07  6 1 -1 25 23 3 -3 4 0.58072966D-01 0.15738749D-01 0.23011418D+05 0.23011418D+05 0.23011418D+05 0.12271758D+01  1  2 11  8  6  5       21 0.111293479906D-02 0.100000000000D+01
  </mgrwgt>
  </event>
  <event>
  5     66 0.42989208E-03 0.23091691E+02 0.75467711E-02 0.12380614E+00
        3 -1    0    0  502    0 0.00000000E+00 0.00000000E+00 0.86121098E+02 0.86122550E+02 0.50000000E+00 0.0000E+00 0.9000E+01
       -3 -1    0    0    0  501 -.00000000E+00 -.00000000E+00 -.23050156E+03 0.23050211E+03 0.50000000E+00 0.0000E+00 0.9000E+01
       25  1    1    2    0    0 -.13506727E+02 0.13061302E+00 -.12375197E+02 0.12633525E+03 0.12500000E+03 0.0000E+00 0.9000E+01
       23  1    1    2    0    0 0.30410897E+02 -.15858587E+02 -.59417132E+02 0.11411382E+03 0.91188000E+02 0.0000E+00 0.9000E+01
       21  1    1    2  502  501 -.16904170E+02 0.15727974E+02 -.72588136E+02 0.76175587E+02 0.75000000E+00 0.0000E+00 0.9000E+01
#aMCatNLO 1  0  0  5  1 0.18009071D+01 0.00000000D+00  -5  6  0 0.00000000D+00 0.00000000D+00 0.00000000D+00 0.00000000D+00 0.00000000D+00
  <mgrwgt>
 0.1193264389D+00   25    2    0
 0.140894866432134D+03 0.000000000000000D+00 0.000000000000000D+00 0.140894866432134D+03
 0.140894866432134D+03 -.000000000000000D+00 -.000000000000000D+00 -.140894866432134D+03
 0.135612991923479D+03 -.135057502137634D+02 0.129704106316058D+00 0.508277627527113D+02
 0.977772520999046D+02 0.304116018361195D+02 -.158592424372030D+02 -.829207979264889D+01
 0.483994888408845D+02 -.169058516223561D+02 0.157295383308869D+02 -.425356829600624D+02
 0.000000000000000D+00 0.000000000000000D+00 0.000000000000000D+00 0.000000000000000D+00
 0.140894866432134D+03 0.000000000000000D+00 0.000000000000000D+00 0.140894866432134D+03
 0.140894866432134D+03 -.000000000000000D+00 -.000000000000000D+00 -.140894866432134D+03
 0.135571317761901D+03 -.135552938165863D+02 0.175800453135004D+00 0.507031094060802D+02
 0.977684251537125D+02 0.303758769175988D+02 -.158260032672522D+02 -.838196487160937D+01
 0.646311569048366D+01 -.140233676409511D+01 0.611138351010458D+00 -.627947656612930D+01
 0.419868742581717D+02 -.154182463369174D+02 0.150390644631067D+02 -.360416679683415D+02
0.125622769166D-03 0.000000000000D+00 0.000000000000D+00 0.369762376821D-04 0.000000000000D+00  6 3 -3 25 23 21 21 2 0.13249553D-01 0.35461932D-01 0.15159060D+05 0.15159060D+05 0.15159060D+05 0.12473006D+01  1  2  2  3  6  5       21 0.159842226234D-01 0.100000000000D+01
0.142365024371D-04 0.662929565853D-05 -.482424510834D-06 0.369762376821D-04 0.000000000000D+00  6 3 -3 25 23 21 21 4 0.13249553D-01 0.35461932D-01 0.15159060D+05 0.15159060D+05 0.15159060D+05 0.12473006D+01  1  2  3  3  6  5       21 0.281818012456D-02 0.100000000000D+01
0.513216152772D-05 0.000000000000D+00 0.000000000000D+00 0.369762376821D-04 0.000000000000D+00  6 3 -3 25 23 21 21 4 0.13249553D-01 0.35461932D-01 0.15159060D+05 0.15159060D+05 0.15159060D+05 0.12473006D+01  1  2 15  3  6  5       21 0.101593461437D-02 0.100000000000D+01
0.378254841159D-07 0.000000000000D+00 0.000000000000D+00 0.369770686815D-04 0.000000000000D+00  6 3 -3 25 23 21 21 4 0.13249553D-01 0.35461932D-01 0.15154764D+05 0.15154764D+05 0.15154764D+05 0.12473146D+01  1  2 12  3  6  5       21 0.748789220541D-05 0.100000000000D+01
0.354887347064D-07 0.000000000000D+00 0.000000000000D+00 0.369770686815D-04 0.000000000000D+00  6 3 -3 25 23 21 21 4 0.13249553D-01 0.35461932D-01 0.15154764D+05 0.15154764D+05 0.15154764D+05 0.12473146D+01  1  2 12  3  6  5       21 0.702531180232D-05 0.100000000000D+01
-.938783325865D-03 0.000000000000D+00 0.000000000000D+00 0.369762376821D-04 0.000000000000D+00  6 3 -3 25 23 21 21 4 0.13249553D-01 0.35461932D-01 0.15159060D+05 0.15159060D+05 0.15159060D+05 0.12473006D+01  1  2  4  3  6  5       21 -.185836410446D+00 0.100000000000D+01
-.116451764409D-03 0.000000000000D+00 0.000000000000D+00 0.369762376821D-04 0.000000000000D+00  6 3 -3 25 23 21 21 4 0.13249553D-01 0.35461932D-01 0.15159060D+05 0.15159060D+05 0.15159060D+05 0.12473006D+01  1  2  5  3  6  5       21 -.230521540932D-01 0.100000000000D+01
0.128884714488D-02 0.000000000000D+00 -.000000000000D+00 0.369762376821D-04 0.000000000000D+00  6 3 -3 25 23 21 21 4 0.13249553D-01 0.35461932D-01 0.15159060D+05 0.15159060D+05 0.15159060D+05 0.12473006D+01  1  2  6  3  6  5       21 0.255133128614D+00 0.100000000000D+01
0.232341047097D-03 0.000000000000D+00 0.000000000000D+00 0.369762376821D-04 0.230184164064D-03  6 3 -3 25 23 21 21 4 0.13249553D-01 0.35461932D-01 0.15154764D+05 0.15154764D+05 0.15154764D+05 0.12473146D+01  1  2 11  3  6  5       21 0.459939841146D-01 0.100000000000D+01
0.165733711851D-07 0.000000000000D+00 0.000000000000D+00 0.369770686815D-04 0.000000000000D+00  6 3 -3 25 23 3 -3 4 0.13249553D-01 0.35461932D-01 0.15154764D+05 0.15154764D+05 0.15154764D+05 0.12473146D+01  1  2 12  6  6  5       21 0.328084675756D-05 0.100000000000D+01
0.160789643985D-07 0.000000000000D+00 0.000000000000D+00 0.369770686815D-04 0.000000000000D+00  6 3 -3 25 23 3 -3 4 0.13249553D-01 0.35461932D-01 0.15154764D+05 0.15154764D+05 0.15154764D+05 0.12473146D+01  1  2 12  6  6  5       21 0.318297452114D-05 0.100000000000D+01
-.416035074693D-04 0.000000000000D+00 0.000000000000D+00 0.369762376821D-04 0.000000000000D+00  6 3 -3 25 23 3 -3 4 0.13249553D-01 0.35461932D-01 0.15159060D+05 0.15159060D+05 0.15159060D+05 0.12473006D+01  1  2  5  6  6  5       21 -.823560269667D-02 0.100000000000D+01
0.509209950379D-04 0.000000000000D+00 0.000000000000D+00 0.369762376821D-04 0.145812072065D-05  6 3 -3 25 23 3 -3 4 0.13249553D-01 0.35461932D-01 0.15154764D+05 0.15154764D+05 0.15154764D+05 0.12473146D+01  1  2 11  6  6  5       21 0.100802654810D-01 0.100000000000D+01
0.165733711851D-07 0.000000000000D+00 0.000000000000D+00 0.369770686815D-04 0.000000000000D+00  6 3 -3 25 23 2 -2 4 0.13249553D-01 0.35461932D-01 0.15154764D+05 0.15154764D+05 0.15154764D+05 0.12473146D+01  1  2 12  7  6  5       21 0.328084675756D-05 0.100000000000D+01
0.165733711851D-07 0.000000000000D+00 0.000000000000D+00 0.369770686815D-04 0.000000000000D+00  6 3 -3 25 23 4 -4 4 0.13249553D-01 0.35461932D-01 0.15154764D+05 0.15154764D+05 0.15154764D+05 0.12473146D+01  1  2 12  7  6  5       21 0.328084675756D-05 0.100000000000D+01
0.160789643985D-07 0.000000000000D+00 0.000000000000D+00 0.369770686815D-04 0.000000000000D+00  6 3 -3 25 23 2 -2 4 0.13249553D-01 0.35461932D-01 0.15154764D+05 0.15154764D+05 0.15154764D+05 0.12473146D+01  1  2 12  7  6  5       21 0.318297452114D-05 0.100000000000D+01
0.160789643985D-07 0.000000000000D+00 0.000000000000D+00 0.369770686815D-04 0.000000000000D+00  6 3 -3 25 23 4 -4 4 0.13249553D-01 0.35461932D-01 0.15154764D+05 0.15154764D+05 0.15154764D+05 0.12473146D+01  1  2 12  7  6  5       21 0.318297452114D-05 0.100000000000D+01
-.416035074693D-04 0.000000000000D+00 0.000000000000D+00 0.369762376821D-04 0.000000000000D+00  6 3 -3 25 23 2 -2 4 0.13249553D-01 0.35461932D-01 0.15159060D+05 0.15159060D+05 0.15159060D+05 0.12473006D+01  1  2  5  7  6  5       21 -.823560269667D-02 0.100000000000D+01
-.416035074693D-04 0.000000000000D+00 0.000000000000D+00 0.369762376821D-04 0.000000000000D+00  6 3 -3 25 23 4 -4 4 0.13249553D-01 0.35461932D-01 0.15159060D+05 0.15159060D+05 0.15159060D+05 0.12473006D+01  1  2  5  7  6  5       21 -.823560269667D-02 0.100000000000D+01
0.506548734012D-04 0.000000000000D+00 0.000000000000D+00 0.369762376821D-04 0.144627716309D-05  6 3 -3 25 23 2 -2 4 0.13249553D-01 0.35461932D-01 0.15154764D+05 0.15154764D+05 0.15154764D+05 0.12473146D+01  1  2 11  7  6  5       21 0.100275843277D-01 0.100000000000D+01
0.506548734012D-04 0.000000000000D+00 0.000000000000D+00 0.369762376821D-04 0.144627716309D-05  6 3 -3 25 23 4 -4 4 0.13249553D-01 0.35461932D-01 0.15154764D+05 0.15154764D+05 0.15154764D+05 0.12473146D+01  1  2 11  7  6  5       21 0.100275843277D-01 0.100000000000D+01
0.165733711851D-07 0.000000000000D+00 0.000000000000D+00 0.369770686815D-04 0.000000000000D+00  6 3 -3 25 23 1 -1 4 0.13249553D-01 0.35461932D-01 0.15154764D+05 0.15154764D+05 0.15154764D+05 0.12473146D+01  1  2 12  8  6  5       21 0.328084675756D-05 0.100000000000D+01
0.160789643985D-07 0.000000000000D+00 0.000000000000D+00 0.369770686815D-04 0.000000000000D+00  6 3 -3 25 23 1 -1 4 0.13249553D-01 0.35461932D-01 0.15154764D+05 0.15154764D+05 0.15154764D+05 0.12473146D+01  1  2 12  8  6  5       21 0.318297452114D-05 0.100000000000D+01
-.416035074693D-04 0.000000000000D+00 0.000000000000D+00 0.369762376821D-04 0.000000000000D+00  6 3 -3 25 23 1 -1 4 0.13249553D-01 0.35461932D-01 0.15159060D+05 0.15159060D+05 0.15159060D+05 0.12473006D+01  1  2  5  8  6  5       21 -.823560269667D-02 0.100000000000D+01
0.506982014399D-04 0.000000000000D+00 0.000000000000D+00 0.369762376821D-04 0.144751424748D-05  6 3 -3 25 23 1 -1 4 0.13249553D-01 0.35461932D-01 0.15154764D+05 0.15154764D+05 0.15154764D+05 0.12473146D+01  1  2 11  8  6  5       21 0.100361614997D-01 0.100000000000D+01
  </mgrwgt>
  </event>
  <event>
  5     66 -.42989208E-03 0.61398365E+02 0.75467711E-02 0.11641354E+00
        1 -1    0    0  502    0 0.00000000E+00 0.00000000E+00 0.11653226E+04 0.11653226E+04 0.32000000E+00 0.0000E+00 0.9000E+01
       -1 -1    0    0    0  501 0.00000000E+00 0.00000000E+00 -.34124419E+02 0.34125920E+02 0.32000000E+00 0.0000E+00 0.9000E+01
       25  1    1    2    0    0 -.68594785E+02 -.11972619E+03 0.37838566E+03 0.42171118E+03 0.12500000E+03 0.0000E+00 0.9000E+01
       23  1    1    2    0    0 0.37531348E+02 0.66767813E+02 0.33714040E+03 0.35755481E+03 0.91188000E+02 0.0000E+00 0.9000E+01
       21  1    1    2  502  501 0.31063437E+02 0.52958373E+02 0.41567208E+03 0.42018254E+03 0.75000000E+00 0.0000E+00 0.9000E+01
#aMCatNLO 1  0  0  1  5 0.10467501D+01 0.00000000D+00  -5  6  0 0.00000000D+00 0.00000000D+00 0.00000000D+00 0.00000000D+00 0.00000000D+00
  <mgrwgt>
 -.4273382825D-01   11    4    0
 0.199416353277804D+03 0.000000000000000D+00 0.000000000000000D+00 0.199416353277804D+03
 0.199416353277804D+03 0.000000000000000D+00 0.000000000000000D+00 -.199416353277804D+03
 0.195049579255728D+03 -.685953809008609D+02 -.119727201747507D+03 -.581326865766085D+02
 0.119087059028222D+03 0.375309845946681D+02 0.667671933786031D+02 -.208249106450157D+00
 0.846960682716578D+02 0.310643963061927D+02 0.529600083689035D+02 0.583409356830587D+02
 0.000000000000000D+00 -.000000000000000D+00 0.000000000000000D+00 0.000000000000000D+00
 0.241671910379441D+03 0.000000000000000D+00 0.000000000000000D+00 0.241671910379441D+03
 0.199423522685065D+03 0.000000000000000D+00 0.000000000000000D+00 -.199423522685065D+03
 0.195333090136927D+03 -.685166773623448D+02 -.120233405412352D+03 -.581326865766085D+02
 0.118929449711525D+03 0.375789701814571D+02 0.664585607510194D+02 -.208249106450157D+00
 0.845715403205524D+02 0.310985216934008D+02 0.527405214640613D+02 0.583409356830587D+02
 0.422613528955018D+02 -.160814512513137D+00 0.103432319727150D+01 0.422483876943758D+02
 0.199416353277804D+03 0.000000000000000D+00 0.000000000000000D+00 0.199416353277804D+03
 0.199416353277804D+03 0.000000000000000D+00 0.000000000000000D+00 -.199416353277804D+03
 0.195049579255728D+03 -.685953809008609D+02 -.119727201747507D+03 -.581326865766085D+02
 0.119087059028222D+03 0.375309845946681D+02 0.667671933786031D+02 -.208249106450157D+00
 0.000000000000000D+00 -.000000000000000D+00 0.000000000000000D+00 0.000000000000000D+00
 0.846960682716578D+02 0.310643963061927D+02 0.529600083689035D+02 0.583409356830587D+02
 0.241671910379441D+03 0.000000000000000D+00 0.000000000000000D+00 0.241671910379441D+03
 0.199423522685065D+03 0.000000000000000D+00 0.000000000000000D+00 -.199423522685065D+03
 0.195333090136927D+03 -.685166773623448D+02 -.120233405412352D+03 -.581326865766085D+02
 0.118929449711525D+03 0.375789701814571D+02 0.664585607510194D+02 -.208249106450157D+00
 0.422613528955018D+02 -.160814512513137D+00 0.103432319727150D+01 0.422483876943758D+02
 0.845715403205524D+02 0.310985216934008D+02 0.527405214640613D+02 0.583409356830587D+02
0.923755727821D-06 0.000000000000D+00 0.000000000000D+00 0.378951006643D-05 0.000000000000D+00  6 1 -1 25 23 21 21 2 0.17928051D+00 0.52500295D-02 0.33611803D+05 0.33611803D+05 0.33611803D+05 0.12097507D+01  1  2  2  1  6  1        1 0.267193479180D-03 0.100000000000D+01
0.778288661218D-08 0.487479290309D-07 -.354746522530D-08 0.378951006643D-05 0.000000000000D+00  6 1 -1 25 23 21 21 4 0.17928051D+00 0.52500295D-02 0.33611803D+05 0.33611803D+05 0.33611803D+05 0.12097507D+01  1  2  3  1  6  1        1 0.329458836296D-05 0.100000000000D+01
0.307540095873D-07 0.000000000000D+00 0.000000000000D+00 0.378951006643D-05 0.000000000000D+00  6 1 -1 25 23 21 21 4 0.17928051D+00 0.52500295D-02 0.33611803D+05 0.33611803D+05 0.33611803D+05 0.12097507D+01  1  2 15  1  6  1        1 0.130185376133D-04 0.100000000000D+01
0.527566219617D-07 0.000000000000D+00 0.000000000000D+00 0.378795370317D-05 0.000000000000D+00  6 1 -1 25 23 21 21 4 0.21732204D+00 0.52500295D-02 0.33798005D+05 0.33798005D+05 0.33798005D+05 0.12095022D+01  1  2 12  1  6  1        1 0.151641818885D-04 0.100000000000D+01
-.394692215039D-02 0.000000000000D+00 0.000000000000D+00 0.378951006643D-05 0.000000000000D+00  6 1 -1 25 23 21 21 4 0.17928051D+00 0.52500295D-02 0.33611803D+05 0.33611803D+05 0.33611803D+05 0.12097507D+01  1  2  4  1  6  1        1 -.167077903535D+01 0.100000000000D+01
-.380239898953D-02 0.000000000000D+00 -.141234027140D-05 0.378951006643D-05 0.000000000000D+00  6 1 -1 25 23 21 21 4 0.21727213D+00 0.52500295D-02 0.33611803D+05 0.33611803D+05 0.33611803D+05 0.12097507D+01  1  2  5  1  6  1        1 -.109440737813D+01 0.100000000000D+01
0.373352459280D-02 0.000000000000D+00 0.138664961800D-05 0.378951006643D-05 0.000000000000D+00  6 1 -1 25 23 21 21 4 0.17928051D+00 0.52500295D-02 0.33611803D+05 0.33611803D+05 0.33611803D+05 0.12097507D+01  1  2  6  1  6  1        1 0.158044531408D+01 0.100000000000D+01
0.397091791385D-02 0.000000000000D+00 0.000000000000D+00 0.378951006643D-05 0.143581312187D-04  6 1 -1 25 23 21 21 4 0.21726936D+00 0.52502182D-02 0.33798005D+05 0.33798005D+05 0.33798005D+05 0.12095022D+01  1  2 11  1  6  1        1 0.114192230574D+01 0.100000000000D+01
0.146553674612D-08 0.000000000000D+00 0.000000000000D+00 0.378795370317D-05 0.000000000000D+00  6 21 -1 25 23 -1 21 4 0.21732204D+00 0.52500295D-02 0.33798005D+05 0.33798005D+05 0.33798005D+05 0.12095022D+01  3  4 12  4  5  1        1 0.476406955929D-06 0.100000000000D+01
-.105514973733D-03 0.000000000000D+00 -.391974894308D-07 0.378951006643D-05 0.000000000000D+00  6 21 -1 25 23 -1 21 4 0.21727213D+00 0.52500295D-02 0.33611803D+05 0.33611803D+05 0.33611803D+05 0.12097507D+01  3  4  5  4  5  1        1 -.343628431848D-01 0.100000000000D+01
0.104976314392D-03 0.000000000000D+00 0.000000000000D+00 0.378951006643D-05 0.759149350003D-06  6 21 -1 25 23 -1 21 4 0.21726936D+00 0.52502182D-02 0.33798005D+05 0.33798005D+05 0.33798005D+05 0.12095022D+01  3  4 11  4  5  1        1 0.341486613975D-01 0.100000000000D+01
  </mgrwgt>
  </event>
  <event>
  6     66 0.42989208E-03 0.17202521E+02 0.75467711E-02 0.12264494E+00
       21 -1    0    0  502  503 0.00000000E+00 0.00000000E+00 0.78125315E+02 0.78128915E+02 0.75000000E+00 0.0000E+00 0.9000E+01
       -1 -1    0    0    0  501 0.00000000E+00 0.00000000E+00 -.61099383E+03 0.61099391E+03 0.32000000E+00 0.0000E+00 0.9000E+01
       25  1    1    2    0    0 -.25387436E+01 -.45723976E+02 -.13482699E+03 0.18947413E+03 0.12500000E+03 0.0000E+00 0.9000E+01
       23  1    1    2    0    0 0.86630422E+01 0.34466667E+02 -.51844731E+02 0.11075255E+03 0.91188000E+02 0.0000E+00 0.9000E+01
       -1  1    1    2    0  503 0.39999338E+01 -.78125669E+01 0.20114490E+02 0.21948366E+02 0.32000000E+00 0.0000E+00 0.9000E+01
       21  1    1    2  502  501 -.10124232E+02 0.19069875E+02 -.36631128E+03 0.36694779E+03 0.75000000E+00 0.0000E+00 0.9000E+01
#aMCatNLO 2  0  0  1  5 0.21822252D+03 0.00000000D+00  -5  6  0 0.00000000D+00 0.00000000D+00 0.00000000D+00 0.00000000D+00 0.00000000D+00
  <mgrwgt>
 0.1871818834D+00    1    2    0
 0.186584112069723D+03 0.000000000000000D+00 0.000000000000000D+00 0.186584112069723D+03
 0.186584112069723D+03 0.000000000000000D+00 0.000000000000000D+00 -.186584112069723D+03
 0.139889848113748D+03 -.104461184893379D+01 -.486422691320832D+02 0.397115605970660D+02
 0.120555711443890D+03 0.995833062852619D+01 0.319367484739511D+02 0.714094109046351D+02
 0.000000000000000D+00 0.000000000000000D+00 -.000000000000000D+00 0.000000000000000D+00
 0.112722664581808D+03 -.891371877959240D+01 0.167055206581320D+02 -.111120971501701D+03
 0.255383181587700D+03 0.000000000000000D+00 0.000000000000000D+00 0.255383181587700D+03
 0.186915854179877D+03 0.000000000000000D+00 0.000000000000000D+00 -.186915854179877D+03
 0.138921369650900D+03 -.253867291331163D+01 -.457241078695554D+02 0.397115605970660D+02
 0.121150931386622D+03 0.866310123657474D+01 0.344665568785722D+02 0.714094109046351D+02
 0.690276074759497D+02 0.399993382815173D+01 -.781256685438596D+01 0.684673274078224D+02
 0.113199127254105D+03 -.101243621514148D+02 0.190701178453691D+02 -.111120971501701D+03
0.123118821668D-03 0.000000000000D+00 0.000000000000D+00 0.718684962644D-04 0.249239787541D-06  6 21 -1 25 23 -1 21 4 0.12019539D-01 0.93999147D-01 0.17077399D+05 0.17077399D+05 0.17077399D+05 0.12414515D+01  1  2  1  4  5  1        1 0.187181883407D+00 0.100000000000D+01
  </mgrwgt>
  </event>
  <event>
  5     66 -.42989208E-03 0.22097808E+02 0.75467711E-02 0.11728785E+00
        1 -1    0    0  502    0 0.00000000E+00 0.00000000E+00 0.17988736E+04 0.17988736E+04 0.32000000E+00 0.0000E+00 0.9000E+01
       -1 -1    0    0    0  501 0.00000000E+00 0.00000000E+00 -.25118733E+02 0.25120772E+02 0.32000000E+00 0.0000E+00 0.9000E+01
       25  1    1    2    0    0 -.97001246E+02 0.90086841E+02 0.63260943E+03 0.65828913E+03 0.12500000E+03 0.0000E+00 0.9000E+01
       23  1    1    2    0    0 0.77957626E+02 -.78879573E+02 0.11331264E+04 0.11421866E+04 0.91188000E+02 0.0000E+00 0.9000E+01
       21  1    1    2  502  501 0.19043621E+02 -.11207267E+02 0.80189834E+01 0.23518693E+02 0.75000000E+00 0.0000E+00 0.9000E+01
#aMCatNLO 1  0  0  2  5 0.23083263D+01 0.00000000D+00  -5  6  0 0.00000000D+00 0.00000000D+00 0.00000000D+00 0.00000000D+00 0.00000000D+00
  <mgrwgt>
 -.5114125343D+00   11    4    0
 0.212573072000134D+03 0.000000000000000D+00 0.000000000000000D+00 0.212573072000134D+03
 0.212573072000134D+03 0.000000000000000D+00 0.000000000000000D+00 -.212573072000134D+03
 0.184928575037374D+03 -.970017585143127D+02 0.900871423376670D+02 -.323812213469096D+02
 0.172772590719202D+03 0.779571470310755D+02 -.788792918365139D+02 0.961033678180431D+02
 0.674449782436931D+02 0.190446114832372D+02 -.112078505011532D+02 -.637221464711335D+02
 0.000000000000000D+00 0.000000000000000D+00 -.000000000000000D+00 -.000000000000000D+00
 0.212585127028159D+03 0.000000000000000D+00 0.000000000000000D+00 0.212585127028159D+03
 0.361883930082625D+03 0.000000000000000D+00 0.000000000000000D+00 -.361883930082625D+03
 0.185649508442410D+03 -.977653484444459D+02 0.907421243553776D+02 -.323812213469096D+02
 0.172175033665704D+03 0.772463696156106D+02 -.782696106354495D+02 0.961033678180431D+02
 0.673278683622327D+02 0.187669070179399D+02 -.109696448572207D+02 -.637221464711335D+02
 0.149316646640437D+03 0.175207181089538D+01 -.150286886270742D+01 -.149298803054466D+03
 0.212573072000134D+03 0.000000000000000D+00 0.000000000000000D+00 0.212573072000134D+03
 0.212573072000134D+03 0.000000000000000D+00 0.000000000000000D+00 -.212573072000134D+03
 0.184928575037374D+03 -.970017585143127D+02 0.900871423376670D+02 -.323812213469096D+02
 0.172772590719202D+03 0.779571470310755D+02 -.788792918365139D+02 0.961033678180431D+02
 0.000000000000000D+00 0.000000000000000D+00 -.000000000000000D+00 -.000000000000000D+00
 0.674449782436931D+02 0.190446114832372D+02 -.112078505011532D+02 -.637221464711335D+02
 0.212585127028159D+03 0.000000000000000D+00 0.000000000000000D+00 0.212585127028159D+03
 0.361883930082625D+03 0.000000000000000D+00 0.000000000000000D+00 -.361883930082625D+03
 0.185649508442410D+03 -.977653484444459D+02 0.907421243553776D+02 -.323812213469096D+02
 0.172175033665704D+03 0.772463696156106D+02 -.782696106354495D+02 0.961033678180431D+02
 0.149316646640437D+03 0.175207181089538D+01 -.150286886270742D+01 -.149298803054466D+03
 0.673278683622327D+02 0.187669070179399D+02 -.109696448572207D+02 -.637221464711335D+02
0.887642117273D-05 0.000000000000D+00 0.000000000000D+00 0.237229949054D-04 0.000000000000D+00  6 1 -1 25 23 21 21 2 0.27674994D+00 0.38645795D-02 0.30231970D+05 0.30231970D+05 0.30231970D+05 0.12145475D+01  1  2  2  2  6  2       -1 0.155611815323D-02 0.100000000000D+01
0.171589948736D-05 0.468421614442D-06 -.340877945187D-07 0.237229949054D-04 0.000000000000D+00  6 1 -1 25 23 21 21 4 0.27674994D+00 0.38645795D-02 0.30231970D+05 0.30231970D+05 0.30231970D+05 0.12145475D+01  1  2  3  2  6  2       -1 0.443736851213D-03 0.100000000000D+01
0.122655919610D-06 0.000000000000D+00 0.000000000000D+00 0.237229949054D-04 0.000000000000D+00  6 1 -1 25 23 21 21 4 0.27674994D+00 0.38645795D-02 0.30231970D+05 0.30231970D+05 0.30231970D+05 0.12145475D+01  1  2 15  2  6  2       -1 0.317191956472D-04 0.100000000000D+01
0.690048183507D-04 0.000000000000D+00 0.000000000000D+00 0.237030057858D-04 0.000000000000D+00  6 1 -1 25 23 21 21 4 0.27674994D+00 0.65946838D-02 0.30573870D+05 0.30573870D+05 0.30573870D+05 0.12140357D+01  1  2 12  2  6  2       -1 0.803517129079D-02 0.100000000000D+01
-.228762634221D-01 0.000000000000D+00 0.000000000000D+00 0.237229949054D-04 0.000000000000D+00  6 1 -1 25 23 21 21 4 0.27674994D+00 0.38645795D-02 0.30231970D+05 0.30231970D+05 0.30231970D+05 0.12145475D+01  1  2  4  2  6  2       -1 -.591587163071D+01 0.100000000000D+01
-.228130483065D-01 0.000000000000D+00 -.464059790933D-05 0.237229949054D-04 0.000000000000D+00  6 1 -1 25 23 21 21 4 0.27674994D+00 0.65791903D-02 0.30231970D+05 0.30231970D+05 0.30231970D+05 0.12145475D+01  1  2  5  2  6  2       -1 -.267086132697D+01 0.100000000000D+01
0.199282251461D-01 0.000000000000D+00 0.405322823394D-05 0.237229949054D-04 0.000000000000D+00  6 1 -1 25 23 21 21 4 0.27674994D+00 0.38645795D-02 0.30231970D+05 0.30231970D+05 0.30231970D+05 0.12145475D+01  1  2  6  2  6  2       -1 0.515349992334D+01 0.100000000000D+01
0.248757728967D-01 0.000000000000D+00 0.000000000000D+00 0.237229949054D-04 0.219329961494D-04  6 1 -1 25 23 21 21 4 0.27676564D+00 0.65790516D-02 0.30573870D+05 0.30573870D+05 0.30573870D+05 0.12140357D+01  1  2 11  2  6  2       -1 0.290655138664D+01 0.100000000000D+01
0.410508743231D-05 0.000000000000D+00 0.000000000000D+00 0.237030057858D-04 0.000000000000D+00  6 1 21 25 23 1 21 4 0.27674994D+00 0.65946838D-02 0.30573870D+05 0.30573870D+05 0.30573870D+05 0.12140357D+01  3  4 12  5  5  2       -1 0.783139813713D-02 0.100000000000D+01
-.135202479405D-02 0.000000000000D+00 -.275072519693D-06 0.237229949054D-04 0.000000000000D+00  6 1 21 25 23 1 21 4 0.27674994D+00 0.65791903D-02 0.30231970D+05 0.30231970D+05 0.30231970D+05 0.12145475D+01  3  4  5  5  5  2       -1 -.259514380375D+01 0.100000000000D+01
0.135362938501D-02 0.000000000000D+00 0.000000000000D+00 0.237229949054D-04 0.238699057198D-05  6 1 21 25 23 1 21 4 0.27676564D+00 0.65790516D-02 0.30573870D+05 0.30573870D+05 0.30573870D+05 0.12140357D+01  3  4 11  5  5  2       -1 0.259251477352D+01 0.100000000000D+01
  </mgrwgt>
  </event>
  <event>
  5     66 0.42989208E-03 0.27369248E+02 0.75467711E-02 0.12301763E+00
        1 -1    0    0  502    0 0.00000000E+00 0.00000000E+00 0.65140858E+02 0.65141644E+02 0.32000000E+00 0.0000E+00 0.9000E+01
       -1 -1    0    0    0  501 -.00000000E+00 -.00000000E+00 -.31190900E+03 0.31190916E+03 0.32000000E+00 0.0000E+00 0.9000E+01
       25  1    1    2    0    0 -.97864543E+01 -.26078460E+02 -.60886557E+02 0.14180280E+03 0.12500000E+03 0.0000E+00 0.9000E+01
       23  1    1    2    0    0 0.36516912E+02 0.20211680E+02 -.87381687E+02 0.13301431E+03 0.91188000E+02 0.0000E+00 0.9000E+01
       21  1    1    2  502  501 -.26730457E+02 0.58667797E+01 -.98499897E+02 0.10223370E+03 0.75000000E+00 0.0000E+00 0.9000E+01
#aMCatNLO 1  0  0  5  1 0.32674290D+01 0.00000000D+00  -5  6  0 0.00000000D+00 0.00000000D+00 0.00000000D+00 0.00000000D+00 0.00000000D+00
  <mgrwgt>
 0.1470116314D+00   14    2    0
 0.142541920185447D+03 0.000000000000000D+00 0.000000000000000D+00 0.142541920185447D+03
 0.142541920185447D+03 -.000000000000000D+00 -.000000000000000D+00 -.142541920185447D+03
 0.134845186900740D+03 -.978502891908894D+01 -.260787729721538D+02 0.422181861241675D+02
 0.100287102290995D+03 0.365179717180575D+02 0.202114477978883D+02 -.432043327652899D+00
 0.499515511791597D+02 -.267329427989686D+02 0.586732517426555D+01 -.417861427965147D+02
 0.000000000000000D+00 0.000000000000000D+00 0.000000000000000D+00 0.000000000000000D+00
 0.142541920185447D+03 0.000000000000000D+00 0.000000000000000D+00 0.142541920185447D+03
 0.142541920185447D+03 -.000000000000000D+00 -.000000000000000D+00 -.142541920185447D+03
 0.134359657627565D+03 -.108737222639197D+02 -.258398274165816D+02 0.405164544476059D+02
 0.100044517813188D+03 0.357078091002609D+02 0.203892616494494D+02 -.169840487603262D+01
 0.473158577374479D+02 -.236936996481048D+02 0.834529549309212D+01 -.400968207411608D+02
 0.336380719269367D+01 -.114038718823643D+01 -.289472972595992D+01 0.127877116958737D+01
0.263566171804D-03 0.000000000000D+00 0.000000000000D+00 0.264849359977D-04 0.000000000000D+00  6 1 -1 25 23 21 21 2 0.10021744D-01 0.47986073D-01 0.16348336D+05 0.16348336D+05 0.16348336D+05 0.12435833D+01  1  2  2  3  6  5       21 0.111354980100D+00 0.100000000000D+01
0.234869205307D-04 0.139087690080D-04 -.101216349829D-05 0.264849359977D-04 0.000000000000D+00  6 1 -1 25 23 21 21 4 0.10021744D-01 0.47986073D-01 0.16348336D+05 0.16348336D+05 0.16348336D+05 0.12435833D+01  1  2  3  3  6  5       21 0.153460221269D-01 0.100000000000D+01
0.535275070111D-05 0.000000000000D+00 0.000000000000D+00 0.264849359977D-04 0.000000000000D+00  6 1 -1 25 23 21 21 4 0.10021744D-01 0.47986073D-01 0.16348336D+05 0.16348336D+05 0.16348336D+05 0.12435833D+01  1  2 15  3  6  5       21 0.349741170162D-02 0.100000000000D+01
0.262593601817D-05 0.000000000000D+00 0.000000000000D+00 0.264744148774D-04 0.000000000000D+00  6 1 -1 25 23 21 21 4 0.10021744D-01 0.47986073D-01 0.16431003D+05 0.16431003D+05 0.16431003D+05 0.12433363D+01  1  2 12  3  6  5       21 0.171461525497D-02 0.100000000000D+01
-.829874036881D-03 0.000000000000D+00 0.000000000000D+00 0.264849359977D-04 0.000000000000D+00  6 1 -1 25 23 21 21 4 0.10021744D-01 0.47986073D-01 0.16348336D+05 0.16348336D+05 0.16348336D+05 0.12435833D+01  1  2  4  3  6  5       21 -.542227973901D+00 0.100000000000D+01
0.839634383034D-03 0.000000000000D+00 0.000000000000D+00 0.264849359977D-04 0.131403448980D-04  6 1 -1 25 23 21 21 4 0.10021744D-01 0.47986073D-01 0.16431003D+05 0.16431003D+05 0.16431003D+05 0.12433363D+01  1  2 11  3  6  5       21 0.548242573996D+00 0.100000000000D+01
0.827138635540D-07 0.000000000000D+00 0.000000000000D+00 0.264744148774D-04 0.000000000000D+00  6 1 -1 25 23 1 -1 4 0.10021744D-01 0.47986073D-01 0.16431003D+05 0.16431003D+05 0.16431003D+05 0.12433363D+01  1  2 12  6  6  5       21 0.540083426504D-04 0.100000000000D+01
0.324655604480D-05 0.000000000000D+00 0.000000000000D+00 0.264744148774D-04 0.643828303314D-07  6 1 -1 25 23 1 -1 4 0.10021744D-01 0.47986073D-01 0.16431003D+05 0.16431003D+05 0.16431003D+05 0.12433363D+01  1  2 11  6  6  5       21 0.211985154323D-02 0.100000000000D+01
0.827138635540D-07 0.000000000000D+00 0.000000000000D+00 0.264744148774D-04 0.000000000000D+00  6 1 -1 25 23 2 -2 4 0.10021744D-01 0.47986073D-01 0.16431003D+05 0.16431003D+05 0.16431003D+05 0.12433363D+01  1  2 12  7  6  5       21 0.540083426504D-04 0.100000000000D+01
0.827138635540D-07 0.000000000000D+00 0.000000000000D+00 0.264744148774D-04 0.000000000000D+00  6 1 -1 25 23 4 -4 4 0.10021744D-01 0.47986073D-01 0.16431003D+05 0.16431003D+05 0.16431003D+05 0.12433363D+01  1  2 12  7  6  5       21 0.540083426504D-04 0.100000000000D+01
0.344415710247D-05 0.000000000000D+00 0.000000000000D+00 0.264744148774D-04 0.579895860729D-07  6 1 -1 25 23 2 -2 4 0.10021744D-01 0.47986073D-01 0.16431003D+05 0.16431003D+05 0.16431003D+05 0.12433363D+01  1  2 11  7  6  5       21 0.224887593131D-02 0.100000000000D+01
0.344415710247D-05 0.000000000000D+00 0.000000000000D+00 0.264744148774D-04 0.579895860729D-07  6 1 -1 25 23 4 -4 4 0.10021744D-01 0.47986073D-01 0.16431003D+05 0.16431003D+05 0.16431003D+05 0.12433363D+01  1  2 11  7  6  5       21 0.224887593131D-02 0.100000000000D+01
0.827138635540D-07 0.000000000000D+00 0.000000000000D+00 0.264744148774D-04 0.000000000000D+00  6 1 -1 25 23 3 -3 4 0.10021744D-01 0.47986073D-01 0.16431003D+05 0.16431003D+05 0.16431003D+05 0.12433363D+01  1  2 12  8  6  5       21 0.540083426504D-04 0.100000000000D+01
0.344643811451D-05 0.000000000000D+00 0.000000000000D+00 0.264744148774D-04 0.580279916800D-07  6 1 -1 25 23 3 -3 4 0.10021744D-01 0.47986073D-01 0.16431003D+05 0.16431003D+05 0.16431003D+05 0.12433363D+01  1  2 11  8  6  5       21 0.225036532710D-02 0.100000000000D+01
  </mgrwgt>
  </event>
  <event>
  5     66 0.42989208E-03 0.27875831E+02 0.75467711E-02 0.12186282E+00
        1 -1    0    0  502    0 0.00000000E+00 0.00000000E+00 0.28171005E+04 0.28171005E+04 0.32000000E+00 0.0000E+00 0.9000E+01
       -1 -1    0    0    0  501 0.00000000E+00 0.00000000E+00 -.70486383E+01 0.70558983E+01 0.32000000E+00 0.0000E+00 0.9000E+01
       25  1    1    2    0    0 -.65286633E+02 -.12009788E+02 0.18141067E+04 0.18196194E+04 0.12500000E+03 0.0000E+00 0.9000E+01
       23  1    1    2    0    0 0.40978088E+02 0.25636803E+02 0.79084456E+03 0.79755051E+03 0.91188000E+02 0.0000E+00 0.9000E+01
       21  1    1    2  502  501 0.24308545E+02 -.13627015E+02 0.20510060E+03 0.20698652E+03 0.75000000E+00 0.0000E+00 0.9000E+01
#aMCatNLO 1  0  0  5  1 0.90846734D+00 0.00000000D+00  -5  6  0 0.00000000D+00 0.00000000D+00 0.00000000D+00 0.00000000D+00 0.00000000D+00
  <mgrwgt>
 0.4108978113D-01   25    2    0
 0.140950344496233D+03 0.000000000000000D+00 0.000000000000000D+00 0.140950344496233D+03
 0.140950344496233D+03 -.000000000000000D+00 -.000000000000000D+00 -.140950344496233D+03
 0.145996159937715D+03 -.652908005774129D+02 -.120074517808465D+02 0.358163535029750D+02
 0.106749919084151D+03 0.409750411211915D+02 0.256385109259359D+02 -.272764851674516D+02
 0.291546099706001D+02 0.243157594562213D+02 -.136310591450894D+02 -.853986833552338D+01
 0.000000000000000D+00 0.000000000000000D+00 0.000000000000000D+00 0.000000000000000D+00
 0.140950344496233D+03 0.000000000000000D+00 0.000000000000000D+00 0.140950344496233D+03
 0.140950344496233D+03 -.000000000000000D+00 -.000000000000000D+00 -.140950344496233D+03
 0.145905158389077D+03 -.651037446795900D+02 -.121123125815652D+02 0.357506581360807D+02
 0.106796417583234D+03 0.411118856615350D+02 0.255617978779037D+02 -.273245459470901D+02
 0.119599325966674D+01 0.301372511430849D+00 -.461041668475767D+00 -.106160965823178D+01
 0.280031197604885D+02 0.236904865066241D+02 -.129884436278627D+02 -.736450253075877D+01
0.114861162434D-02 0.000000000000D+00 0.000000000000D+00 0.206852305551D-04 0.000000000000D+00  6 1 -1 25 23 21 21 2 0.43340063D+00 0.10849658D-02 0.18579981D+05 0.18579981D+05 0.18579981D+05 0.12373629D+01  1  2  2  3  6  5       21 0.288191793651D+00 0.100000000000D+01
0.164588184521D-03 0.606139006894D-04 -.441097107386D-05 0.206852305551D-04 0.000000000000D+00  6 1 -1 25 23 21 21 4 0.43340063D+00 0.10849658D-02 0.18579981D+05 0.18579981D+05 0.18579981D+05 0.12373629D+01  1  2  3  3  6  5       21 0.632268053540D-01 0.100000000000D+01
0.423020044330D-04 0.000000000000D+00 0.000000000000D+00 0.206852305551D-04 0.000000000000D+00  6 1 -1 25 23 21 21 4 0.43340063D+00 0.10849658D-02 0.18579981D+05 0.18579981D+05 0.18579981D+05 0.12373629D+01  1  2 15  3  6  5       21 0.162503803548D-01 0.100000000000D+01
0.675692743869D-10 0.000000000000D+00 0.000000000000D+00 0.206893694427D-04 0.000000000000D+00  6 1 -1 25 23 21 21 4 0.43340063D+00 0.10849658D-02 0.18532370D+05 0.18532370D+05 0.18532370D+05 0.12374867D+01  1  2 12  3  6  5       21 0.259675851994D-07 0.100000000000D+01
0.656730246947D-10 0.000000000000D+00 0.000000000000D+00 0.206893694427D-04 0.000000000000D+00  6 1 -1 25 23 21 21 4 0.43340063D+00 0.10849658D-02 0.18532370D+05 0.18532370D+05 0.18532370D+05 0.12374867D+01  1  2 12  3  6  5       21 0.252388364317D-07 0.100000000000D+01
-.299641331473D-02 0.000000000000D+00 0.000000000000D+00 0.206852305551D-04 0.000000000000D+00  6 1 -1 25 23 21 21 4 0.43340063D+00 0.10849658D-02 0.18579981D+05 0.18579981D+05 0.18579981D+05 0.12373629D+01  1  2  4  3  6  5       21 -.115107680397D+01 0.100000000000D+01
-.253737222640D-04 0.000000000000D+00 0.000000000000D+00 0.206852305551D-04 0.000000000000D+00  6 1 -1 25 23 21 21 4 0.43340063D+00 0.10849658D-02 0.18579981D+05 0.18579981D+05 0.18579981D+05 0.12373629D+01  1  2  5  3  6  5       21 -.974735460723D-02 0.100000000000D+01
0.207694517587D-02 0.000000000000D+00 -.000000000000D+00 0.206852305551D-04 0.000000000000D+00  6 1 -1 25 23 21 21 4 0.43340063D+00 0.10849658D-02 0.18579981D+05 0.18579981D+05 0.18579981D+05 0.12373629D+01  1  2  6  3  6  5       21 0.797861697956D+00 0.100000000000D+01
0.636374266350D-04 0.000000000000D+00 0.000000000000D+00 0.206852305551D-04 0.625796409606D-03  6 1 -1 25 23 21 21 4 0.43340063D+00 0.10849658D-02 0.18532370D+05 0.18532370D+05 0.18532370D+05 0.12374867D+01  1  2 11  3  6  5       21 0.244565346159D-01 0.100000000000D+01
0.179430804829D-09 0.000000000000D+00 0.000000000000D+00 0.206893694427D-04 0.000000000000D+00  6 1 -1 25 23 1 -1 4 0.43340063D+00 0.10849658D-02 0.18532370D+05 0.18532370D+05 0.18532370D+05 0.12374867D+01  1  2 12  6  6  5       21 0.689571518128D-07 0.100000000000D+01
0.178751379526D-09 0.000000000000D+00 0.000000000000D+00 0.206893694427D-04 0.000000000000D+00  6 1 -1 25 23 1 -1 4 0.43340063D+00 0.10849658D-02 0.18532370D+05 0.18532370D+05 0.18532370D+05 0.12374867D+01  1  2 12  6  6  5       21 0.686960414989D-07 0.100000000000D+01
-.775185893238D-04 0.000000000000D+00 0.000000000000D+00 0.206852305551D-04 0.000000000000D+00  6 1 -1 25 23 1 -1 4 0.43340063D+00 0.10849658D-02 0.18579981D+05 0.18579981D+05 0.18579981D+05 0.12373629D+01  1  2  5  6  6  5       21 -.297788858462D-01 0.100000000000D+01
0.860117049957D-04 0.000000000000D+00 0.000000000000D+00 0.206852305551D-04 0.117171115320D-05  6 1 -1 25 23 1 -1 4 0.43340063D+00 0.10849658D-02 0.18532370D+05 0.18532370D+05 0.18532370D+05 0.12374867D+01  1  2 11  6  6  5       21 0.330552059036D-01 0.100000000000D+01
0.179430804829D-09 0.000000000000D+00 0.000000000000D+00 0.206893694427D-04 0.000000000000D+00  6 1 -1 25 23 2 -2 4 0.43340063D+00 0.10849658D-02 0.18532370D+05 0.18532370D+05 0.18532370D+05 0.12374867D+01  1  2 12  7  6  5       21 0.689571518128D-07 0.100000000000D+01
0.179430804829D-09 0.000000000000D+00 0.000000000000D+00 0.206893694427D-04 0.000000000000D+00  6 1 -1 25 23 4 -4 4 0.43340063D+00 0.10849658D-02 0.18532370D+05 0.18532370D+05 0.18532370D+05 0.12374867D+01  1  2 12  7  6  5       21 0.689571518128D-07 0.100000000000D+01
0.178751379526D-09 0.000000000000D+00 0.000000000000D+00 0.206893694427D-04 0.000000000000D+00  6 1 -1 25 23 2 -2 4 0.43340063D+00 0.10849658D-02 0.18532370D+05 0.18532370D+05 0.18532370D+05 0.12374867D+01  1  2 12  7  6  5       21 0.686960414989D-07 0.100000000000D+01
0.178751379526D-09 0.000000000000D+00 0.000000000000D+00 0.206893694427D-04 0.000000000000D+00  6 1 -1 25 23 4 -4 4 0.43340063D+00 0.10849658D-02 0.18532370D+05 0.18532370D+05 0.18532370D+05 0.12374867D+01  1  2 12  7  6  5       21 0.686960414989D-07 0.100000000000D+01
-.775185893238D-04 0.000000000000D+00 0.000000000000D+00 0.206852305551D-04 0.000000000000D+00  6 1 -1 25 23 2 -2 4 0.43340063D+00 0.10849658D-02 0.18579981D+05 0.18579981D+05 0.18579981D+05 0.12373629D+01  1  2  5  7  6  5       21 -.297788858462D-01 0.100000000000D+01
-.775185893238D-04 0.000000000000D+00 0.000000000000D+00 0.206852305551D-04 0.000000000000D+00  6 1 -1 25 23 4 -4 4 0.43340063D+00 0.10849658D-02 0.18579981D+05 0.18579981D+05 0.18579981D+05 0.12373629D+01  1  2  5  7  6  5       21 -.297788858462D-01 0.100000000000D+01
0.849845034164D-04 0.000000000000D+00 0.000000000000D+00 0.206852305551D-04 0.114840280854D-05  6 1 -1 25 23 2 -2 4 0.43340063D+00 0.10849658D-02 0.18532370D+05 0.18532370D+05 0.18532370D+05 0.12374867D+01  1  2 11  7  6  5       21 0.326604414968D-01 0.100000000000D+01
0.849845034164D-04 0.000000000000D+00 0.000000000000D+00 0.206852305551D-04 0.114840280854D-05  6 1 -1 25 23 4 -4 4 0.43340063D+00 0.10849658D-02 0.18532370D+05 0.18532370D+05 0.18532370D+05 0.12374867D+01  1  2 11  7  6  5       21 0.326604414968D-01 0.100000000000D+01
0.179430804829D-09 0.000000000000D+00 0.000000000000D+00 0.206893694427D-04 0.000000000000D+00  6 1 -1 25 23 3 -3 4 0.43340063D+00 0.10849658D-02 0.18532370D+05 0.18532370D+05 0.18532370D+05 0.12374867D+01  1  2 12  8  6  5       21 0.689571518128D-07 0.100000000000D+01
0.178751379526D-09 0.000000000000D+00 0.000000000000D+00 0.206893694427D-04 0.000000000000D+00  6 1 -1 25 23 3 -3 4 0.43340063D+00 0.10849658D-02 0.18532370D+05 0.18532370D+05 0.18532370D+05 0.12374867D+01  1  2 12  8  6  5       21 0.686960414989D-07 0.100000000000D+01
-.775185893238D-04 0.000000000000D+00 0.000000000000D+00 0.206852305551D-04 0.000000000000D+00  6 1 -1 25 23 3 -3 4 0.43340063D+00 0.10849658D-02 0.18579981D+05 0.18579981D+05 0.18579981D+05 0.12373629D+01  1  2  5  8  6  5       21 -.297788858462D-01 0.100000000000D+01
0.849978752860D-04 0.000000000000D+00 0.000000000000D+00 0.206852305551D-04 0.114858350375D-05  6 1 -1 25 23 3 -3 4 0.43340063D+00 0.10849658D-02 0.18532370D+05 0.18532370D+05 0.18532370D+05 0.12374867D+01  1  2 11  8  6  5       21 0.326655804473D-01 0.100000000000D+01
  </mgrwgt>
  </event>
  <event>
  6     66 0.42989208E-03 0.68320219E+02 0.75467711E-02 0.11818173E+00
        1 -1    0    0  502    0 0.00000000E+00 0.00000000E+00 0.29053606E+03 0.29053624E+03 0.32000000E+00 0.0000E+00 0.9000E+01
       -1 -1    0    0    0  503 0.00000000E+00 0.00000000E+00 -.11009218E+03 0.11009264E+03 0.32000000E+00 0.0000E+00 0.9000E+01
       25  1    1    2    0    0 0.67418051E+01 0.69175161E+02 0.11223597E+03 0.18180365E+03 0.12500000E+03 0.0000E+00 0.9000E+01
       23  1    1    2    0    0 -.66382370E+02 -.26821712E+02 0.83847800E+02 0.14307945E+03 0.91188000E+02 0.0000E+00 0.9000E+01
       21  1    1    2  502  501 0.33652525E+02 -.28409188E+02 -.47689410E+01 0.44304398E+02 0.75000000E+00 0.0000E+00 0.9000E+01
       21  1    1    2  501  503 0.25988040E+02 -.13944261E+02 -.10870943E+02 0.31441382E+02 0.75000000E+00 0.0000E+00 0.9000E+01
#aMCatNLO 2  0  0  2  2 0.29492721D+02 0.00000000D+00  -5  6  0 0.00000000D+00 0.00000000D+00 0.00000000D+00 0.00000000D+00 0.00000000D+00
  <mgrwgt>
 0.4875737260D-02    1    2    0
 0.157184782840753D+03 0.000000000000000D+00 0.000000000000000D+00 0.157184782840753D+03
 0.157184782840753D+03 0.000000000000000D+00 0.000000000000000D+00 -.157184782840753D+03
 0.142691911860428D+03 0.185878321720974D+02 0.628193825238077D+02 0.210760381678756D+02
 0.112704304492418D+03 -.569308172132066D+02 -.318927798068421D+02 0.113464335695550D+02
 0.589733493286606D+02 0.383429850411092D+02 -.309266027169656D+02 -.324224717374306D+02
 0.000000000000000D+00 0.000000000000000D+00 -.000000000000000D+00 -.000000000000000D+00
 0.163665836446339D+03 0.000000000000000D+00 0.000000000000000D+00 0.163665836446339D+03
 0.195426489796399D+03 0.000000000000000D+00 0.000000000000000D+00 -.195426489796399D+03
 0.144568306176588D+03 0.674035001936068D+01 0.691763214368207D+02 0.210760381678756D+02
 0.116490856689315D+03 -.663835204108498D+02 -.268207943828016D+02 0.113464335695550D+02
 0.546908085477001D+02 0.336551306244822D+02 -.284112662281310D+02 -.324224717374306D+02
 0.433423548291350D+02 0.259880397670069D+02 -.139442608258881D+02 -.317606533500606D+02
0.933433106157D-05 0.000000000000D+00 0.000000000000D+00 0.731731988829D-05 0.579687704348D-06  6 1 -1 25 23 21 21 4 0.44697042D-01 0.16936980D-01 0.27638625D+05 0.27638625D+05 0.27638625D+05 0.12186531D+01  1  2  1  2  6  2       -1 0.487573725972D-02 0.100000000000D+01
  </mgrwgt>
  </event>
  <event>
  5     66 0.42989208E-03 0.28387455E+02 0.75467711E-02 0.12235186E+00
        1 -1    0    0  502    0 0.00000000E+00 0.00000000E+00 0.13989113E+02 0.13992773E+02 0.32000000E+00 0.0000E+00 0.9000E+01
       -1 -1    0    0    0  501 -.00000000E+00 -.00000000E+00 -.13864356E+04 0.13864356E+04 0.32000000E+00 0.0000E+00 0.9000E+01
       25  1    1    2    0    0 -.55591422E+02 0.26618501E+02 -.50533042E+03 0.52419728E+03 0.12500000E+03 0.0000E+00 0.9000E+01
       23  1    1    2    0    0 0.27906123E+02 -.20377452E+02 -.65296235E+03 0.66020381E+03 0.91188000E+02 0.0000E+00 0.9000E+01
       21  1    1    2  502  501 0.27685299E+02 -.62410491E+01 -.21415370E+03 0.21602731E+03 0.75000000E+00 0.0000E+00 0.9000E+01
#aMCatNLO 1  0  0  5  5 0.20574081D+00 0.00000000D+00  -5  6  0 0.00000000D+00 0.00000000D+00 0.00000000D+00 0.00000000D+00 0.00000000D+00
  <mgrwgt>
 0.3630327789D+00    9    2    0
 0.139275240217693D+03 0.000000000000000D+00 0.000000000000000D+00 0.139275240217693D+03
 0.139275240217693D+03 -.000000000000000D+00 -.000000000000000D+00 -.139275240217693D+03
 0.145619750266837D+03 -.555956781295080D+02 0.266194604370016D+02 0.421975895892047D+02
 0.101999174731659D+03 0.279031420641680D+02 -.203767797875353D+02 -.299129037436479D+02
 0.309315554368900D+02 0.276925360653400D+02 -.624268064946637D+01 -.122846858455568D+02
 0.000000000000000D+00 -.000000000000000D+00 0.000000000000000D+00 0.000000000000000D+00
 0.139275240217693D+03 0.000000000000000D+00 0.000000000000000D+00 0.139275240217693D+03
 0.139275240217693D+03 -.000000000000000D+00 -.000000000000000D+00 -.139275240217693D+03
 0.145380613286565D+03 -.551609893752342D+02 0.265214693007459D+02 0.420047573121518D+02
 0.102136472050644D+03 0.282080745698156D+02 -.204455201964277D+02 -.300481748516151D+02
 0.305469321668156D+02 0.274377800408504D+02 -.605034287235149D+01 -.119865191928655D+02
 0.486462931360993D+00 -.484865235431734D+00 -.256062319667210D-01 0.299367323287928D-01
0.238048901769D-02 0.000000000000D+00 0.000000000000D+00 0.202473008999D-04 0.000000000000D+00  6 1 -1 25 23 21 21 2 0.21524556D-02 0.21329807D+00 0.17592511D+05 0.17592511D+05 0.17592511D+05 0.12400059D+01  1  2  2  3  6  5       21 0.268152327004D+00 0.100000000000D+01
0.296112967093D-03 0.125621856729D-03 -.914170462508D-05 0.202473008999D-04 0.000000000000D+00  6 1 -1 25 23 21 21 4 0.21524556D-02 0.21329807D+00 0.17592511D+05 0.17592511D+05 0.17592511D+05 0.12400059D+01  1  2  3  3  6  5       21 0.512885383668D-01 0.100000000000D+01
0.324032044031D-04 0.000000000000D+00 0.000000000000D+00 0.202473008999D-04 0.000000000000D+00  6 1 -1 25 23 21 21 4 0.21524556D-02 0.21329807D+00 0.17592511D+05 0.17592511D+05 0.17592511D+05 0.12400059D+01  1  2 15  3  6  5       21 0.561242896099D-02 0.100000000000D+01
-.148587572479D-01 0.000000000000D+00 0.000000000000D+00 0.202473008999D-04 0.000000000000D+00  6 1 -1 25 23 21 21 4 0.21524556D-02 0.21329807D+00 0.17592511D+05 0.17592511D+05 0.17592511D+05 0.12400059D+01  1  2  4  3  6  5       21 -.257362569654D+01 0.100000000000D+01
0.149378714787D-01 0.000000000000D+00 0.000000000000D+00 0.202473008999D-04 0.172721362216D-03  6 1 -1 25 23 21 21 4 0.21524556D-02 0.21329807D+00 0.17606516D+05 0.17606516D+05 0.17606516D+05 0.12399673D+01  1  2 11  3  6  5       21 0.258703398833D+01 0.100000000000D+01
0.323508287857D-04 0.000000000000D+00 0.000000000000D+00 0.202460391734D-04 0.603450869622D-06  6 1 -1 25 23 1 -1 4 0.21524556D-02 0.21329807D+00 0.17606516D+05 0.17606516D+05 0.17606516D+05 0.12399673D+01  1  2 11  6  6  5       21 0.560271881699D-02 0.100000000000D+01
0.365061618777D-04 0.000000000000D+00 0.000000000000D+00 0.202460391734D-04 0.545624803165D-06  6 1 -1 25 23 2 -2 4 0.21524556D-02 0.21329807D+00 0.17606516D+05 0.17606516D+05 0.17606516D+05 0.12399673D+01  1  2 11  7  6  5       21 0.632236538491D-02 0.100000000000D+01
0.365061618777D-04 0.000000000000D+00 0.000000000000D+00 0.202460391734D-04 0.545624803165D-06  6 1 -1 25 23 4 -4 4 0.21524556D-02 0.21329807D+00 0.17606516D+05 0.17606516D+05 0.17606516D+05 0.12399673D+01  1  2 11  7  6  5       21 0.632236538491D-02 0.100000000000D+01
0.365141172814D-04 0.000000000000D+00 0.000000000000D+00 0.202460391734D-04 0.545743705437D-06  6 1 -1 25 23 3 -3 4 0.21524556D-02 0.21329807D+00 0.17606516D+05 0.17606516D+05 0.17606516D+05 0.12399673D+01  1  2 11  8  6  5       21 0.632374315147D-02 0.100000000000D+01
  </mgrwgt>
  </event>
  <event>
  5     66 0.42989208E-03 0.30503540E+02 0.75467711E-02 0.12157159E+00
        1 -1    0    0  502    0 0.00000000E+00 0.00000000E+00 0.18760771E+03 0.18760798E+03 0.32000000E+00 0.0000E+00 0.9000E+01
       -1 -1    0    0    0  501 0.00000000E+00 0.00000000E+00 -.11299295E+03 0.11299341E+03 0.32000000E+00 0.0000E+00 0.9000E+01
       25  1    1    2    0    0 -.68515774E+02 -.68468510E+01 0.24483809E+02 0.14479554E+03 0.12500000E+03 0.0000E+00 0.9000E+01
       23  1    1    2    0    0 0.42682650E+02 0.23058357E+02 0.64821827E+02 0.12194514E+03 0.91188000E+02 0.0000E+00 0.9000E+01
       21  1    1    2  502  501 0.25833125E+02 -.16211506E+02 -.14690880E+02 0.33860711E+02 0.75000000E+00 0.0000E+00 0.9000E+01
#aMCatNLO 1  0  0  5  1 0.22403142D+01 0.00000000D+00  -5  6  0 0.00000000D+00 0.00000000D+00 0.00000000D+00 0.00000000D+00 0.00000000D+00
  <mgrwgt>
 0.1154918904D+00   25    2    0
 0.145596902772120D+03 0.000000000000000D+00 0.000000000000000D+00 0.145596902772120D+03
 0.145596902772120D+03 -.000000000000000D+00 -.000000000000000D+00 -.145596902772120D+03
 0.143200657481041D+03 -.685181584889781D+02 -.684535492093573D+01 -.118250317668913D+02
 0.109275113594856D+03 0.426808306810292D+02 0.230594990185553D+02 0.356707906354645D+02
 0.387180344683445D+02 0.258373278079489D+02 -.162141440976196D+02 -.238457588685732D+02
 0.000000000000000D+00 0.000000000000000D+00 0.000000000000000D+00 0.000000000000000D+00
 0.145596902772120D+03 0.000000000000000D+00 0.000000000000000D+00 0.145596902772120D+03
 0.145596902772120D+03 -.000000000000000D+00 -.000000000000000D+00 -.145596902772120D+03
 0.143164868827034D+03 -.684218379475651D+02 -.690580061213261D+01 -.119139278176632D+02
 0.109271999748551D+03 0.427543401448005D+02 0.230133683564765D+02 0.356029473600036D+02
 0.258686946929900D+02 0.155316118893578D+02 -.117289058646907D+02 -.170408674795244D+02
 0.128882422756654D+02 0.101358859134067D+02 -.437866187965321D+01 -.664815206281600D+01
0.326443370648D-04 0.000000000000D+00 0.000000000000D+00 0.179915158885D-04 0.000000000000D+00  6 1 -1 25 23 21 21 2 0.28862780D-01 0.17383587D-01 0.19113652D+05 0.19113652D+05 0.19113652D+05 0.12359992D+01  1  2  2  3  6  5       21 0.193585670584D-01 0.100000000000D+01
0.330270704053D-05 0.172268899512D-05 -.125362849780D-06 0.179915158885D-04 0.000000000000D+00  6 1 -1 25 23 21 21 4 0.28862780D-01 0.17383587D-01 0.19113652D+05 0.19113652D+05 0.19113652D+05 0.12359992D+01  1  2  3  3  6  5       21 0.299207045201D-02 0.100000000000D+01
0.102372685161D-05 0.000000000000D+00 0.000000000000D+00 0.179915158885D-04 0.000000000000D+00  6 1 -1 25 23 21 21 4 0.28862780D-01 0.17383587D-01 0.19113652D+05 0.19113652D+05 0.19113652D+05 0.12359992D+01  1  2 15  3  6  5       21 0.927440074475D-03 0.100000000000D+01
0.930811630786D-06 0.000000000000D+00 0.000000000000D+00 0.179917463286D-04 0.000000000000D+00  6 1 -1 25 23 21 21 4 0.28862780D-01 0.17383587D-01 0.19110505D+05 0.19110505D+05 0.19110505D+05 0.12360072D+01  1  2 12  3  6  5       21 0.843281951425D-03 0.100000000000D+01
0.925591663736D-06 0.000000000000D+00 0.000000000000D+00 0.179917463286D-04 0.000000000000D+00  6 1 -1 25 23 21 21 4 0.28862780D-01 0.17383587D-01 0.19110505D+05 0.19110505D+05 0.19110505D+05 0.12360072D+01  1  2 12  3  6  5       21 0.838552848506D-03 0.100000000000D+01
-.110912199467D-02 0.000000000000D+00 0.000000000000D+00 0.179915158885D-04 0.000000000000D+00  6 1 -1 25 23 21 21 4 0.28862780D-01 0.17383587D-01 0.19113652D+05 0.19113652D+05 0.19113652D+05 0.12359992D+01  1  2  4  3  6  5       21 -.100480336500D+01 0.100000000000D+01
-.736121747980D-03 0.000000000000D+00 0.000000000000D+00 0.179915158885D-04 0.000000000000D+00  6 1 -1 25 23 21 21 4 0.28862780D-01 0.17383587D-01 0.19113652D+05 0.19113652D+05 0.19113652D+05 0.12359992D+01  1  2  5  3  6  5       21 -.666885710475D+00 0.100000000000D+01
0.122976391346D-02 0.000000000000D+00 -.000000000000D+00 0.179915158885D-04 0.000000000000D+00  6 1 -1 25 23 21 21 4 0.28862780D-01 0.17383587D-01 0.19113652D+05 0.19113652D+05 0.19113652D+05 0.12359992D+01  1  2  6  3  6  5       21 0.111409829066D+01 0.100000000000D+01
0.719020227050D-03 0.000000000000D+00 0.000000000000D+00 0.179915158885D-04 0.192645310173D-04  6 1 -1 25 23 21 21 4 0.28862780D-01 0.17383587D-01 0.19110505D+05 0.19110505D+05 0.19110505D+05 0.12360072D+01  1  2 11  3  6  5       21 0.651406536109D+00 0.100000000000D+01
0.200894784169D-07 0.000000000000D+00 0.000000000000D+00 0.179917463286D-04 0.000000000000D+00  6 1 -1 25 23 1 -1 4 0.28862780D-01 0.17383587D-01 0.19110505D+05 0.19110505D+05 0.19110505D+05 0.12360072D+01  1  2 12  6  6  5       21 0.182003468825D-04 0.100000000000D+01
0.199929508894D-07 0.000000000000D+00 0.000000000000D+00 0.179917463286D-04 0.000000000000D+00  6 1 -1 25 23 1 -1 4 0.28862780D-01 0.17383587D-01 0.19110505D+05 0.19110505D+05 0.19110505D+05 0.12360072D+01  1  2 12  6  6  5       21 0.181128964048D-04 0.100000000000D+01
-.170002765237D-04 0.000000000000D+00 0.000000000000D+00 0.179915158885D-04 0.000000000000D+00  6 1 -1 25 23 1 -1 4 0.28862780D-01 0.17383587D-01 0.19113652D+05 0.19113652D+05 0.19113652D+05 0.12359992D+01  1  2  5  6  6  5       21 -.154013130557D-01 0.100000000000D+01
0.161010970051D-04 0.000000000000D+00 0.000000000000D+00 0.179915158885D-04 0.694668293286D-06  6 1 -1 25 23 1 -1 4 0.28862780D-01 0.17383587D-01 0.19110505D+05 0.19110505D+05 0.19110505D+05 0.12360072D+01  1  2 11  6  6  5       21 0.145870163774D-01 0.100000000000D+01
0.200894784169D-07 0.000000000000D+00 0.000000000000D+00 0.179917463286D-04 0.000000000000D+00  6 1 -1 25 23 2 -2 4 0.28862780D-01 0.17383587D-01 0.19110505D+05 0.19110505D+05 0.19110505D+05 0.12360072D+01  1  2 12  7  6  5       21 0.182003468825D-04 0.100000000000D+01
0.200894784169D-07 0.000000000000D+00 0.000000000000D+00 0.179917463286D-04 0.000000000000D+00  6 1 -1 25 23 4 -4 4 0.28862780D-01 0.17383587D-01 0.19110505D+05 0.19110505D+05 0.19110505D+05 0.12360072D+01  1  2 12  7  6  5       21 0.182003468825D-04 0.100000000000D+01
0.199929508894D-07 0.000000000000D+00 0.000000000000D+00 0.179917463286D-04 0.000000000000D+00  6 1 -1 25 23 2 -2 4 0.28862780D-01 0.17383587D-01 0.19110505D+05 0.19110505D+05 0.19110505D+05 0.12360072D+01  1  2 12  7  6  5       21 0.181128964048D-04 0.100000000000D+01
0.199929508894D-07 0.000000000000D+00 0.000000000000D+00 0.179917463286D-04 0.000000000000D+00  6 1 -1 25 23 4 -4 4 0.28862780D-01 0.17383587D-01 0.19110505D+05 0.19110505D+05 0.19110505D+05 0.12360072D+01  1  2 12  7  6  5       21 0.181128964048D-04 0.100000000000D+01
-.170002765237D-04 0.000000000000D+00 0.000000000000D+00 0.179915158885D-04 0.000000000000D+00  6 1 -1 25 23 2 -2 4 0.28862780D-01 0.17383587D-01 0.19113652D+05 0.19113652D+05 0.19113652D+05 0.12359992D+01  1  2  5  7  6  5       21 -.154013130557D-01 0.100000000000D+01
-.170002765237D-04 0.000000000000D+00 0.000000000000D+00 0.179915158885D-04 0.000000000000D+00  6 1 -1 25 23 4 -4 4 0.28862780D-01 0.17383587D-01 0.19113652D+05 0.19113652D+05 0.19113652D+05 0.12359992D+01  1  2  5  7  6  5       21 -.154013130557D-01 0.100000000000D+01
0.160381253632D-04 0.000000000000D+00 0.000000000000D+00 0.179915158885D-04 0.690936113812D-06  6 1 -1 25 23 2 -2 4 0.28862780D-01 0.17383587D-01 0.19110505D+05 0.19110505D+05 0.19110505D+05 0.12360072D+01  1  2 11  7  6  5       21 0.145299663285D-01 0.100000000000D+01
0.160381253632D-04 0.000000000000D+00 0.000000000000D+00 0.179915158885D-04 0.690936113812D-06  6 1 -1 25 23 4 -4 4 0.28862780D-01 0.17383587D-01 0.19110505D+05 0.19110505D+05 0.19110505D+05 0.12360072D+01  1  2 11  7  6  5       21 0.145299663285D-01 0.100000000000D+01
0.200894784169D-07 0.000000000000D+00 0.000000000000D+00 0.179917463286D-04 0.000000000000D+00  6 1 -1 25 23 3 -3 4 0.28862780D-01 0.17383587D-01 0.19110505D+05 0.19110505D+05 0.19110505D+05 0.12360072D+01  1  2 12  8  6  5       21 0.182003468825D-04 0.100000000000D+01
0.199929508894D-07 0.000000000000D+00 0.000000000000D+00 0.179917463286D-04 0.000000000000D+00  6 1 -1 25 23 3 -3 4 0.28862780D-01 0.17383587D-01 0.19110505D+05 0.19110505D+05 0.19110505D+05 0.12360072D+01  1  2 12  8  6  5       21 0.181128964048D-04 0.100000000000D+01
-.170002765237D-04 0.000000000000D+00 0.000000000000D+00 0.179915158885D-04 0.000000000000D+00  6 1 -1 25 23 3 -3 4 0.28862780D-01 0.17383587D-01 0.19113652D+05 0.19113652D+05 0.19113652D+05 0.12359992D+01  1  2  5  8  6  5       21 -.154013130557D-01 0.100000000000D+01
0.160373644431D-04 0.000000000000D+00 0.000000000000D+00 0.179915158885D-04 0.690903332727D-06  6 1 -1 25 23 3 -3 4 0.28862780D-01 0.17383587D-01 0.19110505D+05 0.19110505D+05 0.19110505D+05 0.12360072D+01  1  2 11  8  6  5       21 0.145292769622D-01 0.100000000000D+01
  </mgrwgt>
  </event>
  <event>
  5     66 0.42989208E-03 0.38337107E+02 0.75467711E-02 0.11750973E+00
        1 -1    0    0  502    0 0.00000000E+00 0.00000000E+00 0.92869779E+03 0.92869784E+03 0.32000000E+00 0.0000E+00 0.9000E+01
       -1 -1    0    0    0  501 0.00000000E+00 0.00000000E+00 -.33771493E+02 0.33773009E+02 0.32000000E+00 0.0000E+00 0.9000E+01
       25  1    1    2    0    0 -.26590736E+02 -.28439679E+02 0.24255058E+03 0.27562958E+03 0.12500000E+03 0.0000E+00 0.9000E+01
       23  1    1    2    0    0 -.31640195E+02 0.88353241E+02 0.37654336E+03 0.39863210E+03 0.91188000E+02 0.0000E+00 0.9000E+01
       21  1    1    2  502  501 0.58230930E+02 -.59913562E+02 0.27583236E+03 0.28820917E+03 0.75000000E+00 0.0000E+00 0.9000E+01
#aMCatNLO 1  0  0  5  1 0.22403142D+01 0.00000000D+00  -5  6  0 0.00000000D+00 0.00000000D+00 0.00000000D+00 0.00000000D+00 0.00000000D+00
  <mgrwgt>
 0.1195427196D-01    1    2    0
 0.177099597381256D+03 0.000000000000000D+00 0.000000000000000D+00 0.177099597381256D+03
 0.177099597381256D+03 -.000000000000000D+00 -.000000000000000D+00 -.177099597381256D+03
 0.136139697282533D+03 -.265915821156607D+02 -.284388079491317D+02 -.373247791580635D+02
 0.131828305146237D+03 -.316410147325708D+02 0.883540849633968D+02 0.159953915458006D+02
 0.862311923337427D+02 0.582325968482315D+02 -.599152770142650D+02 0.213293876122629D+02
 0.000000000000000D+00 0.000000000000000D+00 0.000000000000000D+00 -.000000000000000D+00
 0.177099597381256D+03 0.000000000000000D+00 0.000000000000000D+00 0.177099597381256D+03
 0.177099597381256D+03 -.000000000000000D+00 -.000000000000000D+00 -.177099597381256D+03
 0.135936798597425D+03 -.215702871986210D+02 -.336051974321365D+02 -.354855833914698D+02
 0.127715039732461D+03 -.268510247917789D+02 0.834256842096734D+02 0.177498651162008D+02
 0.137023079690897D+02 -.122813218965030D+02 -.607199238480512D+01 0.230834644548429D+00
 0.768450484635368D+02 0.607026338869028D+02 -.437484943927318D+02 0.175048836307206D+02
0.183927917698D-04 0.000000000000D+00 0.000000000000D+00 0.246076991780D-05 0.000000000000D+00  6 1 -1 25 23 21 21 4 0.14287670D+00 0.51957352D-02 0.29813050D+05 0.29813050D+05 0.29813050D+05 0.12151834D+01  1  2 14  3  6  5       21 0.119542719639D-01 0.100000000000D+01
  </mgrwgt>
  </event>
  <event>
  5     66 0.42989208E-03 0.10788285E+03 0.75467711E-02 0.11618105E+00
        1 -1    0    0  502    0 0.00000000E+00 0.00000000E+00 0.45365845E+03 0.45365856E+03 0.32000000E+00 0.0000E+00 0.9000E+01
       -1 -1    0    0    0  501 0.00000000E+00 0.00000000E+00 -.11268630E+03 0.11268675E+03 0.32000000E+00 0.0000E+00 0.9000E+01
       25  1    1    2    0    0 -.30633781E+02 -.57450123E+02 0.44062499E+02 0.14766668E+03 0.12500000E+03 0.0000E+00 0.9000E+01
       23  1    1    2    0    0 0.38602499E+02 -.50137340E+02 0.91596242E+01 0.11136901E+03 0.91188000E+02 0.0000E+00 0.9000E+01
       21  1    1    2  502  501 -.79687179E+01 0.10758746E+03 0.28775003E+03 0.30730962E+03 0.75000000E+00 0.0000E+00 0.9000E+01
#aMCatNLO 1  0  0  5  2 0.44193005D+02 0.00000000D+00  -5  6  0 0.00000000D+00 0.00000000D+00 0.00000000D+00 0.00000000D+00 0.00000000D+00
  <mgrwgt>
 0.1496332901D-01    3    2    0
 0.226100090674167D+03 0.000000000000000D+00 0.000000000000000D+00 0.226100090674167D+03
 0.226100090674167D+03 -.000000000000000D+00 -.000000000000000D+00 -.226100090674167D+03
 0.151716832844762D+03 -.306337543626414D+02 -.574504834682289D+02 -.561605948273472D+02
 0.132574666858764D+03 0.386025222353476D+02 -.501376548012532D+02 -.725041502040546D+02
 0.167908681644809D+03 -.796876787270624D+01 0.107588138269482D+03 0.128664745031402D+03
 0.000000000000000D+00 0.000000000000000D+00 -.000000000000000D+00 0.000000000000000D+00
 0.226100090674167D+03 0.000000000000000D+00 0.000000000000000D+00 0.226100090674167D+03
 0.226100090674167D+03 -.000000000000000D+00 -.000000000000000D+00 -.226100090674167D+03
 0.132465513267062D+03 -.331216264047587D+02 -.238611600571558D+02 -.159910947135145D+02
 0.107726269361974D+03 0.364988096399039D+02 -.217349550095993D+02 -.385373376383130D+02
 0.740984154995911D+02 0.452272619049943D+02 -.273967895059176D+02 -.519084375115987D+02
 0.137909983219708D+03 -.486044451401394D+02 0.729929045726727D+02 0.106436869863426D+03
0.806855052951D-04 0.000000000000D+00 0.000000000000D+00 0.279190746863D-05 0.000000000000D+00  6 1 -1 25 23 21 21 2 0.69793651D-01 0.17336397D-01 0.32366591D+05 0.32366591D+05 0.32366591D+05 0.12114526D+01  1  2  2  3  6  5       21 0.154198549808D-01 0.100000000000D+01
-.533860426733D-05 0.425789109337D-05 -.309853585315D-06 0.279190746863D-05 0.000000000000D+00  6 1 -1 25 23 21 21 4 0.69793651D-01 0.17336397D-01 0.32366591D+05 0.32366591D+05 0.32366591D+05 0.12114526D+01  1  2  3  3  6  5       21 -.149735706305D-02 0.100000000000D+01
0.371092871264D-05 0.000000000000D+00 0.000000000000D+00 0.279190746863D-05 0.000000000000D+00  6 1 -1 25 23 21 21 4 0.69793651D-01 0.17336397D-01 0.32366591D+05 0.32366591D+05 0.32366591D+05 0.12114526D+01  1  2 15  3  6  5       21 0.104083109369D-02 0.100000000000D+01
  </mgrwgt>
  </event>
  <event>
  5     66 0.42989208E-03 0.24761188E+02 0.75467711E-02 0.12316189E+00
        1 -1    0    0  502    0 0.00000000E+00 0.00000000E+00 0.42375510E+03 0.42375522E+03 0.32000000E+00 0.0000E+00 0.9000E+01
       -1 -1    0    0    0  501 0.00000000E+00 0.00000000E+00 -.51941382E+02 0.51942367E+02 0.32000000E+00 0.0000E+00 0.9000E+01
       25  1    1    2    0    0 -.10116133E+02 -.30852863E+02 0.70735177E+02 0.14725047E+03 0.12500000E+03 0.0000E+00 0.9000E+01
       23  1    1    2    0    0 -.12856379E+02 0.40084063E+02 0.19302716E+03 0.21759309E+03 0.91188000E+02 0.0000E+00 0.9000E+01
       21  1    1    2  502  501 0.22972513E+02 -.92311992E+01 0.10805138E+03 0.11085403E+03 0.75000000E+00 0.0000E+00 0.9000E+01
#aMCatNLO 1  0  0  5  2 0.46330988D+01 0.00000000D+00  -5  6  0 0.00000000D+00 0.00000000D+00 0.00000000D+00 0.00000000D+00 0.00000000D+00
  <mgrwgt>
 0.7661123132D-01   14    2    0
 0.148359995906051D+03 0.000000000000000D+00 0.000000000000000D+00 0.148359995906051D+03
 0.148359995906051D+03 -.000000000000000D+00 -.000000000000000D+00 -.148359995906051D+03
 0.147434482935166D+03 -.101179258754118D+02 -.308521429718889D+02 -.711175056394802D+02
 0.106963704899328D+03 -.128576800286316D+02 0.400845851756688D+02 0.367952295463206D+02
 0.423218039776087D+02 0.229756059040435D+02 -.923244220377994D+01 0.343222760931597D+02
 0.000000000000000D+00 0.000000000000000D+00 0.000000000000000D+00 0.000000000000000D+00
 0.148359995906051D+03 0.000000000000000D+00 0.000000000000000D+00 0.148359995906051D+03
 0.148359995906051D+03 -.000000000000000D+00 -.000000000000000D+00 -.148359995906051D+03
 0.145853769948389D+03 -.780055886245207D+01 -.317833461402167D+02 -.676556900616814D+02
 0.107420014269726D+03 -.111637637055826D+02 0.394039073900250D+02 0.393256987736051D+02
 0.541911409742142D+01 -.173501295794604D+01 -.388950400535753D+01 -.335086350496980D+01
 0.380270934965661D+02 0.206993355259808D+02 -.373105724445076D+01 0.316808547930462D+02
0.111204993514D-03 0.000000000000D+00 0.000000000000D+00 0.250997100614D-04 0.000000000000D+00  6 1 -1 25 23 21 21 2 0.65193177D-01 0.79910669D-02 0.16172851D+05 0.16172851D+05 0.16172851D+05 0.12441124D+01  1  2  2  3  6  5       21 0.801207919667D-01 0.100000000000D+01
0.115759554620D-04 0.586844873425D-05 -.427056456040D-06 0.250997100614D-04 0.000000000000D+00  6 1 -1 25 23 21 21 4 0.65193177D-01 0.79910669D-02 0.16172851D+05 0.16172851D+05 0.16172851D+05 0.12441124D+01  1  2  3  3  6  5       21 0.129091310783D-01 0.100000000000D+01
0.366775006426D-05 0.000000000000D+00 0.000000000000D+00 0.250997100614D-04 0.000000000000D+00  6 1 -1 25 23 21 21 4 0.65193177D-01 0.79910669D-02 0.16172851D+05 0.16172851D+05 0.16172851D+05 0.12441124D+01  1  2 15  3  6  5       21 0.409015622920D-02 0.100000000000D+01
0.163607171909D-05 0.000000000000D+00 0.000000000000D+00 0.250978016717D-04 0.000000000000D+00  6 1 -1 25 23 21 21 4 0.65193177D-01 0.79910669D-02 0.16188452D+05 0.16188452D+05 0.16188452D+05 0.12440651D+01  1  2 12  3  6  5       21 0.182426478438D-02 0.100000000000D+01
-.275742436471D-04 0.000000000000D+00 0.000000000000D+00 0.250997100614D-04 0.000000000000D+00  6 1 -1 25 23 21 21 4 0.65193177D-01 0.79910669D-02 0.16172851D+05 0.16172851D+05 0.16172851D+05 0.12441124D+01  1  2  4  3  6  5       21 -.307499045581D-01 0.100000000000D+01
0.330054924423D-05 0.000000000000D+00 0.000000000000D+00 0.250997100614D-04 0.733071270619D-05  6 1 -1 25 23 21 21 4 0.65193177D-01 0.79910669D-02 0.16188452D+05 0.16188452D+05 0.16188452D+05 0.12440651D+01  1  2 11  3  6  5       21 0.368020282064D-02 0.100000000000D+01
0.353927017298D-06 0.000000000000D+00 0.000000000000D+00 0.250978016717D-04 0.000000000000D+00  6 1 -1 25 23 1 -1 4 0.65193177D-01 0.79910669D-02 0.16188452D+05 0.16188452D+05 0.16188452D+05 0.12440651D+01  1  2 12  6  6  5       21 0.394638319558D-03 0.100000000000D+01
0.685813253818D-06 0.000000000000D+00 0.000000000000D+00 0.250978016717D-04 0.241001484402D-07  6 1 -1 25 23 1 -1 4 0.65193177D-01 0.79910669D-02 0.16188452D+05 0.16188452D+05 0.16188452D+05 0.12440651D+01  1  2 11  6  6  5       21 0.764700564776D-03 0.100000000000D+01
0.353927017298D-06 0.000000000000D+00 0.000000000000D+00 0.250978016717D-04 0.000000000000D+00  6 1 -1 25 23 2 -2 4 0.65193177D-01 0.79910669D-02 0.16188452D+05 0.16188452D+05 0.16188452D+05 0.12440651D+01  1  2 12  7  6  5       21 0.394638319558D-03 0.100000000000D+01
0.353927017298D-06 0.000000000000D+00 0.000000000000D+00 0.250978016717D-04 0.000000000000D+00  6 1 -1 25 23 4 -4 4 0.65193177D-01 0.79910669D-02 0.16188452D+05 0.16188452D+05 0.16188452D+05 0.12440651D+01  1  2 12  7  6  5       21 0.394638319558D-03 0.100000000000D+01
0.715196272313D-06 0.000000000000D+00 0.000000000000D+00 0.250978016717D-04 0.221308470433D-07  6 1 -1 25 23 2 -2 4 0.65193177D-01 0.79910669D-02 0.16188452D+05 0.16188452D+05 0.16188452D+05 0.12440651D+01  1  2 11  7  6  5       21 0.797463435300D-03 0.100000000000D+01
0.715196272313D-06 0.000000000000D+00 0.000000000000D+00 0.250978016717D-04 0.221308470433D-07  6 1 -1 25 23 4 -4 4 0.65193177D-01 0.79910669D-02 0.16188452D+05 0.16188452D+05 0.16188452D+05 0.12440651D+01  1  2 11  7  6  5       21 0.797463435300D-03 0.100000000000D+01
0.353927017298D-06 0.000000000000D+00 0.000000000000D+00 0.250978016717D-04 0.000000000000D+00  6 1 -1 25 23 3 -3 4 0.65193177D-01 0.79910669D-02 0.16188452D+05 0.16188452D+05 0.16188452D+05 0.12440651D+01  1  2 12  8  6  5       21 0.394638319558D-03 0.100000000000D+01
0.716043653754D-06 0.000000000000D+00 0.000000000000D+00 0.250978016717D-04 0.221570681938D-07  6 1 -1 25 23 3 -3 4 0.65193177D-01 0.79910669D-02 0.16188452D+05 0.16188452D+05 0.16188452D+05 0.12440651D+01  1  2 11  8  6  5       21 0.798408288818D-03 0.100000000000D+01
  </mgrwgt>
  </event>
  <event>
  5     66 0.42989208E-03 0.30387911E+02 0.75467711E-02 0.11897520E+00
        1 -1    0    0  502    0 0.00000000E+00 0.00000000E+00 0.10670662E+03 0.10670710E+03 0.32000000E+00 0.0000E+00 0.9000E+01
       -1 -1    0    0    0  501 -.00000000E+00 -.00000000E+00 -.26795436E+03 0.26795455E+03 0.32000000E+00 0.0000E+00 0.9000E+01
       25  1    1    2    0    0 -.72879939E+01 0.99700907E+02 -.35010469E+02 0.16384175E+03 0.12500000E+03 0.0000E+00 0.9000E+01
       23  1    1    2    0    0 0.18098799E+01 -.69812987E+02 -.43745636E+02 0.12290672E+03 0.91188000E+02 0.0000E+00 0.9000E+01
       21  1    1    2  502  501 0.54781140E+01 -.29887920E+02 -.82491632E+02 0.87913192E+02 0.75000000E+00 0.0000E+00 0.9000E+01
#aMCatNLO 1  0  0  5  1 0.22507811D+02 0.00000000D+00  -5  6  0 0.00000000D+00 0.00000000D+00 0.00000000D+00 0.00000000D+00 0.00000000D+00
  <mgrwgt>
 0.4209955255D-01    9    2    0
 0.169093557229529D+03 0.000000000000000D+00 0.000000000000000D+00 0.169093557229529D+03
 0.169093557229529D+03 -.000000000000000D+00 -.000000000000000D+00 -.169093557229529D+03
 0.164820816888445D+03 -.728821667765478D+01 0.997021223507589D+02 0.393353578372988D+02
 0.115304262807000D+03 0.180972407140798D+01 -.698121365699153D+02 0.101396333165697D+02
 0.580620347636139D+02 0.547849260624680D+01 -.298899857808436D+02 -.494749911538686D+02
 0.000000000000000D+00 0.000000000000000D+00 0.000000000000000D+00 0.000000000000000D+00
 0.169093557229529D+03 0.000000000000000D+00 0.000000000000000D+00 0.169093557229529D+03
 0.169093557229529D+03 -.000000000000000D+00 -.000000000000000D+00 -.169093557229529D+03
 0.159876705275190D+03 -.634796262894695D+01 0.945722112299130D+02 0.308441424454653D+02
 0.117209347559396D+03 0.248303337808171D+01 -.734856298187042D+02 0.405913373653622D+01
 0.329879299506023D+02 -.165281609974498D+02 -.285902885514341D+01 -.284050940937304D+02
 0.281131316738704D+02 0.203930902483150D+02 -.182275525560654D+02 -.649818208827119D+01
0.227440232756D-03 0.000000000000D+00 0.000000000000D+00 0.172651804471D-04 0.000000000000D+00  6 1 -1 25 23 21 21 2 0.16416455D-01 0.41223800D-01 0.23302586D+05 0.23302586D+05 0.23302586D+05 0.12265851D+01  1  2  2  3  6  5       21 0.648198253988D-01 0.100000000000D+01
0.238184927175D-04 0.120023508285D-04 -.873430380172D-06 0.172651804471D-04 0.000000000000D+00  6 1 -1 25 23 21 21 4 0.16416455D-01 0.41223800D-01 0.23302586D+05 0.23302586D+05 0.23302586D+05 0.12265851D+01  1  2  3  3  6  5       21 0.102129261563D-01 0.100000000000D+01
0.575856706662D-05 0.000000000000D+00 0.000000000000D+00 0.172651804471D-04 0.000000000000D+00  6 1 -1 25 23 21 21 4 0.16416455D-01 0.41223800D-01 0.23302586D+05 0.23302586D+05 0.23302586D+05 0.12265851D+01  1  2 15  3  6  5       21 0.246916632865D-02 0.100000000000D+01
0.706882755197D-04 0.000000000000D+00 0.000000000000D+00 0.171570292569D-04 0.000000000000D+00  6 1 -1 25 23 21 21 4 0.16416455D-01 0.41223800D-01 0.25302894D+05 0.25302894D+05 0.25302894D+05 0.12227373D+01  1  2 12  3  6  5       21 0.299772319083D-01 0.100000000000D+01
-.161317472285D-03 0.000000000000D+00 0.000000000000D+00 0.172651804471D-04 0.000000000000D+00  6 1 -1 25 23 21 21 4 0.16416455D-01 0.41223800D-01 0.23302586D+05 0.23302586D+05 0.23302586D+05 0.12265851D+01  1  2  4  3  6  5       21 -.691699282447D-01 0.100000000000D+01
0.223446216591D-05 0.000000000000D+00 0.000000000000D+00 0.171570292569D-04 0.000000000000D+00  6 1 -1 25 23 1 -1 4 0.16416455D-01 0.41223800D-01 0.25302894D+05 0.25302894D+05 0.25302894D+05 0.12227373D+01  1  2 12  6  6  5       21 0.947582750400D-03 0.100000000000D+01
0.223446216591D-05 0.000000000000D+00 0.000000000000D+00 0.171570292569D-04 0.000000000000D+00  6 1 -1 25 23 2 -2 4 0.16416455D-01 0.41223800D-01 0.25302894D+05 0.25302894D+05 0.25302894D+05 0.12227373D+01  1  2 12  7  6  5       21 0.947582750400D-03 0.100000000000D+01
0.223446216591D-05 0.000000000000D+00 0.000000000000D+00 0.171570292569D-04 0.000000000000D+00  6 1 -1 25 23 4 -4 4 0.16416455D-01 0.41223800D-01 0.25302894D+05 0.25302894D+05 0.25302894D+05 0.12227373D+01  1  2 12  7  6  5       21 0.947582750400D-03 0.100000000000D+01
0.223446216591D-05 0.000000000000D+00 0.000000000000D+00 0.171570292569D-04 0.000000000000D+00  6 1 -1 25 23 3 -3 4 0.16416455D-01 0.41223800D-01 0.25302894D+05 0.25302894D+05 0.25302894D+05 0.12227373D+01  1  2 12  8  6  5       21 0.947582750400D-03 0.100000000000D+01
  </mgrwgt>
  </event>
  <event>
  5     66 0.42989208E-03 0.31553361E+02 0.75467711E-02 0.12151781E+00
        1 -1    0    0  502    0 0.00000000E+00 0.00000000E+00 0.33970424E+03 0.33970439E+03 0.32000000E+00 0.0000E+00 0.9000E+01
       -1 -1    0    0    0  501 0.00000000E+00 0.00000000E+00 -.57589041E+02 0.57589930E+02 0.32000000E+00 0.0000E+00 0.9000E+01
       25  1    1    2    0    0 -.28241908E+02 -.61696467E+02 0.17072769E+03 0.22220937E+03 0.12500000E+03 0.0000E+00 0.9000E+01
       23  1    1    2    0    0 -.60290013E+00 0.48925531E+02 0.83465962E+02 0.13295070E+03 0.91188000E+02 0.0000E+00 0.9000E+01
       21  1    1    2  502  501 0.28844808E+02 0.12770936E+02 0.27921553E+02 0.42134254E+02 0.75000000E+00 0.0000E+00 0.9000E+01
#aMCatNLO 1  0  0  5  2 0.91684165D+01 0.00000000D+00  -5  6  0 0.00000000D+00 0.00000000D+00 0.00000000D+00 0.00000000D+00 0.00000000D+00
  <mgrwgt>
 0.1397321324D+00   20    2    0
 0.139869396373210D+03 0.000000000000000D+00 0.000000000000000D+00 0.139869396373210D+03
 0.139869396373210D+03 -.000000000000000D+00 -.000000000000000D+00 -.139869396373210D+03
 0.143412744079443D+03 -.282460535892436D+02 -.616983026252454D+02 0.183764815509672D+02
 0.104645335911351D+03 -.605924960925030D+00 0.489241916919080D+02 -.155387034927164D+02
 0.316807127556261D+02 0.288519785501686D+02 0.127741109333374D+02 -.283777805825076D+01
 0.000000000000000D+00 0.000000000000000D+00 0.000000000000000D+00 -.000000000000000D+00
 0.139869396373210D+03 0.000000000000000D+00 0.000000000000000D+00 0.139869396373210D+03
 0.139869396373210D+03 -.000000000000000D+00 -.000000000000000D+00 -.139869396373210D+03
 0.142319246129835D+03 -.254402481194075D+02 -.604560422282078D+02 0.181005124979549D+02
 0.105113248040452D+03 0.145384364169443D+01 0.498361469181714D+02 -.157412950111949D+02
 0.187644527144147D+02 0.181233707885236D+02 0.737748375770686D+00 0.480664584375034D+01
 0.135418458617184D+02 0.586303368918947D+01 0.988214693426572D+01 -.716586333051033D+01
0.151125120467D-03 0.000000000000D+00 0.000000000000D+00 0.170681754542D-04 0.000000000000D+00  6 1 -1 25 23 21 21 2 0.52262271D-01 0.88599324D-02 0.19219541D+05 0.19219541D+05 0.19219541D+05 0.12357337D+01  1  2  2  3  6  5       21 0.121861899998D+00 0.100000000000D+01
0.180985782181D-04 0.797509171033D-05 -.580360254752D-06 0.170681754542D-04 0.000000000000D+00  6 1 -1 25 23 21 21 4 0.52262271D-01 0.88599324D-02 0.19219541D+05 0.19219541D+05 0.19219541D+05 0.12357337D+01  1  2  3  3  6  5       21 0.222856627904D-01 0.100000000000D+01
0.466245907870D-05 0.000000000000D+00 0.000000000000D+00 0.170681754542D-04 0.000000000000D+00  6 1 -1 25 23 21 21 4 0.52262271D-01 0.88599324D-02 0.19219541D+05 0.19219541D+05 0.19219541D+05 0.12357337D+01  1  2 15  3  6  5       21 0.574111344824D-02 0.100000000000D+01
0.730740052513D-04 0.000000000000D+00 0.000000000000D+00 0.170927232713D-04 0.000000000000D+00  6 1 -1 25 23 21 21 4 0.52262271D-01 0.88599324D-02 0.18867812D+05 0.18867812D+05 0.18867812D+05 0.12366221D+01  1  2 12  3  6  5       21 0.901916010244D-01 0.100000000000D+01
0.724409478849D-04 0.000000000000D+00 0.000000000000D+00 0.170927232713D-04 0.000000000000D+00  6 1 -1 25 23 21 21 4 0.52262271D-01 0.88599324D-02 0.18867812D+05 0.18867812D+05 0.18867812D+05 0.12366221D+01  1  2 12  3  6  5       21 0.894102498830D-01 0.100000000000D+01
-.282702702132D-03 0.000000000000D+00 0.000000000000D+00 0.170681754542D-04 0.000000000000D+00  6 1 -1 25 23 21 21 4 0.52262271D-01 0.88599324D-02 0.19219541D+05 0.19219541D+05 0.19219541D+05 0.12357337D+01  1  2  4  3  6  5       21 -.348105636461D+00 0.100000000000D+01
-.115573809461D-03 0.000000000000D+00 0.000000000000D+00 0.170681754542D-04 0.000000000000D+00  6 1 -1 25 23 21 21 4 0.52262271D-01 0.88599324D-02 0.19219541D+05 0.19219541D+05 0.19219541D+05 0.12357337D+01  1  2  5  3  6  5       21 -.142311672996D+00 0.100000000000D+01
0.241929329967D-03 0.000000000000D+00 -.000000000000D+00 0.170681754542D-04 0.000000000000D+00  6 1 -1 25 23 21 21 4 0.52262271D-01 0.88599324D-02 0.19219541D+05 0.19219541D+05 0.19219541D+05 0.12357337D+01  1  2  6  3  6  5       21 0.297899393078D+00 0.100000000000D+01
0.199909731392D-05 0.000000000000D+00 0.000000000000D+00 0.170927232713D-04 0.000000000000D+00  6 1 -1 25 23 1 -1 4 0.52262271D-01 0.88599324D-02 0.18867812D+05 0.18867812D+05 0.18867812D+05 0.12366221D+01  1  2 12  6  6  5       21 0.246738613445D-02 0.100000000000D+01
0.198259157776D-05 0.000000000000D+00 0.000000000000D+00 0.170927232713D-04 0.000000000000D+00  6 1 -1 25 23 1 -1 4 0.52262271D-01 0.88599324D-02 0.18867812D+05 0.18867812D+05 0.18867812D+05 0.12366221D+01  1  2 12  6  6  5       21 0.244701392733D-02 0.100000000000D+01
-.343080661880D-05 0.000000000000D+00 0.000000000000D+00 0.170681754542D-04 0.000000000000D+00  6 1 -1 25 23 1 -1 4 0.52262271D-01 0.88599324D-02 0.19219541D+05 0.19219541D+05 0.19219541D+05 0.12357337D+01  1  2  5  6  6  5       21 -.422451965476D-02 0.100000000000D+01
0.199909731392D-05 0.000000000000D+00 0.000000000000D+00 0.170927232713D-04 0.000000000000D+00  6 1 -1 25 23 2 -2 4 0.52262271D-01 0.88599324D-02 0.18867812D+05 0.18867812D+05 0.18867812D+05 0.12366221D+01  1  2 12  7  6  5       21 0.246738613445D-02 0.100000000000D+01
0.199909731392D-05 0.000000000000D+00 0.000000000000D+00 0.170927232713D-04 0.000000000000D+00  6 1 -1 25 23 4 -4 4 0.52262271D-01 0.88599324D-02 0.18867812D+05 0.18867812D+05 0.18867812D+05 0.12366221D+01  1  2 12  7  6  5       21 0.246738613445D-02 0.100000000000D+01
0.198259157776D-05 0.000000000000D+00 0.000000000000D+00 0.170927232713D-04 0.000000000000D+00  6 1 -1 25 23 2 -2 4 0.52262271D-01 0.88599324D-02 0.18867812D+05 0.18867812D+05 0.18867812D+05 0.12366221D+01  1  2 12  7  6  5       21 0.244701392733D-02 0.100000000000D+01
0.198259157776D-05 0.000000000000D+00 0.000000000000D+00 0.170927232713D-04 0.000000000000D+00  6 1 -1 25 23 4 -4 4 0.52262271D-01 0.88599324D-02 0.18867812D+05 0.18867812D+05 0.18867812D+05 0.12366221D+01  1  2 12  7  6  5       21 0.244701392733D-02 0.100000000000D+01
-.343080661880D-05 0.000000000000D+00 0.000000000000D+00 0.170681754542D-04 0.000000000000D+00  6 1 -1 25 23 2 -2 4 0.52262271D-01 0.88599324D-02 0.19219541D+05 0.19219541D+05 0.19219541D+05 0.12357337D+01  1  2  5  7  6  5       21 -.422451965476D-02 0.100000000000D+01
-.343080661880D-05 0.000000000000D+00 0.000000000000D+00 0.170681754542D-04 0.000000000000D+00  6 1 -1 25 23 4 -4 4 0.52262271D-01 0.88599324D-02 0.19219541D+05 0.19219541D+05 0.19219541D+05 0.12357337D+01  1  2  5  7  6  5       21 -.422451965476D-02 0.100000000000D+01
0.199909731392D-05 0.000000000000D+00 0.000000000000D+00 0.170927232713D-04 0.000000000000D+00  6 1 -1 25 23 3 -3 4 0.52262271D-01 0.88599324D-02 0.18867812D+05 0.18867812D+05 0.18867812D+05 0.12366221D+01  1  2 12  8  6  5       21 0.246738613445D-02 0.100000000000D+01
0.198259157776D-05 0.000000000000D+00 0.000000000000D+00 0.170927232713D-04 0.000000000000D+00  6 1 -1 25 23 3 -3 4 0.52262271D-01 0.88599324D-02 0.18867812D+05 0.18867812D+05 0.18867812D+05 0.12366221D+01  1  2 12  8  6  5       21 0.244701392733D-02 0.100000000000D+01
-.343080661880D-05 0.000000000000D+00 0.000000000000D+00 0.170681754542D-04 0.000000000000D+00  6 1 -1 25 23 3 -3 4 0.52262271D-01 0.88599324D-02 0.19219541D+05 0.19219541D+05 0.19219541D+05 0.12357337D+01  1  2  5  8  6  5       21 -.422451965476D-02 0.100000000000D+01
  </mgrwgt>
  </event>
  <event>
  6     66 -.42989208E-03 0.73356057E+01 0.75467711E-02 0.12219727E+00
        3 -1    0    0  502    0 0.00000000E+00 0.00000000E+00 0.29199233E+03 0.29199276E+03 0.50000000E+00 0.0000E+00 0.9000E+01
       -3 -1    0    0    0  501 0.00000000E+00 0.00000000E+00 -.69481474E+02 0.69483273E+02 0.50000000E+00 0.0000E+00 0.9000E+01
       25  1    1    2    0    0 0.49339344E+02 -.42901409E+02 0.10897260E+03 0.17825524E+03 0.12500000E+03 0.0000E+00 0.9000E+01
       23  1    1    2    0    0 -.39137220E+02 0.30707086E+02 0.11041919E+03 0.15159913E+03 0.91188000E+02 0.0000E+00 0.9000E+01
       21  1    1    2  502  503 0.25797305E+01 0.11748128E+02 -.81587342E+01 0.14553383E+02 0.75000000E+00 0.0000E+00 0.9000E+01
       21  1    1    2  503  501 -.12781855E+02 0.44619533E+00 0.11277795E+02 0.17068277E+02 0.75000000E+00 0.0000E+00 0.9000E+01
#aMCatNLO 2  0  0  5  1 0.12366339D+02 0.00000000D+00  -5  6  0 0.00000000D+00 0.00000000D+00 0.00000000D+00 0.00000000D+00 0.00000000D+00
  <mgrwgt>
 -.2560094445D-01    2    2    0
 0.142437564358863D+03 0.000000000000000D+00 0.000000000000000D+00 0.142437564358863D+03
 0.142437564358863D+03 -.000000000000000D+00 -.000000000000000D+00 -.142437564358863D+03
 0.142786511359412D+03 0.516330431007160D+02 -.456430049432516D+02 0.370577739500928D+01
 0.105694638797471D+03 -.374256833995382D+02 0.286613325025298D+02 0.251783948611676D+02
 0.363939785608432D+02 -.142073597011778D+02 0.169816724407217D+02 -.288841722561768D+02
 0.000000000000000D+00 0.000000000000000D+00 0.000000000000000D+00 0.000000000000000D+00
 0.142437564358863D+03 0.000000000000000D+00 0.000000000000000D+00 0.142437564358863D+03
 0.142437564358863D+03 -.000000000000000D+00 -.000000000000000D+00 -.142437564358863D+03
 0.141040950518901D+03 0.492973857855871D+02 -.428512569834948D+02 -.104271420656461D+01
 0.106126078237073D+03 -.391687867763697D+02 0.307448167809784D+02 0.216345908570676D+02
 0.244036364414956D+02 0.314177503574569D+01 0.114771133989397D+02 -.213059284993951D+02
 0.133044635202566D+02 -.132703740449632D+02 0.629326803576652D+00 0.714051848892097D+00
-.143061839677D-03 0.000000000000D+00 0.000000000000D+00 0.357345031808D-04 0.000000000000D+00  6 3 -3 25 23 21 21 4 0.44922068D-01 0.10689629D-01 0.18241101D+05 0.18241101D+05 0.18241101D+05 0.12382518D+01  1  2 13  3  6  5       21 -.253746207158D-01 0.100000000000D+01
-.127400200461D-05 0.000000000000D+00 0.000000000000D+00 0.357883098987D-04 0.000000000000D+00  6 3 -3 25 23 21 21 4 0.44922068D-01 0.10689629D-01 0.17893253D+05 0.17893253D+05 0.17893253D+05 0.12391837D+01  1  2  8  3  6  5       21 -.226323738524D-03 0.100000000000D+01
  </mgrwgt>
  </event>
  <event>
  5     66 0.42989208E-03 0.72843545E+02 0.75467711E-02 0.11683447E+00
        1 -1    0    0  502    0 0.00000000E+00 0.00000000E+00 0.90384098E+03 0.90384104E+03 0.32000000E+00 0.0000E+00 0.9000E+01
       -1 -1    0    0    0  501 0.00000000E+00 0.00000000E+00 -.23176776E+03 0.23176798E+03 0.32000000E+00 0.0000E+00 0.9000E+01
       25  1    1    2    0    0 0.23392994E+02 0.77709588E+02 0.35556958E+03 0.38553954E+03 0.12500000E+03 0.0000E+00 0.9000E+01
       23  1    1    2    0    0 -.90075699E+02 -.48390835E+02 0.51799845E+03 0.53581055E+03 0.91188000E+02 0.0000E+00 0.9000E+01
       21  1    1    2  502  501 0.66682705E+02 -.29318754E+02 -.20149480E+03 0.21425893E+03 0.75000000E+00 0.0000E+00 0.9000E+01
#aMCatNLO 1  0  0  2  5 0.20773341D+01 0.00000000D+00  -5  6  0 0.00000000D+00 0.00000000D+00 0.00000000D+00 0.00000000D+00 0.00000000D+00
  <mgrwgt>
 0.6595596680D-02    1    2    0
 0.457691333571487D+03 0.000000000000000D+00 0.000000000000000D+00 0.457691333571487D+03
 0.457691333571487D+03 0.000000000000000D+00 0.000000000000000D+00 -.457691333571487D+03
 0.217235370878009D+03 0.233929678137089D+02 0.777095996183267D+02 0.158051237086371D+03
 0.284404098950156D+03 -.900757333122792D+02 -.483908196934572D+02 0.249229073330743D+03
 0.413743197314809D+03 0.666827654985703D+02 -.293187799248694D+02 -.407280310417114D+03
 0.000000000000000D+00 0.000000000000000D+00 0.000000000000000D+00 0.000000000000000D+00
 0.538208408006970D+03 0.000000000000000D+00 0.000000000000000D+00 0.538208408006970D+03
 0.464264581533177D+03 0.000000000000000D+00 0.000000000000000D+00 -.464264581533177D+03
 0.213668529463213D+03 0.184564726736692D+02 0.686178224289135D+02 0.158051237086371D+03
 0.288840397586935D+03 -.966429021612243D+02 -.604858859795722D+02 0.249229073330743D+03
 0.413929646238800D+03 0.572008300449581D+02 -.467821100858602D+02 -.407280310417114D+03
 0.860344162511993D+02 0.209855994425970D+02 0.386501736365189D+02 0.739438264737932D+02
0.206405291413D-03 0.000000000000D+00 0.000000000000D+00 0.130626977022D-04 0.000000000000D+00  6 1 -1 25 23 21 21 4 0.13905248D+00 0.35656600D-01 0.32199223D+05 0.32199223D+05 0.32199223D+05 0.12116870D+01  1  2 14  2  6  2       -1 0.659559667974D-02 0.100000000000D+01
  </mgrwgt>
  </event>
  <event>
  6     66 0.42989208E-03 0.35994589E+02 0.75467711E-02 0.12132748E+00
        1 -1    0    0  503    0 0.00000000E+00 0.00000000E+00 0.68550441E+02 0.68551188E+02 0.32000000E+00 0.0000E+00 0.9000E+01
       -1 -1    0    0    0  501 0.00000000E+00 0.00000000E+00 -.89379840E+03 0.89379845E+03 0.32000000E+00 0.0000E+00 0.9000E+01
       25  1    1    2    0    0 0.33123869E+02 0.48061839E+02 -.57225849E+03 0.58865262E+03 0.12500000E+03 0.0000E+00 0.9000E+01
       23  1    1    2    0    0 0.46152377E+01 -.45994777E+02 -.28361424E+03 0.30147820E+03 0.91188000E+02 0.0000E+00 0.9000E+01
       21  1    1    2  502  501 -.45053388E+00 -.24631251E+01 -.13895643E+02 0.14139355E+02 0.75000000E+00 0.0000E+00 0.9000E+01
       21  1    1    2  503  502 -.37288573E+02 0.39606358E+00 0.44520412E+02 0.58079464E+02 0.75000000E+00 0.0000E+00 0.9000E+01
#aMCatNLO 2  0  0  1  5 0.10078259D+03 0.00000000D+00  -5  6  0 0.00000000D+00 0.00000000D+00 0.00000000D+00 0.00000000D+00 0.00000000D+00
  <mgrwgt>
 0.1367993522D+00    1    2    0
 0.122287517305402D+03 0.000000000000000D+00 0.000000000000000D+00 0.122287517305402D+03
 0.122287517305402D+03 0.000000000000000D+00 0.000000000000000D+00 -.122287517305402D+03
 0.136384422997361D+03 0.122146740485972D+02 0.483315000305557D+02 -.221490107906910D+02
 0.105265745155685D+03 -.112976899778807D+02 -.457890343259758D+02 0.232669786573142D+02
 0.292486645775747D+01 -.916984070716511D+00 -.254246570457989D+01 -.111796786662316D+01
 0.000000000000000D+00 -.000000000000000D+00 0.000000000000000D+00 0.000000000000000D+00
 0.491554941986336D+03 0.000000000000000D+00 0.000000000000000D+00 0.491554941986336D+03
 0.124645862213281D+03 0.000000000000000D+00 0.000000000000000D+00 -.124645862213281D+03
 0.139744628004774D+03 0.331434293475522D+02 0.481092035713576D+02 -.221490107906910D+02
 0.104833972151886D+03 0.462647865251729D+01 -.459581741649985D+02 0.232669786573142D+02
 0.282298042651711D+01 -.481335302503733D+00 -.254709298304172D+01 -.111796786662316D+01
 0.368799223616439D+03 -.372885726975658D+02 0.396063576682655D+00 0.366909079773055D+03
0.206725623268D-02 0.000000000000D+00 0.000000000000D+00 0.227473811534D-02 0.158123326766D-04  6 1 -1 25 23 21 21 4 0.10546252D-01 0.13750709D+00 0.19611266D+05 0.19611266D+05 0.19611266D+05 0.12347656D+01  1  2  1  1  6  1        1 0.136799352169D+00 0.100000000000D+01
  </mgrwgt>
  </event>
  <event>
  5     66 0.42989208E-03 0.34870882E+02 0.75467711E-02 0.94059521E-01
        3 -1    0    0  502    0 0.00000000E+00 0.00000000E+00 0.34646823E+03 0.34646859E+03 0.50000000E+00 0.0000E+00 0.9000E+01
       -3 -1    0    0    0  501 0.00000000E+00 0.00000000E+00 -.21883617E+03 0.21883674E+03 0.50000000E+00 0.0000E+00 0.9000E+01
       25  1    1    2    0    0 -.68861343E+02 0.80187678E+02 -.64523798E+02 0.17595530E+03 0.12500000E+03 0.0000E+00 0.9000E+01
       23  1    1    2    0    0 0.34435832E+02 -.74636309E+02 0.27407529E+03 0.30031470E+03 0.91188000E+02 0.0000E+00 0.9000E+01
       21  1    1    2  502  501 0.34425511E+02 -.55513693E+01 -.81919432E+02 0.89035326E+02 0.75000000E+00 0.0000E+00 0.9000E+01
#aMCatNLO 1  0  0  2  5 0.64191533D+01 0.00000000D+00  -5  6  0 0.00000000D+00 0.00000000D+00 0.00000000D+00 0.00000000D+00 0.00000000D+00
  <mgrwgt>
 0.2264331708D-01    3    2    0
 0.275354397438061D+03 0.000000000000000D+00 0.000000000000000D+00 0.275354397438061D+03
 0.275354397438061D+03 0.000000000000000D+00 0.000000000000000D+00 -.275354397438061D+03
 0.195572658359640D+03 -.688616256802205D+02 0.801877234432121D+02 -.107012476915211D+03
 0.244755823166435D+03 0.344354791022153D+02 -.746362516989371D+02 0.211739909656193D+03
 0.110380313350048D+03 0.344261465780052D+02 -.555147174427502D+01 -.104727432740983D+03
 0.000000000000000D+00 -.000000000000000D+00 -.000000000000000D+00 0.000000000000000D+00
 0.407484299548126D+04 0.000000000000000D+00 0.000000000000000D+00 0.407484299548126D+04
 0.574798471356446D+03 0.000000000000000D+00 0.000000000000000D+00 -.574798471356446D+03
 0.292645247382391D+03 0.194206452019853D+03 0.144389835493475D+03 -.107012476915211D+03
 0.487504452316195D+03 0.429001718442744D+03 0.216581604960407D+02 0.211739909656193D+03
 0.259944933943423D+03 0.233969731078927D+03 0.431474037827104D+02 -.104727432740983D+03
 0.360954683319570D+04 -.857177901541525D+03 -.209195399772226D+03 0.350004452412482D+04
0.189383897578D-02 0.000000000000D+00 0.000000000000D+00 0.544621471845D-05 0.000000000000D+00  6 3 -3 25 23 21 21 2 0.53302876D-01 0.33667175D-01 0.25814094D+05 0.25814094D+05 0.25814094D+05 0.12218084D+01  1  2  2  2  6  2       -3 0.205683807806D-01 0.100000000000D+01
0.104159902360D-03 0.999406284659D-04 -.727284032627D-05 0.544621471845D-05 0.000000000000D+00  6 3 -3 25 23 21 21 4 0.53302876D-01 0.33667175D-01 0.25814094D+05 0.25814094D+05 0.25814094D+05 0.12218084D+01  1  2  3  2  6  2       -3 0.168874401545D-02 0.100000000000D+01
0.238199216240D-04 0.000000000000D+00 0.000000000000D+00 0.544621471845D-05 0.000000000000D+00  6 3 -3 25 23 21 21 4 0.53302876D-01 0.33667175D-01 0.25814094D+05 0.25814094D+05 0.25814094D+05 0.12218084D+01  1  2 15  2  6  2       -3 0.386192279173D-03 0.100000000000D+01
  </mgrwgt>
  </event>
  <event>
  6     66 0.42989208E-03 0.24375849E+02 0.75467711E-02 0.12233024E+00
        3 -1    0    0  503    0 0.00000000E+00 0.00000000E+00 0.63714783E+02 0.63714783E+02 0.00000000E+00 0.0000E+00 0.9000E+01
       -3 -1    0    0    0  501 0.00000000E+00 0.00000000E+00 -.34572370E+03 0.34572370E+03 0.00000000E+00 0.0000E+00 0.9000E+01
       25  1    1    2    0    0 0.64108367E+02 0.65959927E+00 -.17846365E+03 0.22712242E+03 0.12500000E+03 0.0000E+00 0.9000E+01
       23  1    1    2    0    0 -.41641863E+02 0.90433826E+01 -.11675636E+03 0.15415293E+03 0.91188000E+02 0.0000E+00 0.9000E+01
       21  1    1    2  502  501 -.78661391E-01 0.78979851E-01 -.24634382E+00 0.27038992E+00 0.00000000E+00 0.0000E+00 0.9000E+01
       21  1    1    2  503  502 -.22387842E+02 -.97819617E+01 0.13457441E+02 0.27892741E+02 0.00000000E+00 0.0000E+00 0.9000E+01
#aMCatNLO 2  0  0  1  5 0.82949446D+00 0.00000000D+00  -5  6  0 0.00000000D+00 0.00000000D+00 0.00000000D+00 0.00000000D+00 0.00000000D+00
  <mgrwgt>
 0.6596940591D-02    1    2    0
 0.120083181779877D+03 0.000000000000000D+00 0.000000000000000D+00 0.120083181779877D+03
 0.120083181779877D+03 0.000000000000000D+00 0.000000000000000D+00 -.120083181779877D+03
 0.135264096102418D+03 0.512864132747613D+02 -.494272073460439D+01 -.408032101119567D+01
 0.104771656774554D+03 -.511958294809185D+02 0.486895016093841D+01 0.413873016467778D+01
 0.130610682780741D+00 -.905837938427565D-01 0.737705736659810D-01 -.584091534821027D-01
 0.000000000000000D+00 -.000000000000000D+00 -.000000000000000D+00 0.000000000000000D+00
 0.178685308166200D+03 0.000000000000000D+00 0.000000000000000D+00 0.178685308166200D+03
 0.123276561320961D+03 0.000000000000000D+00 0.000000000000000D+00 -.123276561320961D+03
 0.140541690493043D+03 0.641083666606015D+02 0.659599270562605D+00 -.408032101119567D+01
 0.100738314190423D+03 -.416418628997051D+02 0.904338259693040D+01 0.413873016467778D+01
 0.125845383534527D+00 -.786613908779725D-01 0.789798514280600D-01 -.584091534821027D-01
 0.605560194201619D+02 -.223878423700184D+02 -.978196171892107D+01 0.554087468452391D+02
0.449773973607D-04 0.000000000000D+00 0.000000000000D+00 0.123737728888D+01 0.116233269513D-01  6 3 -3 25 23 21 21 4 0.98022743D-02 0.53188261D-01 0.17646301D+05 0.17646301D+05 0.17646301D+05 0.12398577D+01  1  2  1  1  6  1        3 0.659694059097D-02 0.100000000000D+01
  </mgrwgt>
  </event>
  <event>
  6     66 0.42989208E-03 0.41112142E+02 0.75467711E-02 0.11438186E+00
        3 -1    0    0  502    0 0.00000000E+00 0.00000000E+00 0.28152289E+03 0.28152334E+03 0.50000000E+00 0.0000E+00 0.9000E+01
       -3 -1    0    0    0  503 0.00000000E+00 0.00000000E+00 -.34710848E+03 0.34710884E+03 0.50000000E+00 0.0000E+00 0.9000E+01
       25  1    1    2    0    0 -.11562162E+02 0.15800629E+03 0.13572991E+03 0.24320213E+03 0.12500000E+03 0.0000E+00 0.9000E+01
       23  1    1    2    0    0 -.25285313E+02 -.13475741E+03 0.65472367E+01 0.16479389E+03 0.91188000E+02 0.0000E+00 0.9000E+01
       21  1    1    2  502  501 0.27296368E+01 0.35297644E+01 0.29535077E+01 0.54033195E+01 0.75000000E+00 0.0000E+00 0.9000E+01
       21  1    1    2  501  503 0.34117839E+02 -.26778637E+02 -.21081624E+03 0.21523283E+03 0.75000000E+00 0.0000E+00 0.9000E+01
#aMCatNLO 2  0  0  2  5 0.38770041D+01 0.00000000D+00  -5  6  0 0.00000000D+00 0.00000000D+00 0.00000000D+00 0.00000000D+00 0.00000000D+00
  <mgrwgt>
 0.1154752010D-01    1    2    0
 0.192305714011959D+03 0.000000000000000D+00 0.000000000000000D+00 0.192305714011959D+03
 0.192305714011959D+03 0.000000000000000D+00 0.000000000000000D+00 -.192305714011959D+03
 0.198108314511085D+03 0.640970717283051D+01 0.143862292317556D+03 0.537071762571812D+02
 0.181814967226481D+03 -.959332099611870D+01 -.147108824511504D+03 -.548488186443000D+02
 0.468814628635249D+01 0.318361382328819D+01 0.324653219394823D+01 0.114164238711885D+01
 0.000000000000000D+00 0.000000000000000D+00 -.000000000000000D+00 -.000000000000000D+00
 0.195054168987974D+03 0.000000000000000D+00 0.000000000000000D+00 0.195054168987974D+03
 0.500982795775768D+03 0.000000000000000D+00 0.000000000000000D+00 -.500982795775768D+03
 0.208811821132320D+03 -.115816680923800D+02 0.157983482767263D+03 0.537071762571812D+02
 0.173575874063037D+03 -.253064043050798D+02 -.134775835026981D+03 -.548488186443000D+02
 0.466149146583038D+01 0.277023334230675D+01 0.357098901918149D+01 0.114164238711885D+01
 0.308987778102555D+03 0.341178390551530D+02 -.267786367594633D+02 -.305928626787794D+03
0.122719122735D-02 0.000000000000D+00 0.000000000000D+00 0.536557938074D-03 0.155939912039D-05  6 3 -3 25 23 21 21 4 0.43311176D-01 0.53401243D-01 0.42923622D+05 0.42923622D+05 0.42923622D+05 0.11989015D+01  1  2  1  2  6  2       -3 0.115475200950D-01 0.100000000000D+01
  </mgrwgt>
  </event>
  <event>
  5     66 0.42989208E-03 0.50457690E+02 0.75467711E-02 0.10980919E+00
        1 -1    0    0  502    0 0.00000000E+00 0.00000000E+00 0.77526586E+03 0.77526593E+03 0.32000000E+00 0.0000E+00 0.9000E+01
       -1 -1    0    0    0  501 0.00000000E+00 0.00000000E+00 -.83856984E+02 0.83857595E+02 0.32000000E+00 0.0000E+00 0.9000E+01
       25  1    1    2    0    0 -.14153553E+01 -.18463907E+03 0.40116126E+03 0.45896508E+03 0.12500000E+03 0.0000E+00 0.9000E+01
       23  1    1    2    0    0 0.48680014E+02 0.16698345E+03 0.13869540E+03 0.24042646E+03 0.91188000E+02 0.0000E+00 0.9000E+01
       21  1    1    2  502  501 -.47264658E+02 0.17655619E+02 0.15155222E+03 0.15973198E+03 0.75000000E+00 0.0000E+00 0.9000E+01
#aMCatNLO 1  0  0  2  5 0.77733665D+02 0.00000000D+00  -5  6  0 0.00000000D+00 0.00000000D+00 0.00000000D+00 0.00000000D+00 0.00000000D+00
  <mgrwgt>
 0.2144101043D+00    4    2    0
 0.254974014039994D+03 0.000000000000000D+00 0.000000000000000D+00 0.254974014039994D+03
 0.254974014039994D+03 0.000000000000000D+00 0.000000000000000D+00 -.254974014039994D+03
 0.229320073233163D+03 -.141387841065810D+01 -.184639623144510D+03 0.535621741582264D+02
 0.217004465791102D+03 0.486814110952292D+02 0.166982930339119D+03 -.923174307399191D+02
 0.636234890557236D+02 -.472675326845711D+02 0.176566928053909D+02 0.387552565816927D+02
 0.000000000000000D+00 -.000000000000000D+00 0.000000000000000D+00 0.000000000000000D+00
 0.447765807938555D+03 0.000000000000000D+00 0.000000000000000D+00 0.447765807938555D+03
 0.265876442569371D+03 0.000000000000000D+00 0.000000000000000D+00 -.265876442569371D+03
 0.246848727591303D+03 0.290684520521618D+02 -.203949535199716D+03 0.535621741582264D+02
 0.212158507501074D+03 0.761546255344107D+02 0.149579229682390D+03 -.923174307399191D+02
 0.568314160625014D+02 -.395565146226487D+02 0.127719258479091D+02 0.387552565816927D+02
 0.197803599353047D+03 -.656665629639238D+02 0.415983796694172D+02 0.181889365369184D+03
0.135674151500D-02 0.000000000000D+00 0.000000000000D+00 0.384430190617D-05 0.000000000000D+00  6 1 -1 25 23 21 21 2 0.11927172D+00 0.12901127D-01 0.55183474D+05 0.55183474D+05 0.55183474D+05 0.11880623D+01  1  2  2  2  6  2       -1 0.189686130671D+00 0.100000000000D+01
0.143811635816D-03 0.715972167691D-04 -.521024465585D-05 0.384430190617D-05 0.000000000000D+00  6 1 -1 25 23 21 21 4 0.11927172D+00 0.12901127D-01 0.55183474D+05 0.55183474D+05 0.55183474D+05 0.11880623D+01  1  2  3  2  6  2       -1 0.283799046350D-01 0.100000000000D+01
0.105959345323D-04 0.000000000000D+00 0.000000000000D+00 0.384430190617D-05 0.000000000000D+00  6 1 -1 25 23 21 21 4 0.11927172D+00 0.12901127D-01 0.55183474D+05 0.55183474D+05 0.55183474D+05 0.11880623D+01  1  2 15  2  6  2       -1 0.209101029857D-02 0.100000000000D+01
-.291219100389D-04 0.000000000000D+00 0.000000000000D+00 0.384430190617D-05 0.000000000000D+00  6 1 -1 25 23 21 21 4 0.11927172D+00 0.12901127D-01 0.55183474D+05 0.55183474D+05 0.55183474D+05 0.11880623D+01  1  2  4  2  6  2       -1 -.574694130279D-02 0.100000000000D+01
  </mgrwgt>
  </event>
  <event>
  5     66 -.42989208E-03 0.20040222E+02 0.75467711E-02 0.12173764E+00
        1 -1    0    0  502    0 0.00000000E+00 0.00000000E+00 0.15428153E+03 0.15428186E+03 0.32000000E+00 0.0000E+00 0.9000E+01
       -1 -1    0    0    0  501 -.00000000E+00 -.00000000E+00 -.29609324E+03 0.29609341E+03 0.32000000E+00 0.0000E+00 0.9000E+01
       25  1    1    2    0    0 -.61888271E+02 -.86898159E+01 -.24006574E+03 0.27778090E+03 0.12500000E+03 0.0000E+00 0.9000E+01
       23  1    1    2    0    0 0.68090065E+02 -.10353115E+02 0.10081647E+03 0.15238982E+03 0.91188000E+02 0.0000E+00 0.9000E+01
       21  1    1    2  502  501 -.62017946E+01 0.19042931E+02 -.25624477E+01 0.20204557E+02 0.75000000E+00 0.0000E+00 0.9000E+01
#aMCatNLO 1  0  0  5  2 0.32741572D+01 0.00000000D+00  -5  6  0 0.00000000D+00 0.00000000D+00 0.00000000D+00 0.00000000D+00 0.00000000D+00
  <mgrwgt>
 -.4475601145D+00   20    2    0
 0.213733085311000D+03 0.000000000000000D+00 0.000000000000000D+00 0.213733085311000D+03
 0.213733085311000D+03 -.000000000000000D+00 -.000000000000000D+00 -.213733085311000D+03
 0.213026923805427D+03 -.618861872610129D+02 -.869621258186031D+01 -.160779183910820D+03
 0.194002620159287D+03 0.680919623402045D+02 -.103589407279068D+02 0.156773538252872D+03
 0.204366266572857D+02 -.620577507919152D+01 0.190551533097671D+02 0.400564565794790D+01
 0.000000000000000D+00 0.000000000000000D+00 0.000000000000000D+00 0.000000000000000D+00
 0.213733085311000D+03 0.000000000000000D+00 0.000000000000000D+00 0.213733085311000D+03
 0.213733085311000D+03 -.000000000000000D+00 -.000000000000000D+00 -.213733085311000D+03
 0.212974615453466D+03 -.620507576397070D+02 -.819089072339057D+01 -.160672958561942D+03
 0.194004247219634D+03 0.679420698369719D+02 -.989868804510184D+01 0.156870289463973D+03
 0.112307544680380D+02 -.422346405364304D+01 0.103576531433918D+02 -.100559369037680D+01
 0.925655348086226D+01 -.166784814362178D+01 0.773192562510059D+01 0.480826278834606D+01
0.295485692294D-03 0.000000000000D+00 0.000000000000D+00 0.134156024221D-04 0.000000000000D+00  6 1 -1 25 23 21 21 2 0.23735659D-01 0.45552845D-01 0.18778342D+05 0.18778342D+05 0.18778342D+05 0.12368510D+01  1  2  2  3  6  5       21 0.446651960228D-01 0.100000000000D+01
0.719111880519D-04 0.155932083816D-04 -.113474286158D-05 0.134156024221D-04 0.000000000000D+00  6 1 -1 25 23 21 21 4 0.23735659D-01 0.45552845D-01 0.18778342D+05 0.18778342D+05 0.18778342D+05 0.12368510D+01  1  2  3  3  6  5       21 0.166289184289D-01 0.100000000000D+01
0.646888915952D-05 0.000000000000D+00 0.000000000000D+00 0.134156024221D-04 0.000000000000D+00  6 1 -1 25 23 21 21 4 0.23735659D-01 0.45552845D-01 0.18778342D+05 0.18778342D+05 0.18778342D+05 0.12368510D+01  1  2 15  3  6  5       21 0.149588169899D-02 0.100000000000D+01
0.372048170933D-05 0.000000000000D+00 0.000000000000D+00 0.134234960105D-04 0.000000000000D+00  6 1 -1 25 23 21 21 4 0.23735659D-01 0.45552845D-01 0.18637126D+05 0.18637126D+05 0.18637126D+05 0.12372148D+01  1  2 12  3  6  5       21 0.861283131415D-03 0.100000000000D+01
0.372835206323D-05 0.000000000000D+00 0.000000000000D+00 0.134234960105D-04 0.000000000000D+00  6 1 -1 25 23 21 21 4 0.23735659D-01 0.45552845D-01 0.18637126D+05 0.18637126D+05 0.18637126D+05 0.12372148D+01  1  2 12  3  6  5       21 0.863105100605D-03 0.100000000000D+01
-.339043961909D-02 0.000000000000D+00 0.000000000000D+00 0.134156024221D-04 0.000000000000D+00  6 1 -1 25 23 21 21 4 0.23735659D-01 0.45552845D-01 0.18778342D+05 0.18778342D+05 0.18778342D+05 0.12368510D+01  1  2  4  3  6  5       21 -.784013522670D+00 0.100000000000D+01
-.744213314028D-03 0.000000000000D+00 0.000000000000D+00 0.134156024221D-04 0.000000000000D+00  6 1 -1 25 23 21 21 4 0.23735659D-01 0.45552845D-01 0.18778342D+05 0.18778342D+05 0.18778342D+05 0.12368510D+01  1  2  5  3  6  5       21 -.172093700965D+00 0.100000000000D+01
0.192802872967D-02 0.000000000000D+00 -.000000000000D+00 0.134156024221D-04 0.000000000000D+00  6 1 -1 25 23 21 21 4 0.23735659D-01 0.45552845D-01 0.18778342D+05 0.18778342D+05 0.18778342D+05 0.12368510D+01  1  2  6  3  6  5       21 0.445842063563D+00 0.100000000000D+01
0.310793304838D-06 0.000000000000D+00 0.000000000000D+00 0.134234960105D-04 0.000000000000D+00  6 1 -1 25 23 1 -1 4 0.23735659D-01 0.45552845D-01 0.18637126D+05 0.18637126D+05 0.18637126D+05 0.12372148D+01  1  2 12  6  6  5       21 0.719479496814D-04 0.100000000000D+01
0.311441828999D-06 0.000000000000D+00 0.000000000000D+00 0.134234960105D-04 0.000000000000D+00  6 1 -1 25 23 1 -1 4 0.23735659D-01 0.45552845D-01 0.18637126D+05 0.18637126D+05 0.18637126D+05 0.12372148D+01  1  2 12  6  6  5       21 0.720980815633D-04 0.100000000000D+01
-.257902809940D-05 0.000000000000D+00 0.000000000000D+00 0.134156024221D-04 0.000000000000D+00  6 1 -1 25 23 1 -1 4 0.23735659D-01 0.45552845D-01 0.18778342D+05 0.18778342D+05 0.18778342D+05 0.12368510D+01  1  2  5  6  6  5       21 -.596380744813D-03 0.100000000000D+01
0.310793304838D-06 0.000000000000D+00 0.000000000000D+00 0.134234960105D-04 0.000000000000D+00  6 1 -1 25 23 2 -2 4 0.23735659D-01 0.45552845D-01 0.18637126D+05 0.18637126D+05 0.18637126D+05 0.12372148D+01  1  2 12  7  6  5       21 0.719479496814D-04 0.100000000000D+01
0.310793304838D-06 0.000000000000D+00 0.000000000000D+00 0.134234960105D-04 0.000000000000D+00  6 1 -1 25 23 4 -4 4 0.23735659D-01 0.45552845D-01 0.18637126D+05 0.18637126D+05 0.18637126D+05 0.12372148D+01  1  2 12  7  6  5       21 0.719479496814D-04 0.100000000000D+01
0.311441828999D-06 0.000000000000D+00 0.000000000000D+00 0.134234960105D-04 0.000000000000D+00  6 1 -1 25 23 2 -2 4 0.23735659D-01 0.45552845D-01 0.18637126D+05 0.18637126D+05 0.18637126D+05 0.12372148D+01  1  2 12  7  6  5       21 0.720980815633D-04 0.100000000000D+01
0.311441828999D-06 0.000000000000D+00 0.000000000000D+00 0.134234960105D-04 0.000000000000D+00  6 1 -1 25 23 4 -4 4 0.23735659D-01 0.45552845D-01 0.18637126D+05 0.18637126D+05 0.18637126D+05 0.12372148D+01  1  2 12  7  6  5       21 0.720980815633D-04 0.100000000000D+01
-.257902809940D-05 0.000000000000D+00 0.000000000000D+00 0.134156024221D-04 0.000000000000D+00  6 1 -1 25 23 2 -2 4 0.23735659D-01 0.45552845D-01 0.18778342D+05 0.18778342D+05 0.18778342D+05 0.12368510D+01  1  2  5  7  6  5       21 -.596380744813D-03 0.100000000000D+01
-.257902809940D-05 0.000000000000D+00 0.000000000000D+00 0.134156024221D-04 0.000000000000D+00  6 1 -1 25 23 4 -4 4 0.23735659D-01 0.45552845D-01 0.18778342D+05 0.18778342D+05 0.18778342D+05 0.12368510D+01  1  2  5  7  6  5       21 -.596380744813D-03 0.100000000000D+01
0.310793304838D-06 0.000000000000D+00 0.000000000000D+00 0.134234960105D-04 0.000000000000D+00  6 1 -1 25 23 3 -3 4 0.23735659D-01 0.45552845D-01 0.18637126D+05 0.18637126D+05 0.18637126D+05 0.12372148D+01  1  2 12  8  6  5       21 0.719479496814D-04 0.100000000000D+01
0.311441828999D-06 0.000000000000D+00 0.000000000000D+00 0.134234960105D-04 0.000000000000D+00  6 1 -1 25 23 3 -3 4 0.23735659D-01 0.45552845D-01 0.18637126D+05 0.18637126D+05 0.18637126D+05 0.12372148D+01  1  2 12  8  6  5       21 0.720980815633D-04 0.100000000000D+01
-.257902809940D-05 0.000000000000D+00 0.000000000000D+00 0.134156024221D-04 0.000000000000D+00  6 1 -1 25 23 3 -3 4 0.23735659D-01 0.45552845D-01 0.18778342D+05 0.18778342D+05 0.18778342D+05 0.12368510D+01  1  2  5  8  6  5       21 -.596380744813D-03 0.100000000000D+01
  </mgrwgt>
  </event>
  <event>
  6     66 0.42989208E-03 0.18311928E+02 0.75467711E-02 0.11649310E+00
       21 -1    0    0  502  503 0.00000000E+00 0.00000000E+00 0.94805713E+02 0.94808679E+02 0.75000000E+00 0.0000E+00 0.9000E+01
       -1 -1    0    0    0  501 0.00000000E+00 0.00000000E+00 -.72110719E+03 0.72110726E+03 0.32000000E+00 0.0000E+00 0.9000E+01
       25  1    1    2    0    0 -.96638392E+02 -.73548936E+02 -.55966743E+03 0.58617494E+03 0.12500000E+03 0.0000E+00 0.9000E+01
       23  1    1    2    0    0 0.80965106E+02 0.98353070E+02 -.78061944E+02 0.17503598E+03 0.91188000E+02 0.0000E+00 0.9000E+01
       -1  1    1    2    0  503 0.19187850E+02 -.14236252E+02 0.26672882E+02 0.35810466E+02 0.32000000E+00 0.0000E+00 0.9000E+01
       21  1    1    2  502  501 -.35145638E+01 -.10567882E+02 -.15244979E+02 0.18894554E+02 0.75000000E+00 0.0000E+00 0.9000E+01
#aMCatNLO 2  0  0  1  5 0.20714786D+02 0.00000000D+00  -5  6  0 0.00000000D+00 0.00000000D+00 0.00000000D+00 0.00000000D+00 0.00000000D+00
  <mgrwgt>
 0.2466035458D+00    1    2    0
 0.213083429560026D+03 0.000000000000000D+00 0.000000000000000D+00 0.213083429560026D+03
 0.213083429560026D+03 0.000000000000000D+00 0.000000000000000D+00 -.213083429560026D+03
 0.213579215038884D+03 -.869911922250922D+02 -.806923101835537D+02 -.126144221623997D+03
 0.201165138180967D+03 0.900029422087541D+02 0.916609774470901D+02 0.125099548690549D+03
 0.000000000000000D+00 0.000000000000000D+00 -.000000000000000D+00 0.000000000000000D+00
 0.114225059002016D+02 -.301174998366188D+01 -.109686672635364D+02 0.104467293344800D+01
 0.318309972304477D+03 0.000000000000000D+00 0.000000000000000D+00 0.318309972304477D+03
 0.214778592087226D+03 0.000000000000000D+00 0.000000000000000D+00 -.214778592087226D+03
 0.215135762306534D+03 -.966349091335508D+02 -.735372416591745D+02 -.126144221623997D+03
 0.200490681730738D+03 0.809679067503535D+02 0.983644402756548D+02 0.125099548690549D+03
 0.106252487794323D+03 0.191878503640780D+02 -.142362520067439D+02 0.103531380217251D+03
 0.112096325601082D+02 -.352084798088070D+01 -.105909466097364D+02 0.104467293344800D+01
0.371661687285D-03 0.000000000000D+00 0.000000000000D+00 0.580930568703D-04 0.435438275537D-07  6 21 -1 25 23 -1 21 4 0.14585712D-01 0.11093968D+00 0.33488938D+05 0.33488938D+05 0.33488938D+05 0.12099155D+01  1  2  1  4  5  1        1 0.246603545835D+00 0.100000000000D+01
  </mgrwgt>
  </event>
  <event>
  5     66 0.42989208E-03 0.16458635E+03 0.75467711E-02 0.89351873E-01
        1 -1    0    0  502    0 0.00000000E+00 0.00000000E+00 0.67460067E+03 0.67460074E+03 0.32000000E+00 0.0000E+00 0.9000E+01
       -1 -1    0    0    0  501 0.00000000E+00 0.00000000E+00 -.11764668E+03 0.11764712E+03 0.32000000E+00 0.0000E+00 0.9000E+01
       25  1    1    2    0    0 -.22235336E+03 -.82739977E+02 0.28286215E+03 0.38977291E+03 0.12500000E+03 0.0000E+00 0.9000E+01
       23  1    1    2    0    0 0.60161006E+02 0.54776856E+02 0.16373744E+03 0.20431606E+03 0.91188000E+02 0.0000E+00 0.9000E+01
       21  1    1    2  502  501 0.16219235E+03 0.27963121E+02 0.11035439E+03 0.19815890E+03 0.75000000E+00 0.0000E+00 0.9000E+01
#aMCatNLO 1  0  0  1  5 0.51290034D+01 0.00000000D+00  -5  6  0 0.00000000D+00 0.00000000D+00 0.00000000D+00 0.00000000D+00 0.00000000D+00
  <mgrwgt>
 0.3705319998D-01    3    2    0
 0.281717472156107D+03 0.000000000000000D+00 0.000000000000000D+00 0.281717472156107D+03
 0.281717472156107D+03 0.000000000000000D+00 0.000000000000000D+00 -.281717472156107D+03
 0.268453227220066D+03 -.222354115922015D+03 -.827401075459215D+02 0.124441528717994D+02
 0.125435316943368D+03 0.601606524765353D+02 0.547767955163706D+02 0.282659859060026D+02
 0.169546400148780D+03 0.162193463445480D+03 0.279633120295510D+02 -.407101387778020D+02
 0.000000000000000D+00 -.000000000000000D+00 -.000000000000000D+00 -.000000000000000D+00
 0.131421869785420D+04 0.000000000000000D+00 0.000000000000000D+00 0.131421869785420D+04
 0.156246352118110D+04 0.000000000000000D+00 0.000000000000000D+00 -.156246352118110D+04
 0.138800706297686D+03 0.116179778973976D+02 0.578861098849754D+02 0.124441528717994D+02
 0.524327882083558D+03 0.433457123427632D+03 0.279142316349265D+03 0.282659859060026D+02
 0.819679275661919D+03 0.730515052460320D+03 0.369546421548412D+03 -.407101387778020D+02
 0.139387435499214D+04 -.117559015378535D+04 -.706574847782653D+03 -.248244823326902D+03
0.396728281080D-03 0.000000000000D+00 0.000000000000D+00 0.477733226586D-06 0.000000000000D+00  6 1 -1 25 23 21 21 2 0.10378476D+00 0.18099529D-01 0.76995164D+05 0.76995164D+05 0.76995164D+05 0.11741478D+01  1  2  2  1  6  1        1 0.387609984825D-01 0.100000000000D+01
-.300797667408D-04 0.209359265747D-04 -.152354106030D-05 0.477733226586D-06 0.000000000000D+00  6 1 -1 25 23 21 21 4 0.10378476D+00 0.18099529D-01 0.76995164D+05 0.76995164D+05 0.76995164D+05 0.11741478D+01  1  2  3  1  6  1        1 -.405155524272D-02 0.100000000000D+01
0.174006404394D-04 0.000000000000D+00 0.000000000000D+00 0.477733226586D-06 0.000000000000D+00  6 1 -1 25 23 21 21 4 0.10378476D+00 0.18099529D-01 0.76995164D+05 0.76995164D+05 0.76995164D+05 0.11741478D+01  1  2 15  1  6  1        1 0.234375673876D-02 0.100000000000D+01
  </mgrwgt>
  </event>
  <event>
  5     66 -.42989208E-03 0.24511994E+02 0.75467711E-02 0.12289587E+00
        1 -1    0    0  502    0 0.00000000E+00 0.00000000E+00 0.20732150E+03 0.20732175E+03 0.32000000E+00 0.0000E+00 0.9000E+01
       -1 -1    0    0    0  501 0.00000000E+00 0.00000000E+00 -.12470365E+03 0.12470406E+03 0.32000000E+00 0.0000E+00 0.9000E+01
       25  1    1    2    0    0 -.37215122E+02 0.22255849E+02 0.12514504E+03 0.18211691E+03 0.12500000E+03 0.0000E+00 0.9000E+01
       23  1    1    2    0    0 0.43796991E+02 0.13543961E+01 -.40683147E+00 0.10117029E+03 0.91188000E+02 0.0000E+00 0.9000E+01
       21  1    1    2  502  501 -.65818684E+01 -.23610245E+02 -.42120358E+02 0.48738606E+02 0.75000000E+00 0.0000E+00 0.9000E+01
#aMCatNLO 1  0  0  5  2 0.69618361D+00 0.00000000D+00  -5  6  0 0.00000000D+00 0.00000000D+00 0.00000000D+00 0.00000000D+00 0.00000000D+00
  <mgrwgt>
 -.5808934773D+00   25    2    0
 0.160791346018965D+03 0.000000000000000D+00 0.000000000000000D+00 0.160791346018965D+03
 0.160791346018965D+03 -.000000000000000D+00 -.000000000000000D+00 -.160791346018965D+03
 0.155881115534168D+03 -.372148823661913D+02 0.222567096886283D+02 0.824233800840713D+02
 0.104559954868284D+03 0.437971518407953D+02 0.135497371429463D+01 -.264103456040512D+02
 0.611416216354792D+02 -.658226947460392D+01 -.236116834029230D+02 -.560130344800201D+02
 0.000000000000000D+00 0.000000000000000D+00 0.000000000000000D+00 -.000000000000000D+00
 0.160791346018965D+03 0.000000000000000D+00 0.000000000000000D+00 0.160791346018965D+03
 0.160791346018965D+03 -.000000000000000D+00 -.000000000000000D+00 -.160791346018965D+03
 0.155877165026411D+03 -.372157100736043D+02 0.222537405659785D+02 0.824163365553859D+02
 0.104560890000090D+03 0.437965966322113D+02 0.135298208977086D+01 -.264150702537603D+02
 0.311525577811778D+02 -.363324047965793D+01 -.126022547414891D+02 -.282571158357892D+02
 0.299920792302516D+02 -.294764607894907D+01 -.110044679142603D+02 -.277441504658363D+02
0.944146373086D-05 0.000000000000D+00 0.000000000000D+00 0.269993532174D-04 0.000000000000D+00  6 1 -1 25 23 21 21 2 0.31895666D-01 0.19185227D-01 0.16639603D+05 0.16639603D+05 0.16639603D+05 0.12427191D+01  1  2  2  3  6  5       21 0.425806593547D-02 0.100000000000D+01
0.989847839001D-06 0.498239729441D-06 -.362577067210D-07 0.269993532174D-04 0.000000000000D+00  6 1 -1 25 23 21 21 4 0.31895666D-01 0.19185227D-01 0.16639603D+05 0.16639603D+05 0.16639603D+05 0.12427191D+01  1  2  3  3  6  5       21 0.689425621042D-03 0.100000000000D+01
0.212429952982D-06 0.000000000000D+00 0.000000000000D+00 0.269993532174D-04 0.000000000000D+00  6 1 -1 25 23 21 21 4 0.31895666D-01 0.19185227D-01 0.16639603D+05 0.16639603D+05 0.16639603D+05 0.12427191D+01  1  2 15  3  6  5       21 0.147956732835D-03 0.100000000000D+01
0.405537514004D-09 0.000000000000D+00 0.000000000000D+00 0.269994287389D-04 0.000000000000D+00  6 1 -1 25 23 21 21 4 0.31895666D-01 0.19185227D-01 0.16639012D+05 0.16639012D+05 0.16639012D+05 0.12427208D+01  1  2 12  3  6  5       21 0.282456822332D-06 0.100000000000D+01
0.405080739721D-09 0.000000000000D+00 0.000000000000D+00 0.269994287389D-04 0.000000000000D+00  6 1 -1 25 23 21 21 4 0.31895666D-01 0.19185227D-01 0.16639012D+05 0.16639012D+05 0.16639012D+05 0.12427208D+01  1  2 12  3  6  5       21 0.282138679108D-06 0.100000000000D+01
-.830856800620D-02 0.000000000000D+00 0.000000000000D+00 0.269993532174D-04 0.000000000000D+00  6 1 -1 25 23 21 21 4 0.31895666D-01 0.19185227D-01 0.16639603D+05 0.16639603D+05 0.16639603D+05 0.12427191D+01  1  2  4  3  6  5       21 -.578688908734D+01 0.100000000000D+01
-.410141404673D-02 0.000000000000D+00 0.000000000000D+00 0.269993532174D-04 0.000000000000D+00  6 1 -1 25 23 21 21 4 0.31895666D-01 0.19185227D-01 0.16639603D+05 0.16639603D+05 0.16639603D+05 0.12427191D+01  1  2  5  3  6  5       21 -.285662080060D+01 0.100000000000D+01
0.740646363140D-02 0.000000000000D+00 -.000000000000D+00 0.269993532174D-04 0.000000000000D+00  6 1 -1 25 23 21 21 4 0.31895666D-01 0.19185227D-01 0.16639603D+05 0.16639603D+05 0.16639603D+05 0.12427191D+01  1  2  6  3  6  5       21 0.515857648784D+01 0.100000000000D+01
0.415904989107D-02 0.000000000000D+00 0.000000000000D+00 0.269993532174D-04 0.322567153577D-03  6 1 -1 25 23 21 21 4 0.31895666D-01 0.19185227D-01 0.16639012D+05 0.16639012D+05 0.16639012D+05 0.12427208D+01  1  2 11  3  6  5       21 0.289677767306D+01 0.100000000000D+01
0.189249772320D-11 0.000000000000D+00 0.000000000000D+00 0.269994287389D-04 0.000000000000D+00  6 1 -1 25 23 1 -1 4 0.31895666D-01 0.19185227D-01 0.16639012D+05 0.16639012D+05 0.16639012D+05 0.12427208D+01  1  2 12  6  6  5       21 0.131812440208D-08 0.100000000000D+01
0.189034847997D-11 0.000000000000D+00 0.000000000000D+00 0.269994287389D-04 0.000000000000D+00  6 1 -1 25 23 1 -1 4 0.31895666D-01 0.19185227D-01 0.16639012D+05 0.16639012D+05 0.16639012D+05 0.12427208D+01  1  2 12  6  6  5       21 0.131662745447D-08 0.100000000000D+01
-.190419498231D-04 0.000000000000D+00 0.000000000000D+00 0.269993532174D-04 0.000000000000D+00  6 1 -1 25 23 1 -1 4 0.31895666D-01 0.19185227D-01 0.16639603D+05 0.16639603D+05 0.16639603D+05 0.12427191D+01  1  2  5  6  6  5       21 -.132626526678D-01 0.100000000000D+01
0.200030836672D-04 0.000000000000D+00 0.000000000000D+00 0.269993532174D-04 0.161131013674D-05  6 1 -1 25 23 1 -1 4 0.31895666D-01 0.19185227D-01 0.16639012D+05 0.16639012D+05 0.16639012D+05 0.12427208D+01  1  2 11  6  6  5       21 0.139321450036D-01 0.100000000000D+01
0.189249772320D-11 0.000000000000D+00 0.000000000000D+00 0.269994287389D-04 0.000000000000D+00  6 1 -1 25 23 2 -2 4 0.31895666D-01 0.19185227D-01 0.16639012D+05 0.16639012D+05 0.16639012D+05 0.12427208D+01  1  2 12  7  6  5       21 0.131812440208D-08 0.100000000000D+01
0.189249772320D-11 0.000000000000D+00 0.000000000000D+00 0.269994287389D-04 0.000000000000D+00  6 1 -1 25 23 4 -4 4 0.31895666D-01 0.19185227D-01 0.16639012D+05 0.16639012D+05 0.16639012D+05 0.12427208D+01  1  2 12  7  6  5       21 0.131812440208D-08 0.100000000000D+01
0.189034847997D-11 0.000000000000D+00 0.000000000000D+00 0.269994287389D-04 0.000000000000D+00  6 1 -1 25 23 2 -2 4 0.31895666D-01 0.19185227D-01 0.16639012D+05 0.16639012D+05 0.16639012D+05 0.12427208D+01  1  2 12  7  6  5       21 0.131662745447D-08 0.100000000000D+01
0.189034847997D-11 0.000000000000D+00 0.000000000000D+00 0.269994287389D-04 0.000000000000D+00  6 1 -1 25 23 4 -4 4 0.31895666D-01 0.19185227D-01 0.16639012D+05 0.16639012D+05 0.16639012D+05 0.12427208D+01  1  2 12  7  6  5       21 0.131662745447D-08 0.100000000000D+01
-.190419498231D-04 0.000000000000D+00 0.000000000000D+00 0.269993532174D-04 0.000000000000D+00  6 1 -1 25 23 2 -2 4 0.31895666D-01 0.19185227D-01 0.16639603D+05 0.16639603D+05 0.16639603D+05 0.12427191D+01  1  2  5  7  6  5       21 -.132626526678D-01 0.100000000000D+01
-.190419498231D-04 0.000000000000D+00 0.000000000000D+00 0.269993532174D-04 0.000000000000D+00  6 1 -1 25 23 4 -4 4 0.31895666D-01 0.19185227D-01 0.16639603D+05 0.16639603D+05 0.16639603D+05 0.12427191D+01  1  2  5  7  6  5       21 -.132626526678D-01 0.100000000000D+01
0.197588096294D-04 0.000000000000D+00 0.000000000000D+00 0.269993532174D-04 0.159141034222D-05  6 1 -1 25 23 2 -2 4 0.31895666D-01 0.19185227D-01 0.16639012D+05 0.16639012D+05 0.16639012D+05 0.12427208D+01  1  2 11  7  6  5       21 0.137620081701D-01 0.100000000000D+01
0.197588096294D-04 0.000000000000D+00 0.000000000000D+00 0.269993532174D-04 0.159141034222D-05  6 1 -1 25 23 4 -4 4 0.31895666D-01 0.19185227D-01 0.16639012D+05 0.16639012D+05 0.16639012D+05 0.12427208D+01  1  2 11  7  6  5       21 0.137620081701D-01 0.100000000000D+01
0.189249772320D-11 0.000000000000D+00 0.000000000000D+00 0.269994287389D-04 0.000000000000D+00  6 1 -1 25 23 3 -3 4 0.31895666D-01 0.19185227D-01 0.16639012D+05 0.16639012D+05 0.16639012D+05 0.12427208D+01  1  2 12  8  6  5       21 0.131812440208D-08 0.100000000000D+01
0.189034847997D-11 0.000000000000D+00 0.000000000000D+00 0.269994287389D-04 0.000000000000D+00  6 1 -1 25 23 3 -3 4 0.31895666D-01 0.19185227D-01 0.16639012D+05 0.16639012D+05 0.16639012D+05 0.12427208D+01  1  2 12  8  6  5       21 0.131662745447D-08 0.100000000000D+01
-.190419498231D-04 0.000000000000D+00 0.000000000000D+00 0.269993532174D-04 0.000000000000D+00  6 1 -1 25 23 3 -3 4 0.31895666D-01 0.19185227D-01 0.16639603D+05 0.16639603D+05 0.16639603D+05 0.12427191D+01  1  2  5  8  6  5       21 -.132626526678D-01 0.100000000000D+01
0.197568964019D-04 0.000000000000D+00 0.000000000000D+00 0.269993532174D-04 0.159125624740D-05  6 1 -1 25 23 3 -3 4 0.31895666D-01 0.19185227D-01 0.16639012D+05 0.16639012D+05 0.16639012D+05 0.12427208D+01  1  2 11  8  6  5       21 0.137606756074D-01 0.100000000000D+01
  </mgrwgt>
  </event>
  <event>
  6     66 -.42989208E-03 0.19716051E+02 0.75467711E-02 0.11904156E+00
        1 -1    0    0  502    0 0.00000000E+00 0.00000000E+00 0.12013908E+04 0.12013908E+04 0.32000000E+00 0.0000E+00 0.9000E+01
       -1 -1    0    0    0  501 0.00000000E+00 0.00000000E+00 -.21082081E+02 0.21084510E+02 0.32000000E+00 0.0000E+00 0.9000E+01
       25  1    1    2    0    0 -.51651364E+01 -.90412056E+02 0.59995020E+03 0.61948871E+03 0.12500000E+03 0.0000E+00 0.9000E+01
       23  1    1    2    0    0 -.15380951E+02 0.10150400E+03 0.46418499E+03 0.48406879E+03 0.91188000E+02 0.0000E+00 0.9000E+01
       21  1    1    2  503  501 0.13632725E+02 -.72791303E+01 0.96045599E+02 0.97283897E+02 0.75000000E+00 0.0000E+00 0.9000E+01
       21  1    1    2  502  503 0.69133630E+01 -.38128095E+01 0.20127921E+02 0.21633950E+02 0.75000000E+00 0.0000E+00 0.9000E+01
#aMCatNLO 2  0  0  5  2 0.46994967D+01 0.00000000D+00  -5  6  0 0.00000000D+00 0.00000000D+00 0.00000000D+00 0.00000000D+00 0.00000000D+00
  <mgrwgt>
 -.7550121286D-01    3    2    0
 0.159151904415165D+03 0.000000000000000D+00 0.000000000000000D+00 0.159151904415165D+03
 0.159151904415165D+03 -.000000000000000D+00 -.000000000000000D+00 -.159151904415165D+03
 0.154273079993899D+03 -.600331895337066D+01 -.899595572552511D+02 0.681332743871168D+01
 0.138258116195656D+03 -.161304429944581D+02 0.101908613335750D+03 -.124297500682324D+02
 0.257726126407753D+02 0.221337619478288D+02 -.119490560804988D+02 0.561642262952077D+01
 0.000000000000000D+00 0.000000000000000D+00 -.000000000000000D+00 0.000000000000000D+00
 0.159151904415165D+03 0.000000000000000D+00 0.000000000000000D+00 0.159151904415165D+03
 0.159151904415165D+03 -.000000000000000D+00 -.000000000000000D+00 -.159151904415165D+03
 0.154515856453502D+03 -.516770574856781D+01 -.904106685064396D+02 0.702536355458042D+01
 0.137858728709897D+03 -.153832436798515D+02 0.101505232901164D+03 -.122401488992486D+02
 0.170031318699513D+02 0.131671897987834D+02 -.702550638122069D+01 0.814701578967394D+01
 0.892609179698013D+01 0.738375962963599D+01 -.406905801350325D+01 -.293223044500577D+01
-.201761067286D-04 0.000000000000D+00 0.000000000000D+00 0.223871540101D-04 0.000000000000D+00  6 1 -1 25 23 21 21 4 0.18482954D+00 0.32435872D-02 0.24810233D+05 0.24810233D+05 0.24810233D+05 0.12236526D+01  1  2 13  3  6  5       21 -.171572559721D-01 0.100000000000D+01
-.203370789852D-04 0.000000000000D+00 0.000000000000D+00 0.223871540101D-04 0.000000000000D+00  6 1 -1 25 23 21 21 4 0.18482954D+00 0.32435872D-02 0.24810233D+05 0.24810233D+05 0.24810233D+05 0.12236526D+01  1  2 13  3  6  5       21 -.172941427485D-01 0.100000000000D+01
-.483557030063D-04 0.000000000000D+00 0.000000000000D+00 0.223661420818D-04 0.000000000000D+00  6 1 -1 25 23 21 21 4 0.18482954D+00 0.32435872D-02 0.25118129D+05 0.25118129D+05 0.25118129D+05 0.12230782D+01  1  2  8  3  6  5       21 -.410498141416D-01 0.100000000000D+01
  </mgrwgt>
  </event>
  <event>
  5     66 0.42989208E-03 0.22777965E+02 0.75467711E-02 0.11459456E+00
        1 -1    0    0  502    0 0.00000000E+00 0.00000000E+00 0.26339513E+04 0.26339513E+04 0.32000000E+00 0.0000E+00 0.9000E+01
       -1 -1    0    0    0  501 0.00000000E+00 0.00000000E+00 -.17796705E+02 0.17799582E+02 0.32000000E+00 0.0000E+00 0.9000E+01
       25  1    1    2    0    0 0.38142401E+02 -.60633356E+02 0.59310545E+03 0.61035262E+03 0.12500000E+03 0.0000E+00 0.9000E+01
       23  1    1    2    0    0 -.42938174E+02 0.82900052E+02 0.20117189E+04 0.20159475E+04 0.91188000E+02 0.0000E+00 0.9000E+01
       21  1    1    2  502  501 0.47957728E+01 -.22266696E+02 0.11330226E+02 0.25450770E+02 0.75000000E+00 0.0000E+00 0.9000E+01
#aMCatNLO 1  0  0  2  5 0.10166508D+03 0.00000000D+00  -5  6  0 0.00000000D+00 0.00000000D+00 0.00000000D+00 0.00000000D+00 0.00000000D+00
  <mgrwgt>
 0.1289145737D+00    4    2    0
 0.216516730507094D+03 0.000000000000000D+00 0.000000000000000D+00 0.216516730507094D+03
 0.216516730507094D+03 0.000000000000000D+00 0.000000000000000D+00 -.216516730507094D+03
 0.154369906129310D+03 0.381423384604101D+02 -.606330639171925D+02 -.554424160292204D+02
 0.191263383159116D+03 -.429382521809716D+02 0.829004142475533D+02 0.139822237897618D+03
 0.874001717257620D+02 0.479591372056150D+01 -.222673503303608D+02 -.843798218683981D+02
 0.000000000000000D+00 0.000000000000000D+00 -.000000000000000D+00 0.000000000000000D+00
 0.289033070506674D+03 0.000000000000000D+00 0.000000000000000D+00 0.289033070506674D+03
 0.261184727304718D+03 0.000000000000000D+00 0.000000000000000D+00 -.261184727304718D+03
 0.141808601019197D+03 0.175149051830354D+02 -.332271865238993D+02 -.554424160292204D+02
 0.218076391641509D+03 -.714468329479134D+02 0.120777287179319D+03 0.139822237897618D+03
 0.849225681945301D+02 -.720555071418869D+01 -.632204785787632D+01 -.843798218683981D+02
 0.105410236956155D+03 0.611374784790667D+02 -.812280527975436D+02 0.278483432019565D+02
0.138657760079D-02 0.000000000000D+00 0.000000000000D+00 0.198260789894D-04 0.000000000000D+00  6 1 -1 25 23 21 21 2 0.40522350D+00 0.27381774D-02 0.22104643D+05 0.22104643D+05 0.22104643D+05 0.12290707D+01  1  2  2  2  6  2       -1 0.119558757682D+00 0.100000000000D+01
0.206115157568D-03 0.731717102728D-04 -.532482308129D-05 0.198260789894D-04 0.000000000000D+00  6 1 -1 25 23 21 21 4 0.40522350D+00 0.27381774D-02 0.22104643D+05 0.22104643D+05 0.22104643D+05 0.12290707D+01  1  2  3  2  6  2       -1 0.268473154168D-01 0.100000000000D+01
0.381089147422D-04 0.000000000000D+00 0.000000000000D+00 0.198260789894D-04 0.000000000000D+00  6 1 -1 25 23 21 21 4 0.40522350D+00 0.27381774D-02 0.22104643D+05 0.22104643D+05 0.22104643D+05 0.12290707D+01  1  2 15  2  6  2       -1 0.496383704308D-02 0.100000000000D+01
-.172396574259D-03 0.000000000000D+00 0.000000000000D+00 0.198260789894D-04 0.000000000000D+00  6 1 -1 25 23 21 21 4 0.40522350D+00 0.27381774D-02 0.22104643D+05 0.22104643D+05 0.22104643D+05 0.12290707D+01  1  2  4  2  6  2       -1 -.224553364270D-01 0.100000000000D+01
  </mgrwgt>
  </event>
  <event>
  5     66 -.42989208E-03 0.30461235E+02 0.75467711E-02 0.12060964E+00
        3 -1    0    0  502    0 0.00000000E+00 0.00000000E+00 0.13354241E+03 0.13354334E+03 0.50000000E+00 0.0000E+00 0.9000E+01
       -3 -1    0    0    0  501 0.00000000E+00 0.00000000E+00 -.16124131E+03 0.16124208E+03 0.50000000E+00 0.0000E+00 0.9000E+01
       25  1    1    2    0    0 -.33223258E+02 -.55577275E+02 0.10276017E+02 0.14114962E+03 0.12500000E+03 0.0000E+00 0.9000E+01
       23  1    1    2    0    0 0.44500462E+02 0.27284245E+02 -.15601714E+00 0.10507139E+03 0.91188000E+02 0.0000E+00 0.9000E+01
       21  1    1    2  502  501 -.11277203E+02 0.28293030E+02 -.37818901E+02 0.48564417E+02 0.75000000E+00 0.0000E+00 0.9000E+01
#aMCatNLO 1  0  0  2  1 0.14093492D+02 0.00000000D+00  -5  6  0 0.00000000D+00 0.00000000D+00 0.00000000D+00 0.00000000D+00 0.00000000D+00
  <mgrwgt>
 -.1038945428D-01    7    4    0
 0.146740602354771D+03 0.000000000000000D+00 0.000000000000000D+00 0.146740602354771D+03
 0.146740602354771D+03 0.000000000000000D+00 0.000000000000000D+00 -.146740602354771D+03
 0.142747670246049D+03 -.332225035482605D+02 -.555791684573936D+02 0.236456899295654D+02
 0.105523623748807D+03 0.445010195546651D+02 0.272828448047836D+02 0.976163219104017D+01
 0.452099107146860D+02 -.112785160064045D+02 0.282963236526099D+02 -.334073221206055D+02
 0.000000000000000D+00 -.000000000000000D+00 -.000000000000000D+00 -.000000000000000D+00
 0.152622312450337D+03 0.000000000000000D+00 0.000000000000000D+00 0.152622312450337D+03
 0.155602164673138D+03 0.000000000000000D+00 0.000000000000000D+00 -.155602164673138D+03
 0.139872458605913D+03 -.285945575562921D+02 -.506215102735756D+02 0.236456899295654D+02
 0.108061218921246D+03 0.479985026270680D+02 0.310295016600613D+02 0.976163219104017D+01
 0.458857296576481D+02 -.978681155683302D+01 0.298943027096452D+02 -.334073221206055D+02
 0.144050699386677D+02 -.961713351394287D+01 -.103022940961310D+02 -.297985222280074D+01
 0.146740602354771D+03 0.000000000000000D+00 0.000000000000000D+00 0.146740602354771D+03
 0.146740602354771D+03 0.000000000000000D+00 0.000000000000000D+00 -.146740602354771D+03
 0.142747670246049D+03 -.332225035482605D+02 -.555791684573936D+02 0.236456899295654D+02
 0.105523623748807D+03 0.445010195546651D+02 0.272828448047836D+02 0.976163219104017D+01
 0.000000000000000D+00 -.000000000000000D+00 -.000000000000000D+00 -.000000000000000D+00
 0.452099107146860D+02 -.112785160064045D+02 0.282963236526099D+02 -.334073221206055D+02
 0.152622312450337D+03 0.000000000000000D+00 0.000000000000000D+00 0.152622312450337D+03
 0.155602164673138D+03 0.000000000000000D+00 0.000000000000000D+00 -.155602164673138D+03
 0.139872458605913D+03 -.285945575562921D+02 -.506215102735756D+02 0.236456899295654D+02
 0.108061218921246D+03 0.479985026270680D+02 0.310295016600613D+02 0.976163219104017D+01
 0.144050699386677D+02 -.961713351394287D+01 -.103022940961310D+02 -.297985222280074D+01
 0.458857296576481D+02 -.978681155683302D+01 0.298943027096452D+02 -.334073221206055D+02
0.774829358919D-04 0.000000000000D+00 0.000000000000D+00 0.194043898593D-04 0.000000000000D+00  6 3 -3 25 23 21 21 2 0.20545117D-01 0.24806487D-01 0.19086530D+05 0.19086530D+05 0.19086530D+05 0.12360675D+01  1  2  2  2  6  2       -3 0.894369197742D-02 0.100000000000D+01
0.709995738303D-05 0.408888686284D-05 -.297554875550D-06 0.194043898593D-04 0.000000000000D+00  6 3 -3 25 23 21 21 4 0.20545117D-01 0.24806487D-01 0.19086530D+05 0.19086530D+05 0.19086530D+05 0.12360675D+01  1  2  3  2  6  2       -3 0.125213423767D-02 0.100000000000D+01
0.242629656153D-05 0.000000000000D+00 0.000000000000D+00 0.194043898593D-04 0.000000000000D+00  6 3 -3 25 23 21 21 4 0.20545117D-01 0.24806487D-01 0.19086530D+05 0.19086530D+05 0.19086530D+05 0.12360675D+01  1  2 15  2  6  2       -3 0.427896793111D-03 0.100000000000D+01
-.466578125175D-04 0.000000000000D+00 0.000000000000D+00 0.194043898593D-04 0.000000000000D+00  6 3 -3 25 23 21 21 4 0.20545117D-01 0.24806487D-01 0.19086530D+05 0.19086530D+05 0.19086530D+05 0.12360675D+01  1  2  4  2  6  2       -3 -.822847819444D-02 0.100000000000D+01
-.807978915652D-03 0.000000000000D+00 -.157657399096D-03 0.194043898593D-04 0.000000000000D+00  6 3 -3 25 23 21 21 4 0.20545117D-01 0.27291737D-01 0.19086530D+05 0.19086530D+05 0.19086530D+05 0.12360675D+01  1  2  5  2  6  2       -3 -.119808486055D+00 0.100000000000D+01
0.820007238514D-03 0.000000000000D+00 0.156941500234D-03 0.194043898593D-04 0.000000000000D+00  6 3 -3 25 23 21 21 4 0.20545117D-01 0.24806487D-01 0.19086530D+05 0.19086530D+05 0.19086530D+05 0.12360675D+01  1  2  6  2  6  2       -3 0.144614831200D+00 0.100000000000D+01
-.121308191984D-04 0.000000000000D+00 -.246008135145D-05 0.194043898593D-04 0.000000000000D+00  6 3 21 25 23 3 21 4 0.20545117D-01 0.27291737D-01 0.19086530D+05 0.19086530D+05 0.19086530D+05 0.12360675D+01  3  4  5  5  5  2       -3 -.375910442399D-01 0.100000000000D+01
  </mgrwgt>
  </event>
  <event>
  5     66 0.42989208E-03 0.35018163E+02 0.75467711E-02 0.12073513E+00
        1 -1    0    0  502    0 0.00000000E+00 0.00000000E+00 0.90934166E+02 0.90934729E+02 0.32000000E+00 0.0000E+00 0.9000E+01
       -1 -1    0    0    0  501 -.00000000E+00 -.00000000E+00 -.30337411E+03 0.30337428E+03 0.32000000E+00 0.0000E+00 0.9000E+01
       25  1    1    2    0    0 0.63585534E+02 -.26553621E+02 -.10373107E+02 0.14311120E+03 0.12500000E+03 0.0000E+00 0.9000E+01
       23  1    1    2    0    0 -.64400275E+02 -.84481641E+01 -.17097090E+03 0.20436503E+03 0.91188000E+02 0.0000E+00 0.9000E+01
       21  1    1    2  502  501 0.81474121E+00 0.35001785E+02 -.31095939E+02 0.46832774E+02 0.75000000E+00 0.0000E+00 0.9000E+01
#aMCatNLO 1  0  0  5  1 0.80419181D+01 0.00000000D+00  -5  6  0 0.00000000D+00 0.00000000D+00 0.00000000D+00 0.00000000D+00 0.00000000D+00
  <mgrwgt>
 0.6908596012D-01   25    2    0
 0.166093997132493D+03 0.000000000000000D+00 0.000000000000000D+00 0.166093997132493D+03
 0.166093997132493D+03 -.000000000000000D+00 -.000000000000000D+00 -.166093997132493D+03
 0.163240966414491D+03 0.635854456612456D+02 -.265574171752595D+02 0.792098971655493D+02
 0.133243498637865D+03 -.644003473543080D+02 -.845126256413951D+01 -.722478373861467D+02
 0.357035292126302D+02 0.814901693062460D+00 0.350086797393990D+02 -.696205977940261D+01
 0.000000000000000D+00 0.000000000000000D+00 0.000000000000000D+00 0.000000000000000D+00
 0.166093997132493D+03 0.000000000000000D+00 0.000000000000000D+00 0.166093997132493D+03
 0.166093997132493D+03 -.000000000000000D+00 -.000000000000000D+00 -.166093997132493D+03
 0.162593082025638D+03 0.636477448002289D+02 -.238810077098275D+02 0.786776485108956D+02
 0.133334774569121D+03 -.643493778593398D+02 -.626158159892022D+01 -.726832919617307D+02
 0.265551833386926D+02 0.812127437329347D+01 0.241042436876892D+02 -.762942336941399D+01
 0.970495433153407D+01 -.741964131418266D+01 0.603834562105849D+01 0.163506682024908D+01
0.114955143603D-03 0.000000000000D+00 0.000000000000D+00 0.925148540936D-05 0.000000000000D+00  6 1 -1 25 23 21 21 2 0.13989928D-01 0.46672996D-01 0.20982871D+05 0.20982871D+05 0.20982871D+05 0.12315389D+01  1  2  2  3  6  5       21 0.324968152821D-01 0.100000000000D+01
0.110007031641D-04 0.606634959149D-05 -.441458019821D-06 0.925148540936D-05 0.000000000000D+00  6 1 -1 25 23 21 21 4 0.13989928D-01 0.46672996D-01 0.20982871D+05 0.20982871D+05 0.20982871D+05 0.12315389D+01  1  2  3  3  6  5       21 0.471660050078D-02 0.100000000000D+01
0.435452559079D-05 0.000000000000D+00 0.000000000000D+00 0.925148540936D-05 0.000000000000D+00  6 1 -1 25 23 21 21 4 0.13989928D-01 0.46672996D-01 0.20982871D+05 0.20982871D+05 0.20982871D+05 0.12315389D+01  1  2 15  3  6  5       21 0.186702225083D-02 0.100000000000D+01
0.720412997630D-04 0.000000000000D+00 0.000000000000D+00 0.925462323559D-05 0.000000000000D+00  6 1 -1 25 23 21 21 4 0.13989928D-01 0.46672996D-01 0.20890921D+05 0.20890921D+05 0.20890921D+05 0.12317477D+01  1  2 12  3  6  5       21 0.309064194160D-01 0.100000000000D+01
0.700022835836D-04 0.000000000000D+00 0.000000000000D+00 0.925462323559D-05 0.000000000000D+00  6 1 -1 25 23 21 21 4 0.13989928D-01 0.46672996D-01 0.20890921D+05 0.20890921D+05 0.20890921D+05 0.12317477D+01  1  2 12  3  6  5       21 0.300316616111D-01 0.100000000000D+01
-.170656388490D-03 0.000000000000D+00 0.000000000000D+00 0.925148540936D-05 0.000000000000D+00  6 1 -1 25 23 21 21 4 0.13989928D-01 0.46672996D-01 0.20982871D+05 0.20982871D+05 0.20982871D+05 0.12315389D+01  1  2  4  3  6  5       21 -.731696870104D-01 0.100000000000D+01
-.154088133058D-03 0.000000000000D+00 0.000000000000D+00 0.925148540936D-05 0.000000000000D+00  6 1 -1 25 23 21 21 4 0.13989928D-01 0.46672996D-01 0.20982871D+05 0.20982871D+05 0.20982871D+05 0.12315389D+01  1  2  5  3  6  5       21 -.660659736657D-01 0.100000000000D+01
0.255163929465D-03 0.000000000000D+00 -.000000000000D+00 0.925148540936D-05 0.000000000000D+00  6 1 -1 25 23 21 21 4 0.13989928D-01 0.46672996D-01 0.20982871D+05 0.20982871D+05 0.20982871D+05 0.12315389D+01  1  2  6  3  6  5       21 0.109402671769D+00 0.100000000000D+01
0.809887817613D-06 0.000000000000D+00 0.000000000000D+00 0.925148540936D-05 0.879515430205D-06  6 1 -1 25 23 21 21 4 0.13989928D-01 0.46672996D-01 0.20890921D+05 0.20890921D+05 0.20890921D+05 0.12317477D+01  1  2 11  3  6  5       21 0.347449763585D-03 0.100000000000D+01
0.173604956111D-05 0.000000000000D+00 0.000000000000D+00 0.925462323559D-05 0.000000000000D+00  6 1 -1 25 23 1 -1 4 0.13989928D-01 0.46672996D-01 0.20890921D+05 0.20890921D+05 0.20890921D+05 0.12317477D+01  1  2 12  6  6  5       21 0.744782174101D-03 0.100000000000D+01
0.170261462283D-05 0.000000000000D+00 0.000000000000D+00 0.925462323559D-05 0.000000000000D+00  6 1 -1 25 23 1 -1 4 0.13989928D-01 0.46672996D-01 0.20890921D+05 0.20890921D+05 0.20890921D+05 0.12317477D+01  1  2 12  6  6  5       21 0.730438259860D-03 0.100000000000D+01
-.430433436692D-05 0.000000000000D+00 0.000000000000D+00 0.925148540936D-05 0.000000000000D+00  6 1 -1 25 23 1 -1 4 0.13989928D-01 0.46672996D-01 0.20982871D+05 0.20982871D+05 0.20982871D+05 0.12315389D+01  1  2  5  6  6  5       21 -.184550253994D-02 0.100000000000D+01
0.198089935548D-07 0.000000000000D+00 0.000000000000D+00 0.925148540936D-05 0.358998795839D-07  6 1 -1 25 23 1 -1 4 0.13989928D-01 0.46672996D-01 0.20890921D+05 0.20890921D+05 0.20890921D+05 0.12317477D+01  1  2 11  6  6  5       21 0.849825121181D-05 0.100000000000D+01
0.173604956111D-05 0.000000000000D+00 0.000000000000D+00 0.925462323559D-05 0.000000000000D+00  6 1 -1 25 23 2 -2 4 0.13989928D-01 0.46672996D-01 0.20890921D+05 0.20890921D+05 0.20890921D+05 0.12317477D+01  1  2 12  7  6  5       21 0.744782174101D-03 0.100000000000D+01
0.173604956111D-05 0.000000000000D+00 0.000000000000D+00 0.925462323559D-05 0.000000000000D+00  6 1 -1 25 23 4 -4 4 0.13989928D-01 0.46672996D-01 0.20890921D+05 0.20890921D+05 0.20890921D+05 0.12317477D+01  1  2 12  7  6  5       21 0.744782174101D-03 0.100000000000D+01
0.170261462283D-05 0.000000000000D+00 0.000000000000D+00 0.925462323559D-05 0.000000000000D+00  6 1 -1 25 23 2 -2 4 0.13989928D-01 0.46672996D-01 0.20890921D+05 0.20890921D+05 0.20890921D+05 0.12317477D+01  1  2 12  7  6  5       21 0.730438259860D-03 0.100000000000D+01
0.170261462283D-05 0.000000000000D+00 0.000000000000D+00 0.925462323559D-05 0.000000000000D+00  6 1 -1 25 23 4 -4 4 0.13989928D-01 0.46672996D-01 0.20890921D+05 0.20890921D+05 0.20890921D+05 0.12317477D+01  1  2 12  7  6  5       21 0.730438259860D-03 0.100000000000D+01
-.430433436692D-05 0.000000000000D+00 0.000000000000D+00 0.925148540936D-05 0.000000000000D+00  6 1 -1 25 23 2 -2 4 0.13989928D-01 0.46672996D-01 0.20982871D+05 0.20982871D+05 0.20982871D+05 0.12315389D+01  1  2  5  7  6  5       21 -.184550253994D-02 0.100000000000D+01
-.430433436692D-05 0.000000000000D+00 0.000000000000D+00 0.925148540936D-05 0.000000000000D+00  6 1 -1 25 23 4 -4 4 0.13989928D-01 0.46672996D-01 0.20982871D+05 0.20982871D+05 0.20982871D+05 0.12315389D+01  1  2  5  7  6  5       21 -.184550253994D-02 0.100000000000D+01
0.198918655144D-07 0.000000000000D+00 0.000000000000D+00 0.925148540936D-05 0.347760843999D-07  6 1 -1 25 23 2 -2 4 0.13989928D-01 0.46672996D-01 0.20890921D+05 0.20890921D+05 0.20890921D+05 0.12317477D+01  1  2 11  7  6  5       21 0.853380408982D-05 0.100000000000D+01
0.198918655144D-07 0.000000000000D+00 0.000000000000D+00 0.925148540936D-05 0.347760843999D-07  6 1 -1 25 23 4 -4 4 0.13989928D-01 0.46672996D-01 0.20890921D+05 0.20890921D+05 0.20890921D+05 0.12317477D+01  1  2 11  7  6  5       21 0.853380408982D-05 0.100000000000D+01
0.173604956111D-05 0.000000000000D+00 0.000000000000D+00 0.925462323559D-05 0.000000000000D+00  6 1 -1 25 23 3 -3 4 0.13989928D-01 0.46672996D-01 0.20890921D+05 0.20890921D+05 0.20890921D+05 0.12317477D+01  1  2 12  8  6  5       21 0.744782174101D-03 0.100000000000D+01
0.170261462283D-05 0.000000000000D+00 0.000000000000D+00 0.925462323559D-05 0.000000000000D+00  6 1 -1 25 23 3 -3 4 0.13989928D-01 0.46672996D-01 0.20890921D+05 0.20890921D+05 0.20890921D+05 0.12317477D+01  1  2 12  8  6  5       21 0.730438259860D-03 0.100000000000D+01
-.430433436692D-05 0.000000000000D+00 0.000000000000D+00 0.925148540936D-05 0.000000000000D+00  6 1 -1 25 23 3 -3 4 0.13989928D-01 0.46672996D-01 0.20982871D+05 0.20982871D+05 0.20982871D+05 0.12315389D+01  1  2  5  8  6  5       21 -.184550253994D-02 0.100000000000D+01
0.199127517484D-07 0.000000000000D+00 0.000000000000D+00 0.925148540936D-05 0.348125988956D-07  6 1 -1 25 23 3 -3 4 0.13989928D-01 0.46672996D-01 0.20890921D+05 0.20890921D+05 0.20890921D+05 0.12317477D+01  1  2 11  8  6  5       21 0.854276448768D-05 0.100000000000D+01
  </mgrwgt>
  </event>
  <event>
  5     66 0.42989208E-03 0.22930263E+02 0.75467711E-02 0.11855789E+00
        1 -1    0    0  502    0 0.00000000E+00 0.00000000E+00 0.37052480E+02 0.37053862E+02 0.32000000E+00 0.0000E+00 0.9000E+01
       -1 -1    0    0    0  501 -.00000000E+00 -.00000000E+00 -.72427900E+03 0.72427907E+03 0.32000000E+00 0.0000E+00 0.9000E+01
       25  1    1    2    0    0 -.94471190E+02 -.33493923E+02 -.31880465E+03 0.35680254E+03 0.12500000E+03 0.0000E+00 0.9000E+01
       23  1    1    2    0    0 0.93755743E+02 0.56403316E+02 -.29452732E+03 0.32715909E+03 0.91188000E+02 0.0000E+00 0.9000E+01
       21  1    1    2  502  501 0.71544698E+00 -.22909393E+02 -.73894545E+02 0.77371303E+02 0.75000000E+00 0.0000E+00 0.9000E+01
#aMCatNLO 1  0  0  5  1 0.11831428D+02 0.00000000D+00  -5  6  0 0.00000000D+00 0.00000000D+00 0.00000000D+00 0.00000000D+00 0.00000000D+00
  <mgrwgt>
 0.4246865740D+00   16    2    0
 0.163819676523299D+03 0.000000000000000D+00 0.000000000000000D+00 0.163819676523299D+03
 0.163819676523299D+03 -.000000000000000D+00 -.000000000000000D+00 -.163819676523299D+03
 0.160402671720099D+03 -.944713502816798D+02 -.334887875983429D+02 0.759487828045604D+01
 0.142444945127537D+03 0.937556005009670D+02 0.564078768524542D+02 0.183026011494683D+01
 0.247917361989637D+02 0.715749780712816D+00 -.229190892541113D+02 -.942513839540289D+01
 0.000000000000000D+00 0.000000000000000D+00 0.000000000000000D+00 0.000000000000000D+00
 0.163819676523299D+03 0.000000000000000D+00 0.000000000000000D+00 0.163819676523299D+03
 0.163819676523299D+03 -.000000000000000D+00 -.000000000000000D+00 -.163819676523299D+03
 0.162492677588649D+03 -.941552548625503D+02 -.436105079523902D+02 0.343246964027200D+01
 0.139368928825734D+03 0.940314795893295D+02 0.475739273076489D+02 -.180257171858077D+01
 0.121059824908961D+02 0.745939357545192D+01 0.604000507286966D+01 -.737770955487525D+01
 0.136717641413195D+02 -.733561830223112D+01 -.100034244281284D+02 0.574781163318400D+01
0.965668240582D-03 0.000000000000D+00 0.000000000000D+00 0.261604991210D-04 0.000000000000D+00  6 1 -1 25 23 21 21 2 0.57004933D-02 0.11142765D+00 0.26501596D+05 0.26501596D+05 0.26501596D+05 0.12205910D+01  1  2  2  3  6  5       21 0.155172388004D+00 0.100000000000D+01
0.247601749996D-03 0.509597130946D-04 -.370842031012D-05 0.261604991210D-04 0.000000000000D+00  6 1 -1 25 23 21 21 4 0.57004933D-02 0.11142765D+00 0.26501596D+05 0.26501596D+05 0.26501596D+05 0.12205910D+01  1  2  3  3  6  5       21 0.592762261870D-01 0.100000000000D+01
0.245249367718D-04 0.000000000000D+00 0.000000000000D+00 0.261604991210D-04 0.000000000000D+00  6 1 -1 25 23 21 21 4 0.57004933D-02 0.11142765D+00 0.26501596D+05 0.26501596D+05 0.26501596D+05 0.12205910D+01  1  2 15  3  6  5       21 0.587130623806D-02 0.100000000000D+01
0.595452525901D-03 0.000000000000D+00 0.000000000000D+00 0.261821233402D-04 0.000000000000D+00  6 1 -1 25 23 21 21 4 0.57004933D-02 0.11142765D+00 0.26214307D+05 0.26214307D+05 0.26214307D+05 0.12210954D+01  1  2 12  3  6  5       21 0.142767153089D+00 0.100000000000D+01
0.527737307287D-03 0.000000000000D+00 0.000000000000D+00 0.261821233402D-04 0.000000000000D+00  6 1 -1 25 23 21 21 4 0.57004933D-02 0.11142765D+00 0.26214307D+05 0.26214307D+05 0.26214307D+05 0.12210954D+01  1  2 12  3  6  5       21 0.126531586756D+00 0.100000000000D+01
-.462844781135D-03 0.000000000000D+00 0.000000000000D+00 0.261604991210D-04 0.000000000000D+00  6 1 -1 25 23 21 21 4 0.57004933D-02 0.11142765D+00 0.26501596D+05 0.26501596D+05 0.26501596D+05 0.12205910D+01  1  2  4  3  6  5       21 -.110805727086D+00 0.100000000000D+01
0.326915851128D-05 0.000000000000D+00 0.000000000000D+00 0.261604991210D-04 0.000000000000D+00  6 1 -1 25 23 21 21 4 0.57004933D-02 0.11142765D+00 0.26501596D+05 0.26501596D+05 0.26501596D+05 0.12205910D+01  1  2  5  3  6  5       21 0.782641396349D-03 0.100000000000D+01
-.641990488240D-05 0.000000000000D+00 0.000000000000D+00 0.261604991210D-04 0.000000000000D+00  6 1 -1 25 23 21 21 4 0.57004933D-02 0.11142765D+00 0.26501596D+05 0.26501596D+05 0.26501596D+05 0.12205910D+01  1  2  6  3  6  5       21 -.153693475072D-02 0.100000000000D+01
0.255453499582D-04 0.000000000000D+00 0.000000000000D+00 0.261821233402D-04 0.000000000000D+00  6 1 -1 25 23 1 -1 4 0.57004933D-02 0.11142765D+00 0.26214307D+05 0.26214307D+05 0.26214307D+05 0.12210954D+01  1  2 12  6  6  5       21 0.612481554710D-02 0.100000000000D+01
0.230735384728D-04 0.000000000000D+00 0.000000000000D+00 0.261821233402D-04 0.000000000000D+00  6 1 -1 25 23 1 -1 4 0.57004933D-02 0.11142765D+00 0.26214307D+05 0.26214307D+05 0.26214307D+05 0.12210954D+01  1  2 12  6  6  5       21 0.553216798344D-02 0.100000000000D+01
0.255453499582D-04 0.000000000000D+00 0.000000000000D+00 0.261821233402D-04 0.000000000000D+00  6 1 -1 25 23 2 -2 4 0.57004933D-02 0.11142765D+00 0.26214307D+05 0.26214307D+05 0.26214307D+05 0.12210954D+01  1  2 12  7  6  5       21 0.612481554710D-02 0.100000000000D+01
0.255453499582D-04 0.000000000000D+00 0.000000000000D+00 0.261821233402D-04 0.000000000000D+00  6 1 -1 25 23 4 -4 4 0.57004933D-02 0.11142765D+00 0.26214307D+05 0.26214307D+05 0.26214307D+05 0.12210954D+01  1  2 12  7  6  5       21 0.612481554710D-02 0.100000000000D+01
0.230735384728D-04 0.000000000000D+00 0.000000000000D+00 0.261821233402D-04 0.000000000000D+00  6 1 -1 25 23 2 -2 4 0.57004933D-02 0.11142765D+00 0.26214307D+05 0.26214307D+05 0.26214307D+05 0.12210954D+01  1  2 12  7  6  5       21 0.553216798344D-02 0.100000000000D+01
0.230735384728D-04 0.000000000000D+00 0.000000000000D+00 0.261821233402D-04 0.000000000000D+00  6 1 -1 25 23 4 -4 4 0.57004933D-02 0.11142765D+00 0.26214307D+05 0.26214307D+05 0.26214307D+05 0.12210954D+01  1  2 12  7  6  5       21 0.553216798344D-02 0.100000000000D+01
0.255453499582D-04 0.000000000000D+00 0.000000000000D+00 0.261821233402D-04 0.000000000000D+00  6 1 -1 25 23 3 -3 4 0.57004933D-02 0.11142765D+00 0.26214307D+05 0.26214307D+05 0.26214307D+05 0.12210954D+01  1  2 12  8  6  5       21 0.612481554710D-02 0.100000000000D+01
0.230735384728D-04 0.000000000000D+00 0.000000000000D+00 0.261821233402D-04 0.000000000000D+00  6 1 -1 25 23 3 -3 4 0.57004933D-02 0.11142765D+00 0.26214307D+05 0.26214307D+05 0.26214307D+05 0.12210954D+01  1  2 12  8  6  5       21 0.553216798344D-02 0.100000000000D+01
  </mgrwgt>
  </event>
  <event>
  5     66 0.42989208E-03 0.48531345E+02 0.75467711E-02 0.12075762E+00
        1 -1    0    0  502    0 0.00000000E+00 0.00000000E+00 0.16245989E+03 0.16246021E+03 0.32000000E+00 0.0000E+00 0.9000E+01
       -1 -1    0    0    0  501 0.00000000E+00 0.00000000E+00 -.14057789E+03 0.14057825E+03 0.32000000E+00 0.0000E+00 0.9000E+01
       25  1    1    2    0    0 0.48459805E+02 0.96743361E+01 -.34315033E+02 0.13872443E+03 0.12500000E+03 0.0000E+00 0.9000E+01
       23  1    1    2    0    0 -.20679067E+02 -.49462235E+02 0.41155557E+02 0.11350404E+03 0.91188000E+02 0.0000E+00 0.9000E+01
       21  1    1    2  502  501 -.27780738E+02 0.39787899E+02 0.15041479E+02 0.50809988E+02 0.75000000E+00 0.0000E+00 0.9000E+01
#aMCatNLO 1  0  0  2  1 0.47588210D+02 0.00000000D+00  -5  6  0 0.00000000D+00 0.00000000D+00 0.00000000D+00 0.00000000D+00 0.00000000D+00
  <mgrwgt>
 0.2737979192D-02    1    2    0
 0.151123695874232D+03 0.000000000000000D+00 0.000000000000000D+00 0.151123695874232D+03
 0.151123695874232D+03 0.000000000000000D+00 0.000000000000000D+00 -.151123695874232D+03
 0.141572387384323D+03 0.484612779912854D+02 0.967222677181015D+01 -.444487731486811D+02
 0.110821930116161D+03 -.206779143695676D+02 -.494638863804330D+02 0.330453726282473D+02
 0.498530742479792D+02 -.277833636217178D+02 0.397916596086228D+02 0.114034005204339D+02
 0.000000000000000D+00 0.000000000000000D+00 -.000000000000000D+00 -.000000000000000D+00
 0.185868442910804D+03 0.000000000000000D+00 0.000000000000000D+00 0.185868442910804D+03
 0.280756541590004D+03 0.000000000000000D+00 0.000000000000000D+00 -.280756541590004D+03
 0.134249709351402D+03 0.116651816477758D+01 0.205165850444001D+02 -.444487731486811D+02
 0.121204207570587D+03 -.604630533603758D+02 -.403414317422492D+02 0.330453726282473D+02
 0.660983152513569D+02 -.476653570617695D+02 0.443504619120518D+02 0.114034005204339D+02
 0.145072752327463D+03 0.106961892257368D+03 -.245256152142027D+02 -.948880986792000D+02
0.362241660206D-05 0.000000000000D+00 0.000000000000D+00 0.690510334261D-05 0.000000000000D+00  6 1 -1 25 23 21 21 4 0.24993882D-01 0.21627420D-01 0.20840605D+05 0.20840605D+05 0.20840605D+05 0.12318624D+01  1  2 14  2  6  2       -1 0.273797919156D-02 0.100000000000D+01
  </mgrwgt>
  </event>
  <event>
  5     66 0.42989208E-03 0.10317065E+03 0.75467711E-02 0.11555030E+00
        1 -1    0    0  502    0 0.00000000E+00 0.00000000E+00 0.76486533E+03 0.76486539E+03 0.32000000E+00 0.0000E+00 0.9000E+01
       -1 -1    0    0    0  501 0.00000000E+00 0.00000000E+00 -.57936059E+02 0.57936943E+02 0.32000000E+00 0.0000E+00 0.9000E+01
       25  1    1    2    0    0 0.95166416E+02 0.68477148E+02 0.19615203E+03 0.26047339E+03 0.12500000E+03 0.0000E+00 0.9000E+01
       23  1    1    2    0    0 0.12335978E+02 -.79011407E+02 0.33189904E+03 0.35336554E+03 0.91188000E+02 0.0000E+00 0.9000E+01
       21  1    1    2  502  501 -.10750239E+03 0.10534259E+02 0.17887820E+03 0.20896341E+03 0.75000000E+00 0.0000E+00 0.9000E+01
#aMCatNLO 1  0  0  5  1 0.48018490D+02 0.00000000D+00  -5  6  0 0.00000000D+00 0.00000000D+00 0.00000000D+00 0.00000000D+00 0.00000000D+00
  <mgrwgt>
 0.3387790809D-01   14    2    0
 0.210508132190432D+03 0.000000000000000D+00 0.000000000000000D+00 0.210508132190432D+03
 0.210508132190432D+03 -.000000000000000D+00 -.000000000000000D+00 -.210508132190432D+03
 0.179690749470878D+03 0.951675222630477D+02 0.684770392166121D+02 -.540166941958205D+02
 0.133298645735772D+03 0.123367981440375D+02 -.790114874609212D+02 0.553015901376889D+02
 0.108026869174214D+03 -.107504320407085D+03 0.105344482443091D+02 -.128489594186843D+01
 0.000000000000000D+00 0.000000000000000D+00 0.000000000000000D+00 0.000000000000000D+00
 0.210508132190432D+03 0.000000000000000D+00 0.000000000000000D+00 0.210508132190432D+03
 0.210508132190432D+03 -.000000000000000D+00 -.000000000000000D+00 -.210508132190432D+03
 0.169882618261461D+03 0.727572195803940D+02 0.706730455990138D+02 -.542845430307691D+02
 0.131739303951424D+03 -.465414345259984D+01 -.773465293067366D+02 0.550985137234260D+02
 0.662278772071403D+02 -.412084315884356D+02 0.438079821434722D+02 -.277282813369760D+02
 0.531664649608383D+02 -.268946445393586D+02 -.371344984357494D+02 0.269143106443191D+02
0.866232025706D-04 0.000000000000D+00 0.000000000000D+00 0.118010630687D-05 0.000000000000D+00  6 1 -1 25 23 21 21 2 0.11767166D+00 0.89133130D-02 0.40137054D+05 0.40137054D+05 0.40137054D+05 0.12018494D+01  1  2  2  3  6  5       21 0.224225360327D-01 0.100000000000D+01
-.561306784511D-05 0.457123198716D-05 -.332655906284D-06 0.118010630687D-05 0.000000000000D+00  6 1 -1 25 23 21 21 4 0.11767166D+00 0.89133130D-02 0.40137054D+05 0.40137054D+05 0.40137054D+05 0.12018494D+01  1  2  3  3  6  5       21 -.209870266984D-02 0.100000000000D+01
0.300733868943D-05 0.000000000000D+00 0.000000000000D+00 0.118010630687D-05 0.000000000000D+00  6 1 -1 25 23 21 21 4 0.11767166D+00 0.89133130D-02 0.40137054D+05 0.40137054D+05 0.40137054D+05 0.12018494D+01  1  2 15  3  6  5       21 0.112443140022D-02 0.100000000000D+01
0.224898376587D-04 0.000000000000D+00 0.000000000000D+00 0.118632028783D-05 0.000000000000D+00  6 1 -1 25 23 21 21 4 0.11767166D+00 0.89133130D-02 0.37371519D+05 0.37371519D+05 0.37371519D+05 0.12050095D+01  1  2 12  3  6  5       21 0.849384439044D-02 0.100000000000D+01
0.222825012252D-04 0.000000000000D+00 0.000000000000D+00 0.118632028783D-05 0.000000000000D+00  6 1 -1 25 23 21 21 4 0.11767166D+00 0.89133130D-02 0.37371519D+05 0.37371519D+05 0.37371519D+05 0.12050095D+01  1  2 12  3  6  5       21 0.841553864945D-02 0.100000000000D+01
-.173919353011D-04 0.000000000000D+00 0.000000000000D+00 0.118010630687D-05 0.000000000000D+00  6 1 -1 25 23 21 21 4 0.11767166D+00 0.89133130D-02 0.40137054D+05 0.40137054D+05 0.40137054D+05 0.12018494D+01  1  2  4  3  6  5       21 -.650277211276D-02 0.100000000000D+01
0.672582982340D-06 0.000000000000D+00 0.000000000000D+00 0.118632028783D-05 0.000000000000D+00  6 1 -1 25 23 1 -1 4 0.11767166D+00 0.89133130D-02 0.37371519D+05 0.37371519D+05 0.37371519D+05 0.12050095D+01  1  2 12  6  6  5       21 0.254017626910D-03 0.100000000000D+01
0.666553575867D-06 0.000000000000D+00 0.000000000000D+00 0.118632028783D-05 0.000000000000D+00  6 1 -1 25 23 1 -1 4 0.11767166D+00 0.89133130D-02 0.37371519D+05 0.37371519D+05 0.37371519D+05 0.12050095D+01  1  2 12  6  6  5       21 0.251740472174D-03 0.100000000000D+01
0.672582982340D-06 0.000000000000D+00 0.000000000000D+00 0.118632028783D-05 0.000000000000D+00  6 1 -1 25 23 2 -2 4 0.11767166D+00 0.89133130D-02 0.37371519D+05 0.37371519D+05 0.37371519D+05 0.12050095D+01  1  2 12  7  6  5       21 0.254017626910D-03 0.100000000000D+01
0.672582982340D-06 0.000000000000D+00 0.000000000000D+00 0.118632028783D-05 0.000000000000D+00  6 1 -1 25 23 4 -4 4 0.11767166D+00 0.89133130D-02 0.37371519D+05 0.37371519D+05 0.37371519D+05 0.12050095D+01  1  2 12  7  6  5       21 0.254017626910D-03 0.100000000000D+01
0.666553575867D-06 0.000000000000D+00 0.000000000000D+00 0.118632028783D-05 0.000000000000D+00  6 1 -1 25 23 2 -2 4 0.11767166D+00 0.89133130D-02 0.37371519D+05 0.37371519D+05 0.37371519D+05 0.12050095D+01  1  2 12  7  6  5       21 0.251740472174D-03 0.100000000000D+01
0.666553575867D-06 0.000000000000D+00 0.000000000000D+00 0.118632028783D-05 0.000000000000D+00  6 1 -1 25 23 4 -4 4 0.11767166D+00 0.89133130D-02 0.37371519D+05 0.37371519D+05 0.37371519D+05 0.12050095D+01  1  2 12  7  6  5       21 0.251740472174D-03 0.100000000000D+01
0.672582982340D-06 0.000000000000D+00 0.000000000000D+00 0.118632028783D-05 0.000000000000D+00  6 1 -1 25 23 3 -3 4 0.11767166D+00 0.89133130D-02 0.37371519D+05 0.37371519D+05 0.37371519D+05 0.12050095D+01  1  2 12  8  6  5       21 0.254017626910D-03 0.100000000000D+01
0.666553575867D-06 0.000000000000D+00 0.000000000000D+00 0.118632028783D-05 0.000000000000D+00  6 1 -1 25 23 3 -3 4 0.11767166D+00 0.89133130D-02 0.37371519D+05 0.37371519D+05 0.37371519D+05 0.12050095D+01  1  2 12  8  6  5       21 0.251740472174D-03 0.100000000000D+01
  </mgrwgt>
  </event>
  <event>
  5     66 0.42989208E-03 0.25614623E+02 0.75467711E-02 0.11630550E+00
        1 -1    0    0  502    0 0.00000000E+00 0.00000000E+00 0.77887871E+03 0.77887878E+03 0.32000000E+00 0.0000E+00 0.9000E+01
       -1 -1    0    0    0  501 0.00000000E+00 0.00000000E+00 -.49282685E+02 0.49283724E+02 0.32000000E+00 0.0000E+00 0.9000E+01
       25  1    1    2    0    0 0.51685726E+02 -.12171231E+03 0.41522891E+03 0.45334904E+03 0.12500000E+03 0.0000E+00 0.9000E+01
       23  1    1    2    0    0 -.27996847E+02 0.13144780E+03 0.30832984E+03 0.34848945E+03 0.91188000E+02 0.0000E+00 0.9000E+01
       21  1    1    2  502  501 -.23688880E+02 -.97354955E+01 0.60372708E+01 0.26324020E+02 0.75000000E+00 0.0000E+00 0.9000E+01
#aMCatNLO 1  0  0  5  2 0.10650676D+02 0.00000000D+00  -5  6  0 0.00000000D+00 0.00000000D+00 0.00000000D+00 0.00000000D+00 0.00000000D+00
  <mgrwgt>
 0.8526292396D-01   20    2    0
 0.195922667803430D+03 0.000000000000000D+00 0.000000000000000D+00 0.195922667803430D+03
 0.195922667803430D+03 -.000000000000000D+00 -.000000000000000D+00 -.195922667803430D+03
 0.185015568502054D+03 0.516873226036589D+02 -.121711652949061D+03 0.334731953450982D+02
 0.162435934623394D+03 -.279954449216306D+02 0.131448380607231D+03 0.278564397441122D+01
 0.443938324814108D+02 -.236918776820283D+02 -.973672765816991D+01 -.362588393195094D+02
 0.000000000000000D+00 -.000000000000000D+00 0.000000000000000D+00 0.000000000000000D+00
 0.195922667803430D+03 0.000000000000000D+00 0.000000000000000D+00 0.195922667803430D+03
 0.195922667803430D+03 -.000000000000000D+00 -.000000000000000D+00 -.195922667803430D+03
 0.184508704727164D+03 0.497984547667263D+02 -.122487927077997D+03 0.305824090463373D+02
 0.162156055510606D+03 -.296546359808055D+02 0.130766497487080D+03 0.246362672084290D+00
 0.322885531651779D+02 -.729019021960129D+01 -.899634691979887D+01 -.301408283589084D+02
 0.128920222039112D+02 -.128536285663195D+02 0.717776510716543D+00 -.687943359513131D+00
0.167334435805D-03 0.000000000000D+00 0.000000000000D+00 0.190955684293D-04 0.000000000000D+00  6 1 -1 25 23 21 21 2 0.11982758D+00 0.75820365D-02 0.34222973D+05 0.34222973D+05 0.34222973D+05 0.12089409D+01  1  2  2  3  6  5       21 0.544984472667D-01 0.100000000000D+01
0.332345627120D-04 0.883048078120D-05 -.642608293660D-06 0.190955684293D-04 0.000000000000D+00  6 1 -1 25 23 21 21 4 0.11982758D+00 0.75820365D-02 0.34222973D+05 0.34222973D+05 0.34222973D+05 0.12089409D+01  1  2  3  3  6  5       21 0.158197234026D-01 0.100000000000D+01
0.670403092864D-05 0.000000000000D+00 0.000000000000D+00 0.190955684293D-04 0.000000000000D+00  6 1 -1 25 23 21 21 4 0.11982758D+00 0.75820365D-02 0.34222973D+05 0.34222973D+05 0.34222973D+05 0.12089409D+01  1  2 15  3  6  5       21 0.319113315535D-02 0.100000000000D+01
0.113878340635D-03 0.000000000000D+00 0.000000000000D+00 0.191065099972D-04 0.000000000000D+00  6 1 -1 25 23 21 21 4 0.11982758D+00 0.75820365D-02 0.33960112D+05 0.33960112D+05 0.33960112D+05 0.12092872D+01  1  2 12  3  6  5       21 0.542644043915D-01 0.100000000000D+01
0.764865030354D-04 0.000000000000D+00 0.000000000000D+00 0.191065099972D-04 0.000000000000D+00  6 1 -1 25 23 21 21 4 0.11982758D+00 0.75820365D-02 0.33960112D+05 0.33960112D+05 0.33960112D+05 0.12092872D+01  1  2 12  3  6  5       21 0.364467422697D-01 0.100000000000D+01
-.293244948671D-03 0.000000000000D+00 0.000000000000D+00 0.190955684293D-04 0.000000000000D+00  6 1 -1 25 23 21 21 4 0.11982758D+00 0.75820365D-02 0.34222973D+05 0.34222973D+05 0.34222973D+05 0.12089409D+01  1  2  4  3  6  5       21 -.139585226904D+00 0.100000000000D+01
-.215855808961D-03 0.000000000000D+00 0.000000000000D+00 0.190955684293D-04 0.000000000000D+00  6 1 -1 25 23 21 21 4 0.11982758D+00 0.75820365D-02 0.34222973D+05 0.34222973D+05 0.34222973D+05 0.12089409D+01  1  2  5  3  6  5       21 -.102747829788D+00 0.100000000000D+01
0.336906388539D-03 0.000000000000D+00 -.000000000000D+00 0.190955684293D-04 0.000000000000D+00  6 1 -1 25 23 21 21 4 0.11982758D+00 0.75820365D-02 0.34222973D+05 0.34222973D+05 0.34222973D+05 0.12089409D+01  1  2  6  3  6  5       21 0.160368166281D+00 0.100000000000D+01
0.245561806770D-05 0.000000000000D+00 0.000000000000D+00 0.191065099972D-04 0.000000000000D+00  6 1 -1 25 23 1 -1 4 0.11982758D+00 0.75820365D-02 0.33960112D+05 0.33960112D+05 0.33960112D+05 0.12092872D+01  1  2 12  6  6  5       21 0.117013166081D-02 0.100000000000D+01
0.181780460194D-05 0.000000000000D+00 0.000000000000D+00 0.191065099972D-04 0.000000000000D+00  6 1 -1 25 23 1 -1 4 0.11982758D+00 0.75820365D-02 0.33960112D+05 0.33960112D+05 0.33960112D+05 0.12092872D+01  1  2 12  6  6  5       21 0.866205842788D-03 0.100000000000D+01
-.269850992341D-05 0.000000000000D+00 0.000000000000D+00 0.190955684293D-04 0.000000000000D+00  6 1 -1 25 23 1 -1 4 0.11982758D+00 0.75820365D-02 0.34222973D+05 0.34222973D+05 0.34222973D+05 0.12089409D+01  1  2  5  6  6  5       21 -.128449653325D-02 0.100000000000D+01
0.245561806770D-05 0.000000000000D+00 0.000000000000D+00 0.191065099972D-04 0.000000000000D+00  6 1 -1 25 23 2 -2 4 0.11982758D+00 0.75820365D-02 0.33960112D+05 0.33960112D+05 0.33960112D+05 0.12092872D+01  1  2 12  7  6  5       21 0.117013166081D-02 0.100000000000D+01
0.245561806770D-05 0.000000000000D+00 0.000000000000D+00 0.191065099972D-04 0.000000000000D+00  6 1 -1 25 23 4 -4 4 0.11982758D+00 0.75820365D-02 0.33960112D+05 0.33960112D+05 0.33960112D+05 0.12092872D+01  1  2 12  7  6  5       21 0.117013166081D-02 0.100000000000D+01
0.181780460194D-05 0.000000000000D+00 0.000000000000D+00 0.191065099972D-04 0.000000000000D+00  6 1 -1 25 23 2 -2 4 0.11982758D+00 0.75820365D-02 0.33960112D+05 0.33960112D+05 0.33960112D+05 0.12092872D+01  1  2 12  7  6  5       21 0.866205842788D-03 0.100000000000D+01
0.181780460194D-05 0.000000000000D+00 0.000000000000D+00 0.191065099972D-04 0.000000000000D+00  6 1 -1 25 23 4 -4 4 0.11982758D+00 0.75820365D-02 0.33960112D+05 0.33960112D+05 0.33960112D+05 0.12092872D+01  1  2 12  7  6  5       21 0.866205842788D-03 0.100000000000D+01
-.269850992341D-05 0.000000000000D+00 0.000000000000D+00 0.190955684293D-04 0.000000000000D+00  6 1 -1 25 23 2 -2 4 0.11982758D+00 0.75820365D-02 0.34222973D+05 0.34222973D+05 0.34222973D+05 0.12089409D+01  1  2  5  7  6  5       21 -.128449653325D-02 0.100000000000D+01
-.269850992341D-05 0.000000000000D+00 0.000000000000D+00 0.190955684293D-04 0.000000000000D+00  6 1 -1 25 23 4 -4 4 0.11982758D+00 0.75820365D-02 0.34222973D+05 0.34222973D+05 0.34222973D+05 0.12089409D+01  1  2  5  7  6  5       21 -.128449653325D-02 0.100000000000D+01
0.245561806770D-05 0.000000000000D+00 0.000000000000D+00 0.191065099972D-04 0.000000000000D+00  6 1 -1 25 23 3 -3 4 0.11982758D+00 0.75820365D-02 0.33960112D+05 0.33960112D+05 0.33960112D+05 0.12092872D+01  1  2 12  8  6  5       21 0.117013166081D-02 0.100000000000D+01
0.181780460194D-05 0.000000000000D+00 0.000000000000D+00 0.191065099972D-04 0.000000000000D+00  6 1 -1 25 23 3 -3 4 0.11982758D+00 0.75820365D-02 0.33960112D+05 0.33960112D+05 0.33960112D+05 0.12092872D+01  1  2 12  8  6  5       21 0.866205842788D-03 0.100000000000D+01
-.269850992341D-05 0.000000000000D+00 0.000000000000D+00 0.190955684293D-04 0.000000000000D+00  6 1 -1 25 23 3 -3 4 0.11982758D+00 0.75820365D-02 0.34222973D+05 0.34222973D+05 0.34222973D+05 0.12089409D+01  1  2  5  8  6  5       21 -.128449653325D-02 0.100000000000D+01
  </mgrwgt>
  </event>
  <event>
  5     66 -.42989208E-03 0.29270612E+02 0.75467711E-02 0.11571860E+00
        1 -1    0    0  502    0 0.00000000E+00 0.00000000E+00 0.16235773E+04 0.16235773E+04 0.32000000E+00 0.0000E+00 0.9000E+01
       -1 -1    0    0    0  501 0.00000000E+00 0.00000000E+00 -.22294407E+02 0.22296703E+02 0.32000000E+00 0.0000E+00 0.9000E+01
       25  1    1    2    0    0 -.38142201E+02 0.64924962E+02 0.97343365E+03 0.98431100E+03 0.12500000E+03 0.0000E+00 0.9000E+01
       23  1    1    2    0    0 0.55932010E+02 -.41681537E+02 0.62095951E+03 0.63148373E+03 0.91188000E+02 0.0000E+00 0.9000E+01
       21  1    1    2  502  501 -.17789809E+02 -.23243426E+02 0.68897506E+01 0.30079317E+02 0.75000000E+00 0.0000E+00 0.9000E+01
#aMCatNLO 1  0  0  2  5 0.58648529D+02 0.00000000D+00  -5  6  0 0.00000000D+00 0.00000000D+00 0.00000000D+00 0.00000000D+00 0.00000000D+00
  <mgrwgt>
 -.1649774154D+00    5    4    0
 0.190259319148133D+03 0.000000000000000D+00 0.000000000000000D+00 0.190259319148133D+03
 0.190259319148133D+03 0.000000000000000D+00 0.000000000000000D+00 -.190259319148133D+03
 0.161120816764259D+03 -.381419934203787D+02 0.649252331815019D+02 0.682994877654977D+02
 0.118288330860613D+03 0.559321617566810D+02 -.416813380929071D+02 0.284804706737626D+02
 0.101109490671393D+03 -.177901683363022D+02 -.232438950885947D+02 -.967799584392603D+02
 0.000000000000000D+00 -.000000000000000D+00 0.000000000000000D+00 -.000000000000000D+00
 0.194704000476763D+03 0.000000000000000D+00 0.000000000000000D+00 0.194704000476763D+03
 0.221601521635980D+04 0.000000000000000D+00 0.000000000000000D+00 -.221601521635980D+04
 0.150203267434275D+03 -.326347835960484D+02 0.347299930685555D+02 0.682994877654977D+02
 0.130773356446226D+03 0.603379724241455D+02 -.658377648933782D+02 0.284804706737626D+02
 0.107011851093398D+03 -.141085774919236D+02 -.434295286652406D+02 -.967799584392603D+02
 0.202273074186266D+04 -.135946113361735D+02 0.745373004900632D+02 -.202131121588304D+04
 0.190259319148133D+03 0.000000000000000D+00 0.000000000000000D+00 0.190259319148133D+03
 0.190259319148133D+03 0.000000000000000D+00 0.000000000000000D+00 -.190259319148133D+03
 0.161120816764259D+03 -.381419934203787D+02 0.649252331815019D+02 0.682994877654977D+02
 0.118288330860613D+03 0.559321617566810D+02 -.416813380929071D+02 0.284804706737626D+02
 0.000000000000000D+00 -.000000000000000D+00 0.000000000000000D+00 -.000000000000000D+00
 0.101109490671393D+03 -.177901683363022D+02 -.232438950885947D+02 -.967799584392603D+02
 0.194704000476763D+03 0.000000000000000D+00 0.000000000000000D+00 0.194704000476763D+03
 0.221601521635980D+04 0.000000000000000D+00 0.000000000000000D+00 -.221601521635980D+04
 0.150203267434275D+03 -.326347835960484D+02 0.347299930685555D+02 0.682994877654977D+02
 0.130773356446226D+03 0.603379724241455D+02 -.658377648933782D+02 0.284804706737626D+02
 0.202273074186266D+04 -.135946113361735D+02 0.745373004900632D+02 -.202131121588304D+04
 0.107011851093398D+03 -.141085774919236D+02 -.434295286652406D+02 -.967799584392603D+02
0.324158104626D-04 0.000000000000D+00 0.000000000000D+00 0.236055025826D-04 0.000000000000D+00  6 1 -1 25 23 21 21 2 0.24978130D+00 0.34300878D-02 0.21026089D+05 0.21026089D+05 0.21026089D+05 0.12314411D+01  1  2  2  2  6  2       -1 0.903053860537D-02 0.100000000000D+01
0.395408151920D-05 0.171062931500D-05 -.124485247455D-06 0.236055025826D-04 0.000000000000D+00  6 1 -1 25 23 21 21 4 0.24978130D+00 0.34300878D-02 0.21026089D+05 0.21026089D+05 0.21026089D+05 0.12314411D+01  1  2  3  2  6  2       -1 0.167043529986D-02 0.100000000000D+01
0.789658492787D-06 0.000000000000D+00 0.000000000000D+00 0.236055025826D-04 0.000000000000D+00  6 1 -1 25 23 21 21 4 0.24978130D+00 0.34300878D-02 0.21026089D+05 0.21026089D+05 0.21026089D+05 0.12314411D+01  1  2 15  2  6  2       -1 0.333597932864D-03 0.100000000000D+01
-.478740518993D-02 0.000000000000D+00 -.394666363114D-04 0.236055025826D-04 0.000000000000D+00  6 1 -1 25 23 21 21 4 0.24978130D+00 0.40242643D-01 0.21026089D+05 0.21026089D+05 0.21026089D+05 0.12314411D+01  1  2  5  2  6  2       -1 -.429362927145D-01 0.100000000000D+01
-.138349343226D-02 0.000000000000D+00 -.113448899571D-04 0.236055025826D-04 0.000000000000D+00  6 1 21 25 23 1 21 4 0.24978130D+00 0.40242643D-01 0.21026089D+05 0.21026089D+05 0.21026089D+05 0.12314411D+01  3  4  5  5  5  2       -1 -.133075694536D+00 0.100000000000D+01
  </mgrwgt>
  </event>
  <event>
  5     66 0.42989208E-03 0.45497397E+02 0.75467711E-02 0.11423194E+00
        1 -1    0    0  502    0 0.00000000E+00 0.00000000E+00 0.12169567E+03 0.12169609E+03 0.32000000E+00 0.0000E+00 0.9000E+01
       -1 -1    0    0    0  501 -.00000000E+00 -.00000000E+00 -.46008949E+03 0.46008960E+03 0.32000000E+00 0.0000E+00 0.9000E+01
       25  1    1    2    0    0 0.59750878E+01 0.12645670E+03 -.14901815E+03 0.23207414E+03 0.12500000E+03 0.0000E+00 0.9000E+01
       23  1    1    2    0    0 -.46251649E+01 -.17193280E+03 -.22083702E+03 0.29439178E+03 0.91188000E+02 0.0000E+00 0.9000E+01
       21  1    1    2  502  501 -.13499229E+01 0.45476102E+02 0.31461340E+02 0.55319767E+02 0.75000000E+00 0.0000E+00 0.9000E+01
#aMCatNLO 1  0  0  5  1 0.11389435D+01 0.00000000D+00  -5  6  0 0.00000000D+00 0.00000000D+00 0.00000000D+00 0.00000000D+00 0.00000000D+00
  <mgrwgt>
 0.1324045197D+00   25    2    0
 0.236624283502086D+03 0.000000000000000D+00 0.000000000000000D+00 0.236624283502086D+03
 0.236624283502086D+03 -.000000000000000D+00 -.000000000000000D+00 -.236624283502086D+03
 0.178744211656501D+03 0.597510528681495D+01 0.126456110297985D+03 -.172523472553539D+02
 0.204001618749654D+03 -.462514492854096D+01 -.171933475438913D+03 -.609827612228728D+02
 0.905027365980169D+02 -.134996035827398D+01 0.454773651409273D+02 0.782351084782266D+02
 0.000000000000000D+00 0.000000000000000D+00 0.000000000000000D+00 0.000000000000000D+00
 0.236624283502086D+03 0.000000000000000D+00 0.000000000000000D+00 0.236624283502086D+03
 0.236624283502086D+03 -.000000000000000D+00 -.000000000000000D+00 -.236624283502086D+03
 0.178747585715238D+03 0.597491998292562D+01 0.126462352801764D+03 -.172416082215786D+02
 0.203991955612251D+03 -.462535640974614D+01 -.171926351075646D+03 -.609705051185163D+02
 0.614594765283223D+02 -.176881410885726D+01 0.302183765067321D+02 0.534882068598405D+02
 0.290495491483607D+02 0.419250535677783D+00 0.152456217671501D+02 0.247239064802543D+02
0.379827852237D-04 0.000000000000D+00 0.000000000000D+00 0.600517689742D-05 0.000000000000D+00  6 1 -1 25 23 21 21 2 0.18722451D-01 0.70783040D-01 0.43697835D+05 0.43697835D+05 0.43697835D+05 0.11981202D+01  1  2  2  3  6  5       21 0.318644987013D-02 0.100000000000D+01
0.325144655060D-05 0.200440664422D-05 -.145863896356D-06 0.600517689742D-05 0.000000000000D+00  6 1 -1 25 23 21 21 4 0.18722451D-01 0.70783040D-01 0.43697835D+05 0.43697835D+05 0.43697835D+05 0.11981202D+01  1  2  3  3  6  5       21 0.391559418850D-03 0.100000000000D+01
0.628544634582D-06 0.000000000000D+00 0.000000000000D+00 0.600517689742D-05 0.000000000000D+00  6 1 -1 25 23 21 21 4 0.18722451D-01 0.70783040D-01 0.43697835D+05 0.43697835D+05 0.43697835D+05 0.11981202D+01  1  2 15  3  6  5       21 0.756932546817D-04 0.100000000000D+01
0.246849524792D-06 0.000000000000D+00 0.000000000000D+00 0.600513034663D-05 0.000000000000D+00  6 1 -1 25 23 21 21 4 0.18722451D-01 0.70783040D-01 0.43702483D+05 0.43702483D+05 0.43702483D+05 0.11981155D+01  1  2 12  3  6  5       21 0.297266991934D-04 0.100000000000D+01
0.247194571953D-06 0.000000000000D+00 0.000000000000D+00 0.600513034663D-05 0.000000000000D+00  6 1 -1 25 23 21 21 4 0.18722451D-01 0.70783040D-01 0.43702483D+05 0.43702483D+05 0.43702483D+05 0.11981155D+01  1  2 12  3  6  5       21 0.297682512813D-04 0.100000000000D+01
-.255114470727D-01 0.000000000000D+00 0.000000000000D+00 0.600517689742D-05 0.000000000000D+00  6 1 -1 25 23 21 21 4 0.18722451D-01 0.70783040D-01 0.43697835D+05 0.43697835D+05 0.43697835D+05 0.11981202D+01  1  2  4  3  6  5       21 -.307224714735D+01 0.100000000000D+01
-.182837850386D-01 0.000000000000D+00 0.000000000000D+00 0.600517689742D-05 0.000000000000D+00  6 1 -1 25 23 21 21 4 0.18722451D-01 0.70783040D-01 0.43697835D+05 0.43697835D+05 0.43697835D+05 0.11981202D+01  1  2  5  3  6  5       21 -.220184712640D+01 0.100000000000D+01
0.271420725569D-01 0.000000000000D+00 -.000000000000D+00 0.600517689742D-05 0.000000000000D+00  6 1 -1 25 23 21 21 4 0.18722451D-01 0.70783040D-01 0.43697835D+05 0.43697835D+05 0.43697835D+05 0.11981202D+01  1  2  6  3  6  5       21 0.326861721126D+01 0.100000000000D+01
0.177620569595D-01 0.000000000000D+00 0.000000000000D+00 0.600517689742D-05 0.233977870294D-04  6 1 -1 25 23 21 21 4 0.18722451D-01 0.70783040D-01 0.43702483D+05 0.43702483D+05 0.43702483D+05 0.11981155D+01  1  2 11  3  6  5       21 0.213898456858D+01 0.100000000000D+01
0.573181316986D-08 0.000000000000D+00 0.000000000000D+00 0.600513034663D-05 0.000000000000D+00  6 1 -1 25 23 1 -1 4 0.18722451D-01 0.70783040D-01 0.43702483D+05 0.43702483D+05 0.43702483D+05 0.11981155D+01  1  2 12  6  6  5       21 0.690250005855D-06 0.100000000000D+01
0.573819530983D-08 0.000000000000D+00 0.000000000000D+00 0.600513034663D-05 0.000000000000D+00  6 1 -1 25 23 1 -1 4 0.18722451D-01 0.70783040D-01 0.43702483D+05 0.43702483D+05 0.43702483D+05 0.11981155D+01  1  2 12  6  6  5       21 0.691018571057D-06 0.100000000000D+01
-.423228572490D-03 0.000000000000D+00 0.000000000000D+00 0.600517689742D-05 0.000000000000D+00  6 1 -1 25 23 1 -1 4 0.18722451D-01 0.70783040D-01 0.43697835D+05 0.43697835D+05 0.43697835D+05 0.11981202D+01  1  2  5  6  6  5       21 -.509678173410D-01 0.100000000000D+01
0.413741874756D-03 0.000000000000D+00 0.000000000000D+00 0.600517689742D-05 0.896254984067D-06  6 1 -1 25 23 1 -1 4 0.18722451D-01 0.70783040D-01 0.43702483D+05 0.43702483D+05 0.43702483D+05 0.11981155D+01  1  2 11  6  6  5       21 0.498246057590D-01 0.100000000000D+01
0.573181316986D-08 0.000000000000D+00 0.000000000000D+00 0.600513034663D-05 0.000000000000D+00  6 1 -1 25 23 2 -2 4 0.18722451D-01 0.70783040D-01 0.43702483D+05 0.43702483D+05 0.43702483D+05 0.11981155D+01  1  2 12  7  6  5       21 0.690250005855D-06 0.100000000000D+01
0.573181316986D-08 0.000000000000D+00 0.000000000000D+00 0.600513034663D-05 0.000000000000D+00  6 1 -1 25 23 4 -4 4 0.18722451D-01 0.70783040D-01 0.43702483D+05 0.43702483D+05 0.43702483D+05 0.11981155D+01  1  2 12  7  6  5       21 0.690250005855D-06 0.100000000000D+01
0.573819530983D-08 0.000000000000D+00 0.000000000000D+00 0.600513034663D-05 0.000000000000D+00  6 1 -1 25 23 2 -2 4 0.18722451D-01 0.70783040D-01 0.43702483D+05 0.43702483D+05 0.43702483D+05 0.11981155D+01  1  2 12  7  6  5       21 0.691018571057D-06 0.100000000000D+01
0.573819530983D-08 0.000000000000D+00 0.000000000000D+00 0.600513034663D-05 0.000000000000D+00  6 1 -1 25 23 4 -4 4 0.18722451D-01 0.70783040D-01 0.43702483D+05 0.43702483D+05 0.43702483D+05 0.11981155D+01  1  2 12  7  6  5       21 0.691018571057D-06 0.100000000000D+01
-.423228572490D-03 0.000000000000D+00 0.000000000000D+00 0.600517689742D-05 0.000000000000D+00  6 1 -1 25 23 2 -2 4 0.18722451D-01 0.70783040D-01 0.43697835D+05 0.43697835D+05 0.43697835D+05 0.11981202D+01  1  2  5  7  6  5       21 -.509678173410D-01 0.100000000000D+01
-.423228572490D-03 0.000000000000D+00 0.000000000000D+00 0.600517689742D-05 0.000000000000D+00  6 1 -1 25 23 4 -4 4 0.18722451D-01 0.70783040D-01 0.43697835D+05 0.43697835D+05 0.43697835D+05 0.11981202D+01  1  2  5  7  6  5       21 -.509678173410D-01 0.100000000000D+01
0.413069744507D-03 0.000000000000D+00 0.000000000000D+00 0.600517689742D-05 0.894739719750D-06  6 1 -1 25 23 2 -2 4 0.18722451D-01 0.70783040D-01 0.43702483D+05 0.43702483D+05 0.43702483D+05 0.11981155D+01  1  2 11  7  6  5       21 0.497436648954D-01 0.100000000000D+01
0.413069744507D-03 0.000000000000D+00 0.000000000000D+00 0.600517689742D-05 0.894739719750D-06  6 1 -1 25 23 4 -4 4 0.18722451D-01 0.70783040D-01 0.43702483D+05 0.43702483D+05 0.43702483D+05 0.11981155D+01  1  2 11  7  6  5       21 0.497436648954D-01 0.100000000000D+01
0.573181316986D-08 0.000000000000D+00 0.000000000000D+00 0.600513034663D-05 0.000000000000D+00  6 1 -1 25 23 3 -3 4 0.18722451D-01 0.70783040D-01 0.43702483D+05 0.43702483D+05 0.43702483D+05 0.11981155D+01  1  2 12  8  6  5       21 0.690250005855D-06 0.100000000000D+01
0.573819530983D-08 0.000000000000D+00 0.000000000000D+00 0.600513034663D-05 0.000000000000D+00  6 1 -1 25 23 3 -3 4 0.18722451D-01 0.70783040D-01 0.43702483D+05 0.43702483D+05 0.43702483D+05 0.11981155D+01  1  2 12  8  6  5       21 0.691018571057D-06 0.100000000000D+01
-.423228572490D-03 0.000000000000D+00 0.000000000000D+00 0.600517689742D-05 0.000000000000D+00  6 1 -1 25 23 3 -3 4 0.18722451D-01 0.70783040D-01 0.43697835D+05 0.43697835D+05 0.43697835D+05 0.11981202D+01  1  2  5  8  6  5       21 -.509678173410D-01 0.100000000000D+01
0.413019587855D-03 0.000000000000D+00 0.000000000000D+00 0.600517689742D-05 0.894631076721D-06  6 1 -1 25 23 3 -3 4 0.18722451D-01 0.70783040D-01 0.43702483D+05 0.43702483D+05 0.43702483D+05 0.11981155D+01  1  2 11  8  6  5       21 0.497376248121D-01 0.100000000000D+01
  </mgrwgt>
  </event>
  <event>
  6     66 0.42989208E-03 0.26274651E+02 0.75467711E-02 0.12056173E+00
        1 -1    0    0  502    0 0.00000000E+00 0.00000000E+00 0.45350332E+03 0.45350343E+03 0.32000000E+00 0.0000E+00 0.9000E+01
       21 -1    0    0  503  501 0.00000000E+00 0.00000000E+00 -.80166811E+02 0.80170319E+02 0.75000000E+00 0.0000E+00 0.9000E+01
       25  1    1    2    0    0 -.46242321E+02 0.42069415E+02 0.24770690E+03 0.28441501E+03 0.12500000E+03 0.0000E+00 0.9000E+01
       23  1    1    2    0    0 0.29027196E+02 -.34461356E+02 0.15358489E+03 0.18421111E+03 0.91188000E+02 0.0000E+00 0.9000E+01
        1  1    1    2  503    0 0.33199146E+02 -.85596223E+01 -.33646051E+02 0.48037585E+02 0.32000000E+00 0.0000E+00 0.9000E+01
       21  1    1    2  502  501 -.15984021E+02 0.95156319E+00 0.56907686E+01 0.17010048E+02 0.75000000E+00 0.0000E+00 0.9000E+01
#aMCatNLO 2  0  0  2  5 0.63173090D+02 0.00000000D+00  -5  6  0 0.00000000D+00 0.00000000D+00 0.00000000D+00 0.00000000D+00 0.00000000D+00
  <mgrwgt>
 0.8854215011D-01    1    2    0
 0.131369927766669D+03 0.000000000000000D+00 0.000000000000000D+00 0.131369927766669D+03
 0.131369927766669D+03 0.000000000000000D+00 0.000000000000000D+00 -.131369927766669D+03
 0.134788987542369D+03 -.288993238674486D+02 0.375990108980195D+02 0.171526855679209D+02
 0.107377023272686D+03 0.421856158243650D+02 -.378530849549624D+02 -.144622260195889D+01
 0.000000000000000D+00 0.000000000000000D+00 -.000000000000000D+00 -.000000000000000D+00
 0.205738447182817D+02 -.132862919569163D+02 0.254074056942883D+00 -.157064629659621D+02
 0.134619491629516D+03 0.000000000000000D+00 0.000000000000000D+00 0.134619491629516D+03
 0.270070723634864D+03 0.000000000000000D+00 0.000000000000000D+00 -.270070723634864D+03
 0.140808265651300D+03 -.462377150609111D+02 0.420693089969534D+02 0.171526855679209D+02
 0.101723690876669D+03 0.290306589489198D+02 -.344613874176480D+02 -.144622260195889D+01
 0.139722892512904D+03 0.331991461695398D+02 -.855962230589658D+01 -.135451232005348D+03
 0.224353662235069D+02 -.159920900575485D+02 0.951700726591201D+00 -.157064629659621D+02
0.121476228918D-04 0.000000000000D+00 0.000000000000D+00 0.982707152289D-04 0.661495507810D-07  6 1 21 25 23 1 21 4 0.69769926D-01 0.12333618D-01 0.21283638D+05 0.21283638D+05 0.21283638D+05 0.12308629D+01  1  2  1  5  5  2       -1 0.885421501105D-01 0.100000000000D+01
  </mgrwgt>
  </event>
  <event>
  5     66 0.42989208E-03 0.92713609E+02 0.75467711E-02 0.11350512E+00
        1 -1    0    0  502    0 0.00000000E+00 0.00000000E+00 0.18607862E+04 0.18607862E+04 0.32000000E+00 0.0000E+00 0.9000E+01
       -1 -1    0    0    0  501 0.00000000E+00 0.00000000E+00 -.58663416E+02 0.58664289E+02 0.32000000E+00 0.0000E+00 0.9000E+01
       25  1    1    2    0    0 -.12973135E+03 0.80987132E+02 0.57859194E+03 0.61137777E+03 0.12500000E+03 0.0000E+00 0.9000E+01
       23  1    1    2    0    0 0.40811790E+02 0.23021845E+02 0.30138370E+02 0.10686056E+03 0.91188000E+02 0.0000E+00 0.9000E+01
       21  1    1    2  502  501 0.88919562E+02 -.10400898E+03 0.11933925E+04 0.12012122E+04 0.75000000E+00 0.0000E+00 0.9000E+01
#aMCatNLO 1  0  0  2  5 0.63173090D+02 0.00000000D+00  -5  6  0 0.00000000D+00 0.00000000D+00 0.00000000D+00 0.00000000D+00 0.00000000D+00
  <mgrwgt>
 0.7618662032D-02    1    2    0
 0.330395126451573D+03 0.000000000000000D+00 0.000000000000000D+00 0.330395126451573D+03
 0.330395126451573D+03 0.000000000000000D+00 0.000000000000000D+00 -.330395126451573D+03
 0.197968627816503D+03 -.129731488647538D+03 0.809872908440440D+02 0.133183022410943D+02
 0.228212682885231D+03 0.408116331750274D+02 0.230220285044813D+02 -.203887650648098D+03
 0.234608942201413D+03 0.889198554725110D+02 -.104009319348525D+03 0.190569348407004D+03
 0.000000000000000D+00 0.000000000000000D+00 0.000000000000000D+00 0.000000000000000D+00
 0.422062770341137D+03 0.000000000000000D+00 0.000000000000000D+00 0.422062770341137D+03
 0.396386926654250D+03 0.000000000000000D+00 0.000000000000000D+00 -.396386926654250D+03
 0.227711898953978D+03 -.174175216514278D+03 0.755865444563111D+02 0.133183022410943D+02
 0.224109955636285D+03 -.641369894653109D+01 0.172832650364449D+02 -.203887650648098D+03
 0.223750767621145D+03 0.410642150865571D+02 -.109824677090838D+03 0.190569348407004D+03
 0.142877074783979D+03 0.139524700374252D+03 0.169548675980821D+02 0.256758436868875D+02
0.124522108244D-03 0.000000000000D+00 0.000000000000D+00 0.843171733567D-06 0.000000000000D+00  6 1 -1 25 23 21 21 4 0.28627487D+00 0.90252101D-02 0.47716194D+05 0.47716194D+05 0.47716194D+05 0.11942979D+01  1  2 14  2  6  2       -1 0.761866203212D-02 0.100000000000D+01
  </mgrwgt>
  </event>
  <event>
  6     66 0.42989208E-03 0.16399380E+02 0.75467711E-02 0.11938155E+00
        1 -1    0    0  502    0 0.00000000E+00 0.00000000E+00 0.65300480E+03 0.65300488E+03 0.32000000E+00 0.0000E+00 0.9000E+01
       -1 -1    0    0    0  503 0.00000000E+00 0.00000000E+00 -.60741242E+02 0.60742085E+02 0.32000000E+00 0.0000E+00 0.9000E+01
       25  1    1    2    0    0 -.14138185E+02 -.75040726E+02 0.42483744E+03 0.44938051E+03 0.12500000E+03 0.0000E+00 0.9000E+01
       23  1    1    2    0    0 0.41603494E+01 0.97847633E+02 0.17783671E+03 0.22255924E+03 0.91188000E+02 0.0000E+00 0.9000E+01
       21  1    1    2  502  501 0.94456090E+01 -.16131709E+01 0.89156969E+01 0.13110072E+02 0.75000000E+00 0.0000E+00 0.9000E+01
       21  1    1    2  501  503 0.53222609E+00 -.21193736E+02 -.19326288E+02 0.28697136E+02 0.75000000E+00 0.0000E+00 0.9000E+01
#aMCatNLO 2  0  0  2  5 0.52108775D+00 0.00000000D+00  -5  6  0 0.00000000D+00 0.00000000D+00 0.00000000D+00 0.00000000D+00 0.00000000D+00
  <mgrwgt>
 0.1574967827D+00    1    2    0
 0.153949397444052D+03 0.000000000000000D+00 0.000000000000000D+00 0.153949397444052D+03
 0.153949397444052D+03 0.000000000000000D+00 0.000000000000000D+00 -.153949397444052D+03
 0.161108698270247D+03 -.138751933655896D+02 -.859251318561681D+02 0.524915553484669D+02
 0.135204347277197D+03 0.439056842850154D+01 0.883344639964162D+02 -.462894108624564D+02
 0.115857493406605D+02 0.948462493708807D+01 -.240933214024817D+01 -.620214448601044D+01
 0.000000000000000D+00 0.000000000000000D+00 -.000000000000000D+00 -.000000000000000D+00
 0.155427766835992D+03 0.000000000000000D+00 0.000000000000000D+00 0.155427766835992D+03
 0.255192191308174D+03 0.000000000000000D+00 0.000000000000000D+00 -.255192191308174D+03
 0.155599618447555D+03 -.141485966977095D+02 -.750379576588346D+02 0.524915553484669D+02
 0.141597248839922D+03 0.415161518755472D+01 0.978498036195061D+02 -.462894108624564D+02
 0.114309435416923D+02 0.946475542247086D+01 -.161810964425043D+01 -.620214448601044D+01
 0.101992147314997D+03 0.532226087683953D+00 -.211937363164211D+02 -.997644244721816D+02
0.335326672949D-03 0.000000000000D+00 0.000000000000D+00 0.123595902001D-03 0.143428183867D-05  6 1 -1 25 23 21 21 4 0.10046146D+00 0.93447950D-02 0.24195499D+05 0.24195499D+05 0.24195499D+05 0.12248236D+01  1  2  1  2  6  2       -1 0.157496782724D+00 0.100000000000D+01
  </mgrwgt>
  </event>
  <event>
  6     66 0.42989208E-03 0.27307360E+02 0.75467711E-02 0.12115468E+00
        1 -1    0    0  502    0 0.00000000E+00 0.00000000E+00 0.21325067E+04 0.21325068E+04 0.32000000E+00 0.0000E+00 0.9000E+01
       -1 -1    0    0    0  503 0.00000000E+00 0.00000000E+00 -.22443342E+02 0.22445624E+02 0.32000000E+00 0.0000E+00 0.9000E+01
       25  1    1    2    0    0 -.28737166E+02 -.14200410E+02 0.93537325E+03 0.94423281E+03 0.12500000E+03 0.0000E+00 0.9000E+01
       23  1    1    2    0    0 -.23618776E+02 0.25040566E+02 0.99647010E+03 0.10012256E+04 0.91188000E+02 0.0000E+00 0.9000E+01
       21  1    1    2  502  501 0.33632543E+02 -.15221828E+02 0.18533456E+03 0.18897702E+03 0.75000000E+00 0.0000E+00 0.9000E+01
       21  1    1    2  501  503 0.18723399E+02 0.43816715E+01 -.71145212E+01 0.20516911E+02 0.75000000E+00 0.0000E+00 0.9000E+01
#aMCatNLO 2  0  0  2  5 0.19229267D+02 0.00000000D+00  -5  6  0 0.00000000D+00 0.00000000D+00 0.00000000D+00 0.00000000D+00 0.00000000D+00
  <mgrwgt>
 0.1402200664D-01    2    2    0
 0.135095060077174D+03 0.000000000000000D+00 0.000000000000000D+00 0.135095060077174D+03
 0.135095060077174D+03 0.000000000000000D+00 0.000000000000000D+00 -.135095060077174D+03
 0.127510921470551D+03 -.198493059770267D+02 -.121187804559923D+02 -.965273571371469D+01
 0.999842537811045D+02 -.166672983705587D+02 0.266686774531417D+02 0.263169616044744D+02
 0.426949449026933D+02 0.365166043475854D+02 -.145498969971494D+02 -.166642258907597D+02
 0.000000000000000D+00 0.000000000000000D+00 0.000000000000000D+00 -.000000000000000D+00
 0.135863054764544D+03 0.000000000000000D+00 0.000000000000000D+00 0.135863054764544D+03
 0.352285675183370D+03 0.000000000000000D+00 0.000000000000000D+00 -.352285675183370D+03
 0.129405470302326D+03 -.287398461384431D+02 -.141993549623227D+02 -.965273571371469D+01
 0.100959658301937D+03 -.236209221087658D+02 0.250413823716668D+02 0.263169616044744D+02
 0.405083948995766D+02 0.336373694767719D+02 -.152236988765841D+02 -.166642258907597D+02
 0.217275206444074D+03 0.187233987704369D+02 0.438167146724008D+01 -.216422620418826D+03
-.362265473102D-03 0.000000000000D+00 0.000000000000D+00 0.126184823803D-04 0.000000000000D+00  6 1 -1 25 23 21 21 4 0.32622206D+00 0.34999199D-02 0.19974953D+05 0.19974953D+05 0.19974953D+05 0.12338860D+01  1  2 13  2  6  2       -1 -.722195956372D-01 0.100000000000D+01
0.431722608620D-03 0.000000000000D+00 0.000000000000D+00 0.127618390197D-04 0.246008300021D-06  6 1 -1 25 23 21 21 4 0.32807658D+00 0.34529828D-02 0.19974953D+05 0.19974953D+05 0.19974953D+05 0.12338860D+01  1  2  1  2  6  2       -1 0.862416022763D-01 0.100000000000D+01
  </mgrwgt>
  </event>
  <event>
  5     66 0.42989208E-03 0.31711726E+02 0.75467711E-02 0.10871322E+00
        3 -1    0    0  502    0 0.00000000E+00 0.00000000E+00 0.35454661E+02 0.35458186E+02 0.50000000E+00 0.0000E+00 0.9000E+01
       -3 -1    0    0    0  501 0.00000000E+00 0.00000000E+00 -.10334279E+04 0.10334280E+04 0.50000000E+00 0.0000E+00 0.9000E+01
       25  1    1    2    0    0 0.79709451E+02 -.19448234E+01 -.65670031E+03 0.67322929E+03 0.12500000E+03 0.0000E+00 0.9000E+01
       23  1    1    2    0    0 -.68375982E+02 0.31558718E+02 -.10774782E+03 0.15998772E+03 0.91188000E+02 0.0000E+00 0.9000E+01
       21  1    1    2  502  501 -.11333470E+02 -.29613894E+02 -.23352508E+03 0.23566916E+03 0.75000000E+00 0.0000E+00 0.9000E+01
#aMCatNLO 1  0  0  2  5 0.22972967D+03 0.00000000D+00  -5  6  0 0.00000000D+00 0.00000000D+00 0.00000000D+00 0.00000000D+00 0.00000000D+00
  <mgrwgt>
 0.1494709233D-01    5    4    0
 0.191420437123297D+03 0.000000000000000D+00 0.000000000000000D+00 0.191420437123297D+03
 0.191420437123297D+03 0.000000000000000D+00 0.000000000000000D+00 -.191420437123297D+03
 0.167787520632316D+03 0.797100274810391D+02 -.194331770123564D+01 -.785505386055622D+02
 0.165812375523375D+03 -.683754121321829D+02 0.315602056718403D+02 0.116220690784429D+03
 0.492409780909038D+02 -.113346153488562D+02 -.296168879706047D+02 -.376701521788669D+02
 0.000000000000000D+00 -.000000000000000D+00 -.000000000000000D+00 -.000000000000000D+00
 0.278409329315088D+03 0.000000000000000D+00 0.000000000000000D+00 0.278409329315088D+03
 0.462388784509739D+03 0.000000000000000D+00 0.000000000000000D+00 -.462388784509739D+03
 0.227817590893316D+03 0.155280443330952D+03 0.774186768432087D+02 -.785505386055622D+02
 0.178795410977344D+03 -.254675377499633D+01 0.100691671559058D+03 0.116220690784429D+03
 0.398652815925578D+02 0.568689651468114D+01 -.117413593466108D+02 -.376701521788669D+02
 0.294319830361608D+03 -.158420586070637D+03 -.166368989055656D+03 -.183979455194651D+03
 0.191420437123297D+03 0.000000000000000D+00 0.000000000000000D+00 0.191420437123297D+03
 0.191420437123297D+03 0.000000000000000D+00 0.000000000000000D+00 -.191420437123297D+03
 0.167787520632316D+03 0.797100274810391D+02 -.194331770123564D+01 -.785505386055622D+02
 0.165812375523375D+03 -.683754121321829D+02 0.315602056718403D+02 0.116220690784429D+03
 0.000000000000000D+00 -.000000000000000D+00 -.000000000000000D+00 -.000000000000000D+00
 0.492409780909038D+02 -.113346153488562D+02 -.296168879706047D+02 -.376701521788669D+02
 0.278409329315088D+03 0.000000000000000D+00 0.000000000000000D+00 0.278409329315088D+03
 0.462388784509739D+03 0.000000000000000D+00 0.000000000000000D+00 -.462388784509739D+03
 0.227817590893316D+03 0.155280443330952D+03 0.774186768432087D+02 -.785505386055622D+02
 0.178795410977344D+03 -.254675377499633D+01 0.100691671559058D+03 0.116220690784429D+03
 0.294319830361608D+03 -.158420586070637D+03 -.166368989055656D+03 -.183979455194651D+03
 0.398652815925578D+02 0.568689651468114D+01 -.117413593466108D+02 -.376701521788669D+02
0.609826755287D-03 0.000000000000D+00 0.000000000000D+00 0.941597412198D-05 0.000000000000D+00  6 3 -3 25 23 21 21 2 0.54548437D-02 0.15898918D+00 0.22236936D+05 0.22236936D+05 0.22236936D+05 0.12287889D+01  1  2  2  2  6  2       -3 0.128076309017D-01 0.100000000000D+01
0.484605809877D-04 0.321814420117D-04 -.234189531137D-05 0.941597412198D-05 0.000000000000D+00  6 3 -3 25 23 21 21 4 0.54548437D-02 0.15898918D+00 0.22236936D+05 0.22236936D+05 0.22236936D+05 0.12287889D+01  1  2  3  2  6  2       -3 0.153675801871D-02 0.100000000000D+01
0.162957294440D-04 0.000000000000D+00 0.000000000000D+00 0.941597412198D-05 0.000000000000D+00  6 3 -3 25 23 21 21 4 0.54548437D-02 0.15898918D+00 0.22236936D+05 0.22236936D+05 0.22236936D+05 0.12287889D+01  1  2 15  2  6  2       -3 0.516762126730D-03 0.100000000000D+01
-.303785284957D-04 0.000000000000D+00 -.237660933564D-03 0.941597412198D-05 0.000000000000D+00  6 3 -3 25 23 21 21 4 0.54548437D-02 0.44044350D+00 0.22236936D+05 0.22236936D+05 0.22236936D+05 0.12287889D+01  1  2  5  2  6  2       -3 -.271471360421D-04 0.100000000000D+01
0.997080974771D-05 0.000000000000D+00 -.271408338938D-04 0.941597412198D-05 0.000000000000D+00  6 3 21 25 23 3 21 4 0.54548437D-02 0.44044350D+00 0.22236936D+05 0.22236936D+05 0.22236936D+05 0.12287889D+01  3  4  5  5  5  2       -3 0.113088423525D-03 0.100000000000D+01
  </mgrwgt>
  </event>
  <event>
  5     66 0.42989208E-03 0.22013477E+02 0.75467711E-02 0.12221865E+00
        1 -1    0    0  502    0 0.00000000E+00 0.00000000E+00 0.13607189E+04 0.13607189E+04 0.32000000E+00 0.0000E+00 0.9000E+01
       -1 -1    0    0    0  501 0.00000000E+00 0.00000000E+00 -.15382135E+02 0.15385463E+02 0.32000000E+00 0.0000E+00 0.9000E+01
       25  1    1    2    0    0 0.29682139E+01 0.58345242E+02 0.95576464E+03 0.96567284E+03 0.12500000E+03 0.0000E+00 0.9000E+01
       23  1    1    2    0    0 0.18251798E+02 -.52520038E+02 0.33383098E+03 0.35049944E+03 0.91188000E+02 0.0000E+00 0.9000E+01
       21  1    1    2  502  501 -.21220012E+02 -.58252035E+01 0.55741131E+02 0.59932112E+02 0.75000000E+00 0.0000E+00 0.9000E+01
#aMCatNLO 1  0  0  1  5 0.43620936D+00 0.00000000D+00  -5  6  0 0.00000000D+00 0.00000000D+00 0.00000000D+00 0.00000000D+00 0.00000000D+00
  <mgrwgt>
 0.2183180088D-01    9    4    0
 0.144682678612172D+03 0.000000000000000D+00 0.000000000000000D+00 0.144682678612172D+03
 0.144682678612172D+03 0.000000000000000D+00 0.000000000000000D+00 -.144682678612172D+03
 0.148745573159611D+03 0.297280527866640D+01 0.583465022271496D+02 0.555616202176787D+02
 0.114763305178993D+03 0.182553403144904D+02 -.525190658509828D+02 -.419982754854171D+02
 0.258564788857398D+02 -.212281455931568D+02 -.582743637616683D+01 -.135633447322616D+02
 0.000000000000000D+00 0.000000000000000D+00 -.000000000000000D+00 0.000000000000000D+00
 0.160225317441254D+03 0.000000000000000D+00 0.000000000000000D+00 0.160225317441254D+03
 0.144685903627862D+03 0.000000000000000D+00 0.000000000000000D+00 -.144685903627862D+03
 0.148820597812678D+03 0.286449425939156D+01 0.585429019160082D+02 0.555616202176787D+02
 0.114680818727722D+03 0.181718250182262D+02 -.523676280904388D+02 -.419982754854171D+02
 0.258642694698371D+02 -.212469714124821D+02 -.579329963659265D+01 -.135633447322616D+02
 0.155455350588783D+02 0.210652134864372D+00 -.381974188976728D+00 0.155394138133923D+02
 0.144682678612172D+03 0.000000000000000D+00 0.000000000000000D+00 0.144682678612172D+03
 0.144682678612172D+03 0.000000000000000D+00 0.000000000000000D+00 -.144682678612172D+03
 0.148745573159611D+03 0.297280527866640D+01 0.583465022271496D+02 0.555616202176787D+02
 0.114763305178993D+03 0.182553403144904D+02 -.525190658509828D+02 -.419982754854171D+02
 0.000000000000000D+00 0.000000000000000D+00 -.000000000000000D+00 0.000000000000000D+00
 0.258564788857398D+02 -.212281455931568D+02 -.582743637616683D+01 -.135633447322616D+02
 0.160225317441254D+03 0.000000000000000D+00 0.000000000000000D+00 0.160225317441254D+03
 0.144685903627862D+03 0.000000000000000D+00 0.000000000000000D+00 -.144685903627862D+03
 0.148820597812678D+03 0.286449425939156D+01 0.585429019160082D+02 0.555616202176787D+02
 0.114680818727722D+03 0.181718250182262D+02 -.523676280904388D+02 -.419982754854171D+02
 0.155455350588783D+02 0.210652134864372D+00 -.381974188976728D+00 0.155394138133923D+02
 0.258642694698371D+02 -.212469714124821D+02 -.579329963659265D+01 -.135633447322616D+02
0.188160174327D-05 0.000000000000D+00 0.000000000000D+00 0.298324957257D-04 0.000000000000D+00  6 1 -1 25 23 21 21 2 0.20934163D+00 0.23667412D-02 0.17794856D+05 0.17794856D+05 0.17794856D+05 0.12394510D+01  1  2  2  1  6  1        1 0.134875811409D-02 0.100000000000D+01
0.352403686987D-06 0.992948519643D-07 -.722584613127D-08 0.298324957257D-04 0.000000000000D+00  6 1 -1 25 23 21 21 4 0.20934163D+00 0.23667412D-02 0.17794856D+05 0.17794856D+05 0.17794856D+05 0.12394510D+01  1  2  3  1  6  1        1 0.388065938831D-03 0.100000000000D+01
0.257631776297D-07 0.000000000000D+00 0.000000000000D+00 0.298324957257D-04 0.000000000000D+00  6 1 -1 25 23 21 21 4 0.20934163D+00 0.23667412D-02 0.17794856D+05 0.17794856D+05 0.17794856D+05 0.12394510D+01  1  2 15  1  6  1        1 0.283703380053D-04 0.100000000000D+01
-.112006477186D-01 0.000000000000D+00 0.000000000000D+00 0.298324957257D-04 0.000000000000D+00  6 1 -1 25 23 21 21 4 0.20934163D+00 0.23667412D-02 0.17794856D+05 0.17794856D+05 0.17794856D+05 0.12394510D+01  1  2  4  1  6  1        1 -.123341214435D+02 0.100000000000D+01
-.113244432212D-01 0.000000000000D+00 -.492998994883D-05 0.298324957257D-04 0.000000000000D+00  6 1 -1 25 23 21 21 4 0.23183218D+00 0.23667412D-02 0.17794856D+05 0.17794856D+05 0.17794856D+05 0.12394510D+01  1  2  5  1  6  1        1 -.100084872654D+02 0.100000000000D+01
0.112662606785D-01 0.000000000000D+00 0.490443177794D-05 0.298324957257D-04 0.000000000000D+00  6 1 -1 25 23 21 21 4 0.20934163D+00 0.23667412D-02 0.17794856D+05 0.17794856D+05 0.17794856D+05 0.12394510D+01  1  2  6  1  6  1        1 0.124063742485D+02 0.100000000000D+01
0.112714585235D-01 0.000000000000D+00 0.000000000000D+00 0.298324957257D-04 0.643230228218D-03  6 1 -1 25 23 21 21 4 0.23183030D+00 0.23667940D-02 0.17853278D+05 0.17853278D+05 0.17853278D+05 0.12392921D+01  1  2 11  1  6  1        1 0.995678851523D+01 0.100000000000D+01
-.187160399583D-03 0.000000000000D+00 -.814858727700D-07 0.298324957257D-04 0.000000000000D+00  6 21 -1 25 23 -1 21 4 0.23183218D+00 0.23667412D-02 0.17794856D+05 0.17794856D+05 0.17794856D+05 0.12394510D+01  3  4  5  4  5  1        1 -.182185887968D+00 0.100000000000D+01
0.186780193016D-03 0.000000000000D+00 0.000000000000D+00 0.298324957257D-04 0.213179650299D-04  6 21 -1 25 23 -1 21 4 0.23183030D+00 0.23667940D-02 0.17853278D+05 0.17853278D+05 0.17853278D+05 0.12392921D+01  3  4 11  4  5  1        1 0.181698439690D+00 0.100000000000D+01
  </mgrwgt>
  </event>
  <event>
  5     66 0.42989208E-03 0.25890790E+02 0.75467711E-02 0.99678509E-01
        1 -1    0    0  502    0 0.00000000E+00 0.00000000E+00 0.17842726E+04 0.17842727E+04 0.32000000E+00 0.0000E+00 0.9000E+01
       -1 -1    0    0    0  501 0.00000000E+00 0.00000000E+00 -.41217959E+02 0.41219201E+02 0.32000000E+00 0.0000E+00 0.9000E+01
       25  1    1    2    0    0 -.22743670E+02 -.17037437E+02 0.79400990E+02 0.15078815E+03 0.12500000E+03 0.0000E+00 0.9000E+01
       23  1    1    2    0    0 0.29033502E+02 0.42152431E+02 0.50269923E+03 0.51346035E+03 0.91188000E+02 0.0000E+00 0.9000E+01
       21  1    1    2  502  501 -.62898316E+01 -.25114995E+02 0.11609545E+04 0.11612434E+04 0.75000000E+00 0.0000E+00 0.9000E+01
#aMCatNLO 1  0  0  2  2 0.62814406D+02 0.00000000D+00  -5  6  0 0.00000000D+00 0.00000000D+00 0.00000000D+00 0.00000000D+00 0.00000000D+00
  <mgrwgt>
 0.8199196005D+00    5    4    0
 0.271192250457099D+03 0.000000000000000D+00 0.000000000000000D+00 0.271192250457099D+03
 0.271192250457099D+03 0.000000000000000D+00 0.000000000000000D+00 -.271192250457099D+03
 0.252335029946144D+03 -.227436441675752D+02 -.170373321233332D+02 -.217348621578374D+03
 0.112623807803652D+03 0.290335135939250D+02 0.421524778344065D+02 0.418221764259727D+02
 0.177425663164403D+03 -.628986942634977D+01 -.251151457110733D+02 0.175526445152402D+03
 0.000000000000000D+00 -.000000000000000D+00 -.000000000000000D+00 -.000000000000000D+00
 0.624486498590676D+03 0.000000000000000D+00 0.000000000000000D+00 0.624486498590676D+03
 0.687362210567427D+03 0.000000000000000D+00 0.000000000000000D+00 -.687362210567427D+03
 0.328392514945918D+03 0.183452584517844D+03 0.106401925754230D+03 -.217348621578374D+03
 0.205670007369208D+03 0.142048618318700D+03 0.109808907562152D+03 0.418221764259727D+02
 0.232479615263315D+03 0.139253291516278D+03 0.620141868206186D+02 0.175526445152402D+03
 0.545306571579662D+03 -.464754494352822D+03 -.278225020137001D+03 -.628757119767515D+02
 0.271192250457099D+03 0.000000000000000D+00 0.000000000000000D+00 0.271192250457099D+03
 0.271192250457099D+03 0.000000000000000D+00 0.000000000000000D+00 -.271192250457099D+03
 0.252335029946144D+03 -.227436441675752D+02 -.170373321233332D+02 -.217348621578374D+03
 0.112623807803652D+03 0.290335135939250D+02 0.421524778344065D+02 0.418221764259727D+02
 0.000000000000000D+00 -.000000000000000D+00 -.000000000000000D+00 -.000000000000000D+00
 0.177425663164403D+03 -.628986942634977D+01 -.251151457110733D+02 0.175526445152402D+03
 0.624486498590676D+03 0.000000000000000D+00 0.000000000000000D+00 0.624486498590676D+03
 0.687362210567427D+03 0.000000000000000D+00 0.000000000000000D+00 -.687362210567427D+03
 0.328392514945918D+03 0.183452584517844D+03 0.106401925754230D+03 -.217348621578374D+03
 0.205670007369208D+03 0.142048618318700D+03 0.109808907562152D+03 0.418221764259727D+02
 0.545306571579662D+03 -.464754494352822D+03 -.278225020137001D+03 -.628757119767515D+02
 0.232479615263315D+03 0.139253291516278D+03 0.620141868206186D+02 0.175526445152402D+03
0.492141296262D-02 0.000000000000D+00 0.000000000000D+00 0.203497616779D-04 0.000000000000D+00  6 1 -1 25 23 21 21 2 0.27450358D+00 0.63413222D-02 0.16725079D+05 0.16725079D+05 0.16725079D+05 0.12424687D+01  1  2  2  2  6  2       -1 0.445488147314D+00 0.100000000000D+01
0.821508455496D-03 0.259710097170D-03 -.188995216143D-04 0.203497616779D-04 0.000000000000D+00  6 1 -1 25 23 21 21 4 0.27450358D+00 0.63413222D-02 0.16725079D+05 0.16725079D+05 0.16725079D+05 0.12424687D+01  1  2  3  2  6  2       -1 0.114796665924D+00 0.100000000000D+01
0.128252716851D-03 0.000000000000D+00 0.000000000000D+00 0.203497616779D-04 0.000000000000D+00  6 1 -1 25 23 21 21 4 0.27450358D+00 0.63413222D-02 0.16725079D+05 0.16725079D+05 0.16725079D+05 0.12424687D+01  1  2 15  2  6  2       -1 0.179218901421D-01 0.100000000000D+01
0.169993192563D-01 0.000000000000D+00 -.452040586789D-02 0.203497616779D-04 0.000000000000D+00  6 1 -1 25 23 21 21 4 0.27450358D+00 0.53953620D-01 0.16725079D+05 0.16725079D+05 0.16725079D+05 0.12424687D+01  1  2  5  2  6  2       -1 0.744504424979D-01 0.100000000000D+01
0.380559171882D-02 0.000000000000D+00 -.116945190331D-02 0.203497616779D-04 0.000000000000D+00  6 1 21 25 23 1 21 4 0.27450358D+00 0.53953620D-01 0.16725079D+05 0.16725079D+05 0.16725079D+05 0.12424687D+01  3  4  5  5  5  2       -1 0.167262454608D+00 0.100000000000D+01
  </mgrwgt>
  </event>
  <event>
  5     66 0.42989208E-03 0.52180004E+02 0.75467711E-02 0.98863380E-01
        1 -1    0    0  502    0 0.00000000E+00 0.00000000E+00 0.19359689E+03 0.19359715E+03 0.32000000E+00 0.0000E+00 0.9000E+01
       -1 -1    0    0    0  501 -.00000000E+00 -.00000000E+00 -.20003690E+04 0.20003690E+04 0.32000000E+00 0.0000E+00 0.9000E+01
       25  1    1    2    0    0 -.53198421E+03 0.81345753E+02 -.68050243E+03 0.87654600E+03 0.12500000E+03 0.0000E+00 0.9000E+01
       23  1    1    2    0    0 0.58415319E+03 -.82333920E+02 -.86492119E+03 0.10509128E+04 0.91188000E+02 0.0000E+00 0.9000E+01
       21  1    1    2  502  501 -.52168981E+02 0.98816747E+00 -.26134847E+03 0.26650734E+03 0.75000000E+00 0.0000E+00 0.9000E+01
#aMCatNLO 1  0  0  5  1 0.27305741D+02 0.00000000D+00  -5  6  0 0.00000000D+00 0.00000000D+00 0.00000000D+00 0.00000000D+00 0.00000000D+00
  <mgrwgt>
 0.2432010916D+00    9    2    0
 0.622306616836825D+03 0.000000000000000D+00 0.000000000000000D+00 0.622306616836825D+03
 0.622306616836825D+03 -.000000000000000D+00 -.000000000000000D+00 -.622306616836825D+03
 0.557280497911027D+03 -.531983404766990D+03 0.813457375840885D+02 0.728908868198420D+02
 0.596934621813310D+03 0.584154050838398D+03 -.823339365907426D+02 0.926903426195381D+00
 0.903981139493123D+02 -.521706460714080D+02 0.988199006654157D+00 -.738177902460374D+02
 0.000000000000000D+00 0.000000000000000D+00 0.000000000000000D+00 0.000000000000000D+00
 0.622306616836825D+03 0.000000000000000D+00 0.000000000000000D+00 0.622306616836825D+03
 0.622306616836825D+03 -.000000000000000D+00 -.000000000000000D+00 -.622306616836825D+03
 0.568523387584884D+03 -.546002386987590D+03 0.816112804774185D+02 0.530550142180977D+02
 0.582864121089812D+03 0.569462702004264D+03 -.820556579528965D+02 -.198603205845086D+02
 0.620423669082277D+02 -.318836245799337D+02 -.266897808954031D+02 -.460472080692888D+02
 0.311833580907257D+02 0.842330956325972D+01 0.271341583708811D+02 0.128525144356997D+02
0.294234711825D+00 0.000000000000D+00 0.000000000000D+00 0.294863317701D-05 0.000000000000D+00  6 1 -1 25 23 21 21 2 0.29784159D-01 0.30774910D+00 0.36096477D+06 0.36096477D+06 0.36096477D+06 0.11155899D+01  1  2  2  3  6  5       21 0.179032473996D+00 0.100000000000D+01
0.101191667286D+00 0.155271923285D-01 -.112993876719D-02 0.294863317701D-05 0.000000000000D+00  6 1 -1 25 23 21 21 4 0.29784159D-01 0.30774910D+00 0.36096477D+06 0.36096477D+06 0.36096477D+06 0.11155899D+01  1  2  3  3  6  5       21 0.766287552613D-01 0.100000000000D+01
0.685049654420D-02 0.000000000000D+00 0.000000000000D+00 0.294863317701D-05 0.000000000000D+00  6 1 -1 25 23 21 21 4 0.29784159D-01 0.30774910D+00 0.36096477D+06 0.36096477D+06 0.36096477D+06 0.11155899D+01  1  2 15  3  6  5       21 0.518763093034D-02 0.100000000000D+01
0.174237030716D+00 0.000000000000D+00 0.000000000000D+00 0.294345195451D-05 0.000000000000D+00  6 1 -1 25 23 21 21 4 0.29784159D-01 0.30774910D+00 0.37122197D+06 0.37122197D+06 0.37122197D+06 0.11146093D+01  1  2 12  3  6  5       21 0.131288485269D+00 0.100000000000D+01
-.212991280769D+00 0.000000000000D+00 0.000000000000D+00 0.294863317701D-05 0.000000000000D+00  6 1 -1 25 23 21 21 4 0.29784159D-01 0.30774910D+00 0.36096477D+06 0.36096477D+06 0.36096477D+06 0.11155899D+01  1  2  4  3  6  5       21 -.161290520896D+00 0.100000000000D+01
0.409893297275D-02 0.000000000000D+00 0.000000000000D+00 0.294345195451D-05 0.000000000000D+00  6 1 -1 25 23 1 -1 4 0.29784159D-01 0.30774910D+00 0.37122197D+06 0.37122197D+06 0.37122197D+06 0.11146093D+01  1  2 12  6  6  5       21 0.308856675874D-02 0.100000000000D+01
0.409893297275D-02 0.000000000000D+00 0.000000000000D+00 0.294345195451D-05 0.000000000000D+00  6 1 -1 25 23 2 -2 4 0.29784159D-01 0.30774910D+00 0.37122197D+06 0.37122197D+06 0.37122197D+06 0.11146093D+01  1  2 12  7  6  5       21 0.308856675874D-02 0.100000000000D+01
0.409893297275D-02 0.000000000000D+00 0.000000000000D+00 0.294345195451D-05 0.000000000000D+00  6 1 -1 25 23 4 -4 4 0.29784159D-01 0.30774910D+00 0.37122197D+06 0.37122197D+06 0.37122197D+06 0.11146093D+01  1  2 12  7  6  5       21 0.308856675874D-02 0.100000000000D+01
0.409893297275D-02 0.000000000000D+00 0.000000000000D+00 0.294345195451D-05 0.000000000000D+00  6 1 -1 25 23 3 -3 4 0.29784159D-01 0.30774910D+00 0.37122197D+06 0.37122197D+06 0.37122197D+06 0.11146093D+01  1  2 12  8  6  5       21 0.308856675874D-02 0.100000000000D+01
  </mgrwgt>
  </event>
  <event>
  5     66 0.42989208E-03 0.34053166E+02 0.75467711E-02 0.10825470E+00
        3 -1    0    0  502    0 0.00000000E+00 0.00000000E+00 0.17153024E+03 0.17153097E+03 0.50000000E+00 0.0000E+00 0.9000E+01
       -3 -1    0    0    0  501 -.00000000E+00 -.00000000E+00 -.60565905E+03 0.60565925E+03 0.50000000E+00 0.0000E+00 0.9000E+01
       25  1    1    2    0    0 0.24917093E+03 -.20387201E+02 -.16248304E+03 0.32330717E+03 0.12500000E+03 0.0000E+00 0.9000E+01
       23  1    1    2    0    0 -.28321002E+03 0.19483522E+02 -.16255311E+03 0.33959724E+03 0.91188000E+02 0.0000E+00 0.9000E+01
       21  1    1    2  502  501 0.34039089E+02 0.90367979E+00 -.10909266E+03 0.11428581E+03 0.75000000E+00 0.0000E+00 0.9000E+01
#aMCatNLO 1  0  0  5  1 0.48166937D+01 0.00000000D+00  -5  6  0 0.00000000D+00 0.00000000D+00 0.00000000D+00 0.00000000D+00 0.00000000D+00
  <mgrwgt>
 0.1471750867D-01   25    2    0
 0.322318484927856D+03 0.000000000000000D+00 0.000000000000000D+00 0.322318484927856D+03
 0.322318484927856D+03 -.000000000000000D+00 -.000000000000000D+00 -.322318484927856D+03
 0.280362621422765D+03 0.249169921330877D+03 -.203872280869479D+02 0.218382857830012D+02
 0.299957111880019D+03 -.283211093555694D+03 0.194834929853718D+02 0.327244191923927D+02
 0.643172365529286D+02 0.340411722248172D+02 0.903735101576110D+00 -.545627049753941D+02
 0.000000000000000D+00 0.000000000000000D+00 0.000000000000000D+00 0.000000000000000D+00
 0.322318484927856D+03 0.000000000000000D+00 0.000000000000000D+00 0.322318484927856D+03
 0.322318484927856D+03 -.000000000000000D+00 -.000000000000000D+00 -.322318484927856D+03
 0.280697234866456D+03 0.249607729779668D+03 -.203756050188489D+02 0.211365469277891D+02
 0.299435369868108D+03 -.282743373240812D+03 0.194959101625326D+02 0.319747362677461D+02
 0.568075925730328D+02 0.260378964751202D+02 -.524297390847655D+00 -.504861925019164D+02
 0.769677254811606D+01 0.709774698602395D+01 0.140399224716389D+01 -.262509069361891D+01
0.789407654906D-03 0.000000000000D+00 0.000000000000D+00 0.829498662288D-05 0.000000000000D+00  6 3 -3 25 23 21 21 2 0.26389340D-01 0.93178387D-01 0.93553603D+05 0.93553603D+05 0.93553603D+05 0.11662395D+01  1  2  2  3  6  5       21 0.389050710445D-02 0.100000000000D+01
0.200772182484D-03 0.416581864434D-04 -.303153325065D-05 0.829498662288D-05 0.000000000000D+00  6 3 -3 25 23 21 21 4 0.26389340D-01 0.93178387D-01 0.93553603D+05 0.93553603D+05 0.93553603D+05 0.11662395D+01  1  2  3  3  6  5       21 0.134581049577D-02 0.100000000000D+01
-.664094379332D-05 0.000000000000D+00 0.000000000000D+00 0.829498662288D-05 0.000000000000D+00  6 3 -3 25 23 21 21 4 0.26389340D-01 0.93178387D-01 0.93553603D+05 0.93553603D+05 0.93553603D+05 0.11662395D+01  1  2 15  3  6  5       21 -.445153892750D-04 0.100000000000D+01
0.124431532333D-03 0.000000000000D+00 0.000000000000D+00 0.829653632245D-05 0.000000000000D+00  6 3 -3 25 23 21 21 4 0.26389340D-01 0.93178387D-01 0.93300329D+05 0.93300329D+05 0.93300329D+05 0.11663484D+01  1  2 12  3  6  5       21 0.834337984825D-03 0.100000000000D+01
0.105328313774D-03 0.000000000000D+00 0.000000000000D+00 0.829653632245D-05 0.000000000000D+00  6 3 -3 25 23 21 21 4 0.26389340D-01 0.93178387D-01 0.93300329D+05 0.93300329D+05 0.93300329D+05 0.11663484D+01  1  2 12  3  6  5       21 0.706247133757D-03 0.100000000000D+01
-.534422271972D-02 0.000000000000D+00 0.000000000000D+00 0.829498662288D-05 0.000000000000D+00  6 3 -3 25 23 21 21 4 0.26389340D-01 0.93178387D-01 0.93553603D+05 0.93553603D+05 0.93553603D+05 0.11662395D+01  1  2  4  3  6  5       21 -.358232447292D-01 0.100000000000D+01
-.762397811822D-02 0.000000000000D+00 0.000000000000D+00 0.829498662288D-05 0.000000000000D+00  6 3 -3 25 23 21 21 4 0.26389340D-01 0.93178387D-01 0.93553603D+05 0.93553603D+05 0.93553603D+05 0.11662395D+01  1  2  5  3  6  5       21 -.511048375531D-01 0.100000000000D+01
0.934378666954D-02 0.000000000000D+00 -.000000000000D+00 0.829498662288D-05 0.000000000000D+00  6 3 -3 25 23 21 21 4 0.26389340D-01 0.93178387D-01 0.93553603D+05 0.93553603D+05 0.93553603D+05 0.11662395D+01  1  2  6  3  6  5       21 0.626330102832D-01 0.100000000000D+01
0.486415516353D-02 0.000000000000D+00 0.000000000000D+00 0.829498662288D-05 0.211654147116D-05  6 3 -3 25 23 21 21 4 0.26389340D-01 0.93178387D-01 0.93300329D+05 0.93300329D+05 0.93300329D+05 0.11663484D+01  1  2 11  3  6  5       21 0.326151204676D-01 0.100000000000D+01
0.112868891286D-04 0.000000000000D+00 0.000000000000D+00 0.829653632245D-05 0.000000000000D+00  6 3 -3 25 23 3 -3 4 0.26389340D-01 0.93178387D-01 0.93300329D+05 0.93300329D+05 0.93300329D+05 0.11663484D+01  1  2 12  6  6  5       21 0.756808194344D-04 0.100000000000D+01
0.105868737778D-04 0.000000000000D+00 0.000000000000D+00 0.829653632245D-05 0.000000000000D+00  6 3 -3 25 23 3 -3 4 0.26389340D-01 0.93178387D-01 0.93300329D+05 0.93300329D+05 0.93300329D+05 0.11663484D+01  1  2 12  6  6  5       21 0.709870783371D-04 0.100000000000D+01
-.511011290198D-04 0.000000000000D+00 0.000000000000D+00 0.829498662288D-05 0.000000000000D+00  6 3 -3 25 23 3 -3 4 0.26389340D-01 0.93178387D-01 0.93553603D+05 0.93553603D+05 0.93553603D+05 0.11662395D+01  1  2  5  6  6  5       21 -.342539663262D-03 0.100000000000D+01
0.170228571337D-04 0.000000000000D+00 0.000000000000D+00 0.829498662288D-05 0.142860063442D-07  6 3 -3 25 23 3 -3 4 0.26389340D-01 0.93178387D-01 0.93300329D+05 0.93300329D+05 0.93300329D+05 0.11663484D+01  1  2 11  6  6  5       21 0.114141617085D-03 0.100000000000D+01
0.112868891286D-04 0.000000000000D+00 0.000000000000D+00 0.829653632245D-05 0.000000000000D+00  6 3 -3 25 23 2 -2 4 0.26389340D-01 0.93178387D-01 0.93300329D+05 0.93300329D+05 0.93300329D+05 0.11663484D+01  1  2 12  7  6  5       21 0.756808194344D-04 0.100000000000D+01
0.112868891286D-04 0.000000000000D+00 0.000000000000D+00 0.829653632245D-05 0.000000000000D+00  6 3 -3 25 23 4 -4 4 0.26389340D-01 0.93178387D-01 0.93300329D+05 0.93300329D+05 0.93300329D+05 0.11663484D+01  1  2 12  7  6  5       21 0.756808194344D-04 0.100000000000D+01
0.105868737778D-04 0.000000000000D+00 0.000000000000D+00 0.829653632245D-05 0.000000000000D+00  6 3 -3 25 23 2 -2 4 0.26389340D-01 0.93178387D-01 0.93300329D+05 0.93300329D+05 0.93300329D+05 0.11663484D+01  1  2 12  7  6  5       21 0.709870783371D-04 0.100000000000D+01
0.105868737778D-04 0.000000000000D+00 0.000000000000D+00 0.829653632245D-05 0.000000000000D+00  6 3 -3 25 23 4 -4 4 0.26389340D-01 0.93178387D-01 0.93300329D+05 0.93300329D+05 0.93300329D+05 0.11663484D+01  1  2 12  7  6  5       21 0.709870783371D-04 0.100000000000D+01
-.511011290198D-04 0.000000000000D+00 0.000000000000D+00 0.829498662288D-05 0.000000000000D+00  6 3 -3 25 23 2 -2 4 0.26389340D-01 0.93178387D-01 0.93553603D+05 0.93553603D+05 0.93553603D+05 0.11662395D+01  1  2  5  7  6  5       21 -.342539663262D-03 0.100000000000D+01
-.511011290198D-04 0.000000000000D+00 0.000000000000D+00 0.829498662288D-05 0.000000000000D+00  6 3 -3 25 23 4 -4 4 0.26389340D-01 0.93178387D-01 0.93553603D+05 0.93553603D+05 0.93553603D+05 0.11662395D+01  1  2  5  7  6  5       21 -.342539663262D-03 0.100000000000D+01
0.166262974336D-04 0.000000000000D+00 0.000000000000D+00 0.829498662288D-05 0.136762326932D-07  6 3 -3 25 23 2 -2 4 0.26389340D-01 0.93178387D-01 0.93300329D+05 0.93300329D+05 0.93300329D+05 0.11663484D+01  1  2 11  7  6  5       21 0.111482606022D-03 0.100000000000D+01
0.166262974336D-04 0.000000000000D+00 0.000000000000D+00 0.829498662288D-05 0.136762326932D-07  6 3 -3 25 23 4 -4 4 0.26389340D-01 0.93178387D-01 0.93300329D+05 0.93300329D+05 0.93300329D+05 0.11663484D+01  1  2 11  7  6  5       21 0.111482606022D-03 0.100000000000D+01
0.112868891286D-04 0.000000000000D+00 0.000000000000D+00 0.829653632245D-05 0.000000000000D+00  6 3 -3 25 23 1 -1 4 0.26389340D-01 0.93178387D-01 0.93300329D+05 0.93300329D+05 0.93300329D+05 0.11663484D+01  1  2 12  8  6  5       21 0.756808194344D-04 0.100000000000D+01
0.105868737778D-04 0.000000000000D+00 0.000000000000D+00 0.829653632245D-05 0.000000000000D+00  6 3 -3 25 23 1 -1 4 0.26389340D-01 0.93178387D-01 0.93300329D+05 0.93300329D+05 0.93300329D+05 0.11663484D+01  1  2 12  8  6  5       21 0.709870783371D-04 0.100000000000D+01
-.511011290198D-04 0.000000000000D+00 0.000000000000D+00 0.829498662288D-05 0.000000000000D+00  6 3 -3 25 23 1 -1 4 0.26389340D-01 0.93178387D-01 0.93553603D+05 0.93553603D+05 0.93553603D+05 0.11662395D+01  1  2  5  8  6  5       21 -.342539663262D-03 0.100000000000D+01
0.166218977701D-04 0.000000000000D+00 0.000000000000D+00 0.829498662288D-05 0.136726136781D-07  6 3 -3 25 23 1 -1 4 0.26389340D-01 0.93178387D-01 0.93300329D+05 0.93300329D+05 0.93300329D+05 0.11663484D+01  1  2 11  8  6  5       21 0.111453105410D-03 0.100000000000D+01
  </mgrwgt>
  </event>
  <event>
  5     66 0.42989208E-03 0.20382377E+02 0.75467711E-02 0.10946588E+00
        1 -1    0    0  502    0 0.00000000E+00 0.00000000E+00 0.27734518E+03 0.27734536E+03 0.32000000E+00 0.0000E+00 0.9000E+01
       -1 -1    0    0    0  501 0.00000000E+00 0.00000000E+00 -.24428218E+03 0.24428239E+03 0.32000000E+00 0.0000E+00 0.9000E+01
       25  1    1    2    0    0 -.11202213E+03 0.17893174E+03 -.42987138E+02 0.24907513E+03 0.12500000E+03 0.0000E+00 0.9000E+01
       23  1    1    2    0    0 0.95768977E+02 -.19122328E+03 0.47220796E+02 0.23724059E+03 0.91188000E+02 0.0000E+00 0.9000E+01
       21  1    1    2  502  501 0.16253155E+02 0.12291542E+02 0.28829337E+02 0.35312041E+02 0.75000000E+00 0.0000E+00 0.9000E+01
#aMCatNLO 1  0  0  2  5 0.26786460D+01 0.00000000D+00  -5  6  0 0.00000000D+00 0.00000000D+00 0.00000000D+00 0.00000000D+00 0.00000000D+00
  <mgrwgt>
 0.2646635369D+00    7    4    0
 0.260289432993310D+03 0.000000000000000D+00 0.000000000000000D+00 0.260289432993310D+03
 0.260289432993310D+03 0.000000000000000D+00 0.000000000000000D+00 -.260289432993310D+03
 0.252307749951809D+03 -.112024101378848D+03 0.178930252043373D+03 -.588962333235447D+02
 0.234719474824109D+03 0.957671456680211D+02 -.191224668547127D+03 0.322453169831988D+02
 0.335516412107019D+02 0.162569557108264D+02 0.122944165037540D+02 0.266509163403459D+02
 0.000000000000000D+00 -.000000000000000D+00 -.000000000000000D+00 -.000000000000000D+00
 0.272329281456224D+03 0.000000000000000D+00 0.000000000000000D+00 0.272329281456224D+03
 0.351465750486773D+03 0.000000000000000D+00 0.000000000000000D+00 -.351465750486773D+03
 0.273363054249337D+03 -.108806445032220D+03 0.209271953802403D+03 -.588962333235447D+02
 0.215333157303089D+03 0.985219395361747D+02 -.165247645226188D+03 0.322453169831988D+02
 0.354022369567051D+02 0.166790257248671D+02 0.162744321138341D+02 0.266509163403459D+02
 0.996965834338660D+02 -.639452022882208D+01 -.602987406900494D+02 -.791364690305497D+02
 0.260289432993310D+03 0.000000000000000D+00 0.000000000000000D+00 0.260289432993310D+03
 0.260289432993310D+03 0.000000000000000D+00 0.000000000000000D+00 -.260289432993310D+03
 0.252307749951809D+03 -.112024101378848D+03 0.178930252043373D+03 -.588962333235447D+02
 0.234719474824109D+03 0.957671456680211D+02 -.191224668547127D+03 0.322453169831988D+02
 0.000000000000000D+00 -.000000000000000D+00 -.000000000000000D+00 -.000000000000000D+00
 0.335516412107019D+02 0.162569557108264D+02 0.122944165037540D+02 0.266509163403459D+02
 0.272329281456224D+03 0.000000000000000D+00 0.000000000000000D+00 0.272329281456224D+03
 0.351465750486773D+03 0.000000000000000D+00 0.000000000000000D+00 -.351465750486773D+03
 0.273363054249337D+03 -.108806445032220D+03 0.209271953802403D+03 -.588962333235447D+02
 0.215333157303089D+03 0.985219395361747D+02 -.165247645226188D+03 0.322453169831988D+02
 0.996965834338660D+02 -.639452022882208D+01 -.602987406900494D+02 -.791364690305497D+02
 0.354022369567051D+02 0.166790257248671D+02 0.162744321138341D+02 0.266509163403459D+02
0.206200551382D-02 0.000000000000D+00 0.000000000000D+00 0.238428285814D-04 0.000000000000D+00  6 1 -1 25 23 21 21 2 0.42668519D-01 0.37581905D-01 0.62054245D+05 0.62054245D+05 0.62054245D+05 0.11831023D+01  1  2  2  2  6  2       -1 0.193398924278D+00 0.100000000000D+01
0.765069993203D-03 0.108815020488D-03 -.791864411160D-05 0.238428285814D-04 0.000000000000D+00  6 1 -1 25 23 21 21 4 0.42668519D-01 0.37581905D-01 0.62054245D+05 0.62054245D+05 0.62054245D+05 0.11831023D+01  1  2  3  2  6  2       -1 0.100440756861D+00 0.100000000000D+01
0.276883701391D-04 0.000000000000D+00 0.000000000000D+00 0.238428285814D-04 0.000000000000D+00  6 1 -1 25 23 21 21 4 0.42668519D-01 0.37581905D-01 0.62054245D+05 0.62054245D+05 0.62054245D+05 0.11831023D+01  1  2 15  2  6  2       -1 0.363501493684D-02 0.100000000000D+01
-.225529763067D-02 0.000000000000D+00 0.000000000000D+00 0.238428285814D-04 0.000000000000D+00  6 1 -1 25 23 21 21 4 0.42668519D-01 0.37581905D-01 0.62054245D+05 0.62054245D+05 0.62054245D+05 0.11831023D+01  1  2  4  2  6  2       -1 -.296082453873D+00 0.100000000000D+01
-.729558874948D-02 0.000000000000D+00 -.139724941480D-02 0.238428285814D-04 0.000000000000D+00  6 1 -1 25 23 21 21 4 0.42668519D-01 0.52468839D-01 0.62054245D+05 0.62054245D+05 0.62054245D+05 0.11831023D+01  1  2  5  2  6  2       -1 -.523143197803D+00 0.100000000000D+01
0.741925981551D-02 0.000000000000D+00 0.132290814237D-02 0.238428285814D-04 0.000000000000D+00  6 1 -1 25 23 21 21 4 0.42668519D-01 0.37581905D-01 0.62054245D+05 0.62054245D+05 0.62054245D+05 0.11831023D+01  1  2  6  2  6  2       -1 0.974023393728D+00 0.100000000000D+01
-.267674324449D-03 0.000000000000D+00 -.583192596794D-04 0.238428285814D-04 0.000000000000D+00  6 1 21 25 23 1 21 4 0.42668519D-01 0.52468839D-01 0.62054245D+05 0.62054245D+05 0.62054245D+05 0.11831023D+01  3  4  5  5  5  2       -1 -.187608901259D+00 0.100000000000D+01
  </mgrwgt>
  </event>
  <event>
  6     66 0.42989208E-03 0.13454148E+02 0.75467711E-02 0.12113580E+00
        1 -1    0    0  503    0 0.00000000E+00 0.00000000E+00 0.83171353E+03 0.83171359E+03 0.32000000E+00 0.0000E+00 0.9000E+01
       -1 -1    0    0    0  501 0.00000000E+00 0.00000000E+00 -.40725942E+02 0.40727199E+02 0.32000000E+00 0.0000E+00 0.9000E+01
       25  1    1    2    0    0 0.49776405E+02 0.16990588E+01 0.19621974E+03 0.23792386E+03 0.12500000E+03 0.0000E+00 0.9000E+01
       23  1    1    2    0    0 -.65331501E+02 -.50716500E+00 0.57584958E+03 0.58667406E+03 0.91188000E+02 0.0000E+00 0.9000E+01
       21  1    1    2  502  501 0.15713532E+02 0.13981284E+02 0.23907985E+02 0.31851933E+02 0.75000000E+00 0.0000E+00 0.9000E+01
       21  1    1    2  503  502 -.15843663E+00 -.15173178E+02 -.49897124E+01 0.15990940E+02 0.75000000E+00 0.0000E+00 0.9000E+01
#aMCatNLO 2  0  0  1  1 0.15174005D+02 0.00000000D+00  -5  6  0 0.00000000D+00 0.00000000D+00 0.00000000D+00 0.00000000D+00 0.00000000D+00
  <mgrwgt>
 0.4793928089D-02    1    2    0
 0.157873550671491D+03 0.000000000000000D+00 0.000000000000000D+00 0.157873550671491D+03
 0.157873550671491D+03 0.000000000000000D+00 0.000000000000000D+00 -.157873550671491D+03
 0.150591940880885D+03 0.496976448534426D+02 -.553458619139667D+01 -.674718097429081D+02
 0.139709293646600D+03 -.654045269073918D+02 -.721405542245121D+01 0.829074221744584D+02
 0.254458668154975D+02 0.157068820539492D+02 0.127486416138479D+02 -.154356124315503D+02
 0.000000000000000D+00 -.000000000000000D+00 -.000000000000000D+00 -.000000000000000D+00
 0.159105525894677D+03 0.000000000000000D+00 0.000000000000000D+00 0.159105525894677D+03
 0.212889068011800D+03 0.000000000000000D+00 0.000000000000000D+00 -.212889068011800D+03
 0.150524711902448D+03 0.497731489433342D+02 0.169629820390166D+01 -.674718097429081D+02
 0.139491042086276D+03 -.653345182677099D+02 -.509459937107652D+00 0.829074221744584D+02
 0.260957491781790D+02 0.157198059582606D+02 0.139863395735994D+02 -.154356124315503D+02
 0.558830907395744D+02 -.158436633884976D+00 -.151731778403934D+02 -.537835421171230D+02
0.774601700431D-05 0.000000000000D+00 0.000000000000D+00 0.279345758987D-04 0.376294305593D-06  6 1 -1 25 23 21 21 4 0.12795402D+00 0.62655324D-02 0.20015148D+05 0.20015148D+05 0.20015148D+05 0.12337898D+01  1  2  1  1  6  1        1 0.479392808867D-02 0.100000000000D+01
  </mgrwgt>
  </event>
  <event>
  5     66 0.42989208E-03 0.73981467E+02 0.75467711E-02 0.11789435E+00
        1 -1    0    0  502    0 0.00000000E+00 0.00000000E+00 0.81268958E+03 0.81268964E+03 0.32000000E+00 0.0000E+00 0.9000E+01
       -1 -1    0    0    0  501 0.00000000E+00 0.00000000E+00 -.68248990E+02 0.68249741E+02 0.32000000E+00 0.0000E+00 0.9000E+01
       25  1    1    2    0    0 0.41753515E+02 0.11379811E+03 0.30059233E+03 0.34738180E+03 0.12500000E+03 0.0000E+00 0.9000E+01
       23  1    1    2    0    0 -.31776352E+02 -.38991384E+02 0.23856483E+02 0.10683842E+03 0.91188000E+02 0.0000E+00 0.9000E+01
       21  1    1    2  502  501 -.99771636E+01 -.74806729E+02 0.41999177E+03 0.42671916E+03 0.75000000E+00 0.0000E+00 0.9000E+01
#aMCatNLO 1  0  0  5  2 0.30709518D+02 0.00000000D+00  -5  6  0 0.00000000D+00 0.00000000D+00 0.00000000D+00 0.00000000D+00 0.00000000D+00
  <mgrwgt>
 0.4346390839D-01    9    2    0
 0.235511361924985D+03 0.000000000000000D+00 0.000000000000000D+00 0.235511361924985D+03
 0.235511361924985D+03 -.000000000000000D+00 -.000000000000000D+00 -.235511361924985D+03
 0.174618527635550D+03 0.417535731722006D+02 0.113798545420909D+03 0.131590417981878D+02
 0.162112351346226D+03 -.317762982938334D+02 -.389909819945561D+02 -.124238211935152D+03
 0.134291844868194D+03 -.997727487836720D+01 -.748075634263532D+02 0.111079170136964D+03
 0.000000000000000D+00 0.000000000000000D+00 0.000000000000000D+00 -.000000000000000D+00
 0.235511361924985D+03 0.000000000000000D+00 0.000000000000000D+00 0.235511361924985D+03
 0.235511361924985D+03 -.000000000000000D+00 -.000000000000000D+00 -.235511361924985D+03
 0.170310355042254D+03 0.405997948505246D+02 0.105147751889514D+03 0.260043066682244D+02
 0.155671530757344D+03 -.328392772804079D+02 -.469609807094826D+02 -.112403835801270D+03
 0.113891166302589D+03 0.443114174121609D+01 -.383933017156477D+02 0.107133174731287D+03
 0.311496717477827D+02 -.121916593113328D+02 -.197934694643841D+02 -.207336455982420D+02
0.129631984711D-03 0.000000000000D+00 0.000000000000D+00 0.263362418637D-05 0.000000000000D+00  6 1 -1 25 23 21 21 2 0.12502923D+00 0.10499907D-01 0.31281698D+05 0.31281698D+05 0.31281698D+05 0.12129961D+01  1  2  2  3  6  5       21 0.242143369384D-01 0.100000000000D+01
-.423617588751D-05 0.684086777544D-05 -.497820954177D-06 0.263362418637D-05 0.000000000000D+00  6 1 -1 25 23 21 21 4 0.12502923D+00 0.10499907D-01 0.31281698D+05 0.31281698D+05 0.31281698D+05 0.12129961D+01  1  2  3  3  6  5       21 -.116426865637D-02 0.100000000000D+01
0.155021107422D-05 0.000000000000D+00 0.000000000000D+00 0.263362418637D-05 0.000000000000D+00  6 1 -1 25 23 21 21 4 0.12502923D+00 0.10499907D-01 0.31281698D+05 0.31281698D+05 0.31281698D+05 0.12129961D+01  1  2 15  3  6  5       21 0.426059307353D-03 0.100000000000D+01
0.122578369178D-03 0.000000000000D+00 0.000000000000D+00 0.265178222209D-05 0.000000000000D+00  6 1 -1 25 23 21 21 4 0.12502923D+00 0.10499907D-01 0.28545303D+05 0.28545303D+05 0.28545303D+05 0.12171705D+01  1  2 12  3  6  5       21 0.341472481074D-01 0.100000000000D+01
-.567624947440D-04 0.000000000000D+00 0.000000000000D+00 0.263362418637D-05 0.000000000000D+00  6 1 -1 25 23 21 21 4 0.12502923D+00 0.10499907D-01 0.31281698D+05 0.31281698D+05 0.31281698D+05 0.12129961D+01  1  2  4  3  6  5       21 -.156005782674D-01 0.100000000000D+01
0.129328892686D-05 0.000000000000D+00 0.000000000000D+00 0.265178222209D-05 0.000000000000D+00  6 1 -1 25 23 1 -1 4 0.12502923D+00 0.10499907D-01 0.28545303D+05 0.28545303D+05 0.28545303D+05 0.12171705D+01  1  2 12  6  6  5       21 0.360277740324D-03 0.100000000000D+01
0.129328892686D-05 0.000000000000D+00 0.000000000000D+00 0.265178222209D-05 0.000000000000D+00  6 1 -1 25 23 2 -2 4 0.12502923D+00 0.10499907D-01 0.28545303D+05 0.28545303D+05 0.28545303D+05 0.12171705D+01  1  2 12  7  6  5       21 0.360277740324D-03 0.100000000000D+01
0.129328892686D-05 0.000000000000D+00 0.000000000000D+00 0.265178222209D-05 0.000000000000D+00  6 1 -1 25 23 4 -4 4 0.12502923D+00 0.10499907D-01 0.28545303D+05 0.28545303D+05 0.28545303D+05 0.12171705D+01  1  2 12  7  6  5       21 0.360277740324D-03 0.100000000000D+01
0.129328892686D-05 0.000000000000D+00 0.000000000000D+00 0.265178222209D-05 0.000000000000D+00  6 1 -1 25 23 3 -3 4 0.12502923D+00 0.10499907D-01 0.28545303D+05 0.28545303D+05 0.28545303D+05 0.12171705D+01  1  2 12  8  6  5       21 0.360277740324D-03 0.100000000000D+01
  </mgrwgt>
  </event>
  <event>
  5     66 -.42989208E-03 0.20793648E+02 0.75467711E-02 0.12126871E+00
        1 -1    0    0  502    0 0.00000000E+00 0.00000000E+00 0.18532565E+03 0.18532592E+03 0.32000000E+00 0.0000E+00 0.9000E+01
       -1 -1    0    0    0  501 0.00000000E+00 0.00000000E+00 -.59698232E+03 0.59698240E+03 0.32000000E+00 0.0000E+00 0.9000E+01
       25  1    1    2    0    0 0.16307897E+02 0.77589791E+01 0.49622237E+02 0.13569641E+03 0.12500000E+03 0.0000E+00 0.9000E+01
       23  1    1    2    0    0 0.34163560E+01 -.11765701E+01 0.69944853E+02 0.11498082E+03 0.91188000E+02 0.0000E+00 0.9000E+01
       21  1    1    2  502  501 -.19724253E+02 -.65824090E+01 -.53122376E+03 0.53163110E+03 0.75000000E+00 0.0000E+00 0.9000E+01
#aMCatNLO 1  0  0  1  5 0.33700752D+02 0.00000000D+00  -5  6  0 0.00000000D+00 0.00000000D+00 0.00000000D+00 0.00000000D+00 0.00000000D+00
  <mgrwgt>
 -.1437133275D+01    7    4    0
 0.332620318217867D+03 0.000000000000000D+00 0.000000000000000D+00 0.332620318217867D+03
 0.332620318217867D+03 0.000000000000000D+00 0.000000000000000D+00 -.332620318217867D+03
 0.190282862180267D+03 0.163079152823757D+02 0.775898507655570D+01 0.142325042382706D+03
 0.178497613038956D+03 0.341637291259709D+01 -.117656442991178D+01 0.153404988865647D+03
 0.296460161216511D+03 -.197242881949728D+02 -.658242064664392D+01 -.295730031248353D+03
 0.000000000000000D+00 0.000000000000000D+00 -.000000000000000D+00 0.000000000000000D+00
 0.388626882984228D+03 0.000000000000000D+00 0.000000000000000D+00 0.388626882984228D+03
 0.337491675244084D+03 0.000000000000000D+00 0.000000000000000D+00 -.337491675244084D+03
 0.189990053052745D+03 0.835310922796691D+01 0.120427628047533D+02 0.142325042382706D+03
 0.178529711893380D+03 -.405216616077044D+01 0.284535151949509D+01 0.153404988865647D+03
 0.297472340983666D+03 -.321485700072001D+02 0.108234204277485D+00 -.295730031248353D+03
 0.601264522985208D+02 0.278476269400036D+02 -.149963485285259D+02 0.511352077401438D+02
 0.332620318217867D+03 0.000000000000000D+00 0.000000000000000D+00 0.332620318217867D+03
 0.332620318217867D+03 0.000000000000000D+00 0.000000000000000D+00 -.332620318217867D+03
 0.190282862180267D+03 0.163079152823757D+02 0.775898507655570D+01 0.142325042382706D+03
 0.178497613038956D+03 0.341637291259709D+01 -.117656442991178D+01 0.153404988865647D+03
 0.000000000000000D+00 0.000000000000000D+00 -.000000000000000D+00 0.000000000000000D+00
 0.296460161216511D+03 -.197242881949728D+02 -.658242064664392D+01 -.295730031248353D+03
 0.388626882984228D+03 0.000000000000000D+00 0.000000000000000D+00 0.388626882984228D+03
 0.337491675244084D+03 0.000000000000000D+00 0.000000000000000D+00 -.337491675244084D+03
 0.189990053052745D+03 0.835310922796691D+01 0.120427628047533D+02 0.142325042382706D+03
 0.178529711893380D+03 -.405216616077044D+01 0.284535151949509D+01 0.153404988865647D+03
 0.601264522985208D+02 0.278476269400036D+02 -.149963485285259D+02 0.511352077401438D+02
 0.297472340983666D+03 -.321485700072001D+02 0.108234204277485D+00 -.295730031248353D+03
0.294509141593D-02 0.000000000000D+00 0.000000000000D+00 0.212981145536D-03 0.000000000000D+00  6 1 -1 25 23 21 21 2 0.28511666D-01 0.91843461D-01 0.14202808D+05 0.14202808D+05 0.14202808D+05 0.12505354D+01  1  2  2  1  6  1        1 0.927859499608D-01 0.100000000000D+01
0.101866566009D-02 0.155416743853D-03 -.113099264976D-04 0.212981145536D-03 0.000000000000D+00  6 1 -1 25 23 21 21 4 0.28511666D-01 0.91843461D-01 0.14202808D+05 0.14202808D+05 0.14202808D+05 0.12505354D+01  1  2  3  1  6  1        1 0.501888314315D-01 0.100000000000D+01
0.135375560276D-03 0.000000000000D+00 0.000000000000D+00 0.212981145536D-03 0.000000000000D+00  6 1 -1 25 23 21 21 4 0.28511666D-01 0.91843461D-01 0.14202808D+05 0.14202808D+05 0.14202808D+05 0.12505354D+01  1  2 15  1  6  1        1 0.666984413122D-02 0.100000000000D+01
-.355264003535D-01 0.000000000000D+00 0.000000000000D+00 0.212981145536D-03 0.000000000000D+00  6 1 -1 25 23 21 21 4 0.28511666D-01 0.91843461D-01 0.14202808D+05 0.14202808D+05 0.14202808D+05 0.12505354D+01  1  2  4  1  6  1        1 -.175035695082D+01 0.100000000000D+01
-.405537693325D-01 0.000000000000D+00 -.605402424774D-02 0.212981145536D-03 0.000000000000D+00  6 1 -1 25 23 21 21 4 0.33671473D-01 0.91843461D-01 0.14202808D+05 0.14202808D+05 0.14202808D+05 0.12505354D+01  1  2  5  1  6  1        1 -.162633436191D+01 0.100000000000D+01
0.410740446574D-01 0.000000000000D+00 0.597122700804D-02 0.212981145536D-03 0.000000000000D+00  6 1 -1 25 23 21 21 4 0.28511666D-01 0.91843461D-01 0.14202808D+05 0.14202808D+05 0.14202808D+05 0.12505354D+01  1  2  6  1  6  1        1 0.202368488924D+01 0.100000000000D+01
-.954500529416D-03 0.000000000000D+00 -.150034880637D-03 0.212981145536D-03 0.000000000000D+00  6 21 -1 25 23 -1 21 4 0.33671473D-01 0.91843461D-01 0.14202808D+05 0.14202808D+05 0.14202808D+05 0.12505354D+01  3  4  5  4  5  1        1 -.233771477134D+00 0.100000000000D+01
  </mgrwgt>
  </event>
  <event>
  5     66 0.42989208E-03 0.34868945E+02 0.75467711E-02 0.10554388E+00
        1 -1    0    0  502    0 0.00000000E+00 0.00000000E+00 0.56891244E+03 0.56891253E+03 0.32000000E+00 0.0000E+00 0.9000E+01
       -1 -1    0    0    0  501 0.00000000E+00 0.00000000E+00 -.11625433E+03 0.11625477E+03 0.32000000E+00 0.0000E+00 0.9000E+01
       25  1    1    2    0    0 -.13890221E+03 0.16461509E+03 0.23472426E+03 0.34221693E+03 0.12500000E+03 0.0000E+00 0.9000E+01
       23  1    1    2    0    0 0.10761984E+03 -.18000191E+03 0.17703645E+03 0.28920559E+03 0.91188000E+02 0.0000E+00 0.9000E+01
       21  1    1    2  502  501 0.31282372E+02 0.15386822E+02 0.40897408E+02 0.53744781E+02 0.75000000E+00 0.0000E+00 0.9000E+01
#aMCatNLO 1  0  0  2  5 0.18956705D+03 0.00000000D+00  -5  6  0 0.00000000D+00 0.00000000D+00 0.00000000D+00 0.00000000D+00 0.00000000D+00
  <mgrwgt>
 0.5036172226D+00    3    2    0
 0.257174485915608D+03 0.000000000000000D+00 0.000000000000000D+00 0.257174485915608D+03
 0.257174485915608D+03 0.000000000000000D+00 0.000000000000000D+00 -.257174485915608D+03
 0.249298440601930D+03 -.138905580061633D+03 0.164613429833272D+03 0.115052610931399D+02
 0.229449522356722D+03 0.107616745029944D+03 -.180003431237338D+03 -.186877740159980D+02
 0.356010088725649D+02 0.312888350316897D+02 0.153900014040651D+02 0.718251292285811D+01
 0.000000000000000D+00 -.000000000000000D+00 0.000000000000000D+00 0.000000000000000D+00
 0.387981423605661D+03 0.000000000000000D+00 0.000000000000000D+00 0.387981423605661D+03
 0.352963090408295D+03 0.000000000000000D+00 0.000000000000000D+00 -.352963090408295D+03
 0.193879349080793D+03 -.118532828731780D+03 0.882145083306205D+02 0.115052610931399D+02
 0.318858179106342D+03 0.132822287171727D+03 -.274525580177531D+03 -.186877740159980D+02
 0.354326374914147D+02 0.345542306519489D+02 0.314459087369085D+01 0.718251292285811D+01
 0.192774348335406D+03 -.488436890918958D+02 0.183166480973220D+03 0.350183331973666D+02
0.282086228118D-02 0.000000000000D+00 0.000000000000D+00 0.837605009066D-05 0.000000000000D+00  6 1 -1 25 23 21 21 2 0.87525032D-01 0.17885322D-01 0.65686868D+05 0.65686868D+05 0.65686868D+05 0.11807205D+01  1  2  2  2  6  2       -1 0.361290589849D+00 0.100000000000D+01
0.788256053731D-03 0.148860992303D-03 -.108328539098D-04 0.837605009066D-05 0.000000000000D+00  6 1 -1 25 23 21 21 4 0.87525032D-01 0.17885322D-01 0.65686868D+05 0.65686868D+05 0.65686868D+05 0.11807205D+01  1  2  3  2  6  2       -1 0.140746068892D+00 0.100000000000D+01
0.885203429473D-05 0.000000000000D+00 0.000000000000D+00 0.837605009066D-05 0.000000000000D+00  6 1 -1 25 23 21 21 4 0.87525032D-01 0.17885322D-01 0.65686868D+05 0.65686868D+05 0.65686868D+05 0.11807205D+01  1  2 15  2  6  2       -1 0.158056385712D-02 0.100000000000D+01
  </mgrwgt>
  </event>
  <event>
  5     66 0.42989208E-03 0.22564299E+02 0.75467711E-02 0.11633560E+00
        1 -1    0    0  502    0 0.00000000E+00 0.00000000E+00 0.10875537E+04 0.10875537E+04 0.32000000E+00 0.0000E+00 0.9000E+01
       -1 -1    0    0    0  501 0.00000000E+00 0.00000000E+00 -.28200717E+02 0.28202532E+02 0.32000000E+00 0.0000E+00 0.9000E+01
       25  1    1    2    0    0 0.26304377E+02 -.23411965E+01 0.45990723E+03 0.47732281E+03 0.12500000E+03 0.0000E+00 0.9000E+01
       23  1    1    2    0    0 -.46278105E+02 -.81552321E+01 0.60623920E+03 0.61485721E+03 0.91188000E+02 0.0000E+00 0.9000E+01
       21  1    1    2  502  501 0.19973728E+02 0.10496429E+02 -.67934781E+01 0.23576231E+02 0.75000000E+00 0.0000E+00 0.9000E+01
#aMCatNLO 1  0  0  1  1 0.10299337D+03 0.00000000D+00  -5  6  0 0.00000000D+00 0.00000000D+00 0.00000000D+00 0.00000000D+00 0.00000000D+00
  <mgrwgt>
 0.9680646387D-01    7    4    0
 0.175130900216711D+03 0.000000000000000D+00 0.000000000000000D+00 0.175130900216711D+03
 0.175130900216711D+03 0.000000000000000D+00 0.000000000000000D+00 -.175130900216711D+03
 0.129537014444411D+03 0.263041497498269D+02 -.234131585857565D+01 0.213880353740269D+02
 0.125077082649198D+03 -.462783241154718D+02 -.815534729536361D+01 0.715599908300000D+02
 0.956477033398132D+02 0.199741743656449D+02 0.104966631539393D+02 -.929480262040269D+02
 0.000000000000000D+00 0.000000000000000D+00 -.000000000000000D+00 0.000000000000000D+00
 0.274137344983933D+03 0.000000000000000D+00 0.000000000000000D+00 0.274137344983933D+03
 0.211498617106594D+03 0.000000000000000D+00 0.000000000000000D+00 -.211498617106594D+03
 0.127280362244296D+03 -.101488190337997D+02 0.385279484241690D+01 0.213880353740269D+02
 0.143386274114061D+03 -.843843373838062D+02 -.168035026676570D+01 0.715599908300000D+02
 0.944237131720816D+02 -.700479217510507D+01 0.150809456123501D+02 -.929480262040269D+02
 0.120545612560088D+03 0.101537948592711D+03 -.172533901880013D+02 0.626387278773395D+02
 0.175130900216711D+03 0.000000000000000D+00 0.000000000000000D+00 0.175130900216711D+03
 0.175130900216711D+03 0.000000000000000D+00 0.000000000000000D+00 -.175130900216711D+03
 0.129537014444411D+03 0.263041497498269D+02 -.234131585857565D+01 0.213880353740269D+02
 0.125077082649198D+03 -.462783241154718D+02 -.815534729536361D+01 0.715599908300000D+02
 0.000000000000000D+00 0.000000000000000D+00 -.000000000000000D+00 0.000000000000000D+00
 0.956477033398132D+02 0.199741743656449D+02 0.104966631539393D+02 -.929480262040269D+02
 0.274137344983933D+03 0.000000000000000D+00 0.000000000000000D+00 0.274137344983933D+03
 0.211498617106594D+03 0.000000000000000D+00 0.000000000000000D+00 -.211498617106594D+03
 0.127280362244296D+03 -.101488190337997D+02 0.385279484241690D+01 0.213880353740269D+02
 0.143386274114061D+03 -.843843373838062D+02 -.168035026676570D+01 0.715599908300000D+02
 0.120545612560088D+03 0.101537948592711D+03 -.172533901880013D+02 0.626387278773395D+02
 0.944237131720816D+02 -.700479217510507D+01 0.150809456123501D+02 -.929480262040269D+02
0.138561128475D-03 0.000000000000D+00 0.000000000000D+00 0.446562793851D-04 0.000000000000D+00  6 1 -1 25 23 21 21 2 0.16731609D+00 0.43387151D-02 0.15990519D+05 0.15990519D+05 0.15990519D+05 0.12446690D+01  1  2  2  1  6  1        1 0.634176970198D-01 0.100000000000D+01
0.218616754975D-04 0.731207163745D-05 -.532111217327D-06 0.446562793851D-04 0.000000000000D+00  6 1 -1 25 23 21 21 4 0.16731609D+00 0.43387151D-02 0.15990519D+05 0.15990519D+05 0.15990519D+05 0.12446690D+01  1  2  3  1  6  1        1 0.155010176856D-01 0.100000000000D+01
0.435857128830D-05 0.000000000000D+00 0.000000000000D+00 0.446562793851D-04 0.000000000000D+00  6 1 -1 25 23 21 21 4 0.16731609D+00 0.43387151D-02 0.15990519D+05 0.15990519D+05 0.15990519D+05 0.12446690D+01  1  2 15  1  6  1        1 0.309044430888D-02 0.100000000000D+01
-.120075445051D-03 0.000000000000D+00 0.000000000000D+00 0.446562793851D-04 0.000000000000D+00  6 1 -1 25 23 21 21 4 0.16731609D+00 0.43387151D-02 0.15990519D+05 0.15990519D+05 0.15990519D+05 0.12446690D+01  1  2  4  1  6  1        1 -.851394760459D-01 0.100000000000D+01
-.147397270155D-03 0.000000000000D+00 -.101580296593D-03 0.446562793851D-04 0.000000000000D+00  6 1 -1 25 23 21 21 4 0.28731732D+00 0.43387151D-02 0.15990519D+05 0.15990519D+05 0.15990519D+05 0.12446690D+01  1  2  5  1  6  1        1 -.322242196390D-01 0.100000000000D+01
0.187475121700D-03 0.000000000000D+00 0.883479108450D-04 0.446562793851D-04 0.000000000000D+00  6 1 -1 25 23 21 21 4 0.16731609D+00 0.43387151D-02 0.15990519D+05 0.15990519D+05 0.15990519D+05 0.12446690D+01  1  2  6  1  6  1        1 0.132929206520D+00 0.100000000000D+01
-.386903671443D-05 0.000000000000D+00 -.610149483482D-05 0.446562793851D-04 0.000000000000D+00  6 21 -1 25 23 -1 21 4 0.28731732D+00 0.43387151D-02 0.15990519D+05 0.15990519D+05 0.15990519D+05 0.12446690D+01  3  4  5  4  5  1        1 -.768205975897D-03 0.100000000000D+01
  </mgrwgt>
  </event>
  <event>
  5     66 0.42989208E-03 0.38817910E+02 0.75467711E-02 0.11790459E+00
        1 -1    0    0  502    0 0.00000000E+00 0.00000000E+00 0.52020404E+02 0.52021388E+02 0.32000000E+00 0.0000E+00 0.9000E+01
       -1 -1    0    0    0  501 0.00000000E+00 0.00000000E+00 -.53857416E+03 0.53857425E+03 0.32000000E+00 0.0000E+00 0.9000E+01
       25  1    1    2    0    0 -.21931552E+02 0.97392046E+02 -.22278460E+03 0.27427027E+03 0.12500000E+03 0.0000E+00 0.9000E+01
       23  1    1    2    0    0 0.49013691E+02 -.66733374E+02 -.14257095E+03 0.18840757E+03 0.91188000E+02 0.0000E+00 0.9000E+01
       21  1    1    2  502  501 -.27082139E+02 -.30658672E+02 -.12119821E+03 0.12791780E+03 0.75000000E+00 0.0000E+00 0.9000E+01
#aMCatNLO 1  0  0  2  5 0.13090964D+02 0.00000000D+00  -5  6  0 0.00000000D+00 0.00000000D+00 0.00000000D+00 0.00000000D+00 0.00000000D+00
  <mgrwgt>
 0.4432136792D-01    9    4    0
 0.167383284254890D+03 0.000000000000000D+00 0.000000000000000D+00 0.167383284254890D+03
 0.167383284254890D+03 0.000000000000000D+00 0.000000000000000D+00 -.167383284254890D+03
 0.160071047659050D+03 -.219300670857159D+02 0.973937275430006D+02 0.559234222500533D+01
 0.125174527946999D+03 0.490148525395716D+02 -.667320587238260D+02 0.223111557692104D+02
 0.495209929037306D+02 -.270847854538557D+02 -.306616688191746D+02 -.279034979942157D+02
 0.000000000000000D+00 0.000000000000000D+00 0.000000000000000D+00 -.000000000000000D+00
 0.169159986578185D+03 0.000000000000000D+00 0.000000000000000D+00 0.169159986578185D+03
 0.193496221178664D+03 0.000000000000000D+00 0.000000000000000D+00 -.193496221178664D+03
 0.156504841077828D+03 -.226230543110898D+02 0.912452103009904D+02 0.559234222500533D+01
 0.127648651233847D+03 0.484614205200019D+02 -.716423748018305D+02 0.223111557692104D+02
 0.508689378914010D+02 -.273045398384197D+02 -.326114358177950D+02 -.279034979942157D+02
 0.276337775537734D+02 0.146617362950755D+01 0.130086003186351D+02 -.243362346004795D+02
 0.167383284254890D+03 0.000000000000000D+00 0.000000000000000D+00 0.167383284254890D+03
 0.167383284254890D+03 0.000000000000000D+00 0.000000000000000D+00 -.167383284254890D+03
 0.160071047659050D+03 -.219300670857159D+02 0.973937275430006D+02 0.559234222500533D+01
 0.125174527946999D+03 0.490148525395716D+02 -.667320587238260D+02 0.223111557692104D+02
 0.000000000000000D+00 0.000000000000000D+00 0.000000000000000D+00 -.000000000000000D+00
 0.495209929037306D+02 -.270847854538557D+02 -.306616688191746D+02 -.279034979942157D+02
 0.169159986578185D+03 0.000000000000000D+00 0.000000000000000D+00 0.169159986578185D+03
 0.193496221178664D+03 0.000000000000000D+00 0.000000000000000D+00 -.193496221178664D+03
 0.156504841077828D+03 -.226230543110898D+02 0.912452103009904D+02 0.559234222500533D+01
 0.127648651233847D+03 0.484614205200019D+02 -.716423748018305D+02 0.223111557692104D+02
 0.276337775537734D+02 0.146617362950755D+01 0.130086003186351D+02 -.243362346004795D+02
 0.508689378914010D+02 -.273045398384197D+02 -.326114358177950D+02 -.279034979942157D+02
0.431865084669D-04 0.000000000000D+00 0.000000000000D+00 0.897549514193D-05 0.000000000000D+00  6 1 -1 25 23 21 21 2 0.80032221D-02 0.82857646D-01 0.26252846D+05 0.26252846D+05 0.26252846D+05 0.12210274D+01  1  2  2  2  6  2       -1 0.835701359837D-02 0.100000000000D+01
0.318584713275D-05 0.227901466419D-05 -.165847563782D-06 0.897549514193D-05 0.000000000000D+00  6 1 -1 25 23 21 21 4 0.80032221D-02 0.82857646D-01 0.26252846D+05 0.26252846D+05 0.26252846D+05 0.12210274D+01  1  2  3  2  6  2       -1 0.919133816852D-03 0.100000000000D+01
0.725342944888D-06 0.000000000000D+00 0.000000000000D+00 0.897549514193D-05 0.000000000000D+00  6 1 -1 25 23 21 21 4 0.80032221D-02 0.82857646D-01 0.26252846D+05 0.26252846D+05 0.26252846D+05 0.12210274D+01  1  2 15  2  6  2       -1 0.209265291673D-03 0.100000000000D+01
0.266300490412D-03 0.000000000000D+00 0.000000000000D+00 0.891965786301D-05 0.000000000000D+00  6 1 -1 25 23 21 21 4 0.80032221D-02 0.10253042D+00 0.28512417D+05 0.28512417D+05 0.28512417D+05 0.12172234D+01  1  2 12  2  6  2       -1 0.480411552340D-01 0.100000000000D+01
-.165970878001D-03 0.000000000000D+00 0.000000000000D+00 0.897549514193D-05 0.000000000000D+00  6 1 -1 25 23 21 21 4 0.80032221D-02 0.82857646D-01 0.26252846D+05 0.26252846D+05 0.26252846D+05 0.12210274D+01  1  2  4  2  6  2       -1 -.478834797235D-01 0.100000000000D+01
-.564373917684D-03 0.000000000000D+00 -.542365374859D-04 0.897549514193D-05 0.000000000000D+00  6 1 -1 25 23 21 21 4 0.80032221D-02 0.96311568D-01 0.26252846D+05 0.26252846D+05 0.26252846D+05 0.12210274D+01  1  2  5  2  6  2       -1 -.118245154656D+00 0.100000000000D+01
0.566715590902D-03 0.000000000000D+00 0.536283309539D-04 0.897549514193D-05 0.000000000000D+00  6 1 -1 25 23 21 21 4 0.80032221D-02 0.82857646D-01 0.26252846D+05 0.26252846D+05 0.26252846D+05 0.12210274D+01  1  2  6  2  6  2       -1 0.163500457627D+00 0.100000000000D+01
0.799652956326D-05 0.000000000000D+00 0.000000000000D+00 0.891965786301D-05 0.000000000000D+00  6 1 21 25 23 1 21 4 0.80032221D-02 0.10253042D+00 0.28512417D+05 0.28512417D+05 0.28512417D+05 0.12172234D+01  3  4 12  5  5  2       -1 0.125705008600D-01 0.100000000000D+01
-.125276360437D-04 0.000000000000D+00 -.124028677358D-05 0.897549514193D-05 0.000000000000D+00  6 1 21 25 23 1 21 4 0.80032221D-02 0.96311568D-01 0.26252846D+05 0.26252846D+05 0.26252846D+05 0.12210274D+01  3  4  5  5  5  2       -1 -.231475241277D-01 0.100000000000D+01
  </mgrwgt>
  </event>
  <event>
  5     66 0.42989208E-03 0.21314078E+02 0.75467711E-02 0.10391579E+00
        1 -1    0    0  502    0 0.00000000E+00 0.00000000E+00 0.20924489E+03 0.20924514E+03 0.32000000E+00 0.0000E+00 0.9000E+01
       -1 -1    0    0    0  501 0.00000000E+00 0.00000000E+00 -.86143047E+02 0.86143641E+02 0.32000000E+00 0.0000E+00 0.9000E+01
       25  1    1    2    0    0 -.40412620E+01 0.29699812E+02 0.10481464E+03 0.16585994E+03 0.12500000E+03 0.0000E+00 0.9000E+01
       23  1    1    2    0    0 0.13448914E+02 -.48817442E+02 0.24846846E+02 0.10722235E+03 0.91188000E+02 0.0000E+00 0.9000E+01
       21  1    1    2  502  501 -.94076522E+01 0.19117630E+02 -.65596455E+01 0.22306482E+02 0.75000000E+00 0.0000E+00 0.9000E+01
#aMCatNLO 1  0  0  2  1 0.69214129D+01 0.00000000D+00  -5  6  0 0.00000000D+00 0.00000000D+00 0.00000000D+00 0.00000000D+00 0.00000000D+00
  <mgrwgt>
 0.2287998463D+00    5    4    0
 0.134257649131484D+03 0.000000000000000D+00 0.000000000000000D+00 0.134257649131484D+03
 0.134257649131484D+03 0.000000000000000D+00 0.000000000000000D+00 -.134257649131484D+03
 0.134406936584489D+03 -.403951561044557D+01 0.296962634540198D+02 0.392688025349530D+02
 0.106563161627327D+03 0.134502988505996D+02 -.488202558967212D+02 -.218203608361547D+02
 0.275452000511528D+02 -.941078324015400D+01 0.191239924427014D+02 -.174484416987983D+02
 0.000000000000000D+00 0.000000000000000D+00 0.000000000000000D+00 -.000000000000000D+00
 0.363057871118238D+03 0.000000000000000D+00 0.000000000000000D+00 0.363057871118238D+03
 0.493781815604843D+03 0.000000000000000D+00 0.000000000000000D+00 -.493781815604843D+03
 0.233913961560079D+03 -.192787104016503D+03 0.195406009408896D+02 0.392688025349530D+02
 0.167703577163372D+03 -.127098841281057D+03 -.563825757427211D+02 -.218203608361547D+02
 0.589038264230463D+02 -.537119492865400D+02 0.167403450800801D+02 -.174484416987983D+02
 0.396318321576583D+03 0.373597894584101D+03 0.201016297217515D+02 -.130723944486604D+03
 0.134257649131484D+03 0.000000000000000D+00 0.000000000000000D+00 0.134257649131484D+03
 0.134257649131484D+03 0.000000000000000D+00 0.000000000000000D+00 -.134257649131484D+03
 0.134406936584489D+03 -.403951561044557D+01 0.296962634540198D+02 0.392688025349530D+02
 0.106563161627327D+03 0.134502988505996D+02 -.488202558967212D+02 -.218203608361547D+02
 0.000000000000000D+00 0.000000000000000D+00 0.000000000000000D+00 -.000000000000000D+00
 0.275452000511528D+02 -.941078324015400D+01 0.191239924427014D+02 -.174484416987983D+02
 0.363057871118238D+03 0.000000000000000D+00 0.000000000000000D+00 0.363057871118238D+03
 0.493781815604843D+03 0.000000000000000D+00 0.000000000000000D+00 -.493781815604843D+03
 0.233913961560079D+03 -.192787104016503D+03 0.195406009408896D+02 0.392688025349530D+02
 0.167703577163372D+03 -.127098841281057D+03 -.563825757427211D+02 -.218203608361547D+02
 0.396318321576583D+03 0.373597894584101D+03 0.201016297217515D+02 -.130723944486604D+03
 0.589038264230463D+02 -.537119492865400D+02 0.167403450800801D+02 -.174484416987983D+02
0.191841966986D-03 0.000000000000D+00 0.000000000000D+00 0.380561335778D-04 0.000000000000D+00  6 1 -1 25 23 21 21 2 0.32191586D-01 0.13252841D-01 0.16149561D+05 0.16149561D+05 0.16149561D+05 0.12441831D+01  1  2  2  2  6  2       -1 0.153271371446D+00 0.100000000000D+01
0.330101820302D-04 0.101237787330D-04 -.736723666375D-06 0.380561335778D-04 0.000000000000D+00  6 1 -1 25 23 21 21 4 0.32191586D-01 0.13252841D-01 0.16149561D+05 0.16149561D+05 0.16149561D+05 0.12441831D+01  1  2  3  2  6  2       -1 0.408257265289D-01 0.100000000000D+01
0.593902258754D-05 0.000000000000D+00 0.000000000000D+00 0.380561335778D-04 0.000000000000D+00  6 1 -1 25 23 21 21 4 0.32191586D-01 0.13252841D-01 0.16149561D+05 0.16149561D+05 0.16149561D+05 0.12441831D+01  1  2 15  2  6  2       -1 0.734515525502D-02 0.100000000000D+01
0.420828978143D-03 0.000000000000D+00 -.182483598902D-03 0.380561335778D-04 0.000000000000D+00  6 1 -1 25 23 21 21 4 0.32191586D-01 0.11850280D+00 0.16149561D+05 0.16149561D+05 0.16149561D+05 0.12441831D+01  1  2  5  2  6  2       -1 0.988930255776D-02 0.100000000000D+01
0.853789305960D-04 0.000000000000D+00 -.481026265750D-04 0.380561335778D-04 0.000000000000D+00  6 1 21 25 23 1 21 4 0.32191586D-01 0.11850280D+00 0.16149561D+05 0.16149561D+05 0.16149561D+05 0.12441831D+01  3  4  5  5  5  2       -1 0.174682905229D-01 0.100000000000D+01
  </mgrwgt>
  </event>
  <event>
  5     66 0.42989208E-03 0.38083276E+02 0.75467711E-02 0.11441445E+00
        1 -1    0    0  502    0 0.00000000E+00 0.00000000E+00 0.21358392E+04 0.21358393E+04 0.32000000E+00 0.0000E+00 0.9000E+01
       -1 -1    0    0    0  501 0.00000000E+00 0.00000000E+00 -.25618363E+02 0.25620361E+02 0.32000000E+00 0.0000E+00 0.9000E+01
       25  1    1    2    0    0 0.43766215E+02 -.11669223E+03 0.48936692E+03 0.52022836E+03 0.12500000E+03 0.0000E+00 0.9000E+01
       23  1    1    2    0    0 -.25746785E+02 0.15024164E+03 0.79946772E+03 0.81896235E+03 0.91188000E+02 0.0000E+00 0.9000E+01
       21  1    1    2  502  501 -.18019430E+02 -.33549401E+02 0.82138623E+03 0.82226891E+03 0.75000000E+00 0.0000E+00 0.9000E+01
#aMCatNLO 1  0  0  5  2 0.29903213D+02 0.00000000D+00  -5  6  0 0.00000000D+00 0.00000000D+00 0.00000000D+00 0.00000000D+00 0.00000000D+00
  <mgrwgt>
 0.1824812458D+00   15    2    0
 0.233920691973405D+03 0.000000000000000D+00 0.000000000000000D+00 0.233920691973405D+03
 0.233920691973405D+03 -.000000000000000D+00 -.000000000000000D+00 -.233920691973405D+03
 0.196178516551973D+03 0.437664549285867D+02 -.116691786989465D+03 -.856068608741265D+02
 0.177625863555489D+03 -.257465669631176D+02 0.150242040881843D+03 -.373498467705243D+00
 0.940370038393484D+02 -.180198879654691D+02 -.335502538923784D+02 0.859803593418318D+02
 0.000000000000000D+00 0.000000000000000D+00 0.000000000000000D+00 0.000000000000000D+00
 0.233920691973405D+03 0.000000000000000D+00 0.000000000000000D+00 0.233920691973405D+03
 0.233920691973405D+03 -.000000000000000D+00 -.000000000000000D+00 -.233920691973405D+03
 0.194341988473152D+03 0.420743839700708D+02 -.119842162306499D+03 -.775332885342839D+02
 0.175590077632403D+03 -.272770024421213D+02 0.147392605913942D+03 0.692884396008237D+01
 0.533262530697885D+02 -.270211430361228D+02 -.360151026732586D+02 0.285737550020846D+02
 0.445830647714673D+02 0.122237615081733D+02 0.846465906581564D+01 0.420306895721169D+02
0.942453430606D-03 0.000000000000D+00 0.000000000000D+00 0.881713641607D-05 0.000000000000D+00  6 1 -1 25 23 21 21 2 0.32859081D+00 0.39414422D-02 0.38459828D+05 0.38459828D+05 0.38459828D+05 0.12037358D+01  1  2  2  3  6  5       21 0.954823416072D-01 0.100000000000D+01
0.101628678231D-03 0.497346339150D-04 -.361926932722D-05 0.881713641607D-05 0.000000000000D+00  6 1 -1 25 23 21 21 4 0.32859081D+00 0.39414422D-02 0.38459828D+05 0.38459828D+05 0.38459828D+05 0.12037358D+01  1  2  3  3  6  5       21 0.149190716798D-01 0.100000000000D+01
0.747286785663D-05 0.000000000000D+00 0.000000000000D+00 0.881713641607D-05 0.000000000000D+00  6 1 -1 25 23 21 21 4 0.32859081D+00 0.39414422D-02 0.38459828D+05 0.38459828D+05 0.38459828D+05 0.12037358D+01  1  2 15  3  6  5       21 0.109701565687D-02 0.100000000000D+01
0.368842998566D-03 0.000000000000D+00 0.000000000000D+00 0.874895028416D-05 0.000000000000D+00  6 1 -1 25 23 21 21 4 0.32859081D+00 0.39414422D-02 0.42756436D+05 0.42756436D+05 0.42756436D+05 0.11990723D+01  1  2 12  3  6  5       21 0.532219837803D-01 0.100000000000D+01
-.330613693969D-03 0.000000000000D+00 0.000000000000D+00 0.881713641607D-05 0.000000000000D+00  6 1 -1 25 23 21 21 4 0.32859081D+00 0.39414422D-02 0.38459828D+05 0.38459828D+05 0.38459828D+05 0.12037358D+01  1  2  4  3  6  5       21 -.485340307923D-01 0.100000000000D+01
-.591070901412D-03 0.000000000000D+00 0.000000000000D+00 0.881713641607D-05 0.000000000000D+00  6 1 -1 25 23 21 21 4 0.32859081D+00 0.39414422D-02 0.38459828D+05 0.38459828D+05 0.38459828D+05 0.12037358D+01  1  2  5  3  6  5       21 -.867691019849D-01 0.100000000000D+01
0.101349780317D-02 0.000000000000D+00 -.000000000000D+00 0.881713641607D-05 0.000000000000D+00  6 1 -1 25 23 21 21 4 0.32859081D+00 0.39414422D-02 0.38459828D+05 0.38459828D+05 0.38459828D+05 0.12037358D+01  1  2  6  3  6  5       21 0.148781295162D+00 0.100000000000D+01
0.114782984534D-04 0.000000000000D+00 0.000000000000D+00 0.874895028416D-05 0.000000000000D+00  6 1 -1 25 23 1 -1 4 0.32859081D+00 0.39414422D-02 0.42756436D+05 0.42756436D+05 0.42756436D+05 0.11990723D+01  1  2 12  6  6  5       21 0.165625433175D-02 0.100000000000D+01
-.398901479443D-05 0.000000000000D+00 0.000000000000D+00 0.881713641607D-05 0.000000000000D+00  6 1 -1 25 23 1 -1 4 0.32859081D+00 0.39414422D-02 0.38459828D+05 0.38459828D+05 0.38459828D+05 0.12037358D+01  1  2  5  6  6  5       21 -.585586654140D-03 0.100000000000D+01
0.114782984534D-04 0.000000000000D+00 0.000000000000D+00 0.874895028416D-05 0.000000000000D+00  6 1 -1 25 23 2 -2 4 0.32859081D+00 0.39414422D-02 0.42756436D+05 0.42756436D+05 0.42756436D+05 0.11990723D+01  1  2 12  7  6  5       21 0.165625433175D-02 0.100000000000D+01
0.114782984534D-04 0.000000000000D+00 0.000000000000D+00 0.874895028416D-05 0.000000000000D+00  6 1 -1 25 23 4 -4 4 0.32859081D+00 0.39414422D-02 0.42756436D+05 0.42756436D+05 0.42756436D+05 0.11990723D+01  1  2 12  7  6  5       21 0.165625433175D-02 0.100000000000D+01
-.398901479443D-05 0.000000000000D+00 0.000000000000D+00 0.881713641607D-05 0.000000000000D+00  6 1 -1 25 23 2 -2 4 0.32859081D+00 0.39414422D-02 0.38459828D+05 0.38459828D+05 0.38459828D+05 0.12037358D+01  1  2  5  7  6  5       21 -.585586654140D-03 0.100000000000D+01
-.398901479443D-05 0.000000000000D+00 0.000000000000D+00 0.881713641607D-05 0.000000000000D+00  6 1 -1 25 23 4 -4 4 0.32859081D+00 0.39414422D-02 0.38459828D+05 0.38459828D+05 0.38459828D+05 0.12037358D+01  1  2  5  7  6  5       21 -.585586654140D-03 0.100000000000D+01
0.114782984534D-04 0.000000000000D+00 0.000000000000D+00 0.874895028416D-05 0.000000000000D+00  6 1 -1 25 23 3 -3 4 0.32859081D+00 0.39414422D-02 0.42756436D+05 0.42756436D+05 0.42756436D+05 0.11990723D+01  1  2 12  8  6  5       21 0.165625433175D-02 0.100000000000D+01
-.398901479443D-05 0.000000000000D+00 0.000000000000D+00 0.881713641607D-05 0.000000000000D+00  6 1 -1 25 23 3 -3 4 0.32859081D+00 0.39414422D-02 0.38459828D+05 0.38459828D+05 0.38459828D+05 0.12037358D+01  1  2  5  8  6  5       21 -.585586654140D-03 0.100000000000D+01
  </mgrwgt>
  </event>
  <event>
  5     66 0.42989208E-03 0.34286321E+02 0.75467711E-02 0.11515119E+00
        1 -1    0    0  502    0 0.00000000E+00 0.00000000E+00 0.26214236E+03 0.26214256E+03 0.32000000E+00 0.0000E+00 0.9000E+01
       -1 -1    0    0    0  501 0.00000000E+00 0.00000000E+00 -.17628874E+03 0.17628903E+03 0.32000000E+00 0.0000E+00 0.9000E+01
       25  1    1    2    0    0 0.12375854E+03 0.34665064E+02 0.11436683E+03 0.21265609E+03 0.12500000E+03 0.0000E+00 0.9000E+01
       23  1    1    2    0    0 -.91801775E+02 -.47085335E+02 0.44831665E+02 0.14480927E+03 0.91188000E+02 0.0000E+00 0.9000E+01
       21  1    1    2  502  501 -.31956761E+02 0.12420270E+02 -.73344874E+02 0.80966232E+02 0.75000000E+00 0.0000E+00 0.9000E+01
#aMCatNLO 1  0  0  2  5 0.42646936D+02 0.00000000D+00  -5  6  0 0.00000000D+00 0.00000000D+00 0.00000000D+00 0.00000000D+00 0.00000000D+00
  <mgrwgt>
 0.7501484276D-01    4    2    0
 0.214971751010651D+03 0.000000000000000D+00 0.000000000000000D+00 0.214971751010651D+03
 0.214971751010651D+03 0.000000000000000D+00 0.000000000000000D+00 -.214971751010651D+03
 0.194017695547774D+03 0.123758964423745D+03 0.346648976062926D+02 0.741615114758054D+02
 0.138715836345183D+03 -.918014677069024D+02 -.470854539350470D+02 0.168012637480812D+02
 0.972099701283468D+02 -.319574967168425D+02 0.124205563287544D+02 -.909627752238865D+02
 0.000000000000000D+00 -.000000000000000D+00 -.000000000000000D+00 0.000000000000000D+00
 0.293188121106083D+03 0.000000000000000D+00 0.000000000000000D+00 0.293188121106083D+03
 0.221919437534655D+03 0.000000000000000D+00 0.000000000000000D+00 -.221919437534655D+03
 0.205292022058556D+03 0.136034983692915D+03 0.501434716407128D+02 0.741615114758054D+02
 0.130078872668594D+03 -.835378846238653D+02 -.366660761436156D+02 0.168012637480812D+02
 0.966825465150124D+02 -.259966393534654D+02 0.199364757798885D+02 -.909627752238865D+02
 0.830541173985767D+02 -.265004597155840D+02 -.334138712769857D+02 0.712686835714277D+02
0.385135918164D-03 0.000000000000D+00 0.000000000000D+00 0.126641677751D-04 0.000000000000D+00  6 1 -1 25 23 21 21 2 0.40329631D-01 0.27121383D-01 0.30846850D+05 0.30846850D+05 0.30846850D+05 0.12136316D+01  1  2  2  2  6  2       -1 0.710850523156D-01 0.100000000000D+01
0.439989127643D-04 0.203241807769D-04 -.147902333437D-05 0.126641677751D-04 0.000000000000D+00  6 1 -1 25 23 21 21 4 0.40329631D-01 0.27121383D-01 0.30846850D+05 0.30846850D+05 0.30846850D+05 0.12136316D+01  1  2  3  2  6  2       -1 0.119613434452D-01 0.100000000000D+01
0.136616862018D-04 0.000000000000D+00 0.000000000000D+00 0.126641677751D-04 0.000000000000D+00  6 1 -1 25 23 21 21 4 0.40329631D-01 0.27121383D-01 0.30846850D+05 0.30846850D+05 0.30846850D+05 0.12136316D+01  1  2 15  2  6  2       -1 0.371400360676D-02 0.100000000000D+01
-.432051569273D-04 0.000000000000D+00 0.000000000000D+00 0.126641677751D-04 0.000000000000D+00  6 1 -1 25 23 21 21 4 0.40329631D-01 0.27121383D-01 0.30846850D+05 0.30846850D+05 0.30846850D+05 0.12136316D+01  1  2  4  2  6  2       -1 -.117455566091D-01 0.100000000000D+01
  </mgrwgt>
  </event>
  <event>
  5     66 -.42989208E-03 0.24183066E+02 0.75467711E-02 0.11951322E+00
        1 -1    0    0  502    0 0.00000000E+00 0.00000000E+00 0.88696239E+03 0.88696245E+03 0.32000000E+00 0.0000E+00 0.9000E+01
       -1 -1    0    0    0  501 0.00000000E+00 0.00000000E+00 -.26850653E+02 0.26852559E+02 0.32000000E+00 0.0000E+00 0.9000E+01
       25  1    1    2    0    0 0.21080889E+02 -.68153054E+02 0.56319390E+03 0.58129305E+03 0.12500000E+03 0.0000E+00 0.9000E+01
       23  1    1    2    0    0 0.30197942E+01 0.66254551E+02 0.17466008E+03 0.20789464E+03 0.91188000E+02 0.0000E+00 0.9000E+01
       21  1    1    2  502  501 -.24100683E+02 0.18985028E+01 0.12225775E+03 0.12462732E+03 0.75000000E+00 0.0000E+00 0.9000E+01
#aMCatNLO 1  0  0  2  5 0.27279564D+02 0.00000000D+00  -5  6  0 0.00000000D+00 0.00000000D+00 0.00000000D+00 0.00000000D+00 0.00000000D+00
  <mgrwgt>
 -.5901100028D-01    7    4    0
 0.154325683903636D+03 0.000000000000000D+00 0.000000000000000D+00 0.154325683903636D+03
 0.154325683903636D+03 0.000000000000000D+00 0.000000000000000D+00 -.154325683903636D+03
 0.151577520988756D+03 0.210850510577318D+02 -.681533818415404D+02 0.475529392840332D+02
 0.128787232730269D+03 0.302333063890260D+01 0.662542725772934D+02 -.622264478129849D+02
 0.282866140882464D+02 -.241083816966344D+02 0.189910926424695D+01 0.146735085289517D+02
 0.000000000000000D+00 -.000000000000000D+00 0.000000000000000D+00 -.000000000000000D+00
 0.158539757552766D+03 0.000000000000000D+00 0.000000000000000D+00 0.158539757552766D+03
 0.206427487780658D+03 0.000000000000000D+00 0.000000000000000D+00 -.206427487780658D+03
 0.158275612032371D+03 0.217505820717596D+02 -.818034199114589D+02 0.475529392840332D+02
 0.123453472464087D+03 0.356511638968814D+01 0.551422492935034D+02 -.622264478129849D+02
 0.281254643721156D+02 -.239872146539936D+02 -.586026229072942D+00 0.146735085289517D+02
 0.551126964648501D+02 -.132848380745417D+01 0.272471968470284D+02 -.478877302278916D+02
 0.154325683903636D+03 0.000000000000000D+00 0.000000000000000D+00 0.154325683903636D+03
 0.154325683903636D+03 0.000000000000000D+00 0.000000000000000D+00 -.154325683903636D+03
 0.151577520988756D+03 0.210850510577318D+02 -.681533818415404D+02 0.475529392840332D+02
 0.128787232730269D+03 0.302333063890260D+01 0.662542725772934D+02 -.622264478129849D+02
 0.000000000000000D+00 -.000000000000000D+00 0.000000000000000D+00 -.000000000000000D+00
 0.282866140882464D+02 -.241083816966344D+02 0.189910926424695D+01 0.146735085289517D+02
 0.158539757552766D+03 0.000000000000000D+00 0.000000000000000D+00 0.158539757552766D+03
 0.206427487780658D+03 0.000000000000000D+00 0.000000000000000D+00 -.206427487780658D+03
 0.158275612032371D+03 0.217505820717596D+02 -.818034199114589D+02 0.475529392840332D+02
 0.123453472464087D+03 0.356511638968814D+01 0.551422492935034D+02 -.622264478129849D+02
 0.551126964648501D+02 -.132848380745417D+01 0.272471968470284D+02 -.478877302278916D+02
 0.281254643721156D+02 -.239872146539936D+02 -.586026229072942D+00 0.146735085289517D+02
0.251675290254D-04 0.000000000000D+00 0.000000000000D+00 0.225799882572D-04 0.000000000000D+00  6 1 -1 25 23 21 21 2 0.13645590D+00 0.41310208D-02 0.19721249D+05 0.19721249D+05 0.19721249D+05 0.12344977D+01  1  2  2  2  6  2       -1 0.171752515746D-01 0.100000000000D+01
0.438632726627D-05 0.132812699490D-05 -.966499382200D-07 0.225799882572D-04 0.000000000000D+00  6 1 -1 25 23 21 21 4 0.13645590D+00 0.41310208D-02 0.19721249D+05 0.19721249D+05 0.19721249D+05 0.12344977D+01  1  2  3  2  6  2       -1 0.456188272523D-02 0.100000000000D+01
0.103981942032D-05 0.000000000000D+00 0.000000000000D+00 0.225799882572D-04 0.000000000000D+00  6 1 -1 25 23 21 21 4 0.13645590D+00 0.41310208D-02 0.19721249D+05 0.19721249D+05 0.19721249D+05 0.12344977D+01  1  2 15  2  6  2       -1 0.108143646449D-02 0.100000000000D+01
-.760202050373D-04 0.000000000000D+00 0.000000000000D+00 0.225799882572D-04 0.000000000000D+00  6 1 -1 25 23 21 21 4 0.13645590D+00 0.41310208D-02 0.19721249D+05 0.19721249D+05 0.19721249D+05 0.12344977D+01  1  2  4  2  6  2       -1 -.790627874018D-01 0.100000000000D+01
-.134487251277D-03 0.000000000000D+00 -.183368090017D-04 0.225799882572D-04 0.000000000000D+00  6 1 -1 25 23 21 21 4 0.13645590D+00 0.56714809D-02 0.19721249D+05 0.19721249D+05 0.19721249D+05 0.12344977D+01  1  2  5  2  6  2       -1 -.875283653886D-01 0.100000000000D+01
0.134377290325D-03 0.000000000000D+00 0.174529443562D-04 0.225799882572D-04 0.000000000000D+00  6 1 -1 25 23 21 21 4 0.13645590D+00 0.41310208D-02 0.19721249D+05 0.19721249D+05 0.19721249D+05 0.12344977D+01  1  2  6  2  6  2       -1 0.139755518041D+00 0.100000000000D+01
-.496132569126D-05 0.000000000000D+00 -.737444774926D-06 0.225799882572D-04 0.000000000000D+00  6 1 21 25 23 1 21 4 0.13645590D+00 0.56714809D-02 0.19721249D+05 0.19721249D+05 0.19721249D+05 0.12344977D+01  3  4  5  5  5  2       -1 -.549939362949D-01 0.100000000000D+01
  </mgrwgt>
  </event>
  <event>
  5     66 -.42989208E-03 0.21378708E+02 0.75467711E-02 0.12294258E+00
        1 -1    0    0  502    0 0.00000000E+00 0.00000000E+00 0.67126758E+02 0.67127521E+02 0.32000000E+00 0.0000E+00 0.9000E+01
       -1 -1    0    0    0  501 0.00000000E+00 0.00000000E+00 -.29854667E+03 0.29854684E+03 0.32000000E+00 0.0000E+00 0.9000E+01
       25  1    1    2    0    0 0.21041847E+02 0.39471893E+01 -.37846476E+02 0.13234688E+03 0.12500000E+03 0.0000E+00 0.9000E+01
       23  1    1    2    0    0 -.39885460E+02 0.61439724E+01 -.11654073E+03 0.15338054E+03 0.91188000E+02 0.0000E+00 0.9000E+01
       21  1    1    2  502  501 0.18843613E+02 -.10091162E+02 -.77032702E+02 0.79946939E+02 0.75000000E+00 0.0000E+00 0.9000E+01
#aMCatNLO 1  0  0  1  5 0.99102307D+01 0.00000000D+00  -5  6  0 0.00000000D+00 0.00000000D+00 0.00000000D+00 0.00000000D+00 0.00000000D+00
  <mgrwgt>
 -.5505456215D-01   11    4    0
 0.141564969381130D+03 0.000000000000000D+00 0.000000000000000D+00 0.141564969381130D+03
 0.141564969381130D+03 0.000000000000000D+00 0.000000000000000D+00 -.141564969381130D+03
 0.139998333630928D+03 0.210402318694212D+02 0.394805398064136D+01 0.592980179439718D+02
 0.102841399794114D+03 -.398866458788081D+02 0.614460758987343D+01 -.251475932390711D+02
 0.402902053372188D+02 0.188464140093869D+02 -.100926615705148D+02 -.341504247049007D+02
 0.000000000000000D+00 0.000000000000000D+00 -.000000000000000D+00 0.000000000000000D+00
 0.166902022026374D+03 0.000000000000000D+00 0.000000000000000D+00 0.166902022026374D+03
 0.142624052224012D+03 0.000000000000000D+00 0.000000000000000D+00 -.142624052224012D+03
 0.139663392174829D+03 0.175936422300067D+02 0.742104674415077D+01 0.592980179439718D+02
 0.104040478570098D+03 -.424362866510600D+02 0.871378027301415D+01 -.251475932390711D+02
 0.395994559156605D+02 0.178618428172540D+02 -.910054792102963D+01 -.341504247049007D+02
 0.262227475897993D+02 0.698080160379930D+01 -.703427909613530D+01 0.242779698023618D+02
 0.141564969381130D+03 0.000000000000000D+00 0.000000000000000D+00 0.141564969381130D+03
 0.141564969381130D+03 0.000000000000000D+00 0.000000000000000D+00 -.141564969381130D+03
 0.139998333630928D+03 0.210402318694212D+02 0.394805398064136D+01 0.592980179439718D+02
 0.102841399794114D+03 -.398866458788081D+02 0.614460758987343D+01 -.251475932390711D+02
 0.000000000000000D+00 0.000000000000000D+00 -.000000000000000D+00 0.000000000000000D+00
 0.402902053372188D+02 0.188464140093869D+02 -.100926615705148D+02 -.341504247049007D+02
 0.166902022026374D+03 0.000000000000000D+00 0.000000000000000D+00 0.166902022026374D+03
 0.142624052224012D+03 0.000000000000000D+00 0.000000000000000D+00 -.142624052224012D+03
 0.139663392174829D+03 0.175936422300067D+02 0.742104674415077D+01 0.592980179439718D+02
 0.104040478570098D+03 -.424362866510600D+02 0.871378027301415D+01 -.251475932390711D+02
 0.262227475897993D+02 0.698080160379930D+01 -.703427909613530D+01 0.242779698023618D+02
 0.395994559156605D+02 0.178618428172540D+02 -.910054792102963D+01 -.341504247049007D+02
0.313958192230D-04 0.000000000000D+00 0.000000000000D+00 0.376228865190D-04 0.000000000000D+00  6 1 -1 25 23 21 21 2 0.10327265D-01 0.45930328D-01 0.15365826D+05 0.15365826D+05 0.15365826D+05 0.12466313D+01  1  2  2  1  6  1        1 0.138385337232D-01 0.100000000000D+01
0.411505343769D-05 0.165680289849D-05 -.120568212525D-06 0.376228865190D-04 0.000000000000D+00  6 1 -1 25 23 21 21 4 0.10327265D-01 0.45930328D-01 0.15365826D+05 0.15365826D+05 0.15365826D+05 0.12466313D+01  1  2  3  1  6  1        1 0.281883593506D-02 0.100000000000D+01
0.114120354705D-05 0.000000000000D+00 0.000000000000D+00 0.376228865190D-04 0.000000000000D+00  6 1 -1 25 23 21 21 4 0.10327265D-01 0.45930328D-01 0.15365826D+05 0.15365826D+05 0.15365826D+05 0.12466313D+01  1  2 15  1  6  1        1 0.781731177089D-03 0.100000000000D+01
0.709525456491D-03 0.000000000000D+00 0.000000000000D+00 0.374014329726D-04 0.000000000000D+00  6 1 -1 25 23 21 21 4 0.12325189D-01 0.45930328D-01 0.16558847D+05 0.16558847D+05 0.16558847D+05 0.12429570D+01  1  2 12  1  6  1        1 0.381436163166D+00 0.100000000000D+01
-.805233624602D-03 0.000000000000D+00 0.000000000000D+00 0.376228865190D-04 0.000000000000D+00  6 1 -1 25 23 21 21 4 0.10327265D-01 0.45930328D-01 0.15365826D+05 0.15365826D+05 0.15365826D+05 0.12466313D+01  1  2  4  1  6  1        1 -.551589793794D+00 0.100000000000D+01
-.910094217451D-03 0.000000000000D+00 -.642879073399D-04 0.376228865190D-04 0.000000000000D+00  6 1 -1 25 23 21 21 4 0.12248099D-01 0.45930328D-01 0.15365826D+05 0.15365826D+05 0.15365826D+05 0.12466313D+01  1  2  5  1  6  1        1 -.498272932195D+00 0.100000000000D+01
0.908731283650D-03 0.000000000000D+00 0.633637703503D-04 0.376228865190D-04 0.000000000000D+00  6 1 -1 25 23 21 21 4 0.10327265D-01 0.45930328D-01 0.15365826D+05 0.15365826D+05 0.15365826D+05 0.12466313D+01  1  2  6  1  6  1        1 0.622486302171D+00 0.100000000000D+01
0.557714264952D-11 0.000000000000D+00 0.000000000000D+00 0.376228865190D-04 0.188356817033D-05  6 1 -1 25 23 21 21 4 0.12175621D-01 0.46273944D-01 0.16558847D+05 0.16558847D+05 0.16558847D+05 0.12429570D+01  1  2 11  1  6  1        1 0.300603629210D-08 0.100000000000D+01
0.184563983396D-04 0.000000000000D+00 0.000000000000D+00 0.374014329726D-04 0.000000000000D+00  6 21 -1 25 23 -1 21 4 0.12325189D-01 0.45930328D-01 0.16558847D+05 0.16558847D+05 0.16558847D+05 0.12429570D+01  3  4 12  4  5  1        1 0.108951448488D+00 0.100000000000D+01
-.224484615561D-04 0.000000000000D+00 -.162536222722D-05 0.376228865190D-04 0.000000000000D+00  6 21 -1 25 23 -1 21 4 0.12248099D-01 0.45930328D-01 0.15365826D+05 0.15365826D+05 0.15365826D+05 0.12466313D+01  3  4  5  4  5  1        1 -.135504854622D+00 0.100000000000D+01
0.132674195872D-12 0.000000000000D+00 0.000000000000D+00 0.376228865190D-04 0.889897563410D-07  6 21 -1 25 23 -1 21 4 0.12175621D-01 0.46273944D-01 0.16558847D+05 0.16558847D+05 0.16558847D+05 0.12429570D+01  3  4 11  4  5  1        1 0.789713019088D-09 0.100000000000D+01
  </mgrwgt>
  </event>
  <event>
  6     66 0.42989208E-03 0.33653959E+02 0.75467711E-02 0.11881442E+00
        1 -1    0    0  502    0 0.00000000E+00 0.00000000E+00 0.26542824E+02 0.26544753E+02 0.32000000E+00 0.0000E+00 0.9000E+01
       21 -1    0    0  503  501 0.00000000E+00 0.00000000E+00 -.14046831E+04 0.14046833E+04 0.75000000E+00 0.0000E+00 0.9000E+01
       25  1    1    2    0    0 -.59560118E+02 0.80359487E+01 -.35230659E+03 0.37862504E+03 0.12500000E+03 0.0000E+00 0.9000E+01
       23  1    1    2    0    0 0.30513251E+02 -.35047782E+02 -.22796974E+03 0.24988970E+03 0.91188000E+02 0.0000E+00 0.9000E+01
        1  1    1    2  503    0 -.19911431E+02 0.23571124E+02 -.48907623E+03 0.49004870E+03 0.32000000E+00 0.0000E+00 0.9000E+01
       21  1    1    2  502  501 0.48958298E+02 0.34407097E+01 -.30878771E+03 0.31266463E+03 0.75000000E+00 0.0000E+00 0.9000E+01
#aMCatNLO 2  0  0  2  5 0.30855517D+02 0.00000000D+00  -5  6  0 0.00000000D+00 0.00000000D+00 0.00000000D+00 0.00000000D+00 0.00000000D+00
  <mgrwgt>
 0.1137468529D-01    1    2    0
 0.153648658661959D+03 0.000000000000000D+00 0.000000000000000D+00 0.153648658661959D+03
 0.153648658661959D+03 0.000000000000000D+00 0.000000000000000D+00 -.153648658661959D+03
 0.144832236515447D+03 -.687552317669437D+02 0.189189481890440D+02 0.163146632867654D+02
 0.101132207541648D+03 0.238420231058312D+02 -.271519030354972D+02 0.246333950972858D+02
 0.000000000000000D+00 -.000000000000000D+00 0.000000000000000D+00 -.000000000000000D+00
 0.613328732668219D+02 0.449132086611125D+02 0.823295484645321D+01 -.409480583840512D+02
 0.157302450015478D+03 0.000000000000000D+00 0.000000000000000D+00 0.157302450015478D+03
 0.237031528020593D+03 0.000000000000000D+00 0.000000000000000D+00 -.237031528020593D+03
 0.139654318637579D+03 -.595616461959738D+02 0.803559446409873D+01 0.163146632867654D+02
 0.105268266272424D+03 0.305121464685247D+02 -.350479857319416D+02 0.246333950972858D+02
 0.854914547493726D+02 -.199114307714487D+02 0.235711238648510D+02 -.797290780051148D+02
 0.639199383766949D+02 0.489609304988979D+02 0.344126740299182D+01 -.409480583840512D+02
0.203303721440D-04 0.000000000000D+00 0.000000000000D+00 0.917636930258D-05 0.543391959667D-08  6 1 21 25 23 1 21 4 0.40836675D-02 0.21610485D+00 0.25757175D+05 0.25757175D+05 0.25757175D+05 0.12219108D+01  1  2  1  5  5  2       -1 0.113746852885D-01 0.100000000000D+01
  </mgrwgt>
  </event>
  <event>
  5     66 -.42989208E-03 0.20212025E+02 0.75467711E-02 0.12403434E+00
        1 -1    0    0  502    0 0.00000000E+00 0.00000000E+00 0.39338461E+03 0.39338474E+03 0.32000000E+00 0.0000E+00 0.9000E+01
       -1 -1    0    0    0  501 0.00000000E+00 0.00000000E+00 -.65612184E+02 0.65612964E+02 0.32000000E+00 0.0000E+00 0.9000E+01
       25  1    1    2    0    0 0.78403600E+01 0.27240725E+02 0.11951160E+03 0.17524711E+03 0.12500000E+03 0.0000E+00 0.9000E+01
       23  1    1    2    0    0 0.12056603E+02 -.23690878E+02 0.23310567E+03 0.25171437E+03 0.91188000E+02 0.0000E+00 0.9000E+01
       21  1    1    2  502  501 -.19896963E+02 -.35498467E+01 -.24844844E+02 0.32036219E+02 0.75000000E+00 0.0000E+00 0.9000E+01
#aMCatNLO 1  0  0  2  5 0.85908093D+01 0.00000000D+00  -5  6  0 0.00000000D+00 0.00000000D+00 0.00000000D+00 0.00000000D+00 0.00000000D+00
  <mgrwgt>
 -.1119159704D+01    9    4    0
 0.160658121767190D+03 0.000000000000000D+00 0.000000000000000D+00 0.160658121767190D+03
 0.160658121767190D+03 0.000000000000000D+00 0.000000000000000D+00 -.160658121767190D+03
 0.128426122308556D+03 0.784080239160291D+01 0.272408036818303D+02 -.804545361281870D+01
 0.121783462233026D+03 0.120570225060617D+02 -.236908032037366D+02 0.762189896371837D+02
 0.711066589927975D+02 -.198978248976647D+02 -.355000047809368D+01 -.681735360243650D+02
 0.000000000000000D+00 -.000000000000000D+00 -.000000000000000D+00 -.000000000000000D+00
 0.160851615331655D+03 0.000000000000000D+00 0.000000000000000D+00 0.160851615331655D+03
 0.296299038997765D+03 0.000000000000000D+00 0.000000000000000D+00 -.296299038997765D+03
 0.128712640643287D+03 0.112745070062231D+02 0.273879540911441D+02 -.804545361281870D+01
 0.122121926855867D+03 0.153140151524879D+02 -.235512257342557D+02 0.762189896371837D+02
 0.705964987717299D+02 -.180055905991998D+02 -.346890932938184D+01 -.681735360243650D+02
 0.135719588058536D+03 -.858293155951126D+01 -.367819027506537D+00 -.135447423666109D+03
 0.160658121767190D+03 0.000000000000000D+00 0.000000000000000D+00 0.160658121767190D+03
 0.160658121767190D+03 0.000000000000000D+00 0.000000000000000D+00 -.160658121767190D+03
 0.128426122308556D+03 0.784080239160291D+01 0.272408036818303D+02 -.804545361281870D+01
 0.121783462233026D+03 0.120570225060617D+02 -.236908032037366D+02 0.762189896371837D+02
 0.000000000000000D+00 -.000000000000000D+00 -.000000000000000D+00 -.000000000000000D+00
 0.711066589927975D+02 -.198978248976647D+02 -.355000047809368D+01 -.681735360243650D+02
 0.160851615331655D+03 0.000000000000000D+00 0.000000000000000D+00 0.160851615331655D+03
 0.296299038997765D+03 0.000000000000000D+00 0.000000000000000D+00 -.296299038997765D+03
 0.128712640643287D+03 0.112745070062231D+02 0.273879540911441D+02 -.804545361281870D+01
 0.122121926855867D+03 0.153140151524879D+02 -.235512257342557D+02 0.762189896371837D+02
 0.135719588058536D+03 -.858293155951126D+01 -.367819027506537D+00 -.135447423666109D+03
 0.705964987717299D+02 -.180055905991998D+02 -.346890932938184D+01 -.681735360243650D+02
0.120139663815D-04 0.000000000000D+00 0.000000000000D+00 0.457814822276D-04 0.000000000000D+00  6 1 -1 25 23 21 21 2 0.60520779D-01 0.10094252D-01 0.14807173D+05 0.14807173D+05 0.14807173D+05 0.12484636D+01  1  2  2  2  6  2       -1 0.670527323653D-02 0.100000000000D+01
0.176495178809D-05 0.633994423968D-06 -.461367942551D-07 0.457814822276D-04 0.000000000000D+00  6 1 -1 25 23 21 21 4 0.60520779D-01 0.10094252D-01 0.14807173D+05 0.14807173D+05 0.14807173D+05 0.12484636D+01  1  2  3  2  6  2       -1 0.153537584105D-02 0.100000000000D+01
0.465770110365D-06 0.000000000000D+00 0.000000000000D+00 0.457814822276D-04 0.000000000000D+00  6 1 -1 25 23 21 21 4 0.60520779D-01 0.10094252D-01 0.14807173D+05 0.14807173D+05 0.14807173D+05 0.12484636D+01  1  2 15  2  6  2       -1 0.405185104638D-03 0.100000000000D+01
0.142339625114D-02 0.000000000000D+00 0.000000000000D+00 0.455636278667D-04 0.000000000000D+00  6 1 -1 25 23 21 21 4 0.60520779D-01 0.19436979D-01 0.15725862D+05 0.15725862D+05 0.15725862D+05 0.12454896D+01  1  2 12  2  6  2       -1 0.442679095761D+00 0.100000000000D+01
-.245950549315D-02 0.000000000000D+00 0.000000000000D+00 0.457814822276D-04 0.000000000000D+00  6 1 -1 25 23 21 21 4 0.60520779D-01 0.10094252D-01 0.14807173D+05 0.14807173D+05 0.14807173D+05 0.12484636D+01  1  2  4  2  6  2       -1 -.213958553463D+01 0.100000000000D+01
-.158539731568D-02 0.000000000000D+00 -.586146504315D-05 0.457814822276D-04 0.000000000000D+00  6 1 -1 25 23 21 21 4 0.60520779D-01 0.18625042D-01 0.14807173D+05 0.14807173D+05 0.14807173D+05 0.12484636D+01  1  2  5  2  6  2       -1 -.532465705213D+00 0.100000000000D+01
0.133211656318D-02 0.000000000000D+00 0.491098001752D-05 0.457814822276D-04 0.000000000000D+00  6 1 -1 25 23 21 21 4 0.60520779D-01 0.10094252D-01 0.14807173D+05 0.14807173D+05 0.14807173D+05 0.12484636D+01  1  2  6  2  6  2       -1 0.115884161957D+01 0.100000000000D+01
0.101185323551D-03 0.000000000000D+00 0.000000000000D+00 0.455636278667D-04 0.000000000000D+00  6 1 21 25 23 1 21 4 0.60520779D-01 0.19436979D-01 0.15725862D+05 0.15725862D+05 0.15725862D+05 0.12454896D+01  3  4 12  5  5  2       -1 0.407054350576D+00 0.100000000000D+01
-.105660152785D-03 0.000000000000D+00 -.391835814194D-06 0.457814822276D-04 0.000000000000D+00  6 1 21 25 23 1 21 4 0.60520779D-01 0.18625042D-01 0.14807173D+05 0.14807173D+05 0.14807173D+05 0.12484636D+01  3  4  5  5  5  2       -1 -.464329364534D+00 0.100000000000D+01
  </mgrwgt>
  </event>
  <event>
  5     66 0.42989208E-03 0.28200741E+02 0.75467711E-02 0.11164234E+00
        3 -1    0    0  502    0 0.00000000E+00 0.00000000E+00 0.75596902E+02 0.75598556E+02 0.50000000E+00 0.0000E+00 0.9000E+01
       -3 -1    0    0    0  501 0.00000000E+00 0.00000000E+00 -.51394302E+03 0.51394326E+03 0.50000000E+00 0.0000E+00 0.9000E+01
       25  1    1    2    0    0 -.11297224E+03 0.77680183E+02 -.12343463E+03 0.22284085E+03 0.12500000E+03 0.0000E+00 0.9000E+01
       23  1    1    2    0    0 0.12023627E+03 -.50440420E+02 -.27707993E+03 0.31951453E+03 0.91188000E+02 0.0000E+00 0.9000E+01
       21  1    1    2  502  501 -.72640314E+01 -.27239763E+02 -.37831557E+02 0.47186439E+02 0.75000000E+00 0.0000E+00 0.9000E+01
#aMCatNLO 1  0  0  2  5 0.15875101D+02 0.00000000D+00  -5  6  0 0.00000000D+00 0.00000000D+00 0.00000000D+00 0.00000000D+00 0.00000000D+00
  <mgrwgt>
 0.4100802527D-01    4    2    0
 0.197111794290840D+03 0.000000000000000D+00 0.000000000000000D+00 0.197111794290840D+03
 0.197111794290840D+03 0.000000000000000D+00 0.000000000000000D+00 -.197111794290840D+03
 0.195999047960176D+03 -.112970984276439D+03 0.776848749975788D+02 0.631921174634824D+02
 0.169726038616898D+03 0.120237350462608D+03 -.504363569143597D+02 -.590832488572176D+02
 0.284985020046068D+02 -.726636618616983D+01 -.272485180832191D+02 -.410886860626479D+01
 0.000000000000000D+00 0.000000000000000D+00 0.000000000000000D+00 0.000000000000000D+00
 0.290998608727904D+03 0.000000000000000D+00 0.000000000000000D+00 0.290998608727904D+03
 0.234645600820472D+03 0.000000000000000D+00 0.000000000000000D+00 -.234645600820472D+03
 0.205228827896617D+03 -.145333511122478D+03 0.371321778934839D+02 0.631921174634824D+02
 0.166141139169560D+03 0.931467338532646D+02 -.843829512253761D+02 -.590832488572176D+02
 0.362616624099021D+02 -.124898381469429D+02 -.337939240481086D+02 -.410886860626479D+01
 0.118012580072297D+03 0.646766154161563D+02 0.810446973800008D+02 0.563530079074312D+02
0.100201887081D-02 0.000000000000D+00 0.000000000000D+00 0.135534386241D-04 0.000000000000D+00  6 3 -3 25 23 21 21 2 0.11630439D-01 0.79068303D-01 0.34753120D+05 0.34753120D+05 0.34753120D+05 0.12082514D+01  1  2  2  2  6  2       -3 0.310633162346D-01 0.100000000000D+01
0.242618169606D-03 0.528779885533D-04 -.384801630153D-05 0.135534386241D-04 0.000000000000D+00  6 3 -3 25 23 21 21 4 0.11630439D-01 0.79068303D-01 0.34753120D+05 0.34753120D+05 0.34753120D+05 0.12082514D+01  1  2  3  2  6  2       -3 0.109801890860D-01 0.100000000000D+01
0.985666606773D-05 0.000000000000D+00 0.000000000000D+00 0.135534386241D-04 0.000000000000D+00  6 3 -3 25 23 21 21 4 0.11630439D-01 0.79068303D-01 0.34753120D+05 0.34753120D+05 0.34753120D+05 0.12082514D+01  1  2 15  2  6  2       -3 0.446083891229D-03 0.100000000000D+01
-.327366249951D-04 0.000000000000D+00 0.000000000000D+00 0.135534386241D-04 0.000000000000D+00  6 3 -3 25 23 21 21 4 0.11630439D-01 0.79068303D-01 0.34753120D+05 0.34753120D+05 0.34753120D+05 0.12082514D+01  1  2  4  2  6  2       -3 -.148156394497D-02 0.100000000000D+01
  </mgrwgt>
  </event>
  <event>
  6     66 0.42989208E-03 0.75802265E+02 0.75467711E-02 0.11305473E+00
       21 -1    0    0  502  503 0.00000000E+00 0.00000000E+00 0.38759718E+03 0.38759790E+03 0.75000000E+00 0.0000E+00 0.9000E+01
       -1 -1    0    0    0  501 0.00000000E+00 0.00000000E+00 -.14677355E+04 0.14677355E+04 0.32000000E+00 0.0000E+00 0.9000E+01
       25  1    1    2    0    0 0.11637887E+03 0.12327619E+03 -.37720567E+03 0.43203030E+03 0.12500000E+03 0.0000E+00 0.9000E+01
       23  1    1    2    0    0 -.37217305E+01 -.56878547E+02 -.39856071E+03 0.41281341E+03 0.91188000E+02 0.0000E+00 0.9000E+01
       -1  1    1    2    0  503 -.82415671E+02 -.45553687E+02 0.34625240E+03 0.35882908E+03 0.32000000E+00 0.0000E+00 0.9000E+01
       21  1    1    2  502  501 -.30241473E+02 -.20843959E+02 -.65062433E+03 0.65166065E+03 0.75000000E+00 0.0000E+00 0.9000E+01
#aMCatNLO 2  0  0  1  1 0.94167304D+02 0.00000000D+00  -5  6  0 0.00000000D+00 0.00000000D+00 0.00000000D+00 0.00000000D+00 0.00000000D+00
  <mgrwgt>
 0.1317517141D-01    1    2    0
 0.221397463963382D+03 0.000000000000000D+00 0.000000000000000D+00 0.221397463963382D+03
 0.221397463963382D+03 0.000000000000000D+00 0.000000000000000D+00 -.221397463963382D+03
 0.210675004500523D+03 0.749335455390931D+02 0.100368122509351D+03 0.114324805961717D+03
 0.117822982854677D+03 -.245825978093368D+02 -.684089693693251D+02 -.168200100934760D+02
 0.000000000000000D+00 -.000000000000000D+00 -.000000000000000D+00 0.000000000000000D+00
 0.114296940571564D+03 -.503509477297563D+02 -.319591531400256D+02 -.975047958682406D+02
 0.250257066091507D+04 0.000000000000000D+00 0.000000000000000D+00 0.250257066091507D+04
 0.227322566474746D+03 0.000000000000000D+00 0.000000000000000D+00 -.227322566474746D+03
 0.239659110224869D+03 0.116379565600448D+03 0.123276618084058D+03 0.114324805961717D+03
 0.108844679600886D+03 -.372148118901985D+01 -.568783858037008D+02 -.168200100934760D+02
 0.227719594511270D+04 -.824156707104648D+02 -.455536870599955D+02 0.227524809444032D+04
 0.104193492451358D+03 -.302424137009631D+02 -.208445452203620D+02 -.975047958682406D+02
0.235761035967D-02 0.000000000000D+00 0.000000000000D+00 0.397577197731D-05 0.161386573655D-07  6 21 -1 25 23 -1 21 4 0.59630391D-01 0.22580551D+00 0.50415461D+05 0.50415461D+05 0.50415461D+05 0.11919260D+01  1  2  1  4  5  1        1 0.131751714147D-01 0.100000000000D+01
  </mgrwgt>
  </event>
  <event>
  6     66 -.42989208E-03 0.12675034E+02 0.75467711E-02 0.12138958E+00
        1 -1    0    0  502    0 0.00000000E+00 0.00000000E+00 0.24197865E+04 0.24197865E+04 0.32000000E+00 0.0000E+00 0.9000E+01
       -1 -1    0    0    0  501 0.00000000E+00 0.00000000E+00 -.90170347E+01 0.90227110E+01 0.32000000E+00 0.0000E+00 0.9000E+01
       25  1    1    2    0    0 0.31735721E+02 0.37600670E+02 0.15437044E+04 0.15495384E+04 0.12500000E+03 0.0000E+00 0.9000E+01
       23  1    1    2    0    0 -.34629802E+02 -.39076981E+02 0.58055390E+03 0.58998671E+03 0.91188000E+02 0.0000E+00 0.9000E+01
       21  1    1    2  503  501 -.16378925E+02 -.79396151E+01 0.11473260E+03 0.11616987E+03 0.75000000E+00 0.0000E+00 0.9000E+01
       21  1    1    2  502  503 0.19273006E+02 0.94159259E+01 0.17177857E+03 0.17311426E+03 0.75000000E+00 0.0000E+00 0.9000E+01
#aMCatNLO 2  0  0  5  1 0.15840771D+02 0.00000000D+00  -5  6  0 0.00000000D+00 0.00000000D+00 0.00000000D+00 0.00000000D+00 0.00000000D+00
  <mgrwgt>
 -.3613016001D+00    2    2    0
 0.147736989576540D+03 0.000000000000000D+00 0.000000000000000D+00 0.147736989576540D+03
 0.147736989576540D+03 -.000000000000000D+00 -.000000000000000D+00 -.147736989576540D+03
 0.145152240865636D+03 0.233218340174718D+02 0.333086301840070D+02 0.615694749177070D+02
 0.112719304869713D+03 -.412384304461526D+02 -.424481329534504D+02 -.297982920553386D+02
 0.376024334177316D+02 0.179165964286808D+02 0.913950276944344D+01 -.317711828623684D+02
 0.000000000000000D+00 0.000000000000000D+00 0.000000000000000D+00 0.000000000000000D+00
 0.147736989576540D+03 0.000000000000000D+00 0.000000000000000D+00 0.147736989576540D+03
 0.147736989576540D+03 -.000000000000000D+00 -.000000000000000D+00 -.147736989576540D+03
 0.142250160815013D+03 0.315343729447935D+02 0.374979594781728D+02 0.470063252110711D+02
 0.112956558832172D+03 -.347897306274640D+02 -.391585622982859D+02 -.412336571359575D+02
 0.180765151931450D+02 -.162180229190113D+02 -.790544808567995D+01 -.111356395911803D+01
 0.221907443127504D+02 0.194733806016817D+02 0.956605090579306D+01 -.465910411599553D+01
-.778287150652D-03 0.000000000000D+00 0.000000000000D+00 0.380691954162D-04 0.000000000000D+00  6 1 -1 25 23 21 21 4 0.37227529D+00 0.13876744D-02 0.19482447D+05 0.19482447D+05 0.19482447D+05 0.12350816D+01  1  2 13  3  6  5       21 -.381575697945D+00 0.100000000000D+01
0.413523973397D-04 0.000000000000D+00 0.000000000000D+00 0.384881821794D-04 0.190993138222D-06  6 1 -1 25 23 21 21 4 0.37227529D+00 0.13876744D-02 0.19482447D+05 0.19482447D+05 0.19482447D+05 0.12350816D+01  1  2  1  3  6  5       21 0.202740978871D-01 0.100000000000D+01
  </mgrwgt>
  </event>
  <event>
  5     66 0.42989208E-03 0.25396425E+02 0.75467711E-02 0.11946586E+00
        1 -1    0    0  502    0 0.00000000E+00 0.00000000E+00 0.79165188E+03 0.79165194E+03 0.32000000E+00 0.0000E+00 0.9000E+01
       -1 -1    0    0    0  501 0.00000000E+00 0.00000000E+00 -.22407946E+02 0.22410231E+02 0.32000000E+00 0.0000E+00 0.9000E+01
       25  1    1    2    0    0 0.46611885E+02 -.81139228E+01 0.31864641E+03 0.34554166E+03 0.12500000E+03 0.0000E+00 0.9000E+01
       23  1    1    2    0    0 -.35407321E+02 0.30893911E+02 0.37455566E+03 0.38834946E+03 0.91188000E+02 0.0000E+00 0.9000E+01
       21  1    1    2  502  501 -.11204564E+02 -.22779989E+02 0.76041870E+02 0.80171058E+02 0.75000000E+00 0.0000E+00 0.9000E+01
#aMCatNLO 1  0  0  1  2 0.26046941D+02 0.00000000D+00  -5  6  0 0.00000000D+00 0.00000000D+00 0.00000000D+00 0.00000000D+00 0.00000000D+00
  <mgrwgt>
 0.1130201909D+00    7    4    0
 0.133192525869310D+03 0.000000000000000D+00 0.000000000000000D+00 0.133192525869310D+03
 0.133192525869310D+03 0.000000000000000D+00 0.000000000000000D+00 -.133192525869310D+03
 0.135802413820374D+03 0.466143745496452D+02 -.810886173069268D+01 -.240549796553228D+02
 0.105171309996489D+03 -.354053930501278D+02 0.308978310006016D+02 0.231848071978581D+02
 0.254113279217578D+02 -.112089814995174D+02 -.227889692699089D+02 0.870172457464747D+00
 0.000000000000000D+00 -.000000000000000D+00 0.000000000000000D+00 0.000000000000000D+00
 0.192069012927442D+03 0.000000000000000D+00 0.000000000000000D+00 0.192069012927442D+03
 0.143657255692921D+03 0.000000000000000D+00 0.000000000000000D+00 -.143657255692921D+03
 0.145382026729899D+03 0.681958940672529D+02 -.167812896477922D+02 -.240549796553228D+02
 0.992290347849836D+02 -.197172204696169D+02 0.245936156859897D+02 0.231848071978581D+02
 0.254444002429396D+02 -.730569336657272D+01 -.243574864887736D+02 0.870172457464747D+00
 0.656708068625401D+02 -.411729802310633D+02 0.165451604505762D+02 0.484117572345211D+02
 0.133192525869310D+03 0.000000000000000D+00 0.000000000000000D+00 0.133192525869310D+03
 0.133192525869310D+03 0.000000000000000D+00 0.000000000000000D+00 -.133192525869310D+03
 0.135802413820374D+03 0.466143745496452D+02 -.810886173069268D+01 -.240549796553228D+02
 0.105171309996489D+03 -.354053930501278D+02 0.308978310006016D+02 0.231848071978581D+02
 0.000000000000000D+00 -.000000000000000D+00 0.000000000000000D+00 0.000000000000000D+00
 0.254113279217578D+02 -.112089814995174D+02 -.227889692699089D+02 0.870172457464747D+00
 0.192069012927442D+03 0.000000000000000D+00 0.000000000000000D+00 0.192069012927442D+03
 0.143657255692921D+03 0.000000000000000D+00 0.000000000000000D+00 -.143657255692921D+03
 0.145382026729899D+03 0.681958940672529D+02 -.167812896477922D+02 -.240549796553228D+02
 0.992290347849836D+02 -.197172204696169D+02 0.245936156859897D+02 0.231848071978581D+02
 0.656708068625401D+02 -.411729802310633D+02 0.165451604505762D+02 0.484117572345211D+02
 0.254444002429396D+02 -.730569336657272D+01 -.243574864887736D+02 0.870172457464747D+00
0.386267565022D-04 0.000000000000D+00 0.000000000000D+00 0.268979191221D-04 0.000000000000D+00  6 1 -1 25 23 21 21 2 0.12179278D+00 0.34475570D-02 0.17113266D+05 0.17113266D+05 0.17113266D+05 0.12413493D+01  1  2  2  1  6  1        1 0.412505465544D-01 0.100000000000D+01
0.640516072491D-05 0.203838994222D-05 -.148336915627D-06 0.268979191221D-04 0.000000000000D+00  6 1 -1 25 23 21 21 4 0.12179278D+00 0.34475570D-02 0.17113266D+05 0.17113266D+05 0.17113266D+05 0.12413493D+01  1  2  3  1  6  1        1 0.105404578407D-01 0.100000000000D+01
0.804312604820D-06 0.000000000000D+00 0.000000000000D+00 0.268979191221D-04 0.000000000000D+00  6 1 -1 25 23 21 21 4 0.12179278D+00 0.34475570D-02 0.17113266D+05 0.17113266D+05 0.17113266D+05 0.12413493D+01  1  2 15  1  6  1        1 0.132359256325D-02 0.100000000000D+01
-.332796069153D-04 0.000000000000D+00 0.000000000000D+00 0.268979191221D-04 0.000000000000D+00  6 1 -1 25 23 21 21 4 0.12179278D+00 0.34475570D-02 0.17113266D+05 0.17113266D+05 0.17113266D+05 0.12413493D+01  1  2  4  1  6  1        1 -.547655724365D-01 0.100000000000D+01
-.139890394987D-03 0.000000000000D+00 -.353065811849D-04 0.268979191221D-04 0.000000000000D+00  6 1 -1 25 23 21 21 4 0.18253626D+00 0.34475570D-02 0.17113266D+05 0.17113266D+05 0.17113266D+05 0.12413493D+01  1  2  5  1  6  1        1 -.117409342477D+00 0.100000000000D+01
0.144860590677D-03 0.000000000000D+00 0.326011780690D-04 0.268979191221D-04 0.000000000000D+00  6 1 -1 25 23 21 21 4 0.12179278D+00 0.34475570D-02 0.17113266D+05 0.17113266D+05 0.17113266D+05 0.12413493D+01  1  2  6  1  6  1        1 0.238385423004D+00 0.100000000000D+01
-.549131110200D-05 0.000000000000D+00 -.169485145211D-05 0.268979191221D-04 0.000000000000D+00  6 21 -1 25 23 -1 21 4 0.18253626D+00 0.34475570D-02 0.17113266D+05 0.17113266D+05 0.17113266D+05 0.12413493D+01  3  4  5  4  5  1        1 -.630491412991D-02 0.100000000000D+01
  </mgrwgt>
  </event>
  <event>
  5     66 0.42989208E-03 0.21915032E+02 0.75467711E-02 0.10286030E+00
        1 -1    0    0  502    0 0.00000000E+00 0.00000000E+00 0.12296777E+03 0.12296819E+03 0.32000000E+00 0.0000E+00 0.9000E+01
       -1 -1    0    0    0  501 0.00000000E+00 0.00000000E+00 -.33926129E+03 0.33926145E+03 0.32000000E+00 0.0000E+00 0.9000E+01
       25  1    1    2    0    0 0.19872155E+02 0.14254258E+03 -.16514211E+03 0.25221064E+03 0.12500000E+03 0.0000E+00 0.9000E+01
       23  1    1    2    0    0 -.10784819E+02 -.12260221E+03 -.80770857E+02 0.17316696E+03 0.91188000E+02 0.0000E+00 0.9000E+01
       21  1    1    2  502  501 -.90873359E+01 -.19940372E+02 0.29619445E+02 0.36852030E+02 0.75000000E+00 0.0000E+00 0.9000E+01
#aMCatNLO 1  0  0  2  2 0.13867979D+03 0.00000000D+00  -5  6  0 0.00000000D+00 0.00000000D+00 0.00000000D+00 0.00000000D+00 0.00000000D+00
  <mgrwgt>
 0.9107814937D-01    3    2    0
 0.204250669977229D+03 0.000000000000000D+00 0.000000000000000D+00 0.204250669977229D+03
 0.204250669977229D+03 0.000000000000000D+00 0.000000000000000D+00 -.204250669977229D+03
 0.197944423175597D+03 0.198725309910340D+02 0.142543406816209D+03 -.533240504046616D+02
 0.153175677541367D+03 -.107845278042566D+02 -.122601570991393D+03 0.292569202985458D+00
 0.573812392374941D+02 -.908800318677744D+01 -.199418358248163D+02 0.530314812016762D+02
 0.000000000000000D+00 -.000000000000000D+00 -.000000000000000D+00 0.000000000000000D+00
 0.918859809029305D+03 0.000000000000000D+00 0.000000000000000D+00 0.918859809029305D+03
 0.332497557311514D+03 0.000000000000000D+00 0.000000000000000D+00 -.332497557311514D+03
 0.371332894669844D+03 0.182847093780122D+03 0.293234726129921D+03 -.533240504046616D+02
 0.124273982612103D+03 0.686446636320503D+02 -.491588849383042D+02 0.292569202985458D+00
 0.593696426797245D+02 0.243358191564572D+02 0.109628636522874D+02 0.530314812016762D+02
 0.696380846379147D+03 -.275827576568629D+03 -.255038704843904D+03 0.586362251717791D+03
0.451421479312D-03 0.000000000000D+00 0.000000000000D+00 0.262294159571D-04 0.000000000000D+00  6 1 -1 25 23 21 21 2 0.18918162D-01 0.52194089D-01 0.33437256D+05 0.33437256D+05 0.33437256D+05 0.12099850D+01  1  2  2  2  6  2       -1 0.683776571091D-01 0.100000000000D+01
0.978955299248D-04 0.238221659403D-04 -.173357734256D-05 0.262294159571D-04 0.000000000000D+00  6 1 -1 25 23 21 21 4 0.18918162D-01 0.52194089D-01 0.33437256D+05 0.33437256D+05 0.33437256D+05 0.12099850D+01  1  2  3  2  6  2       -1 0.217097494199D-01 0.100000000000D+01
0.446754558908D-05 0.000000000000D+00 0.000000000000D+00 0.262294159571D-04 0.000000000000D+00  6 1 -1 25 23 21 21 4 0.18918162D-01 0.52194089D-01 0.33437256D+05 0.33437256D+05 0.33437256D+05 0.12099850D+01  1  2 15  2  6  2       -1 0.990742839184D-03 0.100000000000D+01
  </mgrwgt>
  </event>
  <event>
  5     66 0.42989208E-03 0.52219642E+02 0.75467711E-02 0.12030207E+00
        1 -1    0    0  502    0 0.00000000E+00 0.00000000E+00 0.27334004E+03 0.27334023E+03 0.32000000E+00 0.0000E+00 0.9000E+01
       -1 -1    0    0    0  501 0.00000000E+00 0.00000000E+00 -.16999139E+03 0.16999169E+03 0.32000000E+00 0.0000E+00 0.9000E+01
       25  1    1    2    0    0 -.38942373E+02 0.72263530E+01 -.12069443E+02 0.13167916E+03 0.12500000E+03 0.0000E+00 0.9000E+01
       23  1    1    2    0    0 0.88283094E-01 -.42114257E+02 0.19332511E+03 0.21786112E+03 0.91188000E+02 0.0000E+00 0.9000E+01
       21  1    1    2  502  501 0.38854090E+02 0.34887904E+02 -.77907013E+02 0.93791638E+02 0.75000000E+00 0.0000E+00 0.9000E+01
#aMCatNLO 1  0  0  2  5 0.10997295D+02 0.00000000D+00  -5  6  0 0.00000000D+00 0.00000000D+00 0.00000000D+00 0.00000000D+00 0.00000000D+00
  <mgrwgt>
 0.5073819905D-01    9    4    0
 0.215558717563656D+03 0.000000000000000D+00 0.000000000000000D+00 0.215558717563656D+03
 0.215558717563656D+03 0.000000000000000D+00 0.000000000000000D+00 -.215558717563656D+03
 0.138303068216115D+03 -.389426379441459D+02 0.722611546744630D+01 -.439771859399134D+02
 0.177689979914771D+03 0.879432561627134D-01 -.421145619999475D+02 0.146577056702773D+03
 0.115124386996427D+03 0.388546946879832D+02 0.348884465325012D+02 -.102599870762859D+03
 0.000000000000000D+00 -.000000000000000D+00 -.000000000000000D+00 -.000000000000000D+00
 0.215944445692502D+03 0.000000000000000D+00 0.000000000000000D+00 0.215944445692502D+03
 0.311428585338104D+03 0.000000000000000D+00 0.000000000000000D+00 -.311428585338104D+03
 0.137832977092768D+03 -.366248391842124D+02 0.987713753029567D+01 -.439771859399134D+02
 0.176940491985852D+03 0.306459944418938D+01 -.387099604597334D+02 0.146577056702773D+03
 0.116484207215887D+03 0.407987440852821D+02 0.371119863551113D+02 -.102599870762859D+03
 0.961153547360995D+02 -.723850434525912D+01 -.827916342567353D+01 -.954841396456024D+02
 0.215558717563656D+03 0.000000000000000D+00 0.000000000000000D+00 0.215558717563656D+03
 0.215558717563656D+03 0.000000000000000D+00 0.000000000000000D+00 -.215558717563656D+03
 0.138303068216115D+03 -.389426379441459D+02 0.722611546744630D+01 -.439771859399134D+02
 0.177689979914771D+03 0.879432561627134D-01 -.421145619999475D+02 0.146577056702773D+03
 0.000000000000000D+00 -.000000000000000D+00 -.000000000000000D+00 -.000000000000000D+00
 0.115124386996427D+03 0.388546946879832D+02 0.348884465325012D+02 -.102599870762859D+03
 0.215944445692502D+03 0.000000000000000D+00 0.000000000000000D+00 0.215944445692502D+03
 0.311428585338104D+03 0.000000000000000D+00 0.000000000000000D+00 -.311428585338104D+03
 0.137832977092768D+03 -.366248391842124D+02 0.987713753029567D+01 -.439771859399134D+02
 0.176940491985852D+03 0.306459944418938D+01 -.387099604597334D+02 0.146577056702773D+03
 0.961153547360995D+02 -.723850434525912D+01 -.827916342567353D+01 -.954841396456024D+02
 0.116484207215887D+03 0.407987440852821D+02 0.371119863551113D+02 -.102599870762859D+03
0.865558187692D-05 0.000000000000D+00 0.000000000000D+00 0.447892368936D-05 0.000000000000D+00  6 1 -1 25 23 21 21 2 0.42052352D-01 0.26152559D-01 0.20133916D+05 0.20133916D+05 0.20133916D+05 0.12335071D+01  1  2  2  2  6  2       -1 0.165712874293D-02 0.100000000000D+01
-.131417160283D-06 0.456767604626D-06 -.332397134744D-07 0.447892368936D-05 0.000000000000D+00  6 1 -1 25 23 21 21 4 0.42052352D-01 0.26152559D-01 0.20133916D+05 0.20133916D+05 0.20133916D+05 0.12335071D+01  1  2  3  2  6  2       -1 -.382820660154D-04 0.100000000000D+01
0.305336863663D-06 0.000000000000D+00 0.000000000000D+00 0.447892368936D-05 0.000000000000D+00  6 1 -1 25 23 21 21 4 0.42052352D-01 0.26152559D-01 0.20133916D+05 0.20133916D+05 0.20133916D+05 0.12335071D+01  1  2 15  2  6  2       -1 0.889452027920D-04 0.100000000000D+01
0.535319923254D-03 0.000000000000D+00 0.000000000000D+00 0.445013623714D-05 0.000000000000D+00  6 1 -1 25 23 21 21 4 0.42052352D-01 0.38700900D-01 0.21887830D+05 0.21887830D+05 0.21887830D+05 0.12295366D+01  1  2 12  2  6  2       -1 0.792035197647D-01 0.100000000000D+01
-.325759998865D-03 0.000000000000D+00 0.000000000000D+00 0.447892368936D-05 0.000000000000D+00  6 1 -1 25 23 21 21 4 0.42052352D-01 0.26152559D-01 0.20133916D+05 0.20133916D+05 0.20133916D+05 0.12335071D+01  1  2  4  2  6  2       -1 -.948945004970D-01 0.100000000000D+01
-.586426694253D-03 0.000000000000D+00 -.552565268947D-05 0.447892368936D-05 0.000000000000D+00  6 1 -1 25 23 21 21 4 0.42052352D-01 0.37812262D-01 0.20133916D+05 0.20133916D+05 0.20133916D+05 0.12335071D+01  1  2  5  2  6  2       -1 -.915002115462D-01 0.100000000000D+01
0.550948136445D-03 0.000000000000D+00 0.517025841396D-05 0.447892368936D-05 0.000000000000D+00  6 1 -1 25 23 21 21 4 0.42052352D-01 0.26152559D-01 0.20133916D+05 0.20133916D+05 0.20133916D+05 0.12335071D+01  1  2  6  2  6  2       -1 0.160492228603D+00 0.100000000000D+01
0.251028539176D-04 0.000000000000D+00 0.000000000000D+00 0.445013623714D-05 0.000000000000D+00  6 1 21 25 23 1 21 4 0.42052352D-01 0.38700900D-01 0.21887830D+05 0.21887830D+05 0.21887830D+05 0.12295366D+01  3  4 12  5  5  2       -1 0.401909369095D-01 0.100000000000D+01
-.261351878875D-04 0.000000000000D+00 -.247847798671D-06 0.447892368936D-05 0.000000000000D+00  6 1 21 25 23 1 21 4 0.42052352D-01 0.37812262D-01 0.20133916D+05 0.20133916D+05 0.20133916D+05 0.12335071D+01  3  4  5  5  5  2       -1 -.444615660648D-01 0.100000000000D+01
  </mgrwgt>
  </event>
  <event>
  5     66 0.42989208E-03 0.56045701E+02 0.75467711E-02 0.11615517E+00
        1 -1    0    0  502    0 0.00000000E+00 0.00000000E+00 0.56371268E+03 0.56371277E+03 0.32000000E+00 0.0000E+00 0.9000E+01
       -1 -1    0    0    0  501 0.00000000E+00 0.00000000E+00 -.84381007E+02 0.84381614E+02 0.32000000E+00 0.0000E+00 0.9000E+01
       25  1    1    2    0    0 0.14425435E+03 0.21327330E+02 0.22156658E+03 0.29322504E+03 0.12500000E+03 0.0000E+00 0.9000E+01
       23  1    1    2    0    0 -.88753091E+02 -.13543700E+02 0.26883408E+03 0.29773739E+03 0.91188000E+02 0.0000E+00 0.9000E+01
       21  1    1    2  502  501 -.55501260E+02 -.77836305E+01 -.11068988E+02 0.57131951E+02 0.75000000E+00 0.0000E+00 0.9000E+01
#aMCatNLO 1  0  0  5  1 0.22824672D+02 0.00000000D+00  -5  6  0 0.00000000D+00 0.00000000D+00 0.00000000D+00 0.00000000D+00 0.00000000D+00
  <mgrwgt>
 0.1432653302D-01   15    2    0
 0.218098302379903D+03 0.000000000000000D+00 0.000000000000000D+00 0.218098302379903D+03
 0.218098302379903D+03 -.000000000000000D+00 -.000000000000000D+00 -.218098302379903D+03
 0.192192878036795D+03 0.144255081686730D+03 0.213274326026777D+02 0.697956977181668D+01
 0.146954984424519D+03 -.887525327402994D+02 -.135436214192163D+02 0.722500820362563D+02
 0.970487422984922D+02 -.555025489464302D+02 -.778381118346144D+01 -.792296518080730D+02
 0.000000000000000D+00 0.000000000000000D+00 -.000000000000000D+00 0.000000000000000D+00
 0.218098302379903D+03 0.000000000000000D+00 0.000000000000000D+00 0.218098302379903D+03
 0.218098302379903D+03 -.000000000000000D+00 -.000000000000000D+00 -.218098302379903D+03
 0.189866291359680D+03 0.141345669813876D+03 0.209194096721440D+02 0.282639673691843D+01
 0.146816924555638D+03 -.909896298926797D+02 -.138573573135802D+02 0.690566353962652D+02
 0.574861880640057D+02 -.139211193627946D+02 0.593811739062837D+01 -.554581194747187D+02
 0.420272007804837D+02 -.364349205584022D+02 -.130001697491922D+02 -.164249126584650D+02
0.757556252929D-04 0.000000000000D+00 0.000000000000D+00 0.446129839153D-05 0.000000000000D+00  6 1 -1 25 23 21 21 2 0.86725081D-01 0.12981747D-01 0.35358920D+05 0.35358920D+05 0.35358920D+05 0.12074777D+01  1  2  2  3  6  5       21 0.170537048159D-01 0.100000000000D+01
0.191561868220D-05 0.399773417825D-05 -.290921548039D-06 0.446129839153D-05 0.000000000000D+00  6 1 -1 25 23 21 21 4 0.86725081D-01 0.12981747D-01 0.35358920D+05 0.35358920D+05 0.35358920D+05 0.12074777D+01  1  2  3  3  6  5       21 0.628740053646D-03 0.100000000000D+01
0.197805559773D-05 0.000000000000D+00 0.000000000000D+00 0.446129839153D-05 0.000000000000D+00  6 1 -1 25 23 21 21 4 0.86725081D-01 0.12981747D-01 0.35358920D+05 0.35358920D+05 0.35358920D+05 0.12074777D+01  1  2 15  3  6  5       21 0.649232957574D-03 0.100000000000D+01
0.518346111643D-04 0.000000000000D+00 0.000000000000D+00 0.446633669777D-05 0.000000000000D+00  6 1 -1 25 23 21 21 4 0.86725081D-01 0.12981747D-01 0.34824593D+05 0.34824593D+05 0.34824593D+05 0.12081593D+01  1  2 12  3  6  5       21 0.170494109299D-01 0.100000000000D+01
-.117330203353D-03 0.000000000000D+00 0.000000000000D+00 0.446129839153D-05 0.000000000000D+00  6 1 -1 25 23 21 21 4 0.86725081D-01 0.12981747D-01 0.35358920D+05 0.35358920D+05 0.35358920D+05 0.12074777D+01  1  2  4  3  6  5       21 -.385098553465D-01 0.100000000000D+01
-.942725462369D-04 0.000000000000D+00 0.000000000000D+00 0.446129839153D-05 0.000000000000D+00  6 1 -1 25 23 21 21 4 0.86725081D-01 0.12981747D-01 0.35358920D+05 0.35358920D+05 0.35358920D+05 0.12074777D+01  1  2  5  3  6  5       21 -.309419230085D-01 0.100000000000D+01
0.145402644965D-03 0.000000000000D+00 -.000000000000D+00 0.446129839153D-05 0.000000000000D+00  6 1 -1 25 23 21 21 4 0.86725081D-01 0.12981747D-01 0.35358920D+05 0.35358920D+05 0.35358920D+05 0.12074777D+01  1  2  6  3  6  5       21 0.477237289682D-01 0.100000000000D+01
0.143706605949D-05 0.000000000000D+00 0.000000000000D+00 0.446633669777D-05 0.000000000000D+00  6 1 -1 25 23 1 -1 4 0.86725081D-01 0.12981747D-01 0.34824593D+05 0.34824593D+05 0.34824593D+05 0.12081593D+01  1  2 12  6  6  5       21 0.472678953913D-03 0.100000000000D+01
-.927145291345D-06 0.000000000000D+00 0.000000000000D+00 0.446129839153D-05 0.000000000000D+00  6 1 -1 25 23 1 -1 4 0.86725081D-01 0.12981747D-01 0.35358920D+05 0.35358920D+05 0.35358920D+05 0.12074777D+01  1  2  5  6  6  5       21 -.304305541408D-03 0.100000000000D+01
0.143706605949D-05 0.000000000000D+00 0.000000000000D+00 0.446633669777D-05 0.000000000000D+00  6 1 -1 25 23 2 -2 4 0.86725081D-01 0.12981747D-01 0.34824593D+05 0.34824593D+05 0.34824593D+05 0.12081593D+01  1  2 12  7  6  5       21 0.472678953913D-03 0.100000000000D+01
0.143706605949D-05 0.000000000000D+00 0.000000000000D+00 0.446633669777D-05 0.000000000000D+00  6 1 -1 25 23 4 -4 4 0.86725081D-01 0.12981747D-01 0.34824593D+05 0.34824593D+05 0.34824593D+05 0.12081593D+01  1  2 12  7  6  5       21 0.472678953913D-03 0.100000000000D+01
-.927145291345D-06 0.000000000000D+00 0.000000000000D+00 0.446129839153D-05 0.000000000000D+00  6 1 -1 25 23 2 -2 4 0.86725081D-01 0.12981747D-01 0.35358920D+05 0.35358920D+05 0.35358920D+05 0.12074777D+01  1  2  5  7  6  5       21 -.304305541408D-03 0.100000000000D+01
-.927145291345D-06 0.000000000000D+00 0.000000000000D+00 0.446129839153D-05 0.000000000000D+00  6 1 -1 25 23 4 -4 4 0.86725081D-01 0.12981747D-01 0.35358920D+05 0.35358920D+05 0.35358920D+05 0.12074777D+01  1  2  5  7  6  5       21 -.304305541408D-03 0.100000000000D+01
0.143706605949D-05 0.000000000000D+00 0.000000000000D+00 0.446633669777D-05 0.000000000000D+00  6 1 -1 25 23 3 -3 4 0.86725081D-01 0.12981747D-01 0.34824593D+05 0.34824593D+05 0.34824593D+05 0.12081593D+01  1  2 12  8  6  5       21 0.472678953913D-03 0.100000000000D+01
-.927145291345D-06 0.000000000000D+00 0.000000000000D+00 0.446129839153D-05 0.000000000000D+00  6 1 -1 25 23 3 -3 4 0.86725081D-01 0.12981747D-01 0.35358920D+05 0.35358920D+05 0.35358920D+05 0.12074777D+01  1  2  5  8  6  5       21 -.304305541408D-03 0.100000000000D+01
  </mgrwgt>
  </event>
  <event>
  5     66 0.42989208E-03 0.69647078E+02 0.75467711E-02 0.11786230E+00
        3 -1    0    0  502    0 0.00000000E+00 0.00000000E+00 0.44127064E+03 0.44127093E+03 0.50000000E+00 0.0000E+00 0.9000E+01
       -3 -1    0    0    0  501 0.00000000E+00 0.00000000E+00 -.12586675E+03 0.12586774E+03 0.50000000E+00 0.0000E+00 0.9000E+01
       25  1    1    2    0    0 0.32102049E+02 0.22118084E+02 0.32805019E+03 0.35321619E+03 0.12500000E+03 0.0000E+00 0.9000E+01
       23  1    1    2    0    0 -.13157535E+01 -.93479458E+02 0.14942988E+02 0.13144841E+03 0.91188000E+02 0.0000E+00 0.9000E+01
       21  1    1    2  502  501 -.30786296E+02 0.71361374E+02 -.27589282E+02 0.82474073E+02 0.75000000E+00 0.0000E+00 0.9000E+01
#aMCatNLO 1  0  0  5  1 0.44875874D+01 0.00000000D+00  -5  6  0 0.00000000D+00 0.00000000D+00 0.00000000D+00 0.00000000D+00 0.00000000D+00
  <mgrwgt>
 0.5045884630D-02   25    2    0
 0.235672790731487D+03 0.000000000000000D+00 0.000000000000000D+00 0.235672790731487D+03
 0.235672790731487D+03 -.000000000000000D+00 -.000000000000000D+00 -.235672790731487D+03
 0.205485169058714D+03 0.321023216787070D+02 0.221174520184567D+02 0.158364812891426D+03
 0.148163919928634D+03 -.131555699737003D+01 -.934799131054564D+02 -.699790753025610D+02
 0.117696492475627D+03 -.307867646813370D+02 0.713624610869997D+02 -.883857375888649D+02
 0.000000000000000D+00 0.000000000000000D+00 0.000000000000000D+00 -.000000000000000D+00
 0.235672790731487D+03 0.000000000000000D+00 0.000000000000000D+00 0.235672790731487D+03
 0.235672790731487D+03 -.000000000000000D+00 -.000000000000000D+00 -.235672790731487D+03
 0.205187049205573D+03 0.319614215256311D+02 0.224440528092544D+02 0.157960302573928D+03
 0.148154504558622D+03 -.141722277730982D+01 -.932442559865637D+02 -.702709476392788D+02
 0.108616645943652D+03 -.294467659918913D+02 0.690060676417050D+02 -.785406033672774D+02
 0.938738175512667D+01 -.109743275643003D+01 0.179413553560439D+01 -.914875156737142D+01
0.217379829448D-04 0.000000000000D+00 0.000000000000D+00 0.169051147434D-05 0.000000000000D+00  6 3 -3 25 23 21 21 2 0.67887890D-01 0.19364214D-01 0.28773441D+05 0.28773441D+05 0.28773441D+05 0.12168058D+01  1  2  2  3  6  5       21 0.390801872050D-03 0.100000000000D+01
-.115279559834D-05 0.114714487602D-05 -.834795782505D-07 0.169051147434D-05 0.000000000000D+00  6 3 -3 25 23 21 21 4 0.67887890D-01 0.19364214D-01 0.28773441D+05 0.28773441D+05 0.28773441D+05 0.12168058D+01  1  2  3  3  6  5       21 -.306854304176D-04 0.100000000000D+01
0.304977601246D-06 0.000000000000D+00 0.000000000000D+00 0.169051147434D-05 0.000000000000D+00  6 3 -3 25 23 21 21 4 0.67887890D-01 0.19364214D-01 0.28773441D+05 0.28773441D+05 0.28773441D+05 0.12168058D+01  1  2 15  3  6  5       21 0.811797770171D-05 0.100000000000D+01
0.216353398253D-04 0.000000000000D+00 0.000000000000D+00 0.169106528515D-05 0.000000000000D+00  6 3 -3 25 23 21 21 4 0.67887890D-01 0.19364214D-01 0.28648545D+05 0.28648545D+05 0.28648545D+05 0.12170051D+01  1  2 12  3  6  5       21 0.576148436110D-03 0.100000000000D+01
0.191771077485D-04 0.000000000000D+00 0.000000000000D+00 0.169106528515D-05 0.000000000000D+00  6 3 -3 25 23 21 21 4 0.67887890D-01 0.19364214D-01 0.28648545D+05 0.28648545D+05 0.28648545D+05 0.12170051D+01  1  2 12  3  6  5       21 0.510685791287D-03 0.100000000000D+01
-.440923387380D-03 0.000000000000D+00 0.000000000000D+00 0.169051147434D-05 0.000000000000D+00  6 3 -3 25 23 21 21 4 0.67887890D-01 0.19364214D-01 0.28773441D+05 0.28773441D+05 0.28773441D+05 0.12168058D+01  1  2  4  3  6  5       21 -.117366200412D-01 0.100000000000D+01
-.629063958241D-03 0.000000000000D+00 0.000000000000D+00 0.169051147434D-05 0.000000000000D+00  6 3 -3 25 23 21 21 4 0.67887890D-01 0.19364214D-01 0.28773441D+05 0.28773441D+05 0.28773441D+05 0.12168058D+01  1  2  5  3  6  5       21 -.167445975215D-01 0.100000000000D+01
0.675050084929D-03 0.000000000000D+00 -.000000000000D+00 0.169051147434D-05 0.000000000000D+00  6 3 -3 25 23 21 21 4 0.67887890D-01 0.19364214D-01 0.28773441D+05 0.28773441D+05 0.28773441D+05 0.12168058D+01  1  2  6  3  6  5       21 0.179686688944D-01 0.100000000000D+01
0.530122441067D-03 0.000000000000D+00 0.000000000000D+00 0.169051147434D-05 0.335670054769D-05  6 3 -3 25 23 21 21 4 0.67887890D-01 0.19364214D-01 0.28648545D+05 0.28648545D+05 0.28648545D+05 0.12170051D+01  1  2 11  3  6  5       21 0.141171443497D-01 0.100000000000D+01
0.417393819985D-06 0.000000000000D+00 0.000000000000D+00 0.169106528515D-05 0.000000000000D+00  6 3 -3 25 23 3 -3 4 0.67887890D-01 0.19364214D-01 0.28648545D+05 0.28648545D+05 0.28648545D+05 0.12170051D+01  1  2 12  6  6  5       21 0.111151846270D-04 0.100000000000D+01
0.403564739265D-06 0.000000000000D+00 0.000000000000D+00 0.169106528515D-05 0.000000000000D+00  6 3 -3 25 23 3 -3 4 0.67887890D-01 0.19364214D-01 0.28648545D+05 0.28648545D+05 0.28648545D+05 0.12170051D+01  1  2 12  6  6  5       21 0.107469166315D-04 0.100000000000D+01
-.332922369569D-05 0.000000000000D+00 0.000000000000D+00 0.169051147434D-05 0.000000000000D+00  6 3 -3 25 23 3 -3 4 0.67887890D-01 0.19364214D-01 0.28773441D+05 0.28773441D+05 0.28773441D+05 0.12168058D+01  1  2  5  6  6  5       21 -.886181923369D-04 0.100000000000D+01
0.850233285843D-06 0.000000000000D+00 0.000000000000D+00 0.169051147434D-05 0.106861190135D-07  6 3 -3 25 23 3 -3 4 0.67887890D-01 0.19364214D-01 0.28648545D+05 0.28648545D+05 0.28648545D+05 0.12170051D+01  1  2 11  6  6  5       21 0.226416863300D-04 0.100000000000D+01
0.417393819985D-06 0.000000000000D+00 0.000000000000D+00 0.169106528515D-05 0.000000000000D+00  6 3 -3 25 23 2 -2 4 0.67887890D-01 0.19364214D-01 0.28648545D+05 0.28648545D+05 0.28648545D+05 0.12170051D+01  1  2 12  7  6  5       21 0.111151846270D-04 0.100000000000D+01
0.417393819985D-06 0.000000000000D+00 0.000000000000D+00 0.169106528515D-05 0.000000000000D+00  6 3 -3 25 23 4 -4 4 0.67887890D-01 0.19364214D-01 0.28648545D+05 0.28648545D+05 0.28648545D+05 0.12170051D+01  1  2 12  7  6  5       21 0.111151846270D-04 0.100000000000D+01
0.403564739265D-06 0.000000000000D+00 0.000000000000D+00 0.169106528515D-05 0.000000000000D+00  6 3 -3 25 23 2 -2 4 0.67887890D-01 0.19364214D-01 0.28648545D+05 0.28648545D+05 0.28648545D+05 0.12170051D+01  1  2 12  7  6  5       21 0.107469166315D-04 0.100000000000D+01
0.403564739265D-06 0.000000000000D+00 0.000000000000D+00 0.169106528515D-05 0.000000000000D+00  6 3 -3 25 23 4 -4 4 0.67887890D-01 0.19364214D-01 0.28648545D+05 0.28648545D+05 0.28648545D+05 0.12170051D+01  1  2 12  7  6  5       21 0.107469166315D-04 0.100000000000D+01
-.332922369569D-05 0.000000000000D+00 0.000000000000D+00 0.169051147434D-05 0.000000000000D+00  6 3 -3 25 23 2 -2 4 0.67887890D-01 0.19364214D-01 0.28773441D+05 0.28773441D+05 0.28773441D+05 0.12168058D+01  1  2  5  7  6  5       21 -.886181923369D-04 0.100000000000D+01
-.332922369569D-05 0.000000000000D+00 0.000000000000D+00 0.169051147434D-05 0.000000000000D+00  6 3 -3 25 23 4 -4 4 0.67887890D-01 0.19364214D-01 0.28773441D+05 0.28773441D+05 0.28773441D+05 0.12168058D+01  1  2  5  7  6  5       21 -.886181923369D-04 0.100000000000D+01
0.288351250447D-05 0.000000000000D+00 0.000000000000D+00 0.169051147434D-05 0.705320795020D-08  6 3 -3 25 23 2 -2 4 0.67887890D-01 0.19364214D-01 0.28648545D+05 0.28648545D+05 0.28648545D+05 0.12170051D+01  1  2 11  7  6  5       21 0.767878495725D-04 0.100000000000D+01
0.288351250447D-05 0.000000000000D+00 0.000000000000D+00 0.169051147434D-05 0.705320795020D-08  6 3 -3 25 23 4 -4 4 0.67887890D-01 0.19364214D-01 0.28648545D+05 0.28648545D+05 0.28648545D+05 0.12170051D+01  1  2 11  7  6  5       21 0.767878495725D-04 0.100000000000D+01
0.417393819985D-06 0.000000000000D+00 0.000000000000D+00 0.169106528515D-05 0.000000000000D+00  6 3 -3 25 23 1 -1 4 0.67887890D-01 0.19364214D-01 0.28648545D+05 0.28648545D+05 0.28648545D+05 0.12170051D+01  1  2 12  8  6  5       21 0.111151846270D-04 0.100000000000D+01
0.403564739265D-06 0.000000000000D+00 0.000000000000D+00 0.169106528515D-05 0.000000000000D+00  6 3 -3 25 23 1 -1 4 0.67887890D-01 0.19364214D-01 0.28648545D+05 0.28648545D+05 0.28648545D+05 0.12170051D+01  1  2 12  8  6  5       21 0.107469166315D-04 0.100000000000D+01
-.332922369569D-05 0.000000000000D+00 0.000000000000D+00 0.169051147434D-05 0.000000000000D+00  6 3 -3 25 23 1 -1 4 0.67887890D-01 0.19364214D-01 0.28773441D+05 0.28773441D+05 0.28773441D+05 0.12168058D+01  1  2  5  8  6  5       21 -.886181923369D-04 0.100000000000D+01
0.289250354087D-05 0.000000000000D+00 0.000000000000D+00 0.169051147434D-05 0.707520045045D-08  6 3 -3 25 23 1 -1 4 0.67887890D-01 0.19364214D-01 0.28648545D+05 0.28648545D+05 0.28648545D+05 0.12170051D+01  1  2 11  8  6  5       21 0.770272805963D-04 0.100000000000D+01
  </mgrwgt>
  </event>
  <event>
  5     66 0.42989208E-03 0.18910812E+03 0.75467711E-02 0.10548916E+00
        1 -1    0    0  502    0 0.00000000E+00 0.00000000E+00 0.29192992E+04 0.29192993E+04 0.32000000E+00 0.0000E+00 0.9000E+01
       -1 -1    0    0    0  501 0.00000000E+00 0.00000000E+00 -.51923266E+02 0.51924252E+02 0.32000000E+00 0.0000E+00 0.9000E+01
       25  1    1    2    0    0 0.43213889E+02 0.34096124E+03 0.13872289E+04 0.14346258E+04 0.12500000E+03 0.0000E+00 0.9000E+01
       23  1    1    2    0    0 -.75763785E+02 -.12254278E+03 0.41247440E+03 0.44632641E+03 0.91188000E+02 0.0000E+00 0.9000E+01
       21  1    1    2  502  501 0.32549896E+02 -.21841847E+03 0.10676727E+04 0.10902713E+04 0.75000000E+00 0.0000E+00 0.9000E+01
#aMCatNLO 1  0  0  5  2 0.36300384D+02 0.00000000D+00  -5  6  0 0.00000000D+00 0.00000000D+00 0.00000000D+00 0.00000000D+00 0.00000000D+00
  <mgrwgt>
 0.2497279676D-01   20    2    0
 0.389334100476422D+03 0.000000000000000D+00 0.000000000000000D+00 0.389334100476422D+03
 0.389334100476422D+03 -.000000000000000D+00 -.000000000000000D+00 -.389334100476422D+03
 0.365864836808085D+03 0.432138063369214D+02 0.340961794505319D+03 0.104737978877987D+02
 0.184181442258368D+03 -.757638262864448D+02 -.122542498164114D+03 -.696471901695116D+02
 0.228621921886391D+03 0.325500199495234D+02 -.218419296341205D+03 0.591733922817129D+02
 0.000000000000000D+00 0.000000000000000D+00 0.000000000000000D+00 0.000000000000000D+00
 0.389334100476422D+03 0.000000000000000D+00 0.000000000000000D+00 0.389334100476422D+03
 0.389334100476422D+03 -.000000000000000D+00 -.000000000000000D+00 -.389334100476422D+03
 0.356803727121375D+03 0.447096486872362D+02 0.330924294248797D+03 0.131931223712872D+02
 0.186826170560244D+03 -.749958824083748D+02 -.127695605957525D+03 -.682511282187711D+02
 0.190631351680764D+03 0.375840413915474D+02 -.186314423302507D+03 0.146522266487955D+02
 0.444069515904616D+02 -.729780767040879D+01 -.169142649887651D+02 0.404057791986884D+02
0.667966683450D-03 0.000000000000D+00 0.000000000000D+00 0.213569625755D-06 0.000000000000D+00  6 1 -1 25 23 21 21 2 0.44912304D+00 0.79882719D-02 0.14328178D+06 0.14328178D+06 0.14328178D+06 0.11494906D+01  1  2  2  3  6  5       21 0.609196778754D-02 0.100000000000D+01
-.496179517363D-04 0.352495703129D-04 -.256516794411D-05 0.213569625755D-06 0.000000000000D+00  6 1 -1 25 23 21 21 4 0.44912304D+00 0.79882719D-02 0.14328178D+06 0.14328178D+06 0.14328178D+06 0.11494906D+01  1  2  3  3  6  5       21 -.597932957365D-03 0.100000000000D+01
0.701166014131D-05 0.000000000000D+00 0.000000000000D+00 0.213569625755D-06 0.000000000000D+00  6 1 -1 25 23 21 21 4 0.44912304D+00 0.79882719D-02 0.14328178D+06 0.14328178D+06 0.14328178D+06 0.11494906D+01  1  2 15  3  6  5       21 0.844956822606D-04 0.100000000000D+01
0.938459031234D-03 0.000000000000D+00 0.000000000000D+00 0.214262577482D-06 0.000000000000D+00  6 1 -1 25 23 21 21 4 0.44912304D+00 0.79882719D-02 0.13651614D+06 0.13651614D+06 0.13651614D+06 0.11513539D+01  1  2 12  3  6  5       21 0.114078153383D-01 0.100000000000D+01
0.104030139070D-02 0.000000000000D+00 0.000000000000D+00 0.214262577482D-06 0.000000000000D+00  6 1 -1 25 23 21 21 4 0.44912304D+00 0.79882719D-02 0.13651614D+06 0.13651614D+06 0.13651614D+06 0.11513539D+01  1  2 12  3  6  5       21 0.126458010060D-01 0.100000000000D+01
-.713595011811D-03 0.000000000000D+00 0.000000000000D+00 0.213569625755D-06 0.000000000000D+00  6 1 -1 25 23 21 21 4 0.44912304D+00 0.79882719D-02 0.14328178D+06 0.14328178D+06 0.14328178D+06 0.11494906D+01  1  2  4  3  6  5       21 -.859934682593D-02 0.100000000000D+01
-.176280687186D-02 0.000000000000D+00 0.000000000000D+00 0.213569625755D-06 0.000000000000D+00  6 1 -1 25 23 21 21 4 0.44912304D+00 0.79882719D-02 0.14328178D+06 0.14328178D+06 0.14328178D+06 0.11494906D+01  1  2  5  3  6  5       21 -.212431244997D-01 0.100000000000D+01
0.205151355671D-02 0.000000000000D+00 -.000000000000D+00 0.213569625755D-06 0.000000000000D+00  6 1 -1 25 23 21 21 4 0.44912304D+00 0.79882719D-02 0.14328178D+06 0.14328178D+06 0.14328178D+06 0.11494906D+01  1  2  6  3  6  5       21 0.247222532393D-01 0.100000000000D+01
0.119151043922D-04 0.000000000000D+00 0.000000000000D+00 0.214262577482D-06 0.000000000000D+00  6 1 -1 25 23 1 -1 4 0.44912304D+00 0.79882719D-02 0.13651614D+06 0.13651614D+06 0.13651614D+06 0.11513539D+01  1  2 12  6  6  5       21 0.144838832723D-03 0.100000000000D+01
0.126039986697D-04 0.000000000000D+00 0.000000000000D+00 0.214262577482D-06 0.000000000000D+00  6 1 -1 25 23 1 -1 4 0.44912304D+00 0.79882719D-02 0.13651614D+06 0.13651614D+06 0.13651614D+06 0.11513539D+01  1  2 12  6  6  5       21 0.153212963552D-03 0.100000000000D+01
-.151720825372D-04 0.000000000000D+00 0.000000000000D+00 0.213569625755D-06 0.000000000000D+00  6 1 -1 25 23 1 -1 4 0.44912304D+00 0.79882719D-02 0.14328178D+06 0.14328178D+06 0.14328178D+06 0.11494906D+01  1  2  5  6  6  5       21 -.182834797959D-03 0.100000000000D+01
0.119151043922D-04 0.000000000000D+00 0.000000000000D+00 0.214262577482D-06 0.000000000000D+00  6 1 -1 25 23 2 -2 4 0.44912304D+00 0.79882719D-02 0.13651614D+06 0.13651614D+06 0.13651614D+06 0.11513539D+01  1  2 12  7  6  5       21 0.144838832723D-03 0.100000000000D+01
0.119151043922D-04 0.000000000000D+00 0.000000000000D+00 0.214262577482D-06 0.000000000000D+00  6 1 -1 25 23 4 -4 4 0.44912304D+00 0.79882719D-02 0.13651614D+06 0.13651614D+06 0.13651614D+06 0.11513539D+01  1  2 12  7  6  5       21 0.144838832723D-03 0.100000000000D+01
0.126039986697D-04 0.000000000000D+00 0.000000000000D+00 0.214262577482D-06 0.000000000000D+00  6 1 -1 25 23 2 -2 4 0.44912304D+00 0.79882719D-02 0.13651614D+06 0.13651614D+06 0.13651614D+06 0.11513539D+01  1  2 12  7  6  5       21 0.153212963552D-03 0.100000000000D+01
0.126039986697D-04 0.000000000000D+00 0.000000000000D+00 0.214262577482D-06 0.000000000000D+00  6 1 -1 25 23 4 -4 4 0.44912304D+00 0.79882719D-02 0.13651614D+06 0.13651614D+06 0.13651614D+06 0.11513539D+01  1  2 12  7  6  5       21 0.153212963552D-03 0.100000000000D+01
-.151720825372D-04 0.000000000000D+00 0.000000000000D+00 0.213569625755D-06 0.000000000000D+00  6 1 -1 25 23 2 -2 4 0.44912304D+00 0.79882719D-02 0.14328178D+06 0.14328178D+06 0.14328178D+06 0.11494906D+01  1  2  5  7  6  5       21 -.182834797959D-03 0.100000000000D+01
-.151720825372D-04 0.000000000000D+00 0.000000000000D+00 0.213569625755D-06 0.000000000000D+00  6 1 -1 25 23 4 -4 4 0.44912304D+00 0.79882719D-02 0.14328178D+06 0.14328178D+06 0.14328178D+06 0.11494906D+01  1  2  5  7  6  5       21 -.182834797959D-03 0.100000000000D+01
0.119151043922D-04 0.000000000000D+00 0.000000000000D+00 0.214262577482D-06 0.000000000000D+00  6 1 -1 25 23 3 -3 4 0.44912304D+00 0.79882719D-02 0.13651614D+06 0.13651614D+06 0.13651614D+06 0.11513539D+01  1  2 12  8  6  5       21 0.144838832723D-03 0.100000000000D+01
0.126039986697D-04 0.000000000000D+00 0.000000000000D+00 0.214262577482D-06 0.000000000000D+00  6 1 -1 25 23 3 -3 4 0.44912304D+00 0.79882719D-02 0.13651614D+06 0.13651614D+06 0.13651614D+06 0.11513539D+01  1  2 12  8  6  5       21 0.153212963552D-03 0.100000000000D+01
-.151720825372D-04 0.000000000000D+00 0.000000000000D+00 0.213569625755D-06 0.000000000000D+00  6 1 -1 25 23 3 -3 4 0.44912304D+00 0.79882719D-02 0.14328178D+06 0.14328178D+06 0.14328178D+06 0.11494906D+01  1  2  5  8  6  5       21 -.182834797959D-03 0.100000000000D+01
  </mgrwgt>
  </event>
  <event>
  6     66 0.42989208E-03 0.14990133E+03 0.75467711E-02 0.11103442E+00
        1 -1    0    0  502    0 0.00000000E+00 0.00000000E+00 0.86093119E+03 0.86093125E+03 0.32000000E+00 0.0000E+00 0.9000E+01
       -1 -1    0    0    0  503 0.00000000E+00 0.00000000E+00 -.12385277E+03 0.12385318E+03 0.32000000E+00 0.0000E+00 0.9000E+01
       25  1    1    2    0    0 -.55611118E+00 0.17860131E+01 0.40155716E+02 0.13130491E+03 0.12500000E+03 0.0000E+00 0.9000E+01
       23  1    1    2    0    0 -.56782822E+02 0.12604226E+03 0.58413384E+03 0.60715611E+03 0.91188000E+02 0.0000E+00 0.9000E+01
       21  1    1    2  502  501 0.10172847E+03 -.13978984E+03 0.92329013E+02 0.19599768E+03 0.75000000E+00 0.0000E+00 0.9000E+01
       21  1    1    2  501  503 -.44389541E+02 0.11961573E+02 0.20459853E+02 0.50325726E+02 0.75000000E+00 0.0000E+00 0.9000E+01
#aMCatNLO 2  0  0  2  1 0.45972934D+02 0.00000000D+00  -5  6  0 0.00000000D+00 0.00000000D+00 0.00000000D+00 0.00000000D+00 0.00000000D+00
  <mgrwgt>
 0.3349906394D-02    1    2    0
 0.298980511588220D+03 0.000000000000000D+00 0.000000000000000D+00 0.298980511588220D+03
 0.298980511588220D+03 0.000000000000000D+00 0.000000000000000D+00 -.298980511588220D+03
 0.157148507708047D+03 -.121850290826849D+02 0.491987955852745D+01 -.943290693596089D+02
 0.255517847258086D+03 -.754466584356864D+02 0.131071963324420D+03 0.184667433741246D+03
 0.185294668210305D+03 0.876316875183714D+02 -.135991842882947D+03 -.903383643816373D+02
 0.000000000000000D+00 -.000000000000000D+00 0.000000000000000D+00 -.000000000000000D+00
 0.312716118619823D+03 0.000000000000000D+00 0.000000000000000D+00 0.312716118619823D+03
 0.340971243015769D+03 0.000000000000000D+00 0.000000000000000D+00 -.340971243015769D+03
 0.156609302726057D+03 -.556307471689996D+00 0.178630794899869D+01 -.943290693596089D+02
 0.248049187932271D+03 -.567830884145901D+02 0.126042723214719D+03 0.184667433741246D+03
 0.195067193179181D+03 0.101728937213665D+03 -.139790604509147D+03 -.903383643816373D+02
 0.539616777980828D+02 -.443895413273849D+02 0.119615733454295D+02 -.282551243959464D+02
0.381336776199D-04 0.000000000000D+00 0.000000000000D+00 0.305277348086D-06 0.267596398897D-09  6 1 -1 25 23 21 21 4 0.13244991D+00 0.19054153D-01 0.64893416D+05 0.64893416D+05 0.64893416D+05 0.11812280D+01  1  2  1  2  6  2       -1 0.334990639417D-02 0.100000000000D+01
  </mgrwgt>
  </event>
  <event>
  6     66 -.42989208E-03 0.14991106E+02 0.75467711E-02 0.12185879E+00
        1 -1    0    0  502    0 0.00000000E+00 0.00000000E+00 0.45729000E+02 0.45730119E+02 0.32000000E+00 0.0000E+00 0.9000E+01
       -1 -1    0    0    0  501 -.00000000E+00 -.00000000E+00 -.42264554E+03 0.42264567E+03 0.32000000E+00 0.0000E+00 0.9000E+01
       25  1    1    2    0    0 -.64342153E+02 0.20552224E+02 -.18192125E+03 0.23083034E+03 0.12500000E+03 0.0000E+00 0.9000E+01
       23  1    1    2    0    0 0.50521436E+02 -.11149365E+02 -.13405720E+03 0.17018610E+03 0.91188000E+02 0.0000E+00 0.9000E+01
       21  1    1    2  503  501 0.10682778E+02 -.15776691E+02 -.29546208E+02 0.35164849E+02 0.75000000E+00 0.0000E+00 0.9000E+01
       21  1    1    2  502  503 0.31379388E+01 0.63738308E+01 -.31391884E+02 0.32194491E+02 0.75000000E+00 0.0000E+00 0.9000E+01
#aMCatNLO 2  0  0  5  1 0.11117053D+02 0.00000000D+00  -5  6  0 0.00000000D+00 0.00000000D+00 0.00000000D+00 0.00000000D+00 0.00000000D+00
  <mgrwgt>
 -.2561206368D+00    3    2    0
 0.139023194303523D+03 0.000000000000000D+00 0.000000000000000D+00 0.139023194303523D+03
 0.139023194303523D+03 -.000000000000000D+00 -.000000000000000D+00 -.139023194303523D+03
 0.144575336027035D+03 -.681780309841636D+02 0.231619461270489D+02 0.960771200963521D+01
 0.103588603678030D+03 0.477322431882272D+02 -.925175029252211D+01 0.716837113358354D+01
 0.298824489019815D+02 0.204457877959364D+02 -.139101958345268D+02 -.167760831432188D+02
 0.000000000000000D+00 0.000000000000000D+00 0.000000000000000D+00 0.000000000000000D+00
 0.139023194303523D+03 0.000000000000000D+00 0.000000000000000D+00 0.139023194303523D+03
 0.139023194303523D+03 -.000000000000000D+00 -.000000000000000D+00 -.139023194303523D+03
 0.142189203540371D+03 -.642746952980106D+02 0.205063299999424D+02 0.640496508394272D+01
 0.104981811370398D+03 0.505712285989144D+02 -.111832407016064D+02 0.483893996822934D+01
 0.186777660886365D+02 0.101143474751150D+02 -.156357161758407D+02 -.144336443180710D+01
 0.121976076076405D+02 0.358911922398118D+01 0.631262687750468D+01 -.980054062036497D+01
-.236051843865D-03 0.000000000000D+00 0.000000000000D+00 0.282643846941D-04 0.000000000000D+00  6 1 -1 25 23 21 21 4 0.70353262D-02 0.65022487D-01 0.18604773D+05 0.18604773D+05 0.18604773D+05 0.12372986D+01  1  2 13  3  6  5       21 -.137908280494D+00 0.100000000000D+01
-.198009613849D-03 0.000000000000D+00 0.000000000000D+00 0.282643846941D-04 0.000000000000D+00  6 1 -1 25 23 21 21 4 0.70353262D-02 0.65022487D-01 0.18604773D+05 0.18604773D+05 0.18604773D+05 0.12372986D+01  1  2 13  3  6  5       21 -.115682914906D+00 0.100000000000D+01
-.432756091491D-05 0.000000000000D+00 0.000000000000D+00 0.282720442852D-04 0.000000000000D+00  6 1 -1 25 23 21 21 4 0.70353262D-02 0.65022487D-01 0.18540230D+05 0.18540230D+05 0.18540230D+05 0.12374662D+01  1  2  8  3  6  5       21 -.252944140211D-02 0.100000000000D+01
  </mgrwgt>
  </event>
  <event>
  5     66 0.42989208E-03 0.37988973E+02 0.75467711E-02 0.10007285E+00
        1 -1    0    0  502    0 0.00000000E+00 0.00000000E+00 0.39636538E+03 0.39636551E+03 0.32000000E+00 0.0000E+00 0.9000E+01
       -1 -1    0    0    0  501 0.00000000E+00 0.00000000E+00 -.71520352E+02 0.71521068E+02 0.32000000E+00 0.0000E+00 0.9000E+01
       25  1    1    2    0    0 0.78364784E+02 0.23061019E+01 0.12955051E+03 0.19635349E+03 0.12500000E+03 0.0000E+00 0.9000E+01
       23  1    1    2    0    0 -.42966348E+02 0.11477837E+02 0.35816437E+02 0.10759143E+03 0.91188000E+02 0.0000E+00 0.9000E+01
       21  1    1    2  502  501 -.35398436E+02 -.13783939E+02 0.15947807E+03 0.16394165E+03 0.75000000E+00 0.0000E+00 0.9000E+01
#aMCatNLO 1  0  0  2  5 0.14576949D+01 0.00000000D+00  -5  6  0 0.00000000D+00 0.00000000D+00 0.00000000D+00 0.00000000D+00 0.00000000D+00
  <mgrwgt>
 0.3416339831D-01    5    4    0
 0.168369797765232D+03 0.000000000000000D+00 0.000000000000000D+00 0.168369797765232D+03
 0.168369797765232D+03 0.000000000000000D+00 0.000000000000000D+00 -.168369797765232D+03
 0.147851626232515D+03 0.783655835483400D+02 0.230641320161352D+01 -.941377463459752D+01
 0.114943125221038D+03 -.429657266349455D+02 0.114780789986794D+02 -.540265742834994D+02
 0.739448440769106D+02 -.353998569133945D+02 -.137844922002929D+02 0.634403489180969D+02
 0.000000000000000D+00 -.000000000000000D+00 -.000000000000000D+00 -.000000000000000D+00
 0.541607550212513D+03 0.000000000000000D+00 0.000000000000000D+00 0.541607550212513D+03
 0.599429478135460D+03 0.000000000000000D+00 0.000000000000000D+00 -.599429478135460D+03
 0.318091707737275D+03 0.168680665509520D+03 0.238779288175525D+03 -.941377463459752D+01
 0.204100490655894D+03 0.188753776719238D+02 0.173397255834423D+03 -.540265742834994D+02
 0.965500706262796D+02 -.235235720094814D+01 0.727441041094661D+02 0.634403489180969D+02
 0.522294759328524D+03 -.185203685980495D+03 -.484920648119414D+03 -.578219279229467D+02
 0.168369797765232D+03 0.000000000000000D+00 0.000000000000000D+00 0.168369797765232D+03
 0.168369797765232D+03 0.000000000000000D+00 0.000000000000000D+00 -.168369797765232D+03
 0.147851626232515D+03 0.783655835483400D+02 0.230641320161352D+01 -.941377463459752D+01
 0.114943125221038D+03 -.429657266349455D+02 0.114780789986794D+02 -.540265742834994D+02
 0.000000000000000D+00 -.000000000000000D+00 -.000000000000000D+00 -.000000000000000D+00
 0.739448440769106D+02 -.353998569133945D+02 -.137844922002929D+02 0.634403489180969D+02
 0.541607550212513D+03 0.000000000000000D+00 0.000000000000000D+00 0.541607550212513D+03
 0.599429478135460D+03 0.000000000000000D+00 0.000000000000000D+00 -.599429478135460D+03
 0.318091707737275D+03 0.168680665509520D+03 0.238779288175525D+03 -.941377463459752D+01
 0.204100490655894D+03 0.188753776719238D+02 0.173397255834423D+03 -.540265742834994D+02
 0.522294759328524D+03 -.185203685980495D+03 -.484920648119414D+03 -.578219279229467D+02
 0.965500706262796D+02 -.235235720094814D+01 0.727441041094661D+02 0.634403489180969D+02
0.531033570104D-04 0.000000000000D+00 0.000000000000D+00 0.127022444143D-04 0.000000000000D+00  6 1 -1 25 23 21 21 2 0.60979354D-01 0.11003196D-01 0.20591573D+05 0.20591573D+05 0.20591573D+05 0.12324348D+01  1  2  2  2  6  2       -1 0.252612814487D-01 0.100000000000D+01
0.250354198095D-05 0.280234113941D-05 -.203930873355D-06 0.127022444143D-04 0.000000000000D+00  6 1 -1 25 23 21 21 4 0.60979354D-01 0.11003196D-01 0.20591573D+05 0.20591573D+05 0.20591573D+05 0.12324348D+01  1  2  3  2  6  2       -1 0.180890669345D-02 0.100000000000D+01
0.250981631813D-05 0.000000000000D+00 0.000000000000D+00 0.127022444143D-04 0.000000000000D+00  6 1 -1 25 23 21 21 4 0.60979354D-01 0.11003196D-01 0.20591573D+05 0.20591573D+05 0.20591573D+05 0.12324348D+01  1  2 15  2  6  2       -1 0.181344014670D-02 0.100000000000D+01
0.171416501219D-03 0.000000000000D+00 -.586293668585D-04 0.127022444143D-04 0.000000000000D+00  6 1 -1 25 23 21 21 4 0.60979354D-01 0.11659102D+00 0.20591573D+05 0.20591573D+05 0.20591573D+05 0.12324348D+01  1  2  5  2  6  2       -1 0.181142071966D-02 0.100000000000D+01
0.379102940570D-04 0.000000000000D+00 -.163618557522D-04 0.127022444143D-04 0.000000000000D+00  6 1 21 25 23 1 21 4 0.60979354D-01 0.11659102D+00 0.20591573D+05 0.20591573D+05 0.20591573D+05 0.12324348D+01  3  4  5  5  5  2       -1 0.346834930561D-02 0.100000000000D+01
  </mgrwgt>
  </event>
  <event>
  6     66 0.42989208E-03 0.25286792E+02 0.75467711E-02 0.11974973E+00
        1 -1    0    0  502    0 0.00000000E+00 0.00000000E+00 0.32306242E+03 0.32306258E+03 0.32000000E+00 0.0000E+00 0.9000E+01
       -1 -1    0    0    0  501 0.00000000E+00 0.00000000E+00 -.10576079E+03 0.10576128E+03 0.32000000E+00 0.0000E+00 0.9000E+01
       25  1    1    2    0    0 -.39219564E+02 0.58890696E+02 0.21200090E+03 0.25607747E+03 0.12500000E+03 0.0000E+00 0.9000E+01
       23  1    1    2    0    0 0.64688939E+02 -.23650193E+02 -.14838027E+01 0.11428667E+03 0.91188000E+02 0.0000E+00 0.9000E+01
       21  1    1    2  503  501 -.25269556E+02 -.21110307E+02 -.11901224E+02 0.35019954E+02 0.75000000E+00 0.0000E+00 0.9000E+01
       21  1    1    2  502  503 -.19981936E+00 -.14130196E+02 0.18685750E+02 0.23439755E+02 0.75000000E+00 0.0000E+00 0.9000E+01
#aMCatNLO 2  0  0  5  1 0.15389838D+02 0.00000000D+00  -5  6  0 0.00000000D+00 0.00000000D+00 0.00000000D+00 0.00000000D+00 0.00000000D+00
  <mgrwgt>
 0.2769259618D-01    4    2    0
 0.184844460949149D+03 0.000000000000000D+00 0.000000000000000D+00 0.184844460949149D+03
 0.184844460949149D+03 -.000000000000000D+00 -.000000000000000D+00 -.184844460949149D+03
 0.175050565393439D+03 -.361314477627972D+02 0.631635440499885D+02 0.986031725157567D+02
 0.132818365053365D+03 0.670552472145002D+02 -.203760692973037D+02 -.664370105622062D+02
 0.618199914514943D+02 -.309237994517030D+02 -.427874747526848D+02 -.321661619535505D+02
 0.000000000000000D+00 0.000000000000000D+00 -.000000000000000D+00 0.000000000000000D+00
 0.184844460949149D+03 0.000000000000000D+00 0.000000000000000D+00 0.184844460949149D+03
 0.184844460949149D+03 -.000000000000000D+00 -.000000000000000D+00 -.184844460949149D+03
 0.172391277236815D+03 -.392619147797472D+02 0.588320976938881D+02 0.953469391019187D+02
 0.133449752161714D+03 0.646561592051316D+02 -.236955487742888D+02 -.689324818438221D+02
 0.473250906959051D+02 -.251204562496692D+02 -.206612352157261D+02 -.343764490101077D+02
 0.165228018038646D+02 -.273788175715170D+00 -.144753137038732D+02 0.796199175201111D+01
-.646913608873D-04 0.000000000000D+00 0.000000000000D+00 0.401706723400D-05 0.000000000000D+00  6 1 -1 25 23 21 21 4 0.49701960D-01 0.16270940D-01 0.23240247D+05 0.23240247D+05 0.23240247D+05 0.12267109D+01  1  2 13  3  6  5       21 -.322994167698D-01 0.100000000000D+01
-.501186517276D-04 0.000000000000D+00 0.000000000000D+00 0.401706723400D-05 0.000000000000D+00  6 1 -1 25 23 21 21 4 0.49701960D-01 0.16270940D-01 0.23240247D+05 0.23240247D+05 0.23240247D+05 0.12267109D+01  1  2 13  3  6  5       21 -.250234837834D-01 0.100000000000D+01
-.168181621146D-05 0.000000000000D+00 0.000000000000D+00 0.400208992733D-05 0.000000000000D+00  6 1 -1 25 23 21 21 4 0.49701960D-01 0.16270940D-01 0.24404438D+05 0.24404438D+05 0.24404438D+05 0.12244219D+01  1  2  8  3  6  5       21 -.834154390272D-03 0.100000000000D+01
0.171945233629D-03 0.000000000000D+00 0.000000000000D+00 0.400208992733D-05 0.244462934916D-06  6 1 -1 25 23 21 21 4 0.49701960D-01 0.16270940D-01 0.23240247D+05 0.23240247D+05 0.23240247D+05 0.12267109D+01  1  2  1  3  6  5       21 0.858496511188D-01 0.100000000000D+01
  </mgrwgt>
  </event>
  <event>
  5     66 0.42989208E-03 0.51717082E+02 0.75467711E-02 0.10084091E+00
        1 -1    0    0  502    0 0.00000000E+00 0.00000000E+00 0.91312242E+02 0.91312803E+02 0.32000000E+00 0.0000E+00 0.9000E+01
       -1 -1    0    0    0  501 0.00000000E+00 0.00000000E+00 -.45470910E+03 0.45470922E+03 0.32000000E+00 0.0000E+00 0.9000E+01
       25  1    1    2    0    0 0.15070734E+03 0.10253010E+02 -.16715560E+03 0.25765058E+03 0.12500000E+03 0.0000E+00 0.9000E+01
       23  1    1    2    0    0 -.99177251E+02 -.14615263E+02 -.19394560E+03 0.23660068E+03 0.91188000E+02 0.0000E+00 0.9000E+01
       21  1    1    2  502  501 -.51530090E+02 0.43622535E+01 -.22956633E+01 0.51770764E+02 0.75000000E+00 0.0000E+00 0.9000E+01
#aMCatNLO 1  0  0  2  5 0.34552868D+02 0.00000000D+00  -5  6  0 0.00000000D+00 0.00000000D+00 0.00000000D+00 0.00000000D+00 0.00000000D+00
  <mgrwgt>
 0.8202711473D-01    3    2    0
 0.203766267268310D+03 0.000000000000000D+00 0.000000000000000D+00 0.203766267268310D+03
 0.203766267268310D+03 0.000000000000000D+00 0.000000000000000D+00 -.203766267268310D+03
 0.196154973057184D+03 0.150708880083236D+03 0.102528792891750D+02 0.578665580476784D+01
 0.144061564260471D+03 -.991761199297397D+02 -.146153587882557D+02 -.488771058507590D+02
 0.673159972189654D+02 -.515327601534966D+02 0.436247949908063D+01 0.430904500459911D+02
 0.000000000000000D+00 0.000000000000000D+00 0.000000000000000D+00 0.000000000000000D+00
 0.679340884325503D+03 0.000000000000000D+00 0.000000000000000D+00 0.679340884325503D+03
 0.435327869698053D+03 0.000000000000000D+00 0.000000000000000D+00 -.435327869698053D+03
 0.135151992767415D+03 0.165841286185999D+02 -.482964019525508D+02 0.578665580476784D+01
 0.320094474989253D+03 -.287082864510952D+03 -.966420146855699D+02 -.488771058507590D+02
 0.149878077865153D+03 -.139460586445177D+03 -.340205256830952D+02 0.430904500459911D+02
 0.509544208401734D+03 0.409959322337529D+03 0.178958942321216D+03 0.244013014627450D+03
0.575119503226D-03 0.000000000000D+00 0.000000000000D+00 0.476932590687D-05 0.000000000000D+00  6 1 -1 25 23 21 21 2 0.14048089D-01 0.69955298D-01 0.36730361D+05 0.36730361D+05 0.36730361D+05 0.12057794D+01  1  2  2  2  6  2       -1 0.726638369582D-01 0.100000000000D+01
0.303476927878D-04 0.303498900014D-04 -.220861032483D-05 0.476932590687D-05 0.000000000000D+00  6 1 -1 25 23 21 21 4 0.14048089D-01 0.69955298D-01 0.36730361D+05 0.36730361D+05 0.36730361D+05 0.12057794D+01  1  2  3  2  6  2       -1 0.557470161371D-02 0.100000000000D+01
0.206243406702D-04 0.000000000000D+00 0.000000000000D+00 0.476932590687D-05 0.000000000000D+00  6 1 -1 25 23 21 21 4 0.14048089D-01 0.69955298D-01 0.36730361D+05 0.36730361D+05 0.36730361D+05 0.12057794D+01  1  2 15  2  6  2       -1 0.378857615371D-02 0.100000000000D+01
  </mgrwgt>
  </event>
  <event>
  5     66 0.42989208E-03 0.65812564E+02 0.75467711E-02 0.11678971E+00
        1 -1    0    0  502    0 0.00000000E+00 0.00000000E+00 0.64423834E+03 0.64423842E+03 0.32000000E+00 0.0000E+00 0.9000E+01
       -1 -1    0    0    0  501 0.00000000E+00 0.00000000E+00 -.80147198E+02 0.80147837E+02 0.32000000E+00 0.0000E+00 0.9000E+01
       25  1    1    2    0    0 -.75327351E+02 0.83316669E+02 0.25143978E+03 0.30242824E+03 0.12500000E+03 0.0000E+00 0.9000E+01
       23  1    1    2    0    0 0.31240265E+02 -.25362511E+02 0.33197647E+03 0.34661627E+03 0.91188000E+02 0.0000E+00 0.9000E+01
       21  1    1    2  502  501 0.44087087E+02 -.57954158E+02 -.19325113E+02 0.75341742E+02 0.75000000E+00 0.0000E+00 0.9000E+01
#aMCatNLO 1  0  0  1  5 0.15984089D+02 0.00000000D+00  -5  6  0 0.00000000D+00 0.00000000D+00 0.00000000D+00 0.00000000D+00 0.00000000D+00
  <mgrwgt>
 0.2098419965D-01    9    4    0
 0.227231508438343D+03 0.000000000000000D+00 0.000000000000000D+00 0.227231508438343D+03
 0.227231508438343D+03 0.000000000000000D+00 0.000000000000000D+00 -.227231508438343D+03
 0.169958959257862D+03 -.753275748400678D+02 0.833169624539470D+02 0.253985839797629D+02
 0.140427720322099D+03 0.312400802801382D+02 -.253622678918431D+02 0.989217167377034D+02
 0.144076337296726D+03 0.440874945599297D+02 -.579546945621039D+02 -.124320300717466D+03
 0.000000000000000D+00 -.000000000000000D+00 0.000000000000000D+00 0.000000000000000D+00
 0.278820764538478D+03 0.000000000000000D+00 0.000000000000000D+00 0.278820764538478D+03
 0.228613494042592D+03 0.000000000000000D+00 0.000000000000000D+00 -.228613494042592D+03
 0.166116165452700D+03 -.712090236578487D+02 0.790807644514628D+02 0.253985839797629D+02
 0.141920047786860D+03 0.347002106160075D+02 -.289212371916362D+02 0.989217167377034D+02
 0.146707807956636D+03 0.476510114558476D+02 -.616200036692186D+02 -.124320300717466D+03
 0.526902373848744D+02 -.111421984140063D+02 0.114604764093920D+02 0.502072704958864D+02
 0.227231508438343D+03 0.000000000000000D+00 0.000000000000000D+00 0.227231508438343D+03
 0.227231508438343D+03 0.000000000000000D+00 0.000000000000000D+00 -.227231508438343D+03
 0.169958959257862D+03 -.753275748400678D+02 0.833169624539470D+02 0.253985839797629D+02
 0.140427720322099D+03 0.312400802801382D+02 -.253622678918431D+02 0.989217167377034D+02
 0.000000000000000D+00 -.000000000000000D+00 0.000000000000000D+00 0.000000000000000D+00
 0.144076337296726D+03 0.440874945599297D+02 -.579546945621039D+02 -.124320300717466D+03
 0.278820764538478D+03 0.000000000000000D+00 0.000000000000000D+00 0.278820764538478D+03
 0.228613494042592D+03 0.000000000000000D+00 0.000000000000000D+00 -.228613494042592D+03
 0.166116165452700D+03 -.712090236578487D+02 0.790807644514628D+02 0.253985839797629D+02
 0.141920047786860D+03 0.347002106160075D+02 -.289212371916362D+02 0.989217167377034D+02
 0.526902373848744D+02 -.111421984140063D+02 0.114604764093920D+02 0.502072704958864D+02
 0.146707807956636D+03 0.476510114558476D+02 -.616200036692186D+02 -.124320300717466D+03
0.200161384296D-04 0.000000000000D+00 0.000000000000D+00 0.387826956960D-05 0.000000000000D+00  6 1 -1 25 23 21 21 2 0.99113646D-01 0.12330393D-01 0.28991885D+05 0.28991885D+05 0.28991885D+05 0.12164595D+01  1  2  2  1  6  1        1 0.411727803483D-02 0.100000000000D+01
-.465337644832D-06 0.105628064460D-05 -.768672419401D-07 0.387826956960D-05 0.000000000000D+00  6 1 -1 25 23 21 21 4 0.99113646D-01 0.12330393D-01 0.28991885D+05 0.28991885D+05 0.28991885D+05 0.12164595D+01  1  2  3  1  6  1        1 -.141642440475D-03 0.100000000000D+01
0.588500206025D-06 0.000000000000D+00 0.000000000000D+00 0.387826956960D-05 0.000000000000D+00  6 1 -1 25 23 21 21 4 0.99113646D-01 0.12330393D-01 0.28991885D+05 0.28991885D+05 0.28991885D+05 0.12164595D+01  1  2 15  1  6  1        1 0.179131446440D-03 0.100000000000D+01
0.550580130248D-03 0.000000000000D+00 0.000000000000D+00 0.384642380654D-05 0.000000000000D+00  6 1 -1 25 23 21 21 4 0.12210061D+00 0.12330393D-01 0.32365017D+05 0.32365017D+05 0.32365017D+05 0.12114548D+01  1  2 12  1  6  1        1 0.121716642577D+00 0.100000000000D+01
-.494806056309D-03 0.000000000000D+00 0.000000000000D+00 0.387826956960D-05 0.000000000000D+00  6 1 -1 25 23 21 21 4 0.99113646D-01 0.12330393D-01 0.28991885D+05 0.28991885D+05 0.28991885D+05 0.12164595D+01  1  2  4  1  6  1        1 -.150612223524D+00 0.100000000000D+01
-.608886928455D-03 0.000000000000D+00 -.314790502334D-04 0.387826956960D-05 0.000000000000D+00  6 1 -1 25 23 21 21 4 0.12193315D+00 0.12330393D-01 0.28991885D+05 0.28991885D+05 0.28991885D+05 0.12164595D+01  1  2  5  1  6  1        1 -.137125528512D+00 0.100000000000D+01
0.603080661706D-03 0.000000000000D+00 0.308151671757D-04 0.387826956960D-05 0.000000000000D+00  6 1 -1 25 23 21 21 4 0.99113646D-01 0.12330393D-01 0.28991885D+05 0.28991885D+05 0.28991885D+05 0.12164595D+01  1  2  6  1  6  1        1 0.183569538541D+00 0.100000000000D+01
0.162695599185D-04 0.000000000000D+00 0.000000000000D+00 0.384642380654D-05 0.000000000000D+00  6 21 -1 25 23 -1 21 4 0.12210061D+00 0.12330393D-01 0.32365017D+05 0.32365017D+05 0.32365017D+05 0.12114548D+01  3  4 12  4  5  1        1 0.701338218584D-02 0.100000000000D+01
-.175170860043D-04 0.000000000000D+00 -.925536821285D-06 0.387826956960D-05 0.000000000000D+00  6 21 -1 25 23 -1 21 4 0.12193315D+00 0.12330393D-01 0.28991885D+05 0.28991885D+05 0.28991885D+05 0.12164595D+01  3  4  5  4  5  1        1 -.773237865447D-02 0.100000000000D+01
  </mgrwgt>
  </event>
  <event>
  6     66 0.42989208E-03 0.25718051E+03 0.75467711E-02 0.10627550E+00
        3 -1    0    0  502    0 0.00000000E+00 0.00000000E+00 0.72353381E+03 0.72353399E+03 0.50000000E+00 0.0000E+00 0.9000E+01
       -3 -1    0    0    0  503 0.00000000E+00 0.00000000E+00 -.25503792E+03 0.25503841E+03 0.50000000E+00 0.0000E+00 0.9000E+01
       25  1    1    2    0    0 0.15265223E+03 -.74618754E+01 0.18360933E+03 0.26962153E+03 0.12500000E+03 0.0000E+00 0.9000E+01
       23  1    1    2    0    0 0.97170808E+02 0.15897371E+03 -.71381490E+02 0.21937496E+03 0.91188000E+02 0.0000E+00 0.9000E+01
       21  1    1    2  502  501 -.23551886E+03 -.13120507E+03 0.37254951E+03 0.45986694E+03 0.75000000E+00 0.0000E+00 0.9000E+01
       21  1    1    2  501  503 -.14304181E+02 -.20306763E+02 -.16281456E+02 0.29708963E+02 0.75000000E+00 0.0000E+00 0.9000E+01
#aMCatNLO 2  0  0  2  5 0.24838966D+02 0.00000000D+00  -5  6  0 0.00000000D+00 0.00000000D+00 0.00000000D+00 0.00000000D+00 0.00000000D+00
  <mgrwgt>
 0.1986304416D-02    3    2    0
 0.407650512678959D+03 0.000000000000000D+00 0.000000000000000D+00 0.407650512678959D+03
 0.407650512678959D+03 0.000000000000000D+00 0.000000000000000D+00 -.407650512678959D+03
 0.202124605137865D+03 0.149085985530169D+03 -.125247942340554D+02 0.533465504979518D+02
 0.292092150312737D+03 0.919991113585559D+02 0.151631568669514D+03 -.213416503163126D+03
 0.321084269907317D+03 -.241085096888725D+03 -.139106774435459D+03 0.160069952665174D+03
 0.000000000000000D+00 -.000000000000000D+00 -.000000000000000D+00 -.000000000000000D+00
 0.411656334055852D+03 0.000000000000000D+00 0.000000000000000D+00 0.411656334055852D+03
 0.448252679406945D+03 0.000000000000000D+00 0.000000000000000D+00 -.448252679406945D+03
 0.204522094360016D+03 0.152652397570532D+03 -.746177910051204D+01 0.533465504979518D+02
 0.297618467541527D+03 0.971710482031004D+02 0.158973848310033D+03 -.213416503163126D+03
 0.313538747728038D+03 -.235519264990959D+03 -.131205306290383D+03 0.160069952665174D+03
 0.442297038332156D+02 -.143041807826733D+02 -.203067629191376D+02 -.365963453510934D+02
-.269246292658D-02 0.000000000000D+00 0.000000000000D+00 0.187237003060D-06 0.000000000000D+00  6 3 -3 25 23 21 21 4 0.11022892D+00 0.39526961D-01 0.12226151D+06 0.12226151D+06 0.12226151D+06 0.11556372D+01  1  2 13  2  6  2       -3 -.550432242773D-02 0.100000000000D+01
-.129301226178D-06 0.000000000000D+00 0.000000000000D+00 0.188223791230D-06 0.000000000000D+00  6 3 -3 25 23 21 21 4 0.11022892D+00 0.35682374D-01 0.11313944D+06 0.11313944D+06 0.11313944D+06 0.11586785D+01  1  2  8  2  6  2       -3 -.325564217187D-06 0.100000000000D+01
0.369601948300D-02 0.000000000000D+00 0.000000000000D+00 0.188223791230D-06 0.159574657925D-08  6 3 -3 25 23 21 21 4 0.11131209D+00 0.39236353D-01 0.12226151D+06 0.12226151D+06 0.12226151D+06 0.11556372D+01  1  2  1  2  6  2       -3 0.749095240841D-02 0.100000000000D+01
  </mgrwgt>
  </event>
  <event>
  5     66 -.42989208E-03 0.27611896E+02 0.75467711E-02 0.12114597E+00
        1 -1    0    0  502    0 0.00000000E+00 0.00000000E+00 0.39152505E+03 0.39152518E+03 0.32000000E+00 0.0000E+00 0.9000E+01
       -1 -1    0    0    0  501 0.00000000E+00 0.00000000E+00 -.61912571E+02 0.61913398E+02 0.32000000E+00 0.0000E+00 0.9000E+01
       25  1    1    2    0    0 0.54908942E+02 -.11269365E+01 0.12415982E+03 0.18454518E+03 0.12500000E+03 0.0000E+00 0.9000E+01
       23  1    1    2    0    0 -.69730671E+02 0.24419861E+02 0.21031943E+03 0.24084893E+03 0.91188000E+02 0.0000E+00 0.9000E+01
       21  1    1    2  502  501 0.14821728E+02 -.23292925E+02 -.48667715E+01 0.28044464E+02 0.75000000E+00 0.0000E+00 0.9000E+01
#aMCatNLO 1  0  0  2  5 0.13408165D+01 0.00000000D+00  -5  6  0 0.00000000D+00 0.00000000D+00 0.00000000D+00 0.00000000D+00 0.00000000D+00
  <mgrwgt>
 -.1013108249D+00   11    4    0
 0.155693736048884D+03 0.000000000000000D+00 0.000000000000000D+00 0.155693736048884D+03
 0.155693736048884D+03 0.000000000000000D+00 0.000000000000000D+00 -.155693736048884D+03
 0.137305120260524D+03 0.549080731497670D+02 -.112557046319143D+01 -.145441618482878D+02
 0.128093639346486D+03 -.697314818304885D+02 0.244211354925216D+02 0.513211231366554D+02
 0.459887124907572D+02 0.148234086807215D+02 -.232955650293301D+02 -.367769612883676D+02
 0.000000000000000D+00 0.000000000000000D+00 -.000000000000000D+00 -.000000000000000D+00
 0.155835343448684D+03 0.000000000000000D+00 0.000000000000000D+00 0.155835343448684D+03
 0.158901759376299D+03 0.000000000000000D+00 0.000000000000000D+00 -.158901759376299D+03
 0.137153152427157D+03 0.545344722381732D+02 -.667768329295813D+00 -.145441618482878D+02
 0.128366139237306D+03 -.700805826468996D+02 0.248489157621572D+02 0.513211231366554D+02
 0.458710671590053D+02 0.146983663670762D+02 -.231423409973816D+02 -.367769612883676D+02
 0.334674400151528D+01 0.847744041650246D+00 -.103880643547978D+01 -.306641592761497D+01
 0.155693736048884D+03 0.000000000000000D+00 0.000000000000000D+00 0.155693736048884D+03
 0.155693736048884D+03 0.000000000000000D+00 0.000000000000000D+00 -.155693736048884D+03
 0.137305120260524D+03 0.549080731497670D+02 -.112557046319143D+01 -.145441618482878D+02
 0.128093639346486D+03 -.697314818304885D+02 0.244211354925216D+02 0.513211231366554D+02
 0.000000000000000D+00 0.000000000000000D+00 -.000000000000000D+00 -.000000000000000D+00
 0.459887124907572D+02 0.148234086807215D+02 -.232955650293301D+02 -.367769612883676D+02
 0.155835343448684D+03 0.000000000000000D+00 0.000000000000000D+00 0.155835343448684D+03
 0.158901759376299D+03 0.000000000000000D+00 0.000000000000000D+00 -.158901759376299D+03
 0.137153152427157D+03 0.545344722381732D+02 -.667768329295813D+00 -.145441618482878D+02
 0.128366139237306D+03 -.700805826468996D+02 0.248489157621572D+02 0.513211231366554D+02
 0.334674400151528D+01 0.847744041650246D+00 -.103880643547978D+01 -.306641592761497D+01
 0.458710671590053D+02 0.146983663670762D+02 -.231423409973816D+02 -.367769612883676D+02
0.167813345015D-04 0.000000000000D+00 0.000000000000D+00 0.206084384385D-04 0.000000000000D+00  6 1 -1 25 23 21 21 2 0.60234696D-01 0.95250846D-02 0.19811653D+05 0.19811653D+05 0.19811653D+05 0.12342787D+01  1  2  2  2  6  2       -1 0.101314435083D-01 0.100000000000D+01
0.183496269576D-05 0.885575351451D-06 -.644447431125D-07 0.206084384385D-04 0.000000000000D+00  6 1 -1 25 23 21 21 4 0.60234696D-01 0.95250846D-02 0.19811653D+05 0.19811653D+05 0.19811653D+05 0.12342787D+01  1  2  3  2  6  2       -1 0.168771278126D-02 0.100000000000D+01
0.503186282327D-06 0.000000000000D+00 0.000000000000D+00 0.206084384385D-04 0.000000000000D+00  6 1 -1 25 23 21 21 4 0.60234696D-01 0.95250846D-02 0.19811653D+05 0.19811653D+05 0.19811653D+05 0.12342787D+01  1  2 15  2  6  2       -1 0.462807185129D-03 0.100000000000D+01
0.615999169161D-08 0.000000000000D+00 0.000000000000D+00 0.205938449070D-04 0.000000000000D+00  6 1 -1 25 23 21 21 4 0.60234696D-01 0.98669893D-02 0.19993494D+05 0.19993494D+05 0.19993494D+05 0.12338416D+01  1  2 12  2  6  2       -1 0.536254340629D-05 0.100000000000D+01
-.570073186249D-03 0.000000000000D+00 0.000000000000D+00 0.206084384385D-04 0.000000000000D+00  6 1 -1 25 23 21 21 4 0.60234696D-01 0.95250846D-02 0.19811653D+05 0.19811653D+05 0.19811653D+05 0.12342787D+01  1  2  4  2  6  2       -1 -.524326627954D+00 0.100000000000D+01
-.278622286504D-02 0.000000000000D+00 -.150315593201D-03 0.206084384385D-04 0.000000000000D+00  6 1 -1 25 23 21 21 4 0.60234696D-01 0.97285981D-02 0.19811653D+05 0.19811653D+05 0.19811653D+05 0.12342787D+01  1  2  5  2  6  2       -1 -.248136488803D+01 0.100000000000D+01
0.278881103040D-02 0.000000000000D+00 0.150282008291D-03 0.206084384385D-04 0.000000000000D+00  6 1 -1 25 23 21 21 4 0.60234696D-01 0.95250846D-02 0.19811653D+05 0.19811653D+05 0.19811653D+05 0.12342787D+01  1  2  6  2  6  2       -1 0.256501782375D+01 0.100000000000D+01
0.523726195607D-03 0.000000000000D+00 0.000000000000D+00 0.206084384385D-04 0.463637344676D-03  6 1 -1 25 23 21 21 4 0.60289481D-01 0.97213462D-02 0.19993494D+05 0.19993494D+05 0.19993494D+05 0.12338416D+01  1  2 11  2  6  2       -1 0.465857712936D+00 0.100000000000D+01
0.580607637542D-09 0.000000000000D+00 0.000000000000D+00 0.205938449070D-04 0.000000000000D+00  6 1 21 25 23 1 21 4 0.60234696D-01 0.98669893D-02 0.19993494D+05 0.19993494D+05 0.19993494D+05 0.12338416D+01  3  4 12  5  5  2       -1 0.763723219908D-05 0.100000000000D+01
-.106778484055D-04 0.000000000000D+00 -.577388253337D-06 0.206084384385D-04 0.000000000000D+00  6 1 21 25 23 1 21 4 0.60234696D-01 0.97285981D-02 0.19811653D+05 0.19811653D+05 0.19811653D+05 0.12342787D+01  3  4  5  5  5  2       -1 -.144166638709D+00 0.100000000000D+01
0.398714366275D-06 0.000000000000D+00 0.000000000000D+00 0.206084384385D-04 0.705747360695D-06  6 1 21 25 23 1 21 4 0.60289481D-01 0.97213462D-02 0.19993494D+05 0.19993494D+05 0.19993494D+05 0.12338416D+01  3  4 11  5  5  2       -1 0.537682986512D-02 0.100000000000D+01
  </mgrwgt>
  </event>
  <event>
  6     66 0.42989208E-03 0.10993307E+03 0.75467711E-02 0.10805549E+00
        3 -1    0    0  502    0 0.00000000E+00 0.00000000E+00 0.18210759E+03 0.18210827E+03 0.50000000E+00 0.0000E+00 0.9000E+01
       21 -1    0    0  503  501 0.00000000E+00 0.00000000E+00 -.94610057E+03 0.94610087E+03 0.75000000E+00 0.0000E+00 0.9000E+01
       25  1    1    2    0    0 0.46651775E+02 0.49608303E+02 0.32359828E+02 0.14597784E+03 0.12500000E+03 0.0000E+00 0.9000E+01
       23  1    1    2    0    0 -.25614254E+01 0.27319003E+02 0.37620351E+01 0.95301066E+02 0.91188000E+02 0.0000E+00 0.9000E+01
        3  1    1    2  503    0 0.11429705E+03 -.16469973E+03 -.38603268E+03 0.43498425E+03 0.50000000E+00 0.0000E+00 0.9000E+01
       21  1    1    2  502  501 -.15838740E+03 0.87772428E+02 -.41408217E+03 0.45194599E+03 0.75000000E+00 0.0000E+00 0.9000E+01
#aMCatNLO 2  0  0  2  5 0.13408165D+01 0.00000000D+00  -5  6  0 0.00000000D+00 0.00000000D+00 0.00000000D+00 0.00000000D+00 0.00000000D+00
  <mgrwgt>
 0.1475232243D-02    1    2    0
 0.272725567391350D+03 0.000000000000000D+00 0.000000000000000D+00 0.272725567391350D+03
 0.272725567391350D+03 0.000000000000000D+00 0.000000000000000D+00 -.272725567391350D+03
 0.202746093438203D+03 0.870240016918608D+02 -.856697496722060D+01 0.133545529591591D+03
 0.114941295099455D+03 0.208822197412808D+02 -.646265348417992D+01 0.664711740814036D+02
 0.000000000000000D+00 0.000000000000000D+00 -.000000000000000D+00 -.000000000000000D+00
 0.227763746245042D+03 -.107906221433142D+03 0.150296284514005D+02 -.200016703672994D+03
 0.335678575060158D+03 0.000000000000000D+00 0.000000000000000D+00 0.335678575060158D+03
 0.513266081984707D+03 0.000000000000000D+00 0.000000000000000D+00 -.513266081984707D+03
 0.195184018371651D+03 0.466519220887846D+02 0.496083734789659D+02 0.133545529591591D+03
 0.116131641158027D+03 -.256133152523239D+01 0.273190287366566D+02 0.664711740814036D+02
 0.267819232462014D+03 0.114297051627495D+03 -.164699734821058D+03 -.177587506924550D+03
 0.269809765053174D+03 -.158387642191047D+03 0.877723326054353D+02 -.200016703672994D+03
0.427869146271D-04 0.000000000000D+00 0.000000000000D+00 0.445441121084D-05 0.566990730167D-09  6 3 21 25 23 3 21 4 0.28016610D-01 0.14555392D+00 0.95830065D+05 0.95830065D+05 0.95830065D+05 0.11652748D+01  1  2  1  5  5  2       -3 0.147523224330D-02 0.100000000000D+01
  </mgrwgt>
  </event>
  <event>
  5     66 0.42989208E-03 0.22437405E+02 0.75467711E-02 0.10861241E+00
        1 -1    0    0  502    0 0.00000000E+00 0.00000000E+00 0.50894424E+03 0.50894434E+03 0.32000000E+00 0.0000E+00 0.9000E+01
       -1 -1    0    0    0  501 0.00000000E+00 0.00000000E+00 -.19895371E+03 0.19895396E+03 0.32000000E+00 0.0000E+00 0.9000E+01
       25  1    1    2    0    0 0.83630093E+02 0.54379581E+02 0.46093696E+03 0.48789242E+03 0.12500000E+03 0.0000E+00 0.9000E+01
       23  1    1    2    0    0 -.91065236E+02 -.33210920E+02 -.10740239E+03 0.17101569E+03 0.91188000E+02 0.0000E+00 0.9000E+01
       21  1    1    2  502  501 0.74351439E+01 -.21168662E+02 -.43544040E+02 0.48990198E+02 0.75000000E+00 0.0000E+00 0.9000E+01
#aMCatNLO 1  0  0  2  1 0.19213983D+03 0.00000000D+00  -5  6  0 0.00000000D+00 0.00000000D+00 0.00000000D+00 0.00000000D+00 0.00000000D+00
  <mgrwgt>
 0.1271645602D+00    5    4    0
 0.318208218496652D+03 0.000000000000000D+00 0.000000000000000D+00 0.318208218496652D+03
 0.318208218496652D+03 0.000000000000000D+00 0.000000000000000D+00 -.318208218496652D+03
 0.318177081512342D+03 0.836299101317577D+02 0.543801006132303D+02 0.275064534224899D+03
 0.242537292866236D+03 -.910653755559308D+02 -.332105237382603D+02 -.202764014496581D+03
 0.757020626147275D+02 0.743546542417307D+01 -.211695768749700D+02 -.723005197283173D+02
 0.000000000000000D+00 0.000000000000000D+00 0.000000000000000D+00 -.000000000000000D+00
 0.382432508766639D+03 0.000000000000000D+00 0.000000000000000D+00 0.382432508766639D+03
 0.598238323096331D+03 0.000000000000000D+00 0.000000000000000D+00 -.598238323096331D+03
 0.308559654754451D+03 0.453030874960562D+02 -.432572862897142D+02 0.275064534224899D+03
 0.278619885684631D+03 -.122935693014295D+03 -.114399996342842D+03 -.202764014496581D+03
 0.859153295978135D+02 -.244792064167556D+01 -.463474529121958D+02 -.723005197283173D+02
 0.307575961826074D+03 0.800805261599143D+02 0.204004735544752D+03 -.215805814329692D+03
 0.318208218496652D+03 0.000000000000000D+00 0.000000000000000D+00 0.318208218496652D+03
 0.318208218496652D+03 0.000000000000000D+00 0.000000000000000D+00 -.318208218496652D+03
 0.318177081512342D+03 0.836299101317577D+02 0.543801006132303D+02 0.275064534224899D+03
 0.242537292866236D+03 -.910653755559308D+02 -.332105237382603D+02 -.202764014496581D+03
 0.000000000000000D+00 0.000000000000000D+00 0.000000000000000D+00 -.000000000000000D+00
 0.757020626147275D+02 0.743546542417307D+01 -.211695768749700D+02 -.723005197283173D+02
 0.382432508766639D+03 0.000000000000000D+00 0.000000000000000D+00 0.382432508766639D+03
 0.598238323096331D+03 0.000000000000000D+00 0.000000000000000D+00 -.598238323096331D+03
 0.308559654754451D+03 0.453030874960562D+02 -.432572862897142D+02 0.275064534224899D+03
 0.278619885684631D+03 -.122935693014295D+03 -.114399996342842D+03 -.202764014496581D+03
 0.307575961826074D+03 0.800805261599143D+02 0.204004735544752D+03 -.215805814329692D+03
 0.859153295978135D+02 -.244792064167556D+01 -.463474529121958D+02 -.723005197283173D+02
0.168759024603D-02 0.000000000000D+00 0.000000000000D+00 0.690269721380D-05 0.000000000000D+00  6 1 -1 25 23 21 21 2 0.78299142D-01 0.30608290D-01 0.24876530D+05 0.24876530D+05 0.24876530D+05 0.12235282D+01  1  2  2  2  6  2       -1 0.111496770331D+00 0.100000000000D+01
0.156556777797D-03 0.890565839744D-04 -.648079089746D-05 0.690269721380D-05 0.000000000000D+00  6 1 -1 25 23 21 21 4 0.78299142D-01 0.30608290D-01 0.24876530D+05 0.24876530D+05 0.24876530D+05 0.12235282D+01  1  2  3  2  6  2       -1 0.154844273728D-01 0.100000000000D+01
0.334808725302D-04 0.000000000000D+00 0.000000000000D+00 0.690269721380D-05 0.000000000000D+00  6 1 -1 25 23 21 21 4 0.78299142D-01 0.30608290D-01 0.24876530D+05 0.24876530D+05 0.24876530D+05 0.12235282D+01  1  2 15  2  6  2       -1 0.331146403475D-02 0.100000000000D+01
-.321166741223D-03 0.000000000000D+00 -.753907524581D-03 0.690269721380D-05 0.000000000000D+00  6 1 -1 25 23 21 21 4 0.78299142D-01 0.66857697D-01 0.24876530D+05 0.24876530D+05 0.24876530D+05 0.12235282D+01  1  2  5  2  6  2       -1 -.774628299469D-02 0.100000000000D+01
0.202179111686D-04 0.000000000000D+00 -.638132223077D-04 0.690269721380D-05 0.000000000000D+00  6 1 21 25 23 1 21 4 0.78299142D-01 0.66857697D-01 0.24876530D+05 0.24876530D+05 0.24876530D+05 0.12235282D+01  3  4  5  5  5  2       -1 0.461818149696D-02 0.100000000000D+01
  </mgrwgt>
  </event>
  <event>
  6     66 -.42989208E-03 0.14357691E+02 0.75467711E-02 0.11823232E+00
        1 -1    0    0  502    0 0.00000000E+00 0.00000000E+00 0.51255736E+03 0.51255746E+03 0.32000000E+00 0.0000E+00 0.9000E+01
       -1 -1    0    0    0  501 0.00000000E+00 0.00000000E+00 -.76349723E+02 0.76350394E+02 0.32000000E+00 0.0000E+00 0.9000E+01
       25  1    1    2    0    0 -.51515493E+02 -.10078850E+03 0.33130530E+03 0.37175310E+03 0.12500000E+03 0.0000E+00 0.9000E+01
       23  1    1    2    0    0 0.31069194E+02 0.10327727E+03 0.11890244E+03 0.18461996E+03 0.91188000E+02 0.0000E+00 0.9000E+01
       21  1    1    2  502  503 0.15893567E+02 -.10641461E+02 -.12944285E+02 0.23107643E+02 0.75000000E+00 0.0000E+00 0.9000E+01
       21  1    1    2  503  501 0.45527316E+01 0.81526957E+01 -.10558196E+01 0.94271452E+01 0.75000000E+00 0.0000E+00 0.9000E+01
#aMCatNLO 2  0  0  5  1 0.88060714D+01 0.00000000D+00  -5  6  0 0.00000000D+00 0.00000000D+00 0.00000000D+00 0.00000000D+00 0.00000000D+00
  <mgrwgt>
 -.9573394688D-01    2    2    0
 0.197822747932245D+03 0.000000000000000D+00 0.000000000000000D+00 0.197822747932245D+03
 0.197822747932245D+03 -.000000000000000D+00 -.000000000000000D+00 -.197822747932245D+03
 0.188901421404998D+03 -.520877597572486D+02 -.100718843697759D+03 0.848606317233511D+02
 0.143435346981953D+03 0.306332938319724D+02 0.103330324746117D+03 -.253553291577760D+02
 0.633087274775398D+02 0.214544659252762D+02 -.261148104835801D+01 -.595053025655751D+02
 0.000000000000000D+00 0.000000000000000D+00 0.000000000000000D+00 -.000000000000000D+00
 0.197822747932245D+03 0.000000000000000D+00 0.000000000000000D+00 0.197822747932245D+03
 0.197822747932245D+03 -.000000000000000D+00 -.000000000000000D+00 -.197822747932245D+03
 0.188067071187899D+03 -.515110402096828D+02 -.100789043169232D+03 0.832610640019774D+02
 0.143711623062337D+03 0.310725965161563D+02 0.103276851933593D+03 -.265737626173308D+02
 0.483834146253022D+02 0.157850472663470D+02 -.107581064171349D+02 -.444527866384178D+02
 0.154833869889524D+02 0.465339642717947D+01 0.827029765277434D+01 -.122345147462288D+02
-.195932859330D-03 0.000000000000D+00 0.000000000000D+00 0.268877680058D-04 0.000000000000D+00  6 1 -1 25 23 21 21 4 0.78855038D-01 0.11746171D-01 0.28638390D+05 0.28638390D+05 0.28638390D+05 0.12170213D+01  1  2 13  3  6  5       21 -.878760715869D-01 0.100000000000D+01
-.174205567009D-04 0.000000000000D+00 0.000000000000D+00 0.269714612944D-04 0.000000000000D+00  6 1 -1 25 23 21 21 4 0.78855038D-01 0.11746171D-01 0.27482458D+05 0.27482458D+05 0.27482458D+05 0.12189139D+01  1  2  8  3  6  5       21 -.785787529238D-02 0.100000000000D+01
  </mgrwgt>
  </event>
  <event>
  5     66 0.42989208E-03 0.39540049E+02 0.75467711E-02 0.11747383E+00
        1 -1    0    0  502    0 0.00000000E+00 0.00000000E+00 0.11987870E+04 0.11987870E+04 0.32000000E+00 0.0000E+00 0.9000E+01
       -1 -1    0    0    0  501 0.00000000E+00 0.00000000E+00 -.19659933E+02 0.19662537E+02 0.32000000E+00 0.0000E+00 0.9000E+01
       25  1    1    2    0    0 -.40114278E+02 -.29180863E+02 0.76468954E+03 0.77642499E+03 0.12500000E+03 0.0000E+00 0.9000E+01
       23  1    1    2    0    0 0.41336148E+02 -.10337971E+02 0.36550527E+03 0.37911068E+03 0.91188000E+02 0.0000E+00 0.9000E+01
       21  1    1    2  502  501 -.12218694E+01 0.39518834E+02 0.48932234E+02 0.62913888E+02 0.75000000E+00 0.0000E+00 0.9000E+01
#aMCatNLO 1  0  0  2  1 0.16973385D+03 0.00000000D+00  -5  6  0 0.00000000D+00 0.00000000D+00 0.00000000D+00 0.00000000D+00 0.00000000D+00
  <mgrwgt>
 0.9639103605D-01    4    2    0
 0.153524213719760D+03 0.000000000000000D+00 0.000000000000000D+00 0.153524213719760D+03
 0.153524213719760D+03 0.000000000000000D+00 0.000000000000000D+00 -.153524213719760D+03
 0.144501110950392D+03 -.401142358137283D+02 -.291822353654746D+02 0.528660220751678D+02
 0.100798761323832D+03 0.413361772305864D+02 -.103389278975401D+02 -.543745917775906D+01
 0.617485551652956D+02 -.122194141685811D+01 0.395211632630147D+02 -.474285628974087D+02
 0.000000000000000D+00 0.000000000000000D+00 -.000000000000000D+00 0.000000000000000D+00
 0.237135126152657D+03 0.000000000000000D+00 0.000000000000000D+00 0.237135126152657D+03
 0.168264574913663D+03 0.000000000000000D+00 0.000000000000000D+00 -.168264574913663D+03
 0.144497925921781D+03 -.495493433956595D+02 -.216722742309241D+01 0.528660220751678D+02
 0.981169545644551D+02 0.348420684631134D+02 0.825528508927874D+01 -.543745917775906D+01
 0.705137440810611D+02 -.553998010629124D+01 0.518847583230164D+02 -.474285628974087D+02
 0.922710764990231D+02 0.202472550388374D+02 -.579728159892028D+02 0.688705512389939D+02
0.151997224927D-03 0.000000000000D+00 0.000000000000D+00 0.121308802651D-04 0.000000000000D+00  6 1 -1 25 23 21 21 2 0.18442897D+00 0.30248087D-02 0.18861635D+05 0.18861635D+05 0.18861635D+05 0.12366378D+01  1  2  2  2  6  2       -1 0.976598365202D-01 0.100000000000D+01
0.495810972080D-05 0.802111392706D-05 -.583709365508D-06 0.121308802651D-04 0.000000000000D+00  6 1 -1 25 23 21 21 4 0.18442897D+00 0.30248087D-02 0.18861635D+05 0.18861635D+05 0.18861635D+05 0.12366378D+01  1  2  3  2  6  2       -1 0.487171097659D-02 0.100000000000D+01
0.475703021141D-05 0.000000000000D+00 0.000000000000D+00 0.121308802651D-04 0.000000000000D+00  6 1 -1 25 23 21 21 4 0.18442897D+00 0.30248087D-02 0.18861635D+05 0.18861635D+05 0.18861635D+05 0.12366378D+01  1  2 15  2  6  2       -1 0.467413542700D-02 0.100000000000D+01
-.110064423084D-04 0.000000000000D+00 0.000000000000D+00 0.121308802651D-04 0.000000000000D+00  6 1 -1 25 23 21 21 4 0.18442897D+00 0.30248087D-02 0.18861635D+05 0.18861635D+05 0.18861635D+05 0.12366378D+01  1  2  4  2  6  2       -1 -.108146468769D-01 0.100000000000D+01
  </mgrwgt>
  </event>
  <event>
  5     66 -.42989208E-03 0.73498834E+02 0.75467711E-02 0.11291028E+00
        1 -1    0    0  502    0 0.00000000E+00 0.00000000E+00 0.63421298E+03 0.63421306E+03 0.32000000E+00 0.0000E+00 0.9000E+01
       -1 -1    0    0    0  501 0.00000000E+00 0.00000000E+00 -.64756672E+02 0.64757463E+02 0.32000000E+00 0.0000E+00 0.9000E+01
       25  1    1    2    0    0 -.12774617E+03 0.12998747E+01 0.32826108E+03 0.37376612E+03 0.12500000E+03 0.0000E+00 0.9000E+01
       23  1    1    2    0    0 0.54379286E+02 0.30808060E+01 0.22661301E+03 0.25027047E+03 0.91188000E+02 0.0000E+00 0.9000E+01
       21  1    1    2  502  501 0.73366887E+02 -.43806808E+01 0.14582207E+02 0.74933929E+02 0.75000000E+00 0.0000E+00 0.9000E+01
#aMCatNLO 1  0  0  2  5 0.65813295D+01 0.00000000D+00  -5  6  0 0.00000000D+00 0.00000000D+00 0.00000000D+00 0.00000000D+00 0.00000000D+00
  <mgrwgt>
 -.1993227116D-01    5    4    0
 0.202656917545037D+03 0.000000000000000D+00 0.000000000000000D+00 0.202656917545037D+03
 0.202656917545037D+03 0.000000000000000D+00 0.000000000000000D+00 -.202656917545037D+03
 0.183367680531611D+03 -.127746963226302D+03 0.129992184837735D+01 0.409601007468104D+02
 0.113209681872381D+03 0.543787987877527D+02 0.308083515277999D+01 0.391744230692450D+02
 0.108736472686083D+03 0.733681644385496D+02 -.438075700115734D+01 -.801345238160554D+02
 0.000000000000000D+00 -.000000000000000D+00 0.000000000000000D+00 -.000000000000000D+00
 0.213058764353989D+03 0.000000000000000D+00 0.000000000000000D+00 0.213058764353989D+03
 0.471009377489317D+03 0.000000000000000D+00 0.000000000000000D+00 -.471009377489317D+03
 0.172449957598560D+03 -.107902927774638D+03 -.281640941664641D+02 0.409601007468104D+02
 0.121100316310474D+03 0.674463238690105D+02 -.163215575312259D+02 0.391744230692450D+02
 0.119924622947853D+03 0.861206488629337D+02 -.233153837923810D+02 -.801345238160554D+02
 0.270593244986419D+03 -.456640449573058D+02 0.678010354900711D+02 -.257950613135328D+03
 0.202656917545037D+03 0.000000000000000D+00 0.000000000000000D+00 0.202656917545037D+03
 0.202656917545037D+03 0.000000000000000D+00 0.000000000000000D+00 -.202656917545037D+03
 0.183367680531611D+03 -.127746963226302D+03 0.129992184837735D+01 0.409601007468104D+02
 0.113209681872381D+03 0.543787987877527D+02 0.308083515277999D+01 0.391744230692450D+02
 0.000000000000000D+00 -.000000000000000D+00 0.000000000000000D+00 -.000000000000000D+00
 0.108736472686083D+03 0.733681644385496D+02 -.438075700115734D+01 -.801345238160554D+02
 0.213058764353989D+03 0.000000000000000D+00 0.000000000000000D+00 0.213058764353989D+03
 0.471009377489317D+03 0.000000000000000D+00 0.000000000000000D+00 -.471009377489317D+03
 0.172449957598560D+03 -.107902927774638D+03 -.281640941664641D+02 0.409601007468104D+02
 0.121100316310474D+03 0.674463238690105D+02 -.163215575312259D+02 0.391744230692450D+02
 0.270593244986419D+03 -.456640449573058D+02 0.678010354900711D+02 -.257950613135328D+03
 0.119924622947853D+03 0.861206488629337D+02 -.233153837923810D+02 -.801345238160554D+02
0.341272113524D-04 0.000000000000D+00 0.000000000000D+00 0.327912146620D-05 0.000000000000D+00  6 1 -1 25 23 21 21 2 0.97571294D-01 0.99626320D-02 0.32121423D+05 0.32121423D+05 0.32121423D+05 0.12117963D+01  1  2  2  2  6  2       -1 0.990765343176D-02 0.100000000000D+01
-.808610952867D-06 0.180094242116D-05 -.131057477494D-06 0.327912146620D-05 0.000000000000D+00  6 1 -1 25 23 21 21 4 0.97571294D-01 0.99626320D-02 0.32121423D+05 0.32121423D+05 0.32121423D+05 0.12117963D+01  1  2  3  2  6  2       -1 -.344721915504D-03 0.100000000000D+01
0.160621903900D-05 0.000000000000D+00 0.000000000000D+00 0.327912146620D-05 0.000000000000D+00  6 1 -1 25 23 21 21 4 0.97571294D-01 0.99626320D-02 0.32121423D+05 0.32121423D+05 0.32121423D+05 0.12117963D+01  1  2 15  2  6  2       -1 0.684753158338D-03 0.100000000000D+01
-.137477626222D-03 0.000000000000D+00 -.154279426898D-04 0.327912146620D-05 0.000000000000D+00  6 1 -1 25 23 21 21 4 0.97571294D-01 0.24059859D-01 0.32121423D+05 0.32121423D+05 0.32121423D+05 0.12117963D+01  1  2  5  2  6  2       -1 -.144881951299D-01 0.100000000000D+01
-.123059295899D-04 0.000000000000D+00 -.148957379073D-05 0.327912146620D-05 0.000000000000D+00  6 1 21 25 23 1 21 4 0.97571294D-01 0.24059859D-01 0.32121423D+05 0.32121423D+05 0.32121423D+05 0.12117963D+01  3  4  5  5  5  2       -1 -.156917607026D-01 0.100000000000D+01
  </mgrwgt>
  </event>
  <event>
  5     66 0.42989208E-03 0.52566128E+02 0.75467711E-02 0.12168967E+00
        1 -1    0    0  502    0 0.00000000E+00 0.00000000E+00 0.28473664E+03 0.28473682E+03 0.32000000E+00 0.0000E+00 0.9000E+01
       -1 -1    0    0    0  501 0.00000000E+00 0.00000000E+00 -.13258200E+03 0.13258239E+03 0.32000000E+00 0.0000E+00 0.9000E+01
       25  1    1    2    0    0 0.22162118E+02 -.10753554E+02 0.18822653E+03 0.22729062E+03 0.12500000E+03 0.0000E+00 0.9000E+01
       23  1    1    2    0    0 0.11750247E+02 -.29409577E+02 0.34074927E+02 0.10236866E+03 0.91188000E+02 0.0000E+00 0.9000E+01
       21  1    1    2  502  501 -.33912365E+02 0.40163131E+02 -.70146813E+02 0.87659931E+02 0.75000000E+00 0.0000E+00 0.9000E+01
#aMCatNLO 1  0  0  5  1 0.17165735D+02 0.00000000D+00  -5  6  0 0.00000000D+00 0.00000000D+00 0.00000000D+00 0.00000000D+00 0.00000000D+00
  <mgrwgt>
 0.7947972111D-01   15    2    0
 0.194296352234425D+03 0.000000000000000D+00 0.000000000000000D+00 0.194296352234425D+03
 0.194296352234425D+03 -.000000000000000D+00 -.000000000000000D+00 -.194296352234425D+03
 0.170392955937498D+03 0.221624003446524D+02 -.107538885222241D+02 0.113145664193257D+03
 0.965941321978546D+02 0.117504077393832D+02 -.294097673079590D+02 -.348834285966097D+01
 0.121605616333496D+03 -.339128080840356D+02 0.401636558301831D+02 -.109657321333596D+03
 0.000000000000000D+00 0.000000000000000D+00 0.000000000000000D+00 -.000000000000000D+00
 0.194296352234425D+03 0.000000000000000D+00 0.000000000000000D+00 0.194296352234425D+03
 0.194296352234425D+03 -.000000000000000D+00 -.000000000000000D+00 -.194296352234425D+03
 0.168990599406378D+03 0.215628345066633D+02 -.100438100201768D+02 0.111206963523171D+03
 0.964771509138400D+02 0.114093218387030D+02 -.290058120622153D+02 -.459124669825074D+01
 0.590356286146588D+02 -.263923054079405D+02 0.299044773982167D+02 -.435244057135931D+02
 0.640893255339722D+02 -.657985093742585D+01 0.914514468417544D+01 -.630913111113267D+02
0.576409498829D-04 0.000000000000D+00 0.000000000000D+00 0.842398353840D-05 0.000000000000D+00  6 1 -1 25 23 21 21 2 0.43805681D-01 0.20397275D-01 0.19113257D+05 0.19113257D+05 0.19113257D+05 0.12360002D+01  1  2  2  3  6  5       21 0.157866201366D-01 0.100000000000D+01
-.154287185516D-06 0.304179649396D-05 -.221356424761D-06 0.842398353840D-05 0.000000000000D+00  6 1 -1 25 23 21 21 4 0.43805681D-01 0.20397275D-01 0.19113257D+05 0.19113257D+05 0.19113257D+05 0.12360002D+01  1  2  3  3  6  5       21 -.645542729123D-04 0.100000000000D+01
0.194080608491D-05 0.000000000000D+00 0.000000000000D+00 0.842398353840D-05 0.000000000000D+00  6 1 -1 25 23 21 21 4 0.43805681D-01 0.20397275D-01 0.19113257D+05 0.19113257D+05 0.19113257D+05 0.12360002D+01  1  2 15  3  6  5       21 0.812039737820D-03 0.100000000000D+01
0.699915045432D-04 0.000000000000D+00 0.000000000000D+00 0.843225991466D-05 0.000000000000D+00  6 1 -1 25 23 21 21 4 0.43805681D-01 0.20397275D-01 0.18873610D+05 0.18873610D+05 0.18873610D+05 0.12366073D+01  1  2 12  3  6  5       21 0.293366314785D-01 0.100000000000D+01
-.299258543918D-04 0.000000000000D+00 0.000000000000D+00 0.842398353840D-05 0.000000000000D+00  6 1 -1 25 23 21 21 4 0.43805681D-01 0.20397275D-01 0.19113257D+05 0.19113257D+05 0.19113257D+05 0.12360002D+01  1  2  4  3  6  5       21 -.125210772695D-01 0.100000000000D+01
-.140404222835D-03 0.000000000000D+00 0.000000000000D+00 0.842398353840D-05 0.000000000000D+00  6 1 -1 25 23 21 21 4 0.43805681D-01 0.20397275D-01 0.19113257D+05 0.19113257D+05 0.19113257D+05 0.12360002D+01  1  2  5  3  6  5       21 -.587455950318D-01 0.100000000000D+01
0.246774320688D-03 0.000000000000D+00 -.000000000000D+00 0.842398353840D-05 0.000000000000D+00  6 1 -1 25 23 21 21 4 0.43805681D-01 0.20397275D-01 0.19113257D+05 0.19113257D+05 0.19113257D+05 0.12360002D+01  1  2  6  3  6  5       21 0.103251198680D+00 0.100000000000D+01
0.282546071265D-05 0.000000000000D+00 0.000000000000D+00 0.843225991466D-05 0.000000000000D+00  6 1 -1 25 23 1 -1 4 0.43805681D-01 0.20397275D-01 0.18873610D+05 0.18873610D+05 0.18873610D+05 0.12366073D+01  1  2 12  6  6  5       21 0.118427943827D-02 0.100000000000D+01
-.185984422572D-05 0.000000000000D+00 0.000000000000D+00 0.842398353840D-05 0.000000000000D+00  6 1 -1 25 23 1 -1 4 0.43805681D-01 0.20397275D-01 0.19113257D+05 0.19113257D+05 0.19113257D+05 0.12360002D+01  1  2  5  6  6  5       21 -.778165025957D-03 0.100000000000D+01
0.282546071265D-05 0.000000000000D+00 0.000000000000D+00 0.843225991466D-05 0.000000000000D+00  6 1 -1 25 23 2 -2 4 0.43805681D-01 0.20397275D-01 0.18873610D+05 0.18873610D+05 0.18873610D+05 0.12366073D+01  1  2 12  7  6  5       21 0.118427943827D-02 0.100000000000D+01
0.282546071265D-05 0.000000000000D+00 0.000000000000D+00 0.843225991466D-05 0.000000000000D+00  6 1 -1 25 23 4 -4 4 0.43805681D-01 0.20397275D-01 0.18873610D+05 0.18873610D+05 0.18873610D+05 0.12366073D+01  1  2 12  7  6  5       21 0.118427943827D-02 0.100000000000D+01
-.185984422572D-05 0.000000000000D+00 0.000000000000D+00 0.842398353840D-05 0.000000000000D+00  6 1 -1 25 23 2 -2 4 0.43805681D-01 0.20397275D-01 0.19113257D+05 0.19113257D+05 0.19113257D+05 0.12360002D+01  1  2  5  7  6  5       21 -.778165025957D-03 0.100000000000D+01
-.185984422572D-05 0.000000000000D+00 0.000000000000D+00 0.842398353840D-05 0.000000000000D+00  6 1 -1 25 23 4 -4 4 0.43805681D-01 0.20397275D-01 0.19113257D+05 0.19113257D+05 0.19113257D+05 0.12360002D+01  1  2  5  7  6  5       21 -.778165025957D-03 0.100000000000D+01
0.282546071265D-05 0.000000000000D+00 0.000000000000D+00 0.843225991466D-05 0.000000000000D+00  6 1 -1 25 23 3 -3 4 0.43805681D-01 0.20397275D-01 0.18873610D+05 0.18873610D+05 0.18873610D+05 0.12366073D+01  1  2 12  8  6  5       21 0.118427943827D-02 0.100000000000D+01
-.185984422572D-05 0.000000000000D+00 0.000000000000D+00 0.842398353840D-05 0.000000000000D+00  6 1 -1 25 23 3 -3 4 0.43805681D-01 0.20397275D-01 0.19113257D+05 0.19113257D+05 0.19113257D+05 0.12360002D+01  1  2  5  8  6  5       21 -.778165025957D-03 0.100000000000D+01
  </mgrwgt>
  </event>
  <event>
  5     66 -.42989208E-03 0.35572694E+02 0.75467711E-02 0.11733322E+00
        1 -1    0    0  502    0 0.00000000E+00 0.00000000E+00 0.65902010E+03 0.65902018E+03 0.32000000E+00 0.0000E+00 0.9000E+01
       -1 -1    0    0    0  501 0.00000000E+00 0.00000000E+00 -.43010647E+02 0.43011837E+02 0.32000000E+00 0.0000E+00 0.9000E+01
       25  1    1    2    0    0 -.39249519E+02 -.32569183E+02 0.47667885E+03 0.49542810E+03 0.12500000E+03 0.0000E+00 0.9000E+01
       23  1    1    2    0    0 0.33648971E+02 -.25585402E+01 0.14066560E+03 0.17099960E+03 0.91188000E+02 0.0000E+00 0.9000E+01
       21  1    1    2  502  501 0.56005478E+01 0.35127723E+02 -.13349932E+01 0.35604323E+02 0.75000000E+00 0.0000E+00 0.9000E+01
#aMCatNLO 1  0  0  2  5 0.16997387D+02 0.00000000D+00  -5  6  0 0.00000000D+00 0.00000000D+00 0.00000000D+00 0.00000000D+00 0.00000000D+00
  <mgrwgt>
 -.6321184440D-01    5    4    0
 0.168360701742250D+03 0.000000000000000D+00 0.000000000000000D+00 0.168360701742250D+03
 0.168360701742250D+03 0.000000000000000D+00 0.000000000000000D+00 -.168360701742250D+03
 0.160869069689974D+03 -.392496469242191D+02 -.325699860191713D+02 0.874786763157338D+02
 0.991792703585788D+02 0.336488921995139D+02 -.255903524251175D+01 -.195570886696652D+02
 0.766730634359464D+02 0.560075472470514D+01 0.351290212616830D+02 -.679215876460686D+02
 0.000000000000000D+00 -.000000000000000D+00 -.000000000000000D+00 -.000000000000000D+00
 0.175794915650902D+03 0.000000000000000D+00 0.000000000000000D+00 0.175794915650902D+03
 0.496184024287144D+03 0.000000000000000D+00 0.000000000000000D+00 -.496184024287144D+03
 0.154620485546110D+03 -.787654052397255D+01 -.238314046991792D+02 0.874786763157338D+02
 0.107936812414753D+03 0.542450570937449D+02 0.317776555470832D+01 -.195570886696652D+02
 0.814176325590779D+02 0.213217069528366D+02 0.395078933351274D+02 -.679215876460686D+02
 0.328004009418106D+03 -.676902235226090D+02 -.188542541906565D+02 -.320389108636242D+03
 0.168360701742250D+03 0.000000000000000D+00 0.000000000000000D+00 0.168360701742250D+03
 0.168360701742250D+03 0.000000000000000D+00 0.000000000000000D+00 -.168360701742250D+03
 0.160869069689974D+03 -.392496469242191D+02 -.325699860191713D+02 0.874786763157338D+02
 0.991792703585788D+02 0.336488921995139D+02 -.255903524251175D+01 -.195570886696652D+02
 0.000000000000000D+00 -.000000000000000D+00 -.000000000000000D+00 -.000000000000000D+00
 0.766730634359464D+02 0.560075472470514D+01 0.351290212616830D+02 -.679215876460686D+02
 0.175794915650902D+03 0.000000000000000D+00 0.000000000000000D+00 0.175794915650902D+03
 0.496184024287144D+03 0.000000000000000D+00 0.000000000000000D+00 -.496184024287144D+03
 0.154620485546110D+03 -.787654052397255D+01 -.238314046991792D+02 0.874786763157338D+02
 0.107936812414753D+03 0.542450570937449D+02 0.317776555470832D+01 -.195570886696652D+02
 0.328004009418106D+03 -.676902235226090D+02 -.188542541906565D+02 -.320389108636242D+03
 0.814176325590779D+02 0.213217069528366D+02 0.395078933351274D+02 -.679215876460686D+02
0.345836593374D-04 0.000000000000D+00 0.000000000000D+00 0.138285597840D-04 0.000000000000D+00  6 1 -1 25 23 21 21 2 0.10138781D+00 0.66171201D-02 0.17930493D+05 0.17930493D+05 0.17930493D+05 0.12390830D+01  1  2  2  2  6  2       -1 0.183373329287D-01 0.100000000000D+01
0.149715502688D-05 0.182502984310D-05 -.132810357942D-06 0.138285597840D-04 0.000000000000D+00  6 1 -1 25 23 21 21 4 0.10138781D+00 0.66171201D-02 0.17930493D+05 0.17930493D+05 0.17930493D+05 0.12390830D+01  1  2  3  2  6  2       -1 0.121880091203D-02 0.100000000000D+01
0.196344679062D-05 0.000000000000D+00 0.000000000000D+00 0.138285597840D-04 0.000000000000D+00  6 1 -1 25 23 21 21 4 0.10138781D+00 0.66171201D-02 0.17930493D+05 0.17930493D+05 0.17930493D+05 0.12390830D+01  1  2 15  2  6  2       -1 0.159839876042D-02 0.100000000000D+01
-.223691408633D-03 0.000000000000D+00 -.163166271625D-04 0.138285597840D-04 0.000000000000D+00  6 1 -1 25 23 21 21 4 0.10138781D+00 0.20138873D-01 0.17930493D+05 0.17930493D+05 0.17930493D+05 0.12390830D+01  1  2  5  2  6  2       -1 -.327117575933D-01 0.100000000000D+01
-.276116366894D-04 0.000000000000D+00 -.207190896605D-05 0.138285597840D-04 0.000000000000D+00  6 1 21 25 23 1 21 4 0.10138781D+00 0.20138873D-01 0.17930493D+05 0.17930493D+05 0.17930493D+05 0.12390830D+01  3  4  5  5  5  2       -1 -.516546194035D-01 0.100000000000D+01
  </mgrwgt>
  </event>
  <event>
  6     66 -.42989208E-03 0.36531783E+02 0.75467711E-02 0.12020762E+00
        1 -1    0    0  502    0 0.00000000E+00 0.00000000E+00 0.82207672E+03 0.82207678E+03 0.32000000E+00 0.0000E+00 0.9000E+01
       -1 -1    0    0    0  501 0.00000000E+00 0.00000000E+00 -.40795648E+02 0.40796903E+02 0.32000000E+00 0.0000E+00 0.9000E+01
       25  1    1    2    0    0 0.39636162E+02 0.62124237E+02 0.24916432E+03 0.28833714E+03 0.12500000E+03 0.0000E+00 0.9000E+01
       23  1    1    2    0    0 -.56244060E+02 -.29407069E+02 0.46446714E+03 0.47757004E+03 0.91188000E+02 0.0000E+00 0.9000E+01
       21  1    1    2  503  501 -.28399791E+01 -.60670613E+00 -.10147864E+02 0.10581834E+02 0.75000000E+00 0.0000E+00 0.9000E+01
       21  1    1    2  502  503 0.19447877E+02 -.32110462E+02 0.77797475E+02 0.86384671E+02 0.75000000E+00 0.0000E+00 0.9000E+01
#aMCatNLO 2  0  0  5  1 0.29270860D+02 0.00000000D+00  -5  6  0 0.00000000D+00 0.00000000D+00 0.00000000D+00 0.00000000D+00 0.00000000D+00
  <mgrwgt>
 -.1153708779D-01    2    2    0
 0.183133067644910D+03 0.000000000000000D+00 0.000000000000000D+00 0.183133067644910D+03
 0.183133067644910D+03 -.000000000000000D+00 -.000000000000000D+00 -.183133067644910D+03
 0.148184181922255D+03 0.368436544381084D+02 0.676254108302202D+02 -.200723867454065D+02
 0.138695456098298D+03 -.588201007376854D+02 -.243323301627714D+02 0.828813106579114D+02
 0.793864972692664D+02 0.219764462995770D+02 -.432930806674488D+02 -.628089239125049D+02
 0.000000000000000D+00 0.000000000000000D+00 0.000000000000000D+00 0.000000000000000D+00
 0.183133067644910D+03 0.000000000000000D+00 0.000000000000000D+00 0.183133067644910D+03
 0.183133067644910D+03 -.000000000000000D+00 -.000000000000000D+00 -.183133067644910D+03
 0.147791750981833D+03 0.396436888043073D+02 0.621094091966980D+02 -.280749155920459D+02
 0.134326486835463D+03 -.562372190302438D+02 -.294205461823423D+02 0.754994064853144D+02
 0.460292312024004D+02 -.311323819441235D+01 -.940211646247171D-01 -.459237306090161D+02
 0.381186662701231D+02 0.197067684203488D+02 -.325948418497310D+02 -.150076028425230D+01
-.231760538766D-04 0.000000000000D+00 0.000000000000D+00 0.637891860701D-05 0.000000000000D+00  6 1 -1 25 23 21 21 4 0.12647344D+00 0.62763548D-02 0.22112505D+05 0.22112505D+05 0.22112505D+05 0.12290539D+01  1  2 13  3  6  5       21 -.143605419206D-01 0.100000000000D+01
0.455668911841D-05 0.000000000000D+00 0.000000000000D+00 0.634926999668D-05 0.393052789918D-05  6 1 -1 25 23 21 21 4 0.12647344D+00 0.62763548D-02 0.22112505D+05 0.22112505D+05 0.22112505D+05 0.12290539D+01  1  2  1  3  6  5       21 0.282345413297D-02 0.100000000000D+01
  </mgrwgt>
  </event>
  <event>
  5     66 0.42989208E-03 0.10959698E+03 0.75467711E-02 0.11090390E+00
        1 -1    0    0  502    0 0.00000000E+00 0.00000000E+00 0.30560425E+03 0.30560442E+03 0.32000000E+00 0.0000E+00 0.9000E+01
       -1 -1    0    0    0  501 0.00000000E+00 0.00000000E+00 -.14438583E+03 0.14438618E+03 0.32000000E+00 0.0000E+00 0.9000E+01
       25  1    1    2    0    0 0.17638515E+02 0.86454896E+02 -.32041998E+02 0.15632420E+03 0.12500000E+03 0.0000E+00 0.9000E+01
       23  1    1    2    0    0 0.58959160E+02 -.80711834E+01 0.73763184E+02 0.13152028E+03 0.91188000E+02 0.0000E+00 0.9000E+01
       21  1    1    2  502  501 -.76597675E+02 -.78383713E+02 0.11949724E+03 0.16214611E+03 0.75000000E+00 0.0000E+00 0.9000E+01
#aMCatNLO 1  0  0  1  2 0.12517075D+03 0.00000000D+00  -5  6  0 0.00000000D+00 0.00000000D+00 0.00000000D+00 0.00000000D+00 0.00000000D+00
  <mgrwgt>
 0.1711262550D-01    4    2    0
 0.210059610712169D+03 0.000000000000000D+00 0.000000000000000D+00 0.210059610712169D+03
 0.210059610712169D+03 0.000000000000000D+00 0.000000000000000D+00 -.210059610712169D+03
 0.179735713923078D+03 0.176390789666364D+02 0.864554735230056D+02 -.943092829500906D+02
 0.112565528397580D+03 0.589595136631443D+02 -.807082180426609D+01 0.285374214573715D+02
 0.127817979103679D+03 -.765985926297808D+02 -.783846517187395D+02 0.657718614927191D+02
 0.000000000000000D+00 -.000000000000000D+00 -.000000000000000D+00 -.000000000000000D+00
 0.260965742998644D+03 0.000000000000000D+00 0.000000000000000D+00 0.260965742998644D+03
 0.312933930408019D+03 0.000000000000000D+00 0.000000000000000D+00 -.312933930408019D+03
 0.211480878963650D+03 0.511283366260737D+02 0.132630367980069D+03 -.943092829500906D+02
 0.125822366212560D+03 0.793661982737873D+02 0.200658576556767D+02 0.285374214573715D+02
 0.101066321979226D+03 -.570054427671802D+02 -.513696716858197D+02 0.657718614927191D+02
 0.135530106251227D+03 -.734890921326808D+02 -.101326553949926D+03 -.519681874093746D+02
0.160283760482D-03 0.000000000000D+00 0.000000000000D+00 0.142496561505D-05 0.000000000000D+00  6 1 -1 25 23 21 21 2 0.47016079D-01 0.22213244D-01 0.34501311D+05 0.34501311D+05 0.34501311D+05 0.12085774D+01  1  2  2  1  6  1        1 0.337270224874D-01 0.100000000000D+01
-.124012139405D-04 0.845840642225D-05 -.615531843935D-06 0.142496561505D-05 0.000000000000D+00  6 1 -1 25 23 21 21 4 0.47016079D-01 0.22213244D-01 0.34501311D+05 0.34501311D+05 0.34501311D+05 0.12085774D+01  1  2  3  1  6  1        1 -.381154984661D-02 0.100000000000D+01
0.540858796211D-05 0.000000000000D+00 0.000000000000D+00 0.142496561505D-05 0.000000000000D+00  6 1 -1 25 23 21 21 4 0.47016079D-01 0.22213244D-01 0.34501311D+05 0.34501311D+05 0.34501311D+05 0.12085774D+01  1  2 15  1  6  1        1 0.166234553458D-02 0.100000000000D+01
-.470637814596D-04 0.000000000000D+00 0.000000000000D+00 0.142496561505D-05 0.000000000000D+00  6 1 -1 25 23 21 21 4 0.47016079D-01 0.22213244D-01 0.34501311D+05 0.34501311D+05 0.34501311D+05 0.12085774D+01  1  2  4  1  6  1        1 -.144651926710D-01 0.100000000000D+01
  </mgrwgt>
  </event>
  <event>
  5     66 0.42989208E-03 0.25003611E+02 0.75467711E-02 0.11432911E+00
        1 -1    0    0  502    0 0.00000000E+00 0.00000000E+00 0.23773723E+03 0.23773744E+03 0.32000000E+00 0.0000E+00 0.9000E+01
       -1 -1    0    0    0  501 0.00000000E+00 0.00000000E+00 -.80858583E+02 0.80859216E+02 0.32000000E+00 0.0000E+00 0.9000E+01
       25  1    1    2    0    0 -.56308229E+01 0.34582634E+02 0.74765126E+02 0.14980817E+03 0.12500000E+03 0.0000E+00 0.9000E+01
       23  1    1    2    0    0 -.10701470E+02 -.53509440E+02 0.93277667E+02 0.14139928E+03 0.91188000E+02 0.0000E+00 0.9000E+01
       21  1    1    2  502  501 0.16332293E+02 0.18926806E+02 -.11164150E+02 0.27389205E+02 0.75000000E+00 0.0000E+00 0.9000E+01
#aMCatNLO 1  0  0  2  1 0.13155553D+03 0.00000000D+00  -5  6  0 0.00000000D+00 0.00000000D+00 0.00000000D+00 0.00000000D+00 0.00000000D+00
  <mgrwgt>
 0.5459237222D-01    5    4    0
 0.138647864480202D+03 0.000000000000000D+00 0.000000000000000D+00 0.138647864480202D+03
 0.138647864480202D+03 0.000000000000000D+00 0.000000000000000D+00 -.138647864480202D+03
 0.129822509170075D+03 -.563232967967201D+01 0.345808881970645D+02 0.115018307062174D+01
 0.109689571004007D+03 -.107027434168523D+02 -.535109157670574D+02 0.271768986487971D+02
 0.377836487863217D+02 0.163350730965243D+02 0.189300275699929D+02 -.283270817194188D+02
 0.000000000000000D+00 0.000000000000000D+00 0.000000000000000D+00 -.000000000000000D+00
 0.168889890451311D+03 0.000000000000000D+00 0.000000000000000D+00 0.168889890451311D+03
 0.433869500918505D+03 0.000000000000000D+00 0.000000000000000D+00 -.433869500918505D+03
 0.133094481201876D+03 -.445836726029538D+02 -.100057054990207D+02 0.115018307062174D+01
 0.143867257615392D+03 -.482673715837950D+02 -.965101729870927D+02 0.271768986487971D+02
 0.299580840161847D+02 0.629908622144688D+01 0.744209325102337D+01 -.283270817194188D+02
 0.295839568536363D+03 0.865519579653020D+02 0.990737852350901D+02 -.264979610467193D+03
 0.138647864480202D+03 0.000000000000000D+00 0.000000000000000D+00 0.138647864480202D+03
 0.138647864480202D+03 0.000000000000000D+00 0.000000000000000D+00 -.138647864480202D+03
 0.129822509170075D+03 -.563232967967201D+01 0.345808881970645D+02 0.115018307062174D+01
 0.109689571004007D+03 -.107027434168523D+02 -.535109157670574D+02 0.271768986487971D+02
 0.000000000000000D+00 0.000000000000000D+00 0.000000000000000D+00 -.000000000000000D+00
 0.377836487863217D+02 0.163350730965243D+02 0.189300275699929D+02 -.283270817194188D+02
 0.168889890451311D+03 0.000000000000000D+00 0.000000000000000D+00 0.168889890451311D+03
 0.433869500918505D+03 0.000000000000000D+00 0.000000000000000D+00 -.433869500918505D+03
 0.133094481201876D+03 -.445836726029538D+02 -.100057054990207D+02 0.115018307062174D+01
 0.143867257615392D+03 -.482673715837950D+02 -.965101729870927D+02 0.271768986487971D+02
 0.295839568536363D+03 0.865519579653020D+02 0.990737852350901D+02 -.264979610467193D+03
 0.299580840161847D+02 0.629908622144688D+01 0.744209325102337D+01 -.283270817194188D+02
0.949279842590D-04 0.000000000000D+00 0.000000000000D+00 0.294743767217D-04 0.000000000000D+00  6 1 -1 25 23 21 21 2 0.36575023D-01 0.12439847D-01 0.17042073D+05 0.17042073D+05 0.17042073D+05 0.12415524D+01  1  2  2  2  6  2       -1 0.712479182578D-01 0.100000000000D+01
0.117225031764D-04 0.500948735724D-05 -.364548454667D-06 0.294743767217D-04 0.000000000000D+00  6 1 -1 25 23 21 21 4 0.36575023D-01 0.12439847D-01 0.17042073D+05 0.17042073D+05 0.17042073D+05 0.12415524D+01  1  2  3  2  6  2       -1 0.135621453958D-01 0.100000000000D+01
0.252661625861D-05 0.000000000000D+00 0.000000000000D+00 0.294743767217D-04 0.000000000000D+00  6 1 -1 25 23 21 21 4 0.36575023D-01 0.12439847D-01 0.17042073D+05 0.17042073D+05 0.17042073D+05 0.12415524D+01  1  2 15  2  6  2       -1 0.292312457016D-02 0.100000000000D+01
-.989308639609D-04 0.000000000000D+00 -.481955750526D-04 0.294743767217D-04 0.000000000000D+00  6 1 -1 25 23 21 21 4 0.36575023D-01 0.45950388D-01 0.17042073D+05 0.17042073D+05 0.17042073D+05 0.12415524D+01  1  2  5  2  6  2       -1 -.133385306759D-01 0.100000000000D+01
-.140875464944D-04 0.000000000000D+00 -.743131619529D-05 0.294743767217D-04 0.000000000000D+00  6 1 21 25 23 1 21 4 0.36575023D-01 0.45950388D-01 0.17042073D+05 0.17042073D+05 0.17042073D+05 0.12415524D+01  3  4  5  5  5  2       -1 -.198022853321D-01 0.100000000000D+01
  </mgrwgt>
  </event>
  <event>
  5     66 -.42989208E-03 0.28046359E+02 0.75467711E-02 0.11986677E+00
        1 -1    0    0  502    0 0.00000000E+00 0.00000000E+00 0.14575028E+04 0.14575028E+04 0.32000000E+00 0.0000E+00 0.9000E+01
       -1 -1    0    0    0  501 0.00000000E+00 0.00000000E+00 -.39112513E+02 0.39113822E+02 0.32000000E+00 0.0000E+00 0.9000E+01
       25  1    1    2    0    0 0.67222045E+02 0.33586428E+02 0.15296920E+03 0.21135616E+03 0.12500000E+03 0.0000E+00 0.9000E+01
       23  1    1    2    0    0 -.67284565E+02 -.61629198E+02 0.12420978E+04 0.12487785E+04 0.91188000E+02 0.0000E+00 0.9000E+01
       21  1    1    2  502  501 0.62520545E-01 0.28042771E+02 0.23323217E+02 0.36481993E+02 0.75000000E+00 0.0000E+00 0.9000E+01
#aMCatNLO 1  0  0  5  2 0.22766425D+01 0.00000000D+00  -5  6  0 0.00000000D+00 0.00000000D+00 0.00000000D+00 0.00000000D+00 0.00000000D+00
  <mgrwgt>
 -.4300675454D-01   25    2    0
 0.238762646710854D+03 0.000000000000000D+00 0.000000000000000D+00 0.238762646710854D+03
 0.238762646710854D+03 -.000000000000000D+00 -.000000000000000D+00 -.238762646710854D+03
 0.208048183017923D+03 0.672220409344523D+02 0.335847352830630D+02 -.148365458330545D+03
 0.224415931397357D+03 -.672845693237040D+02 -.616310241736133D+02 0.183634589637079D+03
 0.450611790064266D+02 0.625283892517425D-01 0.280462888905504D+02 -.352691313065342D+02
 0.000000000000000D+00 0.000000000000000D+00 0.000000000000000D+00 -.000000000000000D+00
 0.238762646710854D+03 0.000000000000000D+00 0.000000000000000D+00 0.238762646710854D+03
 0.238762646710854D+03 -.000000000000000D+00 -.000000000000000D+00 -.238762646710854D+03
 0.208130938203843D+03 0.672222151216636D+02 0.336628646721198D+02 -.148463708608587D+03
 0.224306072118222D+03 -.672843815160258D+02 -.615467855028023D+02 0.183528656736170D+03
 0.325387604499658D+02 -.152387488238167D+01 0.214952328938317D+02 -.243803958089904D+02
 0.125495226496761D+02 0.158604127674385D+01 0.638868793685075D+01 -.106845523185923D+02
0.283611228785D-04 0.000000000000D+00 0.000000000000D+00 0.675812326088D-05 0.000000000000D+00  6 1 -1 25 23 21 21 2 0.22423130D+00 0.60174131D-02 0.22936210D+05 0.22936210D+05 0.22936210D+05 0.12273298D+01  1  2  2  3  6  5       21 0.437977432663D-02 0.100000000000D+01
0.264051398955D-05 0.149665757264D-05 -.108914179508D-06 0.675812326088D-05 0.000000000000D+00  6 1 -1 25 23 21 21 4 0.22423130D+00 0.60174131D-02 0.22936210D+05 0.22936210D+05 0.22936210D+05 0.12273298D+01  1  2  3  3  6  5       21 0.614241771045D-03 0.100000000000D+01
0.733527740847D-06 0.000000000000D+00 0.000000000000D+00 0.675812326088D-05 0.000000000000D+00  6 1 -1 25 23 21 21 4 0.22423130D+00 0.60174131D-02 0.22936210D+05 0.22936210D+05 0.22936210D+05 0.12273298D+01  1  2 15  3  6  5       21 0.170634725070D-03 0.100000000000D+01
0.674736532119D-06 0.000000000000D+00 0.000000000000D+00 0.675790708669D-05 0.000000000000D+00  6 1 -1 25 23 21 21 4 0.22423130D+00 0.60174131D-02 0.22945784D+05 0.22945784D+05 0.22945784D+05 0.12273102D+01  1  2 12  3  6  5       21 0.156948167470D-03 0.100000000000D+01
0.668974075183D-06 0.000000000000D+00 0.000000000000D+00 0.675790708669D-05 0.000000000000D+00  6 1 -1 25 23 21 21 4 0.22423130D+00 0.60174131D-02 0.22945784D+05 0.22945784D+05 0.22945784D+05 0.12273102D+01  1  2 12  3  6  5       21 0.155607781982D-03 0.100000000000D+01
-.184924717014D-02 0.000000000000D+00 0.000000000000D+00 0.675812326088D-05 0.000000000000D+00  6 1 -1 25 23 21 21 4 0.22423130D+00 0.60174131D-02 0.22936210D+05 0.22936210D+05 0.22936210D+05 0.12273298D+01  1  2  4  3  6  5       21 -.430175663293D+00 0.100000000000D+01
-.881304303292D-03 0.000000000000D+00 0.000000000000D+00 0.675812326088D-05 0.000000000000D+00  6 1 -1 25 23 21 21 4 0.22423130D+00 0.60174131D-02 0.22936210D+05 0.22936210D+05 0.22936210D+05 0.12273298D+01  1  2  5  3  6  5       21 -.205010811617D+00 0.100000000000D+01
0.143699699979D-02 0.000000000000D+00 -.000000000000D+00 0.675812326088D-05 0.000000000000D+00  6 1 -1 25 23 21 21 4 0.22423130D+00 0.60174131D-02 0.22936210D+05 0.22936210D+05 0.22936210D+05 0.12273298D+01  1  2  6  3  6  5       21 0.334277184530D+00 0.100000000000D+01
0.107770551241D-02 0.000000000000D+00 0.000000000000D+00 0.675812326088D-05 0.928889244188D-05  6 1 -1 25 23 21 21 4 0.22423130D+00 0.60174131D-02 0.22945784D+05 0.22945784D+05 0.22945784D+05 0.12273102D+01  1  2 11  3  6  5       21 0.250681409992D+00 0.100000000000D+01
0.244898222794D-07 0.000000000000D+00 0.000000000000D+00 0.675790708669D-05 0.000000000000D+00  6 1 -1 25 23 1 -1 4 0.22423130D+00 0.60174131D-02 0.22945784D+05 0.22945784D+05 0.22945784D+05 0.12273102D+01  1  2 12  6  6  5       21 0.569649418024D-05 0.100000000000D+01
0.243405518859D-07 0.000000000000D+00 0.000000000000D+00 0.675790708669D-05 0.000000000000D+00  6 1 -1 25 23 1 -1 4 0.22423130D+00 0.60174131D-02 0.22945784D+05 0.22945784D+05 0.22945784D+05 0.12273102D+01  1  2 12  6  6  5       21 0.566177290225D-05 0.100000000000D+01
-.145753862843D-04 0.000000000000D+00 0.000000000000D+00 0.675812326088D-05 0.000000000000D+00  6 1 -1 25 23 1 -1 4 0.22423130D+00 0.60174131D-02 0.22936210D+05 0.22936210D+05 0.22936210D+05 0.12273298D+01  1  2  5  6  6  5       21 -.339055620246D-02 0.100000000000D+01
0.163154626439D-04 0.000000000000D+00 0.000000000000D+00 0.675812326088D-05 0.246083165256D-06  6 1 -1 25 23 1 -1 4 0.22423130D+00 0.60174131D-02 0.22945784D+05 0.22945784D+05 0.22945784D+05 0.12273102D+01  1  2 11  6  6  5       21 0.379508421656D-02 0.100000000000D+01
0.244898222794D-07 0.000000000000D+00 0.000000000000D+00 0.675790708669D-05 0.000000000000D+00  6 1 -1 25 23 2 -2 4 0.22423130D+00 0.60174131D-02 0.22945784D+05 0.22945784D+05 0.22945784D+05 0.12273102D+01  1  2 12  7  6  5       21 0.569649418024D-05 0.100000000000D+01
0.244898222794D-07 0.000000000000D+00 0.000000000000D+00 0.675790708669D-05 0.000000000000D+00  6 1 -1 25 23 4 -4 4 0.22423130D+00 0.60174131D-02 0.22945784D+05 0.22945784D+05 0.22945784D+05 0.12273102D+01  1  2 12  7  6  5       21 0.569649418024D-05 0.100000000000D+01
0.243405518859D-07 0.000000000000D+00 0.000000000000D+00 0.675790708669D-05 0.000000000000D+00  6 1 -1 25 23 2 -2 4 0.22423130D+00 0.60174131D-02 0.22945784D+05 0.22945784D+05 0.22945784D+05 0.12273102D+01  1  2 12  7  6  5       21 0.566177290225D-05 0.100000000000D+01
0.243405518859D-07 0.000000000000D+00 0.000000000000D+00 0.675790708669D-05 0.000000000000D+00  6 1 -1 25 23 4 -4 4 0.22423130D+00 0.60174131D-02 0.22945784D+05 0.22945784D+05 0.22945784D+05 0.12273102D+01  1  2 12  7  6  5       21 0.566177290225D-05 0.100000000000D+01
-.145753862843D-04 0.000000000000D+00 0.000000000000D+00 0.675812326088D-05 0.000000000000D+00  6 1 -1 25 23 2 -2 4 0.22423130D+00 0.60174131D-02 0.22936210D+05 0.22936210D+05 0.22936210D+05 0.12273298D+01  1  2  5  7  6  5       21 -.339055620246D-02 0.100000000000D+01
-.145753862843D-04 0.000000000000D+00 0.000000000000D+00 0.675812326088D-05 0.000000000000D+00  6 1 -1 25 23 4 -4 4 0.22423130D+00 0.60174131D-02 0.22936210D+05 0.22936210D+05 0.22936210D+05 0.12273298D+01  1  2  5  7  6  5       21 -.339055620246D-02 0.100000000000D+01
0.164301149619D-04 0.000000000000D+00 0.000000000000D+00 0.675812326088D-05 0.246583249369D-06  6 1 -1 25 23 2 -2 4 0.22423130D+00 0.60174131D-02 0.22945784D+05 0.22945784D+05 0.22945784D+05 0.12273102D+01  1  2 11  7  6  5       21 0.382175310191D-02 0.100000000000D+01
0.164301149619D-04 0.000000000000D+00 0.000000000000D+00 0.675812326088D-05 0.246583249369D-06  6 1 -1 25 23 4 -4 4 0.22423130D+00 0.60174131D-02 0.22945784D+05 0.22945784D+05 0.22945784D+05 0.12273102D+01  1  2 11  7  6  5       21 0.382175310191D-02 0.100000000000D+01
0.244898222794D-07 0.000000000000D+00 0.000000000000D+00 0.675790708669D-05 0.000000000000D+00  6 1 -1 25 23 3 -3 4 0.22423130D+00 0.60174131D-02 0.22945784D+05 0.22945784D+05 0.22945784D+05 0.12273102D+01  1  2 12  8  6  5       21 0.569649418024D-05 0.100000000000D+01
0.243405518859D-07 0.000000000000D+00 0.000000000000D+00 0.675790708669D-05 0.000000000000D+00  6 1 -1 25 23 3 -3 4 0.22423130D+00 0.60174131D-02 0.22945784D+05 0.22945784D+05 0.22945784D+05 0.12273102D+01  1  2 12  8  6  5       21 0.566177290225D-05 0.100000000000D+01
-.145753862843D-04 0.000000000000D+00 0.000000000000D+00 0.675812326088D-05 0.000000000000D+00  6 1 -1 25 23 3 -3 4 0.22423130D+00 0.60174131D-02 0.22936210D+05 0.22936210D+05 0.22936210D+05 0.12273298D+01  1  2  5  8  6  5       21 -.339055620246D-02 0.100000000000D+01
0.164316939918D-04 0.000000000000D+00 0.000000000000D+00 0.675812326088D-05 0.246606947457D-06  6 1 -1 25 23 3 -3 4 0.22423130D+00 0.60174131D-02 0.22945784D+05 0.22945784D+05 0.22945784D+05 0.12273102D+01  1  2 11  8  6  5       21 0.382212039466D-02 0.100000000000D+01
  </mgrwgt>
  </event>
  <event>
  5     66 0.42989208E-03 0.27512356E+02 0.75467711E-02 0.11234908E+00
        1 -1    0    0  502    0 0.00000000E+00 0.00000000E+00 0.13843045E+03 0.13843082E+03 0.32000000E+00 0.0000E+00 0.9000E+01
       -1 -1    0    0    0  501 0.00000000E+00 0.00000000E+00 -.24319180E+03 0.24319201E+03 0.32000000E+00 0.0000E+00 0.9000E+01
       25  1    1    2    0    0 0.56483729E+02 -.92607127E+02 -.45546473E+02 0.17165655E+03 0.12500000E+03 0.0000E+00 0.9000E+01
       23  1    1    2    0    0 -.28978994E+02 0.92043541E+02 0.12303289E+02 0.13333573E+03 0.91188000E+02 0.0000E+00 0.9000E+01
       21  1    1    2  502  501 -.27504736E+02 0.56358625E+00 -.71518169E+02 0.76630537E+02 0.75000000E+00 0.0000E+00 0.9000E+01
#aMCatNLO 1  0  0  1  5 0.97396584D+01 0.00000000D+00  -5  6  0 0.00000000D+00 0.00000000D+00 0.00000000D+00 0.00000000D+00 0.00000000D+00
  <mgrwgt>
 0.1350107517D+00    3    2    0
 0.183480952086718D+03 0.000000000000000D+00 0.000000000000000D+00 0.183480952086718D+03
 0.183480952086718D+03 0.000000000000000D+00 0.000000000000000D+00 -.183480952086718D+03
 0.165512234181585D+03 0.564847225652043D+02 -.926071471389582D+02 0.164075570853863D+01
 0.142175559614455D+03 -.289781404712941D+02 0.920435230533029D+02 0.508615340551726D+02
 0.592741103773953D+02 -.275065820939102D+02 0.563624085655365D+00 -.525022897637112D+02
 0.000000000000000D+00 0.000000000000000D+00 0.000000000000000D+00 -.000000000000000D+00
 0.225241355892315D+03 0.000000000000000D+00 0.000000000000000D+00 0.225241355892315D+03
 0.307386549024027D+03 0.000000000000000D+00 0.000000000000000D+00 -.307386549024027D+03
 0.199924371354525D+03 0.434859334807635D+02 -.149836697012159D+03 0.164075570853863D+01
 0.122227096807731D+03 -.383830941954997D+02 0.506364916199809D+02 0.508615340551726D+02
 0.642399390999758D+02 -.319000474824312D+02 -.187794120183391D+02 -.525022897637112D+02
 0.146236497654110D+03 0.267972081971674D+02 0.117979617410517D+03 -.821451931317114D+02
0.451582095542D-03 0.000000000000D+00 0.000000000000D+00 0.188115523813D-04 0.000000000000D+00  6 1 -1 25 23 21 21 2 0.21297036D-01 0.37414167D-01 0.26533665D+05 0.26533665D+05 0.26533665D+05 0.12205351D+01  1  2  2  1  6  1        1 0.108434534255D+00 0.100000000000D+01
0.619731391691D-04 0.238306418916D-04 -.173419415118D-05 0.188115523813D-04 0.000000000000D+00  6 1 -1 25 23 21 21 4 0.21297036D-01 0.37414167D-01 0.26533665D+05 0.26533665D+05 0.26533665D+05 0.12205351D+01  1  2  3  1  6  1        1 0.221684304418D-01 0.100000000000D+01
0.123222254415D-04 0.000000000000D+00 0.000000000000D+00 0.188115523813D-04 0.000000000000D+00  6 1 -1 25 23 21 21 4 0.21297036D-01 0.37414167D-01 0.26533665D+05 0.26533665D+05 0.26533665D+05 0.12205351D+01  1  2 15  1  6  1        1 0.440778700660D-02 0.100000000000D+01
  </mgrwgt>
  </event>
  <event>
  5     66 0.42989208E-03 0.48196103E+02 0.75467711E-02 0.11325173E+00
        1 -1    0    0  502    0 0.00000000E+00 0.00000000E+00 0.10638031E+04 0.10638031E+04 0.32000000E+00 0.0000E+00 0.9000E+01
       -1 -1    0    0    0  501 0.00000000E+00 0.00000000E+00 -.29097368E+02 0.29099128E+02 0.32000000E+00 0.0000E+00 0.9000E+01
       25  1    1    2    0    0 0.47522531E+02 0.48880183E+02 0.81961343E+03 0.83188872E+03 0.12500000E+03 0.0000E+00 0.9000E+01
       23  1    1    2    0    0 -.39510642E+02 -.13584388E+01 0.13724073E+03 0.16944972E+03 0.91188000E+02 0.0000E+00 0.9000E+01
       21  1    1    2  502  501 -.80118892E+01 -.47521744E+02 0.77851513E+02 0.91563788E+02 0.75000000E+00 0.0000E+00 0.9000E+01
#aMCatNLO 1  0  0  1  5 0.12773755D+03 0.00000000D+00  -5  6  0 0.00000000D+00 0.00000000D+00 0.00000000D+00 0.00000000D+00 0.00000000D+00
  <mgrwgt>
 0.1038508770D+00    6    4    0
 0.175939924288480D+03 0.000000000000000D+00 0.000000000000000D+00 0.175939924288480D+03
 0.175939924288480D+03 0.000000000000000D+00 0.000000000000000D+00 -.175939924288480D+03
 0.173681031380624D+03 0.475228924778404D+02 0.488823280103032D+02 0.994595061332497D+02
 0.122735047626151D+03 -.395103861229798D+02 -.135692319005975D+01 -.720120039969920D+02
 0.554637695701850D+02 -.801250635486058D+01 -.475254048202435D+02 -.274475021362577D+02
 0.000000000000000D+00 -.000000000000000D+00 -.000000000000000D+00 0.000000000000000D+00
 0.288559098191744D+03 0.000000000000000D+00 0.000000000000000D+00 0.288559098191744D+03
 0.227408799282512D+03 0.000000000000000D+00 0.000000000000000D+00 -.227408799282512D+03
 0.207376979830987D+03 0.109758412439150D+03 0.737638753211156D+02 0.994595061332497D+02
 0.117071047270543D+03 -.344546364531844D+00 0.143014451424191D+02 -.720120039969920D+02
 0.498998169144191D+02 0.919578581306408D+01 -.406455886641210D+02 -.274475021362577D+02
 0.141620053458307D+03 -.118609651887682D+03 -.474197317994138D+02 0.611502989092318D+02
 0.175939924288480D+03 0.000000000000000D+00 0.000000000000000D+00 0.175939924288480D+03
 0.175939924288480D+03 0.000000000000000D+00 0.000000000000000D+00 -.175939924288480D+03
 0.173681031380624D+03 0.475228924778404D+02 0.488823280103032D+02 0.994595061332497D+02
 0.122735047626151D+03 -.395103861229798D+02 -.135692319005975D+01 -.720120039969920D+02
 0.000000000000000D+00 -.000000000000000D+00 -.000000000000000D+00 0.000000000000000D+00
 0.554637695701850D+02 -.801250635486058D+01 -.475254048202435D+02 -.274475021362577D+02
 0.288559098191744D+03 0.000000000000000D+00 0.000000000000000D+00 0.288559098191744D+03
 0.227408799282512D+03 0.000000000000000D+00 0.000000000000000D+00 -.227408799282512D+03
 0.207376979830987D+03 0.109758412439150D+03 0.737638753211156D+02 0.994595061332497D+02
 0.117071047270543D+03 -.344546364531844D+00 0.143014451424191D+02 -.720120039969920D+02
 0.141620053458307D+03 -.118609651887682D+03 -.474197317994138D+02 0.611502989092318D+02
 0.498998169144191D+02 0.919578581306408D+01 -.406455886641210D+02 -.274475021362577D+02
0.951743024244D-04 0.000000000000D+00 0.000000000000D+00 0.470479855373D-05 0.000000000000D+00  6 1 -1 25 23 21 21 2 0.16366215D+00 0.44766572D-02 0.21020362D+05 0.21020362D+05 0.21020362D+05 0.12314540D+01  1  2  2  1  6  1        1 0.424731321791D-01 0.100000000000D+01
0.716060632793D-06 0.502248592394D-05 -.365494381279D-06 0.470479855373D-05 0.000000000000D+00  6 1 -1 25 23 21 21 4 0.16366215D+00 0.44766572D-02 0.21020362D+05 0.21020362D+05 0.21020362D+05 0.12314540D+01  1  2  3  1  6  1        1 0.484597075064D-03 0.100000000000D+01
0.251938412532D-05 0.000000000000D+00 0.000000000000D+00 0.470479855373D-05 0.000000000000D+00  6 1 -1 25 23 21 21 4 0.16366215D+00 0.44766572D-02 0.21020362D+05 0.21020362D+05 0.21020362D+05 0.12314540D+01  1  2 15  1  6  1        1 0.170500390914D-02 0.100000000000D+01
-.757771142386D-04 0.000000000000D+00 -.658162601948D-04 0.470479855373D-05 0.000000000000D+00  6 1 -1 25 23 21 21 4 0.30584798D+00 0.44766572D-02 0.21020362D+05 0.21020362D+05 0.21020362D+05 0.12314540D+01  1  2  5  1  6  1        1 -.126698271561D-01 0.100000000000D+01
0.106485087539D-03 0.000000000000D+00 0.547582208100D-04 0.470479855373D-05 0.000000000000D+00  6 1 -1 25 23 21 21 4 0.16366215D+00 0.44766572D-02 0.21020362D+05 0.21020362D+05 0.21020362D+05 0.12314540D+01  1  2  6  1  6  1        1 0.720642353398D-01 0.100000000000D+01
-.147531670739D-05 0.000000000000D+00 -.448192726128D-05 0.470479855373D-05 0.000000000000D+00  6 21 -1 25 23 -1 21 4 0.30584798D+00 0.44766572D-02 0.21020362D+05 0.21020362D+05 0.21020362D+05 0.12314540D+01  3  4  5  4  5  1        1 -.206264303424D-03 0.100000000000D+01
  </mgrwgt>
  </event>
  <event>
  6     66 0.42989208E-03 0.23845009E+02 0.75467711E-02 0.12119124E+00
        1 -1    0    0  503    0 0.00000000E+00 0.00000000E+00 0.60125695E+03 0.60125703E+03 0.32000000E+00 0.0000E+00 0.9000E+01
       -1 -1    0    0    0  501 0.00000000E+00 0.00000000E+00 -.53842392E+03 0.53842402E+03 0.32000000E+00 0.0000E+00 0.9000E+01
       25  1    1    2    0    0 0.11052616E+02 -.80560351E+02 -.15200385E+03 0.21293732E+03 0.12500000E+03 0.0000E+00 0.9000E+01
       23  1    1    2    0    0 -.45319057E+01 0.57051600E+02 -.34487015E+03 0.36128395E+03 0.91188000E+02 0.0000E+00 0.9000E+01
       21  1    1    2  502  501 0.67103369E+00 0.25606071E+00 -.25096466E+01 0.27160043E+01 0.75000000E+00 0.0000E+00 0.9000E+01
       21  1    1    2  503  502 -.71917436E+01 0.23252690E+02 0.56221667E+03 0.56274378E+03 0.75000000E+00 0.0000E+00 0.9000E+01
#aMCatNLO 2  0  0  1  5 0.12773755D+03 0.00000000D+00  -5  6  0 0.00000000D+00 0.00000000D+00 0.00000000D+00 0.00000000D+00 0.00000000D+00
  <mgrwgt>
 0.2973104369D+01    1    2    0
 0.143944592573559D+03 0.000000000000000D+00 0.000000000000000D+00 0.143944592573559D+03
 0.143944592573559D+03 0.000000000000000D+00 0.000000000000000D+00 -.143944592573559D+03
 0.156328189856435D+03 0.694742531997324D+01 -.677802031598540D+02 0.645839011273068D+02
 0.130468440902924D+03 -.783137481899462D+01 0.673080491177440D+02 -.641487242277481D+02
 0.109255438775858D+01 0.883949499021381D+00 0.472154042110011D+00 -.435176899558741D+00
 0.000000000000000D+00 -.000000000000000D+00 0.000000000000000D+00 0.000000000000000D+00
 0.223990607569285D+04 0.000000000000000D+00 0.000000000000000D+00 0.223990607569285D+04
 0.144528796294425D+03 0.000000000000000D+00 0.000000000000000D+00 -.144528796294425D+03
 0.162534026428936D+03 0.109230733087875D+02 -.806344587125832D+02 0.645839011273068D+02
 0.125301811735450D+03 -.464237205050661D+01 0.569972125799419D+02 -.641487242277481D+02
 0.108039830765092D+01 0.911042376672215D+00 0.384556052055939D+00 -.435176899558741D+00
 0.209551863551524D+04 -.719174363495311D+01 0.232526900805853D+02 0.209537727939842D+04
0.227658994561D+00 0.000000000000D+00 0.000000000000D+00 0.116001556803D-01 0.691469503160D-03  6 1 -1 25 23 21 21 4 0.92501040D-01 0.82834425D-01 0.19897348D+05 0.19897348D+05 0.19897348D+05 0.12340722D+01  1  2  1  1  6  1        1 0.297310436902D+01 0.100000000000D+01
  </mgrwgt>
  </event>
  <event>
  5     66 0.42989208E-03 0.57146546E+02 0.75467711E-02 0.11978657E+00
        1 -1    0    0  502    0 0.00000000E+00 0.00000000E+00 0.14265043E+04 0.14265044E+04 0.32000000E+00 0.0000E+00 0.9000E+01
       -1 -1    0    0    0  501 0.00000000E+00 0.00000000E+00 -.27686618E+02 0.27688467E+02 0.32000000E+00 0.0000E+00 0.9000E+01
       25  1    1    2    0    0 -.32044856E+02 -.57450702E+02 0.10615581E+04 0.10709146E+04 0.12500000E+03 0.0000E+00 0.9000E+01
       23  1    1    2    0    0 0.51389603E+02 0.36790185E+01 0.29250005E+03 0.31068627E+03 0.91188000E+02 0.0000E+00 0.9000E+01
       21  1    1    2  502  501 -.19344747E+02 0.53771683E+02 0.44759544E+02 0.72591958E+02 0.75000000E+00 0.0000E+00 0.9000E+01
#aMCatNLO 1  0  0  5  1 0.11507031D+02 0.00000000D+00  -5  6  0 0.00000000D+00 0.00000000D+00 0.00000000D+00 0.00000000D+00 0.00000000D+00
  <mgrwgt>
 0.6750489820D-01   20    2    0
 0.198737139187731D+03 0.000000000000000D+00 0.000000000000000D+00 0.198737139187731D+03
 0.198737139187731D+03 -.000000000000000D+00 -.000000000000000D+00 -.198737139187731D+03
 0.182125897979727D+03 -.320446425544485D+02 -.574512954334177D+02 0.114966657129369D+03
 0.107286089057651D+03 0.513897283812337D+02 0.367866896282210D+01 -.232511671287966D+02
 0.108062291338084D+03 -.193450858267852D+02 0.537726264705956D+02 -.917154900005724D+02
 0.000000000000000D+00 0.000000000000000D+00 0.000000000000000D+00 -.000000000000000D+00
 0.198737139187731D+03 0.000000000000000D+00 0.000000000000000D+00 0.198737139187731D+03
 0.198737139187731D+03 -.000000000000000D+00 -.000000000000000D+00 -.198737139187731D+03
 0.180826077531377D+03 -.323981924582947D+02 -.564685493712670D+02 0.113290469028615D+03
 0.107427007867279D+03 0.511805773092070D+02 0.426003637430404D+01 -.242427570977855D+02
 0.888135787998401D+02 -.212933811658432D+02 0.519758104666526D+02 -.687965029932200D+02
 0.204076141769669D+02 0.251099631493087D+01 0.232702530310457D+00 -.202512089376099D+02
0.275626262677D-04 0.000000000000D+00 0.000000000000D+00 0.502194384401D-05 0.000000000000D+00  6 1 -1 25 23 21 21 2 0.21946235D+00 0.42596247D-02 0.22972886D+05 0.22972886D+05 0.22972886D+05 0.12272547D+01  1  2  2  3  6  5       21 0.744762673226D-02 0.100000000000D+01
-.384124443813D-06 0.145451974882D-05 -.105847742274D-06 0.502194384401D-05 0.000000000000D+00  6 1 -1 25 23 21 21 4 0.21946235D+00 0.42596247D-02 0.22972886D+05 0.22972886D+05 0.22972886D+05 0.12272547D+01  1  2  3  3  6  5       21 -.156328667967D-03 0.100000000000D+01
0.116593068563D-05 0.000000000000D+00 0.000000000000D+00 0.502194384401D-05 0.000000000000D+00  6 1 -1 25 23 21 21 4 0.21946235D+00 0.42596247D-02 0.22972886D+05 0.22972886D+05 0.22972886D+05 0.12272547D+01  1  2 15  3  6  5       21 0.474503494799D-03 0.100000000000D+01
0.936506552658D-04 0.000000000000D+00 0.000000000000D+00 0.501903780821D-05 0.000000000000D+00  6 1 -1 25 23 21 21 4 0.21946235D+00 0.42596247D-02 0.23147100D+05 0.23147100D+05 0.23147100D+05 0.12268995D+01  1  2 12  3  6  5       21 0.380697107629D-01 0.100000000000D+01
0.631386595018D-04 0.000000000000D+00 0.000000000000D+00 0.501903780821D-05 0.000000000000D+00  6 1 -1 25 23 21 21 4 0.21946235D+00 0.42596247D-02 0.23147100D+05 0.23147100D+05 0.23147100D+05 0.12268995D+01  1  2 12  3  6  5       21 0.256663501005D-01 0.100000000000D+01
-.400009333986D-04 0.000000000000D+00 0.000000000000D+00 0.502194384401D-05 0.000000000000D+00  6 1 -1 25 23 21 21 4 0.21946235D+00 0.42596247D-02 0.22972886D+05 0.22972886D+05 0.22972886D+05 0.12272547D+01  1  2  4  3  6  5       21 -.162793405532D-01 0.100000000000D+01
-.174342180923D-03 0.000000000000D+00 0.000000000000D+00 0.502194384401D-05 0.000000000000D+00  6 1 -1 25 23 21 21 4 0.21946235D+00 0.42596247D-02 0.22972886D+05 0.22972886D+05 0.22972886D+05 0.12272547D+01  1  2  5  3  6  5       21 -.709527377212D-01 0.100000000000D+01
0.202194125374D-03 0.000000000000D+00 -.000000000000D+00 0.502194384401D-05 0.000000000000D+00  6 1 -1 25 23 21 21 4 0.21946235D+00 0.42596247D-02 0.22972886D+05 0.22972886D+05 0.22972886D+05 0.12272547D+01  1  2  6  3  6  5       21 0.822877554386D-01 0.100000000000D+01
0.116117320136D-05 0.000000000000D+00 0.000000000000D+00 0.501903780821D-05 0.000000000000D+00  6 1 -1 25 23 1 -1 4 0.21946235D+00 0.42596247D-02 0.23147100D+05 0.23147100D+05 0.23147100D+05 0.12268995D+01  1  2 12  6  6  5       21 0.472025826151D-03 0.100000000000D+01
0.916667837767D-06 0.000000000000D+00 0.000000000000D+00 0.501903780821D-05 0.000000000000D+00  6 1 -1 25 23 1 -1 4 0.21946235D+00 0.42596247D-02 0.23147100D+05 0.23147100D+05 0.23147100D+05 0.12268995D+01  1  2 12  6  6  5       21 0.372632517631D-03 0.100000000000D+01
-.149350736272D-05 0.000000000000D+00 0.000000000000D+00 0.502194384401D-05 0.000000000000D+00  6 1 -1 25 23 1 -1 4 0.21946235D+00 0.42596247D-02 0.22972886D+05 0.22972886D+05 0.22972886D+05 0.12272547D+01  1  2  5  6  6  5       21 -.607818690985D-03 0.100000000000D+01
0.116117320136D-05 0.000000000000D+00 0.000000000000D+00 0.501903780821D-05 0.000000000000D+00  6 1 -1 25 23 2 -2 4 0.21946235D+00 0.42596247D-02 0.23147100D+05 0.23147100D+05 0.23147100D+05 0.12268995D+01  1  2 12  7  6  5       21 0.472025826151D-03 0.100000000000D+01
0.116117320136D-05 0.000000000000D+00 0.000000000000D+00 0.501903780821D-05 0.000000000000D+00  6 1 -1 25 23 4 -4 4 0.21946235D+00 0.42596247D-02 0.23147100D+05 0.23147100D+05 0.23147100D+05 0.12268995D+01  1  2 12  7  6  5       21 0.472025826151D-03 0.100000000000D+01
0.916667837767D-06 0.000000000000D+00 0.000000000000D+00 0.501903780821D-05 0.000000000000D+00  6 1 -1 25 23 2 -2 4 0.21946235D+00 0.42596247D-02 0.23147100D+05 0.23147100D+05 0.23147100D+05 0.12268995D+01  1  2 12  7  6  5       21 0.372632517631D-03 0.100000000000D+01
0.916667837767D-06 0.000000000000D+00 0.000000000000D+00 0.501903780821D-05 0.000000000000D+00  6 1 -1 25 23 4 -4 4 0.21946235D+00 0.42596247D-02 0.23147100D+05 0.23147100D+05 0.23147100D+05 0.12268995D+01  1  2 12  7  6  5       21 0.372632517631D-03 0.100000000000D+01
-.149350736272D-05 0.000000000000D+00 0.000000000000D+00 0.502194384401D-05 0.000000000000D+00  6 1 -1 25 23 2 -2 4 0.21946235D+00 0.42596247D-02 0.22972886D+05 0.22972886D+05 0.22972886D+05 0.12272547D+01  1  2  5  7  6  5       21 -.607818690985D-03 0.100000000000D+01
-.149350736272D-05 0.000000000000D+00 0.000000000000D+00 0.502194384401D-05 0.000000000000D+00  6 1 -1 25 23 4 -4 4 0.21946235D+00 0.42596247D-02 0.22972886D+05 0.22972886D+05 0.22972886D+05 0.12272547D+01  1  2  5  7  6  5       21 -.607818690985D-03 0.100000000000D+01
0.116117320136D-05 0.000000000000D+00 0.000000000000D+00 0.501903780821D-05 0.000000000000D+00  6 1 -1 25 23 3 -3 4 0.21946235D+00 0.42596247D-02 0.23147100D+05 0.23147100D+05 0.23147100D+05 0.12268995D+01  1  2 12  8  6  5       21 0.472025826151D-03 0.100000000000D+01
0.916667837767D-06 0.000000000000D+00 0.000000000000D+00 0.501903780821D-05 0.000000000000D+00  6 1 -1 25 23 3 -3 4 0.21946235D+00 0.42596247D-02 0.23147100D+05 0.23147100D+05 0.23147100D+05 0.12268995D+01  1  2 12  8  6  5       21 0.372632517631D-03 0.100000000000D+01
-.149350736272D-05 0.000000000000D+00 0.000000000000D+00 0.502194384401D-05 0.000000000000D+00  6 1 -1 25 23 3 -3 4 0.21946235D+00 0.42596247D-02 0.22972886D+05 0.22972886D+05 0.22972886D+05 0.12272547D+01  1  2  5  8  6  5       21 -.607818690985D-03 0.100000000000D+01
  </mgrwgt>
  </event>
  <event>
  5     66 -.42989208E-03 0.20385880E+02 0.75467711E-02 0.12133896E+00
        1 -1    0    0  502    0 0.00000000E+00 0.00000000E+00 0.25754387E+03 0.25754407E+03 0.32000000E+00 0.0000E+00 0.9000E+01
       -1 -1    0    0    0  501 0.00000000E+00 0.00000000E+00 -.82120883E+02 0.82121507E+02 0.32000000E+00 0.0000E+00 0.9000E+01
       25  1    1    2    0    0 -.80139786E+02 -.15997837E+02 0.59075507E+02 0.16060271E+03 0.12500000E+03 0.0000E+00 0.9000E+01
       23  1    1    2    0    0 0.61286719E+02 0.82698489E+01 0.11399415E+03 0.15853823E+03 0.91188000E+02 0.0000E+00 0.9000E+01
       21  1    1    2  502  501 0.18853068E+02 0.77279877E+01 0.23533316E+01 0.20524635E+02 0.75000000E+00 0.0000E+00 0.9000E+01
#aMCatNLO 1  0  0  5  1 0.24006283D+01 0.00000000D+00  -5  6  0 0.00000000D+00 0.00000000D+00 0.00000000D+00 0.00000000D+00 0.00000000D+00
  <mgrwgt>
 -.9259662603D+00   20    2    0
 0.145429947618531D+03 0.000000000000000D+00 0.000000000000000D+00 0.145429947618531D+03
 0.145429947618531D+03 -.000000000000000D+00 -.000000000000000D+00 -.145429947618531D+03
 0.151924580323879D+03 -.801452380184405D+02 -.160000712218293D+02 -.278714307212721D+02
 0.116386994484747D+03 0.612825423135773D+02 0.826813692394890D+01 0.375069201692686D+02
 0.225483204284367D+02 0.188626957048632D+02 0.773193429788036D+01 -.963548944799644D+01
 0.000000000000000D+00 0.000000000000000D+00 0.000000000000000D+00 -.000000000000000D+00
 0.145429947618531D+03 0.000000000000000D+00 0.000000000000000D+00 0.145429947618531D+03
 0.145429947618531D+03 -.000000000000000D+00 -.000000000000000D+00 -.145429947618531D+03
 0.151814121397742D+03 -.799132161940872D+02 -.159049640574216D+02 -.279899526905199D+02
 0.116456721115101D+03 0.614604084313175D+02 0.834104533310232D+01 0.374160621536669D+02
 0.947806387734108D+01 0.874129954774052D+01 0.320753728645802D+01 -.177061617399441D+01
 0.131109888468787D+02 0.971150821502905D+01 0.435638143786123D+01 -.765549328915258D+01
0.107122451461D-03 0.000000000000D+00 0.000000000000D+00 0.358137956041D-04 0.000000000000D+00  6 1 -1 25 23 21 21 2 0.39622197D-01 0.12634045D-01 0.19587383D+05 0.19587383D+05 0.19587383D+05 0.12348240D+01  1  2  2  3  6  5       21 0.706067802476D-01 0.100000000000D+01
0.256157075875D-04 0.565300707118D-05 -.411378419598D-06 0.358137956041D-04 0.000000000000D+00  6 1 -1 25 23 21 21 4 0.39622197D-01 0.12634045D-01 0.19587383D+05 0.19587383D+05 0.19587383D+05 0.12348240D+01  1  2  3  3  6  5       21 0.257443774235D-01 0.100000000000D+01
0.184651967183D-05 0.000000000000D+00 0.000000000000D+00 0.358137956041D-04 0.000000000000D+00  6 1 -1 25 23 21 21 4 0.39622197D-01 0.12634045D-01 0.19587383D+05 0.19587383D+05 0.19587383D+05 0.12348240D+01  1  2 15  3  6  5       21 0.185579489417D-02 0.100000000000D+01
0.624952059158D-06 0.000000000000D+00 0.000000000000D+00 0.358229608995D-04 0.000000000000D+00  6 1 -1 25 23 21 21 4 0.39622197D-01 0.12634045D-01 0.19522937D+05 0.19522937D+05 0.19522937D+05 0.12349820D+01  1  2 12  3  6  5       21 0.628357433048D-03 0.100000000000D+01
0.622359424358D-06 0.000000000000D+00 0.000000000000D+00 0.358229608995D-04 0.000000000000D+00  6 1 -1 25 23 21 21 4 0.39622197D-01 0.12634045D-01 0.19522937D+05 0.19522937D+05 0.19522937D+05 0.12349820D+01  1  2 12  3  6  5       21 0.625750670939D-03 0.100000000000D+01
-.181176236525D-02 0.000000000000D+00 0.000000000000D+00 0.358137956041D-04 0.000000000000D+00  6 1 -1 25 23 21 21 4 0.39622197D-01 0.12634045D-01 0.19587383D+05 0.19587383D+05 0.19587383D+05 0.12348240D+01  1  2  4  3  6  5       21 -.182086299874D+01 0.100000000000D+01
-.345721521483D-03 0.000000000000D+00 0.000000000000D+00 0.358137956041D-04 0.000000000000D+00  6 1 -1 25 23 21 21 4 0.39622197D-01 0.12634045D-01 0.19587383D+05 0.19587383D+05 0.19587383D+05 0.12348240D+01  1  2  5  3  6  5       21 -.347458109524D+00 0.100000000000D+01
0.114357415901D-02 0.000000000000D+00 -.000000000000D+00 0.358137956041D-04 0.000000000000D+00  6 1 -1 25 23 21 21 4 0.39622197D-01 0.12634045D-01 0.19587383D+05 0.19587383D+05 0.19587383D+05 0.12348240D+01  1  2  6  3  6  5       21 0.114931842741D+01 0.100000000000D+01
0.337088964332D-07 0.000000000000D+00 0.000000000000D+00 0.358229608995D-04 0.000000000000D+00  6 1 -1 25 23 1 -1 4 0.39622197D-01 0.12634045D-01 0.19522937D+05 0.19522937D+05 0.19522937D+05 0.12349820D+01  1  2 12  6  6  5       21 0.338925767556D-04 0.100000000000D+01
0.335739359600D-07 0.000000000000D+00 0.000000000000D+00 0.358229608995D-04 0.000000000000D+00  6 1 -1 25 23 1 -1 4 0.39622197D-01 0.12634045D-01 0.19522937D+05 0.19522937D+05 0.19522937D+05 0.12349820D+01  1  2 12  6  6  5       21 0.337568808806D-04 0.100000000000D+01
-.166544382530D-05 0.000000000000D+00 0.000000000000D+00 0.358137956041D-04 0.000000000000D+00  6 1 -1 25 23 1 -1 4 0.39622197D-01 0.12634045D-01 0.19587383D+05 0.19587383D+05 0.19587383D+05 0.12348240D+01  1  2  5  6  6  5       21 -.167380948856D-02 0.100000000000D+01
0.337088964332D-07 0.000000000000D+00 0.000000000000D+00 0.358229608995D-04 0.000000000000D+00  6 1 -1 25 23 2 -2 4 0.39622197D-01 0.12634045D-01 0.19522937D+05 0.19522937D+05 0.19522937D+05 0.12349820D+01  1  2 12  7  6  5       21 0.338925767556D-04 0.100000000000D+01
0.337088964332D-07 0.000000000000D+00 0.000000000000D+00 0.358229608995D-04 0.000000000000D+00  6 1 -1 25 23 4 -4 4 0.39622197D-01 0.12634045D-01 0.19522937D+05 0.19522937D+05 0.19522937D+05 0.12349820D+01  1  2 12  7  6  5       21 0.338925767556D-04 0.100000000000D+01
0.335739359600D-07 0.000000000000D+00 0.000000000000D+00 0.358229608995D-04 0.000000000000D+00  6 1 -1 25 23 2 -2 4 0.39622197D-01 0.12634045D-01 0.19522937D+05 0.19522937D+05 0.19522937D+05 0.12349820D+01  1  2 12  7  6  5       21 0.337568808806D-04 0.100000000000D+01
0.335739359600D-07 0.000000000000D+00 0.000000000000D+00 0.358229608995D-04 0.000000000000D+00  6 1 -1 25 23 4 -4 4 0.39622197D-01 0.12634045D-01 0.19522937D+05 0.19522937D+05 0.19522937D+05 0.12349820D+01  1  2 12  7  6  5       21 0.337568808806D-04 0.100000000000D+01
-.166544382530D-05 0.000000000000D+00 0.000000000000D+00 0.358137956041D-04 0.000000000000D+00  6 1 -1 25 23 2 -2 4 0.39622197D-01 0.12634045D-01 0.19587383D+05 0.19587383D+05 0.19587383D+05 0.12348240D+01  1  2  5  7  6  5       21 -.167380948856D-02 0.100000000000D+01
-.166544382530D-05 0.000000000000D+00 0.000000000000D+00 0.358137956041D-04 0.000000000000D+00  6 1 -1 25 23 4 -4 4 0.39622197D-01 0.12634045D-01 0.19587383D+05 0.19587383D+05 0.19587383D+05 0.12348240D+01  1  2  5  7  6  5       21 -.167380948856D-02 0.100000000000D+01
0.337088964332D-07 0.000000000000D+00 0.000000000000D+00 0.358229608995D-04 0.000000000000D+00  6 1 -1 25 23 3 -3 4 0.39622197D-01 0.12634045D-01 0.19522937D+05 0.19522937D+05 0.19522937D+05 0.12349820D+01  1  2 12  8  6  5       21 0.338925767556D-04 0.100000000000D+01
0.335739359600D-07 0.000000000000D+00 0.000000000000D+00 0.358229608995D-04 0.000000000000D+00  6 1 -1 25 23 3 -3 4 0.39622197D-01 0.12634045D-01 0.19522937D+05 0.19522937D+05 0.19522937D+05 0.12349820D+01  1  2 12  8  6  5       21 0.337568808806D-04 0.100000000000D+01
-.166544382530D-05 0.000000000000D+00 0.000000000000D+00 0.358137956041D-04 0.000000000000D+00  6 1 -1 25 23 3 -3 4 0.39622197D-01 0.12634045D-01 0.19587383D+05 0.19587383D+05 0.19587383D+05 0.12348240D+01  1  2  5  8  6  5       21 -.167380948856D-02 0.100000000000D+01
  </mgrwgt>
  </event>
  <event>
  5     66 0.42989208E-03 0.20525869E+02 0.75467711E-02 0.11862052E+00
        1 -1    0    0  502    0 0.00000000E+00 0.00000000E+00 0.10999887E+04 0.10999887E+04 0.32000000E+00 0.0000E+00 0.9000E+01
       -1 -1    0    0    0  501 0.00000000E+00 0.00000000E+00 -.24208831E+02 0.24210946E+02 0.32000000E+00 0.0000E+00 0.9000E+01
       25  1    1    2    0    0 -.66854006E+01 -.12236414E+02 0.90661300E+03 0.91529588E+03 0.12500000E+03 0.0000E+00 0.9000E+01
       23  1    1    2    0    0 0.97609592E+01 0.32527892E+02 0.15791140E+03 0.18548477E+03 0.91188000E+02 0.0000E+00 0.9000E+01
       21  1    1    2  502  501 -.30755586E+01 -.20291477E+02 0.11255473E+02 0.23419037E+02 0.75000000E+00 0.0000E+00 0.9000E+01
#aMCatNLO 1  0  0  1  1 0.72013890D+02 0.00000000D+00  -5  6  0 0.00000000D+00 0.00000000D+00 0.00000000D+00 0.00000000D+00 0.00000000D+00
  <mgrwgt>
 0.1480607385D+00    7    4    0
 0.163189017517841D+03 0.000000000000000D+00 0.000000000000000D+00 0.163189017517841D+03
 0.163189017517841D+03 0.000000000000000D+00 0.000000000000000D+00 -.163189017517841D+03
 0.164410268678525D+03 -.668517095051221D+01 -.122348995284861D+02 0.105883672819916D+03
 0.118401778583530D+03 0.976112453096194D+01 0.325289828892838D+02 -.674560267716907D+02
 0.435659877736267D+02 -.307595358044973D+01 -.202940833607976D+02 -.384276460482256D+02
 0.000000000000000D+00 -.000000000000000D+00 -.000000000000000D+00 0.000000000000000D+00
 0.218164052731769D+03 0.000000000000000D+00 0.000000000000000D+00 0.218164052731769D+03
 0.192510943252444D+03 0.000000000000000D+00 0.000000000000000D+00 -.192510943252444D+03
 0.166230702018249D+03 0.280853856935105D+02 -.273956823084556D+01 0.105883672819916D+03
 0.125218165321293D+03 0.353804573114865D+02 0.395252485765460D+02 -.674560267716907D+02
 0.427795307109945D+02 0.600423310996616D+01 -.178144169650988D+02 -.384276460482256D+02
 0.764465979336765D+02 -.694700761149631D+02 -.189712633806016D+02 0.256531094793257D+02
 0.163189017517841D+03 0.000000000000000D+00 0.000000000000000D+00 0.163189017517841D+03
 0.163189017517841D+03 0.000000000000000D+00 0.000000000000000D+00 -.163189017517841D+03
 0.164410268678525D+03 -.668517095051221D+01 -.122348995284861D+02 0.105883672819916D+03
 0.118401778583530D+03 0.976112453096194D+01 0.325289828892838D+02 -.674560267716907D+02
 0.000000000000000D+00 -.000000000000000D+00 -.000000000000000D+00 0.000000000000000D+00
 0.435659877736267D+02 -.307595358044973D+01 -.202940833607976D+02 -.384276460482256D+02
 0.218164052731769D+03 0.000000000000000D+00 0.000000000000000D+00 0.218164052731769D+03
 0.192510943252444D+03 0.000000000000000D+00 0.000000000000000D+00 -.192510943252444D+03
 0.166230702018249D+03 0.280853856935105D+02 -.273956823084556D+01 0.105883672819916D+03
 0.125218165321293D+03 0.353804573114865D+02 0.395252485765460D+02 -.674560267716907D+02
 0.764465979336765D+02 -.694700761149631D+02 -.189712633806016D+02 0.256531094793257D+02
 0.427795307109945D+02 0.600423310996616D+01 -.178144169650988D+02 -.384276460482256D+02
0.107767931818D-03 0.000000000000D+00 0.000000000000D+00 0.268627406656D-04 0.000000000000D+00  6 1 -1 25 23 21 21 2 0.16922920D+00 0.37246018D-02 0.14836223D+05 0.14836223D+05 0.14836223D+05 0.12483664D+01  1  2  2  1  6  1        1 0.607473220911D-01 0.100000000000D+01
0.122152735795D-04 0.568707000544D-05 -.413857234127D-06 0.268627406656D-04 0.000000000000D+00  6 1 -1 25 23 21 21 4 0.16922920D+00 0.37246018D-02 0.14836223D+05 0.14836223D+05 0.14836223D+05 0.12483664D+01  1  2  3  1  6  1        1 0.107306235985D-01 0.100000000000D+01
0.276223950193D-05 0.000000000000D+00 0.000000000000D+00 0.268627406656D-04 0.000000000000D+00  6 1 -1 25 23 21 21 4 0.16922920D+00 0.37246018D-02 0.14836223D+05 0.14836223D+05 0.14836223D+05 0.12483664D+01  1  2 15  1  6  1        1 0.242651563973D-02 0.100000000000D+01
-.424094559179D-04 0.000000000000D+00 0.000000000000D+00 0.268627406656D-04 0.000000000000D+00  6 1 -1 25 23 21 21 4 0.16922920D+00 0.37246018D-02 0.14836223D+05 0.14836223D+05 0.14836223D+05 0.12483664D+01  1  2  4  1  6  1        1 -.372549910987D-01 0.100000000000D+01
-.186710159843D-03 0.000000000000D+00 -.963780727682D-04 0.268627406656D-04 0.000000000000D+00  6 1 -1 25 23 21 21 4 0.24862852D+00 0.37246018D-02 0.14836223D+05 0.14836223D+05 0.14836223D+05 0.12483664D+01  1  2  5  1  6  1        1 -.746592998399D-01 0.100000000000D+01
0.214439412270D-03 0.000000000000D+00 0.896609877327D-04 0.268627406656D-04 0.000000000000D+00  6 1 -1 25 23 21 21 4 0.16922920D+00 0.37246018D-02 0.14836223D+05 0.14836223D+05 0.14836223D+05 0.12483664D+01  1  2  6  1  6  1        1 0.188376347266D+00 0.100000000000D+01
-.551932119499D-05 0.000000000000D+00 -.445863340561D-05 0.268627406656D-04 0.000000000000D+00  6 21 -1 25 23 -1 21 4 0.24862852D+00 0.37246018D-02 0.14836223D+05 0.14836223D+05 0.14836223D+05 0.12483664D+01  3  4  5  4  5  1        1 -.230577920257D-02 0.100000000000D+01
  </mgrwgt>
  </event>
  <event>
  5     66 -.42989208E-03 0.34705475E+02 0.75467711E-02 0.11173863E+00
        1 -1    0    0  502    0 0.00000000E+00 0.00000000E+00 0.88558361E+03 0.88558367E+03 0.32000000E+00 0.0000E+00 0.9000E+01
       -1 -1    0    0    0  501 0.00000000E+00 0.00000000E+00 -.10192906E+03 0.10192956E+03 0.32000000E+00 0.0000E+00 0.9000E+01
       25  1    1    2    0    0 -.18906625E+03 0.29613198E+02 0.22199614E+03 0.31863816E+03 0.12500000E+03 0.0000E+00 0.9000E+01
       23  1    1    2    0    0 0.19436592E+03 -.63910824E+02 0.58541706E+03 0.62681025E+03 0.91188000E+02 0.0000E+00 0.9000E+01
       21  1    1    2  502  501 -.52996691E+01 0.34297626E+02 -.23758647E+02 0.42064824E+02 0.75000000E+00 0.0000E+00 0.9000E+01
#aMCatNLO 1  0  0  5  2 0.16191259D+01 0.00000000D+00  -5  6  0 0.00000000D+00 0.00000000D+00 0.00000000D+00 0.00000000D+00 0.00000000D+00
  <mgrwgt>
 -.4837670839D+00   25    2    0
 0.300444637695120D+03 0.000000000000000D+00 0.000000000000000D+00 0.300444637695120D+03
 0.300444637695120D+03 -.000000000000000D+00 -.000000000000000D+00 -.300444637695120D+03
 0.234137842689045D+03 -.189066192105132D+03 0.296128226897378D+02 -.507206576681668D+02
 0.266636713415618D+03 0.194365985120858D+03 -.639112510122948D+02 0.144627457348609D+03
 0.100114719285577D+03 -.529979301572601D+01 0.342984283225570D+02 -.939067996804426D+02
 0.000000000000000D+00 0.000000000000000D+00 0.000000000000000D+00 -.000000000000000D+00
 0.300444637695120D+03 0.000000000000000D+00 0.000000000000000D+00 0.300444637695120D+03
 0.300444637695120D+03 -.000000000000000D+00 -.000000000000000D+00 -.300444637695120D+03
 0.234145028179751D+03 -.189067506843974D+03 0.296213312250288D+02 -.507439534679517D+02
 0.266618911386143D+03 0.194364487966199D+03 -.639015619448850D+02 0.144600929330947D+03
 0.289481462162949D+02 -.238942934331945D+01 0.111744632547878D+02 -.265973150475884D+02
 0.711771896080505D+02 -.290755177890552D+01 0.231057674650684D+02 -.672596608154066D+02
0.713988254517D-04 0.000000000000D+00 0.000000000000D+00 0.774068807561D-05 0.000000000000D+00  6 1 -1 25 23 21 21 2 0.13624368D+00 0.15681437D-01 0.59362426D+05 0.59362426D+05 0.59362426D+05 0.11849693D+01  1  2  2  3  6  5       21 0.591961799476D-02 0.100000000000D+01
0.118807208343D-04 0.376781953408D-05 -.274190289477D-06 0.774068807561D-05 0.000000000000D+00  6 1 -1 25 23 21 21 4 0.13624368D+00 0.15681437D-01 0.59362426D+05 0.59362426D+05 0.59362426D+05 0.11849693D+01  1  2  3  3  6  5       21 0.138311909183D-02 0.100000000000D+01
0.583484686159D-06 0.000000000000D+00 0.000000000000D+00 0.774068807561D-05 0.000000000000D+00  6 1 -1 25 23 21 21 4 0.13624368D+00 0.15681437D-01 0.59362426D+05 0.59362426D+05 0.59362426D+05 0.11849693D+01  1  2 15  3  6  5       21 0.679275963528D-04 0.100000000000D+01
0.566226142190D-06 0.000000000000D+00 0.000000000000D+00 0.774067062369D-05 0.000000000000D+00  6 1 -1 25 23 21 21 4 0.13624368D+00 0.15681437D-01 0.59364305D+05 0.59364305D+05 0.59364305D+05 0.11849679D+01  1  2 12  3  6  5       21 0.659180905102D-04 0.100000000000D+01
0.563204403350D-06 0.000000000000D+00 0.000000000000D+00 0.774067062369D-05 0.000000000000D+00  6 1 -1 25 23 21 21 4 0.13624368D+00 0.15681437D-01 0.59364305D+05 0.59364305D+05 0.59364305D+05 0.11849679D+01  1  2 12  3  6  5       21 0.655663101180D-04 0.100000000000D+01
-.185435624832D-01 0.000000000000D+00 0.000000000000D+00 0.774068807561D-05 0.000000000000D+00  6 1 -1 25 23 21 21 4 0.13624368D+00 0.15681437D-01 0.59362426D+05 0.59362426D+05 0.59362426D+05 0.11849693D+01  1  2  4  3  6  5       21 -.215878780914D+01 0.100000000000D+01
-.354837870553D-02 0.000000000000D+00 0.000000000000D+00 0.774068807561D-05 0.000000000000D+00  6 1 -1 25 23 21 21 4 0.13624368D+00 0.15681437D-01 0.59362426D+05 0.59362426D+05 0.59362426D+05 0.11849693D+01  1  2  5  3  6  5       21 -.413091966479D+00 0.100000000000D+01
0.147152867004D-01 0.000000000000D+00 -.000000000000D+00 0.774068807561D-05 0.000000000000D+00  6 1 -1 25 23 21 21 4 0.13624368D+00 0.15681437D-01 0.59362426D+05 0.59362426D+05 0.59362426D+05 0.11849693D+01  1  2  6  3  6  5       21 0.171311103601D+01 0.100000000000D+01
0.329234280304D-02 0.000000000000D+00 0.000000000000D+00 0.774068807561D-05 0.151595101792D-04  6 1 -1 25 23 21 21 4 0.13624368D+00 0.15681437D-01 0.59364305D+05 0.59364305D+05 0.59364305D+05 0.11849679D+01  1  2 11  3  6  5       21 0.383283170293D+00 0.100000000000D+01
0.351861017810D-07 0.000000000000D+00 0.000000000000D+00 0.774067062369D-05 0.000000000000D+00  6 1 -1 25 23 1 -1 4 0.13624368D+00 0.15681437D-01 0.59364305D+05 0.59364305D+05 0.59364305D+05 0.11849679D+01  1  2 12  6  6  5       21 0.409624436083D-05 0.100000000000D+01
0.349657993808D-07 0.000000000000D+00 0.000000000000D+00 0.774067062369D-05 0.000000000000D+00  6 1 -1 25 23 1 -1 4 0.13624368D+00 0.15681437D-01 0.59364305D+05 0.59364305D+05 0.59364305D+05 0.11849679D+01  1  2 12  6  6  5       21 0.407059751679D-05 0.100000000000D+01
-.232145632864D-03 0.000000000000D+00 0.000000000000D+00 0.774068807561D-05 0.000000000000D+00  6 1 -1 25 23 1 -1 4 0.13624368D+00 0.15681437D-01 0.59362426D+05 0.59362426D+05 0.59362426D+05 0.11849693D+01  1  2  5  6  6  5       21 -.270257218712D-01 0.100000000000D+01
0.199652899549D-03 0.000000000000D+00 0.000000000000D+00 0.774068807561D-05 0.251461355691D-06  6 1 -1 25 23 1 -1 4 0.13624368D+00 0.15681437D-01 0.59364305D+05 0.59364305D+05 0.59364305D+05 0.11849679D+01  1  2 11  6  6  5       21 0.232429005348D-01 0.100000000000D+01
0.351861017810D-07 0.000000000000D+00 0.000000000000D+00 0.774067062369D-05 0.000000000000D+00  6 1 -1 25 23 2 -2 4 0.13624368D+00 0.15681437D-01 0.59364305D+05 0.59364305D+05 0.59364305D+05 0.11849679D+01  1  2 12  7  6  5       21 0.409624436083D-05 0.100000000000D+01
0.351861017810D-07 0.000000000000D+00 0.000000000000D+00 0.774067062369D-05 0.000000000000D+00  6 1 -1 25 23 4 -4 4 0.13624368D+00 0.15681437D-01 0.59364305D+05 0.59364305D+05 0.59364305D+05 0.11849679D+01  1  2 12  7  6  5       21 0.409624436083D-05 0.100000000000D+01
0.349657993808D-07 0.000000000000D+00 0.000000000000D+00 0.774067062369D-05 0.000000000000D+00  6 1 -1 25 23 2 -2 4 0.13624368D+00 0.15681437D-01 0.59364305D+05 0.59364305D+05 0.59364305D+05 0.11849679D+01  1  2 12  7  6  5       21 0.407059751679D-05 0.100000000000D+01
0.349657993808D-07 0.000000000000D+00 0.000000000000D+00 0.774067062369D-05 0.000000000000D+00  6 1 -1 25 23 4 -4 4 0.13624368D+00 0.15681437D-01 0.59364305D+05 0.59364305D+05 0.59364305D+05 0.11849679D+01  1  2 12  7  6  5       21 0.407059751679D-05 0.100000000000D+01
-.232145632864D-03 0.000000000000D+00 0.000000000000D+00 0.774068807561D-05 0.000000000000D+00  6 1 -1 25 23 2 -2 4 0.13624368D+00 0.15681437D-01 0.59362426D+05 0.59362426D+05 0.59362426D+05 0.11849693D+01  1  2  5  7  6  5       21 -.270257218712D-01 0.100000000000D+01
-.232145632864D-03 0.000000000000D+00 0.000000000000D+00 0.774068807561D-05 0.000000000000D+00  6 1 -1 25 23 4 -4 4 0.13624368D+00 0.15681437D-01 0.59362426D+05 0.59362426D+05 0.59362426D+05 0.11849693D+01  1  2  5  7  6  5       21 -.270257218712D-01 0.100000000000D+01
0.197708174938D-03 0.000000000000D+00 0.000000000000D+00 0.774068807561D-05 0.248910807176D-06  6 1 -1 25 23 2 -2 4 0.13624368D+00 0.15681437D-01 0.59364305D+05 0.59364305D+05 0.59364305D+05 0.11849679D+01  1  2 11  7  6  5       21 0.230165024168D-01 0.100000000000D+01
0.197708174938D-03 0.000000000000D+00 0.000000000000D+00 0.774068807561D-05 0.248910807176D-06  6 1 -1 25 23 4 -4 4 0.13624368D+00 0.15681437D-01 0.59364305D+05 0.59364305D+05 0.59364305D+05 0.11849679D+01  1  2 11  7  6  5       21 0.230165024168D-01 0.100000000000D+01
0.351861017810D-07 0.000000000000D+00 0.000000000000D+00 0.774067062369D-05 0.000000000000D+00  6 1 -1 25 23 3 -3 4 0.13624368D+00 0.15681437D-01 0.59364305D+05 0.59364305D+05 0.59364305D+05 0.11849679D+01  1  2 12  8  6  5       21 0.409624436083D-05 0.100000000000D+01
0.349657993808D-07 0.000000000000D+00 0.000000000000D+00 0.774067062369D-05 0.000000000000D+00  6 1 -1 25 23 3 -3 4 0.13624368D+00 0.15681437D-01 0.59364305D+05 0.59364305D+05 0.59364305D+05 0.11849679D+01  1  2 12  8  6  5       21 0.407059751679D-05 0.100000000000D+01
-.232145632864D-03 0.000000000000D+00 0.000000000000D+00 0.774068807561D-05 0.000000000000D+00  6 1 -1 25 23 3 -3 4 0.13624368D+00 0.15681437D-01 0.59362426D+05 0.59362426D+05 0.59362426D+05 0.11849693D+01  1  2  5  8  6  5       21 -.270257218712D-01 0.100000000000D+01
0.197657913135D-03 0.000000000000D+00 0.000000000000D+00 0.774068807561D-05 0.248847528528D-06  6 1 -1 25 23 3 -3 4 0.13624368D+00 0.15681437D-01 0.59364305D+05 0.59364305D+05 0.59364305D+05 0.11849679D+01  1  2 11  8  6  5       21 0.230106511115D-01 0.100000000000D+01
  </mgrwgt>
  </event>
  <event>
  5     66 -.42989208E-03 0.56464654E+02 0.75467711E-02 0.11999851E+00
        1 -1    0    0  502    0 0.00000000E+00 0.00000000E+00 0.46942323E+02 0.46943414E+02 0.32000000E+00 0.0000E+00 0.9000E+01
       -1 -1    0    0    0  501 -.00000000E+00 -.00000000E+00 -.93918318E+03 0.93918324E+03 0.32000000E+00 0.0000E+00 0.9000E+01
       25  1    1    2    0    0 -.16769311E+01 0.31699577E+02 -.54593463E+03 0.56096105E+03 0.12500000E+03 0.0000E+00 0.9000E+01
       23  1    1    2    0    0 0.56459347E+02 -.45370799E+02 -.55635749E+02 0.12906105E+03 0.91188000E+02 0.0000E+00 0.9000E+01
       21  1    1    2  502  501 -.54782416E+02 0.13671222E+02 -.29067048E+03 0.29610455E+03 0.75000000E+00 0.0000E+00 0.9000E+01
#aMCatNLO 1  0  0  5  1 0.76161979D+01 0.00000000D+00  -5  6  0 0.00000000D+00 0.00000000D+00 0.00000000D+00 0.00000000D+00 0.00000000D+00
  <mgrwgt>
 -.2470610090D-01   25    2    0
 0.209971439479908D+03 0.000000000000000D+00 0.000000000000000D+00 0.209971439479908D+03
 0.209971439479908D+03 -.000000000000000D+00 -.000000000000000D+00 -.209971439479908D+03
 0.157338556462106D+03 -.167597594439744D+01 0.316993388748933D+02 -.901263799844845D+02
 0.184859867182027D+03 0.564604693182648D+02 -.453710793606417D+02 0.143567404770610D+03
 0.777444553156833D+02 -.547844933738674D+02 0.136717404857484D+02 -.534410247861257D+02
 0.000000000000000D+00 0.000000000000000D+00 0.000000000000000D+00 -.000000000000000D+00
 0.209971439479908D+03 0.000000000000000D+00 0.000000000000000D+00 0.209971439479908D+03
 0.209971439479908D+03 -.000000000000000D+00 -.000000000000000D+00 -.209971439479908D+03
 0.157654488903154D+03 -.218364021886222D+01 0.318260289980820D+02 -.906215949149130D+02
 0.184191892361037D+03 0.558656803332219D+02 -.452226468362813D+02 0.142987201670524D+03
 0.567208589181986D+02 -.438611737164474D+02 0.133886362510480D+02 -.333795999971679D+02
 0.213756387774262D+02 -.982086639791235D+01 0.798158715125474D-02 -.189860067584426D+02
0.356694464894D-04 0.000000000000D+00 0.000000000000D+00 0.254413243341D-05 0.000000000000D+00  6 1 -1 25 23 21 21 2 0.72219840D-02 0.14448981D+00 0.22783860D+05 0.22783860D+05 0.22783860D+05 0.12276434D+01  1  2  2  3  6  5       21 0.224131647561D-02 0.100000000000D+01
-.982691801043D-06 0.188232840530D-05 -.136980066500D-06 0.254413243341D-05 0.000000000000D+00  6 1 -1 25 23 21 21 4 0.72219840D-02 0.14448981D+00 0.22783860D+05 0.22783860D+05 0.22783860D+05 0.12276434D+01  1  2  3  3  6  5       21 -.930611941289D-04 0.100000000000D+01
0.131467544747D-05 0.000000000000D+00 0.000000000000D+00 0.254413243341D-05 0.000000000000D+00  6 1 -1 25 23 21 21 4 0.72219840D-02 0.14448981D+00 0.22783860D+05 0.22783860D+05 0.22783860D+05 0.12276434D+01  1  2 15  3  6  5       21 0.124500140231D-03 0.100000000000D+01
0.150002022447D-03 0.000000000000D+00 0.000000000000D+00 0.254554602450D-05 0.000000000000D+00  6 1 -1 25 23 21 21 4 0.72219840D-02 0.14448981D+00 0.22619482D+05 0.22619482D+05 0.22619482D+05 0.12279844D+01  1  2 12  3  6  5       21 0.142207551866D-01 0.100000000000D+01
0.143600645243D-03 0.000000000000D+00 0.000000000000D+00 0.254554602450D-05 0.000000000000D+00  6 1 -1 25 23 21 21 4 0.72219840D-02 0.14448981D+00 0.22619482D+05 0.22619482D+05 0.22619482D+05 0.12279844D+01  1  2 12  3  6  5       21 0.136138805819D-01 0.100000000000D+01
-.696913272800D-03 0.000000000000D+00 0.000000000000D+00 0.254413243341D-05 0.000000000000D+00  6 1 -1 25 23 21 21 4 0.72219840D-02 0.14448981D+00 0.22783860D+05 0.22783860D+05 0.22783860D+05 0.12276434D+01  1  2  4  3  6  5       21 -.659978859112D-01 0.100000000000D+01
-.303889118340D-03 0.000000000000D+00 0.000000000000D+00 0.254413243341D-05 0.000000000000D+00  6 1 -1 25 23 21 21 4 0.72219840D-02 0.14448981D+00 0.22783860D+05 0.22783860D+05 0.22783860D+05 0.12276434D+01  1  2  5  3  6  5       21 -.287783862707D-01 0.100000000000D+01
0.405544770903D-03 0.000000000000D+00 -.000000000000D+00 0.254413243341D-05 0.000000000000D+00  6 1 -1 25 23 21 21 4 0.72219840D-02 0.14448981D+00 0.22783860D+05 0.22783860D+05 0.22783860D+05 0.12276434D+01  1  2  6  3  6  5       21 0.384052055924D-01 0.100000000000D+01
0.659785317165D-05 0.000000000000D+00 0.000000000000D+00 0.254413243341D-05 0.528970844014D-06  6 1 -1 25 23 21 21 4 0.72219840D-02 0.14448981D+00 0.22619482D+05 0.22619482D+05 0.22619482D+05 0.12279844D+01  1  2 11  3  6  5       21 0.625501264453D-03 0.100000000000D+01
0.262531867776D-05 0.000000000000D+00 0.000000000000D+00 0.254554602450D-05 0.000000000000D+00  6 1 -1 25 23 1 -1 4 0.72219840D-02 0.14448981D+00 0.22619482D+05 0.22619482D+05 0.22619482D+05 0.12279844D+01  1  2 12  6  6  5       21 0.248890072242D-03 0.100000000000D+01
0.254045021476D-05 0.000000000000D+00 0.000000000000D+00 0.254554602450D-05 0.000000000000D+00  6 1 -1 25 23 1 -1 4 0.72219840D-02 0.14448981D+00 0.22619482D+05 0.22619482D+05 0.22619482D+05 0.12279844D+01  1  2 12  6  6  5       21 0.240844223154D-03 0.100000000000D+01
-.275890802304D-05 0.000000000000D+00 0.000000000000D+00 0.254413243341D-05 0.000000000000D+00  6 1 -1 25 23 1 -1 4 0.72219840D-02 0.14448981D+00 0.22783860D+05 0.22783860D+05 0.22783860D+05 0.12276434D+01  1  2  5  6  6  5       21 -.261269377483D-03 0.100000000000D+01
0.433281216992D-07 0.000000000000D+00 0.000000000000D+00 0.254413243341D-05 0.607873513173D-08  6 1 -1 25 23 1 -1 4 0.72219840D-02 0.14448981D+00 0.22619482D+05 0.22619482D+05 0.22619482D+05 0.12279844D+01  1  2 11  6  6  5       21 0.410766869225D-05 0.100000000000D+01
0.262531867776D-05 0.000000000000D+00 0.000000000000D+00 0.254554602450D-05 0.000000000000D+00  6 1 -1 25 23 2 -2 4 0.72219840D-02 0.14448981D+00 0.22619482D+05 0.22619482D+05 0.22619482D+05 0.12279844D+01  1  2 12  7  6  5       21 0.248890072242D-03 0.100000000000D+01
0.262531867776D-05 0.000000000000D+00 0.000000000000D+00 0.254554602450D-05 0.000000000000D+00  6 1 -1 25 23 4 -4 4 0.72219840D-02 0.14448981D+00 0.22619482D+05 0.22619482D+05 0.22619482D+05 0.12279844D+01  1  2 12  7  6  5       21 0.248890072242D-03 0.100000000000D+01
0.254045021476D-05 0.000000000000D+00 0.000000000000D+00 0.254554602450D-05 0.000000000000D+00  6 1 -1 25 23 2 -2 4 0.72219840D-02 0.14448981D+00 0.22619482D+05 0.22619482D+05 0.22619482D+05 0.12279844D+01  1  2 12  7  6  5       21 0.240844223154D-03 0.100000000000D+01
0.254045021476D-05 0.000000000000D+00 0.000000000000D+00 0.254554602450D-05 0.000000000000D+00  6 1 -1 25 23 4 -4 4 0.72219840D-02 0.14448981D+00 0.22619482D+05 0.22619482D+05 0.22619482D+05 0.12279844D+01  1  2 12  7  6  5       21 0.240844223154D-03 0.100000000000D+01
-.275890802304D-05 0.000000000000D+00 0.000000000000D+00 0.254413243341D-05 0.000000000000D+00  6 1 -1 25 23 2 -2 4 0.72219840D-02 0.14448981D+00 0.22783860D+05 0.22783860D+05 0.22783860D+05 0.12276434D+01  1  2  5  7  6  5       21 -.261269377483D-03 0.100000000000D+01
-.275890802304D-05 0.000000000000D+00 0.000000000000D+00 0.254413243341D-05 0.000000000000D+00  6 1 -1 25 23 4 -4 4 0.72219840D-02 0.14448981D+00 0.22783860D+05 0.22783860D+05 0.22783860D+05 0.12276434D+01  1  2  5  7  6  5       21 -.261269377483D-03 0.100000000000D+01
0.495693076343D-07 0.000000000000D+00 0.000000000000D+00 0.254413243341D-05 0.599189725175D-08  6 1 -1 25 23 2 -2 4 0.72219840D-02 0.14448981D+00 0.22619482D+05 0.22619482D+05 0.22619482D+05 0.12279844D+01  1  2 11  7  6  5       21 0.469935656291D-05 0.100000000000D+01
0.495693076343D-07 0.000000000000D+00 0.000000000000D+00 0.254413243341D-05 0.599189725175D-08  6 1 -1 25 23 4 -4 4 0.72219840D-02 0.14448981D+00 0.22619482D+05 0.22619482D+05 0.22619482D+05 0.12279844D+01  1  2 11  7  6  5       21 0.469935656291D-05 0.100000000000D+01
0.262531867776D-05 0.000000000000D+00 0.000000000000D+00 0.254554602450D-05 0.000000000000D+00  6 1 -1 25 23 3 -3 4 0.72219840D-02 0.14448981D+00 0.22619482D+05 0.22619482D+05 0.22619482D+05 0.12279844D+01  1  2 12  8  6  5       21 0.248890072242D-03 0.100000000000D+01
0.254045021476D-05 0.000000000000D+00 0.000000000000D+00 0.254554602450D-05 0.000000000000D+00  6 1 -1 25 23 3 -3 4 0.72219840D-02 0.14448981D+00 0.22619482D+05 0.22619482D+05 0.22619482D+05 0.12279844D+01  1  2 12  8  6  5       21 0.240844223154D-03 0.100000000000D+01
-.275890802304D-05 0.000000000000D+00 0.000000000000D+00 0.254413243341D-05 0.000000000000D+00  6 1 -1 25 23 3 -3 4 0.72219840D-02 0.14448981D+00 0.22783860D+05 0.22783860D+05 0.22783860D+05 0.12276434D+01  1  2  5  8  6  5       21 -.261269377483D-03 0.100000000000D+01
0.496518641999D-07 0.000000000000D+00 0.000000000000D+00 0.254413243341D-05 0.600187662169D-08  6 1 -1 25 23 3 -3 4 0.72219840D-02 0.14448981D+00 0.22619482D+05 0.22619482D+05 0.22619482D+05 0.12279844D+01  1  2 11  8  6  5       21 0.470718323544D-05 0.100000000000D+01
  </mgrwgt>
  </event>
  <event>
  5     66 0.42989208E-03 0.31754925E+02 0.75467711E-02 0.10530818E+00
        1 -1    0    0  502    0 0.00000000E+00 0.00000000E+00 0.42027168E+03 0.42027181E+03 0.32000000E+00 0.0000E+00 0.9000E+01
       -1 -1    0    0    0  501 0.00000000E+00 0.00000000E+00 -.39968800E+03 0.39968813E+03 0.32000000E+00 0.0000E+00 0.9000E+01
       25  1    1    2    0    0 -.29726376E+03 0.17464062E+03 0.13467644E+03 0.39067613E+03 0.12500000E+03 0.0000E+00 0.9000E+01
       23  1    1    2    0    0 0.27464157E+03 -.19692007E+03 -.15046277E+03 0.38099843E+03 0.91188000E+02 0.0000E+00 0.9000E+01
       21  1    1    2  502  501 0.22622187E+02 0.22279451E+02 0.36370010E+02 0.48285374E+02 0.75000000E+00 0.0000E+00 0.9000E+01
#aMCatNLO 1  0  0  5  1 0.45161365D+00 0.00000000D+00  -5  6  0 0.00000000D+00 0.00000000D+00 0.00000000D+00 0.00000000D+00 0.00000000D+00
  <mgrwgt>
 0.1187172478D+01   15    2    0
 0.409850766422867D+03 0.000000000000000D+00 0.000000000000000D+00 0.409850766422867D+03
 0.409850766422867D+03 -.000000000000000D+00 -.000000000000000D+00 -.409850766422867D+03
 0.387417156649420D+03 -.297265101112870D+03 0.174639304206900D+03 0.124906470420096D+03
 0.384897418340639D+03 0.274640244150076D+03 -.196921384351232D+03 -.160079592639631D+03
 0.473869578556753D+02 0.226248569627932D+02 0.222820801443311D+02 0.351731222195344D+02
 0.000000000000000D+00 0.000000000000000D+00 0.000000000000000D+00 0.000000000000000D+00
 0.409850766422867D+03 0.000000000000000D+00 0.000000000000000D+00 0.409850766422867D+03
 0.409850766422867D+03 -.000000000000000D+00 -.000000000000000D+00 -.409850766422867D+03
 0.387419705175623D+03 -.297250779757307D+03 0.174653408587447D+03 0.124928734728347D+03
 0.384891203231028D+03 0.274654472198716D+03 -.196907371863966D+03 -.160057473388465D+03
 0.169608285234281D+01 0.445196679633905D+00 0.662319754746567D+00 0.149660599388333D+01
 0.456945415867409D+02 0.221511108789575D+02 0.215916435217721D+02 0.336321326662351D+02
0.862038401189D-02 0.000000000000D+00 0.000000000000D+00 0.759734810421D-05 0.000000000000D+00  6 1 -1 25 23 21 21 2 0.64657201D-01 0.61490481D-01 0.14006817D+06 0.14006817D+06 0.14006817D+06 0.11503633D+01  1  2  2  3  6  5       21 0.179259249469D+00 0.100000000000D+01
0.318447405134D-02 0.454910162258D-03 -.331045444049D-04 0.759734810421D-05 0.000000000000D+00  6 1 -1 25 23 21 21 4 0.64657201D-01 0.61490481D-01 0.14006817D+06 0.14006817D+06 0.14006817D+06 0.11503633D+01  1  2  3  3  6  5       21 0.876319962815D-01 0.100000000000D+01
0.295140037450D-03 0.000000000000D+00 0.000000000000D+00 0.759734810421D-05 0.000000000000D+00  6 1 -1 25 23 21 21 4 0.64657201D-01 0.61490481D-01 0.14006817D+06 0.14006817D+06 0.14006817D+06 0.11503633D+01  1  2 15  3  6  5       21 0.812181548582D-02 0.100000000000D+01
-.164237335106D+00 0.000000000000D+00 0.000000000000D+00 0.759734810421D-05 0.000000000000D+00  6 1 -1 25 23 21 21 4 0.64657201D-01 0.61490481D-01 0.14006817D+06 0.14006817D+06 0.14006817D+06 0.11503633D+01  1  2  4  3  6  5       21 -.451956753527D+01 0.100000000000D+01
-.153884190377D-02 0.000000000000D+00 0.000000000000D+00 0.759734810421D-05 0.000000000000D+00  6 1 -1 25 23 21 21 4 0.64657201D-01 0.61490481D-01 0.14006817D+06 0.14006817D+06 0.14006817D+06 0.11503633D+01  1  2  5  3  6  5       21 -.423466436892D-01 0.100000000000D+01
0.195768496083D+00 0.000000000000D+00 -.000000000000D+00 0.759734810421D-05 0.000000000000D+00  6 1 -1 25 23 21 21 4 0.64657201D-01 0.61490481D-01 0.14006817D+06 0.14006817D+06 0.14006817D+06 0.11503633D+01  1  2  6  3  6  5       21 0.538725825497D+01 0.100000000000D+01
0.240725598325D-02 0.000000000000D+00 0.000000000000D+00 0.759734810421D-05 0.424990127678D-03  6 1 -1 25 23 21 21 4 0.64657201D-01 0.61490481D-01 0.14005875D+06 0.14005875D+06 0.14005875D+06 0.11503659D+01  1  2 11  3  6  5       21 0.662447909017D-01 0.100000000000D+01
-.572887496033D-02 0.000000000000D+00 0.000000000000D+00 0.759734810421D-05 0.000000000000D+00  6 1 -1 25 23 1 -1 4 0.64657201D-01 0.61490481D-01 0.14006817D+06 0.14006817D+06 0.14006817D+06 0.11503633D+01  1  2  5  6  6  5       21 -.157650130329D+00 0.100000000000D+01
0.582198826776D-02 0.000000000000D+00 0.000000000000D+00 0.759734810421D-05 0.150031155089D-05  6 1 -1 25 23 1 -1 4 0.64657201D-01 0.61490481D-01 0.14005875D+06 0.14005875D+06 0.14005875D+06 0.11503659D+01  1  2 11  6  6  5       21 0.160214118529D+00 0.100000000000D+01
-.572887496033D-02 0.000000000000D+00 0.000000000000D+00 0.759734810421D-05 0.000000000000D+00  6 1 -1 25 23 2 -2 4 0.64657201D-01 0.61490481D-01 0.14006817D+06 0.14006817D+06 0.14006817D+06 0.11503633D+01  1  2  5  7  6  5       21 -.157650130329D+00 0.100000000000D+01
-.572887496033D-02 0.000000000000D+00 0.000000000000D+00 0.759734810421D-05 0.000000000000D+00  6 1 -1 25 23 4 -4 4 0.64657201D-01 0.61490481D-01 0.14006817D+06 0.14006817D+06 0.14006817D+06 0.11503633D+01  1  2  5  7  6  5       21 -.157650130329D+00 0.100000000000D+01
0.594691566045D-02 0.000000000000D+00 0.000000000000D+00 0.759734810421D-05 0.152177737545D-05  6 1 -1 25 23 2 -2 4 0.64657201D-01 0.61490481D-01 0.14005875D+06 0.14005875D+06 0.14005875D+06 0.11503659D+01  1  2 11  7  6  5       21 0.163651970201D+00 0.100000000000D+01
0.594691566045D-02 0.000000000000D+00 0.000000000000D+00 0.759734810421D-05 0.152177737545D-05  6 1 -1 25 23 4 -4 4 0.64657201D-01 0.61490481D-01 0.14005875D+06 0.14005875D+06 0.14005875D+06 0.11503659D+01  1  2 11  7  6  5       21 0.163651970201D+00 0.100000000000D+01
-.572887496033D-02 0.000000000000D+00 0.000000000000D+00 0.759734810421D-05 0.000000000000D+00  6 1 -1 25 23 3 -3 4 0.64657201D-01 0.61490481D-01 0.14006817D+06 0.14006817D+06 0.14006817D+06 0.11503633D+01  1  2  5  8  6  5       21 -.157650130329D+00 0.100000000000D+01
0.594695351178D-02 0.000000000000D+00 0.000000000000D+00 0.759734810421D-05 0.152178706136D-05  6 1 -1 25 23 3 -3 4 0.64657201D-01 0.61490481D-01 0.14005875D+06 0.14005875D+06 0.14005875D+06 0.11503659D+01  1  2 11  8  6  5       21 0.163653011824D+00 0.100000000000D+01
  </mgrwgt>
  </event>
  <event>
  5     66 0.42989208E-03 0.34341247E+02 0.75467711E-02 0.11964894E+00
        1 -1    0    0  502    0 0.00000000E+00 0.00000000E+00 0.17429120E+03 0.17429149E+03 0.32000000E+00 0.0000E+00 0.9000E+01
       -1 -1    0    0    0  501 0.00000000E+00 0.00000000E+00 -.16603178E+03 0.16603209E+03 0.32000000E+00 0.0000E+00 0.9000E+01
       25  1    1    2    0    0 0.57329443E+02 -.53706014E+02 -.56457211E+02 0.15806144E+03 0.12500000E+03 0.0000E+00 0.9000E+01
       23  1    1    2    0    0 -.82725842E+02 0.30600182E+02 0.73757609E+02 0.14674935E+03 0.91188000E+02 0.0000E+00 0.9000E+01
       21  1    1    2  502  501 0.25396399E+02 0.23105831E+02 -.90409773E+01 0.35512791E+02 0.75000000E+00 0.0000E+00 0.9000E+01
#aMCatNLO 1  0  0  5  1 0.83605497D+01 0.00000000D+00  -5  6  0 0.00000000D+00 0.00000000D+00 0.00000000D+00 0.00000000D+00 0.00000000D+00
  <mgrwgt>
 0.8324679149D-01   19    2    0
 0.170111669393359D+03 0.000000000000000D+00 0.000000000000000D+00 0.170111669393359D+03
 0.170111669393359D+03 -.000000000000000D+00 -.000000000000000D+00 -.170111669393359D+03
 0.159478061621923D+03 0.573268216437744D+02 -.537083989118420D+02 -.603099954007231D+02
 0.145003367112410D+03 -.827282258881871D+02 0.305980135465453D+02 0.702177138501028D+02
 0.357419100523848D+02 0.254014042444127D+02 0.231103853652967D+02 -.990771844937970D+01
 0.000000000000000D+00 -.000000000000000D+00 0.000000000000000D+00 0.000000000000000D+00
 0.170111669393359D+03 0.000000000000000D+00 0.000000000000000D+00 0.170111669393359D+03
 0.170111669393359D+03 -.000000000000000D+00 -.000000000000000D+00 -.170111669393359D+03
 0.160417964787202D+03 0.614903391158207D+02 -.499203999363404D+02 -.619339591184448D+02
 0.142958210427467D+03 -.789803423248197D+02 0.340078657192941D+02 0.687558665140419D+02
 0.281766096683310D+02 0.224489736526973D+02 0.170271500095528D+02 0.202674355005508D+00
 0.867055390371783D+01 -.495897044369829D+01 -.111461579250646D+01 -.702458175060257D+01
0.103889556653D-03 0.000000000000D+00 0.000000000000D+00 0.100067319495D-04 0.000000000000D+00  6 1 -1 25 23 21 21 2 0.26814077D-01 0.25543397D-01 0.23846096D+05 0.23846096D+05 0.23846096D+05 0.12255041D+01  1  2  2  3  6  5       21 0.358177827197D-01 0.100000000000D+01
0.121748514165D-04 0.548240252510D-05 -.398963252297D-06 0.100067319495D-04 0.000000000000D+00  6 1 -1 25 23 21 21 4 0.26814077D-01 0.25543397D-01 0.23846096D+05 0.23846096D+05 0.23846096D+05 0.12255041D+01  1  2  3  3  6  5       21 0.630405493398D-02 0.100000000000D+01
0.106933961217D-05 0.000000000000D+00 0.000000000000D+00 0.100067319495D-04 0.000000000000D+00  6 1 -1 25 23 21 21 4 0.26814077D-01 0.25543397D-01 0.23846096D+05 0.23846096D+05 0.23846096D+05 0.12255041D+01  1  2 15  3  6  5       21 0.553696749768D-03 0.100000000000D+01
0.597533792342D-04 0.000000000000D+00 0.000000000000D+00 0.100180101384D-04 0.000000000000D+00  6 1 -1 25 23 21 21 4 0.26814077D-01 0.25543397D-01 0.23497354D+05 0.23497354D+05 0.23497354D+05 0.12261945D+01  1  2 12  3  6  5       21 0.310006259415D-01 0.100000000000D+01
0.503265496333D-04 0.000000000000D+00 0.000000000000D+00 0.100180101384D-04 0.000000000000D+00  6 1 -1 25 23 21 21 4 0.26814077D-01 0.25543397D-01 0.23497354D+05 0.23497354D+05 0.23497354D+05 0.12261945D+01  1  2 12  3  6  5       21 0.261098963792D-01 0.100000000000D+01
-.407603345181D-04 0.000000000000D+00 0.000000000000D+00 0.100067319495D-04 0.000000000000D+00  6 1 -1 25 23 21 21 4 0.26814077D-01 0.25543397D-01 0.23846096D+05 0.23846096D+05 0.23846096D+05 0.12255041D+01  1  2  4  3  6  5       21 -.211054229033D-01 0.100000000000D+01
0.201960942853D-06 0.000000000000D+00 0.000000000000D+00 0.100067319495D-04 0.150118305016D-05  6 1 -1 25 23 21 21 4 0.26814077D-01 0.25543397D-01 0.23497354D+05 0.23497354D+05 0.23497354D+05 0.12261945D+01  1  2 11  3  6  5       21 0.104779273146D-03 0.100000000000D+01
0.111268742893D-05 0.000000000000D+00 0.000000000000D+00 0.100180101384D-04 0.000000000000D+00  6 1 -1 25 23 1 -1 4 0.26814077D-01 0.25543397D-01 0.23497354D+05 0.23497354D+05 0.23497354D+05 0.12261945D+01  1  2 12  6  6  5       21 0.577272904329D-03 0.100000000000D+01
0.103420946010D-05 0.000000000000D+00 0.000000000000D+00 0.100180101384D-04 0.000000000000D+00  6 1 -1 25 23 1 -1 4 0.26814077D-01 0.25543397D-01 0.23497354D+05 0.23497354D+05 0.23497354D+05 0.12261945D+01  1  2 12  6  6  5       21 0.536557781816D-03 0.100000000000D+01
0.169012444602D-08 0.000000000000D+00 0.000000000000D+00 0.100180101384D-04 0.224207117007D-07  6 1 -1 25 23 1 -1 4 0.26814077D-01 0.25543397D-01 0.23497354D+05 0.23497354D+05 0.23497354D+05 0.12261945D+01  1  2 11  6  6  5       21 0.876852764097D-06 0.100000000000D+01
0.111268742893D-05 0.000000000000D+00 0.000000000000D+00 0.100180101384D-04 0.000000000000D+00  6 1 -1 25 23 2 -2 4 0.26814077D-01 0.25543397D-01 0.23497354D+05 0.23497354D+05 0.23497354D+05 0.12261945D+01  1  2 12  7  6  5       21 0.577272904329D-03 0.100000000000D+01
0.111268742893D-05 0.000000000000D+00 0.000000000000D+00 0.100180101384D-04 0.000000000000D+00  6 1 -1 25 23 4 -4 4 0.26814077D-01 0.25543397D-01 0.23497354D+05 0.23497354D+05 0.23497354D+05 0.12261945D+01  1  2 12  7  6  5       21 0.577272904329D-03 0.100000000000D+01
0.103420946010D-05 0.000000000000D+00 0.000000000000D+00 0.100180101384D-04 0.000000000000D+00  6 1 -1 25 23 2 -2 4 0.26814077D-01 0.25543397D-01 0.23497354D+05 0.23497354D+05 0.23497354D+05 0.12261945D+01  1  2 12  7  6  5       21 0.536557781816D-03 0.100000000000D+01
0.103420946010D-05 0.000000000000D+00 0.000000000000D+00 0.100180101384D-04 0.000000000000D+00  6 1 -1 25 23 4 -4 4 0.26814077D-01 0.25543397D-01 0.23497354D+05 0.23497354D+05 0.23497354D+05 0.12261945D+01  1  2 12  7  6  5       21 0.536557781816D-03 0.100000000000D+01
0.332541871229D-08 0.000000000000D+00 0.000000000000D+00 0.100180101384D-04 0.171080769224D-07  6 1 -1 25 23 2 -2 4 0.26814077D-01 0.25543397D-01 0.23497354D+05 0.23497354D+05 0.23497354D+05 0.12261945D+01  1  2 11  7  6  5       21 0.172525910534D-05 0.100000000000D+01
0.332541871229D-08 0.000000000000D+00 0.000000000000D+00 0.100180101384D-04 0.171080769224D-07  6 1 -1 25 23 4 -4 4 0.26814077D-01 0.25543397D-01 0.23497354D+05 0.23497354D+05 0.23497354D+05 0.12261945D+01  1  2 11  7  6  5       21 0.172525910534D-05 0.100000000000D+01
0.111268742893D-05 0.000000000000D+00 0.000000000000D+00 0.100180101384D-04 0.000000000000D+00  6 1 -1 25 23 3 -3 4 0.26814077D-01 0.25543397D-01 0.23497354D+05 0.23497354D+05 0.23497354D+05 0.12261945D+01  1  2 12  8  6  5       21 0.577272904329D-03 0.100000000000D+01
0.103420946010D-05 0.000000000000D+00 0.000000000000D+00 0.100180101384D-04 0.000000000000D+00  6 1 -1 25 23 3 -3 4 0.26814077D-01 0.25543397D-01 0.23497354D+05 0.23497354D+05 0.23497354D+05 0.12261945D+01  1  2 12  8  6  5       21 0.536557781816D-03 0.100000000000D+01
0.333124383689D-08 0.000000000000D+00 0.000000000000D+00 0.100180101384D-04 0.171380450823D-07  6 1 -1 25 23 3 -3 4 0.26814077D-01 0.25543397D-01 0.23497354D+05 0.23497354D+05 0.23497354D+05 0.12261945D+01  1  2 11  8  6  5       21 0.172828123582D-05 0.100000000000D+01
  </mgrwgt>
  </event>
  <event>
  5     66 0.42989208E-03 0.26554024E+02 0.75467711E-02 0.11532752E+00
        1 -1    0    0  502    0 0.00000000E+00 0.00000000E+00 0.13227416E+03 0.13227454E+03 0.32000000E+00 0.0000E+00 0.9000E+01
       -1 -1    0    0    0  501 0.00000000E+00 0.00000000E+00 -.24882630E+03 0.24882650E+03 0.32000000E+00 0.0000E+00 0.9000E+01
       25  1    1    2    0    0 -.49967867E+02 -.91673290E+02 -.71221908E+02 0.17775922E+03 0.12500000E+03 0.0000E+00 0.9000E+01
       23  1    1    2    0    0 0.60068713E+02 0.67117688E+02 0.22828594E+02 0.13018998E+03 0.91188000E+02 0.0000E+00 0.9000E+01
       21  1    1    2  502  501 -.10100846E+02 0.24555602E+02 -.68158828E+02 0.73151849E+02 0.75000000E+00 0.0000E+00 0.9000E+01
#aMCatNLO 1  0  0  2  2 0.71964025D+02 0.00000000D+00  -5  6  0 0.00000000D+00 0.00000000D+00 0.00000000D+00 0.00000000D+00 0.00000000D+00
  <mgrwgt>
 0.8395672445D-01    7    4    0
 0.181420510201241D+03 0.000000000000000D+00 0.000000000000000D+00 0.181420510201241D+03
 0.181420510201241D+03 0.000000000000000D+00 0.000000000000000D+00 -.181420510201241D+03
 0.163827237630800D+03 -.499674422547706D+02 -.916743235671749D+02 -.177041493090095D+02
 0.144075375746892D+03 0.600690872061392D+02 0.671167793369565D+02 0.657989760274716D+02
 0.549384070247904D+02 -.101016449513686D+02 0.245575442302184D+02 -.480948267184621D+02
 0.000000000000000D+00 -.000000000000000D+00 0.000000000000000D+00 -.000000000000000D+00
 0.208054467711588D+03 0.000000000000000D+00 0.000000000000000D+00 0.208054467711588D+03
 0.241001864765159D+03 0.000000000000000D+00 0.000000000000000D+00 -.241001864765159D+03
 0.172248720894502D+03 -.259159474871764D+02 -.114278382088995D+03 -.177041493090095D+02
 0.146446957156117D+03 0.808605070992701D+02 0.475766020399814D+02 0.657989760274716D+02
 0.512129957890700D+02 -.250485070118387D+01 0.174179305193581D+02 -.480948267184621D+02
 0.791476586370584D+02 -.524397089109098D+02 0.492838495296552D+02 -.329473970535713D+02
 0.181420510201241D+03 0.000000000000000D+00 0.000000000000000D+00 0.181420510201241D+03
 0.181420510201241D+03 0.000000000000000D+00 0.000000000000000D+00 -.181420510201241D+03
 0.163827237630800D+03 -.499674422547706D+02 -.916743235671749D+02 -.177041493090095D+02
 0.144075375746892D+03 0.600690872061392D+02 0.671167793369565D+02 0.657989760274716D+02
 0.000000000000000D+00 -.000000000000000D+00 0.000000000000000D+00 -.000000000000000D+00
 0.549384070247904D+02 -.101016449513686D+02 0.245575442302184D+02 -.480948267184621D+02
 0.208054467711588D+03 0.000000000000000D+00 0.000000000000000D+00 0.208054467711588D+03
 0.241001864765159D+03 0.000000000000000D+00 0.000000000000000D+00 -.241001864765159D+03
 0.172248720894502D+03 -.259159474871764D+02 -.114278382088995D+03 -.177041493090095D+02
 0.146446957156117D+03 0.808605070992701D+02 0.475766020399814D+02 0.657989760274716D+02
 0.791476586370584D+02 -.524397089109098D+02 0.492838495296552D+02 -.329473970535713D+02
 0.512129957890700D+02 -.250485070118387D+01 0.174179305193581D+02 -.480948267184621D+02
0.171672940240D-03 0.000000000000D+00 0.000000000000D+00 0.191777697989D-04 0.000000000000D+00  6 1 -1 25 23 21 21 2 0.20349916D-01 0.38281015D-01 0.25216554D+05 0.25216554D+05 0.25216554D+05 0.12228963D+01  1  2  2  2  6  2       -1 0.421022784770D-01 0.100000000000D+01
0.234991071370D-04 0.905942995027D-05 -.659269293047D-06 0.191777697989D-04 0.000000000000D+00  6 1 -1 25 23 21 21 4 0.20349916D-01 0.38281015D-01 0.25216554D+05 0.25216554D+05 0.25216554D+05 0.12228963D+01  1  2  3  2  6  2       -1 0.861855282993D-02 0.100000000000D+01
0.339844277801D-05 0.000000000000D+00 0.000000000000D+00 0.191777697989D-04 0.000000000000D+00  6 1 -1 25 23 21 21 4 0.20349916D-01 0.38281015D-01 0.25216554D+05 0.25216554D+05 0.25216554D+05 0.12228963D+01  1  2 15  2  6  2       -1 0.124641580852D-02 0.100000000000D+01
-.254538838643D-04 0.000000000000D+00 0.000000000000D+00 0.191777697989D-04 0.000000000000D+00  6 1 -1 25 23 21 21 4 0.20349916D-01 0.38281015D-01 0.25216554D+05 0.25216554D+05 0.25216554D+05 0.12228963D+01  1  2  4  2  6  2       -1 -.933548843077D-02 0.100000000000D+01
-.236305601548D-03 0.000000000000D+00 -.101954196738D-03 0.191777697989D-04 0.000000000000D+00  6 1 -1 25 23 21 21 4 0.20349916D-01 0.57259696D-01 0.25216554D+05 0.25216554D+05 0.25216554D+05 0.12228963D+01  1  2  5  2  6  2       -1 -.417887912675D-01 0.100000000000D+01
0.263451819751D-03 0.000000000000D+00 0.942134555485D-04 0.191777697989D-04 0.000000000000D+00  6 1 -1 25 23 21 21 4 0.20349916D-01 0.38281015D-01 0.25216554D+05 0.25216554D+05 0.25216554D+05 0.12228963D+01  1  2  6  2  6  2       -1 0.966238169571D-01 0.100000000000D+01
-.779156628868D-05 0.000000000000D+00 -.487652714204D-05 0.191777697989D-04 0.000000000000D+00  6 1 21 25 23 1 21 4 0.20349916D-01 0.57259696D-01 0.25216554D+05 0.25216554D+05 0.25216554D+05 0.12228963D+01  3  4  5  5  5  2       -1 -.135100599228D-01 0.100000000000D+01
  </mgrwgt>
  </event>
  <event>
  5     66 0.42989208E-03 0.28127022E+02 0.75467711E-02 0.94155813E-01
        1 -1    0    0  502    0 0.00000000E+00 0.00000000E+00 0.61487432E+03 0.61487440E+03 0.32000000E+00 0.0000E+00 0.9000E+01
       -1 -1    0    0    0  501 0.00000000E+00 0.00000000E+00 -.82874563E+02 0.82875181E+02 0.32000000E+00 0.0000E+00 0.9000E+01
       25  1    1    2    0    0 -.10638688E+01 0.14324870E+01 0.10001746E+02 0.12541220E+03 0.12500000E+03 0.0000E+00 0.9000E+01
       23  1    1    2    0    0 0.12380799E+01 -.29558794E+02 0.68159431E+02 0.11762744E+03 0.91188000E+02 0.0000E+00 0.9000E+01
       21  1    1    2  502  501 -.17421104E+00 0.28126307E+02 0.45383858E+03 0.45470995E+03 0.75000000E+00 0.0000E+00 0.9000E+01
#aMCatNLO 1  0  0  1  1 0.43237036D+02 0.00000000D+00  -5  6  0 0.00000000D+00 0.00000000D+00 0.00000000D+00 0.00000000D+00 0.00000000D+00
  <mgrwgt>
 0.1059654160D+00    3    2    0
 0.225738090236023D+03 0.000000000000000D+00 0.000000000000000D+00 0.225738090236023D+03
 0.225738090236023D+03 0.000000000000000D+00 0.000000000000000D+00 -.225738090236023D+03
 0.182037507940224D+03 -.106386814821344D+01 0.143237397742845D+01 -.132323356919477D+03
 0.101475474170719D+03 0.123808027910904D+01 -.295588567483469D+02 -.332680275809301D+02
 0.167963198361102D+03 -.174212130895602D+00 0.281264827709185D+02 0.165591384500407D+03
 0.000000000000000D+00 0.000000000000000D+00 0.000000000000000D+00 -.000000000000000D+00
 0.740046990076331D+03 0.000000000000000D+00 0.000000000000000D+00 0.740046990076331D+03
 0.131679432315206D+04 0.000000000000000D+00 0.000000000000000D+00 -.131679432315206D+04
 0.400715355713625D+03 -.186654007182690D+03 -.304300192443090D+03 -.132323356919477D+03
 0.272605794486078D+03 -.117896117062986D+03 -.225814994554682D+03 -.332680275809301D+02
 0.323787721726017D+03 -.156782831875938D+03 -.229863276207237D+03 0.165591384500407D+03
 0.105973244130267D+04 0.461332956121614D+03 0.759978463205009D+03 -.576747333075730D+03
0.367906591327D-03 0.000000000000D+00 0.000000000000D+00 0.469393999913D-04 0.000000000000D+00  6 1 -1 25 23 21 21 2 0.94596103D-01 0.12749987D-01 0.15501110D+05 0.15501110D+05 0.15501110D+05 0.12461988D+01  1  2  2  1  6  1        1 0.800684531103D-01 0.100000000000D+01
0.598596508015D-04 0.194149642204D-04 -.141285818273D-05 0.469393999913D-04 0.000000000000D+00  6 1 -1 25 23 21 21 4 0.94596103D-01 0.12749987D-01 0.15501110D+05 0.15501110D+05 0.15501110D+05 0.12461988D+01  1  2  3  1  6  1        1 0.202317166628D-01 0.100000000000D+01
0.167617838189D-04 0.000000000000D+00 0.000000000000D+00 0.469393999913D-04 0.000000000000D+00  6 1 -1 25 23 21 21 4 0.94596103D-01 0.12749987D-01 0.15501110D+05 0.15501110D+05 0.15501110D+05 0.12461988D+01  1  2 15  1  6  1        1 0.566524622928D-02 0.100000000000D+01
  </mgrwgt>
  </event>
  <event>
  5     66 0.42989208E-03 0.21063162E+02 0.75467711E-02 0.11820291E+00
        3 -1    0    0  502    0 0.00000000E+00 0.00000000E+00 0.20176814E+03 0.20176876E+03 0.50000000E+00 0.0000E+00 0.9000E+01
       -3 -1    0    0    0  501 0.00000000E+00 0.00000000E+00 -.83634638E+02 0.83636132E+02 0.50000000E+00 0.0000E+00 0.9000E+01
       25  1    1    2    0    0 -.15363916E+02 -.32115862E+02 0.11117339E+03 0.17103216E+03 0.12500000E+03 0.0000E+00 0.9000E+01
       23  1    1    2    0    0 0.99227072E+01 0.11780006E+02 0.10146644E+01 0.92485186E+02 0.91188000E+02 0.0000E+00 0.9000E+01
       21  1    1    2  502  501 0.54412085E+01 0.20335856E+02 0.59454534E+01 0.21887546E+02 0.75000000E+00 0.0000E+00 0.9000E+01
#aMCatNLO 1  0  0  1  2 0.64731400D+00 0.00000000D+00  -5  6  0 0.00000000D+00 0.00000000D+00 0.00000000D+00 0.00000000D+00 0.00000000D+00
  <mgrwgt>
 0.5107047362D-01    7    4    0
 0.129904222771004D+03 0.000000000000000D+00 0.000000000000000D+00 0.129904222771004D+03
 0.129904222771004D+03 0.000000000000000D+00 0.000000000000000D+00 -.129904222771004D+03
 0.137334501577145D+03 -.153656936690557D+02 -.321225063868034D+02 0.443599522648678D+02
 0.101134474585868D+03 0.992139792626586D+01 0.117751126554182D+02 -.409370637796672D+02
 0.213394693789957D+02 0.544429574278979D+01 0.203473937313853D+02 -.342288848520060D+01
 0.000000000000000D+00 0.000000000000000D+00 -.000000000000000D+00 0.000000000000000D+00
 0.197987915293749D+03 0.000000000000000D+00 0.000000000000000D+00 0.197987915293749D+03
 0.159067774340389D+03 0.000000000000000D+00 0.000000000000000D+00 -.159067774340389D+03
 0.143903475515541D+03 -.531643449520265D+02 -.169987448457955D+02 0.443599522648678D+02
 0.104033395858367D+03 -.176533587604372D+02 0.228081530027836D+02 -.409370637796672D+02
 0.229934374267751D+02 -.514089045902944D+00 0.227314256387448D+02 -.342288848520060D+01
 0.861253808334548D+02 0.713317927583667D+02 -.285408337957329D+02 0.389201409533600D+02
 0.129904222771004D+03 0.000000000000000D+00 0.000000000000000D+00 0.129904222771004D+03
 0.129904222771004D+03 0.000000000000000D+00 0.000000000000000D+00 -.129904222771004D+03
 0.137334501577145D+03 -.153656936690557D+02 -.321225063868034D+02 0.443599522648678D+02
 0.101134474585868D+03 0.992139792626586D+01 0.117751126554182D+02 -.409370637796672D+02
 0.000000000000000D+00 0.000000000000000D+00 -.000000000000000D+00 0.000000000000000D+00
 0.213394693789957D+02 0.544429574278979D+01 0.203473937313853D+02 -.342288848520060D+01
 0.197987915293749D+03 0.000000000000000D+00 0.000000000000000D+00 0.197987915293749D+03
 0.159067774340389D+03 0.000000000000000D+00 0.000000000000000D+00 -.159067774340389D+03
 0.143903475515541D+03 -.531643449520265D+02 -.169987448457955D+02 0.443599522648678D+02
 0.104033395858367D+03 -.176533587604372D+02 0.228081530027836D+02 -.409370637796672D+02
 0.861253808334548D+02 0.713317927583667D+02 -.285408337957329D+02 0.389201409533600D+02
 0.229934374267751D+02 -.514089045902944D+00 0.227314256387448D+02 -.342288848520060D+01
0.116118207928D-03 0.000000000000D+00 0.000000000000D+00 0.371625887986D-04 0.000000000000D+00  6 3 -3 25 23 21 21 2 0.31041415D-01 0.12867030D-01 0.14824881D+05 0.14824881D+05 0.14824881D+05 0.12484044D+01  1  2  2  1  6  1        3 0.199142874151D-01 0.100000000000D+01
0.229045944171D-04 0.612772618211D-05 -.445924493069D-06 0.371625887986D-04 0.000000000000D+00  6 3 -3 25 23 21 21 4 0.31041415D-01 0.12867030D-01 0.14824881D+05 0.14824881D+05 0.14824881D+05 0.12484044D+01  1  2  3  1  6  1        3 0.612206035751D-02 0.100000000000D+01
0.557960188062D-05 0.000000000000D+00 0.000000000000D+00 0.371625887986D-04 0.000000000000D+00  6 3 -3 25 23 21 21 4 0.31041415D-01 0.12867030D-01 0.14824881D+05 0.14824881D+05 0.14824881D+05 0.12484044D+01  1  2 15  1  6  1        3 0.149134531099D-02 0.100000000000D+01
-.221586248348D-04 0.000000000000D+00 0.000000000000D+00 0.371625887986D-04 0.000000000000D+00  6 3 -3 25 23 21 21 4 0.31041415D-01 0.12867030D-01 0.14824881D+05 0.14824881D+05 0.14824881D+05 0.12484044D+01  1  2  4  1  6  1        3 -.592267368754D-02 0.100000000000D+01
-.149502009058D-03 0.000000000000D+00 -.946033563288D-04 0.371625887986D-04 0.000000000000D+00  6 3 -3 25 23 21 21 4 0.56509240D-01 0.12867030D-01 0.14824881D+05 0.14824881D+05 0.14824881D+05 0.12484044D+01  1  2  5  1  6  1        3 -.125218949509D-01 0.100000000000D+01
0.186464653355D-03 0.000000000000D+00 0.798420611021D-04 0.371625887986D-04 0.000000000000D+00  6 3 -3 25 23 21 21 4 0.31041415D-01 0.12867030D-01 0.14824881D+05 0.14824881D+05 0.14824881D+05 0.12484044D+01  1  2  6  1  6  1        3 0.498392524047D-01 0.100000000000D+01
-.468546976259D-05 0.000000000000D+00 -.620094424254D-05 0.371625887986D-04 0.000000000000D+00  6 21 -3 25 23 -3 21 4 0.56509240D-01 0.12867030D-01 0.14824881D+05 0.14824881D+05 0.14824881D+05 0.12484044D+01  3  4  5  4  5  1        3 -.785190322594D-02 0.100000000000D+01
  </mgrwgt>
  </event>
  <event>
  5     66 -.42989208E-03 0.33345360E+02 0.75467711E-02 0.12201562E+00
        3 -1    0    0  502    0 0.00000000E+00 0.00000000E+00 0.11610291E+03 0.11610399E+03 0.50000000E+00 0.0000E+00 0.9000E+01
       -3 -1    0    0    0  501 0.00000000E+00 0.00000000E+00 -.22310397E+03 0.22310453E+03 0.50000000E+00 0.0000E+00 0.9000E+01
       25  1    1    2    0    0 0.30971714E+02 0.50973351E+02 -.59945340E+02 0.15091711E+03 0.12500000E+03 0.0000E+00 0.9000E+01
       23  1    1    2    0    0 -.91063876E+00 -.36546944E+02 0.31319601E+02 0.10311487E+03 0.91188000E+02 0.0000E+00 0.9000E+01
       21  1    1    2  502  501 -.30061075E+02 -.14426406E+02 -.78375320E+02 0.85176538E+02 0.75000000E+00 0.0000E+00 0.9000E+01
#aMCatNLO 1  0  0  2  5 0.20663652D+02 0.00000000D+00  -5  6  0 0.00000000D+00 0.00000000D+00 0.00000000D+00 0.00000000D+00 0.00000000D+00
  <mgrwgt>
 -.3302008005D-03    1    2    0
 0.160945016148070D+03 0.000000000000000D+00 0.000000000000000D+00 0.160945016148070D+03
 0.160945016148070D+03 0.000000000000000D+00 0.000000000000000D+00 -.160945016148070D+03
 0.139110304053814D+03 0.309726141119324D+02 0.509737827723891D+02 -.130018205990958D+02
 0.119074481515668D+03 -.909868050307022D+00 -.365465745640190D+02 0.672829906588048D+02
 0.637052467266590D+02 -.300627460616254D+02 -.144272082083702D+02 -.542811700597091D+02
 0.000000000000000D+00 -.000000000000000D+00 -.000000000000000D+00 -.000000000000000D+00
 0.175354622869524D+03 0.000000000000000D+00 0.000000000000000D+00 0.175354622869524D+03
 0.304944368729068D+03 0.000000000000000D+00 0.000000000000000D+00 -.304944368729068D+03
 0.153937140625243D+03 0.623301338388872D+02 0.633841489696848D+02 -.130018205990958D+02
 0.118936416310695D+03 0.245584701295201D+02 -.264669698631240D+02 0.672829906588048D+02
 0.576568184595293D+02 -.170764074250686D+02 -.928760471150232D+01 -.542811700597091D+02
 0.149768616203125D+03 -.698121965433386D+02 -.276295743950585D+02 -.129589745859544D+03
-.265561612739D-05 0.000000000000D+00 0.000000000000D+00 0.153215100244D-04 0.000000000000D+00  6 3 -3 25 23 21 21 4 0.17862112D-01 0.34323814D-01 0.18237146D+05 0.18237146D+05 0.18237146D+05 0.12382623D+01  1  2 14  2  6  2       -3 -.330200800472D-03 0.100000000000D+01
  </mgrwgt>
  </event>
  <event>
  5     66 0.42989208E-03 0.11399741E+03 0.75467711E-02 0.10974155E+00
        1 -1    0    0  502    0 0.00000000E+00 0.00000000E+00 0.15655245E+04 0.15655245E+04 0.32000000E+00 0.0000E+00 0.9000E+01
       -1 -1    0    0    0  501 0.00000000E+00 0.00000000E+00 -.57971387E+02 0.57972270E+02 0.32000000E+00 0.0000E+00 0.9000E+01
       25  1    1    2    0    0 0.21892799E+03 0.10375011E+03 0.88364579E+03 0.92474236E+03 0.12500000E+03 0.0000E+00 0.9000E+01
       23  1    1    2    0    0 -.10553417E+03 -.92051503E+02 0.20431729E+03 0.26395406E+03 0.91188000E+02 0.0000E+00 0.9000E+01
       21  1    1    2  502  501 -.11339382E+03 -.11698604E+02 0.41959004E+03 0.43480039E+03 0.75000000E+00 0.0000E+00 0.9000E+01
#aMCatNLO 1  0  0  5  1 0.47745426D+01 0.00000000D+00  -5  6  0 0.00000000D+00 0.00000000D+00 0.00000000D+00 0.00000000D+00 0.00000000D+00
  <mgrwgt>
 0.4030767305D-02    1    2    0
 0.301257980959695D+03 0.000000000000000D+00 0.000000000000000D+00 0.301257980959695D+03
 0.301257980959695D+03 -.000000000000000D+00 -.000000000000000D+00 -.301257980959695D+03
 0.280778855827278D+03 0.218928989916333D+03 0.103750210444934D+03 0.672142625230780D+02
 0.200010054990336D+03 -.105533455777252D+03 -.920514289248680D+02 -.109899931291326D+03
 0.121727051101776D+03 -.113395534139081D+03 -.116987815200662D+02 0.426856687682481D+02
 0.000000000000000D+00 -.000000000000000D+00 0.000000000000000D+00 0.000000000000000D+00
 0.301257980959695D+03 0.000000000000000D+00 0.000000000000000D+00 0.301257980959695D+03
 0.301257980959695D+03 -.000000000000000D+00 -.000000000000000D+00 -.301257980959695D+03
 0.279730105082662D+03 0.217484672283891D+03 0.103601203197375D+03 0.677579494021304D+02
 0.200392734378562D+03 -.106565212357603D+03 -.921578731063524D+02 -.109511545452565D+03
 0.118119503101211D+03 -.108595571436029D+03 -.139420372197401D+02 0.443264985705248D+02
 0.427361935695579D+01 -.232388849025958D+01 0.249870712871705D+01 -.257290252008989D+01
0.448951315285D-04 0.000000000000D+00 0.000000000000D+00 0.720524427573D-06 0.000000000000D+00  6 1 -1 25 23 21 21 4 0.24085000D+00 0.89187454D-02 0.76652390D+05 0.76652390D+05 0.76652390D+05 0.11743308D+01  1  2 14  3  6  5       21 0.403076730470D-02 0.100000000000D+01
  </mgrwgt>
  </event>
  <event>
  5     66 0.42989208E-03 0.23048791E+02 0.75467711E-02 0.11143311E+00
        1 -1    0    0  502    0 0.00000000E+00 0.00000000E+00 0.33454909E+03 0.33454924E+03 0.32000000E+00 0.0000E+00 0.9000E+01
       -1 -1    0    0    0  501 0.00000000E+00 0.00000000E+00 -.11373453E+03 0.11373498E+03 0.32000000E+00 0.0000E+00 0.9000E+01
       25  1    1    2    0    0 0.12772093E+03 -.89262415E+01 0.90562610E+02 0.20054650E+03 0.12500000E+03 0.0000E+00 0.9000E+01
       23  1    1    2    0    0 -.14939697E+03 0.11068671E+01 0.13855364E+03 0.22323315E+03 0.91188000E+02 0.0000E+00 0.9000E+01
       21  1    1    2  502  501 0.21676039E+02 0.78193744E+01 -.83016955E+01 0.24504569E+02 0.75000000E+00 0.0000E+00 0.9000E+01
#aMCatNLO 1  0  0  2  5 0.10626915D+03 0.00000000D+00  -5  6  0 0.00000000D+00 0.00000000D+00 0.00000000D+00 0.00000000D+00 0.00000000D+00
  <mgrwgt>
 0.1679440858D+00    7    4    0
 0.195063886838297D+03 0.000000000000000D+00 0.000000000000000D+00 0.195063886838297D+03
 0.195063886838297D+03 0.000000000000000D+00 0.000000000000000D+00 -.195063886838297D+03
 0.179181116479865D+03 0.127718332831731D+03 -.892717754345339D+01 -.944486435910350D+01
 0.178091098638804D+03 -.149399545358499D+03 0.110593676878736D+01 0.328594099294747D+02
 0.328555585579242D+02 0.216812125267684D+02 0.782124077466604D+01 -.234145455703712D+02
 0.000000000000000D+00 0.000000000000000D+00 0.000000000000000D+00 -.000000000000000D+00
 0.228691698460354D+03 0.000000000000000D+00 0.000000000000000D+00 0.228691698460354D+03
 0.308627941960760D+03 0.000000000000000D+00 0.000000000000000D+00 -.308627941960760D+03
 0.181509327428597D+03 0.118581959263908D+03 -.563005276880468D+02 -.944486435910350D+01
 0.191990749094724D+03 -.158773805388581D+03 -.475008873124404D+02 0.328594099294747D+02
 0.308423670272488D+02 0.200677291271660D+02 -.544891966561995D+00 -.234145455703712D+02
 0.132977196870543D+03 0.201241169975068D+02 0.104346306967049D+03 -.799362435004057D+02
 0.195063886838297D+03 0.000000000000000D+00 0.000000000000000D+00 0.195063886838297D+03
 0.195063886838297D+03 0.000000000000000D+00 0.000000000000000D+00 -.195063886838297D+03
 0.179181116479865D+03 0.127718332831731D+03 -.892717754345339D+01 -.944486435910350D+01
 0.178091098638804D+03 -.149399545358499D+03 0.110593676878736D+01 0.328594099294747D+02
 0.000000000000000D+00 0.000000000000000D+00 0.000000000000000D+00 -.000000000000000D+00
 0.328555585579242D+02 0.216812125267684D+02 0.782124077466604D+01 -.234145455703712D+02
 0.228691698460354D+03 0.000000000000000D+00 0.000000000000000D+00 0.228691698460354D+03
 0.308627941960760D+03 0.000000000000000D+00 0.000000000000000D+00 -.308627941960760D+03
 0.181509327428597D+03 0.118581959263908D+03 -.563005276880468D+02 -.944486435910350D+01
 0.191990749094724D+03 -.158773805388581D+03 -.475008873124404D+02 0.328594099294747D+02
 0.132977196870543D+03 0.201241169975068D+02 0.104346306967049D+03 -.799362435004057D+02
 0.308423670272488D+02 0.200677291271660D+02 -.544891966561995D+00 -.234145455703712D+02
0.279256698744D-03 0.000000000000D+00 0.000000000000D+00 0.225405213437D-04 0.000000000000D+00  6 1 -1 25 23 21 21 2 0.51469137D-01 0.17497667D-01 0.35534933D+05 0.35534933D+05 0.35534933D+05 0.12072556D+01  1  2  2  2  6  2       -1 0.770096446413D-01 0.100000000000D+01
0.718402419831D-04 0.147367808629D-04 -.107241925315D-05 0.225405213437D-04 0.000000000000D+00  6 1 -1 25 23 21 21 4 0.51469137D-01 0.17497667D-01 0.35534933D+05 0.35534933D+05 0.35534933D+05 0.12072556D+01  1  2  3  2  6  2       -1 0.288740556102D-01 0.100000000000D+01
0.357610089783D-05 0.000000000000D+00 0.000000000000D+00 0.225405213437D-04 0.000000000000D+00  6 1 -1 25 23 21 21 4 0.51469137D-01 0.17497667D-01 0.35534933D+05 0.35534933D+05 0.35534933D+05 0.12072556D+01  1  2 15  2  6  2       -1 0.143730774481D-02 0.100000000000D+01
-.223252557367D-04 0.000000000000D+00 0.000000000000D+00 0.225405213437D-04 0.000000000000D+00  6 1 -1 25 23 21 21 4 0.51469137D-01 0.17497667D-01 0.35534933D+05 0.35534933D+05 0.35534933D+05 0.12072556D+01  1  2  4  2  6  2       -1 -.897297472641D-02 0.100000000000D+01
-.278317875461D-03 0.000000000000D+00 -.136003110108D-03 0.225405213437D-04 0.000000000000D+00  6 1 -1 25 23 21 21 4 0.51469137D-01 0.32002967D-01 0.35534933D+05 0.35534933D+05 0.35534933D+05 0.12072556D+01  1  2  5  2  6  2       -1 -.413394393177D-01 0.100000000000D+01
0.321534792493D-03 0.000000000000D+00 0.114493444151D-03 0.225405213437D-04 0.000000000000D+00  6 1 -1 25 23 21 21 4 0.51469137D-01 0.17497667D-01 0.35534933D+05 0.35534933D+05 0.35534933D+05 0.12072556D+01  1  2  6  2  6  2       -1 0.129231378163D+00 0.100000000000D+01
-.109676556375D-04 0.000000000000D+00 -.897591852955D-05 0.225405213437D-04 0.000000000000D+00  6 1 21 25 23 1 21 4 0.51469137D-01 0.32002967D-01 0.35534933D+05 0.35534933D+05 0.35534933D+05 0.12072556D+01  3  4  5  5  5  2       -1 -.182958863594D-01 0.100000000000D+01
  </mgrwgt>
  </event>
  <event>
  5     66 0.42989208E-03 0.12528211E+03 0.75467711E-02 0.10662932E+00
        1 -1    0    0  502    0 0.00000000E+00 0.00000000E+00 0.39628122E+03 0.39628135E+03 0.32000000E+00 0.0000E+00 0.9000E+01
       -1 -1    0    0    0  501 0.00000000E+00 0.00000000E+00 -.33928803E+03 0.33928818E+03 0.32000000E+00 0.0000E+00 0.9000E+01
       25  1    1    2    0    0 0.27048694E+03 0.15367111E+03 0.33168952E+02 0.33690232E+03 0.12500000E+03 0.0000E+00 0.9000E+01
       23  1    1    2    0    0 -.12263606E+03 -.32268461E+02 0.10775643E+03 0.18975657E+03 0.91188000E+02 0.0000E+00 0.9000E+01
       21  1    1    2  502  501 -.14785088E+03 -.12140265E+03 -.83932187E+02 0.20891065E+03 0.75000000E+00 0.0000E+00 0.9000E+01
#aMCatNLO 1  0  0  5  2 0.54525099D+01 0.00000000D+00  -5  6  0 0.00000000D+00 0.00000000D+00 0.00000000D+00 0.00000000D+00 0.00000000D+00
  <mgrwgt>
 0.7775031042D-02   25    2    0
 0.366679122872315D+03 0.000000000000000D+00 0.000000000000000D+00 0.366679122872315D+03
 0.366679122872315D+03 -.000000000000000D+00 -.000000000000000D+00 -.366679122872315D+03
 0.335340926757657D+03 0.270487342903174D+03 0.153671442718404D+03 0.708676094624778D+01
 0.181954308848991D+03 -.122635839076443D+03 -.322682790625979D+02 0.933344968651411D+02
 0.216063010137982D+03 -.147851503826731D+03 -.121403163655807D+03 -.100421257811389D+03
 0.000000000000000D+00 0.000000000000000D+00 -.000000000000000D+00 0.000000000000000D+00
 0.366679122872315D+03 0.000000000000000D+00 0.000000000000000D+00 0.366679122872315D+03
 0.366679122872315D+03 -.000000000000000D+00 -.000000000000000D+00 -.366679122872315D+03
 0.335088221604203D+03 0.270276230346646D+03 0.153498094922902D+03 0.694337256048470D+01
 0.182008382729671D+03 -.122750447897506D+03 -.323623861436881D+02 0.932566541535720D+02
 0.191055705723000D+03 -.130618579735439D+03 -.103881933121539D+03 -.930032971896285D+02
 0.252059356877571D+02 -.169072027137007D+02 -.172537756576756D+02 -.719672952442817D+01
0.367683231684D-04 0.000000000000D+00 0.000000000000D+00 0.307387418314D-06 0.000000000000D+00  6 1 -1 25 23 21 21 2 0.60966364D-01 0.52198180D-01 0.11654252D+06 0.11654252D+06 0.11654252D+06 0.11575132D+01  1  2  2  3  6  5       21 0.114763051217D-02 0.100000000000D+01
-.255217414680D-05 0.194031772082D-05 -.141200042289D-06 0.307387418314D-06 0.000000000000D+00  6 1 -1 25 23 21 21 4 0.60966364D-01 0.52198180D-01 0.11654252D+06 0.11654252D+06 0.11654252D+06 0.11575132D+01  1  2  3  3  6  5       21 -.106730977927D-03 0.100000000000D+01
0.715506607012D-06 0.000000000000D+00 0.000000000000D+00 0.307387418314D-06 0.000000000000D+00  6 1 -1 25 23 21 21 4 0.60966364D-01 0.52198180D-01 0.11654252D+06 0.11654252D+06 0.11654252D+06 0.11575132D+01  1  2 15  3  6  5       21 0.299222214031D-04 0.100000000000D+01
0.809340921502D-03 0.000000000000D+00 0.000000000000D+00 0.307411890338D-06 0.000000000000D+00  6 1 -1 25 23 21 21 4 0.60966364D-01 0.52198180D-01 0.11640582D+06 0.11640582D+06 0.11640582D+06 0.11575593D+01  1  2 12  3  6  5       21 0.338523092448D-01 0.100000000000D+01
0.801423592609D-03 0.000000000000D+00 0.000000000000D+00 0.307411890338D-06 0.000000000000D+00  6 1 -1 25 23 21 21 4 0.60966364D-01 0.52198180D-01 0.11640582D+06 0.11640582D+06 0.11640582D+06 0.11575593D+01  1  2 12  3  6  5       21 0.335211510654D-01 0.100000000000D+01
-.308411306995D-02 0.000000000000D+00 0.000000000000D+00 0.307387418314D-06 0.000000000000D+00  6 1 -1 25 23 21 21 4 0.60966364D-01 0.52198180D-01 0.11654252D+06 0.11654252D+06 0.11654252D+06 0.11575132D+01  1  2  4  3  6  5       21 -.128976466754D+00 0.100000000000D+01
-.303100594131D-02 0.000000000000D+00 0.000000000000D+00 0.307387418314D-06 0.000000000000D+00  6 1 -1 25 23 21 21 4 0.60966364D-01 0.52198180D-01 0.11654252D+06 0.11654252D+06 0.11654252D+06 0.11575132D+01  1  2  5  3  6  5       21 -.126755546296D+00 0.100000000000D+01
0.335933487739D-02 0.000000000000D+00 -.000000000000D+00 0.307387418314D-06 0.000000000000D+00  6 1 -1 25 23 21 21 4 0.60966364D-01 0.52198180D-01 0.11654252D+06 0.11654252D+06 0.11654252D+06 0.11575132D+01  1  2  6  3  6  5       21 0.140486140845D+00 0.100000000000D+01
0.130517808299D-02 0.000000000000D+00 0.000000000000D+00 0.307387418314D-06 0.634375749761D-07  6 1 -1 25 23 21 21 4 0.60966364D-01 0.52198180D-01 0.11640582D+06 0.11640582D+06 0.11640582D+06 0.11575593D+01  1  2 11  3  6  5       21 0.545916941934D-01 0.100000000000D+01
0.740797894512D-05 0.000000000000D+00 0.000000000000D+00 0.307411890338D-06 0.000000000000D+00  6 1 -1 25 23 1 -1 4 0.60966364D-01 0.52198180D-01 0.11640582D+06 0.11640582D+06 0.11640582D+06 0.11575593D+01  1  2 12  6  6  5       21 0.309853595026D-03 0.100000000000D+01
0.737269096376D-05 0.000000000000D+00 0.000000000000D+00 0.307411890338D-06 0.000000000000D+00  6 1 -1 25 23 1 -1 4 0.60966364D-01 0.52198180D-01 0.11640582D+06 0.11640582D+06 0.11640582D+06 0.11575593D+01  1  2 12  6  6  5       21 0.308377604345D-03 0.100000000000D+01
-.252861306569D-04 0.000000000000D+00 0.000000000000D+00 0.307387418314D-06 0.000000000000D+00  6 1 -1 25 23 1 -1 4 0.60966364D-01 0.52198180D-01 0.11654252D+06 0.11654252D+06 0.11654252D+06 0.11575132D+01  1  2  5  6  6  5       21 -.105745662238D-02 0.100000000000D+01
0.105089582816D-04 0.000000000000D+00 0.000000000000D+00 0.307387418314D-06 0.100496813667D-08  6 1 -1 25 23 1 -1 4 0.60966364D-01 0.52198180D-01 0.11640582D+06 0.11640582D+06 0.11640582D+06 0.11575593D+01  1  2 11  6  6  5       21 0.439558282719D-03 0.100000000000D+01
0.740797894512D-05 0.000000000000D+00 0.000000000000D+00 0.307411890338D-06 0.000000000000D+00  6 1 -1 25 23 2 -2 4 0.60966364D-01 0.52198180D-01 0.11640582D+06 0.11640582D+06 0.11640582D+06 0.11575593D+01  1  2 12  7  6  5       21 0.309853595026D-03 0.100000000000D+01
0.740797894512D-05 0.000000000000D+00 0.000000000000D+00 0.307411890338D-06 0.000000000000D+00  6 1 -1 25 23 4 -4 4 0.60966364D-01 0.52198180D-01 0.11640582D+06 0.11640582D+06 0.11640582D+06 0.11575593D+01  1  2 12  7  6  5       21 0.309853595026D-03 0.100000000000D+01
0.737269096376D-05 0.000000000000D+00 0.000000000000D+00 0.307411890338D-06 0.000000000000D+00  6 1 -1 25 23 2 -2 4 0.60966364D-01 0.52198180D-01 0.11640582D+06 0.11640582D+06 0.11640582D+06 0.11575593D+01  1  2 12  7  6  5       21 0.308377604345D-03 0.100000000000D+01
0.737269096376D-05 0.000000000000D+00 0.000000000000D+00 0.307411890338D-06 0.000000000000D+00  6 1 -1 25 23 4 -4 4 0.60966364D-01 0.52198180D-01 0.11640582D+06 0.11640582D+06 0.11640582D+06 0.11575593D+01  1  2 12  7  6  5       21 0.308377604345D-03 0.100000000000D+01
-.252861306569D-04 0.000000000000D+00 0.000000000000D+00 0.307387418314D-06 0.000000000000D+00  6 1 -1 25 23 2 -2 4 0.60966364D-01 0.52198180D-01 0.11654252D+06 0.11654252D+06 0.11654252D+06 0.11575132D+01  1  2  5  7  6  5       21 -.105745662238D-02 0.100000000000D+01
-.252861306569D-04 0.000000000000D+00 0.000000000000D+00 0.307387418314D-06 0.000000000000D+00  6 1 -1 25 23 4 -4 4 0.60966364D-01 0.52198180D-01 0.11654252D+06 0.11654252D+06 0.11654252D+06 0.11575132D+01  1  2  5  7  6  5       21 -.105745662238D-02 0.100000000000D+01
0.103870986888D-04 0.000000000000D+00 0.000000000000D+00 0.307387418314D-06 0.990019433842D-09  6 1 -1 25 23 2 -2 4 0.60966364D-01 0.52198180D-01 0.11640582D+06 0.11640582D+06 0.11640582D+06 0.11575593D+01  1  2 11  7  6  5       21 0.434461260549D-03 0.100000000000D+01
0.103870986888D-04 0.000000000000D+00 0.000000000000D+00 0.307387418314D-06 0.990019433842D-09  6 1 -1 25 23 4 -4 4 0.60966364D-01 0.52198180D-01 0.11640582D+06 0.11640582D+06 0.11640582D+06 0.11575593D+01  1  2 11  7  6  5       21 0.434461260549D-03 0.100000000000D+01
0.740797894512D-05 0.000000000000D+00 0.000000000000D+00 0.307411890338D-06 0.000000000000D+00  6 1 -1 25 23 3 -3 4 0.60966364D-01 0.52198180D-01 0.11640582D+06 0.11640582D+06 0.11640582D+06 0.11575593D+01  1  2 12  8  6  5       21 0.309853595026D-03 0.100000000000D+01
0.737269096376D-05 0.000000000000D+00 0.000000000000D+00 0.307411890338D-06 0.000000000000D+00  6 1 -1 25 23 3 -3 4 0.60966364D-01 0.52198180D-01 0.11640582D+06 0.11640582D+06 0.11640582D+06 0.11575593D+01  1  2 12  8  6  5       21 0.308377604345D-03 0.100000000000D+01
-.252861306569D-04 0.000000000000D+00 0.000000000000D+00 0.307387418314D-06 0.000000000000D+00  6 1 -1 25 23 3 -3 4 0.60966364D-01 0.52198180D-01 0.11654252D+06 0.11654252D+06 0.11654252D+06 0.11575132D+01  1  2  5  8  6  5       21 -.105745662238D-02 0.100000000000D+01
0.103604798793D-04 0.000000000000D+00 0.000000000000D+00 0.307387418314D-06 0.987482330892D-09  6 1 -1 25 23 3 -3 4 0.60966364D-01 0.52198180D-01 0.11640582D+06 0.11640582D+06 0.11640582D+06 0.11575593D+01  1  2 11  8  6  5       21 0.433347875389D-03 0.100000000000D+01
  </mgrwgt>
  </event>
  <event>
  5     66 0.42989208E-03 0.78444626E+02 0.75467711E-02 0.11734747E+00
        1 -1    0    0  502    0 0.00000000E+00 0.00000000E+00 0.46176270E+02 0.46177379E+02 0.32000000E+00 0.0000E+00 0.9000E+01
       -1 -1    0    0    0  501 0.00000000E+00 0.00000000E+00 -.78486892E+03 0.78486898E+03 0.32000000E+00 0.0000E+00 0.9000E+01
       25  1    1    2    0    0 -.19380876E+02 0.32934584E+02 -.14870935E+03 0.19798934E+03 0.12500000E+03 0.0000E+00 0.9000E+01
       23  1    1    2    0    0 0.19185870E+02 0.45508873E+02 -.12933511E+03 0.16577689E+03 0.91188000E+02 0.0000E+00 0.9000E+01
       21  1    1    2  502  501 0.19500579E+00 -.78443457E+02 -.46064818E+03 0.46728013E+03 0.75000000E+00 0.0000E+00 0.9000E+01
#aMCatNLO 1  0  0  2  5 0.33041980D+02 0.00000000D+00  -5  6  0 0.00000000D+00 0.00000000D+00 0.00000000D+00 0.00000000D+00 0.00000000D+00
  <mgrwgt>
 0.6058771798D-02    7    4    0
 0.190375436606162D+03 0.000000000000000D+00 0.000000000000000D+00 0.190375436606162D+03
 0.190375436606162D+03 0.000000000000000D+00 0.000000000000000D+00 -.190375436606162D+03
 0.143631871278057D+03 -.193808773703647D+02 0.329351067017079D+02 0.595380112679137D+02
 0.110911151561652D+03 0.191858692778535D+02 0.455092764406068D+02 0.393298916174115D+02
 0.126207850372615D+03 0.195008092511158D+00 -.784443831423147D+02 -.988679028853251D+02
 0.000000000000000D+00 0.000000000000000D+00 0.000000000000000D+00 -.000000000000000D+00
 0.199190830094548D+03 0.000000000000000D+00 0.000000000000000D+00 0.199190830094548D+03
 0.224788114061526D+03 0.000000000000000D+00 0.000000000000000D+00 -.224788114061526D+03
 0.145149950132273D+03 -.315514027613110D+02 0.300539884450753D+02 0.595380112679137D+02
 0.108798030254660D+03 0.992636615933828D+01 0.433172820422428D+02 0.393298916174115D+02
 0.128233913384027D+03 -.105282775048786D+02 -.809828975378155D+02 -.988679028853251D+02
 0.417970503851149D+02 0.321533141068513D+02 0.761162705049740D+01 -.255972839669784D+02
 0.190375436606162D+03 0.000000000000000D+00 0.000000000000000D+00 0.190375436606162D+03
 0.190375436606162D+03 0.000000000000000D+00 0.000000000000000D+00 -.190375436606162D+03
 0.143631871278057D+03 -.193808773703647D+02 0.329351067017079D+02 0.595380112679137D+02
 0.110911151561652D+03 0.191858692778535D+02 0.455092764406068D+02 0.393298916174115D+02
 0.000000000000000D+00 0.000000000000000D+00 0.000000000000000D+00 -.000000000000000D+00
 0.126207850372615D+03 0.195008092511158D+00 -.784443831423147D+02 -.988679028853251D+02
 0.199190830094548D+03 0.000000000000000D+00 0.000000000000000D+00 0.199190830094548D+03
 0.224788114061526D+03 0.000000000000000D+00 0.000000000000000D+00 -.224788114061526D+03
 0.145149950132273D+03 -.315514027613110D+02 0.300539884450753D+02 0.595380112679137D+02
 0.108798030254660D+03 0.992636615933828D+01 0.433172820422428D+02 0.393298916174115D+02
 0.417970503851149D+02 0.321533141068513D+02 0.761162705049740D+01 -.255972839669784D+02
 0.128233913384027D+03 -.105282775048786D+02 -.809828975378155D+02 -.988679028853251D+02
0.535640852834D-04 0.000000000000D+00 0.000000000000D+00 0.473421437396D-05 0.000000000000D+00  6 1 -1 25 23 21 21 2 0.71041319D-02 0.12074915D+00 0.24470213D+05 0.24470213D+05 0.24470213D+05 0.12242962D+01  1  2  2  2  6  2       -1 0.531925031991D-02 0.100000000000D+01
-.249964712580D-05 0.282665443835D-05 -.205700191236D-06 0.473421437396D-05 0.000000000000D+00  6 1 -1 25 23 21 21 4 0.71041319D-02 0.12074915D+00 0.24470213D+05 0.24470213D+05 0.24470213D+05 0.12242962D+01  1  2  3  2  6  2       -1 -.372073256545D-03 0.100000000000D+01
0.205213834391D-05 0.000000000000D+00 0.000000000000D+00 0.473421437396D-05 0.000000000000D+00  6 1 -1 25 23 21 21 4 0.71041319D-02 0.12074915D+00 0.24470213D+05 0.24470213D+05 0.24470213D+05 0.12242962D+01  1  2 15  2  6  2       -1 0.305461434384D-03 0.100000000000D+01
-.581216253529D-04 0.000000000000D+00 0.000000000000D+00 0.473421437396D-05 0.000000000000D+00  6 1 -1 25 23 21 21 4 0.71041319D-02 0.12074915D+00 0.24470213D+05 0.24470213D+05 0.24470213D+05 0.12242962D+01  1  2  4  2  6  2       -1 -.865142211376D-02 0.100000000000D+01
-.233589166129D-03 0.000000000000D+00 -.516408527021D-04 0.473421437396D-05 0.000000000000D+00  6 1 -1 25 23 21 21 4 0.71041319D-02 0.14649127D+00 0.24470213D+05 0.24470213D+05 0.24470213D+05 0.12242962D+01  1  2  5  2  6  2       -1 -.216026941436D-01 0.100000000000D+01
0.240022415637D-03 0.000000000000D+00 0.506913491589D-04 0.473421437396D-05 0.000000000000D+00  6 1 -1 25 23 21 21 4 0.71041319D-02 0.12074915D+00 0.24470213D+05 0.24470213D+05 0.24470213D+05 0.12242962D+01  1  2  6  2  6  2       -1 0.357274116446D-01 0.100000000000D+01
-.594978872410D-05 0.000000000000D+00 -.143927136798D-05 0.473421437396D-05 0.000000000000D+00  6 1 21 25 23 1 21 4 0.71041319D-02 0.14649127D+00 0.24470213D+05 0.24470213D+05 0.24470213D+05 0.12242962D+01  3  4  5  5  5  2       -1 -.466716208710D-02 0.100000000000D+01
  </mgrwgt>
  </event>
  <event>
  5     66 0.42989208E-03 0.55819161E+02 0.75467711E-02 0.11496939E+00
        1 -1    0    0  502    0 0.00000000E+00 0.00000000E+00 0.80406096E+03 0.80406103E+03 0.32000000E+00 0.0000E+00 0.9000E+01
       -1 -1    0    0    0  501 0.00000000E+00 0.00000000E+00 -.80071442E+02 0.80072081E+02 0.32000000E+00 0.0000E+00 0.9000E+01
       25  1    1    2    0    0 0.13115260E+03 0.18026510E+02 0.22531246E+03 0.28968373E+03 0.12500000E+03 0.0000E+00 0.9000E+01
       23  1    1    2    0    0 -.76793059E+02 -.53477704E+01 0.52087782E+03 0.53437321E+03 0.91188000E+02 0.0000E+00 0.9000E+01
       21  1    1    2  502  501 -.54359537E+02 -.12678740E+02 -.22200759E+02 0.60076168E+02 0.75000000E+00 0.0000E+00 0.9000E+01
#aMCatNLO 1  0  0  5  1 0.40508204D+02 0.00000000D+00  -5  6  0 0.00000000D+00 0.00000000D+00 0.00000000D+00 0.00000000D+00 0.00000000D+00
  <mgrwgt>
 0.4281633635D-01   15    2    0
 0.253737327275371D+03 0.000000000000000D+00 0.000000000000000D+00 0.253737327275371D+03
 0.253737327275371D+03 -.000000000000000D+00 -.000000000000000D+00 -.253737327275371D+03
 0.183250902233245D+03 0.131152893046354D+03 0.180265793456978D+02 -.207329267582550D+02
 0.187885584594449D+03 -.767927541534432D+02 -.534769938807736D+01 0.145120696577646D+03
 0.136338167723049D+03 -.543601388929110D+02 -.126788799576204D+02 -.124387769819391D+03
 0.000000000000000D+00 0.000000000000000D+00 0.000000000000000D+00 -.000000000000000D+00
 0.253737327275371D+03 0.000000000000000D+00 0.000000000000000D+00 0.253737327275371D+03
 0.253737327275371D+03 -.000000000000000D+00 -.000000000000000D+00 -.253737327275371D+03
 0.181478791191721D+03 0.126798750880075D+03 0.170110255415872D+02 -.306961469517695D+02
 0.182152152891459D+03 -.812102637364231D+02 -.637803291655817D+01 0.135012478012106D+03
 0.931879165742003D+02 -.583781209769564D+02 0.231844178266462D+02 -.688365132519031D+02
 0.506557938933617D+02 0.127896338333050D+02 -.338174104516753D+02 -.354798178084336D+02
0.171107244488D-03 0.000000000000D+00 0.000000000000D+00 0.419991367530D-05 0.000000000000D+00  6 1 -1 25 23 21 21 2 0.12370174D+00 0.12318737D-01 0.31903138D+05 0.31903138D+05 0.31903138D+05 0.12121048D+01  1  2  2  3  6  5       21 0.253324624709D-01 0.100000000000D+01
0.317115688773D-05 0.902957736528D-05 -.657096872407D-06 0.419991367530D-05 0.000000000000D+00  6 1 -1 25 23 21 21 4 0.12370174D+00 0.12318737D-01 0.31903138D+05 0.31903138D+05 0.31903138D+05 0.12121048D+01  1  2  3  3  6  5       21 0.689774436079D-03 0.100000000000D+01
0.542631659644D-05 0.000000000000D+00 0.000000000000D+00 0.419991367530D-05 0.000000000000D+00  6 1 -1 25 23 21 21 4 0.12370174D+00 0.12318737D-01 0.31903138D+05 0.31903138D+05 0.31903138D+05 0.12121048D+01  1  2 15  3  6  5       21 0.118030567481D-02 0.100000000000D+01
0.956536788942D-04 0.000000000000D+00 0.000000000000D+00 0.413001956163D-05 0.000000000000D+00  6 1 -1 25 23 21 21 4 0.12370174D+00 0.12318737D-01 0.40021372D+05 0.40021372D+05 0.40021372D+05 0.12019767D+01  1  2 12  3  6  5       21 0.201172098927D-01 0.100000000000D+01
-.769534442328D-04 0.000000000000D+00 0.000000000000D+00 0.419991367530D-05 0.000000000000D+00  6 1 -1 25 23 21 21 4 0.12370174D+00 0.12318737D-01 0.31903138D+05 0.31903138D+05 0.31903138D+05 0.12121048D+01  1  2  4  3  6  5       21 -.167385343832D-01 0.100000000000D+01
-.134764187247D-03 0.000000000000D+00 0.000000000000D+00 0.419991367530D-05 0.000000000000D+00  6 1 -1 25 23 21 21 4 0.12370174D+00 0.12318737D-01 0.31903138D+05 0.31903138D+05 0.31903138D+05 0.12121048D+01  1  2  5  3  6  5       21 -.293132426281D-01 0.100000000000D+01
0.200955082342D-03 0.000000000000D+00 -.000000000000D+00 0.419991367530D-05 0.000000000000D+00  6 1 -1 25 23 21 21 4 0.12370174D+00 0.12318737D-01 0.31903138D+05 0.31903138D+05 0.31903138D+05 0.12121048D+01  1  2  6  3  6  5       21 0.437107603020D-01 0.100000000000D+01
0.207413579739D-05 0.000000000000D+00 0.000000000000D+00 0.413001956163D-05 0.000000000000D+00  6 1 -1 25 23 1 -1 4 0.12370174D+00 0.12318737D-01 0.40021372D+05 0.40021372D+05 0.40021372D+05 0.12019767D+01  1  2 12  6  6  5       21 0.436217672594D-03 0.100000000000D+01
-.449080375606D-05 0.000000000000D+00 0.000000000000D+00 0.419991367530D-05 0.000000000000D+00  6 1 -1 25 23 1 -1 4 0.12370174D+00 0.12318737D-01 0.31903138D+05 0.31903138D+05 0.31903138D+05 0.12121048D+01  1  2  5  6  6  5       21 -.976817526866D-03 0.100000000000D+01
0.207413579739D-05 0.000000000000D+00 0.000000000000D+00 0.413001956163D-05 0.000000000000D+00  6 1 -1 25 23 2 -2 4 0.12370174D+00 0.12318737D-01 0.40021372D+05 0.40021372D+05 0.40021372D+05 0.12019767D+01  1  2 12  7  6  5       21 0.436217672594D-03 0.100000000000D+01
0.207413579739D-05 0.000000000000D+00 0.000000000000D+00 0.413001956163D-05 0.000000000000D+00  6 1 -1 25 23 4 -4 4 0.12370174D+00 0.12318737D-01 0.40021372D+05 0.40021372D+05 0.40021372D+05 0.12019767D+01  1  2 12  7  6  5       21 0.436217672594D-03 0.100000000000D+01
-.449080375606D-05 0.000000000000D+00 0.000000000000D+00 0.419991367530D-05 0.000000000000D+00  6 1 -1 25 23 2 -2 4 0.12370174D+00 0.12318737D-01 0.31903138D+05 0.31903138D+05 0.31903138D+05 0.12121048D+01  1  2  5  7  6  5       21 -.976817526866D-03 0.100000000000D+01
-.449080375606D-05 0.000000000000D+00 0.000000000000D+00 0.419991367530D-05 0.000000000000D+00  6 1 -1 25 23 4 -4 4 0.12370174D+00 0.12318737D-01 0.31903138D+05 0.31903138D+05 0.31903138D+05 0.12121048D+01  1  2  5  7  6  5       21 -.976817526866D-03 0.100000000000D+01
0.207413579739D-05 0.000000000000D+00 0.000000000000D+00 0.413001956163D-05 0.000000000000D+00  6 1 -1 25 23 3 -3 4 0.12370174D+00 0.12318737D-01 0.40021372D+05 0.40021372D+05 0.40021372D+05 0.12019767D+01  1  2 12  8  6  5       21 0.436217672594D-03 0.100000000000D+01
-.449080375606D-05 0.000000000000D+00 0.000000000000D+00 0.419991367530D-05 0.000000000000D+00  6 1 -1 25 23 3 -3 4 0.12370174D+00 0.12318737D-01 0.31903138D+05 0.31903138D+05 0.31903138D+05 0.12121048D+01  1  2  5  8  6  5       21 -.976817526866D-03 0.100000000000D+01
  </mgrwgt>
  </event>
  <event>
  5     66 0.42989208E-03 0.20339814E+02 0.75467711E-02 0.11663763E+00
        1 -1    0    0  502    0 0.00000000E+00 0.00000000E+00 0.76408295E+02 0.76408965E+02 0.32000000E+00 0.0000E+00 0.9000E+01
       -1 -1    0    0    0  501 0.00000000E+00 0.00000000E+00 -.21605408E+03 0.21605432E+03 0.32000000E+00 0.0000E+00 0.9000E+01
       25  1    1    2    0    0 -.34175549E+02 0.46254079E+02 -.83840112E+02 0.16112595E+03 0.12500000E+03 0.0000E+00 0.9000E+01
       23  1    1    2    0    0 0.22042294E+02 -.29945029E+02 -.47963182E+02 0.10953669E+03 0.91188000E+02 0.0000E+00 0.9000E+01
       21  1    1    2  502  501 0.12133255E+02 -.16309050E+02 -.78424951E+01 0.21800647E+02 0.75000000E+00 0.0000E+00 0.9000E+01
#aMCatNLO 1  0  0  2  5 0.90962991D+02 0.00000000D+00  -5  6  0 0.00000000D+00 0.00000000D+00 0.00000000D+00 0.00000000D+00 0.00000000D+00
  <mgrwgt>
 0.6979817766D-01    5    4    0
 0.128485239398025D+03 0.000000000000000D+00 0.000000000000000D+00 0.128485239398025D+03
 0.128485239398025D+03 0.000000000000000D+00 0.000000000000000D+00 -.128485239398025D+03
 0.137822451651238D+03 -.341798873926203D+02 0.462599105343233D+02 -.786028971107580D+01
 0.985992220469040D+02 0.220391901182660D+02 -.299408569391010D+02 0.493704658048613D+01
 0.205488050979076D+02 0.121406972743543D+02 -.163190535952223D+02 0.292324313058967D+01
 0.000000000000000D+00 0.000000000000000D+00 -.000000000000000D+00 -.000000000000000D+00
 0.164958876010479D+03 0.000000000000000D+00 0.000000000000000D+00 0.164958876010479D+03
 0.208470303401018D+03 0.000000000000000D+00 0.000000000000000D+00 -.208470303401018D+03
 0.163423491377178D+03 -.379869955711025D+02 0.978644038813179D+02 -.786028971107580D+01
 0.934505713343029D+02 0.196120890867729D+02 0.295795054424927D+01 0.493704658048613D+01
 0.157210449015593D+02 0.116823234912018D+02 -.101059002688142D+02 0.292324313058967D+01
 0.100834071798457D+03 0.669258299312780D+01 -.907164541567530D+02 -.435114273905385D+02
 0.128485239398025D+03 0.000000000000000D+00 0.000000000000000D+00 0.128485239398025D+03
 0.128485239398025D+03 0.000000000000000D+00 0.000000000000000D+00 -.128485239398025D+03
 0.137822451651238D+03 -.341798873926203D+02 0.462599105343233D+02 -.786028971107580D+01
 0.985992220469040D+02 0.220391901182660D+02 -.299408569391010D+02 0.493704658048613D+01
 0.000000000000000D+00 0.000000000000000D+00 -.000000000000000D+00 -.000000000000000D+00
 0.205488050979076D+02 0.121406972743543D+02 -.163190535952223D+02 0.292324313058967D+01
 0.164958876010479D+03 0.000000000000000D+00 0.000000000000000D+00 0.164958876010479D+03
 0.208470303401018D+03 0.000000000000000D+00 0.000000000000000D+00 -.208470303401018D+03
 0.163423491377178D+03 -.379869955711025D+02 0.978644038813179D+02 -.786028971107580D+01
 0.934505713343029D+02 0.196120890867729D+02 0.295795054424927D+01 0.493704658048613D+01
 0.100834071798457D+03 0.669258299312780D+01 -.907164541567530D+02 -.435114273905385D+02
 0.157210449015593D+02 0.116823234912018D+02 -.101059002688142D+02 0.292324313058967D+01
0.997843065039D-04 0.000000000000D+00 0.000000000000D+00 0.439530791654D-04 0.000000000000D+00  6 1 -1 25 23 21 21 2 0.11755192D-01 0.33239160D-01 0.16436968D+05 0.16436968D+05 0.16436968D+05 0.12433185D+01  1  2  2  2  6  2       -1 0.649740846160D-01 0.100000000000D+01
0.228452393805D-04 0.526576252287D-05 -.383198010786D-06 0.439530791654D-04 0.000000000000D+00  6 1 -1 25 23 21 21 4 0.11755192D-01 0.33239160D-01 0.16436968D+05 0.16436968D+05 0.16436968D+05 0.12433185D+01  1  2  3  2  6  2       -1 0.229952657287D-01 0.100000000000D+01
0.249686371699D-05 0.000000000000D+00 0.000000000000D+00 0.439530791654D-04 0.000000000000D+00  6 1 -1 25 23 21 21 4 0.11755192D-01 0.33239160D-01 0.16436968D+05 0.16436968D+05 0.16436968D+05 0.12433185D+01  1  2 15  2  6  2       -1 0.251326080258D-02 0.100000000000D+01
-.575630184415D-04 0.000000000000D+00 -.454797610561D-04 0.439530791654D-04 0.000000000000D+00  6 1 -1 25 23 21 21 4 0.11755192D-01 0.66983724D-01 0.16436968D+05 0.16436968D+05 0.16436968D+05 0.12433185D+01  1  2  5  2  6  2       -1 -.163026186275D-01 0.100000000000D+01
-.161829029360D-05 0.000000000000D+00 -.344727912978D-05 0.439530791654D-04 0.000000000000D+00  6 1 21 25 23 1 21 4 0.11755192D-01 0.66983724D-01 0.16436968D+05 0.16436968D+05 0.16436968D+05 0.12433185D+01  3  4  5  5  5  2       -1 -.438181485935D-02 0.100000000000D+01
  </mgrwgt>
  </event>
  <event>
  5     66 -.42989208E-03 0.24248986E+02 0.75467711E-02 0.11848663E+00
        1 -1    0    0  502    0 0.00000000E+00 0.00000000E+00 0.19619840E+04 0.19619841E+04 0.32000000E+00 0.0000E+00 0.9000E+01
       -1 -1    0    0    0  501 0.00000000E+00 0.00000000E+00 -.35665484E+02 0.35666920E+02 0.32000000E+00 0.0000E+00 0.9000E+01
       25  1    1    2    0    0 -.65885067E+02 0.96775389E+02 0.12440299E+04 0.12557634E+04 0.12500000E+03 0.0000E+00 0.9000E+01
       23  1    1    2    0    0 0.53036597E+02 -.76210294E+02 0.69990798E+03 0.71190402E+03 0.91188000E+02 0.0000E+00 0.9000E+01
       21  1    1    2  502  501 0.12848470E+02 -.20565096E+02 -.17619382E+02 0.29983520E+02 0.75000000E+00 0.0000E+00 0.9000E+01
#aMCatNLO 1  0  0  5  2 0.77324750D+00 0.00000000D+00  -5  6  0 0.00000000D+00 0.00000000D+00 0.00000000D+00 0.00000000D+00 0.00000000D+00
  <mgrwgt>
 -.1222444426D+00   19    2    0
 0.264530849166665D+03 0.000000000000000D+00 0.000000000000000D+00 0.264530849166665D+03
 0.264530849166665D+03 -.000000000000000D+00 -.000000000000000D+00 -.264530849166665D+03
 0.212034498971502D+03 -.658851131014495D+02 0.967754631872571D+02 0.125009161066686D+03
 0.139662501337814D+03 0.530365667316216D+02 -.762102451846040D+02 0.506900784588041D+02
 0.177364698024015D+03 0.128485463698280D+02 -.205652180026532D+02 -.175699239525490D+03
 0.000000000000000D+00 0.000000000000000D+00 0.000000000000000D+00 -.000000000000000D+00
 0.264530849166665D+03 0.000000000000000D+00 0.000000000000000D+00 0.264530849166665D+03
 0.264530849166665D+03 -.000000000000000D+00 -.000000000000000D+00 -.264530849166665D+03
 0.211909726446396D+03 -.658714017301464D+02 0.967535169427679D+02 0.124821663007259D+03
 0.139629040530942D+03 0.530455996887956D+02 -.762247032196334D+02 0.505665560259574D+02
 0.176652289240932D+03 0.135219262360940D+02 -.207378599812571D+02 -.174908919064539D+03
 0.870642115059666D+00 -.696124194743136D+00 0.209046258122607D+00 -.479299968676950D+00
0.722011155352D-03 0.000000000000D+00 0.000000000000D+00 0.375735004100D-04 0.000000000000D+00  6 1 -1 25 23 21 21 2 0.30184381D+00 0.54871100D-02 0.26512277D+05 0.26512277D+05 0.26512277D+05 0.12205724D+01  1  2  2  3  6  5       21 0.598565782036D-01 0.100000000000D+01
0.188232653410D-03 0.381015754496D-04 -.277271294645D-05 0.375735004100D-04 0.000000000000D+00  6 1 -1 25 23 21 21 4 0.30184381D+00 0.54871100D-02 0.26512277D+05 0.26512277D+05 0.26512277D+05 0.12205724D+01  1  2  3  3  6  5       21 0.232482370006D-01 0.100000000000D+01
0.275865481121D-04 0.000000000000D+00 0.000000000000D+00 0.375735004100D-04 0.000000000000D+00  6 1 -1 25 23 21 21 4 0.30184381D+00 0.54871100D-02 0.26512277D+05 0.26512277D+05 0.26512277D+05 0.12205724D+01  1  2 15  3  6  5       21 0.340715915607D-02 0.100000000000D+01
-.293861545944D-01 0.000000000000D+00 0.000000000000D+00 0.375735004100D-04 0.000000000000D+00  6 1 -1 25 23 21 21 4 0.30184381D+00 0.54871100D-02 0.26512277D+05 0.26512277D+05 0.26512277D+05 0.12205724D+01  1  2  4  3  6  5       21 -.362942493861D+01 0.100000000000D+01
-.946806987050D-01 0.000000000000D+00 0.000000000000D+00 0.375735004100D-04 0.000000000000D+00  6 1 -1 25 23 21 21 4 0.30184381D+00 0.54871100D-02 0.26512277D+05 0.26512277D+05 0.26512277D+05 0.12205724D+01  1  2  5  3  6  5       21 -.116938229526D+02 0.100000000000D+01
0.951428304067D-01 0.000000000000D+00 -.000000000000D+00 0.375735004100D-04 0.000000000000D+00  6 1 -1 25 23 21 21 4 0.30184381D+00 0.54871100D-02 0.26512277D+05 0.26512277D+05 0.26512277D+05 0.12205724D+01  1  2  6  3  6  5       21 0.117508999110D+02 0.100000000000D+01
0.272959228942D-01 0.000000000000D+00 0.000000000000D+00 0.375735004100D-04 0.224417552218D-03  6 1 -1 25 23 21 21 4 0.30184381D+00 0.54871100D-02 0.26712795D+05 0.26712795D+05 0.26712795D+05 0.12202241D+01  1  2 11  3  6  5       21 0.336698870423D+01 0.100000000000D+01
0.148742722541D-10 0.000000000000D+00 0.000000000000D+00 0.375520616932D-04 0.000000000000D+00  6 1 -1 25 23 1 -1 4 0.30184381D+00 0.54871100D-02 0.26712795D+05 0.26712795D+05 0.26712795D+05 0.12202241D+01  1  2 12  6  6  5       21 0.183476143515D-08 0.100000000000D+01
-.384864237316D-04 0.000000000000D+00 0.000000000000D+00 0.375735004100D-04 0.000000000000D+00  6 1 -1 25 23 1 -1 4 0.30184381D+00 0.54871100D-02 0.26512277D+05 0.26512277D+05 0.26512277D+05 0.12205724D+01  1  2  5  6  6  5       21 -.475338090395D-02 0.100000000000D+01
0.256396753319D-04 0.000000000000D+00 0.000000000000D+00 0.375735004100D-04 0.379652105554D-06  6 1 -1 25 23 1 -1 4 0.30184381D+00 0.54871100D-02 0.26712795D+05 0.26712795D+05 0.26712795D+05 0.12202241D+01  1  2 11  6  6  5       21 0.316268834570D-02 0.100000000000D+01
0.148742722541D-10 0.000000000000D+00 0.000000000000D+00 0.375520616932D-04 0.000000000000D+00  6 1 -1 25 23 2 -2 4 0.30184381D+00 0.54871100D-02 0.26712795D+05 0.26712795D+05 0.26712795D+05 0.12202241D+01  1  2 12  7  6  5       21 0.183476143515D-08 0.100000000000D+01
0.148742722541D-10 0.000000000000D+00 0.000000000000D+00 0.375520616932D-04 0.000000000000D+00  6 1 -1 25 23 4 -4 4 0.30184381D+00 0.54871100D-02 0.26712795D+05 0.26712795D+05 0.26712795D+05 0.12202241D+01  1  2 12  7  6  5       21 0.183476143515D-08 0.100000000000D+01
-.384864237316D-04 0.000000000000D+00 0.000000000000D+00 0.375735004100D-04 0.000000000000D+00  6 1 -1 25 23 2 -2 4 0.30184381D+00 0.54871100D-02 0.26512277D+05 0.26512277D+05 0.26512277D+05 0.12205724D+01  1  2  5  7  6  5       21 -.475338090395D-02 0.100000000000D+01
-.384864237316D-04 0.000000000000D+00 0.000000000000D+00 0.375735004100D-04 0.000000000000D+00  6 1 -1 25 23 4 -4 4 0.30184381D+00 0.54871100D-02 0.26512277D+05 0.26512277D+05 0.26512277D+05 0.12205724D+01  1  2  5  7  6  5       21 -.475338090395D-02 0.100000000000D+01
0.336510387280D-04 0.000000000000D+00 0.000000000000D+00 0.375735004100D-04 0.288483527303D-06  6 1 -1 25 23 2 -2 4 0.30184381D+00 0.54871100D-02 0.26712795D+05 0.26712795D+05 0.26712795D+05 0.12202241D+01  1  2 11  7  6  5       21 0.415090076719D-02 0.100000000000D+01
0.336510387280D-04 0.000000000000D+00 0.000000000000D+00 0.375735004100D-04 0.288483527303D-06  6 1 -1 25 23 4 -4 4 0.30184381D+00 0.54871100D-02 0.26712795D+05 0.26712795D+05 0.26712795D+05 0.12202241D+01  1  2 11  7  6  5       21 0.415090076719D-02 0.100000000000D+01
0.148742722541D-10 0.000000000000D+00 0.000000000000D+00 0.375520616932D-04 0.000000000000D+00  6 1 -1 25 23 3 -3 4 0.30184381D+00 0.54871100D-02 0.26712795D+05 0.26712795D+05 0.26712795D+05 0.12202241D+01  1  2 12  8  6  5       21 0.183476143515D-08 0.100000000000D+01
-.384864237316D-04 0.000000000000D+00 0.000000000000D+00 0.375735004100D-04 0.000000000000D+00  6 1 -1 25 23 3 -3 4 0.30184381D+00 0.54871100D-02 0.26512277D+05 0.26512277D+05 0.26512277D+05 0.12205724D+01  1  2  5  8  6  5       21 -.475338090395D-02 0.100000000000D+01
0.336590212364D-04 0.000000000000D+00 0.000000000000D+00 0.375735004100D-04 0.288551959729D-06  6 1 -1 25 23 3 -3 4 0.30184381D+00 0.54871100D-02 0.26712795D+05 0.26712795D+05 0.26712795D+05 0.12202241D+01  1  2 11  8  6  5       21 0.415188542031D-02 0.100000000000D+01
  </mgrwgt>
  </event>
  <event>
  5     66 0.42989208E-03 0.21759594E+02 0.75467711E-02 0.11037874E+00
        1 -1    0    0  502    0 0.00000000E+00 0.00000000E+00 0.71795360E+03 0.71795367E+03 0.32000000E+00 0.0000E+00 0.9000E+01
       -1 -1    0    0    0  501 0.00000000E+00 0.00000000E+00 -.31226963E+02 0.31228603E+02 0.32000000E+00 0.0000E+00 0.9000E+01
       25  1    1    2    0    0 0.33593663E+02 0.22363787E+02 0.45011073E+03 0.46888521E+03 0.12500000E+03 0.0000E+00 0.9000E+01
       23  1    1    2    0    0 -.33760470E+02 -.60613407E+00 0.23935628E+03 0.25835405E+03 0.91188000E+02 0.0000E+00 0.9000E+01
       21  1    1    2  502  501 0.16680762E+00 -.21757653E+02 -.27403767E+01 0.21943005E+02 0.75000000E+00 0.0000E+00 0.9000E+01
#aMCatNLO 1  0  0  1  2 0.86699937D+02 0.00000000D+00  -5  6  0 0.00000000D+00 0.00000000D+00 0.00000000D+00 0.00000000D+00 0.00000000D+00
  <mgrwgt>
 0.1054629151D+00    5    4    0
 0.149733601676725D+03 0.000000000000000D+00 0.000000000000000D+00 0.149733601676725D+03
 0.149733601676725D+03 0.000000000000000D+00 0.000000000000000D+00 -.149733601676725D+03
 0.140842522925256D+03 0.335936568992614D+02 0.223645562709914D+02 0.508223287826089D+02
 0.974462993634504D+02 -.337604744961726D+02 -.605602004287366D+00 0.635558995191539D+01
 0.611783810647440D+02 0.166817596911141D+00 -.217589542667040D+02 -.571779187345243D+02
 0.000000000000000D+00 -.000000000000000D+00 0.000000000000000D+00 0.000000000000000D+00
 0.614983729470144D+03 0.000000000000000D+00 0.000000000000000D+00 0.614983729470144D+03
 0.203643721762015D+03 0.000000000000000D+00 0.000000000000000D+00 -.203643721762015D+03
 0.178438651578387D+03 0.110810869142260D+03 -.367885111707730D+02 0.508223287826089D+02
 0.996328123080655D+02 0.139025285551631D+02 -.371183528803501D+02 0.635558995191539D+01
 0.826731623564648D+02 0.349568899433524D+02 -.484102595396355D+02 -.571779187345243D+02
 0.457882824989242D+03 -.159670287640776D+03 0.122317123590759D+03 0.411340007708129D+03
 0.149733601676725D+03 0.000000000000000D+00 0.000000000000000D+00 0.149733601676725D+03
 0.149733601676725D+03 0.000000000000000D+00 0.000000000000000D+00 -.149733601676725D+03
 0.140842522925256D+03 0.335936568992614D+02 0.223645562709914D+02 0.508223287826089D+02
 0.974462993634504D+02 -.337604744961726D+02 -.605602004287366D+00 0.635558995191539D+01
 0.000000000000000D+00 -.000000000000000D+00 0.000000000000000D+00 0.000000000000000D+00
 0.611783810647440D+02 0.166817596911141D+00 -.217589542667040D+02 -.571779187345243D+02
 0.614983729470144D+03 0.000000000000000D+00 0.000000000000000D+00 0.614983729470144D+03
 0.203643721762015D+03 0.000000000000000D+00 0.000000000000000D+00 -.203643721762015D+03
 0.178438651578387D+03 0.110810869142260D+03 -.367885111707730D+02 0.508223287826089D+02
 0.996328123080655D+02 0.139025285551631D+02 -.371183528803501D+02 0.635558995191539D+01
 0.457882824989242D+03 -.159670287640776D+03 0.122317123590759D+03 0.411340007708129D+03
 0.826731623564648D+02 0.349568899433524D+02 -.484102595396355D+02 -.571779187345243D+02
0.111589596397D-03 0.000000000000D+00 0.000000000000D+00 0.439159418099D-04 0.000000000000D+00  6 1 -1 25 23 21 21 2 0.11045453D+00 0.48042798D-02 0.15669003D+05 0.15669003D+05 0.15669003D+05 0.12456680D+01  1  2  2  1  6  1        1 0.849243567603D-01 0.100000000000D+01
0.151037214258D-04 0.588874478600D-05 -.428533432380D-06 0.439159418099D-04 0.000000000000D+00  6 1 -1 25 23 21 21 4 0.11045453D+00 0.48042798D-02 0.15669003D+05 0.15669003D+05 0.15669003D+05 0.12456680D+01  1  2  3  1  6  1        1 0.178359859952D-01 0.100000000000D+01
0.453746995484D-05 0.000000000000D+00 0.000000000000D+00 0.439159418099D-04 0.000000000000D+00  6 1 -1 25 23 21 21 4 0.11045453D+00 0.48042798D-02 0.15669003D+05 0.15669003D+05 0.15669003D+05 0.12456680D+01  1  2 15  1  6  1        1 0.535829867930D-02 0.100000000000D+01
-.949951217649D-04 0.000000000000D+00 -.953723375375D-04 0.439159418099D-04 0.000000000000D+00  6 1 -1 25 23 21 21 4 0.48869497D+00 0.48042798D-02 0.15669003D+05 0.15669003D+05 0.15669003D+05 0.12456680D+01  1  2  5  1  6  1        1 -.247596475796D-02 0.100000000000D+01
-.175980880088D-04 0.000000000000D+00 -.171216952892D-04 0.439159418099D-04 0.000000000000D+00  6 21 -1 25 23 -1 21 4 0.48869497D+00 0.48042798D-02 0.15669003D+05 0.15669003D+05 0.15669003D+05 0.12456680D+01  3  4  5  4  5  1        1 -.179761568021D-03 0.100000000000D+01
  </mgrwgt>
  </event>
</LesHouchesEvents>
