<event>
 5    0  0.3387552E+000  0.2491373E+03  0.7546771E-02  0.1113851E+00
         21   -1    0    0  502  501  0.00000000000E+00  0.00000000000E+00  0.16547103045E+03  0.16547103045E+03  0.00000000000E+00 0. -1.
         21   -1    0    0  503  502 -0.00000000000E+00 -0.00000000000E+00 -0.44333863177E+03  0.44333863177E+03  0.00000000000E+00 0. -1.
         25    1    1    2    0    0 -0.14174275548E+03  0.15493897541E+03 -0.21041371796E+03  0.32248415083E+03  0.12500000000E+03 0.  0.
         21    1    1    2  503  504  0.27132535694E+02  0.40571761510E+02  0.32739277858E+01  0.48917899876E+02  0.00000000000E+00 0. -1.
         21    1    1    2  504  501  0.11461021979E+03 -0.19551073692E+03 -0.70727811148E+02  0.23740761151E+03  0.00000000000E+00 0. -1.
<mgrwt>
<rscale>  4 0.24913730E+03</rscale>
<asrwt>0</asrwt>
<pdfrwt beam="1">  1       21 0.25457082E-01 0.24913730E+03</pdfrwt>
<pdfrwt beam="2">  1       21 0.68205942E-01 0.24913730E+03</pdfrwt>
<totfact> 0.27883496E+04</totfact>
</mgrwt>
</event>
<event>
 5    0  0.3387552E+000  0.2946518E+03  0.7546771E-02  0.1087945E+00
         21   -1    0    0  502  501  0.00000000000E+00  0.00000000000E+00  0.16863269968E+03  0.16863269968E+03  0.00000000000E+00 0. -1.
         21   -1    0    0  503  502 -0.00000000000E+00 -0.00000000000E+00 -0.22859974680E+04  0.22859974680E+04  0.00000000000E+00 0.  1.
         25    1    1    2    0    0 -0.23417034787E+03 -0.12321063245E+03 -0.21023934545E+04  0.21226633858E+04  0.12500000000E+03 0.  0.
         21    1    1    2  503  504 -0.26765434431E+02 -0.17292010201E+02  0.12734714284E+02  0.34315813336E+02  0.00000000000E+00 0.  1.
         21    1    1    2  504  501  0.26093578231E+03  0.14050264265E+03 -0.27706028076E+02  0.29765096854E+03  0.00000000000E+00 0. -1.
<mgrwt>
<rscale>  4 0.29465184E+03</rscale>
<asrwt>0</asrwt>
<pdfrwt beam="1">  1       21 0.25943493E-01 0.29465184E+03</pdfrwt>
<pdfrwt beam="2">  1       21 0.35169191E+00 0.29465184E+03</pdfrwt>
<totfact> 0.21092723E+02</totfact>
</mgrwt>
</event>
<event>
 5    0  0.3387552E+000  0.2919027E+03  0.7546771E-02  0.1089360E+00
         21   -1    0    0  503  501  0.00000000000E+00  0.00000000000E+00  0.25238753081E+04  0.25238753081E+04  0.00000000000E+00 0. -1.
         21   -1    0    0  504  502 -0.00000000000E+00 -0.00000000000E+00 -0.15140147493E+03  0.15140147493E+03  0.00000000000E+00 0. -1.
         25    1    1    2    0    0  0.14433779765E+03 -0.22164962706E+03  0.15265637732E+02  0.29295050214E+03  0.12500000000E+03 0.  0.
         21    1    1    2  503  502 -0.98274623442E+02  0.23790742522E+03  0.22480258667E+04  0.22627147725E+04  0.00000000000E+00 0. -1.
         21    1    1    2  504  501 -0.46063174209E+02 -0.16257798160E+02  0.10918232877E+03  0.11961150837E+03  0.00000000000E+00 0. -1.
<mgrwt>
<rscale>  4 0.29190271E+03</rscale>
<asrwt>0</asrwt>
<pdfrwt beam="1">  1       21 0.38828848E+00 0.29190271E+03</pdfrwt>
<pdfrwt beam="2">  1       21 0.23292536E-01 0.29190271E+03</pdfrwt>
<totfact> 0.15525788E+02</totfact>
</mgrwt>
</event>
<event>
 5    0  0.3387552E+000  0.2429526E+03  0.7546771E-02  0.1117841E+00
         21   -1    0    0  502  501  0.00000000000E+00  0.00000000000E+00  0.62897403244E+03  0.62897403244E+03  0.00000000000E+00 0.  1.
         21   -1    0    0  504  502 -0.00000000000E+00 -0.00000000000E+00 -0.83178177421E+02  0.83178177421E+02  0.00000000000E+00 0.  1.
         25    1    1    2    0    0  0.93204765822E+02 -0.18631644623E+03  0.25411298043E+03  0.35156699693E+03  0.12500000000E+03 0.  0.
         21    1    1    2  503  501 -0.75400798209E+02  0.17512797279E+03  0.25663623342E+03  0.31971431549E+03  0.00000000000E+00 0.  1.
         21    1    1    2  504  503 -0.17803967613E+02  0.11188473432E+02  0.35046641167E+02  0.40870897441E+02  0.00000000000E+00 0. -1.
<mgrwt>
<rscale>  4 0.24295256E+03</rscale>
<asrwt>0</asrwt>
<pdfrwt beam="1">  1       21 0.96765233E-01 0.24295256E+03</pdfrwt>
<pdfrwt beam="2">  1       21 0.12796643E-01 0.24295256E+03</pdfrwt>
<totfact> 0.45280618E+04</totfact>
</mgrwt>
</event>
<event>
 5    0  0.3387552E+000  0.2640063E+03  0.7546771E-02  0.1104760E+00
         21   -1    0    0  503  501  0.00000000000E+00  0.00000000000E+00  0.31649267171E+03  0.31649267171E+03  0.00000000000E+00 0. -1.
         21   -1    0    0  504  502 -0.00000000000E+00 -0.00000000000E+00 -0.30211571274E+03  0.30211571274E+03  0.00000000000E+00 0. -1.
         25    1    1    2    0    0  0.39567367390E+02 -0.23964807515E+03  0.38186186595E+02  0.27582596204E+03  0.12500000000E+03 0.  0.
         21    1    1    2  503  502 -0.52492910908E+02  0.22187854026E+03 -0.11048665969E+03  0.25336316680E+03  0.00000000000E+00 0. -1.
         21    1    1    2  504  501  0.12925543518E+02  0.17769534891E+02  0.86677432061E+02  0.89419255612E+02  0.00000000000E+00 0. -1.
<mgrwt>
<rscale>  4 0.26400631E+03</rscale>
<asrwt>0</asrwt>
<pdfrwt beam="1">  1       21 0.48691180E-01 0.26400631E+03</pdfrwt>
<pdfrwt beam="2">  1       21 0.46479341E-01 0.26400631E+03</pdfrwt>
<totfact> 0.17170690E+04</totfact>
</mgrwt>
</event>
<event>
 5    0  0.3387552E+000  0.2702123E+03  0.7546771E-02  0.1101158E+00
         21   -1    0    0  503  501  0.00000000000E+00  0.00000000000E+00  0.83338936263E+03  0.83338936263E+03  0.00000000000E+00 0.  1.
         21   -1    0    0  501  502 -0.00000000000E+00 -0.00000000000E+00 -0.46926196461E+03  0.46926196461E+03  0.00000000000E+00 0.  1.
         25    1    1    2    0    0 -0.16191196843E+03 -0.17030963477E+03 -0.34515396709E+03  0.43586364635E+03  0.12500000000E+03 0.  0.
         21    1    1    2  503  504 -0.54135913065E+02  0.14412472640E+02  0.55721210695E+03  0.56002120369E+03  0.00000000000E+00 0.  1.
         21    1    1    2  504  502  0.21604788149E+03  0.15589716212E+03  0.15206925816E+03  0.30676647720E+03  0.00000000000E+00 0.  1.
<mgrwt>
<rscale>  4 0.27021229E+03</rscale>
<asrwt>0</asrwt>
<pdfrwt beam="1">  1       21 0.12821375E+00 0.27021229E+03</pdfrwt>
<pdfrwt beam="2">  1       21 0.72194148E-01 0.27021229E+03</pdfrwt>
<totfact> 0.72183503E+02</totfact>
</mgrwt>
</event>
<event>
 5    0  0.3387552E+000  0.2625715E+03  0.7546771E-02  0.1105608E+00
         21   -1    0    0  503  501  0.00000000000E+00  0.00000000000E+00  0.70010861850E+02  0.70010861850E+02  0.00000000000E+00 0. -1.
         21   -1    0    0  504  502 -0.00000000000E+00 -0.00000000000E+00 -0.11099726252E+04  0.11099726252E+04  0.00000000000E+00 0. -1.
         25    1    1    2    0    0  0.22398288019E+03 -0.46448587998E+02 -0.58542041550E+03  0.64083372635E+03  0.12500000000E+03 0.  0.
         21    1    1    2  503  502 -0.23270502211E+03  0.22461053635E+02 -0.45718192805E+03  0.51348947563E+03  0.00000000000E+00 0. -1.
         21    1    1    2  504  501  0.87221419109E+01  0.23987534363E+02  0.26405802309E+01  0.25660285039E+02  0.00000000000E+00 0.  1.
<mgrwt>
<rscale>  4 0.26257147E+03</rscale>
<asrwt>0</asrwt>
<pdfrwt beam="1">  1       21 0.10770901E-01 0.26257147E+03</pdfrwt>
<pdfrwt beam="2">  1       21 0.17076503E+00 0.26257147E+03</pdfrwt>
<totfact> 0.14322283E+04</totfact>
</mgrwt>
</event>
<event>
 5    0  0.3387552E+000  0.2323423E+03  0.7546771E-02  0.1125002E+00
         21   -1    0    0  503  501  0.00000000000E+00  0.00000000000E+00  0.13515598233E+04  0.13515598233E+04  0.00000000000E+00 0. -1.
         21   -1    0    0  504  502 -0.00000000000E+00 -0.00000000000E+00 -0.55050805175E+02  0.55050805175E+02  0.00000000000E+00 0. -1.
         25    1    1    2    0    0 -0.17860840959E+03  0.10938599057E+03  0.45568167402E+03  0.51685302257E+03  0.12500000000E+03 0.  0.
         21    1    1    2  503  502  0.17387561291E+03 -0.68365629123E+02  0.34608945641E+03  0.39329950400E+03  0.00000000000E+00 0. -1.
         21    1    1    2  504  501  0.47327966787E+01 -0.41020361446E+02  0.49473788771E+03  0.49645810191E+03  0.00000000000E+00 0. -1.
<mgrwt>
<rscale>  4 0.23234233E+03</rscale>
<asrwt>0</asrwt>
<pdfrwt beam="1">  1       21 0.20793225E+00 0.23234233E+03</pdfrwt>
<pdfrwt beam="2">  1       21 0.84693557E-02 0.23234233E+03</pdfrwt>
<totfact> 0.12593481E+04</totfact>
</mgrwt>
</event>
<event>
 5    0  0.3387552E+000  0.2746038E+03  0.7546771E-02  0.1098673E+00
         21   -1    0    0  503  501  0.00000000000E+00  0.00000000000E+00  0.17328334937E+03  0.17328334937E+03  0.00000000000E+00 0.  1.
         21   -1    0    0  501  502 -0.00000000000E+00 -0.00000000000E+00 -0.48039592969E+03  0.48039592969E+03  0.00000000000E+00 0.  1.
         25    1    1    2    0    0 -0.10274055338E+03  0.20647461935E+03 -0.11269399746E+03  0.28550363712E+03  0.12500000000E+03 0.  0.
         21    1    1    2  503  504 -0.20478068404E+02  0.15645856771E+02  0.22452293410E+02  0.34179666456E+02  0.00000000000E+00 0.  1.
         21    1    1    2  504  502  0.12321862178E+03 -0.22212047612E+03 -0.21687087626E+03  0.33399597548E+03  0.00000000000E+00 0.  1.
<mgrwt>
<rscale>  4 0.27460380E+03</rscale>
<asrwt>0</asrwt>
<pdfrwt beam="1">  1       21 0.26658977E-01 0.27460380E+03</pdfrwt>
<pdfrwt beam="2">  1       21 0.73907065E-01 0.27460380E+03</pdfrwt>
<totfact> 0.21088177E+04</totfact>
</mgrwt>
</event>
<event>
 5    0  0.3387552E+000  0.2572081E+03  0.7546771E-02  0.1108832E+00
         21   -1    0    0  502  501  0.00000000000E+00  0.00000000000E+00  0.11313148547E+04  0.11313148547E+04  0.00000000000E+00 0.  1.
         21   -1    0    0  503  502 -0.00000000000E+00 -0.00000000000E+00 -0.19906790406E+03  0.19906790406E+03  0.00000000000E+00 0.  1.
         25    1    1    2    0    0  0.48683748134E+02  0.25710352894E+03  0.18329655556E+03  0.34306698938E+03  0.12500000000E+03 0.  0.
         21    1    1    2  503  504  0.13405995109E+03 -0.11918121514E+03  0.73649864365E+03  0.75802802364E+03  0.00000000000E+00 0.  1.
         21    1    1    2  504  501 -0.18274369923E+03 -0.13792231380E+03  0.12451751477E+02  0.22928774578E+03  0.00000000000E+00 0.  1.
<mgrwt>
<rscale>  4 0.25720813E+03</rscale>
<asrwt>0</asrwt>
<pdfrwt beam="1">  1       21 0.17404844E+00 0.25720813E+03</pdfrwt>
<pdfrwt beam="2">  1       21 0.30625832E-01 0.25720813E+03</pdfrwt>
<totfact> 0.19339695E+03</totfact>
</mgrwt>
</event>
<event>
 5    0  0.3387552E+000  0.2679067E+03  0.7546771E-02  0.1102484E+00
         21   -1    0    0  503  501  0.00000000000E+00  0.00000000000E+00  0.10517523128E+03  0.10517523128E+03  0.00000000000E+00 0.  1.
         21   -1    0    0  504  502 -0.00000000000E+00 -0.00000000000E+00 -0.87591834524E+03  0.87591834524E+03  0.00000000000E+00 0.  1.
         25    1    1    2    0    0  0.33850384304E+01  0.22661683648E+03 -0.31374545236E+03  0.40672823598E+03  0.12500000000E+03 0.  0.
         21    1    1    2  503  502  0.44171540151E+02 -0.24149951027E+03 -0.46311063589E+03  0.52416085269E+03  0.00000000000E+00 0.  1.
         21    1    1    2  504  501 -0.47556578582E+02  0.14882673783E+02  0.61129742904E+01  0.50204487847E+02  0.00000000000E+00 0.  1.
<mgrwt>
<rscale>  4 0.26790669E+03</rscale>
<asrwt>0</asrwt>
<pdfrwt beam="1">  1       21 0.16180805E-01 0.26790669E+03</pdfrwt>
<pdfrwt beam="2">  1       21 0.13475667E+00 0.26790669E+03</pdfrwt>
<totfact> 0.12869558E+04</totfact>
</mgrwt>
</event>
<event>
 5    0  0.3387552E+000  0.2601436E+03  0.7546771E-02  0.1107057E+00
         21   -1    0    0  503  501  0.00000000000E+00  0.00000000000E+00  0.45908326667E+03  0.45908326667E+03  0.00000000000E+00 0. -1.
         21   -1    0    0  504  502 -0.00000000000E+00 -0.00000000000E+00 -0.17692449441E+03  0.17692449441E+03  0.00000000000E+00 0. -1.
         25    1    1    2    0    0 -0.12514034614E+02 -0.22283549779E+03  0.19501394286E+03  0.32166395205E+03  0.12500000000E+03 0.  0.
         21    1    1    2  503  502  0.72585327188E+02  0.22185121464E+03  0.37520107577E+02  0.23641985880E+03  0.00000000000E+00 0. -1.
         21    1    1    2  504  501 -0.60071292573E+02  0.98428314560E+00  0.49624721819E+02  0.77923950236E+02  0.00000000000E+00 0. -1.
<mgrwt>
<rscale>  4 0.26014355E+03</rscale>
<asrwt>0</asrwt>
<pdfrwt beam="1">  1       21 0.70628194E-01 0.26014355E+03</pdfrwt>
<pdfrwt beam="2">  1       21 0.27219153E-01 0.26014355E+03</pdfrwt>
<totfact> 0.22563487E+04</totfact>
</mgrwt>
</event>
<event>
 5    0  0.3387552E+000  0.2573989E+03  0.7546771E-02  0.1108716E+00
         21   -1    0    0  503  501  0.00000000000E+00  0.00000000000E+00  0.38086545949E+03  0.38086545949E+03  0.00000000000E+00 0.  1.
         21   -1    0    0  504  502 -0.00000000000E+00 -0.00000000000E+00 -0.45608917515E+03  0.45608917515E+03  0.00000000000E+00 0.  1.
         25    1    1    2    0    0  0.46963393270E+02  0.21740538315E+03  0.22803181530E+03  0.34219025369E+03  0.12500000000E+03 0.  0.
         21    1    1    2  503  502 -0.12506535481E+02 -0.22523526011E+03 -0.36181082719E+03  0.42637355746E+03  0.00000000000E+00 0.  1.
         21    1    1    2  504  501 -0.34456857789E+02  0.78298769638E+01  0.58555296225E+02  0.68390823492E+02  0.00000000000E+00 0.  1.
<mgrwt>
<rscale>  4 0.25739886E+03</rscale>
<asrwt>0</asrwt>
<pdfrwt beam="1">  1       21 0.58594686E-01 0.25739886E+03</pdfrwt>
<pdfrwt beam="2">  1       21 0.70167565E-01 0.25739886E+03</pdfrwt>
<totfact> 0.48036500E+03</totfact>
</mgrwt>
</event>
<event>
 5    0  0.3387552E+000  0.2906090E+03  0.7546771E-02  0.1090032E+00
         21   -1    0    0  503  501  0.00000000000E+00  0.00000000000E+00  0.31412219442E+03  0.31412219442E+03  0.00000000000E+00 0. -1.
         21   -1    0    0  501  502 -0.00000000000E+00 -0.00000000000E+00 -0.56975257999E+03  0.56975257999E+03  0.00000000000E+00 0. -1.
         25    1    1    2    0    0 -0.14095338890E+03 -0.19872166810E+03 -0.27254802259E+02  0.27518354504E+03  0.12500000000E+03 0.  0.
         21    1    1    2  503  504  0.14368498764E+01 -0.31357888883E+02  0.14505769684E+03  0.14841535347E+03  0.00000000000E+00 0. -1.
         21    1    1    2  504  502  0.13951653902E+03  0.23007955698E+03 -0.37343328016E+03  0.46027587590E+03  0.00000000000E+00 0. -1.
<mgrwt>
<rscale>  4 0.29060904E+03</rscale>
<asrwt>0</asrwt>
<pdfrwt beam="1">  1       21 0.48326491E-01 0.29060904E+03</pdfrwt>
<pdfrwt beam="2">  1       21 0.87654243E-01 0.29060904E+03</pdfrwt>
<totfact> 0.42787217E+03</totfact>
</mgrwt>
</event>
<event>
 5    0  0.3387552E+000  0.2674021E+03  0.7546771E-02  0.1102776E+00
         21   -1    0    0  502  501  0.00000000000E+00  0.00000000000E+00  0.27053353209E+03  0.27053353209E+03  0.00000000000E+00 0.  1.
         21   -1    0    0  503  502 -0.00000000000E+00 -0.00000000000E+00 -0.17612156821E+04  0.17612156821E+04  0.00000000000E+00 0.  1.
         25    1    1    2    0    0 -0.20812668559E+03  0.11070698054E+03 -0.16326273182E+04  0.16542882798E+04  0.12500000000E+03 0.  0.
         21    1    1    2  503  504  0.10475016454E+02  0.51943958748E+02 -0.37447136721E+02  0.64885968196E+02  0.00000000000E+00 0.  1.
         21    1    1    2  504  501  0.19765166914E+03 -0.16265093928E+03  0.17939230493E+03  0.31257496610E+03  0.00000000000E+00 0.  1.
<mgrwt>
<rscale>  4 0.26740212E+03</rscale>
<asrwt>0</asrwt>
<pdfrwt beam="1">  1       21 0.41620543E-01 0.26740212E+03</pdfrwt>
<pdfrwt beam="2">  1       21 0.27095626E+00 0.26740212E+03</pdfrwt>
<totfact> 0.25442457E+02</totfact>
</mgrwt>
</event>
<event>
 5    0  0.3387552E+000  0.2695090E+03  0.7546771E-02  0.1101561E+00
         21   -1    0    0  502  501  0.00000000000E+00  0.00000000000E+00  0.31574753063E+02  0.31574753063E+02  0.00000000000E+00 0. -1.
         21   -1    0    0  504  502 -0.00000000000E+00 -0.00000000000E+00 -0.23198081422E+04  0.23198081422E+04  0.00000000000E+00 0. -1.
         25    1    1    2    0    0 -0.24364512700E+02 -0.22279203240E+03 -0.10973382150E+04  0.11269454633E+04  0.12500000000E+03 0.  0.
         21    1    1    2  503  501  0.37945090182E+02  0.25068893796E+03 -0.10687704799E+04  0.10984330258E+04  0.00000000000E+00 0. -1.
         21    1    1    2  504  503 -0.13580577483E+02 -0.27896905561E+02 -0.12212469424E+03  0.12600440614E+03  0.00000000000E+00 0. -1.
<mgrwt>
<rscale>  4 0.26950904E+03</rscale>
<asrwt>0</asrwt>
<pdfrwt beam="1">  1       21 0.48576522E-02 0.26950904E+03</pdfrwt>
<pdfrwt beam="2">  1       21 0.35689372E+00 0.26950904E+03</pdfrwt>
<totfact> 0.41322586E+03</totfact>
</mgrwt>
</event>
<event>
 5    0  0.3387552E+000  0.2487049E+03  0.7546771E-02  0.1114126E+00
         21   -1    0    0  502  501  0.00000000000E+00  0.00000000000E+00  0.43512010713E+03  0.43512010713E+03  0.00000000000E+00 0. -1.
         21   -1    0    0  504  502 -0.00000000000E+00 -0.00000000000E+00 -0.17449551067E+04  0.17449551067E+04  0.00000000000E+00 0.  1.
         25    1    1    2    0    0 -0.16616015279E+03  0.13777251906E+03 -0.16994191654E+04  0.17176265493E+04  0.12500000000E+03 0.  0.
         21    1    1    2  503  501  0.11152353861E+03 -0.15570495450E+03  0.29306801369E+03  0.35010054723E+03  0.00000000000E+00 0. -1.
         21    1    1    2  504  503  0.54636614181E+02  0.17932435447E+02  0.96516152068E+02  0.11234811730E+03  0.00000000000E+00 0. -1.
<mgrwt>
<rscale>  4 0.24870494E+03</rscale>
<asrwt>0</asrwt>
<pdfrwt beam="1">  1       21 0.66941554E-01 0.24870494E+03</pdfrwt>
<pdfrwt beam="2">  1       21 0.26845464E+00 0.24870494E+03</pdfrwt>
<totfact> 0.98131392E+01</totfact>
</mgrwt>
</event>
<event>
 5    0  0.3387552E+000  0.2959698E+03  0.7546771E-02  0.1087273E+00
         21   -1    0    0  503  501  0.00000000000E+00  0.00000000000E+00  0.61961954701E+03  0.61961954701E+03  0.00000000000E+00 0.  1.
         21   -1    0    0  501  502 -0.00000000000E+00 -0.00000000000E+00 -0.59142086886E+03  0.59142086886E+03  0.00000000000E+00 0.  1.
         25    1    1    2    0    0  0.24053205809E+03 -0.27358611755E+02  0.42349932093E+03  0.50356810804E+03  0.12500000000E+03 0.  0.
         21    1    1    2  503  504  0.28880861843E+02  0.71932979609E+01  0.12108126956E+03  0.12468569105E+03  0.00000000000E+00 0.  1.
         21    1    1    2  504  502 -0.26941291994E+03  0.20165313794E+02 -0.51638191233E+03  0.58278661678E+03  0.00000000000E+00 0.  1.
<mgrwt>
<rscale>  4 0.29596984E+03</rscale>
<asrwt>0</asrwt>
<pdfrwt beam="1">  1       21 0.95326085E-01 0.29596984E+03</pdfrwt>
<pdfrwt beam="2">  1       21 0.90987825E-01 0.29596984E+03</pdfrwt>
<totfact> 0.86388953E+02</totfact>
</mgrwt>
</event>
<event>
 5    0  0.3387552E+000  0.4295312E+03  0.7546771E-02  0.1034008E+00
         21   -1    0    0  503  501  0.00000000000E+00  0.00000000000E+00  0.44757270428E+03  0.44757270428E+03  0.00000000000E+00 0. -1.
         21   -1    0    0  504  502 -0.00000000000E+00 -0.00000000000E+00 -0.75811813351E+03  0.75811813351E+03  0.00000000000E+00 0. -1.
         25    1    1    2    0    0 -0.38482810083E+03 -0.39975674081E+02 -0.35933345684E+01  0.40660623920E+03  0.12500000000E+03 0.  0.
         21    1    1    2  503  502  0.41299201619E+03  0.82002188324E+02 -0.46843896975E+03  0.62985858152E+03  0.00000000000E+00 0. -1.
         21    1    1    2  504  501 -0.28163915359E+02 -0.42026514242E+02  0.16148687509E+03  0.16922601707E+03  0.00000000000E+00 0. -1.
<mgrwt>
<rscale>  4 0.42953121E+03</rscale>
<asrwt>0</asrwt>
<pdfrwt beam="1">  1       21 0.68857340E-01 0.42953121E+03</pdfrwt>
<pdfrwt beam="2">  1       21 0.11663356E+00 0.42953121E+03</pdfrwt>
<totfact> 0.93053892E+02</totfact>
</mgrwt>
</event>
<event>
 5    0  0.3387552E+000  0.3434350E+03  0.7546771E-02  0.1065342E+00
         21   -1    0    0  503  501  0.00000000000E+00  0.00000000000E+00  0.18557941987E+03  0.18557941987E+03  0.00000000000E+00 0. -1.
         21   -1    0    0  504  502 -0.00000000000E+00 -0.00000000000E+00 -0.14276298616E+04  0.14276298616E+04  0.00000000000E+00 0. -1.
         25    1    1    2    0    0 -0.10428004312E+03  0.23362587887E+03 -0.33379467614E+03  0.43874738118E+03  0.12500000000E+03 0.  0.
         21    1    1    2  503  502  0.25502445520E+03 -0.26675434735E+03 -0.94611583042E+03  0.10155444447E+04  0.00000000000E+00 0. -1.
         21    1    1    2  504  501 -0.15074441209E+03  0.33128468475E+02  0.37860064797E+02  0.15891745564E+03  0.00000000000E+00 0. -1.
<mgrwt>
<rscale>  4 0.34343495E+03</rscale>
<asrwt>0</asrwt>
<pdfrwt beam="1">  1       21 0.28550679E-01 0.34343495E+03</pdfrwt>
<pdfrwt beam="2">  1       21 0.21963537E+00 0.34343495E+03</pdfrwt>
<totfact> 0.10428803E+03</totfact>
</mgrwt>
</event>
<event>
 5    0  0.3387552E+000  0.2704035E+03  0.7546771E-02  0.1104384E+00
         21   -1    0    0  503  501  0.00000000000E+00  0.00000000000E+00  0.60505861775E+03  0.60505861775E+03  0.00000000000E+00 0. -1.
         21   -1    0    0  501  502 -0.00000000000E+00 -0.00000000000E+00 -0.43325801154E+03  0.43325801154E+03  0.00000000000E+00 0. -1.
         25    1    1    2    0    0  0.21337776598E+03  0.13615296768E+03 -0.17500322652E+03  0.33214278694E+03  0.12500000000E+03 0.  0.
         21    1    1    2  503  504  0.30109523420E+02 -0.28260188601E+03  0.30852043758E+03  0.41947022514E+03  0.00000000000E+00 0. -1.
         21    1    1    2  504  502 -0.24348728940E+03  0.14644891833E+03  0.38283395157E+02  0.28670361722E+03  0.00000000000E+00 0. -1.
<mgrwt>
<rscale>  4 0.26464507E+03</rscale>
<asrwt>0</asrwt>
<pdfrwt beam="1">  1       21 0.93085941E-01 0.27040349E+03</pdfrwt>
<pdfrwt beam="2">  1       21 0.66655079E-01 0.27040349E+03</pdfrwt>
<totfact> 0.18856505E+03</totfact>
</mgrwt>
</event>
<event>
 5    0  0.3387552E+000  0.3811849E+03  0.7546771E-02  0.1050497E+00
         21   -1    0    0  503  501  0.00000000000E+00  0.00000000000E+00  0.60774603354E+03  0.60774603354E+03  0.00000000000E+00 0. -1.
         21   -1    0    0  501  502 -0.00000000000E+00 -0.00000000000E+00 -0.48643698354E+03  0.48643698354E+03  0.00000000000E+00 0.  1.
         25    1    1    2    0    0 -0.17761239196E+03  0.26066531522E+03  0.35715490428E+03  0.49262277047E+03  0.12500000000E+03 0.  0.
         21    1    1    2  503  504  0.28846685914E+02  0.78112136142E+02  0.79710524906E+02  0.11527100625E+03  0.00000000000E+00 0. -1.
         21    1    1    2  504  502  0.14876570604E+03 -0.33877745136E+03 -0.31555637918E+03  0.48628924036E+03  0.00000000000E+00 0.  1.
<mgrwt>
<rscale>  4 0.38118488E+03</rscale>
<asrwt>0</asrwt>
<pdfrwt beam="1">  1       21 0.93499389E-01 0.38118488E+03</pdfrwt>
<pdfrwt beam="2">  1       21 0.74836460E-01 0.38118488E+03</pdfrwt>
<totfact> 0.13538974E+03</totfact>
</mgrwt>
</event>
<event>
 5    0  0.3387552E+000  0.1883485E+03  0.7546771E-02  0.1159959E+00
         21   -1    0    0  502  501  0.00000000000E+00  0.00000000000E+00  0.12652858436E+04  0.12652858436E+04  0.00000000000E+00 0.  1.
         21   -1    0    0  503  502 -0.00000000000E+00 -0.00000000000E+00 -0.21505139227E+03  0.21505139227E+03  0.00000000000E+00 0. -1.
         25    1    1    2    0    0 -0.10858984328E+03  0.16942578678E+03 -0.87746161483E+02  0.25262866057E+03  0.12500000000E+03 0.  0.
         21    1    1    2  503  504  0.11618145367E+03 -0.29366241421E+02  0.48568085701E+02  0.12930338457E+03  0.00000000000E+00 0.  1.
         21    1    1    2  504  501 -0.75916103879E+01 -0.14005954535E+03  0.10894125271E+04  0.10984051907E+04  0.00000000000E+00 0.  1.
<mgrwt>
<rscale>  4 0.18834849E+03</rscale>
<asrwt>0</asrwt>
<pdfrwt beam="1">  1       21 0.19465936E+00 0.18834849E+03</pdfrwt>
<pdfrwt beam="2">  1       21 0.33084830E-01 0.18834849E+03</pdfrwt>
<totfact> 0.12848661E+03</totfact>
</mgrwt>
</event>
<event>
 5    0  0.3387552E+000  0.3598215E+03  0.7546771E-02  0.1058655E+00
         21   -1    0    0  503  501  0.00000000000E+00  0.00000000000E+00  0.62608826632E+03  0.62608826632E+03  0.00000000000E+00 0. -1.
         21   -1    0    0  504  502 -0.00000000000E+00 -0.00000000000E+00 -0.51735448506E+03  0.51735448506E+03  0.00000000000E+00 0. -1.
         25    1    1    2    0    0 -0.30599348858E+03 -0.14389135056E+03 -0.37233410666E+03  0.51826096013E+03  0.12500000000E+03 0.  0.
         21    1    1    2  503  502  0.31008340205E+03  0.12415184079E+03  0.31902555825E+03  0.46189035778E+03  0.00000000000E+00 0. -1.
         21    1    1    2  504  501 -0.40899134707E+01  0.19739509770E+02  0.16204232967E+03  0.16329143346E+03  0.00000000000E+00 0. -1.
<mgrwt>
<rscale>  4 0.35982147E+03</rscale>
<asrwt>0</asrwt>
<pdfrwt beam="1">  1       21 0.96321271E-01 0.35982147E+03</pdfrwt>
<pdfrwt beam="2">  1       21 0.79592998E-01 0.35982147E+03</pdfrwt>
<totfact> 0.11074092E+03</totfact>
</mgrwt>
</event>
<event>
 5    0  0.3387552E+000  0.3430887E+03  0.7546771E-02  0.1065488E+00
         21   -1    0    0  503  501  0.00000000000E+00  0.00000000000E+00  0.19179610539E+03  0.19179610539E+03  0.00000000000E+00 0.  1.
         21   -1    0    0  501  502 -0.00000000000E+00 -0.00000000000E+00 -0.97342356235E+03  0.97342356235E+03  0.00000000000E+00 0.  1.
         25    1    1    2    0    0 -0.23836939063E+03  0.20084448001E+03 -0.59723019566E+03  0.68517689551E+03  0.12500000000E+03 0.  0.
         21    1    1    2  503  504  0.35571583698E+01  0.39318212422E+02  0.54911951385E+02  0.67630596689E+02  0.00000000000E+00 0.  1.
         21    1    1    2  504  502  0.23481223226E+03 -0.24016269243E+03 -0.23930921270E+03  0.41241217554E+03  0.00000000000E+00 0.  1.
<mgrwt>
<rscale>  4 0.34308874E+03</rscale>
<asrwt>0</asrwt>
<pdfrwt beam="1">  1       21 0.29507093E-01 0.34308874E+03</pdfrwt>
<pdfrwt beam="2">  1       21 0.14975747E+00 0.34308874E+03</pdfrwt>
<totfact> 0.29837537E+03</totfact>
</mgrwt>
</event>
<event>
 5    0  0.3387552E+000  0.2513492E+03  0.7546771E-02  0.1112455E+00
         21   -1    0    0  503  501  0.00000000000E+00  0.00000000000E+00  0.56038946891E+03  0.56038946891E+03  0.00000000000E+00 0.  1.
         21   -1    0    0  504  502 -0.00000000000E+00 -0.00000000000E+00 -0.20461139003E+03  0.20461139003E+03  0.00000000000E+00 0.  1.
         25    1    1    2    0    0  0.87839937519E+02 -0.18230658602E+03 -0.23720396772E+02  0.23903807888E+03  0.12500000000E+03 0.  0.
         21    1    1    2  503  502 -0.52800625046E+02  0.26696803577E+03  0.27297463326E+03  0.38545426257E+03  0.00000000000E+00 0.  1.
         21    1    1    2  504  501 -0.35039312473E+02 -0.84661449745E+02  0.10652384239E+03  0.14050851749E+03  0.00000000000E+00 0.  1.
<mgrwt>
<rscale>  4 0.25134917E+03</rscale>
<asrwt>0</asrwt>
<pdfrwt beam="1">  1       21 0.86213764E-01 0.25134917E+03</pdfrwt>
<pdfrwt beam="2">  1       21 0.31478676E-01 0.25134917E+03</pdfrwt>
<totfact> 0.10849579E+04</totfact>
</mgrwt>
</event>
<event>
 5    0  0.3387552E+000  0.3181470E+03  0.7546771E-02  0.1076505E+00
         21   -1    0    0  503  501  0.00000000000E+00  0.00000000000E+00  0.30171526454E+03  0.30171526454E+03  0.00000000000E+00 0. -1.
         21   -1    0    0  504  502 -0.00000000000E+00 -0.00000000000E+00 -0.37943029605E+03  0.37943029605E+03  0.00000000000E+00 0. -1.
         25    1    1    2    0    0  0.24903430587E+03  0.15353969779E+03 -0.18299697067E+03  0.36702236386E+03  0.12500000000E+03 0.  0.
         21    1    1    2  503  502 -0.22656989004E+03 -0.15249319132E+03  0.93059134243E+02  0.28852745265E+03  0.00000000000E+00 0. -1.
         21    1    1    2  504  501 -0.22464415838E+02 -0.10465064685E+01  0.12222804916E+02  0.25595744075E+02  0.00000000000E+00 0.  1.
<mgrwt>
<rscale>  4 0.31814702E+03</rscale>
<asrwt>0</asrwt>
<pdfrwt beam="1">  1       21 0.46417733E-01 0.31814702E+03</pdfrwt>
<pdfrwt beam="2">  1       21 0.58373891E-01 0.31814702E+03</pdfrwt>
<totfact> 0.11431017E+04</totfact>
</mgrwt>
</event>
<event>
 5    0  0.3387552E+000  0.4778270E+03  0.7546771E-02  0.1019734E+00
         21   -1    0    0  502  501  0.00000000000E+00  0.00000000000E+00  0.59181729558E+03  0.59181729558E+03  0.00000000000E+00 0.  1.
         21   -1    0    0  504  502 -0.00000000000E+00 -0.00000000000E+00 -0.40875011451E+03  0.40875011451E+03  0.00000000000E+00 0.  1.
         25    1    1    2    0    0  0.23550013052E+03 -0.40533369428E+03  0.31544543917E+02  0.48618491693E+03  0.12500000000E+03 0.  0.
         21    1    1    2  503  501 -0.25264247046E+03  0.37976338952E+03  0.15838936050E+03  0.48284121554E+03  0.00000000000E+00 0.  1.
         21    1    1    2  504  503  0.17142339938E+02  0.25570304760E+02 -0.68667233463E+01  0.31541277615E+02  0.00000000000E+00 0.  1.
<mgrwt>
<rscale>  4 0.47782697E+03</rscale>
<asrwt>0</asrwt>
<pdfrwt beam="1">  1       21 0.91048815E-01 0.47782697E+03</pdfrwt>
<pdfrwt beam="2">  1       21 0.62884633E-01 0.47782697E+03</pdfrwt>
<totfact> 0.20476284E+03</totfact>
</mgrwt>
</event>
<event>
 5    0  0.3387552E+000  0.4727475E+03  0.7546771E-02  0.1021148E+00
         21   -1    0    0  503  501  0.00000000000E+00  0.00000000000E+00  0.73143534177E+03  0.73143534177E+03  0.00000000000E+00 0. -1.
         21   -1    0    0  504  502 -0.00000000000E+00 -0.00000000000E+00 -0.73806947436E+03  0.73806947436E+03  0.00000000000E+00 0. -1.
         25    1    1    2    0    0 -0.62502900103E+02 -0.42985248088E+03 -0.52225685991E+02  0.45500801105E+03  0.12500000000E+03 0.  0.
         21    1    1    2  503  502  0.77755515518E+02  0.46157656177E+03 -0.37047056625E+03  0.59694830850E+03  0.00000000000E+00 0. -1.
         21    1    1    2  504  501 -0.15252615415E+02 -0.31724080887E+02  0.41606211966E+03  0.41754849658E+03  0.00000000000E+00 0. -1.
<mgrwt>
<rscale>  4 0.47274753E+03</rscale>
<asrwt>0</asrwt>
<pdfrwt beam="1">  1       21 0.11252851E+00 0.47274753E+03</pdfrwt>
<pdfrwt beam="2">  1       21 0.11354915E+00 0.47274753E+03</pdfrwt>
<totfact> 0.30575856E+02</totfact>
</mgrwt>
</event>
<event>
 5    0  0.3387552E+000  0.3021135E+03  0.7546771E-02  0.1084189E+00
         21   -1    0    0  502  501  0.00000000000E+00  0.00000000000E+00  0.82126841954E+03  0.82126841954E+03  0.00000000000E+00 0.  1.
         21   -1    0    0  503  502 -0.00000000000E+00 -0.00000000000E+00 -0.11995382199E+03  0.11995382199E+03  0.00000000000E+00 0.  1.
         25    1    1    2    0    0  0.25557711672E+03 -0.38152756472E+02  0.32132011869E+03  0.43086762943E+03  0.12500000000E+03 0.  0.
         21    1    1    2  503  504  0.29261269533E+02 -0.16294830900E+02  0.10685008943E+03  0.11197626989E+03  0.00000000000E+00 0.  1.
         21    1    1    2  504  501 -0.28483838626E+03  0.54447587373E+02  0.27314438944E+03  0.39837834221E+03  0.00000000000E+00 0.  1.
<mgrwt>
<rscale>  4 0.30211348E+03</rscale>
<asrwt>0</asrwt>
<pdfrwt beam="1">  1       21 0.12634898E+00 0.30211348E+03</pdfrwt>
<pdfrwt beam="2">  1       21 0.18454435E-01 0.30211348E+03</pdfrwt>
<totfact> 0.11687168E+04</totfact>
</mgrwt>
</event>
<event>
 5    0  0.3387552E+000  0.3649061E+03  0.7546771E-02  0.1057848E+00
         21   -1    0    0  502  501  0.00000000000E+00  0.00000000000E+00  0.29374941678E+04  0.29374941678E+04  0.00000000000E+00 0.  1.
         21   -1    0    0  504  502 -0.00000000000E+00 -0.00000000000E+00 -0.80843123231E+02  0.80843123231E+02  0.00000000000E+00 0. -1.
         25    1    1    2    0    0 -0.37872949922E+02  0.32783291114E+03  0.39455241439E+03  0.52934429785E+03  0.12500000000E+03 0.  0.
         21    1    1    2  503  501  0.81990357446E+02 -0.24459270990E+03  0.20554133899E+04  0.20715386107E+04  0.00000000000E+00 0.  1.
         21    1    1    2  504  503 -0.44117407524E+02 -0.83240201247E+02  0.40668524028E+03  0.41745438243E+03  0.00000000000E+00 0.  1.
<mgrwt>
<rscale>  4 0.36186513E+03</rscale>
<asrwt>0</asrwt>
<pdfrwt beam="1">  1       21 0.45192210E+00 0.36490609E+03</pdfrwt>
<pdfrwt beam="2">  1       21 0.12437406E-01 0.36490609E+03</pdfrwt>
<totfact> 0.17967239E+02</totfact>
</mgrwt>
</event>
<event>
 5    0  0.3387552E+000  0.2577746E+03  0.7546771E-02  0.1108488E+00
         21   -1    0    0  503  501  0.00000000000E+00  0.00000000000E+00  0.10564607188E+03  0.10564607188E+03  0.00000000000E+00 0.  1.
         21   -1    0    0  501  502 -0.00000000000E+00 -0.00000000000E+00 -0.11233322048E+04  0.11233322048E+04  0.00000000000E+00 0.  1.
         25    1    1    2    0    0  0.18532153768E+03 -0.12139391505E+03 -0.79520843752E+03  0.83490239792E+03  0.12500000000E+03 0.  0.
         21    1    1    2  503  504 -0.23228894904E+02 -0.57046539827E+02  0.60631922249E+01  0.61892257712E+02  0.00000000000E+00 0.  1.
         21    1    1    2  504  502 -0.16209264277E+03  0.17844045488E+03 -0.22854088762E+03  0.33218362105E+03  0.00000000000E+00 0.  1.
<mgrwt>
<rscale>  4 0.25777465E+03</rscale>
<asrwt>0</asrwt>
<pdfrwt beam="1">  1       21 0.16253241E-01 0.25777465E+03</pdfrwt>
<pdfrwt beam="2">  1       21 0.17282035E+00 0.25777465E+03</pdfrwt>
<totfact> 0.65812659E+03</totfact>
</mgrwt>
</event>
<event>
 5    0  0.3387552E+000  0.2795094E+03  0.7546771E-02  0.1095957E+00
         21   -1    0    0  503  501  0.00000000000E+00  0.00000000000E+00  0.12537362317E+04  0.12537362317E+04  0.00000000000E+00 0. -1.
         21   -1    0    0  501  502 -0.00000000000E+00 -0.00000000000E+00 -0.27352044748E+03  0.27352044748E+03  0.00000000000E+00 0.  1.
         25    1    1    2    0    0  0.20160319677E+02  0.24649850066E+03 -0.17242588717E+03  0.32637958864E+03  0.12500000000E+03 0.  0.
         21    1    1    2  503  504 -0.31773727816E+02  0.39261304403E+02  0.19567899535E+03  0.20209227849E+03  0.00000000000E+00 0.  1.
         21    1    1    2  504  502  0.11613408139E+02 -0.28575980506E+03  0.95696267605E+03  0.99878481205E+03  0.00000000000E+00 0. -1.
<mgrwt>
<rscale>  4 0.27950941E+03</rscale>
<asrwt>0</asrwt>
<pdfrwt beam="1">  1       21 0.19288249E+00 0.27950941E+03</pdfrwt>
<pdfrwt beam="2">  1       21 0.42080069E-01 0.27950941E+03</pdfrwt>
<totfact> 0.74665106E+02</totfact>
</mgrwt>
</event>
<event>
 5    0  0.3387552E+000  0.2427887E+03  0.7546771E-02  0.1117949E+00
         21   -1    0    0  503  501  0.00000000000E+00  0.00000000000E+00  0.22096954519E+03  0.22096954519E+03  0.00000000000E+00 0. -1.
         21   -1    0    0  504  502 -0.00000000000E+00 -0.00000000000E+00 -0.62678853110E+03  0.62678853110E+03  0.00000000000E+00 0. -1.
         25    1    1    2    0    0 -0.16685330035E+03 -0.11756251101E+03  0.42881794393E+02  0.24315595021E+03  0.12500000000E+03 0.  0.
         21    1    1    2  503  502  0.19956644375E+03  0.65165252511E+02 -0.48810199671E+03  0.53133495537E+03  0.00000000000E+00 0. -1.
         21    1    1    2  504  501 -0.32713143400E+02  0.52397258502E+02  0.39401216405E+02  0.73267170710E+02  0.00000000000E+00 0. -1.
<mgrwt>
<rscale>  4 0.24278866E+03</rscale>
<asrwt>0</asrwt>
<pdfrwt beam="1">  1       21 0.33995315E-01 0.24278866E+03</pdfrwt>
<pdfrwt beam="2">  1       21 0.96429004E-01 0.24278866E+03</pdfrwt>
<totfact> 0.72062643E+03</totfact>
</mgrwt>
</event>
<event>
 5    0  0.3387552E+000  0.4751613E+03  0.7546771E-02  0.1020474E+00
         21   -1    0    0  503  501  0.00000000000E+00  0.00000000000E+00  0.22240208483E+04  0.22240208483E+04  0.00000000000E+00 0.  1.
         21   -1    0    0  501  502 -0.00000000000E+00 -0.00000000000E+00 -0.28235255130E+03  0.28235255130E+03  0.00000000000E+00 0. -1.
         25    1    1    2    0    0  0.19313779775E+03  0.40796343836E+03  0.17547264326E+03  0.50015200138E+03  0.12500000000E+03 0.  0.
         21    1    1    2  503  504  0.42734636367E+02 -0.26243021629E+01  0.14265078334E+04  0.14271502145E+04  0.00000000000E+00 0.  1.
         21    1    1    2  504  502 -0.23587243412E+03 -0.40533913619E+03  0.33968782039E+03  0.57907118373E+03  0.00000000000E+00 0. -1.
<mgrwt>
<rscale>  4 0.47516126E+03</rscale>
<asrwt>0</asrwt>
<pdfrwt beam="1">  1       21 0.34215704E+00 0.47516126E+03</pdfrwt>
<pdfrwt beam="2">  1       21 0.43438855E-01 0.47516126E+03</pdfrwt>
<totfact> 0.73917283E+01</totfact>
</mgrwt>
</event>
<event>
 5    0  0.3387552E+000  0.2625828E+03  0.7546771E-02  0.1105601E+00
         21   -1    0    0  502  501  0.00000000000E+00  0.00000000000E+00  0.59444989312E+03  0.59444989312E+03  0.00000000000E+00 0. -1.
         21   -1    0    0  503  502 -0.00000000000E+00 -0.00000000000E+00 -0.13950844468E+04  0.13950844468E+04  0.00000000000E+00 0. -1.
         25    1    1    2    0    0 -0.12614531467E+03 -0.16676992736E+03 -0.12464517887E+04  0.12700361847E+04  0.12500000000E+03 0.  0.
         21    1    1    2  503  504 -0.77927860907E+02  0.57066719432E+02 -0.92314415711E+02  0.13360880705E+03  0.00000000000E+00 0. -1.
         21    1    1    2  504  501  0.20407317558E+03  0.10970320793E+03  0.53813165067E+03  0.58588934815E+03  0.00000000000E+00 0. -1.
<mgrwt>
<rscale>  4 0.26258278E+03</rscale>
<asrwt>0</asrwt>
<pdfrwt beam="1">  1       21 0.91453829E-01 0.26258278E+03</pdfrwt>
<pdfrwt beam="2">  1       21 0.21462838E+00 0.26258278E+03</pdfrwt>
<totfact> 0.10068767E+02</totfact>
</mgrwt>
</event>
<event>
 5    0  0.3387552E+000  0.2085693E+03  0.7546771E-02  0.1142704E+00
         21   -1    0    0  503  501  0.00000000000E+00  0.00000000000E+00  0.85946848023E+02  0.85946848023E+02  0.00000000000E+00 0.  1.
         21   -1    0    0  504  502 -0.00000000000E+00 -0.00000000000E+00 -0.75356896417E+03  0.75356896417E+03  0.00000000000E+00 0.  1.
         25    1    1    2    0    0 -0.13924266795E+03 -0.16082965215E+03 -0.43210200282E+03  0.49758601109E+03  0.12500000000E+03 0.  0.
         21    1    1    2  503  502  0.30197046607E+02  0.13142105636E+03 -0.12341628632E+03  0.18279752572E+03  0.00000000000E+00 0.  1.
         21    1    1    2  504  501  0.10904562135E+03  0.29408595792E+02 -0.11210382700E+03  0.15913227539E+03  0.00000000000E+00 0.  1.
<mgrwt>
<rscale>  4 0.20856926E+03</rscale>
<asrwt>0</asrwt>
<pdfrwt beam="1">  1       21 0.13222592E-01 0.20856926E+03</pdfrwt>
<pdfrwt beam="2">  1       21 0.11593369E+00 0.20856926E+03</pdfrwt>
<totfact> 0.28073083E+04</totfact>
</mgrwt>
</event>
<event>
 5    0  0.3387552E+000  0.2438923E+03  0.7546771E-02  0.1117227E+00
         21   -1    0    0  503  501  0.00000000000E+00  0.00000000000E+00  0.55925187177E+02  0.55925187177E+02  0.00000000000E+00 0.  1.
         21   -1    0    0  501  502 -0.00000000000E+00 -0.00000000000E+00 -0.16138925069E+04  0.16138925069E+04  0.00000000000E+00 0.  1.
         25    1    1    2    0    0  0.48746836972E+02  0.23869172557E+03 -0.10985985113E+04  0.11322074381E+04  0.12500000000E+03 0.  0.
         21    1    1    2  503  504 -0.50818473602E+02 -0.63988054634E+02 -0.59021283381E+02  0.10079930698E+03  0.00000000000E+00 0.  1.
         21    1    1    2  504  502  0.20716366302E+01 -0.17470367094E+03 -0.40034752507E+03  0.43681094898E+03  0.00000000000E+00 0.  1.
<mgrwt>
<rscale>  4 0.24389230E+03</rscale>
<asrwt>0</asrwt>
<pdfrwt beam="1">  1       21 0.86038750E-02 0.24389230E+03</pdfrwt>
<pdfrwt beam="2">  1       21 0.24829115E+00 0.24389230E+03</pdfrwt>
<totfact> 0.68690170E+03</totfact>
</mgrwt>
</event>
