<event>
 5    0  0.1911311E+001  0.2096000E+03  0.7546771E-02  0.1141883E+00
         21   -1    0    0  502  501  0.00000000000E+00  0.00000000000E+00  0.10700414505E+04  0.10700414505E+04  0.00000000000E+00 0.  1.
         21   -1    0    0  504  502 -0.00000000000E+00 -0.00000000000E+00 -0.72694683981E+03  0.72694683981E+03  0.00000000000E+00 0.  1.
         25    1    1    2    0    0  0.98483238974E+02  0.17453315393E+03 -0.56290081991E+03  0.61044500427E+03  0.12500000000E+03 0.  0.
         21    1    1    2  503  501 -0.39417915849E+02 -0.16327162660E+03  0.10327132804E+04  0.10462829998E+04  0.00000000000E+00 0.  1.
         21    1    1    2  504  503 -0.59065323125E+02 -0.11261527331E+02 -0.12671784989E+03  0.14026028616E+03  0.00000000000E+00 0.  1.
<mgrwt>
<rscale>  4 0.20959997E+03</rscale>
<asrwt>0</asrwt>
<pdfrwt beam="1">  1       21 0.16462176E+00 0.20959997E+03</pdfrwt>
<pdfrwt beam="2">  1       21 0.11183797E+00 0.20959997E+03</pdfrwt>
<totfact> 0.14299178E+02</totfact>
</mgrwt>
</event>
<event>
 5    0  0.1911311E+001  0.3099487E+03  0.7546771E-02  0.1080370E+00
         21   -1    0    0  504  501  0.00000000000E+00  0.00000000000E+00  0.73922493123E+02  0.73922493123E+02  0.00000000000E+00 0.  1.
         21   -1    0    0  501  502 -0.00000000000E+00 -0.00000000000E+00 -0.19628673962E+04  0.19628673962E+04  0.00000000000E+00 0.  1.
         25    1    1    2    0    0  0.24908055746E+03 -0.14954831108E+03 -0.39980248765E+03  0.50977725585E+03  0.12500000000E+03 0.  0.
         21    1    1    2  503  502 -0.25240133280E+03  0.88530051016E+02 -0.13280772501E+04  0.13547446937E+04  0.00000000000E+00 0.  1.
         21    1    1    2  504  503  0.33207753427E+01  0.61018260067E+02 -0.16106516532E+03  0.17226793982E+03  0.00000000000E+00 0. -1.
<mgrwt>
<rscale>  4 0.30994865E+03</rscale>
<asrwt>0</asrwt>
<pdfrwt beam="1">  1       21 0.11372692E-01 0.30994865E+03</pdfrwt>
<pdfrwt beam="2">  1       21 0.30197959E+00 0.30994865E+03</pdfrwt>
<totfact> 0.19120270E+03</totfact>
</mgrwt>
</event>
<event>
 5    0  0.1911311E+001  0.2292956E+03  0.7546771E-02  0.1127137E+00
         21   -1    0    0  503  501  0.00000000000E+00  0.00000000000E+00  0.85344731291E+03  0.85344731291E+03  0.00000000000E+00 0. -1.
         21   -1    0    0  504  502 -0.00000000000E+00 -0.00000000000E+00 -0.12459673424E+03  0.12459673424E+03  0.00000000000E+00 0.  1.
         25    1    1    2    0    0  0.21615327219E+03 -0.58230546401E+02  0.56788973029E+03  0.62308649430E+03  0.12500000000E+03 0.  0.
         21    1    1    2  503  502 -0.18108334146E+03  0.47940745879E+02 -0.26233087628E+01  0.18734026108E+03  0.00000000000E+00 0.  1.
         21    1    1    2  504  501 -0.35069930721E+02  0.10289800522E+02  0.16358415714E+03  0.16761729177E+03  0.00000000000E+00 0. -1.
<mgrwt>
<rscale>  4 0.22929557E+03</rscale>
<asrwt>0</asrwt>
<pdfrwt beam="1">  1       21 0.13129958E+00 0.22929557E+03</pdfrwt>
<pdfrwt beam="2">  1       21 0.19168729E-01 0.22929557E+03</pdfrwt>
<totfact> 0.10267545E+04</totfact>
</mgrwt>
</event>
<event>
 5    0  0.1911311E+001  0.2773343E+03  0.7546771E-02  0.1097154E+00
         21   -1    0    0  503  501  0.00000000000E+00  0.00000000000E+00  0.84060140805E+03  0.84060140805E+03  0.00000000000E+00 0. -1.
         21   -1    0    0  504  502 -0.00000000000E+00 -0.00000000000E+00 -0.10730115320E+03  0.10730115320E+03  0.00000000000E+00 0.  1.
         25    1    1    2    0    0 -0.46741217426E+01  0.27024730888E+03  0.31557890676E+03  0.43390148855E+03  0.12500000000E+03 0.  0.
         21    1    1    2  503  502 -0.25702009108E+02 -0.36352313577E+02  0.14424860157E+02  0.46799151329E+02  0.00000000000E+00 0.  1.
         21    1    1    2  504  501  0.30376130850E+02 -0.23389499531E+03  0.40329648793E+03  0.46720192137E+03  0.00000000000E+00 0. -1.
<mgrwt>
<rscale>  4 0.27733430E+03</rscale>
<asrwt>0</asrwt>
<pdfrwt beam="1">  1       21 0.12932329E+00 0.27733430E+03</pdfrwt>
<pdfrwt beam="2">  1       21 0.16507870E-01 0.27733430E+03</pdfrwt>
<totfact> 0.13714696E+04</totfact>
</mgrwt>
</event>
<event>
 5    0  0.1911311E+001  0.2429128E+03  0.7546771E-02  0.1117867E+00
         21   -1    0    0  502  501  0.00000000000E+00  0.00000000000E+00  0.10565034493E+03  0.10565034493E+03  0.00000000000E+00 0. -1.
         21   -1    0    0  504  502 -0.00000000000E+00 -0.00000000000E+00 -0.10433375000E+04  0.10433375000E+04  0.00000000000E+00 0. -1.
         25    1    1    2    0    0  0.24482800841E+03  0.64806563807E+02 -0.47997836505E+03  0.55690652297E+03  0.12500000000E+03 0.  0.
         21    1    1    2  503  501 -0.19562154501E+03 -0.14267487744E+02 -0.86738001620E+02  0.21446405527E+03  0.00000000000E+00 0. -1.
         21    1    1    2  504  503 -0.49206463408E+02 -0.50539076063E+02 -0.37097078836E+03  0.37761726664E+03  0.00000000000E+00 0. -1.
<mgrwt>
<rscale>  4 0.24291277E+03</rscale>
<asrwt>0</asrwt>
<pdfrwt beam="1">  1       21 0.16253899E-01 0.24291277E+03</pdfrwt>
<pdfrwt beam="2">  1       21 0.16051347E+00 0.24291277E+03</pdfrwt>
<totfact> 0.81486479E+03</totfact>
</mgrwt>
</event>
