<event>
 5    0  0.2349231E+000  0.5336926E+03  0.7546771E-02  0.1005341E+00
         21   -1    0    0  503  501  0.00000000000E+00  0.00000000000E+00  0.20236506649E+03  0.20236506649E+03  0.00000000000E+00 0.  1.
         21   -1    0    0  504  502 -0.00000000000E+00 -0.00000000000E+00 -0.40982258360E+03  0.40982258360E+03  0.00000000000E+00 0.  1.
         25    1    1    2    0    0 -0.20672679119E+03 -0.13727013740E+03 -0.11799134417E+03  0.30187085668E+03  0.12500000000E+03 0.  0.
         21    1    1    2  503  502  0.12699319824E+02 -0.29432833164E+02  0.13214198993E+02  0.34672459490E+02  0.00000000000E+00 0.  1.
         21    1    1    2  504  501  0.19402747136E+03  0.16670297057E+03 -0.10268037194E+03  0.27564433392E+03  0.00000000000E+00 0.  1.
<mgrwt>
<rscale>  4 0.53369260E+03</rscale>
<asrwt>0</asrwt>
<pdfrwt beam="1">  1       21 0.31133088E-01 0.53369260E+03</pdfrwt>
<pdfrwt beam="2">  1       21 0.63049627E-01 0.53369260E+03</pdfrwt>
<totfact> 0.20481867E+04</totfact>
</mgrwt>
</event>
<event>
 5    0  0.2349231E+000  0.8745843E+03  0.7546771E-02  0.9457922E-01
         21   -1    0    0  504  501  0.00000000000E+00  0.00000000000E+00  0.63466473440E+03  0.63466473440E+03  0.00000000000E+00 0.  1.
         21   -1    0    0  503  502 -0.00000000000E+00 -0.00000000000E+00 -0.93175218970E+03  0.93175218970E+03  0.00000000000E+00 0.  1.
         25    1    1    2    0    0  0.35552004758E+02  0.32800914509E+03 -0.11211817912E+03  0.37020187790E+03  0.12500000000E+03 0.  0.
         21    1    1    2  503  501 -0.92145211569E+02 -0.45309537413E+03 -0.60090630019E+03  0.75820481380E+03  0.00000000000E+00 0.  1.
         21    1    1    2  504  502  0.56593206811E+02  0.12508622903E+03  0.41593702401E+03  0.43801023240E+03  0.00000000000E+00 0.  1.
<mgrwt>
<rscale>  4 0.87458433E+03</rscale>
<asrwt>0</asrwt>
<pdfrwt beam="1">  1       21 0.97640728E-01 0.87458433E+03</pdfrwt>
<pdfrwt beam="2">  1       21 0.14334649E+00 0.87458433E+03</pdfrwt>
<totfact> 0.20720919E+02</totfact>
</mgrwt>
</event>
<event>
 5    0  0.2349231E+000  0.5777504E+03  0.7546771E-02  0.9952673E-01
         21   -1    0    0  503  501  0.00000000000E+00  0.00000000000E+00  0.10830444008E+04  0.10830444008E+04  0.00000000000E+00 0.  1.
         21   -1    0    0  504  502 -0.00000000000E+00 -0.00000000000E+00 -0.57775674065E+03  0.57775674065E+03  0.00000000000E+00 0.  1.
         25    1    1    2    0    0  0.24609253992E+03 -0.15704933639E+03 -0.21635086501E+03  0.38426387946E+03  0.12500000000E+03 0.  0.
         21    1    1    2  503  502  0.11896050563E+03  0.23134378727E+03 -0.16962089271E+03  0.31055240629E+03  0.00000000000E+00 0.  1.
         21    1    1    2  504  501 -0.36505304555E+03 -0.74294450877E+02  0.89125941787E+03  0.96598485570E+03  0.00000000000E+00 0.  1.
<mgrwt>
<rscale>  4 0.57775036E+03</rscale>
<asrwt>0</asrwt>
<pdfrwt beam="1">  1       21 0.16662221E+00 0.57775036E+03</pdfrwt>
<pdfrwt beam="2">  1       21 0.88885653E-01 0.57775036E+03</pdfrwt>
<totfact> 0.18725704E+02</totfact>
</mgrwt>
</event>
<event>
 5    0  0.2349231E+000  0.6269562E+03  0.7546771E-02  0.9851007E-01
         21   -1    0    0  502  501  0.00000000000E+00  0.00000000000E+00  0.86830172981E+03  0.86830172981E+03  0.00000000000E+00 0.  1.
         21   -1    0    0  504  502 -0.00000000000E+00 -0.00000000000E+00 -0.42589860014E+03  0.42589860014E+03  0.00000000000E+00 0. -1.
         25    1    1    2    0    0 -0.27210530441E+03 -0.38928359972E+02 -0.29252462211E+03  0.42041927696E+03  0.12500000000E+03 0.  0.
         21    1    1    2  503  501  0.65389528513E+02 -0.12833695403E+02  0.63487720265E+03  0.63836475202E+03  0.00000000000E+00 0.  1.
         21    1    1    2  504  503  0.20671577590E+03  0.51762055375E+02  0.10005054912E+03  0.23541630097E+03  0.00000000000E+00 0.  1.
<mgrwt>
<rscale>  4 0.62695617E+03</rscale>
<asrwt>0</asrwt>
<pdfrwt beam="1">  1       21 0.13358488E+00 0.62695617E+03</pdfrwt>
<pdfrwt beam="2">  1       21 0.65522862E-01 0.62695617E+03</pdfrwt>
<totfact> 0.68180440E+02</totfact>
</mgrwt>
</event>
