<event>
 5    0  0.1911311E+001  0.2362207E+03  0.7546771E-02  0.1122336E+00
         21   -1    0    0  504  501  0.00000000000E+00  0.00000000000E+00  0.36088891499E+04  0.36088891499E+04  0.00000000000E+00 0.  1.
         21   -1    0    0  501  502 -0.00000000000E+00 -0.00000000000E+00 -0.13655563850E+02  0.13655563850E+02  0.00000000000E+00 0. -1.
         25    1    1    2    0    0 -0.17819328659E+03 -0.91773598849E+02  0.17647700915E+04  0.17805093981E+04  0.12500000000E+03 0.  0.
         21    1    1    2  503  502  0.32878170639E+02 -0.12058332877E+01  0.24048810786E+03  0.24272815692E+03  0.00000000000E+00 0.  1.
         21    1    1    2  504  503  0.14531511596E+03  0.92979432137E+02  0.15899753867E+04  0.15993071587E+04  0.00000000000E+00 0. -1.
<mgrwt>
<rscale>  4 0.23622075E+03</rscale>
<asrwt>0</asrwt>
<pdfrwt beam="1">  1       21 0.55521296E+00 0.23622075E+03</pdfrwt>
<pdfrwt beam="2">  1       21 0.21008589E-02 0.23622075E+03</pdfrwt>
<totfact> 0.80156938E+02</totfact>
</mgrwt>
</event>
<event>
 5    0  0.1911311E+001  0.3365492E+03  0.7546771E-02  0.1068275E+00
         21   -1    0    0  504  501  0.00000000000E+00  0.00000000000E+00  0.15103939472E+04  0.15103939472E+04  0.00000000000E+00 0. -1.
         21   -1    0    0  503  502 -0.00000000000E+00 -0.00000000000E+00 -0.20375112342E+03  0.20375112342E+03  0.00000000000E+00 0. -1.
         25    1    1    2    0    0 -0.17221013343E+03 -0.23241461341E+03  0.89622572879E+03  0.95000970497E+03  0.12500000000E+03 0.  0.
         21    1    1    2  503  501  0.12008683901E+03  0.29377084560E+03 -0.27801513233E+02  0.31858292918E+03  0.00000000000E+00 0. -1.
         21    1    1    2  504  502  0.52123294418E+02 -0.61356232195E+02  0.43821860817E+03  0.44555243642E+03  0.00000000000E+00 0. -1.
<mgrwt>
<rscale>  4 0.33654920E+03</rscale>
<asrwt>0</asrwt>
<pdfrwt beam="1">  1       21 0.23236829E+00 0.33654920E+03</pdfrwt>
<pdfrwt beam="2">  1       21 0.31346328E-01 0.33654920E+03</pdfrwt>
<totfact> 0.72530764E+02</totfact>
</mgrwt>
</event>
<event>
 5    0  0.1911311E+001  0.2380924E+03  0.7546771E-02  0.1121070E+00
         21   -1    0    0  504  501  0.00000000000E+00  0.00000000000E+00  0.13065896401E+03  0.13065896401E+03  0.00000000000E+00 0. -1.
         21   -1    0    0  503  502 -0.00000000000E+00 -0.00000000000E+00 -0.15118304525E+04  0.15118304525E+04  0.00000000000E+00 0. -1.
         25    1    1    2    0    0 -0.47586646040E+02 -0.27942663782E+03 -0.94697449448E+03  0.99635808222E+03  0.12500000000E+03 0.  0.
         21    1    1    2  503  501 -0.10910827560E+02  0.16116830606E+03 -0.48001469501E+03  0.50646656007E+03  0.00000000000E+00 0. -1.
         21    1    1    2  504  502  0.58497473600E+02  0.11825833176E+03  0.45817700961E+02  0.13966477427E+03  0.00000000000E+00 0. -1.
<mgrwt>
<rscale>  4 0.23809238E+03</rscale>
<asrwt>0</asrwt>
<pdfrwt beam="1">  1       21 0.20101379E-01 0.23809238E+03</pdfrwt>
<pdfrwt beam="2">  1       21 0.23258931E+00 0.23809238E+03</pdfrwt>
<totfact> 0.18416268E+03</totfact>
</mgrwt>
</event>
<event>
 5    0  0.1911311E+001  0.2525883E+03  0.7546771E-02  0.1111680E+00
         21   -1    0    0  503  501  0.00000000000E+00  0.00000000000E+00  0.16046152921E+03  0.16046152921E+03  0.00000000000E+00 0. -1.
         21   -1    0    0  504  502 -0.00000000000E+00 -0.00000000000E+00 -0.13630335289E+04  0.13630335289E+04  0.00000000000E+00 0. -1.
         25    1    1    2    0    0  0.18778279034E+03 -0.84305874918E+02 -0.94047355676E+02  0.25853387013E+03  0.12500000000E+03 0.  0.
         21    1    1    2  503  502 -0.79414968482E+02 -0.18775026922E+03 -0.85072634250E+03  0.87480981397E+03  0.00000000000E+00 0. -1.
         21    1    1    2  504  501 -0.10836782186E+03  0.27205614413E+03 -0.25779830155E+03  0.39015137403E+03  0.00000000000E+00 0. -1.
<mgrwt>
<rscale>  4 0.25258825E+03</rscale>
<asrwt>0</asrwt>
<pdfrwt beam="1">  1       21 0.24686389E-01 0.25258825E+03</pdfrwt>
<pdfrwt beam="2">  1       21 0.20969747E+00 0.25258825E+03</pdfrwt>
<totfact> 0.17079540E+03</totfact>
</mgrwt>
</event>
<event>
 5    0  0.1911311E+001  0.2959280E+03  0.7546771E-02  0.1087294E+00
         21   -1    0    0  502  501  0.00000000000E+00  0.00000000000E+00  0.52519472801E+03  0.52519472801E+03  0.00000000000E+00 0.  1.
         21   -1    0    0  504  502 -0.00000000000E+00 -0.00000000000E+00 -0.17096194251E+03  0.17096194251E+03  0.00000000000E+00 0.  1.
         25    1    1    2    0    0 -0.78833037975E+02  0.25527420997E+03  0.17080098513E+03  0.34084827515E+03  0.12500000000E+03 0.  0.
         21    1    1    2  503  501 -0.30049092478E+02 -0.81809774485E+01  0.36217130912E+02  0.47765645837E+02  0.00000000000E+00 0.  1.
         21    1    1    2  504  503  0.10888213045E+03 -0.24709323252E+03  0.14721466946E+03  0.30754274953E+03  0.00000000000E+00 0.  1.
<mgrwt>
<rscale>  4 0.29592804E+03</rscale>
<asrwt>0</asrwt>
<pdfrwt beam="1">  1       21 0.80799188E-01 0.29592804E+03</pdfrwt>
<pdfrwt beam="2">  1       21 0.26301838E-01 0.29592804E+03</pdfrwt>
<totfact> 0.17522372E+04</totfact>
</mgrwt>
</event>
