<event>
 5    0  0.1480317E+000  0.2401502E+03  0.7546771E-02  0.1119693E+00
         21   -1    0    0  504  501  0.00000000000E+00  0.00000000000E+00  0.68721391330E+02  0.68721391330E+02  0.00000000000E+00 0.  1.
         21   -1    0    0  501  502 -0.00000000000E+00 -0.00000000000E+00 -0.89184894967E+03  0.89184894967E+03  0.00000000000E+00 0. -1.
         25    1    1    2    0    0 -0.91433024753E+02 -0.19620887252E+03 -0.51456044688E+03  0.57206238573E+03  0.12500000000E+03 0.  0.
         21    1    1    2  503  502  0.40728714653E+02  0.90078067811E+01 -0.46299363189E+02  0.62318535060E+02  0.00000000000E+00 0. -1.
         21    1    1    2  504  503  0.50704310099E+02  0.18720106574E+03 -0.26226774826E+03  0.32618942021E+03  0.00000000000E+00 0.  1.
<mgrwt>
<rscale>  4 0.24015016E+03</rscale>
<asrwt>0</asrwt>
<pdfrwt beam="1">  1       21 0.10572521E-01 0.24015016E+03</pdfrwt>
<pdfrwt beam="2">  1       21 0.13720753E+00 0.24015016E+03</pdfrwt>
<totfact> 0.26963519E+04</totfact>
</mgrwt>
</event>
<event>
 5    0  0.1480317E+000  0.2377712E+03  0.7546771E-02  0.1121287E+00
         21   -1    0    0  504  501  0.00000000000E+00  0.00000000000E+00  0.21702391692E+03  0.21702391692E+03  0.00000000000E+00 0. -1.
         21   -1    0    0  501  502 -0.00000000000E+00 -0.00000000000E+00 -0.24059928449E+03  0.24059928449E+03  0.00000000000E+00 0. -1.
         25    1    1    2    0    0 -0.11635525672E+03  0.16544367742E+03 -0.39004926424E+02  0.24094924870E+03  0.12500000000E+03 0.  0.
         21    1    1    2  503  502  0.44179938595E+02 -0.11810749739E+03 -0.10536173308E+02  0.12653955454E+03  0.00000000000E+00 0. -1.
         21    1    1    2  504  503  0.72175318120E+02 -0.47336180034E+02  0.25965732163E+02  0.90134398166E+02  0.00000000000E+00 0. -1.
<mgrwt>
<rscale>  4 0.23777123E+03</rscale>
<asrwt>0</asrwt>
<pdfrwt beam="1">  1       21 0.33388295E-01 0.23777123E+03</pdfrwt>
<pdfrwt beam="2">  1       21 0.37015275E-01 0.23777123E+03</pdfrwt>
<totfact> 0.59627125E+04</totfact>
</mgrwt>
</event>
<event>
 5    0  0.1480317E+000  0.2467486E+03  0.7546771E-02  0.1115377E+00
         21   -1    0    0  504  501  0.00000000000E+00  0.00000000000E+00  0.39644676272E+03  0.39644676272E+03  0.00000000000E+00 0. -1.
         21   -1    0    0  501  502 -0.00000000000E+00 -0.00000000000E+00 -0.16166643185E+03  0.16166643185E+03  0.00000000000E+00 0. -1.
         25    1    1    2    0    0  0.21265731238E+03  0.60632368604E+01  0.11228352395E+02  0.24700399035E+03  0.12500000000E+03 0.  0.
         21    1    1    2  503  502 -0.30450101110E+02  0.11771434633E+02  0.42884177325E+02  0.53896456245E+02  0.00000000000E+00 0. -1.
         21    1    1    2  504  503 -0.18220721127E+03 -0.17834671494E+02  0.18066780115E+03  0.25721274797E+03  0.00000000000E+00 0. -1.
<mgrwt>
<rscale>  4 0.24674865E+03</rscale>
<asrwt>0</asrwt>
<pdfrwt beam="1">  1       21 0.60991809E-01 0.24674865E+03</pdfrwt>
<pdfrwt beam="2">  1       21 0.24871759E-01 0.24674865E+03</pdfrwt>
<totfact> 0.37276880E+04</totfact>
</mgrwt>
</event>
<event>
 5    0  0.1480317E+000  0.2741103E+03  0.7546771E-02  0.1098950E+00
         21   -1    0    0  504  501  0.00000000000E+00  0.00000000000E+00  0.37515487297E+03  0.37515487297E+03  0.00000000000E+00 0.  1.
         21   -1    0    0  501  502 -0.00000000000E+00 -0.00000000000E+00 -0.31368389796E+03  0.31368389796E+03  0.00000000000E+00 0.  1.
         25    1    1    2    0    0  0.22469927312E+03  0.94982544514E+02 -0.19168840359E+03  0.33448601043E+03  0.12500000000E+03 0.  0.
         21    1    1    2  503  502 -0.21187342322E+03 -0.78150315217E+02  0.23943213094E+03  0.32912849248E+03  0.00000000000E+00 0.  1.
         21    1    1    2  504  503 -0.12825849899E+02 -0.16832229297E+02  0.13727247668E+02  0.25224268023E+02  0.00000000000E+00 0.  1.
<mgrwt>
<rscale>  4 0.27411028E+03</rscale>
<asrwt>0</asrwt>
<pdfrwt beam="1">  1       21 0.57716135E-01 0.27411028E+03</pdfrwt>
<pdfrwt beam="2">  1       21 0.48259061E-01 0.27411028E+03</pdfrwt>
<totfact> 0.11014928E+04</totfact>
</mgrwt>
</event>
<event>
 5    0  0.1480317E+000  0.2830230E+03  0.7546771E-02  0.1094049E+00
         21   -1    0    0  504  501  0.00000000000E+00  0.00000000000E+00  0.39777302709E+03  0.39777302709E+03  0.00000000000E+00 0. -1.
         21   -1    0    0  501  502 -0.00000000000E+00 -0.00000000000E+00 -0.19675899878E+03  0.19675899878E+03  0.00000000000E+00 0. -1.
         25    1    1    2    0    0 -0.11383668429E+03 -0.22697630760E+03  0.25426994191E+02  0.28416292322E+03  0.12500000000E+03 0.  0.
         21    1    1    2  503  502  0.17546332703E+02  0.15003140405E+02  0.14699560142E+02  0.27368687979E+02  0.00000000000E+00 0.  1.
         21    1    1    2  504  503  0.96290351587E+02  0.21197316719E+03  0.16088747399E+03  0.28300041467E+03  0.00000000000E+00 0. -1.
<mgrwt>
<rscale>  4 0.28302303E+03</rscale>
<asrwt>0</asrwt>
<pdfrwt beam="1">  1       21 0.61195850E-01 0.28302303E+03</pdfrwt>
<pdfrwt beam="2">  1       21 0.30270615E-01 0.28302303E+03</pdfrwt>
<totfact> 0.24881521E+04</totfact>
</mgrwt>
</event>
<event>
 5    0  0.1480317E+000  0.2545988E+03  0.7546771E-02  0.1110433E+00
         21   -1    0    0  504  501  0.00000000000E+00  0.00000000000E+00  0.14217950605E+04  0.14217950605E+04  0.00000000000E+00 0. -1.
         21   -1    0    0  501  502 -0.00000000000E+00 -0.00000000000E+00 -0.11371614184E+03  0.11371614184E+03  0.00000000000E+00 0. -1.
         25    1    1    2    0    0  0.24940514676E+01  0.22178664428E+03  0.53149080958E+02  0.26008721745E+03  0.12500000000E+03 0.  0.
         21    1    1    2  503  502  0.13383584792E+02 -0.33462479465E+02  0.28340696992E+03  0.28568928659E+03  0.00000000000E+00 0.  1.
         21    1    1    2  504  503 -0.15877636259E+02 -0.18832416482E+03  0.97152286779E+03  0.98973469830E+03  0.00000000000E+00 0. -1.
<mgrwt>
<rscale>  4 0.25459877E+03</rscale>
<asrwt>0</asrwt>
<pdfrwt beam="1">  1       21 0.21873769E+00 0.25459877E+03</pdfrwt>
<pdfrwt beam="2">  1       21 0.17494792E-01 0.25459877E+03</pdfrwt>
<totfact> 0.28643080E+03</totfact>
</mgrwt>
</event>
<event>
 5    0  0.1480317E+000  0.2804846E+03  0.7546771E-02  0.1095425E+00
         21   -1    0    0  504  501  0.00000000000E+00  0.00000000000E+00  0.44375666213E+03  0.44375666213E+03  0.00000000000E+00 0. -1.
         21   -1    0    0  501  502 -0.00000000000E+00 -0.00000000000E+00 -0.31566715819E+03  0.31566715819E+03  0.00000000000E+00 0. -1.
         25    1    1    2    0    0  0.26389018024E+03  0.32061380389E+02 -0.17222658593E+03  0.34051865770E+03  0.12500000000E+03 0.  0.
         21    1    1    2  503  502 -0.19653534276E+03 -0.67959088036E+01  0.28349979022E+03  0.34502819651E+03  0.00000000000E+00 0. -1.
         21    1    1    2  504  503 -0.67354837484E+02 -0.25265471585E+02  0.16816299654E+02  0.73876966106E+02  0.00000000000E+00 0. -1.
<mgrwt>
<rscale>  4 0.28048460E+03</rscale>
<asrwt>0</asrwt>
<pdfrwt beam="1">  1       21 0.68270256E-01 0.28048460E+03</pdfrwt>
<pdfrwt beam="2">  1       21 0.48564178E-01 0.28048460E+03</pdfrwt>
<totfact> 0.75087878E+03</totfact>
</mgrwt>
</event>
<event>
 5    0  0.1480317E+000  0.2617431E+03  0.7546771E-02  0.1106100E+00
         21   -1    0    0  504  501  0.00000000000E+00  0.00000000000E+00  0.21246712874E+03  0.21246712874E+03  0.00000000000E+00 0. -1.
         21   -1    0    0  501  502 -0.00000000000E+00 -0.00000000000E+00 -0.30169694968E+03  0.30169694968E+03  0.00000000000E+00 0. -1.
         25    1    1    2    0    0  0.11854826901E+03 -0.19705517449E+03 -0.29132019252E+02  0.26335927632E+03  0.12500000000E+03 0.  0.
         21    1    1    2  503  502 -0.98814244593E+02  0.91796305270E+02 -0.19502637645E+02  0.13627607813E+03  0.00000000000E+00 0. -1.
         21    1    1    2  504  503 -0.19734024419E+02  0.10525886922E+03 -0.40595164049E+02  0.11452872397E+03  0.00000000000E+00 0. -1.
<mgrwt>
<rscale>  4 0.26174307E+03</rscale>
<asrwt>0</asrwt>
<pdfrwt beam="1">  1       21 0.32687251E-01 0.26174307E+03</pdfrwt>
<pdfrwt beam="2">  1       21 0.46414915E-01 0.26174307E+03</pdfrwt>
<totfact> 0.38796403E+04</totfact>
</mgrwt>
</event>
<event>
 5    0  0.1480317E+000  0.3200733E+03  0.7546771E-02  0.1075616E+00
         21   -1    0    0  504  501  0.00000000000E+00  0.00000000000E+00  0.28843730869E+03  0.28843730869E+03  0.00000000000E+00 0. -1.
         21   -1    0    0  501  502 -0.00000000000E+00 -0.00000000000E+00 -0.60394487878E+03  0.60394487878E+03  0.00000000000E+00 0. -1.
         25    1    1    2    0    0 -0.49486637039E+02 -0.29047034000E+03 -0.45721724559E+03  0.55811697280E+03  0.12500000000E+03 0.  0.
         21    1    1    2  503  502  0.28296604118E+02  0.33892478771E+02  0.10852028853E+02  0.45466080236E+02  0.00000000000E+00 0. -1.
         21    1    1    2  504  503  0.21190032921E+02  0.25657786123E+03  0.13085764665E+03  0.28879913444E+03  0.00000000000E+00 0. -1.
<mgrwt>
<rscale>  4 0.32007334E+03</rscale>
<asrwt>0</asrwt>
<pdfrwt beam="1">  1       21 0.44374971E-01 0.32007334E+03</pdfrwt>
<pdfrwt beam="2">  1       21 0.92914596E-01 0.32007334E+03</pdfrwt>
<totfact> 0.43916448E+03</totfact>
</mgrwt>
</event>
<event>
 5    0  0.1480317E+000  0.3172500E+03  0.7546771E-02  0.1076922E+00
         21   -1    0    0  504  501  0.00000000000E+00  0.00000000000E+00  0.75312423900E+03  0.75312423900E+03  0.00000000000E+00 0.  1.
         21   -1    0    0  501  502 -0.00000000000E+00 -0.00000000000E+00 -0.21368193068E+03  0.21368193068E+03  0.00000000000E+00 0.  1.
         25    1    1    2    0    0 -0.21922490017E+03  0.19225764896E+03 -0.28813172609E+02  0.31855573979E+03  0.12500000000E+03 0.  0.
         21    1    1    2  503  502  0.14542271260E+03 -0.97401149610E+02  0.22828159542E+03  0.28765819316E+03  0.00000000000E+00 0.  1.
         21    1    1    2  504  503  0.73802187578E+02 -0.94856499350E+02  0.33997388551E+03  0.36059223673E+03  0.00000000000E+00 0.  1.
<mgrwt>
<rscale>  4 0.31725000E+03</rscale>
<asrwt>0</asrwt>
<pdfrwt beam="1">  1       21 0.11586527E+00 0.31725000E+03</pdfrwt>
<pdfrwt beam="2">  1       21 0.32874144E-01 0.31725000E+03</pdfrwt>
<totfact> 0.47362032E+03</totfact>
</mgrwt>
</event>
<event>
 5    0  0.1480317E+000  0.2561746E+03  0.7546771E-02  0.1109464E+00
         21   -1    0    0  504  501  0.00000000000E+00  0.00000000000E+00  0.27719046466E+03  0.27719046466E+03  0.00000000000E+00 0.  1.
         21   -1    0    0  501  502 -0.00000000000E+00 -0.00000000000E+00 -0.97840964853E+03  0.97840964853E+03  0.00000000000E+00 0. -1.
         25    1    1    2    0    0 -0.19685883963E+03 -0.15954160655E+03 -0.82043817219E+03  0.86772733122E+03  0.12500000000E+03 0.  0.
         21    1    1    2  503  502  0.13171672375E+03  0.97851406538E+01  0.17143797883E+03  0.21641632304E+03  0.00000000000E+00 0.  1.
         21    1    1    2  504  503  0.65142115879E+02  0.14975646589E+03 -0.52218990509E+02  0.17145645893E+03  0.00000000000E+00 0.  1.
<mgrwt>
<rscale>  4 0.25617460E+03</rscale>
<asrwt>0</asrwt>
<pdfrwt beam="1">  1       21 0.42644688E-01 0.25617460E+03</pdfrwt>
<pdfrwt beam="2">  1       21 0.15052456E+00 0.25617460E+03</pdfrwt>
<totfact> 0.14816751E+03</totfact>
</mgrwt>
</event>
<event>
 5    0  0.1480317E+000  0.3511596E+03  0.7546771E-02  0.1062140E+00
         21   -1    0    0  504  501  0.00000000000E+00  0.00000000000E+00  0.24750850576E+03  0.24750850576E+03  0.00000000000E+00 0.  1.
         21   -1    0    0  501  502 -0.00000000000E+00 -0.00000000000E+00 -0.49162460982E+03  0.49162460982E+03  0.00000000000E+00 0.  1.
         25    1    1    2    0    0  0.30594212287E+03  0.11869068134E+03 -0.68239255396E+02  0.35772846736E+03  0.12500000000E+03 0.  0.
         21    1    1    2  503  502 -0.12750647661E+03 -0.37629429538E+02 -0.11610977754E+03  0.17650879860E+03  0.00000000000E+00 0.  1.
         21    1    1    2  504  503 -0.17843564626E+03 -0.81061251802E+02 -0.59767071123E+02  0.20489584962E+03  0.00000000000E+00 0.  1.
<mgrwt>
<rscale>  4 0.35115959E+03</rscale>
<asrwt>0</asrwt>
<pdfrwt beam="1">  1       21 0.38078232E-01 0.35115959E+03</pdfrwt>
<pdfrwt beam="2">  1       21 0.75634554E-01 0.35115959E+03</pdfrwt>
<totfact> 0.95564992E+03</totfact>
</mgrwt>
</event>
<event>
 5    0  0.1480317E+000  0.2457941E+03  0.7546771E-02  0.1115992E+00
         21   -1    0    0  504  501  0.00000000000E+00  0.00000000000E+00  0.10237837511E+04  0.10237837511E+04  0.00000000000E+00 0.  1.
         21   -1    0    0  501  502 -0.00000000000E+00 -0.00000000000E+00 -0.10053884956E+03  0.10053884956E+03  0.00000000000E+00 0.  1.
         25    1    1    2    0    0 -0.44956068378E+02 -0.20279301561E+03  0.99452181152E+02  0.26203395123E+03  0.12500000000E+03 0.  0.
         21    1    1    2  503  502  0.47740921838E+01 -0.22667923076E+02  0.46343303308E+02  0.51810505250E+02  0.00000000000E+00 0.  1.
         21    1    1    2  504  503  0.40181976194E+02  0.22546093868E+03  0.77744941711E+03  0.81047814421E+03  0.00000000000E+00 0.  1.
<mgrwt>
<rscale>  4 0.24579411E+03</rscale>
<asrwt>0</asrwt>
<pdfrwt beam="1">  1       21 0.15750519E+00 0.24579411E+03</pdfrwt>
<pdfrwt beam="2">  1       21 0.15467516E-01 0.24579411E+03</pdfrwt>
<totfact> 0.93806984E+03</totfact>
</mgrwt>
</event>
<event>
 5    0  0.1480317E+000  0.3083935E+03  0.7546771E-02  0.1081118E+00
         21   -1    0    0  504  501  0.00000000000E+00  0.00000000000E+00  0.19296068659E+03  0.19296068659E+03  0.00000000000E+00 0. -1.
         21   -1    0    0  501  502 -0.00000000000E+00 -0.00000000000E+00 -0.47735449802E+03  0.47735449802E+03  0.00000000000E+00 0. -1.
         25    1    1    2    0    0 -0.17908518680E+03  0.21773850141E+03 -0.21907509885E+03  0.37828621183E+03  0.12500000000E+03 0.  0.
         21    1    1    2  503  502  0.14783323401E+03 -0.19439202179E+03 -0.46060222127E+02  0.24852458083E+03  0.00000000000E+00 0. -1.
         21    1    1    2  504  503  0.31251952782E+02 -0.23346479626E+02 -0.19258490457E+02  0.43504391942E+02  0.00000000000E+00 0.  1.
<mgrwt>
<rscale>  4 0.30839351E+03</rscale>
<asrwt>0</asrwt>
<pdfrwt beam="1">  1       21 0.29686260E-01 0.30839351E+03</pdfrwt>
<pdfrwt beam="2">  1       21 0.73439153E-01 0.30839351E+03</pdfrwt>
<totfact> 0.17094877E+04</totfact>
</mgrwt>
</event>
<event>
 5    0  0.1480317E+000  0.2186978E+03  0.7546771E-02  0.1134858E+00
         21   -1    0    0  504  501  0.00000000000E+00  0.00000000000E+00  0.15604000345E+04  0.15604000345E+04  0.00000000000E+00 0. -1.
         21   -1    0    0  501  502 -0.00000000000E+00 -0.00000000000E+00 -0.69713758060E+02  0.69713758060E+02  0.00000000000E+00 0. -1.
         25    1    1    2    0    0  0.19725956147E+03 -0.40983628349E+02  0.17845828358E+03  0.29675469898E+03  0.12500000000E+03 0.  0.
         21    1    1    2  503  502 -0.65462872167E+02  0.63209176097E+02  0.74807274600E+03  0.75358716873E+03  0.00000000000E+00 0. -1.
         21    1    1    2  504  503 -0.13179668931E+03 -0.22225547748E+02  0.56415524689E+03  0.57977192488E+03  0.00000000000E+00 0. -1.
<mgrwt>
<rscale>  4 0.21869776E+03</rscale>
<asrwt>0</asrwt>
<pdfrwt beam="1">  1       21 0.24006152E+00 0.21869776E+03</pdfrwt>
<pdfrwt beam="2">  1       21 0.10725195E-01 0.21869776E+03</pdfrwt>
<totfact> 0.53218565E+03</totfact>
</mgrwt>
</event>
<event>
 5    0  0.1480317E+000  0.4459407E+03  0.7546771E-02  0.1028940E+00
         21   -1    0    0  504  501  0.00000000000E+00  0.00000000000E+00  0.49379157520E+03  0.49379157520E+03  0.00000000000E+00 0. -1.
         21   -1    0    0  501  502 -0.00000000000E+00 -0.00000000000E+00 -0.40246175873E+03  0.40246175873E+03  0.00000000000E+00 0. -1.
         25    1    1    2    0    0 -0.41855083936E+03 -0.89740275525E+02  0.28773909519E+02  0.44686805664E+03  0.12500000000E+03 0.  0.
         21    1    1    2  503  502  0.36740873021E+03  0.77826875920E+02  0.95348277696E+02  0.38747579500E+03  0.00000000000E+00 0. -1.
         21    1    1    2  504  503  0.51142109146E+02  0.11913399605E+02 -0.32792370746E+02  0.61909482288E+02  0.00000000000E+00 0.  1.
<mgrwt>
<rscale>  4 0.44594072E+03</rscale>
<asrwt>0</asrwt>
<pdfrwt beam="1">  1       21 0.75967934E-01 0.44594072E+03</pdfrwt>
<pdfrwt beam="2">  1       21 0.61917194E-01 0.44594072E+03</pdfrwt>
<totfact> 0.32683652E+03</totfact>
</mgrwt>
</event>
<event>
 5    0  0.1480317E+000  0.2513767E+03  0.7546771E-02  0.1112438E+00
         21   -1    0    0  504  501  0.00000000000E+00  0.00000000000E+00  0.11423874698E+04  0.11423874698E+04  0.00000000000E+00 0. -1.
         21   -1    0    0  501  502 -0.00000000000E+00 -0.00000000000E+00 -0.50231098629E+02  0.50231098629E+02  0.00000000000E+00 0. -1.
         25    1    1    2    0    0  0.18988311244E+03 -0.10728314750E+03  0.64661466327E+03  0.69375845428E+03  0.12500000000E+03 0.  0.
         21    1    1    2  503  502 -0.53556470933E+02  0.16699124702E+02  0.16235895023E+03  0.17177771993E+03  0.00000000000E+00 0. -1.
         21    1    1    2  504  503 -0.13632664150E+03  0.90584022801E+02  0.28318275771E+03  0.32708239426E+03  0.00000000000E+00 0. -1.
<mgrwt>
<rscale>  4 0.25137675E+03</rscale>
<asrwt>0</asrwt>
<pdfrwt beam="1">  1       21 0.17575190E+00 0.25137675E+03</pdfrwt>
<pdfrwt beam="2">  1       21 0.77278622E-02 0.25137675E+03</pdfrwt>
<totfact> 0.23902357E+04</totfact>
</mgrwt>
</event>
<event>
 5    0  0.1480317E+000  0.2769965E+03  0.7546771E-02  0.1097341E+00
         21   -1    0    0  504  501  0.00000000000E+00  0.00000000000E+00  0.19646437793E+03  0.19646437793E+03  0.00000000000E+00 0. -1.
         21   -1    0    0  501  502 -0.00000000000E+00 -0.00000000000E+00 -0.12213112572E+04  0.12213112572E+04  0.00000000000E+00 0. -1.
         25    1    1    2    0    0  0.10717533240E+03  0.24112343567E+03 -0.10734816126E+04  0.11124813867E+04  0.12500000000E+03 0.  0.
         21    1    1    2  503  502  0.38536970833E+01 -0.95610612882E+02  0.73392991279E+02  0.12059341377E+03  0.00000000000E+00 0. -1.
         21    1    1    2  504  503 -0.11102902948E+03 -0.14551282279E+03 -0.24758257910E+02  0.18470083465E+03  0.00000000000E+00 0. -1.
<mgrwt>
<rscale>  4 0.27699653E+03</rscale>
<asrwt>0</asrwt>
<pdfrwt beam="1">  1       21 0.30225288E-01 0.27699653E+03</pdfrwt>
<pdfrwt beam="2">  1       21 0.18789404E+00 0.27699653E+03</pdfrwt>
<totfact> 0.15701841E+03</totfact>
</mgrwt>
</event>
<event>
 5    0  0.1480317E+000  0.2602956E+03  0.7546771E-02  0.1106966E+00
         21   -1    0    0  504  501  0.00000000000E+00  0.00000000000E+00  0.24372759856E+03  0.24372759856E+03  0.00000000000E+00 0.  1.
         21   -1    0    0  501  502 -0.00000000000E+00 -0.00000000000E+00 -0.82385082566E+03  0.82385082566E+03  0.00000000000E+00 0.  1.
         25    1    1    2    0    0 -0.12295909268E+03 -0.19556455647E+03 -0.73168972595E+03  0.77740548575E+03  0.12500000000E+03 0.  0.
         21    1    1    2  503  502  0.11638923752E+03  0.17382929899E+03  0.96050621150E+02  0.23019296605E+03  0.00000000000E+00 0.  1.
         21    1    1    2  504  503  0.65698551654E+01  0.21735257483E+02  0.55515877694E+02  0.59979972415E+02  0.00000000000E+00 0.  1.
<mgrwt>
<rscale>  4 0.26029560E+03</rscale>
<asrwt>0</asrwt>
<pdfrwt beam="1">  1       21 0.37496553E-01 0.26029560E+03</pdfrwt>
<pdfrwt beam="2">  1       21 0.12674628E+00 0.26029560E+03</pdfrwt>
<totfact> 0.29997901E+03</totfact>
</mgrwt>
</event>
<event>
 5    0  0.1480317E+000  0.2438113E+03  0.7546771E-02  0.1117280E+00
         21   -1    0    0  504  501  0.00000000000E+00  0.00000000000E+00  0.22785739215E+03  0.22785739215E+03  0.00000000000E+00 0. -1.
         21   -1    0    0  501  502 -0.00000000000E+00 -0.00000000000E+00 -0.71994114121E+03  0.71994114121E+03  0.00000000000E+00 0.  1.
         25    1    1    2    0    0  0.20627707855E+03  0.35619006580E+02 -0.64023596512E+03  0.68508834306E+03  0.12500000000E+03 0.  0.
         21    1    1    2  503  502 -0.76190703700E+02 -0.26505199272E+02  0.87109608132E+02  0.11872503000E+03  0.00000000000E+00 0. -1.
         21    1    1    2  504  503 -0.13008637485E+03 -0.91138073076E+01  0.61042607922E+02  0.14398516030E+03  0.00000000000E+00 0. -1.
<mgrwt>
<rscale>  4 0.24381129E+03</rscale>
<asrwt>0</asrwt>
<pdfrwt beam="1">  1       21 0.35054983E-01 0.24381129E+03</pdfrwt>
<pdfrwt beam="2">  1       21 0.11076018E+00 0.24381129E+03</pdfrwt>
<totfact> 0.48531021E+03</totfact>
</mgrwt>
</event>
<event>
 5    0  0.1480317E+000  0.2519592E+03  0.7546771E-02  0.1112073E+00
         21   -1    0    0  504  501  0.00000000000E+00  0.00000000000E+00  0.11176400166E+04  0.11176400166E+04  0.00000000000E+00 0.  1.
         21   -1    0    0  501  502 -0.00000000000E+00 -0.00000000000E+00 -0.51211192848E+02  0.51211192848E+02  0.00000000000E+00 0. -1.
         25    1    1    2    0    0  0.82399985040E+02 -0.20265406645E+03  0.56147420355E+03  0.61541588331E+03  0.12500000000E+03 0.  0.
         21    1    1    2  503  502 -0.46496865753E+02  0.44611101568E+02  0.14091080209E+03  0.15494503236E+03  0.00000000000E+00 0. -1.
         21    1    1    2  504  503 -0.35903119287E+02  0.15804296488E+03  0.36404381812E+03  0.39849029378E+03  0.00000000000E+00 0.  1.
<mgrwt>
<rscale>  4 0.25195918E+03</rscale>
<asrwt>0</asrwt>
<pdfrwt beam="1">  1       21 0.17194460E+00 0.25195918E+03</pdfrwt>
<pdfrwt beam="2">  1       21 0.78786459E-02 0.25195918E+03</pdfrwt>
<totfact> 0.24568012E+04</totfact>
</mgrwt>
</event>
<event>
 5    0  0.1480317E+000  0.2398830E+03  0.7546771E-02  0.1119871E+00
         21   -1    0    0  504  501  0.00000000000E+00  0.00000000000E+00  0.13923094964E+03  0.13923094964E+03  0.00000000000E+00 0.  1.
         21   -1    0    0  501  502 -0.00000000000E+00 -0.00000000000E+00 -0.82495785877E+03  0.82495785877E+03  0.00000000000E+00 0.  1.
         25    1    1    2    0    0  0.16110148935E+03  0.17605300749E+03 -0.60601335937E+03  0.66319344316E+03  0.12500000000E+03 0.  0.
         21    1    1    2  503  502 -0.57536538882E+02 -0.54189606185E+02  0.51325397750E+02  0.94240454048E+02  0.00000000000E+00 0.  1.
         21    1    1    2  504  503 -0.10356495047E+03 -0.12186340130E+03 -0.13103894750E+03  0.20675491120E+03  0.00000000000E+00 0.  1.
<mgrwt>
<rscale>  4 0.23988296E+03</rscale>
<asrwt>0</asrwt>
<pdfrwt beam="1">  1       21 0.21420146E-01 0.23988296E+03</pdfrwt>
<pdfrwt beam="2">  1       21 0.12691660E+00 0.23988296E+03</pdfrwt>
<totfact> 0.90235752E+03</totfact>
</mgrwt>
</event>
<event>
 5    0  0.1480317E+000  0.2553410E+03  0.7546771E-02  0.1109975E+00
         21   -1    0    0  504  501  0.00000000000E+00  0.00000000000E+00  0.11557062963E+04  0.11557062963E+04  0.00000000000E+00 0. -1.
         21   -1    0    0  501  502 -0.00000000000E+00 -0.00000000000E+00 -0.90717791732E+02  0.90717791732E+02  0.00000000000E+00 0. -1.
         25    1    1    2    0    0  0.97351592729E+02 -0.20024164674E+03  0.13927858532E+03  0.29085662107E+03  0.12500000000E+03 0.  0.
         21    1    1    2  503  502 -0.42460435348E+02  0.83372313560E+02  0.55933717079E+03  0.56710836872E+03  0.00000000000E+00 0. -1.
         21    1    1    2  504  503 -0.54891157381E+02  0.11686933318E+03  0.36637274848E+03  0.38845909827E+03  0.00000000000E+00 0. -1.
<mgrwt>
<rscale>  4 0.25534105E+03</rscale>
<asrwt>0</asrwt>
<pdfrwt beam="1">  1       21 0.17780096E+00 0.25534105E+03</pdfrwt>
<pdfrwt beam="2">  1       21 0.13956584E-01 0.25534105E+03</pdfrwt>
<totfact> 0.80433811E+03</totfact>
</mgrwt>
</event>
<event>
 5    0  0.1480317E+000  0.2942156E+03  0.7546771E-02  0.1088168E+00
         21   -1    0    0  504  501  0.00000000000E+00  0.00000000000E+00  0.58802325393E+03  0.58802325393E+03  0.00000000000E+00 0. -1.
         21   -1    0    0  501  502 -0.00000000000E+00 -0.00000000000E+00 -0.27521168152E+03  0.27521168152E+03  0.00000000000E+00 0.  1.
         25    1    1    2    0    0 -0.21140147565E+03  0.16200997387E+03 -0.14823165019E+03  0.32944716976E+03  0.12500000000E+03 0.  0.
         21    1    1    2  503  502  0.19380584633E+03 -0.13684955857E+03  0.39165930676E+03  0.45791431548E+03  0.00000000000E+00 0. -1.
         21    1    1    2  504  503  0.17595629325E+02 -0.25160415304E+02  0.69383915843E+02  0.75873450214E+02  0.00000000000E+00 0.  1.
<mgrwt>
<rscale>  4 0.29421559E+03</rscale>
<asrwt>0</asrwt>
<pdfrwt beam="1">  1       21 0.90465116E-01 0.29421559E+03</pdfrwt>
<pdfrwt beam="2">  1       21 0.42340259E-01 0.29421559E+03</pdfrwt>
<totfact> 0.52203525E+03</totfact>
</mgrwt>
</event>
<event>
 5    0  0.1480317E+000  0.3471512E+03  0.7546771E-02  0.1063790E+00
         21   -1    0    0  504  501  0.00000000000E+00  0.00000000000E+00  0.75713987094E+03  0.75713987094E+03  0.00000000000E+00 0. -1.
         21   -1    0    0  501  502 -0.00000000000E+00 -0.00000000000E+00 -0.24393997035E+03  0.24393997035E+03  0.00000000000E+00 0. -1.
         25    1    1    2    0    0 -0.20317478155E+03 -0.31936212400E+03  0.33686905816E+03  0.52189838134E+03  0.12500000000E+03 0.  0.
         21    1    1    2  503  502  0.17292117158E+03  0.24931492252E+03  0.18621719842E+02  0.30398426048E+03  0.00000000000E+00 0. -1.
         21    1    1    2  504  503  0.30253609967E+02  0.70047201487E+02  0.15770912259E+03  0.17519719946E+03  0.00000000000E+00 0. -1.
<mgrwt>
<rscale>  4 0.34715118E+03</rscale>
<asrwt>0</asrwt>
<pdfrwt beam="1">  1       21 0.11648306E+00 0.34715118E+03</pdfrwt>
<pdfrwt beam="2">  1       21 0.37529227E-01 0.34715118E+03</pdfrwt>
<totfact> 0.35295064E+03</totfact>
</mgrwt>
</event>
<event>
 5    0  0.1480317E+000  0.2611830E+03  0.7546771E-02  0.1106435E+00
         21   -1    0    0  504  501  0.00000000000E+00  0.00000000000E+00  0.43908675836E+03  0.43908675836E+03  0.00000000000E+00 0.  1.
         21   -1    0    0  501  502 -0.00000000000E+00 -0.00000000000E+00 -0.14979717758E+03  0.14979717758E+03  0.00000000000E+00 0. -1.
         25    1    1    2    0    0  0.22467765385E+03  0.45951169599E+02  0.72760565282E+02  0.27112848981E+03  0.12500000000E+03 0.  0.
         21    1    1    2  503  502 -0.20214875738E+03 -0.43352542055E+02  0.20869085097E+03  0.29376084540E+03  0.00000000000E+00 0.  1.
         21    1    1    2  504  503 -0.22528896468E+02 -0.25986275446E+01  0.78381645254E+01  0.23994600733E+02  0.00000000000E+00 0.  1.
<mgrwt>
<rscale>  4 0.26118300E+03</rscale>
<asrwt>0</asrwt>
<pdfrwt beam="1">  1       21 0.67551808E-01 0.26118300E+03</pdfrwt>
<pdfrwt beam="2">  1       21 0.23045720E-01 0.26118300E+03</pdfrwt>
<totfact> 0.34285712E+04</totfact>
</mgrwt>
</event>
<event>
 5    0  0.1480317E+000  0.2390784E+03  0.7546771E-02  0.1120408E+00
         21   -1    0    0  504  501  0.00000000000E+00  0.00000000000E+00  0.18520325169E+03  0.18520325169E+03  0.00000000000E+00 0. -1.
         21   -1    0    0  501  502 -0.00000000000E+00 -0.00000000000E+00 -0.44326547830E+03  0.44326547830E+03  0.00000000000E+00 0. -1.
         25    1    1    2    0    0  0.19640967704E+03 -0.54375616186E+02 -0.33234474863E+03  0.40940383586E+03  0.12500000000E+03 0.  0.
         21    1    1    2  503  502 -0.29281896499E+02  0.22268487875E+00  0.18931269078E+02  0.34869356175E+02  0.00000000000E+00 0. -1.
         21    1    1    2  504  503 -0.16712778054E+03  0.54152931307E+02  0.55351252945E+02  0.18419553795E+03  0.00000000000E+00 0. -1.
<mgrwt>
<rscale>  4 0.23907837E+03</rscale>
<asrwt>0</asrwt>
<pdfrwt beam="1">  1       21 0.28492808E-01 0.23907837E+03</pdfrwt>
<pdfrwt beam="2">  1       21 0.68194688E-01 0.23907837E+03</pdfrwt>
<totfact> 0.22535057E+04</totfact>
</mgrwt>
</event>
<event>
 5    0  0.1480317E+000  0.1906770E+03  0.7546771E-02  0.1157852E+00
         21   -1    0    0  504  501  0.00000000000E+00  0.00000000000E+00  0.18252389898E+03  0.18252389898E+03  0.00000000000E+00 0.  1.
         21   -1    0    0  501  502 -0.00000000000E+00 -0.00000000000E+00 -0.93557490428E+03  0.93557490428E+03  0.00000000000E+00 0. -1.
         25    1    1    2    0    0 -0.22709115692E+03 -0.88096161744E+01 -0.77574077377E+03  0.81795278041E+03  0.12500000000E+03 0.  0.
         21    1    1    2  503  502  0.14039956160E+03 -0.50487242358E+00  0.10878406338E+03  0.17761268040E+03  0.00000000000E+00 0.  1.
         21    1    1    2  504  503  0.86691595313E+02  0.93144885980E+01 -0.86094294916E+02  0.12253334245E+03  0.00000000000E+00 0. -1.
<mgrwt>
<rscale>  4 0.19067704E+03</rscale>
<asrwt>0</asrwt>
<pdfrwt beam="1">  1       21 0.28080600E-01 0.19067704E+03</pdfrwt>
<pdfrwt beam="2">  1       21 0.14393460E+00 0.19067704E+03</pdfrwt>
<totfact> 0.40417031E+03</totfact>
</mgrwt>
</event>
<event>
 5    0  0.1480317E+000  0.2512107E+03  0.7546771E-02  0.1112542E+00
         21   -1    0    0  504  501  0.00000000000E+00  0.00000000000E+00  0.13127169642E+04  0.13127169642E+04  0.00000000000E+00 0.  1.
         21   -1    0    0  501  502 -0.00000000000E+00 -0.00000000000E+00 -0.44380788139E+02  0.44380788139E+02  0.00000000000E+00 0.  1.
         25    1    1    2    0    0  0.17545623453E+03  0.12921656474E+03  0.62061964288E+03  0.66953383183E+03  0.12500000000E+03 0.  0.
         21    1    1    2  503  502 -0.11258842306E+03 -0.66746305844E+02  0.48413986513E+03  0.50152031999E+03  0.00000000000E+00 0.  1.
         21    1    1    2  504  503 -0.62867811468E+02 -0.62470258901E+02  0.16357666807E+03  0.18604360054E+03  0.00000000000E+00 0.  1.
<mgrwt>
<rscale>  4 0.25121069E+03</rscale>
<asrwt>0</asrwt>
<pdfrwt beam="1">  1       21 0.20195643E+00 0.25121069E+03</pdfrwt>
<pdfrwt beam="2">  1       21 0.68278146E-02 0.25121069E+03</pdfrwt>
<totfact> 0.19785445E+04</totfact>
</mgrwt>
</event>
<event>
 5    0  0.1480317E+000  0.2359529E+03  0.7546771E-02  0.1122519E+00
         21   -1    0    0  504  501  0.00000000000E+00  0.00000000000E+00  0.37047774919E+03  0.37047774919E+03  0.00000000000E+00 0.  1.
         21   -1    0    0  501  502 -0.00000000000E+00 -0.00000000000E+00 -0.13670747162E+03  0.13670747162E+03  0.00000000000E+00 0.  1.
         25    1    1    2    0    0  0.12948980345E+03  0.15258172143E+03  0.17027989588E+03  0.29097943888E+03  0.12500000000E+03 0.  0.
         21    1    1    2  503  502 -0.87567881843E+02 -0.13028443002E+03  0.35004366436E+02  0.16083367901E+03  0.00000000000E+00 0.  1.
         21    1    1    2  504  503 -0.41921921608E+02 -0.22297291409E+02  0.28486015249E+02  0.55372102906E+02  0.00000000000E+00 0.  1.
<mgrwt>
<rscale>  4 0.23595294E+03</rscale>
<asrwt>0</asrwt>
<pdfrwt beam="1">  1       21 0.56996576E-01 0.23595294E+03</pdfrwt>
<pdfrwt beam="2">  1       21 0.21031919E-01 0.23595294E+03</pdfrwt>
<totfact> 0.59604967E+04</totfact>
</mgrwt>
</event>
<event>
 5    0  0.1480317E+000  0.2483397E+03  0.7546771E-02  0.1114359E+00
         21   -1    0    0  504  501  0.00000000000E+00  0.00000000000E+00  0.36084806507E+02  0.36084806507E+02  0.00000000000E+00 0. -1.
         21   -1    0    0  501  502 -0.00000000000E+00 -0.00000000000E+00 -0.20860242463E+04  0.20860242463E+04  0.00000000000E+00 0. -1.
         25    1    1    2    0    0  0.62815013129E+02  0.20518744157E+03 -0.16072956544E+04  0.16263677114E+04  0.12500000000E+03 0.  0.
         21    1    1    2  503  502 -0.34905913140E+01 -0.50054342751E+02 -0.57517024145E+02  0.76327121802E+02  0.00000000000E+00 0. -1.
         21    1    1    2  504  503 -0.59324421815E+02 -0.15513309882E+03 -0.38512676125E+03  0.41941421960E+03  0.00000000000E+00 0. -1.
<mgrwt>
<rscale>  4 0.24833971E+03</rscale>
<asrwt>0</asrwt>
<pdfrwt beam="1">  1       21 0.55515099E-02 0.24833971E+03</pdfrwt>
<pdfrwt beam="2">  1       21 0.32092674E+00 0.24833971E+03</pdfrwt>
<totfact> 0.54876383E+03</totfact>
</mgrwt>
</event>
<event>
 5    0  0.1480317E+000  0.4434569E+03  0.7546771E-02  0.1029691E+00
         21   -1    0    0  504  501  0.00000000000E+00  0.00000000000E+00  0.89302085726E+02  0.89302085726E+02  0.00000000000E+00 0. -1.
         21   -1    0    0  501  502 -0.00000000000E+00 -0.00000000000E+00 -0.25248067360E+04  0.25248067360E+04  0.00000000000E+00 0. -1.
         25    1    1    2    0    0 -0.35075587898E+02  0.42402674699E+03 -0.17507142248E+04  0.18060050598E+04  0.12500000000E+03 0.  0.
         21    1    1    2  503  502  0.44743659029E+01 -0.23509036411E+02 -0.67597002592E+02  0.71708085337E+02  0.00000000000E+00 0. -1.
         21    1    1    2  504  503  0.30601221995E+02 -0.40051771058E+03 -0.61719342286E+03  0.73639567659E+03  0.00000000000E+00 0. -1.
<mgrwt>
<rscale>  4 0.44345685E+03</rscale>
<asrwt>0</asrwt>
<pdfrwt beam="1">  1       21 0.13738783E-01 0.44345685E+03</pdfrwt>
<pdfrwt beam="2">  1       21 0.38843180E+00 0.44345685E+03</pdfrwt>
<totfact> 0.36689643E+02</totfact>
</mgrwt>
</event>
<event>
 5    0  0.1480317E+000  0.3213528E+03  0.7546771E-02  0.1075028E+00
         21   -1    0    0  504  501  0.00000000000E+00  0.00000000000E+00  0.42575007524E+03  0.42575007524E+03  0.00000000000E+00 0. -1.
         21   -1    0    0  501  502 -0.00000000000E+00 -0.00000000000E+00 -0.26592363939E+03  0.26592363939E+03  0.00000000000E+00 0. -1.
         25    1    1    2    0    0  0.27911515624E+03  0.14377325043E+03  0.10280739575E+03  0.35322850763E+03  0.12500000000E+03 0.  0.
         21    1    1    2  503  502 -0.25760547433E+03 -0.11283582865E+03  0.82349201206E+02  0.29304248084E+03  0.00000000000E+00 0. -1.
         21    1    1    2  504  503 -0.21509681908E+02 -0.30937421780E+02 -0.25330161101E+02  0.45402726169E+02  0.00000000000E+00 0.  1.
<mgrwt>
<rscale>  4 0.32135282E+03</rscale>
<asrwt>0</asrwt>
<pdfrwt beam="1">  1       21 0.65500012E-01 0.32135282E+03</pdfrwt>
<pdfrwt beam="2">  1       21 0.40911329E-01 0.32135282E+03</pdfrwt>
<totfact> 0.11525737E+04</totfact>
</mgrwt>
</event>
<event>
 5    0  0.1480317E+000  0.2733553E+03  0.7546771E-02  0.1099374E+00
         21   -1    0    0  504  501  0.00000000000E+00  0.00000000000E+00  0.45422427017E+03  0.45422427017E+03  0.00000000000E+00 0. -1.
         21   -1    0    0  501  502 -0.00000000000E+00 -0.00000000000E+00 -0.45575358319E+03  0.45575358319E+03  0.00000000000E+00 0. -1.
         25    1    1    2    0    0 -0.23027593725E+03 -0.90644111166E+02 -0.34498383451E+03  0.44258582020E+03  0.12500000000E+03 0.  0.
         21    1    1    2  503  502  0.61905269398E-01  0.81468402002E+02  0.12937046411E+03  0.15288499383E+03  0.00000000000E+00 0. -1.
         21    1    1    2  504  503  0.23021403198E+03  0.91757091640E+01  0.21408405738E+03  0.31450703932E+03  0.00000000000E+00 0. -1.
<mgrwt>
<rscale>  4 0.27335534E+03</rscale>
<asrwt>0</asrwt>
<pdfrwt beam="1">  1       21 0.69880657E-01 0.27335534E+03</pdfrwt>
<pdfrwt beam="2">  1       21 0.70115936E-01 0.27335534E+03</pdfrwt>
<totfact> 0.32408734E+03</totfact>
</mgrwt>
</event>
<event>
 5    0  0.1480317E+000  0.2719122E+03  0.7546771E-02  0.1100190E+00
         21   -1    0    0  504  501  0.00000000000E+00  0.00000000000E+00  0.18682463489E+03  0.18682463489E+03  0.00000000000E+00 0. -1.
         21   -1    0    0  501  502 -0.00000000000E+00 -0.00000000000E+00 -0.44010139182E+03  0.44010139182E+03  0.00000000000E+00 0. -1.
         25    1    1    2    0    0  0.24598752793E+03 -0.72135768181E+02 -0.18494670843E+03  0.33991722214E+03  0.12500000000E+03 0.  0.
         21    1    1    2  503  502 -0.39432577001E+02 -0.22572268309E+02  0.10241064424E+02  0.46575903921E+02  0.00000000000E+00 0. -1.
         21    1    1    2  504  503 -0.20655495093E+03  0.94708036490E+02 -0.78571112914E+02  0.24043290065E+03  0.00000000000E+00 0. -1.
<mgrwt>
<rscale>  4 0.27191220E+03</rscale>
<asrwt>0</asrwt>
<pdfrwt beam="1">  1       21 0.28742252E-01 0.27191220E+03</pdfrwt>
<pdfrwt beam="2">  1       21 0.67707906E-01 0.27191220E+03</pdfrwt>
<totfact> 0.22168667E+04</totfact>
</mgrwt>
</event>
<event>
 5    0  0.1480317E+000  0.4748314E+03  0.7546771E-02  0.1020565E+00
         21   -1    0    0  504  501  0.00000000000E+00  0.00000000000E+00  0.18729999987E+04  0.18729999987E+04  0.00000000000E+00 0. -1.
         21   -1    0    0  501  502 -0.00000000000E+00 -0.00000000000E+00 -0.10948334723E+04  0.10948334723E+04  0.00000000000E+00 0. -1.
         25    1    1    2    0    0  0.81682739568E+02  0.50007290929E+03 -0.93278365103E+03  0.10688570176E+04  0.12500000000E+03 0.  0.
         21    1    1    2  503  502 -0.25537812099E+02 -0.28635005947E+03  0.15344558427E+03  0.32587433734E+03  0.00000000000E+00 0. -1.
         21    1    1    2  504  503 -0.56144927470E+02 -0.21372284982E+03  0.15575045932E+04  0.15731021159E+04  0.00000000000E+00 0. -1.
<mgrwt>
<rscale>  4 0.47483136E+03</rscale>
<asrwt>0</asrwt>
<pdfrwt beam="1">  1       21 0.28815385E+00 0.47483136E+03</pdfrwt>
<pdfrwt beam="2">  1       21 0.16843592E+00 0.47483136E+03</pdfrwt>
<totfact> 0.62123508E+00</totfact>
</mgrwt>
</event>
<event>
 5    0  0.1480317E+000  0.2505325E+03  0.7546771E-02  0.1112969E+00
         21   -1    0    0  504  501  0.00000000000E+00  0.00000000000E+00  0.25610938154E+03  0.25610938154E+03  0.00000000000E+00 0. -1.
         21   -1    0    0  501  502 -0.00000000000E+00 -0.00000000000E+00 -0.63668860751E+03  0.63668860751E+03  0.00000000000E+00 0.  1.
         25    1    1    2    0    0 -0.21198988245E+03  0.65439668827E+02 -0.54104583957E+03  0.59797797705E+03  0.12500000000E+03 0.  0.
         21    1    1    2  503  502  0.17063982589E+03 -0.63310761918E+02  0.17345920812E+03  0.25142454064E+03  0.00000000000E+00 0. -1.
         21    1    1    2  504  503  0.41350056558E+02 -0.21289069093E+01 -0.12992594526E+02  0.43395471359E+02  0.00000000000E+00 0.  1.
<mgrwt>
<rscale>  4 0.25053246E+03</rscale>
<asrwt>0</asrwt>
<pdfrwt beam="1">  1       21 0.39401444E-01 0.25053246E+03</pdfrwt>
<pdfrwt beam="2">  1       21 0.97952093E-01 0.25053246E+03</pdfrwt>
<totfact> 0.51383131E+03</totfact>
</mgrwt>
</event>
<event>
 5    0  0.1480317E+000  0.2519526E+03  0.7546771E-02  0.1112077E+00
         21   -1    0    0  504  501  0.00000000000E+00  0.00000000000E+00  0.25759954418E+03  0.25759954418E+03  0.00000000000E+00 0. -1.
         21   -1    0    0  501  502 -0.00000000000E+00 -0.00000000000E+00 -0.31755245671E+03  0.31755245671E+03  0.00000000000E+00 0. -1.
         25    1    1    2    0    0  0.14146159331E+03 -0.16686437554E+03 -0.19332227234E+03  0.31757456319E+03  0.12500000000E+03 0.  0.
         21    1    1    2  503  502 -0.18854048346E+02  0.11616537868E+02  0.18243022493E+02  0.28691931980E+02  0.00000000000E+00 0. -1.
         21    1    1    2  504  503 -0.12260754496E+03  0.15524783767E+03  0.11512633732E+03  0.22888550572E+03  0.00000000000E+00 0. -1.
<mgrwt>
<rscale>  4 0.25195258E+03</rscale>
<asrwt>0</asrwt>
<pdfrwt beam="1">  1       21 0.39630699E-01 0.25195258E+03</pdfrwt>
<pdfrwt beam="2">  1       21 0.48854224E-01 0.25195258E+03</pdfrwt>
<totfact> 0.23792350E+04</totfact>
</mgrwt>
</event>
<event>
 5    0  0.1480317E+000  0.2222129E+03  0.7546771E-02  0.1132244E+00
         21   -1    0    0  504  501  0.00000000000E+00  0.00000000000E+00  0.55938327508E+03  0.55938327508E+03  0.00000000000E+00 0.  1.
         21   -1    0    0  501  502 -0.00000000000E+00 -0.00000000000E+00 -0.10490972957E+03  0.10490972957E+03  0.00000000000E+00 0.  1.
         25    1    1    2    0    0 -0.11472236774E+03  0.17433980708E+03  0.27071574860E+03  0.36396099590E+03  0.12500000000E+03 0.  0.
         21    1    1    2  503  502  0.50971261490E+02 -0.13060509260E+02  0.87188474721E+02  0.10183553665E+03  0.00000000000E+00 0. -1.
         21    1    1    2  504  503  0.63751106247E+02 -0.16127929782E+03  0.96569322177E+02  0.19849647211E+03  0.00000000000E+00 0.  1.
<mgrwt>
<rscale>  4 0.22221291E+03</rscale>
<asrwt>0</asrwt>
<pdfrwt beam="1">  1       21 0.86058964E-01 0.22221291E+03</pdfrwt>
<pdfrwt beam="2">  1       21 0.16139959E-01 0.22221291E+03</pdfrwt>
<totfact> 0.39367905E+04</totfact>
</mgrwt>
</event>
<event>
 5    0  0.1480317E+000  0.5782579E+03  0.7546771E-02  0.9959514E-01
         21   -1    0    0  504  501  0.00000000000E+00  0.00000000000E+00  0.57254141653E+03  0.57254141653E+03  0.00000000000E+00 0. -1.
         21   -1    0    0  501  502 -0.00000000000E+00 -0.00000000000E+00 -0.79958179791E+03  0.79958179791E+03  0.00000000000E+00 0.  1.
         25    1    1    2    0    0  0.63477573709E+02 -0.54612409958E+03 -0.48045758433E+03  0.74077353142E+03  0.12500000000E+03 0.  0.
         21    1    1    2  503  502  0.39076062279E+02  0.21375104653E+03  0.33593685416E+02  0.21987492862E+03  0.00000000000E+00 0.  1.
         21    1    1    2  504  503 -0.10255363599E+03  0.33237305305E+03  0.21982351753E+03  0.41147475440E+03  0.00000000000E+00 0. -1.
<mgrwt>
<rscale>  4 0.57461702E+03</rscale>
<asrwt>0</asrwt>
<pdfrwt beam="1">  1       21 0.88083296E-01 0.57825785E+03</pdfrwt>
<pdfrwt beam="2">  1       21 0.12301258E+00 0.57825785E+03</pdfrwt>
<totfact> 0.43445213E+02</totfact>
</mgrwt>
</event>
<event>
 5    0  0.1480317E+000  0.3042801E+03  0.7546771E-02  0.1083120E+00
         21   -1    0    0  504  501  0.00000000000E+00  0.00000000000E+00  0.86089086891E+02  0.86089086891E+02  0.00000000000E+00 0.  1.
         21   -1    0    0  501  502 -0.00000000000E+00 -0.00000000000E+00 -0.10219301209E+04  0.10219301209E+04  0.00000000000E+00 0.  1.
         25    1    1    2    0    0  0.13955336609E+03  0.23976290068E+03 -0.41601341643E+03  0.51541590311E+03  0.12500000000E+03 0.  0.
         21    1    1    2  503  502 -0.79263036231E+01 -0.33330318487E+02 -0.32447983732E+02  0.47186948067E+02  0.00000000000E+00 0.  1.
         21    1    1    2  504  503 -0.13162706247E+03 -0.20643258220E+03 -0.48737963381E+03  0.54541635657E+03  0.00000000000E+00 0.  1.
<mgrwt>
<rscale>  4 0.30428012E+03</rscale>
<asrwt>0</asrwt>
<pdfrwt beam="1">  1       21 0.13244476E-01 0.30428012E+03</pdfrwt>
<pdfrwt beam="2">  1       21 0.15722001E+00 0.30428012E+03</pdfrwt>
<totfact> 0.12125363E+04</totfact>
</mgrwt>
</event>
<event>
 5    0  0.1480317E+000  0.5868870E+03  0.7546771E-02  0.9932991E-01
         21   -1    0    0  504  501  0.00000000000E+00  0.00000000000E+00  0.76673382595E+03  0.76673382595E+03  0.00000000000E+00 0.  1.
         21   -1    0    0  501  502 -0.00000000000E+00 -0.00000000000E+00 -0.65824933895E+03  0.65824933895E+03  0.00000000000E+00 0.  1.
         25    1    1    2    0    0  0.64791081006E+03 -0.77119078968E+02 -0.28301334373E+02  0.66495243113E+03  0.12500000000E+03 0.  0.
         21    1    1    2  503  502 -0.13120455090E+03  0.69078363124E+02  0.18945828692E+03  0.24058449017E+03  0.00000000000E+00 0.  1.
         21    1    1    2  504  503 -0.51670625916E+03  0.80407158434E+01 -0.52672465539E+02  0.51944624360E+03  0.00000000000E+00 0.  1.
<mgrwt>
<rscale>  4 0.58688701E+03</rscale>
<asrwt>0</asrwt>
<pdfrwt beam="1">  1       21 0.11795905E+00 0.58688701E+03</pdfrwt>
<pdfrwt beam="2">  1       21 0.10126913E+00 0.58688701E+03</pdfrwt>
<totfact> 0.34458687E+02</totfact>
</mgrwt>
</event>
<event>
 5    0  0.1480317E+000  0.2788595E+03  0.7546771E-02  0.1096313E+00
         21   -1    0    0  504  501  0.00000000000E+00  0.00000000000E+00  0.14200910326E+03  0.14200910326E+03  0.00000000000E+00 0. -1.
         21   -1    0    0  501  502 -0.00000000000E+00 -0.00000000000E+00 -0.13093730715E+04  0.13093730715E+04  0.00000000000E+00 0.  1.
         25    1    1    2    0    0 -0.99217508066E+02  0.23293397458E+03 -0.11348493241E+04  0.11694487329E+04  0.12500000000E+03 0.  0.
         21    1    1    2  503  502  0.12471518660E+03 -0.19067798617E+03 -0.11035297472E+02  0.22810907472E+03  0.00000000000E+00 0. -1.
         21    1    1    2  504  503 -0.25497678530E+02 -0.42255988408E+02 -0.21479346673E+02  0.53824367161E+02  0.00000000000E+00 0.  1.
<mgrwt>
<rscale>  4 0.27885951E+03</rscale>
<asrwt>0</asrwt>
<pdfrwt beam="1">  1       21 0.21847555E-01 0.27885951E+03</pdfrwt>
<pdfrwt beam="2">  1       21 0.20144200E+00 0.27885951E+03</pdfrwt>
<totfact> 0.23878578E+03</totfact>
</mgrwt>
</event>
<event>
 5    0  0.1480317E+000  0.3172307E+03  0.7546771E-02  0.1076931E+00
         21   -1    0    0  504  501  0.00000000000E+00  0.00000000000E+00  0.33527558715E+03  0.33527558715E+03  0.00000000000E+00 0.  1.
         21   -1    0    0  501  502 -0.00000000000E+00 -0.00000000000E+00 -0.36216753202E+03  0.36216753202E+03  0.00000000000E+00 0. -1.
         25    1    1    2    0    0  0.26612981414E+03 -0.11910168819E+03 -0.17673144454E+03  0.36313811917E+03  0.12500000000E+03 0.  0.
         21    1    1    2  503  502 -0.13619189392E+03  0.96491876736E+02  0.86549913819E+02  0.18801542976E+03  0.00000000000E+00 0.  1.
         21    1    1    2  504  503 -0.12993792022E+03  0.22609811458E+02  0.63289585847E+02  0.14628957024E+03  0.00000000000E+00 0.  1.
<mgrwt>
<rscale>  4 0.31723066E+03</rscale>
<asrwt>0</asrwt>
<pdfrwt beam="1">  1       21 0.51580859E-01 0.31723066E+03</pdfrwt>
<pdfrwt beam="2">  1       21 0.55718082E-01 0.31723066E+03</pdfrwt>
<totfact> 0.10126531E+04</totfact>
</mgrwt>
</event>
<event>
 5    0  0.1480317E+000  0.3053234E+03  0.7546771E-02  0.1082609E+00
         21   -1    0    0  504  501  0.00000000000E+00  0.00000000000E+00  0.11037530569E+04  0.11037530569E+04  0.00000000000E+00 0.  1.
         21   -1    0    0  501  502 -0.00000000000E+00 -0.00000000000E+00 -0.29126791882E+03  0.29126791882E+03  0.00000000000E+00 0.  1.
         25    1    1    2    0    0  0.98561959450E+02  0.26054349956E+03 -0.18412151528E+03  0.35654327564E+03  0.12500000000E+03 0.  0.
         21    1    1    2  503  502 -0.10874559618E+03 -0.21496174962E+03  0.89122631279E+03  0.92321097215E+03  0.00000000000E+00 0.  1.
         21    1    1    2  504  503  0.10183636726E+02 -0.45581749943E+02  0.10538034056E+03  0.11526672790E+03  0.00000000000E+00 0.  1.
<mgrwt>
<rscale>  4 0.30532339E+03</rscale>
<asrwt>0</asrwt>
<pdfrwt beam="1">  1       21 0.16980816E+00 0.30532339E+03</pdfrwt>
<pdfrwt beam="2">  1       21 0.44810450E-01 0.30532339E+03</pdfrwt>
<totfact> 0.92870945E+02</totfact>
</mgrwt>
</event>
<event>
 5    0  0.1480317E+000  0.2878962E+03  0.7546771E-02  0.1091453E+00
         21   -1    0    0  504  501  0.00000000000E+00  0.00000000000E+00  0.41354018468E+03  0.41354018468E+03  0.00000000000E+00 0.  1.
         21   -1    0    0  501  502 -0.00000000000E+00 -0.00000000000E+00 -0.34950077124E+03  0.34950077124E+03  0.00000000000E+00 0. -1.
         25    1    1    2    0    0 -0.15560986836E+03  0.23151790160E+03 -0.18403251519E+03  0.35680237743E+03  0.12500000000E+03 0.  0.
         21    1    1    2  503  502  0.87154035135E+02 -0.40549881655E+02  0.15074397977E+02  0.97300340271E+02  0.00000000000E+00 0.  1.
         21    1    1    2  504  503  0.68455833223E+02 -0.19096801995E+03  0.23299753065E+03  0.30893823822E+03  0.00000000000E+00 0.  1.
<mgrwt>
<rscale>  4 0.28789622E+03</rscale>
<asrwt>0</asrwt>
<pdfrwt beam="1">  1       21 0.63621567E-01 0.28789622E+03</pdfrwt>
<pdfrwt beam="2">  1       21 0.53769350E-01 0.28789622E+03</pdfrwt>
<totfact> 0.70476948E+03</totfact>
</mgrwt>
</event>
<event>
 5    0  0.1480317E+000  0.6073768E+03  0.7546771E-02  0.9897942E-01
         21   -1    0    0  504  501  0.00000000000E+00  0.00000000000E+00  0.86507551583E+03  0.86507551583E+03  0.00000000000E+00 0. -1.
         21   -1    0    0  501  502 -0.00000000000E+00 -0.00000000000E+00 -0.44178047743E+03  0.44178047743E+03  0.00000000000E+00 0. -1.
         25    1    1    2    0    0 -0.52003665666E+03 -0.25482950201E+03  0.36691058851E+03  0.69686769140E+03  0.12500000000E+03 0.  0.
         21    1    1    2  503  502  0.35886926763E+03  0.17907355161E+03 -0.47418034023E+02  0.40386007241E+03  0.00000000000E+00 0. -1.
         21    1    1    2  504  503  0.16116738902E+03  0.75755950401E+02  0.10380248391E+03  0.20612822944E+03  0.00000000000E+00 0. -1.
<mgrwt>
<rscale>  4 0.60361108E+03</rscale>
<asrwt>0</asrwt>
<pdfrwt beam="1">  1       21 0.13308854E+00 0.60737675E+03</pdfrwt>
<pdfrwt beam="2">  1       21 0.67966228E-01 0.60737675E+03</pdfrwt>
<totfact> 0.63797957E+02</totfact>
</mgrwt>
</event>
<event>
 5    0  0.1480317E+000  0.2214792E+03  0.7546771E-02  0.1132785E+00
         21   -1    0    0  504  501  0.00000000000E+00  0.00000000000E+00  0.77180910271E+03  0.77180910271E+03  0.00000000000E+00 0.  1.
         21   -1    0    0  501  502 -0.00000000000E+00 -0.00000000000E+00 -0.77901557279E+02  0.77901557279E+02  0.00000000000E+00 0.  1.
         25    1    1    2    0    0 -0.76547151498E+02  0.19552032589E+03  0.26633069832E+03  0.36144806696E+03  0.12500000000E+03 0.  0.
         21    1    1    2  503  502  0.49506785547E+02 -0.24472902182E+02  0.57782670685E+02  0.79929229872E+02  0.00000000000E+00 0.  1.
         21    1    1    2  504  503  0.27040365951E+02 -0.17104742371E+03  0.36979417643E+03  0.40833336316E+03  0.00000000000E+00 0.  1.
<mgrwt>
<rscale>  4 0.22147916E+03</rscale>
<asrwt>0</asrwt>
<pdfrwt beam="1">  1       21 0.11873986E+00 0.22147916E+03</pdfrwt>
<pdfrwt beam="2">  1       21 0.11984855E-01 0.22147916E+03</pdfrwt>
<totfact> 0.31367994E+04</totfact>
</mgrwt>
</event>
<event>
 5    0  0.1480317E+000  0.4338598E+03  0.7546771E-02  0.1032648E+00
         21   -1    0    0  504  501  0.00000000000E+00  0.00000000000E+00  0.34486378819E+03  0.34486378819E+03  0.00000000000E+00 0. -1.
         21   -1    0    0  501  502 -0.00000000000E+00 -0.00000000000E+00 -0.78139710231E+03  0.78139710231E+03  0.00000000000E+00 0.  1.
         25    1    1    2    0    0  0.61913179360E+02  0.47137666819E+03 -0.28664061921E+03  0.56904925066E+03  0.12500000000E+03 0.  0.
         21    1    1    2  503  502 -0.98776246049E+01 -0.38802448635E+03 -0.12569220119E+02  0.38835364653E+03  0.00000000000E+00 0. -1.
         21    1    1    2  504  503 -0.52035554755E+02 -0.83352181843E+02 -0.13732347479E+03  0.16885799331E+03  0.00000000000E+00 0. -1.
<mgrwt>
<rscale>  4 0.43385975E+03</rscale>
<asrwt>0</asrwt>
<pdfrwt beam="1">  1       21 0.53055968E-01 0.43385975E+03</pdfrwt>
<pdfrwt beam="2">  1       21 0.12021494E+00 0.43385975E+03</pdfrwt>
<totfact> 0.15241111E+03</totfact>
</mgrwt>
</event>
<event>
 5    0  0.1480317E+000  0.2550801E+03  0.7546771E-02  0.1110136E+00
         21   -1    0    0  504  501  0.00000000000E+00  0.00000000000E+00  0.96918857192E+02  0.96918857192E+02  0.00000000000E+00 0.  1.
         21   -1    0    0  501  502 -0.00000000000E+00 -0.00000000000E+00 -0.13870581667E+04  0.13870581667E+04  0.00000000000E+00 0.  1.
         25    1    1    2    0    0 -0.21583433713E+03 -0.53445429092E+02 -0.12212890300E+04  0.12476428856E+04  0.12500000000E+03 0.  0.
         21    1    1    2  503  502  0.55122743320E+02  0.13777782405E+01 -0.30827558308E+02  0.63172410555E+02  0.00000000000E+00 0.  1.
         21    1    1    2  504  503  0.16071159381E+03  0.52067650852E+02 -0.38022721173E+02  0.17316172780E+03  0.00000000000E+00 0.  1.
<mgrwt>
<rscale>  4 0.25508013E+03</rscale>
<asrwt>0</asrwt>
<pdfrwt beam="1">  1       21 0.14910594E-01 0.25508013E+03</pdfrwt>
<pdfrwt beam="2">  1       21 0.21339356E+00 0.25508013E+03</pdfrwt>
<totfact> 0.41533005E+03</totfact>
</mgrwt>
</event>
<event>
 5    0  0.1480317E+000  0.3154353E+03  0.7546771E-02  0.1077769E+00
         21   -1    0    0  504  501  0.00000000000E+00  0.00000000000E+00  0.27172317735E+03  0.27172317735E+03  0.00000000000E+00 0. -1.
         21   -1    0    0  501  502 -0.00000000000E+00 -0.00000000000E+00 -0.54958567852E+03  0.54958567852E+03  0.00000000000E+00 0. -1.
         25    1    1    2    0    0  0.24606041483E+03 -0.18459614682E+03 -0.29250631427E+03  0.44250017972E+03  0.12500000000E+03 0.  0.
         21    1    1    2  503  502  0.16345092385E+02  0.70990647857E+02 -0.46471278055E+02  0.86408412856E+02  0.00000000000E+00 0. -1.
         21    1    1    2  504  503 -0.26240550721E+03  0.11360549897E+03  0.61115091148E+02  0.29240026330E+03  0.00000000000E+00 0. -1.
<mgrwt>
<rscale>  4 0.31543530E+03</rscale>
<asrwt>0</asrwt>
<pdfrwt beam="1">  1       21 0.41803566E-01 0.31543530E+03</pdfrwt>
<pdfrwt beam="2">  1       21 0.84551642E-01 0.31543530E+03</pdfrwt>
<totfact> 0.62084673E+03</totfact>
</mgrwt>
</event>
