<event>
 5    0  0.1943430E+001  0.2693554E+03  0.7546771E-02  0.1101649E+00
         21   -1    0    0  503  501  0.00000000000E+00  0.00000000000E+00  0.26897373842E+03  0.26897373842E+03  0.00000000000E+00 0.  1.
         21   -1    0    0  504  502 -0.00000000000E+00 -0.00000000000E+00 -0.47407943921E+03  0.47407943921E+03  0.00000000000E+00 0. -1.
         25    1    1    2    0    0 -0.26271389074E+03 -0.71190654206E+02  0.90658628607E+02  0.31293878727E+03  0.12500000000E+03 0.  0.
         21    1    1    2  503  502  0.31649998481E+02  0.46301372970E+02 -0.27862256413E+01  0.56154274959E+02  0.00000000000E+00 0.  1.
         21    1    1    2  504  501  0.23106389226E+03  0.24889281236E+02 -0.29297810376E+03  0.37396011540E+03  0.00000000000E+00 0. -1.
<mgrwt>
<rscale>  4 0.26935544E+03</rscale>
<asrwt>0</asrwt>
<pdfrwt beam="1">  1       21 0.41380576E-01 0.26935544E+03</pdfrwt>
<pdfrwt beam="2">  1       21 0.72935297E-01 0.26935544E+03</pdfrwt>
<totfact> 0.90791775E+03</totfact>
</mgrwt>
</event>
<event>
 5    0  0.1943430E+001  0.2391641E+03  0.7546771E-02  0.1120351E+00
         21   -1    0    0  504  501  0.00000000000E+00  0.00000000000E+00  0.30060917815E+03  0.30060917815E+03  0.00000000000E+00 0. -1.
         21   -1    0    0  501  502 -0.00000000000E+00 -0.00000000000E+00 -0.34484534277E+03  0.34484534277E+03  0.00000000000E+00 0. -1.
         25    1    1    2    0    0  0.13702240941E+03  0.21415308985E+03  0.10913271475E+03  0.30359781949E+03  0.12500000000E+03 0.  0.
         21    1    1    2  503  502 -0.51826627103E+02 -0.18763941652E+03 -0.16056570789E+03  0.25234083391E+03  0.00000000000E+00 0. -1.
         21    1    1    2  504  503 -0.85195782308E+02 -0.26513673326E+02  0.71968285132E+01  0.89515867515E+02  0.00000000000E+00 0. -1.
<mgrwt>
<rscale>  4 0.23916405E+03</rscale>
<asrwt>0</asrwt>
<pdfrwt beam="1">  1       21 0.46247566E-01 0.23916405E+03</pdfrwt>
<pdfrwt beam="2">  1       21 0.53053130E-01 0.23916405E+03</pdfrwt>
<totfact> 0.14664931E+04</totfact>
</mgrwt>
</event>
<event>
 5    0  0.1943430E+001  0.2999372E+03  0.7546771E-02  0.1085272E+00
         21   -1    0    0  502  501  0.00000000000E+00  0.00000000000E+00  0.67310189802E+03  0.67310189802E+03  0.00000000000E+00 0.  1.
         21   -1    0    0  503  502 -0.00000000000E+00 -0.00000000000E+00 -0.49255186307E+03  0.49255186307E+03  0.00000000000E+00 0.  1.
         25    1    1    2    0    0 -0.25574107992E+03  0.92717118502E+02  0.58545534731E+03  0.65755830746E+03  0.12500000000E+03 0.  0.
         21    1    1    2  503  504  0.27050020577E+03 -0.75656421237E+02 -0.39155830645E+03  0.48188397229E+03  0.00000000000E+00 0.  1.
         21    1    1    2  504  501 -0.14759125855E+02 -0.17060697265E+02 -0.13347005913E+02  0.26211481339E+02  0.00000000000E+00 0. -1.
<mgrwt>
<rscale>  4 0.29993722E+03</rscale>
<asrwt>0</asrwt>
<pdfrwt beam="1">  1       21 0.10355414E+00 0.29993722E+03</pdfrwt>
<pdfrwt beam="2">  1       21 0.75777209E-01 0.29993722E+03</pdfrwt>
<totfact> 0.10768744E+03</totfact>
</mgrwt>
</event>
<event>
 5    0  0.1943430E+001  0.2776085E+03  0.7546771E-02  0.1097002E+00
         21   -1    0    0  503  501  0.00000000000E+00  0.00000000000E+00  0.89203641842E+03  0.89203641842E+03  0.00000000000E+00 0.  1.
         21   -1    0    0  504  502 -0.00000000000E+00 -0.00000000000E+00 -0.16528646063E+04  0.16528646063E+04  0.00000000000E+00 0. -1.
         25    1    1    2    0    0 -0.10840448738E+03  0.19506780109E+03  0.35659877222E+03  0.43885152872E+03  0.12500000000E+03 0.  0.
         21    1    1    2  503  502  0.23586957302E+03 -0.16224599469E+03  0.44986933195E+03  0.53323600226E+03  0.00000000000E+00 0.  1.
         21    1    1    2  504  501 -0.12746508564E+03 -0.32821806392E+02 -0.15672962921E+04  0.15728134938E+04  0.00000000000E+00 0. -1.
<mgrwt>
<rscale>  4 0.27760855E+03</rscale>
<asrwt>0</asrwt>
<pdfrwt beam="1">  1       21 0.13723637E+00 0.27760855E+03</pdfrwt>
<pdfrwt beam="2">  1       21 0.25428686E+00 0.27760855E+03</pdfrwt>
<totfact> 0.20849713E+01</totfact>
</mgrwt>
</event>
<event>
 5    0  0.1943430E+001  0.2317768E+03  0.7546771E-02  0.1125395E+00
         21   -1    0    0  504  501  0.00000000000E+00  0.00000000000E+00  0.13303306073E+03  0.13303306073E+03  0.00000000000E+00 0.  1.
         21   -1    0    0  501  502 -0.00000000000E+00 -0.00000000000E+00 -0.94980697394E+03  0.94980697394E+03  0.00000000000E+00 0.  1.
         25    1    1    2    0    0 -0.11492126086E+03 -0.16955242481E+03 -0.60893472391E+02  0.24756400372E+03  0.12500000000E+03 0.  0.
         21    1    1    2  503  502  0.24262278117E+02  0.11396057262E+02 -0.58435438932E+03  0.58496887146E+03  0.00000000000E+00 0.  1.
         21    1    1    2  504  503  0.90658982745E+02  0.15815636755E+03 -0.17152605150E+03  0.25030715949E+03  0.00000000000E+00 0.  1.
<mgrwt>
<rscale>  4 0.23177677E+03</rscale>
<asrwt>0</asrwt>
<pdfrwt beam="1">  1       21 0.20466624E-01 0.23177677E+03</pdfrwt>
<pdfrwt beam="2">  1       21 0.14612416E+00 0.23177677E+03</pdfrwt>
<totfact> 0.68731344E+03</totfact>
</mgrwt>
</event>
<event>
 5    0  0.1943430E+001  0.2670382E+03  0.7546771E-02  0.1102987E+00
         21   -1    0    0  503  501  0.00000000000E+00  0.00000000000E+00  0.21407867264E+03  0.21407867264E+03  0.00000000000E+00 0.  1.
         21   -1    0    0  504  502 -0.00000000000E+00 -0.00000000000E+00 -0.48526493675E+03  0.48526493675E+03  0.00000000000E+00 0.  1.
         25    1    1    2    0    0 -0.17656278653E+03 -0.10951843070E+03 -0.18863404178E+03  0.30720759426E+03  0.12500000000E+03 0.  0.
         21    1    1    2  503  502  0.24990956920E+03  0.47627391617E+02  0.15570177747E+02  0.25488348641E+03  0.00000000000E+00 0.  1.
         21    1    1    2  504  501 -0.73346782666E+02  0.61891039083E+02 -0.98122400077E+02  0.13725252873E+03  0.00000000000E+00 0.  1.
<mgrwt>
<rscale>  4 0.26703818E+03</rscale>
<asrwt>0</asrwt>
<pdfrwt beam="1">  1       21 0.32935180E-01 0.26703818E+03</pdfrwt>
<pdfrwt beam="2">  1       21 0.74656145E-01 0.26703818E+03</pdfrwt>
<totfact> 0.13663237E+04</totfact>
</mgrwt>
</event>
<event>
 5    0  0.1943430E+001  0.4013911E+03  0.7546771E-02  0.1043299E+00
         21   -1    0    0  504  501  0.00000000000E+00  0.00000000000E+00  0.11135278837E+04  0.11135278837E+04  0.00000000000E+00 0.  1.
         21   -1    0    0  501  502 -0.00000000000E+00 -0.00000000000E+00 -0.61453089115E+03  0.61453089115E+03  0.00000000000E+00 0. -1.
         25    1    1    2    0    0  0.33811530142E+03 -0.24446370910E+03  0.74572689224E+03  0.86360758446E+03  0.12500000000E+03 0.  0.
         21    1    1    2  503  502 -0.47167952940E+02  0.90354172795E+02 -0.46066657559E+03  0.47180757327E+03  0.00000000000E+00 0. -1.
         21    1    1    2  504  503 -0.29094734848E+03  0.15410953630E+03  0.21393667589E+03  0.39264361711E+03  0.00000000000E+00 0.  1.
<mgrwt>
<rscale>  4 0.40139115E+03</rscale>
<asrwt>0</asrwt>
<pdfrwt beam="1">  1       21 0.17131198E+00 0.40139115E+03</pdfrwt>
<pdfrwt beam="2">  1       21 0.94543214E-01 0.40139115E+03</pdfrwt>
<totfact> 0.16279694E+02</totfact>
</mgrwt>
</event>
<event>
 5    0  0.1943430E+001  0.2807064E+03  0.7546771E-02  0.1095304E+00
         21   -1    0    0  504  501  0.00000000000E+00  0.00000000000E+00  0.20350257990E+03  0.20350257990E+03  0.00000000000E+00 0.  1.
         21   -1    0    0  501  502 -0.00000000000E+00 -0.00000000000E+00 -0.98368224965E+03  0.98368224965E+03  0.00000000000E+00 0.  1.
         25    1    1    2    0    0 -0.64399991079E+02 -0.21854498147E+03 -0.27545099390E+03  0.37869185074E+03  0.12500000000E+03 0.  0.
         21    1    1    2  503  502  0.55365462811E+01 -0.34115815063E+02 -0.54488190343E+03  0.54597695086E+03  0.00000000000E+00 0.  1.
         21    1    1    2  504  503  0.58863444798E+02  0.25266079653E+03  0.40153227585E+02  0.26251602794E+03  0.00000000000E+00 0.  1.
<mgrwt>
<rscale>  4 0.28070643E+03</rscale>
<asrwt>0</asrwt>
<pdfrwt beam="1">  1       21 0.31308089E-01 0.28070643E+03</pdfrwt>
<pdfrwt beam="2">  1       21 0.15133573E+00 0.28070643E+03</pdfrwt>
<totfact> 0.26738646E+03</totfact>
</mgrwt>
</event>
<event>
 5    0  0.1943430E+001  0.3202156E+03  0.7546771E-02  0.1075550E+00
         21   -1    0    0  503  501  0.00000000000E+00  0.00000000000E+00  0.13338212586E+03  0.13338212586E+03  0.00000000000E+00 0. -1.
         21   -1    0    0  504  502 -0.00000000000E+00 -0.00000000000E+00 -0.10517944344E+04  0.10517944344E+04  0.00000000000E+00 0. -1.
         25    1    1    2    0    0  0.20417447018E+03 -0.18418733223E+03 -0.23465269150E+03  0.38249061852E+03  0.12500000000E+03 0.  0.
         21    1    1    2  503  502  0.62233676185E+02 -0.51413672414E+01 -0.26075815270E+03  0.26813108419E+03  0.00000000000E+00 0. -1.
         21    1    1    2  504  501 -0.26640814636E+03  0.18932869947E+03 -0.42300146437E+03  0.53455485757E+03  0.00000000000E+00 0. -1.
<mgrwt>
<rscale>  4 0.32021565E+03</rscale>
<asrwt>0</asrwt>
<pdfrwt beam="1">  1       21 0.20520327E-01 0.32021565E+03</pdfrwt>
<pdfrwt beam="2">  1       21 0.16181453E+00 0.32021565E+03</pdfrwt>
<totfact> 0.49303897E+03</totfact>
</mgrwt>
</event>
<event>
 5    0  0.1943430E+001  0.2451329E+03  0.7546771E-02  0.1116420E+00
         21   -1    0    0  503  501  0.00000000000E+00  0.00000000000E+00  0.54339774515E+03  0.54339774515E+03  0.00000000000E+00 0. -1.
         21   -1    0    0  504  502 -0.00000000000E+00 -0.00000000000E+00 -0.44877933161E+03  0.44877933161E+03  0.00000000000E+00 0.  1.
         25    1    1    2    0    0  0.18368470488E+02  0.23043313363E+03 -0.74934472417E+02  0.27327093687E+03  0.12500000000E+03 0.  0.
         21    1    1    2  503  502 -0.15297204383E+02 -0.22374740274E+02 -0.24953571011E+03  0.25100339457E+03  0.00000000000E+00 0.  1.
         21    1    1    2  504  501 -0.30712661047E+01 -0.20805839336E+03  0.41908859607E+03  0.46790274532E+03  0.00000000000E+00 0. -1.
<mgrwt>
<rscale>  4 0.24513288E+03</rscale>
<asrwt>0</asrwt>
<pdfrwt beam="1">  1       21 0.83599653E-01 0.24513288E+03</pdfrwt>
<pdfrwt beam="2">  1       21 0.69042974E-01 0.24513288E+03</pdfrwt>
<totfact> 0.22788199E+03</totfact>
</mgrwt>
</event>
<event>
 5    0  0.1943430E+001  0.2197514E+03  0.7546771E-02  0.1134069E+00
         21   -1    0    0  504  501  0.00000000000E+00  0.00000000000E+00  0.59263726576E+03  0.59263726576E+03  0.00000000000E+00 0.  1.
         21   -1    0    0  501  502 -0.00000000000E+00 -0.00000000000E+00 -0.16004645749E+03  0.16004645749E+03  0.00000000000E+00 0.  1.
         25    1    1    2    0    0 -0.21522180957E+03 -0.52574641640E+01  0.11799809961E+03  0.27549341146E+03  0.12500000000E+03 0.  0.
         21    1    1    2  503  502  0.43263694856E+02 -0.68220391976E+01 -0.54445911141E+02  0.69875923976E+02  0.00000000000E+00 0.  1.
         21    1    1    2  504  503  0.17195811472E+03  0.12079503362E+02  0.36903861980E+03  0.40731438782E+03  0.00000000000E+00 0.  1.
<mgrwt>
<rscale>  4 0.21975137E+03</rscale>
<asrwt>0</asrwt>
<pdfrwt beam="1">  1       21 0.91174963E-01 0.21975137E+03</pdfrwt>
<pdfrwt beam="2">  1       21 0.24622532E-01 0.21975137E+03</pdfrwt>
<totfact> 0.15629321E+04</totfact>
</mgrwt>
</event>
<event>
 5    0  0.1943430E+001  0.3971075E+03  0.7546771E-02  0.1044786E+00
         21   -1    0    0  503  501  0.00000000000E+00  0.00000000000E+00  0.15049485477E+04  0.15049485477E+04  0.00000000000E+00 0. -1.
         21   -1    0    0  504  502 -0.00000000000E+00 -0.00000000000E+00 -0.19662444379E+03  0.19662444379E+03  0.00000000000E+00 0. -1.
         25    1    1    2    0    0  0.34838256036E+03 -0.82579985551E+02  0.39158163950E+03  0.54511562331E+03  0.12500000000E+03 0.  0.
         21    1    1    2  503  502 -0.37350957780E+03  0.96589621328E+02  0.99815148763E+03  0.10701146443E+04  0.00000000000E+00 0. -1.
         21    1    1    2  504  501  0.25127017436E+02 -0.14009635776E+02 -0.81409023250E+02  0.86342723876E+02  0.00000000000E+00 0. -1.
<mgrwt>
<rscale>  4 0.39710749E+03</rscale>
<asrwt>0</asrwt>
<pdfrwt beam="1">  1       21 0.23153054E+00 0.39710749E+03</pdfrwt>
<pdfrwt beam="2">  1       21 0.30249915E-01 0.39710749E+03</pdfrwt>
<totfact> 0.75859418E+02</totfact>
</mgrwt>
</event>
