<event>
 5    0  0.1911311E+001  0.3340573E+03  0.7546771E-02  0.1069356E+00
         21   -1    0    0  502  501  0.00000000000E+00  0.00000000000E+00  0.77143972467E+03  0.77143972467E+03  0.00000000000E+00 0.  1.
         21   -1    0    0  504  502 -0.00000000000E+00 -0.00000000000E+00 -0.19393146405E+03  0.19393146405E+03  0.00000000000E+00 0.  1.
         25    1    1    2    0    0 -0.28626279020E+03 -0.35875874898E+01  0.26564618887E+03  0.41006359690E+03  0.12500000000E+03 0.  0.
         21    1    1    2  503  501  0.32958316251E+03 -0.64553287010E+02  0.33183356500E+03  0.47212890479E+03  0.00000000000E+00 0.  1.
         21    1    1    2  504  503 -0.43320372308E+02  0.68140874499E+02 -0.19971493252E+02  0.83178687037E+02  0.00000000000E+00 0.  1.
<mgrwt>
<rscale>  4 0.33405734E+03</rscale>
<asrwt>0</asrwt>
<pdfrwt beam="1">  1       21 0.11868303E+00 0.33405734E+03</pdfrwt>
<pdfrwt beam="2">  1       21 0.29835610E-01 0.33405734E+03</pdfrwt>
<totfact> 0.53634932E+03</totfact>
</mgrwt>
</event>
<event>
 5    0  0.1911311E+001  0.2593053E+03  0.7546771E-02  0.1107561E+00
         21   -1    0    0  502  501  0.00000000000E+00  0.00000000000E+00  0.67063665015E+03  0.67063665015E+03  0.00000000000E+00 0. -1.
         21   -1    0    0  504  502 -0.00000000000E+00 -0.00000000000E+00 -0.13814773317E+03  0.13814773317E+03  0.00000000000E+00 0. -1.
         25    1    1    2    0    0 -0.22952797070E+03  0.74127038362E+02  0.21841759011E+03  0.34858162720E+03  0.12500000000E+03 0.  0.
         21    1    1    2  503  501  0.20853319536E+02 -0.76302517800E+01  0.22120037114E+03  0.22231213612E+03  0.00000000000E+00 0.  1.
         21    1    1    2  504  503  0.20867465116E+03 -0.66496786582E+02  0.92870955734E+02  0.23789062000E+03  0.00000000000E+00 0. -1.
<mgrwt>
<rscale>  4 0.25930527E+03</rscale>
<asrwt>0</asrwt>
<pdfrwt beam="1">  1       21 0.10317487E+00 0.25930527E+03</pdfrwt>
<pdfrwt beam="2">  1       21 0.21253498E-01 0.25930527E+03</pdfrwt>
<totfact> 0.15096359E+04</totfact>
</mgrwt>
</event>
<event>
 5    0  0.1911311E+001  0.3044603E+03  0.7546771E-02  0.1083032E+00
         21   -1    0    0  502  501  0.00000000000E+00  0.00000000000E+00  0.46056299715E+03  0.46056299715E+03  0.00000000000E+00 0. -1.
         21   -1    0    0  504  502 -0.00000000000E+00 -0.00000000000E+00 -0.69471419324E+03  0.69471419324E+03  0.00000000000E+00 0. -1.
         25    1    1    2    0    0 -0.78021644012E+02  0.25867670963E+03  0.35880928399E+03  0.46622968516E+03  0.12500000000E+03 0.  0.
         21    1    1    2  503  501  0.28186525074E+02  0.15118874107E+02  0.21748874081E+01  0.32059174743E+02  0.00000000000E+00 0.  1.
         21    1    1    2  504  503  0.49835118939E+02 -0.27379558374E+03 -0.59513536749E+03  0.65698833049E+03  0.00000000000E+00 0. -1.
<mgrwt>
<rscale>  4 0.30446031E+03</rscale>
<asrwt>0</asrwt>
<pdfrwt beam="1">  1       21 0.70855846E-01 0.30446031E+03</pdfrwt>
<pdfrwt beam="2">  1       21 0.10687911E+00 0.30446031E+03</pdfrwt>
<totfact> 0.11564135E+03</totfact>
</mgrwt>
</event>
<event>
 5    0  0.1911311E+001  0.2540238E+03  0.7546771E-02  0.1110788E+00
         21   -1    0    0  502  501  0.00000000000E+00  0.00000000000E+00  0.13115979047E+03  0.13115979047E+03  0.00000000000E+00 0. -1.
         21   -1    0    0  504  502 -0.00000000000E+00 -0.00000000000E+00 -0.73837790295E+03  0.73837790295E+03  0.00000000000E+00 0. -1.
         25    1    1    2    0    0 -0.23674757418E+03  0.89452614249E+01 -0.10897643195E+03  0.28918902867E+03  0.12500000000E+03 0.  0.
         21    1    1    2  503  501  0.19554090449E+02 -0.18013154605E+02  0.93375611256E+01  0.28178471213E+02  0.00000000000E+00 0. -1.
         21    1    1    2  504  503  0.21719348373E+03  0.90678931803E+01 -0.50757924165E+03  0.55217019353E+03  0.00000000000E+00 0. -1.
<mgrwt>
<rscale>  4 0.25402379E+03</rscale>
<asrwt>0</asrwt>
<pdfrwt beam="1">  1       21 0.20178429E-01 0.25402379E+03</pdfrwt>
<pdfrwt beam="2">  1       21 0.11359660E+00 0.25402379E+03</pdfrwt>
<totfact> 0.13208182E+04</totfact>
</mgrwt>
</event>
<event>
 5    0  0.1911311E+001  0.2557168E+03  0.7546771E-02  0.1109744E+00
         21   -1    0    0  503  501  0.00000000000E+00  0.00000000000E+00  0.38486227427E+02  0.38486227427E+02  0.00000000000E+00 0.  1.
         21   -1    0    0  504  502 -0.00000000000E+00 -0.00000000000E+00 -0.23677581183E+04  0.23677581183E+04  0.00000000000E+00 0.  1.
         25    1    1    2    0    0  0.20316143492E+03 -0.11748443284E+03 -0.60430836336E+03  0.66022023495E+03  0.12500000000E+03 0.  0.
         21    1    1    2  503  502 -0.71448794755E+01  0.56286682754E+02 -0.58211993558E+03  0.58487849965E+03  0.00000000000E+00 0.  1.
         21    1    1    2  504  501 -0.19601655545E+03  0.61197750091E+02 -0.11428435919E+04  0.11611456111E+04  0.00000000000E+00 0.  1.
<mgrwt>
<rscale>  4 0.25571677E+03</rscale>
<asrwt>0</asrwt>
<pdfrwt beam="1">  1       21 0.59209565E-02 0.25571677E+03</pdfrwt>
<pdfrwt beam="2">  1       21 0.36427058E+00 0.25571677E+03</pdfrwt>
<totfact> 0.26926740E+03</totfact>
</mgrwt>
</event>
