<event>
 4    0  0.1525083E-001  0.2390694E+03  0.7546771E-02  0.1120414E+00
         21   -1    0    0  503  501  0.00000000000E+00  0.00000000000E+00  0.20415659593E+03  0.20415659593E+03  0.00000000000E+00 0. -1.
         21   -1    0    0  501  502 -0.00000000000E+00 -0.00000000000E+00 -0.71225536631E+03  0.71225536631E+03  0.00000000000E+00 0.  1.
         25    1    1    2    0    0  0.20202672286E+03  0.26727625693E+02  0.11176820765E+03  0.26390584489E+03  0.12500000000E+03 0.  0.
         21    1    1    2  503  502 -0.20202672286E+03 -0.26727625693E+02 -0.61986697803E+03  0.65250611735E+03  0.00000000000E+00 0.  1.
<mgrwt>
<rscale>  3 0.23906937E+03</rscale>
<asrwt>0</asrwt>
<pdfrwt beam="1">  1       21 0.31408706E-01 0.23906937E+03</pdfrwt>
<pdfrwt beam="2">  1       21 0.10957775E+00 0.23906937E+03</pdfrwt>
<totfact> 0.62128302E+03</totfact>
</mgrwt>
</event>
<event>
 4    0  0.1525083E-001  0.3370122E+03  0.7546771E-02  0.1068076E+00
         21   -1    0    0  503  501  0.00000000000E+00  0.00000000000E+00  0.43311681807E+03  0.43311681807E+03  0.00000000000E+00 0.  1.
         21   -1    0    0  501  502 -0.00000000000E+00 -0.00000000000E+00 -0.24671781430E+03  0.24671781430E+03  0.00000000000E+00 0. -1.
         25    1    1    2    0    0  0.30683763163E+03 -0.61667757042E+02  0.13315959645E+03  0.36236545444E+03  0.12500000000E+03 0.  0.
         21    1    1    2  503  502 -0.30683763163E+03  0.61667757042E+02  0.53239407319E+02  0.31746917793E+03  0.00000000000E+00 0. -1.
<mgrwt>
<rscale>  3 0.33701223E+03</rscale>
<asrwt>0</asrwt>
<pdfrwt beam="1">  1       21 0.66633356E-01 0.33701223E+03</pdfrwt>
<pdfrwt beam="2">  1       21 0.37956587E-01 0.33701223E+03</pdfrwt>
<totfact> 0.12851156E+04</totfact>
</mgrwt>
</event>
<event>
 4    0  0.1525083E-001  0.4189542E+03  0.7546771E-02  0.1037407E+00
         21   -1    0    0  502  501  0.00000000000E+00  0.00000000000E+00  0.25748559102E+03  0.25748559102E+03  0.00000000000E+00 0.  1.
         21   -1    0    0  503  502 -0.00000000000E+00 -0.00000000000E+00 -0.73768203474E+03  0.73768203474E+03  0.00000000000E+00 0.  1.
         25    1    1    2    0    0  0.39777882509E+03 -0.40861078590E+02 -0.74493964179E+02  0.42552552466E+03  0.12500000000E+03 0.  0.
         21    1    1    2  503  501 -0.39777882509E+03  0.40861078590E+02 -0.40570247955E+03  0.56964210110E+03  0.00000000000E+00 0.  1.
<mgrwt>
<rscale>  3 0.41895420E+03</rscale>
<asrwt>0</asrwt>
<pdfrwt beam="1">  1       21 0.39613169E-01 0.41895420E+03</pdfrwt>
<pdfrwt beam="2">  1       21 0.11348954E+00 0.41895420E+03</pdfrwt>
<totfact> 0.32709284E+03</totfact>
</mgrwt>
</event>
<event>
 4    0  0.1525083E-001  0.2445716E+03  0.7546771E-02  0.1116784E+00
         21   -1    0    0  502  501  0.00000000000E+00  0.00000000000E+00  0.19436275060E+03  0.19436275060E+03  0.00000000000E+00 0.  1.
         21   -1    0    0  503  502 -0.00000000000E+00 -0.00000000000E+00 -0.59056316024E+03  0.59056316024E+03  0.00000000000E+00 0.  1.
         25    1    1    2    0    0 -0.71596821821E+02  0.19764657974E+03  0.85715181961E+02  0.25915703308E+03  0.12500000000E+03 0.  0.
         21    1    1    2  503  501  0.71596821821E+02 -0.19764657974E+03 -0.48191559160E+03  0.52576887775E+03  0.00000000000E+00 0.  1.
<mgrwt>
<rscale>  3 0.24457162E+03</rscale>
<asrwt>0</asrwt>
<pdfrwt beam="1">  1       21 0.29901962E-01 0.24457162E+03</pdfrwt>
<pdfrwt beam="2">  1       21 0.90855870E-01 0.24457162E+03</pdfrwt>
<totfact> 0.10665927E+04</totfact>
</mgrwt>
</event>
<event>
 4    0  0.1525083E-001  0.2790446E+03  0.7546771E-02  0.1096212E+00
         21   -1    0    0  503  501  0.00000000000E+00  0.00000000000E+00  0.35174568171E+03  0.35174568171E+03  0.00000000000E+00 0.  1.
         21   -1    0    0  501  502 -0.00000000000E+00 -0.00000000000E+00 -0.23751078281E+03  0.23751078281E+03  0.00000000000E+00 0.  1.
         25    1    1    2    0    0  0.24945125082E+03  0.38679575312E+01  0.17897942365E+03  0.33151096773E+03  0.12500000000E+03 0.  0.
         21    1    1    2  503  502 -0.24945125082E+03 -0.38679575312E+01 -0.64744524754E+02  0.25774549679E+03  0.00000000000E+00 0.  1.
<mgrwt>
<rscale>  3 0.27904460E+03</rscale>
<asrwt>0</asrwt>
<pdfrwt beam="1">  1       21 0.54114720E-01 0.27904460E+03</pdfrwt>
<pdfrwt beam="2">  1       21 0.36540121E-01 0.27904460E+03</pdfrwt>
<totfact> 0.22325424E+04</totfact>
</mgrwt>
</event>
<event>
 4    0  0.1525083E-001  0.2831230E+03  0.7546771E-02  0.1093995E+00
         21   -1    0    0  502  501  0.00000000000E+00  0.00000000000E+00  0.14567090820E+03  0.14567090820E+03  0.00000000000E+00 0. -1.
         21   -1    0    0  503  502 -0.00000000000E+00 -0.00000000000E+00 -0.75816259405E+03  0.75816259405E+03  0.00000000000E+00 0. -1.
         25    1    1    2    0    0  0.23652909404E+03 -0.92669335812E+02 -0.51178147446E+02  0.28771134998E+03  0.12500000000E+03 0.  0.
         21    1    1    2  503  501 -0.23652909404E+03  0.92669335812E+02 -0.56131353840E+03  0.61612215228E+03  0.00000000000E+00 0. -1.
<mgrwt>
<rscale>  3 0.28312297E+03</rscale>
<asrwt>0</asrwt>
<pdfrwt beam="1">  1       21 0.22410909E-01 0.28312297E+03</pdfrwt>
<pdfrwt beam="2">  1       21 0.11664040E+00 0.28312297E+03</pdfrwt>
<totfact> 0.99927714E+03</totfact>
</mgrwt>
</event>
<event>
 4    0  0.1525083E-001  0.2574921E+03  0.7546771E-02  0.1108659E+00
         21   -1    0    0  503  501  0.00000000000E+00  0.00000000000E+00  0.51443537686E+03  0.51443537686E+03  0.00000000000E+00 0.  1.
         21   -1    0    0  501  502 -0.00000000000E+00 -0.00000000000E+00 -0.48803673716E+03  0.48803673716E+03  0.00000000000E+00 0. -1.
         25    1    1    2    0    0 -0.18483826818E+03 -0.12849895877E+03  0.45245838147E+03  0.52059653740E+03  0.12500000000E+03 0.  0.
         21    1    1    2  503  502  0.18483826818E+03  0.12849895877E+03 -0.42605974177E+03  0.48187557662E+03  0.00000000000E+00 0. -1.
<mgrwt>
<rscale>  3 0.25749207E+03</rscale>
<asrwt>0</asrwt>
<pdfrwt beam="1">  1       21 0.79143904E-01 0.25749207E+03</pdfrwt>
<pdfrwt beam="2">  1       21 0.75082575E-01 0.25749207E+03</pdfrwt>
<totfact> 0.21234001E+03</totfact>
</mgrwt>
</event>
<event>
 4    0  0.1525083E-001  0.2919481E+03  0.7546771E-02  0.1089336E+00
         21   -1    0    0  502  501  0.00000000000E+00  0.00000000000E+00  0.47786790843E+03  0.47786790843E+03  0.00000000000E+00 0.  1.
         21   -1    0    0  503  502 -0.00000000000E+00 -0.00000000000E+00 -0.18443796777E+03  0.18443796777E+03  0.00000000000E+00 0.  1.
         25    1    1    2    0    0 -0.12294494016E+03  0.23343784283E+03  0.26961448160E+03  0.39739860778E+03  0.12500000000E+03 0.  0.
         21    1    1    2  503  501  0.12294494016E+03 -0.23343784283E+03  0.23815459059E+02  0.26490726843E+03  0.00000000000E+00 0.  1.
<mgrwt>
<rscale>  3 0.29194809E+03</rscale>
<asrwt>0</asrwt>
<pdfrwt beam="1">  1       21 0.73518139E-01 0.29194809E+03</pdfrwt>
<pdfrwt beam="2">  1       21 0.28375072E-01 0.29194809E+03</pdfrwt>
<totfact> 0.18759615E+04</totfact>
</mgrwt>
</event>
<event>
 4    0  0.1525083E-001  0.2910706E+03  0.7546771E-02  0.1089792E+00
         21   -1    0    0  503  501  0.00000000000E+00  0.00000000000E+00  0.15143733638E+03  0.15143733638E+03  0.00000000000E+00 0. -1.
         21   -1    0    0  501  502 -0.00000000000E+00 -0.00000000000E+00 -0.15055783963E+04  0.15055783963E+04  0.00000000000E+00 0.  1.
         25    1    1    2    0    0 -0.80906535727E+02 -0.25010237485E+03 -0.14073778708E+02  0.29141059809E+03  0.12500000000E+03 0.  0.
         21    1    1    2  503  502  0.80906535727E+02  0.25010237485E+03 -0.13400672812E+04  0.13656051346E+04  0.00000000000E+00 0.  1.
<mgrwt>
<rscale>  3 0.29107055E+03</rscale>
<asrwt>0</asrwt>
<pdfrwt beam="1">  1       21 0.23298052E-01 0.29107055E+03</pdfrwt>
<pdfrwt beam="2">  1       21 0.23162744E+00 0.29107055E+03</pdfrwt>
<totfact> 0.13503346E+03</totfact>
</mgrwt>
</event>
<event>
 4    0  0.1525083E-001  0.2489140E+03  0.7546771E-02  0.1113993E+00
         21   -1    0    0  502  501  0.00000000000E+00  0.00000000000E+00  0.95865639019E+02  0.95865639019E+02  0.00000000000E+00 0.  1.
         21   -1    0    0  503  502 -0.00000000000E+00 -0.00000000000E+00 -0.59985757190E+03  0.59985757190E+03  0.00000000000E+00 0.  1.
         25    1    1    2    0    0  0.21415518923E+03  0.21696060442E+02 -0.18177028118E+03  0.30821842780E+03  0.12500000000E+03 0.  0.
         21    1    1    2  503  501 -0.21415518923E+03 -0.21696060442E+02 -0.32222165170E+03  0.38750478312E+03  0.00000000000E+00 0.  1.
<mgrwt>
<rscale>  3 0.24891397E+03</rscale>
<asrwt>0</asrwt>
<pdfrwt beam="1">  1       21 0.14748560E-01 0.24891397E+03</pdfrwt>
<pdfrwt beam="2">  1       21 0.92285781E-01 0.24891397E+03</pdfrwt>
<totfact> 0.39007920E+04</totfact>
</mgrwt>
</event>
<event>
 4    0  0.1525083E-001  0.3335128E+03  0.7546771E-02  0.1069593E+00
         21   -1    0    0  503  501  0.00000000000E+00  0.00000000000E+00  0.19276011403E+04  0.19276011403E+04  0.00000000000E+00 0. -1.
         21   -1    0    0  501  502 -0.00000000000E+00 -0.00000000000E+00 -0.11524275065E+03  0.11524275065E+03  0.00000000000E+00 0. -1.
         25    1    1    2    0    0 -0.14712067163E+03  0.27195821579E+03  0.16690513865E+04  0.17020467954E+04  0.12500000000E+03 0.  0.
         21    1    1    2  503  502  0.14712067163E+03 -0.27195821579E+03  0.14330700318E+03  0.34079709552E+03  0.00000000000E+00 0. -1.
<mgrwt>
<rscale>  3 0.33351276E+03</rscale>
<asrwt>0</asrwt>
<pdfrwt beam="1">  1       21 0.29655400E+00 0.33351276E+03</pdfrwt>
<pdfrwt beam="2">  1       21 0.17729655E-01 0.33351276E+03</pdfrwt>
<totfact> 0.89520799E+02</totfact>
</mgrwt>
</event>
<event>
 4    0  0.1525083E-001  0.3495137E+03  0.7546771E-02  0.1062815E+00
         21   -1    0    0  503  501  0.00000000000E+00  0.00000000000E+00  0.10707225395E+03  0.10707225395E+03  0.00000000000E+00 0. -1.
         21   -1    0    0  501  502 -0.00000000000E+00 -0.00000000000E+00 -0.10686761371E+04  0.10686761371E+04  0.00000000000E+00 0. -1.
         25    1    1    2    0    0  0.30584570570E+03  0.11398783026E+03 -0.52249529901E+03  0.62861845235E+03  0.12500000000E+03 0.  0.
         21    1    1    2  503  502 -0.30584570570E+03 -0.11398783026E+03 -0.43910858410E+03  0.54712993866E+03  0.00000000000E+00 0. -1.
<mgrwt>
<rscale>  3 0.34951369E+03</rscale>
<asrwt>0</asrwt>
<pdfrwt beam="1">  1       21 0.16472654E-01 0.34951369E+03</pdfrwt>
<pdfrwt beam="2">  1       21 0.16441172E+00 0.34951369E+03</pdfrwt>
<totfact> 0.70233622E+03</totfact>
</mgrwt>
</event>
<event>
 4    0  0.1525083E-001  0.3561142E+03  0.7546771E-02  0.1060133E+00
         21   -1    0    0  503  501  0.00000000000E+00  0.00000000000E+00  0.10063512308E+04  0.10063512308E+04  0.00000000000E+00 0.  1.
         21   -1    0    0  501  502 -0.00000000000E+00 -0.00000000000E+00 -0.11815219807E+03  0.11815219807E+03  0.00000000000E+00 0. -1.
         25    1    1    2    0    0 -0.21947793077E+03 -0.25104133339E+03  0.46702379860E+03  0.58730617366E+03  0.12500000000E+03 0.  0.
         21    1    1    2  503  502  0.21947793077E+03  0.25104133339E+03  0.42117523417E+03  0.53719725525E+03  0.00000000000E+00 0. -1.
<mgrwt>
<rscale>  3 0.35611419E+03</rscale>
<asrwt>0</asrwt>
<pdfrwt beam="1">  1       21 0.15482326E+00 0.35611419E+03</pdfrwt>
<pdfrwt beam="2">  1       21 0.18177262E-01 0.35611419E+03</pdfrwt>
<totfact> 0.68770047E+03</totfact>
</mgrwt>
</event>
<event>
 4    0  0.1525083E-001  0.2775328E+03  0.7546771E-02  0.1097044E+00
         21   -1    0    0  503  501  0.00000000000E+00  0.00000000000E+00  0.83467616459E+02  0.83467616459E+02  0.00000000000E+00 0.  1.
         21   -1    0    0  501  502 -0.00000000000E+00 -0.00000000000E+00 -0.84307986586E+03  0.84307986586E+03  0.00000000000E+00 0.  1.
         25    1    1    2    0    0 -0.14384182365E+03  0.20176470200E+03 -0.46564144326E+03  0.54207602685E+03  0.12500000000E+03 0.  0.
         21    1    1    2  503  502  0.14384182365E+03 -0.20176470200E+03 -0.29397080615E+03  0.38447145547E+03  0.00000000000E+00 0.  1.
<mgrwt>
<rscale>  3 0.27753282E+03</rscale>
<asrwt>0</asrwt>
<pdfrwt beam="1">  1       21 0.12841171E-01 0.27753282E+03</pdfrwt>
<pdfrwt beam="2">  1       21 0.12970460E+00 0.27753282E+03</pdfrwt>
<totfact> 0.21563810E+04</totfact>
</mgrwt>
</event>
<event>
 4    0  0.1525083E-001  0.2781608E+03  0.7546771E-02  0.1096698E+00
         21   -1    0    0  502  501  0.00000000000E+00  0.00000000000E+00  0.10025027773E+04  0.10025027773E+04  0.00000000000E+00 0. -1.
         21   -1    0    0  503  502 -0.00000000000E+00 -0.00000000000E+00 -0.82644363348E+03  0.82644363348E+03  0.00000000000E+00 0. -1.
         25    1    1    2    0    0 -0.62215511077E+02 -0.24057778086E+03  0.96369787779E+03  0.10030389016E+04  0.12500000000E+03 0.  0.
         21    1    1    2  503  501  0.62215511077E+02  0.24057778086E+03 -0.78763873397E+03  0.82590750917E+03  0.00000000000E+00 0. -1.
<mgrwt>
<rscale>  3 0.27816081E+03</rscale>
<asrwt>0</asrwt>
<pdfrwt beam="1">  1       21 0.15423120E+00 0.27816081E+03</pdfrwt>
<pdfrwt beam="2">  1       21 0.12714517E+00 0.27816081E+03</pdfrwt>
<totfact> 0.11515566E+02</totfact>
</mgrwt>
</event>
<event>
 4    0  0.1525083E-001  0.2461226E+03  0.7546771E-02  0.1115780E+00
         21   -1    0    0  503  501  0.00000000000E+00  0.00000000000E+00  0.40761820417E+03  0.40761820417E+03  0.00000000000E+00 0. -1.
         21   -1    0    0  501  502 -0.00000000000E+00 -0.00000000000E+00 -0.13247328645E+03  0.13247328645E+03  0.00000000000E+00 0. -1.
         25    1    1    2    0    0 -0.20320503639E+03  0.60490008183E+02  0.19279108460E+03  0.31264153628E+03  0.12500000000E+03 0.  0.
         21    1    1    2  503  502  0.20320503639E+03 -0.60490008183E+02  0.82353833118E+02  0.22744995435E+03  0.00000000000E+00 0. -1.
<mgrwt>
<rscale>  3 0.24612259E+03</rscale>
<asrwt>0</asrwt>
<pdfrwt beam="1">  1       21 0.62710492E-01 0.24612259E+03</pdfrwt>
<pdfrwt beam="2">  1       21 0.20380506E-01 0.24612259E+03</pdfrwt>
<totfact> 0.51251258E+04</totfact>
</mgrwt>
</event>
<event>
 4    0  0.1525083E-001  0.3333064E+03  0.7546771E-02  0.1069683E+00
         21   -1    0    0  502  501  0.00000000000E+00  0.00000000000E+00  0.47787870624E+03  0.47787870624E+03  0.00000000000E+00 0. -1.
         21   -1    0    0  503  502 -0.00000000000E+00 -0.00000000000E+00 -0.13518908557E+04  0.13518908557E+04  0.00000000000E+00 0.  1.
         25    1    1    2    0    0 -0.30607175824E+03  0.42287587223E+02  0.39894180452E+03  0.51985356074E+03  0.12500000000E+03 0.  0.
         21    1    1    2  503  501  0.30607175824E+03 -0.42287587223E+02 -0.12729539540E+04  0.13099160012E+04  0.00000000000E+00 0.  1.
<mgrwt>
<rscale>  3 0.33330641E+03</rscale>
<asrwt>0</asrwt>
<pdfrwt beam="1">  1       21 0.73519801E-01 0.33330641E+03</pdfrwt>
<pdfrwt beam="2">  1       21 0.20798321E+00 0.33330641E+03</pdfrwt>
<totfact> 0.17196189E+02</totfact>
</mgrwt>
</event>
<event>
 4    0  0.1525083E-001  0.3193223E+03  0.7546771E-02  0.1075962E+00
         21   -1    0    0  503  501  0.00000000000E+00  0.00000000000E+00  0.11026529957E+03  0.11026529957E+03  0.00000000000E+00 0.  1.
         21   -1    0    0  501  502 -0.00000000000E+00 -0.00000000000E+00 -0.14231382437E+04  0.14231382437E+04  0.00000000000E+00 0. -1.
         25    1    1    2    0    0  0.26436510194E+03  0.12826860656E+03 -0.18749905715E+03  0.37030074126E+03  0.12500000000E+03 0.  0.
         21    1    1    2  503  502 -0.26436510194E+03 -0.12826860656E+03 -0.11253738870E+04  0.11631028020E+04  0.00000000000E+00 0. -1.
<mgrwt>
<rscale>  3 0.31932232E+03</rscale>
<asrwt>0</asrwt>
<pdfrwt beam="1">  1       21 0.16963893E-01 0.31932232E+03</pdfrwt>
<pdfrwt beam="2">  1       21 0.21894434E+00 0.31932232E+03</pdfrwt>
<totfact> 0.28905806E+03</totfact>
</mgrwt>
</event>
<event>
 4    0  0.1525083E-001  0.2830777E+03  0.7546771E-02  0.1094020E+00
         21   -1    0    0  503  501  0.00000000000E+00  0.00000000000E+00  0.89118305227E+03  0.89118305227E+03  0.00000000000E+00 0.  1.
         21   -1    0    0  501  502 -0.00000000000E+00 -0.00000000000E+00 -0.20040154255E+03  0.20040154255E+03  0.00000000000E+00 0.  1.
         25    1    1    2    0    0 -0.13271467887E+03 -0.21655203590E+03  0.77413845657E+03  0.82427138746E+03  0.12500000000E+03 0.  0.
         21    1    1    2  503  502  0.13271467887E+03  0.21655203590E+03 -0.83356946849E+02  0.26731320736E+03  0.00000000000E+00 0.  1.
<mgrwt>
<rscale>  3 0.28307768E+03</rscale>
<asrwt>0</asrwt>
<pdfrwt beam="1">  1       21 0.13710508E+00 0.28307768E+03</pdfrwt>
<pdfrwt beam="2">  1       21 0.30831007E-01 0.28307768E+03</pdfrwt>
<totfact> 0.35722983E+03</totfact>
</mgrwt>
</event>
<event>
 4    0  0.1525083E-001  0.2734030E+03  0.7546771E-02  0.1099348E+00
         21   -1    0    0  502  501  0.00000000000E+00  0.00000000000E+00  0.26260277863E+03  0.26260277863E+03  0.00000000000E+00 0. -1.
         21   -1    0    0  503  502 -0.00000000000E+00 -0.00000000000E+00 -0.35618238405E+03  0.35618238405E+03  0.00000000000E+00 0. -1.
         25    1    1    2    0    0  0.11229663132E+03 -0.21567025713E+03  0.11674720905E+03  0.29728623250E+03  0.12500000000E+03 0.  0.
         21    1    1    2  503  501 -0.11229663132E+03  0.21567025713E+03 -0.21032681448E+03  0.32149893018E+03  0.00000000000E+00 0. -1.
<mgrwt>
<rscale>  3 0.27340299E+03</rscale>
<asrwt>0</asrwt>
<pdfrwt beam="1">  1       21 0.40400428E-01 0.27340299E+03</pdfrwt>
<pdfrwt beam="2">  1       21 0.54797290E-01 0.27340299E+03</pdfrwt>
<totfact> 0.17778185E+04</totfact>
</mgrwt>
</event>
<event>
 4    0  0.1525083E-001  0.2446425E+03  0.7546771E-02  0.1116738E+00
         21   -1    0    0  503  501  0.00000000000E+00  0.00000000000E+00  0.38331537316E+03  0.38331537316E+03  0.00000000000E+00 0. -1.
         21   -1    0    0  501  502 -0.00000000000E+00 -0.00000000000E+00 -0.19991110703E+03  0.19991110703E+03  0.00000000000E+00 0. -1.
         25    1    1    2    0    0  0.54629701405E+02 -0.20307769554E+03  0.26224177176E+03  0.35863728411E+03  0.12500000000E+03 0.  0.
         21    1    1    2  503  502 -0.54629701405E+02  0.20307769554E+03 -0.78837505623E+02  0.22458919607E+03  0.00000000000E+00 0. -1.
<mgrwt>
<rscale>  3 0.24464250E+03</rscale>
<asrwt>0</asrwt>
<pdfrwt beam="1">  1       21 0.58971596E-01 0.24464250E+03</pdfrwt>
<pdfrwt beam="2">  1       21 0.30755555E-01 0.24464250E+03</pdfrwt>
<totfact> 0.26567553E+04</totfact>
</mgrwt>
</event>
<event>
 4    0  0.1525083E-001  0.2393793E+03  0.7546771E-02  0.1120207E+00
         21   -1    0    0  503  501  0.00000000000E+00  0.00000000000E+00  0.43280345650E+03  0.43280345650E+03  0.00000000000E+00 0.  1.
         21   -1    0    0  501  502 -0.00000000000E+00 -0.00000000000E+00 -0.12682761246E+03  0.12682761246E+03  0.00000000000E+00 0.  1.
         25    1    1    2    0    0  0.70252791177E+02 -0.19168199610E+03  0.25388143088E+03  0.34893870986E+03  0.12500000000E+03 0.  0.
         21    1    1    2  503  502 -0.70252791177E+02  0.19168199610E+03  0.52094413172E+02  0.21069235910E+03  0.00000000000E+00 0.  1.
<mgrwt>
<rscale>  3 0.23937929E+03</rscale>
<asrwt>0</asrwt>
<pdfrwt beam="1">  1       21 0.66585146E-01 0.23937929E+03</pdfrwt>
<pdfrwt beam="2">  1       21 0.19511941E-01 0.23937929E+03</pdfrwt>
<totfact> 0.48917528E+04</totfact>
</mgrwt>
</event>
<event>
 4    0  0.1525083E-001  0.2935393E+03  0.7546771E-02  0.1088516E+00
         21   -1    0    0  502  501  0.00000000000E+00  0.00000000000E+00  0.11124700159E+03  0.11124700159E+03  0.00000000000E+00 0. -1.
         21   -1    0    0  503  502 -0.00000000000E+00 -0.00000000000E+00 -0.70362536827E+03  0.70362536827E+03  0.00000000000E+00 0. -1.
         25    1    1    2    0    0  0.13938110422E+02 -0.26522826014E+03 -0.32681250349E+03  0.43928545769E+03  0.12500000000E+03 0.  0.
         21    1    1    2  503  501 -0.13938110422E+02  0.26522826014E+03 -0.26556586319E+03  0.37558691217E+03  0.00000000000E+00 0. -1.
<mgrwt>
<rscale>  3 0.29353927E+03</rscale>
<asrwt>0</asrwt>
<pdfrwt beam="1">  1       21 0.17114923E-01 0.29353927E+03</pdfrwt>
<pdfrwt beam="2">  1       21 0.10825006E+00 0.29353927E+03</pdfrwt>
<totfact> 0.19844740E+04</totfact>
</mgrwt>
</event>
<event>
 4    0  0.1525083E-001  0.2400204E+03  0.7546771E-02  0.1119779E+00
         21   -1    0    0  502  501  0.00000000000E+00  0.00000000000E+00  0.64724421028E+03  0.64724421028E+03  0.00000000000E+00 0. -1.
         21   -1    0    0  503  502 -0.00000000000E+00 -0.00000000000E+00 -0.12828334818E+03  0.12828334818E+03  0.00000000000E+00 0. -1.
         25    1    1    2    0    0 -0.59606818206E+01  0.20481519855E+03  0.51768649358E+03  0.57062167933E+03  0.12500000000E+03 0.  0.
         21    1    1    2  503  501  0.59606818206E+01 -0.20481519855E+03  0.12743685123E+01  0.20490587912E+03  0.00000000000E+00 0. -1.
<mgrwt>
<rscale>  3 0.24002041E+03</rscale>
<asrwt>0</asrwt>
<pdfrwt beam="1">  1       21 0.99576031E-01 0.24002041E+03</pdfrwt>
<pdfrwt beam="2">  1       21 0.19735900E-01 0.24002041E+03</pdfrwt>
<totfact> 0.19089996E+04</totfact>
</mgrwt>
</event>
<event>
 4    0  0.1525083E-001  0.3186385E+03  0.7546771E-02  0.1076278E+00
         21   -1    0    0  503  501  0.00000000000E+00  0.00000000000E+00  0.11519715520E+04  0.11519715520E+04  0.00000000000E+00 0.  1.
         21   -1    0    0  501  502 -0.00000000000E+00 -0.00000000000E+00 -0.29980594663E+03  0.29980594663E+03  0.00000000000E+00 0. -1.
         25    1    1    2    0    0 -0.41008653760E+02 -0.29021334286E+03  0.10505792770E+04  0.10978375615E+04  0.12500000000E+03 0.  0.
         21    1    1    2  503  502  0.41008653760E+02  0.29021334286E+03 -0.19841367161E+03  0.35393993720E+03  0.00000000000E+00 0. -1.
<mgrwt>
<rscale>  3 0.31863850E+03</rscale>
<asrwt>0</asrwt>
<pdfrwt beam="1">  1       21 0.17722639E+00 0.31863850E+03</pdfrwt>
<pdfrwt beam="2">  1       21 0.46123992E-01 0.31863850E+03</pdfrwt>
<totfact> 0.76780930E+02</totfact>
</mgrwt>
</event>
<event>
 4    0  0.1525083E-001  0.2367746E+03  0.7546771E-02  0.1121960E+00
         21   -1    0    0  503  501  0.00000000000E+00  0.00000000000E+00  0.80770672219E+02  0.80770672219E+02  0.00000000000E+00 0. -1.
         21   -1    0    0  501  502 -0.00000000000E+00 -0.00000000000E+00 -0.66175568739E+03  0.66175568739E+03  0.00000000000E+00 0.  1.
         25    1    1    2    0    0 -0.18732226046E+03  0.73127233370E+02 -0.19277827947E+03  0.30532881711E+03  0.12500000000E+03 0.  0.
         21    1    1    2  503  502  0.18732226046E+03 -0.73127233370E+02 -0.38820673569E+03  0.43719754249E+03  0.00000000000E+00 0.  1.
<mgrwt>
<rscale>  3 0.23677462E+03</rscale>
<asrwt>0</asrwt>
<pdfrwt beam="1">  1       21 0.12426258E-01 0.23677462E+03</pdfrwt>
<pdfrwt beam="2">  1       21 0.10180856E+00 0.23677462E+03</pdfrwt>
<totfact> 0.42416787E+04</totfact>
</mgrwt>
</event>
<event>
 4    0  0.1525083E-001  0.2604847E+03  0.7546771E-02  0.1106852E+00
         21   -1    0    0  502  501  0.00000000000E+00  0.00000000000E+00  0.85387375823E+03  0.85387375823E+03  0.00000000000E+00 0.  1.
         21   -1    0    0  503  502 -0.00000000000E+00 -0.00000000000E+00 -0.38129013564E+03  0.38129013564E+03  0.00000000000E+00 0. -1.
         25    1    1    2    0    0  0.21007715373E+03 -0.89971409485E+02  0.79691369507E+03  0.83840545229E+03  0.12500000000E+03 0.  0.
         21    1    1    2  503  501 -0.21007715373E+03  0.89971409485E+02 -0.32433007248E+03  0.39675844157E+03  0.00000000000E+00 0. -1.
<mgrwt>
<rscale>  3 0.26048467E+03</rscale>
<asrwt>0</asrwt>
<pdfrwt beam="1">  1       21 0.13136519E+00 0.26048467E+03</pdfrwt>
<pdfrwt beam="2">  1       21 0.58660021E-01 0.26048467E+03</pdfrwt>
<totfact> 0.10782292E+03</totfact>
</mgrwt>
</event>
<event>
 4    0  0.1525083E-001  0.3721785E+03  0.7546771E-02  0.1053863E+00
         21   -1    0    0  502  501  0.00000000000E+00  0.00000000000E+00  0.17133753004E+04  0.17133753004E+04  0.00000000000E+00 0. -1.
         21   -1    0    0  503  502 -0.00000000000E+00 -0.00000000000E+00 -0.11026552374E+03  0.11026552374E+03  0.00000000000E+00 0. -1.
         25    1    1    2    0    0  0.37891033027E+02  0.34850554990E+03  0.13246603726E+04  0.13759512896E+04  0.12500000000E+03 0.  0.
         21    1    1    2  503  501 -0.37891033027E+02 -0.34850554990E+03  0.27844940407E+03  0.44768953453E+03  0.00000000000E+00 0. -1.
<mgrwt>
<rscale>  3 0.37217852E+03</rscale>
<asrwt>0</asrwt>
<pdfrwt beam="1">  1       21 0.26359618E+00 0.37217852E+03</pdfrwt>
<pdfrwt beam="2">  1       21 0.16963928E-01 0.37217852E+03</pdfrwt>
<totfact> 0.14893436E+03</totfact>
</mgrwt>
</event>
<event>
 4    0  0.1525083E-001  0.2792714E+03  0.7546771E-02  0.1096088E+00
         21   -1    0    0  503  501  0.00000000000E+00  0.00000000000E+00  0.14056389885E+04  0.14056389885E+04  0.00000000000E+00 0.  1.
         21   -1    0    0  501  502 -0.00000000000E+00 -0.00000000000E+00 -0.88088613736E+02  0.88088613736E+02  0.00000000000E+00 0.  1.
         25    1    1    2    0    0  0.14754598333E+03  0.20148869554E+03  0.11717000005E+04  0.12045220641E+04  0.12500000000E+03 0.  0.
         21    1    1    2  503  502 -0.14754598333E+03 -0.20148869554E+03  0.14585037422E+03  0.28920553814E+03  0.00000000000E+00 0.  1.
<mgrwt>
<rscale>  3 0.27927139E+03</rscale>
<asrwt>0</asrwt>
<pdfrwt beam="1">  1       21 0.21625214E+00 0.27927139E+03</pdfrwt>
<pdfrwt beam="2">  1       21 0.13552095E-01 0.27927139E+03</pdfrwt>
<totfact> 0.46626296E+03</totfact>
</mgrwt>
</event>
<event>
 4    0  0.1525083E-001  0.2480408E+03  0.7546771E-02  0.1114549E+00
         21   -1    0    0  502  501  0.00000000000E+00  0.00000000000E+00  0.18501093432E+03  0.18501093432E+03  0.00000000000E+00 0. -1.
         21   -1    0    0  503  502 -0.00000000000E+00 -0.00000000000E+00 -0.29057429979E+03  0.29057429979E+03  0.00000000000E+00 0. -1.
         25    1    1    2    0    0  0.21385588754E+03  0.12840554624E+02 -0.37942903453E+02  0.25092605366E+03  0.12500000000E+03 0.  0.
         21    1    1    2  503  501 -0.21385588754E+03 -0.12840554624E+02 -0.67620462013E+02  0.22465918046E+03  0.00000000000E+00 0. -1.
<mgrwt>
<rscale>  3 0.24804076E+03</rscale>
<asrwt>0</asrwt>
<pdfrwt beam="1">  1       21 0.28463221E-01 0.24804076E+03</pdfrwt>
<pdfrwt beam="2">  1       21 0.44703738E-01 0.24804076E+03</pdfrwt>
<totfact> 0.55342777E+04</totfact>
</mgrwt>
</event>
<event>
 4    0  0.1525083E-001  0.3148921E+03  0.7546771E-02  0.1078024E+00
         21   -1    0    0  503  501  0.00000000000E+00  0.00000000000E+00  0.39204785028E+03  0.39204785028E+03  0.00000000000E+00 0. -1.
         21   -1    0    0  501  502 -0.00000000000E+00 -0.00000000000E+00 -0.65311243305E+03  0.65311243305E+03  0.00000000000E+00 0. -1.
         25    1    1    2    0    0 -0.11873465669E+03  0.26350353917E+03  0.28667867890E+03  0.42584234030E+03  0.12500000000E+03 0.  0.
         21    1    1    2  503  502  0.11873465669E+03 -0.26350353917E+03 -0.54774326167E+03  0.61931794303E+03  0.00000000000E+00 0. -1.
<mgrwt>
<rscale>  3 0.31489210E+03</rscale>
<asrwt>0</asrwt>
<pdfrwt beam="1">  1       21 0.60315055E-01 0.31489210E+03</pdfrwt>
<pdfrwt beam="2">  1       21 0.10047883E+00 0.31489210E+03</pdfrwt>
<totfact> 0.19047193E+03</totfact>
</mgrwt>
</event>
<event>
 4    0  0.1525083E-001  0.2420375E+03  0.7546771E-02  0.1118443E+00
         21   -1    0    0  503  501  0.00000000000E+00  0.00000000000E+00  0.94540358991E+03  0.94540358991E+03  0.00000000000E+00 0.  1.
         21   -1    0    0  501  502 -0.00000000000E+00 -0.00000000000E+00 -0.23944396182E+03  0.23944396182E+03  0.00000000000E+00 0. -1.
         25    1    1    2    0    0  0.18480899293E+03  0.93823106418E+02  0.88094932388E+03  0.91359391986E+03  0.12500000000E+03 0.  0.
         21    1    1    2  503  502 -0.18480899293E+03 -0.93823106418E+02 -0.17498969580E+03  0.27125363186E+03  0.00000000000E+00 0. -1.
<mgrwt>
<rscale>  3 0.24203747E+03</rscale>
<asrwt>0</asrwt>
<pdfrwt beam="1">  1       21 0.14544670E+00 0.24203747E+03</pdfrwt>
<pdfrwt beam="2">  1       21 0.36837533E-01 0.24203747E+03</pdfrwt>
<totfact> 0.22077288E+03</totfact>
</mgrwt>
</event>
<event>
 4    0  0.1525083E-001  0.2376006E+03  0.7546771E-02  0.1121402E+00
         21   -1    0    0  502  501  0.00000000000E+00  0.00000000000E+00  0.34068948741E+03  0.34068948741E+03  0.00000000000E+00 0. -1.
         21   -1    0    0  503  502 -0.00000000000E+00 -0.00000000000E+00 -0.19082603462E+03  0.19082603462E+03  0.00000000000E+00 0. -1.
         25    1    1    2    0    0  0.17010545043E+02  0.20134474456E+03  0.21374590867E+03  0.31959564809E+03  0.12500000000E+03 0.  0.
         21    1    1    2  503  501 -0.17010545043E+02 -0.20134474456E+03 -0.63882455883E+02  0.21191987395E+03  0.00000000000E+00 0. -1.
<mgrwt>
<rscale>  3 0.23760064E+03</rscale>
<asrwt>0</asrwt>
<pdfrwt beam="1">  1       21 0.52413767E-01 0.23760064E+03</pdfrwt>
<pdfrwt beam="2">  1       21 0.29357852E-01 0.23760064E+03</pdfrwt>
<totfact> 0.37537722E+04</totfact>
</mgrwt>
</event>
<event>
 4    0  0.1525083E-001  0.2540701E+03  0.7546771E-02  0.1110759E+00
         21   -1    0    0  502  501  0.00000000000E+00  0.00000000000E+00  0.11801985942E+03  0.11801985942E+03  0.00000000000E+00 0. -1.
         21   -1    0    0  503  502 -0.00000000000E+00 -0.00000000000E+00 -0.53341996240E+03  0.53341996240E+03  0.00000000000E+00 0. -1.
         25    1    1    2    0    0  0.11058183209E+03  0.19156796038E+03 -0.11626921797E+03  0.27941037217E+03  0.12500000000E+03 0.  0.
         21    1    1    2  503  501 -0.11058183209E+03 -0.19156796038E+03 -0.29913088501E+03  0.37202944964E+03  0.00000000000E+00 0. -1.
<mgrwt>
<rscale>  3 0.25407012E+03</rscale>
<asrwt>0</asrwt>
<pdfrwt beam="1">  1       21 0.18156901E-01 0.25407012E+03</pdfrwt>
<pdfrwt beam="2">  1       21 0.82064611E-01 0.25407012E+03</pdfrwt>
<totfact> 0.34803775E+04</totfact>
</mgrwt>
</event>
<event>
 4    0  0.1525083E-001  0.2925837E+03  0.7546771E-02  0.1089008E+00
         21   -1    0    0  502  501  0.00000000000E+00  0.00000000000E+00  0.89814843650E+03  0.89814843650E+03  0.00000000000E+00 0. -1.
         21   -1    0    0  503  502 -0.00000000000E+00 -0.00000000000E+00 -0.94209772380E+02  0.94209772380E+02  0.00000000000E+00 0. -1.
         25    1    1    2    0    0  0.17722566702E+03 -0.19639567553E+03  0.56326034218E+03  0.63471837179E+03  0.12500000000E+03 0.  0.
         21    1    1    2  503  501 -0.17722566702E+03  0.19639567553E+03  0.24067832194E+03  0.35763983709E+03  0.00000000000E+00 0. -1.
<mgrwt>
<rscale>  3 0.29258366E+03</rscale>
<asrwt>0</asrwt>
<pdfrwt beam="1">  1       21 0.13817668E+00 0.29258366E+03</pdfrwt>
<pdfrwt beam="2">  1       21 0.14493812E-01 0.29258366E+03</pdfrwt>
<totfact> 0.14588039E+04</totfact>
</mgrwt>
</event>
<event>
 4    0  0.1525083E-001  0.2551575E+03  0.7546771E-02  0.1110088E+00
         21   -1    0    0  502  501  0.00000000000E+00  0.00000000000E+00  0.69441738552E+03  0.69441738552E+03  0.00000000000E+00 0. -1.
         21   -1    0    0  503  502 -0.00000000000E+00 -0.00000000000E+00 -0.10967861324E+03  0.10967861324E+03  0.00000000000E+00 0. -1.
         25    1    1    2    0    0  0.22099628763E+03 -0.25318168394E+02  0.50854429701E+03  0.56896631782E+03  0.12500000000E+03 0.  0.
         21    1    1    2  503  501 -0.22099628763E+03  0.25318168394E+02  0.76194475273E+02  0.23512968094E+03  0.00000000000E+00 0. -1.
<mgrwt>
<rscale>  3 0.25515754E+03</rscale>
<asrwt>0</asrwt>
<pdfrwt beam="1">  1       21 0.10683344E+00 0.25515754E+03</pdfrwt>
<pdfrwt beam="2">  1       21 0.16873633E-01 0.25515754E+03</pdfrwt>
<totfact> 0.21409434E+04</totfact>
</mgrwt>
</event>
<event>
 4    0  0.1525083E-001  0.2446078E+03  0.7546771E-02  0.1116761E+00
         21   -1    0    0  503  501  0.00000000000E+00  0.00000000000E+00  0.90243463841E+03  0.90243463841E+03  0.00000000000E+00 0.  1.
         21   -1    0    0  501  502 -0.00000000000E+00 -0.00000000000E+00 -0.57645417511E+02  0.57645417511E+02  0.00000000000E+00 0.  1.
         25    1    1    2    0    0 -0.15543385906E+03  0.14159193254E+03  0.49020478603E+03  0.54784458759E+03  0.12500000000E+03 0.  0.
         21    1    1    2  503  502  0.15543385906E+03 -0.14159193254E+03  0.35458443487E+03  0.41223546833E+03  0.00000000000E+00 0.  1.
<mgrwt>
<rscale>  3 0.24460777E+03</rscale>
<asrwt>0</asrwt>
<pdfrwt beam="1">  1       21 0.13883609E+00 0.24460777E+03</pdfrwt>
<pdfrwt beam="2">  1       21 0.88685264E-02 0.24460777E+03</pdfrwt>
<totfact> 0.35625774E+04</totfact>
</mgrwt>
</event>
<event>
 4    0  0.1525083E-001  0.2939678E+03  0.7546771E-02  0.1088296E+00
         21   -1    0    0  502  501  0.00000000000E+00  0.00000000000E+00  0.56142514915E+03  0.56142514915E+03  0.00000000000E+00 0. -1.
         21   -1    0    0  503  502 -0.00000000000E+00 -0.00000000000E+00 -0.19009613943E+03  0.19009613943E+03  0.00000000000E+00 0.  1.
         25    1    1    2    0    0 -0.21784610514E+03 -0.15275849522E+03  0.38582997250E+03  0.48505860581E+03  0.12500000000E+03 0.  0.
         21    1    1    2  503  501  0.21784610514E+03  0.15275849522E+03 -0.14500962787E+02  0.26646268277E+03  0.00000000000E+00 0.  1.
<mgrwt>
<rscale>  3 0.29396783E+03</rscale>
<asrwt>0</asrwt>
<pdfrwt beam="1">  1       21 0.86373099E-01 0.29396783E+03</pdfrwt>
<pdfrwt beam="2">  1       21 0.29245560E-01 0.29396783E+03</pdfrwt>
<totfact> 0.12225287E+04</totfact>
</mgrwt>
</event>
<event>
 4    0  0.1525083E-001  0.2821958E+03  0.7546771E-02  0.1094496E+00
         21   -1    0    0  503  501  0.00000000000E+00  0.00000000000E+00  0.84037790383E+03  0.84037790383E+03  0.00000000000E+00 0. -1.
         21   -1    0    0  501  502 -0.00000000000E+00 -0.00000000000E+00 -0.91492775183E+02  0.91492775183E+02  0.00000000000E+00 0. -1.
         25    1    1    2    0    0 -0.20188138378E+03  0.15249064347E+03  0.51539081710E+03  0.58759014952E+03  0.12500000000E+03 0.  0.
         21    1    1    2  503  502  0.20188138378E+03 -0.15249064347E+03  0.23349431155E+03  0.34428052949E+03  0.00000000000E+00 0. -1.
<mgrwt>
<rscale>  3 0.28219584E+03</rscale>
<asrwt>0</asrwt>
<pdfrwt beam="1">  1       21 0.12928890E+00 0.28219584E+03</pdfrwt>
<pdfrwt beam="2">  1       21 0.14075812E-01 0.28219584E+03</pdfrwt>
<totfact> 0.18354950E+04</totfact>
</mgrwt>
</event>
<event>
 4    0  0.1525083E-001  0.2662110E+03  0.7546771E-02  0.1103468E+00
         21   -1    0    0  502  501  0.00000000000E+00  0.00000000000E+00  0.50762622469E+03  0.50762622469E+03  0.00000000000E+00 0. -1.
         21   -1    0    0  503  502 -0.00000000000E+00 -0.00000000000E+00 -0.18616438931E+03  0.18616438931E+03  0.00000000000E+00 0. -1.
         25    1    1    2    0    0 -0.23430697447E+03  0.18535321617E+02  0.36799450137E+03  0.45418968446E+03  0.12500000000E+03 0.  0.
         21    1    1    2  503  501  0.23430697447E+03 -0.18535321617E+02 -0.46532665978E+02  0.23960092954E+03  0.00000000000E+00 0. -1.
<mgrwt>
<rscale>  3 0.26621104E+03</rscale>
<asrwt>0</asrwt>
<pdfrwt beam="1">  1       21 0.78096342E-01 0.26621104E+03</pdfrwt>
<pdfrwt beam="2">  1       21 0.28640675E-01 0.26621104E+03</pdfrwt>
<totfact> 0.16256371E+04</totfact>
</mgrwt>
</event>
<event>
 4    0  0.1525083E-001  0.3339563E+03  0.7546771E-02  0.1069400E+00
         21   -1    0    0  503  501  0.00000000000E+00  0.00000000000E+00  0.39287020742E+03  0.39287020742E+03  0.00000000000E+00 0.  1.
         21   -1    0    0  501  502 -0.00000000000E+00 -0.00000000000E+00 -0.27667502672E+03  0.27667502672E+03  0.00000000000E+00 0.  1.
         25    1    1    2    0    0 -0.30945595786E+03  0.11781540934E+02  0.13286663128E+03  0.35941666109E+03  0.12500000000E+03 0.  0.
         21    1    1    2  503  502  0.30945595786E+03 -0.11781540934E+02 -0.16671450584E+02  0.31012857305E+03  0.00000000000E+00 0.  1.
<mgrwt>
<rscale>  3 0.33395628E+03</rscale>
<asrwt>0</asrwt>
<pdfrwt beam="1">  1       21 0.60441570E-01 0.33395628E+03</pdfrwt>
<pdfrwt beam="2">  1       21 0.42565389E-01 0.33395628E+03</pdfrwt>
<totfact> 0.12606929E+04</totfact>
</mgrwt>
</event>
<event>
 4    0  0.1525083E-001  0.5245089E+03  0.7546771E-02  0.1007573E+00
         21   -1    0    0  502  501  0.00000000000E+00  0.00000000000E+00  0.42946150466E+03  0.42946150466E+03  0.00000000000E+00 0.  1.
         21   -1    0    0  503  502 -0.00000000000E+00 -0.00000000000E+00 -0.79777462170E+03  0.79777462170E+03  0.00000000000E+00 0.  1.
         25    1    1    2    0    0  0.78022733306E+01  0.50933654573E+03  0.10152939971E+03  0.53424508542E+03  0.12500000000E+03 0.  0.
         21    1    1    2  503  501 -0.78022733306E+01 -0.50933654573E+03 -0.46984251675E+03  0.69299104095E+03  0.00000000000E+00 0.  1.
<mgrwt>
<rscale>  3 0.52450891E+03</rscale>
<asrwt>0</asrwt>
<pdfrwt beam="1">  1       21 0.66071002E-01 0.52450891E+03</pdfrwt>
<pdfrwt beam="2">  1       21 0.12273455E+00 0.52450891E+03</pdfrwt>
<totfact> 0.86331508E+02</totfact>
</mgrwt>
</event>
<event>
 4    0  0.1525083E-001  0.2869842E+03  0.7546771E-02  0.1091934E+00
         21   -1    0    0  502  501  0.00000000000E+00  0.00000000000E+00  0.12810433953E+04  0.12810433953E+04  0.00000000000E+00 0.  1.
         21   -1    0    0  503  502 -0.00000000000E+00 -0.00000000000E+00 -0.77004564062E+02  0.77004564062E+02  0.00000000000E+00 0.  1.
         25    1    1    2    0    0 -0.56472006159E+02  0.25208306253E+03  0.96254943884E+03  0.10044209178E+04  0.12500000000E+03 0.  0.
         21    1    1    2  503  501  0.56472006159E+02 -0.25208306253E+03  0.24148939243E+03  0.35362704160E+03  0.00000000000E+00 0.  1.
<mgrwt>
<rscale>  3 0.28698425E+03</rscale>
<asrwt>0</asrwt>
<pdfrwt beam="1">  1       21 0.19708358E+00 0.28698425E+03</pdfrwt>
<pdfrwt beam="2">  1       21 0.11846857E-01 0.28698425E+03</pdfrwt>
<totfact> 0.78664019E+03</totfact>
</mgrwt>
</event>
<event>
 4    0  0.1525083E-001  0.2608885E+03  0.7546771E-02  0.1106611E+00
         21   -1    0    0  503  501  0.00000000000E+00  0.00000000000E+00  0.90305546451E+03  0.90305546451E+03  0.00000000000E+00 0. -1.
         21   -1    0    0  501  502 -0.00000000000E+00 -0.00000000000E+00 -0.78626577041E+02  0.78626577041E+02  0.00000000000E+00 0.  1.
         25    1    1    2    0    0  0.20171509820E+03 -0.10839211923E+03  0.62781208960E+03  0.67986090651E+03  0.12500000000E+03 0.  0.
         21    1    1    2  503  502 -0.20171509820E+03  0.10839211923E+03  0.19661679786E+03  0.30182113504E+03  0.00000000000E+00 0.  1.
<mgrwt>
<rscale>  3 0.26088854E+03</rscale>
<asrwt>0</asrwt>
<pdfrwt beam="1">  1       21 0.13893160E+00 0.26088854E+03</pdfrwt>
<pdfrwt beam="2">  1       21 0.12096397E-01 0.26088854E+03</pdfrwt>
<totfact> 0.20289812E+04</totfact>
</mgrwt>
</event>
<event>
 4    0  0.1525083E-001  0.2446441E+03  0.7546771E-02  0.1116737E+00
         21   -1    0    0  502  501  0.00000000000E+00  0.00000000000E+00  0.17865962655E+03  0.17865962655E+03  0.00000000000E+00 0. -1.
         21   -1    0    0  503  502 -0.00000000000E+00 -0.00000000000E+00 -0.36774475680E+03  0.36774475680E+03  0.00000000000E+00 0.  1.
         25    1    1    2    0    0 -0.20847200065E+03 -0.27661816264E+02  0.25476765522E+02  0.24596710495E+03  0.12500000000E+03 0.  0.
         21    1    1    2  503  501  0.20847200065E+03  0.27661816264E+02 -0.21456189577E+03  0.30043727840E+03  0.00000000000E+00 0.  1.
<mgrwt>
<rscale>  3 0.24464413E+03</rscale>
<asrwt>0</asrwt>
<pdfrwt beam="1">  1       21 0.27486097E-01 0.24464413E+03</pdfrwt>
<pdfrwt beam="2">  1       21 0.56576116E-01 0.24464413E+03</pdfrwt>
<totfact> 0.36169945E+04</totfact>
</mgrwt>
</event>
<event>
 4    0  0.1525083E-001  0.2433402E+03  0.7546771E-02  0.1117587E+00
         21   -1    0    0  502  501  0.00000000000E+00  0.00000000000E+00  0.59243532056E+02  0.59243532056E+02  0.00000000000E+00 0. -1.
         21   -1    0    0  503  502 -0.00000000000E+00 -0.00000000000E+00 -0.10103009538E+04  0.10103009538E+04  0.00000000000E+00 0. -1.
         25    1    1    2    0    0  0.69329382506E+02 -0.19693370923E+03 -0.30260002083E+03  0.38830557776E+03  0.12500000000E+03 0.  0.
         21    1    1    2  503  501 -0.69329382506E+02  0.19693370923E+03 -0.64845740096E+03  0.68123890814E+03  0.00000000000E+00 0. -1.
<mgrwt>
<rscale>  3 0.24334019E+03</rscale>
<asrwt>0</asrwt>
<pdfrwt beam="1">  1       21 0.91143899E-02 0.24334019E+03</pdfrwt>
<pdfrwt beam="2">  1       21 0.15543091E+00 0.24334019E+03</pdfrwt>
<totfact> 0.25209430E+04</totfact>
</mgrwt>
</event>
<event>
 4    0  0.1525083E-001  0.2488419E+03  0.7546771E-02  0.1114039E+00
         21   -1    0    0  502  501  0.00000000000E+00  0.00000000000E+00  0.78627648989E+02  0.78627648989E+02  0.00000000000E+00 0.  1.
         21   -1    0    0  503  502 -0.00000000000E+00 -0.00000000000E+00 -0.89494938413E+03  0.89494938413E+03  0.00000000000E+00 0.  1.
         25    1    1    2    0    0 -0.10298338802E+03 -0.18892252095E+03 -0.19527919886E+03  0.31631671255E+03  0.12500000000E+03 0.  0.
         21    1    1    2  503  501  0.10298338802E+03  0.18892252095E+03 -0.62104253629E+03  0.65726032058E+03  0.00000000000E+00 0.  1.
<mgrwt>
<rscale>  3 0.24884191E+03</rscale>
<asrwt>0</asrwt>
<pdfrwt beam="1">  1       21 0.12096561E-01 0.24884191E+03</pdfrwt>
<pdfrwt beam="2">  1       21 0.13768452E+00 0.24884191E+03</pdfrwt>
<totfact> 0.20899982E+04</totfact>
</mgrwt>
</event>
<event>
 4    0  0.1525083E-001  0.2411200E+03  0.7546771E-02  0.1119049E+00
         21   -1    0    0  503  501  0.00000000000E+00  0.00000000000E+00  0.10902919318E+03  0.10902919318E+03  0.00000000000E+00 0. -1.
         21   -1    0    0  501  502 -0.00000000000E+00 -0.00000000000E+00 -0.10474003896E+04  0.10474003896E+04  0.00000000000E+00 0.  1.
         25    1    1    2    0    0 -0.11122015770E+03  0.17362001384E+03 -0.52355458126E+02  0.24673857964E+03  0.12500000000E+03 0.  0.
         21    1    1    2  503  502  0.11122015770E+03 -0.17362001384E+03 -0.88601573829E+03  0.90969100314E+03  0.00000000000E+00 0.  1.
<mgrwt>
<rscale>  3 0.24111995E+03</rscale>
<asrwt>0</asrwt>
<pdfrwt beam="1">  1       21 0.16773723E-01 0.24111995E+03</pdfrwt>
<pdfrwt beam="2">  1       21 0.16113852E+00 0.24111995E+03</pdfrwt>
<totfact> 0.76166567E+03</totfact>
</mgrwt>
</event>
<event>
 4    0  0.1525083E-001  0.2859722E+03  0.7546771E-02  0.1092471E+00
         21   -1    0    0  502  501  0.00000000000E+00  0.00000000000E+00  0.24804511022E+03  0.24804511022E+03  0.00000000000E+00 0.  1.
         21   -1    0    0  503  502 -0.00000000000E+00 -0.00000000000E+00 -0.31738419451E+03  0.31738419451E+03  0.00000000000E+00 0.  1.
         25    1    1    2    0    0  0.10016816320E+03  0.23689960886E+03  0.34514638642E+02  0.28804747157E+03  0.12500000000E+03 0.  0.
         21    1    1    2  503  501 -0.10016816320E+03 -0.23689960886E+03 -0.10385372294E+03  0.27738183316E+03  0.00000000000E+00 0.  1.
<mgrwt>
<rscale>  3 0.28597218E+03</rscale>
<asrwt>0</asrwt>
<pdfrwt beam="1">  1       21 0.38160786E-01 0.28597218E+03</pdfrwt>
<pdfrwt beam="2">  1       21 0.48828337E-01 0.28597218E+03</pdfrwt>
<totfact> 0.25343958E+04</totfact>
</mgrwt>
</event>
<event>
 4    0  0.1525083E-001  0.5167632E+03  0.7546771E-02  0.1009494E+00
         21   -1    0    0  502  501  0.00000000000E+00  0.00000000000E+00  0.14770905900E+04  0.14770905900E+04  0.00000000000E+00 0. -1.
         21   -1    0    0  503  502 -0.00000000000E+00 -0.00000000000E+00 -0.25769081576E+03  0.25769081576E+03  0.00000000000E+00 0.  1.
         25    1    1    2    0    0  0.21734885446E+03  0.45186140252E+03  0.11058986630E+04  0.12206785427E+04  0.12500000000E+03 0.  0.
         21    1    1    2  503  501 -0.21734885446E+03 -0.45186140252E+03  0.11350111125E+03  0.51410286313E+03  0.00000000000E+00 0.  1.
<mgrwt>
<rscale>  3 0.51676325E+03</rscale>
<asrwt>0</asrwt>
<pdfrwt beam="1">  1       21 0.22724470E+00 0.51676325E+03</pdfrwt>
<pdfrwt beam="2">  1       21 0.39644742E-01 0.51676325E+03</pdfrwt>
<totfact> 0.43998967E+02</totfact>
</mgrwt>
</event>
<event>
 4    0  0.1525083E-001  0.2839899E+03  0.7546771E-02  0.1093529E+00
         21   -1    0    0  502  501  0.00000000000E+00  0.00000000000E+00  0.83860585824E+03  0.83860585824E+03  0.00000000000E+00 0.  1.
         21   -1    0    0  503  502 -0.00000000000E+00 -0.00000000000E+00 -0.10489247638E+03  0.10489247638E+03  0.00000000000E+00 0.  1.
         25    1    1    2    0    0 -0.10722531909E+03 -0.23136122781E+03  0.57988823731E+03  0.64569393257E+03  0.12500000000E+03 0.  0.
         21    1    1    2  503  501  0.10722531909E+03  0.23136122781E+03  0.15382514454E+03  0.29780440205E+03  0.00000000000E+00 0.  1.
<mgrwt>
<rscale>  3 0.28398994E+03</rscale>
<asrwt>0</asrwt>
<pdfrwt beam="1">  1       21 0.12901628E+00 0.28398994E+03</pdfrwt>
<pdfrwt beam="2">  1       21 0.16137305E-01 0.28398994E+03</pdfrwt>
<totfact> 0.14343106E+04</totfact>
</mgrwt>
</event>
<event>
 4    0  0.1525083E-001  0.2406165E+03  0.7546771E-02  0.1119383E+00
         21   -1    0    0  503  501  0.00000000000E+00  0.00000000000E+00  0.10064981784E+04  0.10064981784E+04  0.00000000000E+00 0.  1.
         21   -1    0    0  501  502 -0.00000000000E+00 -0.00000000000E+00 -0.49476345560E+02  0.49476345560E+02  0.00000000000E+00 0.  1.
         25    1    1    2    0    0  0.35585605527E+02 -0.20249687907E+03  0.52674454251E+03  0.57909941669E+03  0.12500000000E+03 0.  0.
         21    1    1    2  503  502 -0.35585605527E+02  0.20249687907E+03  0.43027729036E+03  0.47687510729E+03  0.00000000000E+00 0.  1.
<mgrwt>
<rscale>  3 0.24061654E+03</rscale>
<asrwt>0</asrwt>
<pdfrwt beam="1">  1       21 0.15484586E+00 0.24061654E+03</pdfrwt>
<pdfrwt beam="2">  1       21 0.76117463E-02 0.24061654E+03</pdfrwt>
<totfact> 0.34981714E+04</totfact>
</mgrwt>
</event>
<event>
 4    0  0.1525083E-001  0.3655030E+03  0.7546771E-02  0.1056426E+00
         21   -1    0    0  502  501  0.00000000000E+00  0.00000000000E+00  0.25172342177E+03  0.25172342177E+03  0.00000000000E+00 0. -1.
         21   -1    0    0  503  502 -0.00000000000E+00 -0.00000000000E+00 -0.52449721274E+03  0.52449721274E+03  0.00000000000E+00 0. -1.
         25    1    1    2    0    0 -0.13892003123E+03  0.31411567375E+03 -0.55213673998E+02  0.36964980911E+03  0.12500000000E+03 0.  0.
         21    1    1    2  503  501  0.13892003123E+03 -0.31411567375E+03 -0.21756011697E+03  0.40657082541E+03  0.00000000000E+00 0. -1.
<mgrwt>
<rscale>  3 0.36550298E+03</rscale>
<asrwt>0</asrwt>
<pdfrwt beam="1">  1       21 0.38726680E-01 0.36550298E+03</pdfrwt>
<pdfrwt beam="2">  1       21 0.80691879E-01 0.36550298E+03</pdfrwt>
<totfact> 0.79193594E+03</totfact>
</mgrwt>
</event>
<event>
 4    0  0.1525083E-001  0.2593060E+03  0.7546771E-02  0.1107561E+00
         21   -1    0    0  503  501  0.00000000000E+00  0.00000000000E+00  0.27161423385E+03  0.27161423385E+03  0.00000000000E+00 0. -1.
         21   -1    0    0  501  502 -0.00000000000E+00 -0.00000000000E+00 -0.31489310346E+03  0.31489310346E+03  0.00000000000E+00 0.  1.
         25    1    1    2    0    0 -0.62306551359E+02  0.21847770362E+03  0.13992878755E+03  0.29465179264E+03  0.12500000000E+03 0.  0.
         21    1    1    2  503  502  0.62306551359E+02 -0.21847770362E+03 -0.18320765716E+03  0.29185554468E+03  0.00000000000E+00 0.  1.
<mgrwt>
<rscale>  3 0.25930602E+03</rscale>
<asrwt>0</asrwt>
<pdfrwt beam="1">  1       21 0.41786805E-01 0.25930602E+03</pdfrwt>
<pdfrwt beam="2">  1       21 0.48445093E-01 0.25930602E+03</pdfrwt>
<totfact> 0.21661719E+04</totfact>
</mgrwt>
</event>
<event>
 4    0  0.1525083E-001  0.2403355E+03  0.7546771E-02  0.1119570E+00
         21   -1    0    0  502  501  0.00000000000E+00  0.00000000000E+00  0.57433161270E+03  0.57433161270E+03  0.00000000000E+00 0.  1.
         21   -1    0    0  503  502 -0.00000000000E+00 -0.00000000000E+00 -0.94088873119E+02  0.94088873119E+02  0.00000000000E+00 0.  1.
         25    1    1    2    0    0 -0.19457381203E+03 -0.65400276011E+02  0.35254063235E+03  0.42666856210E+03  0.12500000000E+03 0.  0.
         21    1    1    2  503  501  0.19457381203E+03  0.65400276011E+02  0.12770210724E+03  0.24175192372E+03  0.00000000000E+00 0.  1.
<mgrwt>
<rscale>  3 0.24033552E+03</rscale>
<asrwt>0</asrwt>
<pdfrwt beam="1">  1       21 0.88358707E-01 0.24033552E+03</pdfrwt>
<pdfrwt beam="2">  1       21 0.14475212E-01 0.24033552E+03</pdfrwt>
<totfact> 0.44838383E+04</totfact>
</mgrwt>
</event>
<event>
 4    0  0.1525083E-001  0.2448607E+03  0.7546771E-02  0.1116596E+00
         21   -1    0    0  503  501  0.00000000000E+00  0.00000000000E+00  0.75146100801E+02  0.75146100801E+02  0.00000000000E+00 0.  1.
         21   -1    0    0  501  502 -0.00000000000E+00 -0.00000000000E+00 -0.99429781034E+03  0.99429781034E+03  0.00000000000E+00 0.  1.
         25    1    1    2    0    0 -0.13240481691E+02  0.21013434603E+03 -0.18836593622E+03  0.30893118921E+03  0.12500000000E+03 0.  0.
         21    1    1    2  503  502  0.13240481691E+02 -0.21013434603E+03 -0.73078577332E+03  0.76051272194E+03  0.00000000000E+00 0.  1.
<mgrwt>
<rscale>  3 0.24486068E+03</rscale>
<asrwt>0</asrwt>
<pdfrwt beam="1">  1       21 0.11560939E-01 0.24486068E+03</pdfrwt>
<pdfrwt beam="2">  1       21 0.15296889E+00 0.24486068E+03</pdfrwt>
<totfact> 0.17219868E+04</totfact>
</mgrwt>
</event>
<event>
 4    0  0.1525083E-001  0.2831643E+03  0.7546771E-02  0.1093973E+00
         21   -1    0    0  502  501  0.00000000000E+00  0.00000000000E+00  0.17540442028E+03  0.17540442028E+03  0.00000000000E+00 0. -1.
         21   -1    0    0  503  502 -0.00000000000E+00 -0.00000000000E+00 -0.43437257726E+03  0.43437257726E+03  0.00000000000E+00 0.  1.
         25    1    1    2    0    0  0.22891561080E+03  0.11024826366E+03 -0.20616958318E+03  0.35026837359E+03  0.12500000000E+03 0.  0.
         21    1    1    2  503  501 -0.22891561080E+03 -0.11024826366E+03 -0.52798573797E+02  0.25950862395E+03  0.00000000000E+00 0.  1.
<mgrwt>
<rscale>  3 0.28316433E+03</rscale>
<asrwt>0</asrwt>
<pdfrwt beam="1">  1       21 0.26985295E-01 0.28316433E+03</pdfrwt>
<pdfrwt beam="2">  1       21 0.66826551E-01 0.28316433E+03</pdfrwt>
<totfact> 0.25683850E+04</totfact>
</mgrwt>
</event>
<event>
 4    0  0.1525083E-001  0.2885646E+03  0.7546771E-02  0.1091101E+00
         21   -1    0    0  503  501  0.00000000000E+00  0.00000000000E+00  0.22867080592E+03  0.22867080592E+03  0.00000000000E+00 0. -1.
         21   -1    0    0  501  502 -0.00000000000E+00 -0.00000000000E+00 -0.53543386752E+03  0.53543386752E+03  0.00000000000E+00 0. -1.
         25    1    1    2    0    0  0.14876584336E+03  0.21333835081E+03  0.78699313370E+02  0.29910384484E+03  0.12500000000E+03 0.  0.
         21    1    1    2  503  502 -0.14876584336E+03 -0.21333835081E+03 -0.38546237497E+03  0.46500082859E+03  0.00000000000E+00 0. -1.
<mgrwt>
<rscale>  3 0.28856460E+03</rscale>
<asrwt>0</asrwt>
<pdfrwt beam="1">  1       21 0.35180124E-01 0.28856460E+03</pdfrwt>
<pdfrwt beam="2">  1       21 0.82374440E-01 0.28856460E+03</pdfrwt>
<totfact> 0.94783962E+03</totfact>
</mgrwt>
</event>
<event>
 4    0  0.1525083E-001  0.2573540E+03  0.7546771E-02  0.1108744E+00
         21   -1    0    0  503  501  0.00000000000E+00  0.00000000000E+00  0.43244916911E+02  0.43244916911E+02  0.00000000000E+00 0. -1.
         21   -1    0    0  501  502 -0.00000000000E+00 -0.00000000000E+00 -0.13822917547E+04  0.13822917547E+04  0.00000000000E+00 0. -1.
         25    1    1    2    0    0  0.96807724735E+02  0.20306236040E+03 -0.59616167440E+03  0.64933797040E+03  0.12500000000E+03 0.  0.
         21    1    1    2  503  502 -0.96807724735E+02 -0.20306236040E+03 -0.74288516342E+03  0.77619870124E+03  0.00000000000E+00 0. -1.
<mgrwt>
<rscale>  3 0.25735395E+03</rscale>
<asrwt>0</asrwt>
<pdfrwt beam="1">  1       21 0.66530645E-02 0.25735395E+03</pdfrwt>
<pdfrwt beam="2">  1       21 0.21266026E+00 0.25735395E+03</pdfrwt>
<totfact> 0.17613653E+04</totfact>
</mgrwt>
</event>
<event>
 4    0  0.1525083E-001  0.2591300E+03  0.7546771E-02  0.1107667E+00
         21   -1    0    0  503  501  0.00000000000E+00  0.00000000000E+00  0.82064068378E+02  0.82064068378E+02  0.00000000000E+00 0.  1.
         21   -1    0    0  501  502 -0.00000000000E+00 -0.00000000000E+00 -0.71992105348E+03  0.71992105348E+03  0.00000000000E+00 0.  1.
         25    1    1    2    0    0 -0.13972922826E+03  0.17888294929E+03 -0.33764846611E+03  0.42562290052E+03  0.12500000000E+03 0.  0.
         21    1    1    2  503  502  0.13972922826E+03 -0.17888294929E+03 -0.30020851899E+03  0.37636222134E+03  0.00000000000E+00 0.  1.
<mgrwt>
<rscale>  3 0.25913002E+03</rscale>
<asrwt>0</asrwt>
<pdfrwt beam="1">  1       21 0.12625241E-01 0.25913002E+03</pdfrwt>
<pdfrwt beam="2">  1       21 0.11075709E+00 0.25913002E+03</pdfrwt>
<totfact> 0.33270143E+04</totfact>
</mgrwt>
</event>
<event>
 4    0  0.1525083E-001  0.2627044E+03  0.7546771E-02  0.1105529E+00
         21   -1    0    0  503  501  0.00000000000E+00  0.00000000000E+00  0.38673712059E+03  0.38673712059E+03  0.00000000000E+00 0. -1.
         21   -1    0    0  501  502 -0.00000000000E+00 -0.00000000000E+00 -0.34934355388E+03  0.34934355388E+03  0.00000000000E+00 0. -1.
         25    1    1    2    0    0 -0.20618292840E+03  0.10429387053E+03  0.29164782234E+03  0.39252014428E+03  0.12500000000E+03 0.  0.
         21    1    1    2  503  502  0.20618292840E+03 -0.10429387053E+03 -0.25425425563E+03  0.34356053018E+03  0.00000000000E+00 0. -1.
<mgrwt>
<rscale>  3 0.26270442E+03</rscale>
<asrwt>0</asrwt>
<pdfrwt beam="1">  1       21 0.59498018E-01 0.26270442E+03</pdfrwt>
<pdfrwt beam="2">  1       21 0.53745162E-01 0.26270442E+03</pdfrwt>
<totfact> 0.82693903E+03</totfact>
</mgrwt>
</event>
<event>
 4    0  0.1525083E-001  0.2438693E+03  0.7546771E-02  0.1117242E+00
         21   -1    0    0  503  501  0.00000000000E+00  0.00000000000E+00  0.50657934283E+03  0.50657934283E+03  0.00000000000E+00 0.  1.
         21   -1    0    0  501  502 -0.00000000000E+00 -0.00000000000E+00 -0.31311950333E+03  0.31311950333E+03  0.00000000000E+00 0. -1.
         25    1    1    2    0    0 -0.10327015584E+03  0.18216067914E+03  0.43581869912E+03  0.49940982831E+03  0.12500000000E+03 0.  0.
         21    1    1    2  503  502  0.10327015584E+03 -0.18216067914E+03 -0.24235885962E+03  0.32028901784E+03  0.00000000000E+00 0. -1.
<mgrwt>
<rscale>  3 0.24386931E+03</rscale>
<asrwt>0</asrwt>
<pdfrwt beam="1">  1       21 0.77935284E-01 0.24386931E+03</pdfrwt>
<pdfrwt beam="2">  1       21 0.48172231E-01 0.24386931E+03</pdfrwt>
<totfact> 0.57958317E+03</totfact>
</mgrwt>
</event>
<event>
 4    0  0.1525083E-001  0.2413519E+03  0.7546771E-02  0.1118896E+00
         21   -1    0    0  503  501  0.00000000000E+00  0.00000000000E+00  0.16657631386E+03  0.16657631386E+03  0.00000000000E+00 0.  1.
         21   -1    0    0  501  502 -0.00000000000E+00 -0.00000000000E+00 -0.46590441757E+03  0.46590441757E+03  0.00000000000E+00 0.  1.
         25    1    1    2    0    0  0.20600096940E+03  0.13759780282E+02  0.30594500977E+02  0.24328328022E+03  0.12500000000E+03 0.  0.
         21    1    1    2  503  502 -0.20600096940E+03 -0.13759780282E+02 -0.32992260468E+03  0.38919745121E+03  0.00000000000E+00 0.  1.
<mgrwt>
<rscale>  3 0.24135188E+03</rscale>
<asrwt>0</asrwt>
<pdfrwt beam="1">  1       21 0.25627126E-01 0.24135188E+03</pdfrwt>
<pdfrwt beam="2">  1       21 0.71677601E-01 0.24135188E+03</pdfrwt>
<totfact> 0.24747387E+04</totfact>
</mgrwt>
</event>
<event>
 4    0  0.1525083E-001  0.2642901E+03  0.7546771E-02  0.1104593E+00
         21   -1    0    0  502  501  0.00000000000E+00  0.00000000000E+00  0.95884648575E+03  0.95884648575E+03  0.00000000000E+00 0. -1.
         21   -1    0    0  503  502 -0.00000000000E+00 -0.00000000000E+00 -0.13669195715E+03  0.13669195715E+03  0.00000000000E+00 0.  1.
         25    1    1    2    0    0 -0.17040663874E+01  0.23285479056E+03  0.82119403979E+03  0.86267543626E+03  0.12500000000E+03 0.  0.
         21    1    1    2  503  501  0.17040663874E+01 -0.23285479056E+03  0.96048880613E+00  0.23286300665E+03  0.00000000000E+00 0.  1.
<mgrwt>
<rscale>  3 0.26429010E+03</rscale>
<asrwt>0</asrwt>
<pdfrwt beam="1">  1       21 0.14751484E+00 0.26429010E+03</pdfrwt>
<pdfrwt beam="2">  1       21 0.21029532E-01 0.26429010E+03</pdfrwt>
<totfact> 0.62376801E+03</totfact>
</mgrwt>
</event>
<event>
 4    0  0.1525083E-001  0.2635347E+03  0.7546771E-02  0.1105038E+00
         21   -1    0    0  503  501  0.00000000000E+00  0.00000000000E+00  0.84756887286E+03  0.84756887286E+03  0.00000000000E+00 0.  1.
         21   -1    0    0  501  502 -0.00000000000E+00 -0.00000000000E+00 -0.94143266275E+02  0.94143266275E+02  0.00000000000E+00 0. -1.
         25    1    1    2    0    0 -0.23171886678E+03 -0.11484611765E+02  0.62093081541E+03  0.67454103437E+03  0.12500000000E+03 0.  0.
         21    1    1    2  503  502  0.23171886678E+03  0.11484611765E+02  0.13249479117E+03  0.26717110476E+03  0.00000000000E+00 0. -1.
<mgrwt>
<rscale>  3 0.26353468E+03</rscale>
<asrwt>0</asrwt>
<pdfrwt beam="1">  1       21 0.13039521E+00 0.26353468E+03</pdfrwt>
<pdfrwt beam="2">  1       21 0.14483580E-01 0.26353468E+03</pdfrwt>
<totfact> 0.17202165E+04</totfact>
</mgrwt>
</event>
<event>
 4    0  0.1525083E-001  0.4605541E+03  0.7546771E-02  0.1024621E+00
         21   -1    0    0  503  501  0.00000000000E+00  0.00000000000E+00  0.28832833302E+03  0.28832833302E+03  0.00000000000E+00 0.  1.
         21   -1    0    0  501  502 -0.00000000000E+00 -0.00000000000E+00 -0.10051988783E+04  0.10051988783E+04  0.00000000000E+00 0.  1.
         25    1    1    2    0    0  0.81033202695E+02 -0.43579657702E+03 -0.11812431248E+02  0.46070551333E+03  0.12500000000E+03 0.  0.
         21    1    1    2  503  502 -0.81033202695E+02  0.43579657702E+03 -0.70505811407E+03  0.83282169802E+03  0.00000000000E+00 0.  1.
<mgrwt>
<rscale>  3 0.46055405E+03</rscale>
<asrwt>0</asrwt>
<pdfrwt beam="1">  1       21 0.44358205E-01 0.46055405E+03</pdfrwt>
<pdfrwt beam="2">  1       21 0.15464598E+00 0.46055405E+03</pdfrwt>
<totfact> 0.11335010E+03</totfact>
</mgrwt>
</event>
<event>
 4    0  0.1525083E-001  0.2601232E+03  0.7546771E-02  0.1107069E+00
         21   -1    0    0  503  501  0.00000000000E+00  0.00000000000E+00  0.70962300896E+03  0.70962300896E+03  0.00000000000E+00 0.  1.
         21   -1    0    0  501  502 -0.00000000000E+00 -0.00000000000E+00 -0.18258011612E+03  0.18258011612E+03  0.00000000000E+00 0.  1.
         25    1    1    2    0    0  0.12584701096E+03  0.19026725406E+03  0.59896681440E+03  0.65301251358E+03  0.12500000000E+03 0.  0.
         21    1    1    2  503  502 -0.12584701096E+03 -0.19026725406E+03 -0.71923921562E+02  0.23919061150E+03  0.00000000000E+00 0.  1.
<mgrwt>
<rscale>  3 0.26012324E+03</rscale>
<asrwt>0</asrwt>
<pdfrwt beam="1">  1       21 0.10917277E+00 0.26012324E+03</pdfrwt>
<pdfrwt beam="2">  1       21 0.28089249E-01 0.26012324E+03</pdfrwt>
<totfact> 0.77044369E+03</totfact>
</mgrwt>
</event>
<event>
 4    0  0.1525083E-001  0.4009380E+03  0.7546771E-02  0.1043455E+00
         21   -1    0    0  503  501  0.00000000000E+00  0.00000000000E+00  0.50297745099E+03  0.50297745099E+03  0.00000000000E+00 0. -1.
         21   -1    0    0  501  502 -0.00000000000E+00 -0.00000000000E+00 -0.33332126970E+03  0.33332126970E+03  0.00000000000E+00 0.  1.
         25    1    1    2    0    0  0.19708546105E+03  0.32601167732E+03 -0.37456301267E+02  0.40268383034E+03  0.12500000000E+03 0.  0.
         21    1    1    2  503  502 -0.19708546105E+03 -0.32601167732E+03  0.20711248255E+03  0.43361489036E+03  0.00000000000E+00 0.  1.
<mgrwt>
<rscale>  3 0.40093802E+03</rscale>
<asrwt>0</asrwt>
<pdfrwt beam="1">  1       21 0.77381146E-01 0.40093802E+03</pdfrwt>
<pdfrwt beam="2">  1       21 0.51280195E-01 0.40093802E+03</pdfrwt>
<totfact> 0.47903526E+03</totfact>
</mgrwt>
</event>
<event>
 4    0  0.1525083E-001  0.2466057E+03  0.7546771E-02  0.1115469E+00
         21   -1    0    0  502  501  0.00000000000E+00  0.00000000000E+00  0.37357104003E+03  0.37357104003E+03  0.00000000000E+00 0.  1.
         21   -1    0    0  503  502 -0.00000000000E+00 -0.00000000000E+00 -0.26301885499E+03  0.26301885499E+03  0.00000000000E+00 0.  1.
         25    1    1    2    0    0 -0.11285581917E+03 -0.18014695076E+03  0.27385698677E+03  0.36852680906E+03  0.12500000000E+03 0.  0.
         21    1    1    2  503  501  0.11285581917E+03  0.18014695076E+03 -0.16330480173E+03  0.26806308596E+03  0.00000000000E+00 0.  1.
<mgrwt>
<rscale>  3 0.24660568E+03</rscale>
<asrwt>0</asrwt>
<pdfrwt beam="1">  1       21 0.57472468E-01 0.24660568E+03</pdfrwt>
<pdfrwt beam="2">  1       21 0.40464439E-01 0.24660568E+03</pdfrwt>
<totfact> 0.16209879E+04</totfact>
</mgrwt>
</event>
<event>
 4    0  0.1525083E-001  0.2673651E+03  0.7546771E-02  0.1102797E+00
         21   -1    0    0  503  501  0.00000000000E+00  0.00000000000E+00  0.85397451280E+03  0.85397451280E+03  0.00000000000E+00 0.  1.
         21   -1    0    0  501  502 -0.00000000000E+00 -0.00000000000E+00 -0.84034617553E+02  0.84034617553E+02  0.00000000000E+00 0.  1.
         25    1    1    2    0    0  0.13925008002E+03 -0.19096731762E+03  0.56546889553E+03  0.62549114542E+03  0.12500000000E+03 0.  0.
         21    1    1    2  503  502 -0.13925008002E+03  0.19096731762E+03  0.20447099972E+03  0.31251798494E+03  0.00000000000E+00 0.  1.
<mgrwt>
<rscale>  3 0.26736511E+03</rscale>
<asrwt>0</asrwt>
<pdfrwt beam="1">  1       21 0.13138069E+00 0.26736511E+03</pdfrwt>
<pdfrwt beam="2">  1       21 0.12928403E-01 0.26736511E+03</pdfrwt>
<totfact> 0.20712995E+04</totfact>
</mgrwt>
</event>
<event>
 4    0  0.1525083E-001  0.2535459E+03  0.7546771E-02  0.1111084E+00
         21   -1    0    0  502  501  0.00000000000E+00  0.00000000000E+00  0.35968916027E+03  0.35968916027E+03  0.00000000000E+00 0. -1.
         21   -1    0    0  503  502 -0.00000000000E+00 -0.00000000000E+00 -0.15649976788E+03  0.15649976788E+03  0.00000000000E+00 0. -1.
         25    1    1    2    0    0  0.19259446464E+03 -0.10755425680E+03  0.98365354836E+02  0.27195824863E+03  0.12500000000E+03 0.  0.
         21    1    1    2  503  501 -0.19259446464E+03  0.10755425680E+03  0.10482403755E+03  0.24423067951E+03  0.00000000000E+00 0. -1.
<mgrwt>
<rscale>  3 0.25354594E+03</rscale>
<asrwt>0</asrwt>
<pdfrwt beam="1">  1       21 0.55336794E-01 0.25354594E+03</pdfrwt>
<pdfrwt beam="2">  1       21 0.24076887E-01 0.25354594E+03</pdfrwt>
<totfact> 0.48764197E+04</totfact>
</mgrwt>
</event>
<event>
 4    0  0.1525083E-001  0.2455998E+03  0.7546771E-02  0.1116118E+00
         21   -1    0    0  503  501  0.00000000000E+00  0.00000000000E+00  0.56807766228E+02  0.56807766228E+02  0.00000000000E+00 0. -1.
         21   -1    0    0  501  502 -0.00000000000E+00 -0.00000000000E+00 -0.11687704152E+04  0.11687704152E+04  0.00000000000E+00 0. -1.
         25    1    1    2    0    0  0.13199530327E+03 -0.16514087742E+03 -0.87126639876E+03  0.90522064000E+03  0.12500000000E+03 0.  0.
         21    1    1    2  503  502 -0.13199530327E+03  0.16514087742E+03 -0.24069625020E+03  0.32035754141E+03  0.00000000000E+00 0. -1.
<mgrwt>
<rscale>  3 0.24559982E+03</rscale>
<asrwt>0</asrwt>
<pdfrwt beam="1">  1       21 0.87396571E-02 0.24559982E+03</pdfrwt>
<pdfrwt beam="2">  1       21 0.17981082E+00 0.24559982E+03</pdfrwt>
<totfact> 0.18114210E+04</totfact>
</mgrwt>
</event>
<event>
 4    0  0.1525083E-001  0.2463533E+03  0.7546771E-02  0.1115631E+00
         21   -1    0    0  502  501  0.00000000000E+00  0.00000000000E+00  0.50686445602E+03  0.50686445602E+03  0.00000000000E+00 0. -1.
         21   -1    0    0  503  502 -0.00000000000E+00 -0.00000000000E+00 -0.10666982702E+03  0.10666982702E+03  0.00000000000E+00 0. -1.
         25    1    1    2    0    0  0.61462399945E+02 -0.20319278613E+03  0.26516969276E+03  0.36194599169E+03  0.12500000000E+03 0.  0.
         21    1    1    2  503  501 -0.61462399945E+02  0.20319278613E+03  0.13502493624E+03  0.25158829135E+03  0.00000000000E+00 0. -1.
<mgrwt>
<rscale>  3 0.24635327E+03</rscale>
<asrwt>0</asrwt>
<pdfrwt beam="1">  1       21 0.77979146E-01 0.24635327E+03</pdfrwt>
<pdfrwt beam="2">  1       21 0.16410743E-01 0.24635327E+03</pdfrwt>
<totfact> 0.47305301E+04</totfact>
</mgrwt>
</event>
<event>
 4    0  0.1525083E-001  0.4497527E+03  0.7546771E-02  0.1027796E+00
         21   -1    0    0  502  501  0.00000000000E+00  0.00000000000E+00  0.38643265823E+03  0.38643265823E+03  0.00000000000E+00 0. -1.
         21   -1    0    0  503  502 -0.00000000000E+00 -0.00000000000E+00 -0.30094778142E+04  0.30094778142E+04  0.00000000000E+00 0.  1.
         25    1    1    2    0    0 -0.94757924152E+02  0.42151326521E+03  0.23358615677E+03  0.50679383340E+03  0.12500000000E+03 0.  0.
         21    1    1    2  503  501  0.94757924152E+02 -0.42151326521E+03 -0.28566313127E+04  0.28891166390E+04  0.00000000000E+00 0.  1.
<mgrwt>
<rscale>  3 0.44975271E+03</rscale>
<asrwt>0</asrwt>
<pdfrwt beam="1">  1       21 0.59451177E-01 0.44975271E+03</pdfrwt>
<pdfrwt beam="2">  1       21 0.46299659E+00 0.44975271E+03</pdfrwt>
<totfact> 0.63981182E+00</totfact>
</mgrwt>
</event>
<event>
 4    0  0.1525083E-001  0.3307498E+03  0.7546771E-02  0.1070806E+00
         21   -1    0    0  502  501  0.00000000000E+00  0.00000000000E+00  0.16192482141E+03  0.16192482141E+03  0.00000000000E+00 0.  1.
         21   -1    0    0  503  502 -0.00000000000E+00 -0.00000000000E+00 -0.69144252618E+03  0.69144252618E+03  0.00000000000E+00 0.  1.
         25    1    1    2    0    0  0.38606298455E+02 -0.30377617668E+03 -0.14323525966E+03  0.36043272800E+03  0.12500000000E+03 0.  0.
         21    1    1    2  503  501 -0.38606298455E+02  0.30377617668E+03 -0.38628244510E+03  0.49293461959E+03  0.00000000000E+00 0.  1.
<mgrwt>
<rscale>  3 0.33074977E+03</rscale>
<asrwt>0</asrwt>
<pdfrwt beam="1">  1       21 0.24911510E-01 0.33074977E+03</pdfrwt>
<pdfrwt beam="2">  1       21 0.10637578E+00 0.33074977E+03</pdfrwt>
<totfact> 0.10010767E+04</totfact>
</mgrwt>
</event>
<event>
 4    0  0.1525083E-001  0.2479336E+03  0.7546771E-02  0.1114618E+00
         21   -1    0    0  502  501  0.00000000000E+00  0.00000000000E+00  0.67037406276E+03  0.67037406276E+03  0.00000000000E+00 0.  1.
         21   -1    0    0  503  502 -0.00000000000E+00 -0.00000000000E+00 -0.28707471431E+03  0.28707471431E+03  0.00000000000E+00 0. -1.
         25    1    1    2    0    0  0.11427515626E+03 -0.18107249379E+03  0.60219915356E+03  0.65124103057E+03  0.12500000000E+03 0.  0.
         21    1    1    2  503  501 -0.11427515626E+03  0.18107249379E+03 -0.21889980511E+03  0.30620774651E+03  0.00000000000E+00 0. -1.
<mgrwt>
<rscale>  3 0.24793358E+03</rscale>
<asrwt>0</asrwt>
<pdfrwt beam="1">  1       21 0.10313447E+00 0.24793358E+03</pdfrwt>
<pdfrwt beam="2">  1       21 0.44165341E-01 0.24793358E+03</pdfrwt>
<totfact> 0.36020782E+03</totfact>
</mgrwt>
</event>
<event>
 4    0  0.1525083E-001  0.2731439E+03  0.7546771E-02  0.1099494E+00
         21   -1    0    0  502  501  0.00000000000E+00  0.00000000000E+00  0.16631417959E+04  0.16631417959E+04  0.00000000000E+00 0.  1.
         21   -1    0    0  503  502 -0.00000000000E+00 -0.00000000000E+00 -0.44550155897E+02  0.44550155897E+02  0.00000000000E+00 0. -1.
         25    1    1    2    0    0  0.23961753208E+03  0.39572765271E+02  0.11236937722E+04  0.11564148300E+04  0.12500000000E+03 0.  0.
         21    1    1    2  503  501 -0.23961753208E+03 -0.39572765271E+02  0.49489786783E+03  0.55127712180E+03  0.00000000000E+00 0. -1.
<mgrwt>
<rscale>  3 0.27314385E+03</rscale>
<asrwt>0</asrwt>
<pdfrwt beam="1">  1       21 0.25586792E+00 0.27314385E+03</pdfrwt>
<pdfrwt beam="2">  1       21 0.68538714E-02 0.27314385E+03</pdfrwt>
<totfact> 0.90121944E+03</totfact>
</mgrwt>
</event>
<event>
 4    0  0.1525083E-001  0.2539770E+03  0.7546771E-02  0.1110817E+00
         21   -1    0    0  503  501  0.00000000000E+00  0.00000000000E+00  0.14638997966E+03  0.14638997966E+03  0.00000000000E+00 0. -1.
         21   -1    0    0  501  502 -0.00000000000E+00 -0.00000000000E+00 -0.45054788987E+03  0.45054788987E+03  0.00000000000E+00 0. -1.
         25    1    1    2    0    0 -0.11393047063E+03 -0.18947081500E+03 -0.47839299397E+02  0.25844330218E+03  0.12500000000E+03 0.  0.
         21    1    1    2  503  502  0.11393047063E+03  0.18947081500E+03 -0.25631861082E+03  0.33849456735E+03  0.00000000000E+00 0. -1.
<mgrwt>
<rscale>  3 0.25397705E+03</rscale>
<asrwt>0</asrwt>
<pdfrwt beam="1">  1       21 0.22521535E-01 0.25397705E+03</pdfrwt>
<pdfrwt beam="2">  1       21 0.69315060E-01 0.25397705E+03</pdfrwt>
<totfact> 0.33939053E+04</totfact>
</mgrwt>
</event>
<event>
 4    0  0.1525083E-001  0.3003169E+03  0.7546771E-02  0.1085082E+00
         21   -1    0    0  502  501  0.00000000000E+00  0.00000000000E+00  0.14576084016E+03  0.14576084016E+03  0.00000000000E+00 0. -1.
         21   -1    0    0  503  502 -0.00000000000E+00 -0.00000000000E+00 -0.56500944199E+03  0.56500944199E+03  0.00000000000E+00 0. -1.
         25    1    1    2    0    0 -0.31314746189E+02 -0.27126481121E+03 -0.20371694156E+03  0.36289227521E+03  0.12500000000E+03 0.  0.
         21    1    1    2  503  501  0.31314746189E+02  0.27126481121E+03 -0.21553166027E+03  0.34787800694E+03  0.00000000000E+00 0. -1.
<mgrwt>
<rscale>  3 0.30031685E+03</rscale>
<asrwt>0</asrwt>
<pdfrwt beam="1">  1       21 0.22424744E-01 0.30031685E+03</pdfrwt>
<pdfrwt beam="2">  1       21 0.86924532E-01 0.30031685E+03</pdfrwt>
<totfact> 0.20078752E+04</totfact>
</mgrwt>
</event>
<event>
 4    0  0.1525083E-001  0.2944072E+03  0.7546771E-02  0.1088070E+00
         21   -1    0    0  502  501  0.00000000000E+00  0.00000000000E+00  0.72132209116E+03  0.72132209116E+03  0.00000000000E+00 0.  1.
         21   -1    0    0  503  502 -0.00000000000E+00 -0.00000000000E+00 -0.10921239653E+03  0.10921239653E+03  0.00000000000E+00 0.  1.
         25    1    1    2    0    0  0.17599444587E+02 -0.26597154035E+03  0.30586152927E+03  0.42453136023E+03  0.12500000000E+03 0.  0.
         21    1    1    2  503  501 -0.17599444587E+02  0.26597154035E+03  0.30624816536E+03  0.40600312746E+03  0.00000000000E+00 0.  1.
<mgrwt>
<rscale>  3 0.29440720E+03</rscale>
<asrwt>0</asrwt>
<pdfrwt beam="1">  1       21 0.11097263E+00 0.29440720E+03</pdfrwt>
<pdfrwt beam="2">  1       21 0.16801908E-01 0.29440720E+03</pdfrwt>
<totfact> 0.19317192E+04</totfact>
</mgrwt>
</event>
<event>
 4    0  0.1525083E-001  0.2517021E+03  0.7546771E-02  0.1112234E+00
         21   -1    0    0  502  501  0.00000000000E+00  0.00000000000E+00  0.12036500142E+03  0.12036500142E+03  0.00000000000E+00 0. -1.
         21   -1    0    0  503  502 -0.00000000000E+00 -0.00000000000E+00 -0.46763183102E+03  0.46763183102E+03  0.00000000000E+00 0. -1.
         25    1    1    2    0    0  0.49523182805E+02  0.21278256975E+03 -0.14618162001E+03  0.29107221381E+03  0.12500000000E+03 0.  0.
         21    1    1    2  503  501 -0.49523182805E+02 -0.21278256975E+03 -0.20108520959E+03  0.29692461862E+03  0.00000000000E+00 0. -1.
<mgrwt>
<rscale>  3 0.25170214E+03</rscale>
<asrwt>0</asrwt>
<pdfrwt beam="1">  1       21 0.18517692E-01 0.25170214E+03</pdfrwt>
<pdfrwt beam="2">  1       21 0.71943359E-01 0.25170214E+03</pdfrwt>
<totfact> 0.45215879E+04</totfact>
</mgrwt>
</event>
<event>
 4    0  0.1525083E-001  0.3783608E+03  0.7546771E-02  0.1051541E+00
         21   -1    0    0  503  501  0.00000000000E+00  0.00000000000E+00  0.11255030581E+03  0.11255030581E+03  0.00000000000E+00 0.  1.
         21   -1    0    0  501  502 -0.00000000000E+00 -0.00000000000E+00 -0.15450468218E+04  0.15450468218E+04  0.00000000000E+00 0. -1.
         25    1    1    2    0    0 -0.25053337036E+03  0.25448948107E+03 -0.34166119805E+03  0.50979333056E+03  0.12500000000E+03 0.  0.
         21    1    1    2  503  502  0.25053337036E+03 -0.25448948107E+03 -0.10908353180E+04  0.11478037971E+04  0.00000000000E+00 0. -1.
<mgrwt>
<rscale>  3 0.37836076E+03</rscale>
<asrwt>0</asrwt>
<pdfrwt beam="1">  1       21 0.17315431E-01 0.37836076E+03</pdfrwt>
<pdfrwt beam="2">  1       21 0.23769952E+00 0.37836076E+03</pdfrwt>
<totfact> 0.20534273E+03</totfact>
</mgrwt>
</event>
<event>
 4    0  0.1525083E-001  0.3216529E+03  0.7546771E-02  0.1074891E+00
         21   -1    0    0  503  501  0.00000000000E+00  0.00000000000E+00  0.12192865108E+04  0.12192865108E+04  0.00000000000E+00 0.  1.
         21   -1    0    0  501  502 -0.00000000000E+00 -0.00000000000E+00 -0.29341356629E+03  0.29341356629E+03  0.00000000000E+00 0.  1.
         25    1    1    2    0    0  0.26768173977E+03 -0.12720871315E+03  0.11154387448E+04  0.11608893849E+04  0.12500000000E+03 0.  0.
         21    1    1    2  503  502 -0.26768173977E+03  0.12720871315E+03 -0.18956580031E+03  0.35181069221E+03  0.00000000000E+00 0.  1.
<mgrwt>
<rscale>  3 0.32165287E+03</rscale>
<asrwt>0</asrwt>
<pdfrwt beam="1">  1       21 0.18758254E+00 0.32165287E+03</pdfrwt>
<pdfrwt beam="2">  1       21 0.45140549E-01 0.32165287E+03</pdfrwt>
<totfact> 0.67979634E+02</totfact>
</mgrwt>
</event>
<event>
 4    0  0.1525083E-001  0.2583787E+03  0.7546771E-02  0.1108121E+00
         21   -1    0    0  503  501  0.00000000000E+00  0.00000000000E+00  0.15655071687E+04  0.15655071687E+04  0.00000000000E+00 0.  1.
         21   -1    0    0  501  502 -0.00000000000E+00 -0.00000000000E+00 -0.23407496420E+03  0.23407496420E+03  0.00000000000E+00 0. -1.
         25    1    1    2    0    0  0.10873684388E+03  0.19826961252E+03  0.14971174847E+04  0.15192499147E+04  0.12500000000E+03 0.  0.
         21    1    1    2  503  502 -0.10873684388E+03 -0.19826961252E+03 -0.16568528019E+03  0.28033221816E+03  0.00000000000E+00 0. -1.
<mgrwt>
<rscale>  3 0.25837868E+03</rscale>
<asrwt>0</asrwt>
<pdfrwt beam="1">  1       21 0.24084725E+00 0.25837868E+03</pdfrwt>
<pdfrwt beam="2">  1       21 0.36011534E-01 0.25837868E+03</pdfrwt>
<totfact> 0.52018386E+02</totfact>
</mgrwt>
</event>
<event>
 4    0  0.1525083E-001  0.2925821E+03  0.7546771E-02  0.1089009E+00
         21   -1    0    0  503  501  0.00000000000E+00  0.00000000000E+00  0.25073078305E+03  0.25073078305E+03  0.00000000000E+00 0. -1.
         21   -1    0    0  501  502 -0.00000000000E+00 -0.00000000000E+00 -0.41318810377E+03  0.41318810377E+03  0.00000000000E+00 0.  1.
         25    1    1    2    0    0  0.25406498881E+03  0.73690231314E+02  0.81863639405E+02  0.30381890031E+03  0.12500000000E+03 0.  0.
         21    1    1    2  503  502 -0.25406498881E+03 -0.73690231314E+02 -0.24432096013E+03  0.36009998651E+03  0.00000000000E+00 0.  1.
<mgrwt>
<rscale>  3 0.29258207E+03</rscale>
<asrwt>0</asrwt>
<pdfrwt beam="1">  1       21 0.38573967E-01 0.29258207E+03</pdfrwt>
<pdfrwt beam="2">  1       21 0.63567400E-01 0.29258207E+03</pdfrwt>
<totfact> 0.14050890E+04</totfact>
</mgrwt>
</event>
<event>
 4    0  0.1525083E-001  0.3095708E+03  0.7546771E-02  0.1080552E+00
         21   -1    0    0  503  501  0.00000000000E+00  0.00000000000E+00  0.98713688458E+02  0.98713688458E+02  0.00000000000E+00 0. -1.
         21   -1    0    0  501  502 -0.00000000000E+00 -0.00000000000E+00 -0.94489121180E+03  0.94489121180E+03  0.00000000000E+00 0. -1.
         25    1    1    2    0    0  0.43396873484E+02  0.27986741133E+03 -0.31507279857E+03  0.44170683146E+03  0.12500000000E+03 0.  0.
         21    1    1    2  503  502 -0.43396873484E+02 -0.27986741133E+03 -0.53110472477E+03  0.60189806881E+03  0.00000000000E+00 0. -1.
<mgrwt>
<rscale>  3 0.30957076E+03</rscale>
<asrwt>0</asrwt>
<pdfrwt beam="1">  1       21 0.15186722E-01 0.30957076E+03</pdfrwt>
<pdfrwt beam="2">  1       21 0.14536787E+00 0.30957076E+03</pdfrwt>
<totfact> 0.11620267E+04</totfact>
</mgrwt>
</event>
<event>
 4    0  0.1525083E-001  0.2637165E+03  0.7546771E-02  0.1104931E+00
         21   -1    0    0  503  501  0.00000000000E+00  0.00000000000E+00  0.17875945732E+03  0.17875945732E+03  0.00000000000E+00 0.  1.
         21   -1    0    0  501  502 -0.00000000000E+00 -0.00000000000E+00 -0.43538545666E+03  0.43538545666E+03  0.00000000000E+00 0.  1.
         25    1    1    2    0    0 -0.32248866809E+01 -0.23218743170E+03  0.57380849105E+01  0.26377893955E+03  0.12500000000E+03 0.  0.
         21    1    1    2  503  502  0.32248866809E+01  0.23218743170E+03 -0.26236408425E+03  0.35036597443E+03  0.00000000000E+00 0.  1.
<mgrwt>
<rscale>  3 0.26371652E+03</rscale>
<asrwt>0</asrwt>
<pdfrwt beam="1">  1       21 0.27501455E-01 0.26371652E+03</pdfrwt>
<pdfrwt beam="2">  1       21 0.66982378E-01 0.26371652E+03</pdfrwt>
<totfact> 0.24831500E+04</totfact>
</mgrwt>
</event>
<event>
 4    0  0.1525083E-001  0.3455384E+03  0.7546771E-02  0.1064461E+00
         21   -1    0    0  502  501  0.00000000000E+00  0.00000000000E+00  0.85323035070E+03  0.85323035070E+03  0.00000000000E+00 0. -1.
         21   -1    0    0  503  502 -0.00000000000E+00 -0.00000000000E+00 -0.15658097636E+03  0.15658097636E+03  0.00000000000E+00 0. -1.
         25    1    1    2    0    0 -0.76466329791E+02 -0.31292918134E+03  0.56400083106E+03  0.66143307263E+03  0.12500000000E+03 0.  0.
         21    1    1    2  503  501  0.76466329791E+02  0.31292918134E+03  0.13264854328E+03  0.34837825443E+03  0.00000000000E+00 0. -1.
<mgrwt>
<rscale>  3 0.34553838E+03</rscale>
<asrwt>0</asrwt>
<pdfrwt beam="1">  1       21 0.13126620E+00 0.34553838E+03</pdfrwt>
<pdfrwt beam="2">  1       21 0.24089382E-01 0.34553838E+03</pdfrwt>
<totfact> 0.62630254E+03</totfact>
</mgrwt>
</event>
<event>
 4    0  0.1525083E-001  0.2483495E+03  0.7546771E-02  0.1114352E+00
         21   -1    0    0  503  501  0.00000000000E+00  0.00000000000E+00  0.29818689063E+03  0.29818689063E+03  0.00000000000E+00 0. -1.
         21   -1    0    0  501  502 -0.00000000000E+00 -0.00000000000E+00 -0.17969979755E+03  0.17969979755E+03  0.00000000000E+00 0. -1.
         25    1    1    2    0    0  0.20526297343E+03 -0.62606624721E+02  0.61521415333E+02  0.25585613587E+03  0.12500000000E+03 0.  0.
         21    1    1    2  503  502 -0.20526297343E+03  0.62606624721E+02  0.56965677744E+02  0.22203055231E+03  0.00000000000E+00 0. -1.
<mgrwt>
<rscale>  3 0.24834951E+03</rscale>
<asrwt>0</asrwt>
<pdfrwt beam="1">  1       21 0.45874906E-01 0.24834951E+03</pdfrwt>
<pdfrwt beam="2">  1       21 0.27646123E-01 0.24834951E+03</pdfrwt>
<totfact> 0.55513189E+04</totfact>
</mgrwt>
</event>
<event>
 4    0  0.1525083E-001  0.3524899E+03  0.7546771E-02  0.1061598E+00
         21   -1    0    0  502  501  0.00000000000E+00  0.00000000000E+00  0.54062234783E+03  0.54062234783E+03  0.00000000000E+00 0.  1.
         21   -1    0    0  503  502 -0.00000000000E+00 -0.00000000000E+00 -0.21517706731E+03  0.21517706731E+03  0.00000000000E+00 0.  1.
         25    1    1    2    0    0  0.32449726665E+03  0.57668209269E+02  0.17362617297E+03  0.39293147795E+03  0.12500000000E+03 0.  0.
         21    1    1    2  503  501 -0.32449726665E+03 -0.57668209269E+02  0.15181910754E+03  0.36286793719E+03  0.00000000000E+00 0.  1.
<mgrwt>
<rscale>  3 0.35248986E+03</rscale>
<asrwt>0</asrwt>
<pdfrwt beam="1">  1       21 0.83172668E-01 0.35248986E+03</pdfrwt>
<pdfrwt beam="2">  1       21 0.33104164E-01 0.35248986E+03</pdfrwt>
<totfact> 0.10188054E+04</totfact>
</mgrwt>
</event>
<event>
 4    0  0.1525083E-001  0.2933750E+03  0.7546771E-02  0.1088600E+00
         21   -1    0    0  502  501  0.00000000000E+00  0.00000000000E+00  0.23302361211E+03  0.23302361211E+03  0.00000000000E+00 0. -1.
         21   -1    0    0  503  502 -0.00000000000E+00 -0.00000000000E+00 -0.53065122865E+03  0.53065122865E+03  0.00000000000E+00 0.  1.
         25    1    1    2    0    0  0.13898206097E+03  0.22611478658E+03  0.78161150455E+02  0.30360842449E+03  0.12500000000E+03 0.  0.
         21    1    1    2  503  501 -0.13898206097E+03 -0.22611478658E+03 -0.37578876700E+03  0.46006641627E+03  0.00000000000E+00 0.  1.
<mgrwt>
<rscale>  3 0.29337503E+03</rscale>
<asrwt>0</asrwt>
<pdfrwt beam="1">  1       21 0.35849787E-01 0.29337503E+03</pdfrwt>
<pdfrwt beam="2">  1       21 0.81638649E-01 0.29337503E+03</pdfrwt>
<totfact> 0.92950488E+03</totfact>
</mgrwt>
</event>
<event>
 4    0  0.1525083E-001  0.3511904E+03  0.7546771E-02  0.1062128E+00
         21   -1    0    0  503  501  0.00000000000E+00  0.00000000000E+00  0.99926216896E+02  0.99926216896E+02  0.00000000000E+00 0. -1.
         21   -1    0    0  501  502 -0.00000000000E+00 -0.00000000000E+00 -0.11943314887E+04  0.11943314887E+04  0.00000000000E+00 0. -1.
         25    1    1    2    0    0  0.30639486718E+03 -0.11760906650E+03 -0.68285303264E+03  0.76786911082E+03  0.12500000000E+03 0.  0.
         21    1    1    2  503  502 -0.30639486718E+03  0.11760906650E+03 -0.41155223917E+03  0.52638859479E+03  0.00000000000E+00 0. -1.
<mgrwt>
<rscale>  3 0.35119041E+03</rscale>
<asrwt>0</asrwt>
<pdfrwt beam="1">  1       21 0.15373264E-01 0.35119041E+03</pdfrwt>
<pdfrwt beam="2">  1       21 0.18374331E+00 0.35119041E+03</pdfrwt>
<totfact> 0.58107689E+03</totfact>
</mgrwt>
</event>
<event>
 4    0  0.1525083E-001  0.2365915E+03  0.7546771E-02  0.1122085E+00
         21   -1    0    0  502  501  0.00000000000E+00  0.00000000000E+00  0.13218994358E+03  0.13218994358E+03  0.00000000000E+00 0. -1.
         21   -1    0    0  503  502 -0.00000000000E+00 -0.00000000000E+00 -0.44110281151E+03  0.44110281151E+03  0.00000000000E+00 0. -1.
         25    1    1    2    0    0 -0.19598910973E+03 -0.44031841197E+02 -0.43699008699E+02  0.24059330318E+03  0.12500000000E+03 0.  0.
         21    1    1    2  503  501  0.19598910973E+03  0.44031841197E+02 -0.26521385923E+03  0.33269945191E+03  0.00000000000E+00 0. -1.
<mgrwt>
<rscale>  3 0.23659149E+03</rscale>
<asrwt>0</asrwt>
<pdfrwt beam="1">  1       21 0.20336915E-01 0.23659149E+03</pdfrwt>
<pdfrwt beam="2">  1       21 0.67861970E-01 0.23659149E+03</pdfrwt>
<totfact> 0.43458188E+04</totfact>
</mgrwt>
</event>
<event>
 4    0  0.1525083E-001  0.2794044E+03  0.7546771E-02  0.1096015E+00
         21   -1    0    0  503  501  0.00000000000E+00  0.00000000000E+00  0.12299977142E+04  0.12299977142E+04  0.00000000000E+00 0.  1.
         21   -1    0    0  501  502 -0.00000000000E+00 -0.00000000000E+00 -0.98396780996E+02  0.98396780996E+02  0.00000000000E+00 0.  1.
         25    1    1    2    0    0  0.72297413936E+02 -0.23919632284E+03  0.10147985027E+04  0.10525601161E+04  0.12500000000E+03 0.  0.
         21    1    1    2  503  502 -0.72297413936E+02  0.23919632284E+03  0.11680243052E+03  0.27583437911E+03  0.00000000000E+00 0.  1.
<mgrwt>
<rscale>  3 0.27940436E+03</rscale>
<asrwt>0</asrwt>
<pdfrwt beam="1">  1       21 0.18923041E+00 0.27940436E+03</pdfrwt>
<pdfrwt beam="2">  1       21 0.15137967E-01 0.27940436E+03</pdfrwt>
<totfact> 0.57042885E+03</totfact>
</mgrwt>
</event>
<event>
 4    0  0.1525083E-001  0.3120890E+03  0.7546771E-02  0.1079349E+00
         21   -1    0    0  502  501  0.00000000000E+00  0.00000000000E+00  0.92777199914E+03  0.92777199914E+03  0.00000000000E+00 0.  1.
         21   -1    0    0  503  502 -0.00000000000E+00 -0.00000000000E+00 -0.38330575899E+03  0.38330575899E+03  0.00000000000E+00 0.  1.
         25    1    1    2    0    0 -0.49189199774E+02  0.28170016494E+03  0.84225619508E+03  0.89821771217E+03  0.12500000000E+03 0.  0.
         21    1    1    2  503  501  0.49189199774E+02 -0.28170016494E+03 -0.29778995492E+03  0.41286004597E+03  0.00000000000E+00 0.  1.
<mgrwt>
<rscale>  3 0.31208903E+03</rscale>
<asrwt>0</asrwt>
<pdfrwt beam="1">  1       21 0.14273415E+00 0.31208903E+03</pdfrwt>
<pdfrwt beam="2">  1       21 0.58970117E-01 0.31208903E+03</pdfrwt>
<totfact> 0.82865465E+02</totfact>
</mgrwt>
</event>
<event>
 4    0  0.1525083E-001  0.3100336E+03  0.7546771E-02  0.1080330E+00
         21   -1    0    0  503  501  0.00000000000E+00  0.00000000000E+00  0.64408994335E+03  0.64408994335E+03  0.00000000000E+00 0. -1.
         21   -1    0    0  501  502 -0.00000000000E+00 -0.00000000000E+00 -0.31228084842E+03  0.31228084842E+03  0.00000000000E+00 0.  1.
         25    1    1    2    0    0  0.21544177933E+03 -0.18460943690E+03  0.52739290764E+03  0.61177126730E+03  0.12500000000E+03 0.  0.
         21    1    1    2  503  502 -0.21544177933E+03  0.18460943690E+03 -0.19558381270E+03  0.34459952447E+03  0.00000000000E+00 0.  1.
<mgrwt>
<rscale>  3 0.31003355E+03</rscale>
<asrwt>0</asrwt>
<pdfrwt beam="1">  1       21 0.99090760E-01 0.31003355E+03</pdfrwt>
<pdfrwt beam="2">  1       21 0.48043208E-01 0.31003355E+03</pdfrwt>
<totfact> 0.32091988E+03</totfact>
</mgrwt>
</event>
<event>
 4    0  0.1525083E-001  0.2387157E+03  0.7546771E-02  0.1120651E+00
         21   -1    0    0  503  501  0.00000000000E+00  0.00000000000E+00  0.80781385196E+02  0.80781385196E+02  0.00000000000E+00 0. -1.
         21   -1    0    0  501  502 -0.00000000000E+00 -0.00000000000E+00 -0.62130060587E+03  0.62130060587E+03  0.00000000000E+00 0. -1.
         25    1    1    2    0    0 -0.35502492151E+02  0.20024928864E+03 -0.23434613195E+03  0.33451952725E+03  0.12500000000E+03 0.  0.
         21    1    1    2  503  502  0.35502492151E+02 -0.20024928864E+03 -0.30617308872E+03  0.36756246382E+03  0.00000000000E+00 0. -1.
<mgrwt>
<rscale>  3 0.23871574E+03</rscale>
<asrwt>0</asrwt>
<pdfrwt beam="1">  1       21 0.12427906E-01 0.23871574E+03</pdfrwt>
<pdfrwt beam="2">  1       21 0.95584704E-01 0.23871574E+03</pdfrwt>
<totfact> 0.49228717E+04</totfact>
</mgrwt>
</event>
<event>
 4    0  0.1525083E-001  0.2810214E+03  0.7546771E-02  0.1095132E+00
         21   -1    0    0  502  501  0.00000000000E+00  0.00000000000E+00  0.27864765539E+03  0.27864765539E+03  0.00000000000E+00 0.  1.
         21   -1    0    0  503  502 -0.00000000000E+00 -0.00000000000E+00 -0.26095229427E+03  0.26095229427E+03  0.00000000000E+00 0.  1.
         25    1    1    2    0    0 -0.70063271688E+02  0.24174198339E+03  0.51334196784E+02  0.28567157425E+03  0.12500000000E+03 0.  0.
         21    1    1    2  503  501  0.70063271688E+02 -0.24174198339E+03 -0.33638835659E+02  0.25392837541E+03  0.00000000000E+00 0.  1.
<mgrwt>
<rscale>  3 0.28102144E+03</rscale>
<asrwt>0</asrwt>
<pdfrwt beam="1">  1       21 0.42868870E-01 0.28102144E+03</pdfrwt>
<pdfrwt beam="2">  1       21 0.40146507E-01 0.28102144E+03</pdfrwt>
<totfact> 0.30020168E+04</totfact>
</mgrwt>
</event>
<event>
 4    0  0.1525083E-001  0.2871345E+03  0.7546771E-02  0.1091855E+00
         21   -1    0    0  503  501  0.00000000000E+00  0.00000000000E+00  0.29226934699E+02  0.29226934699E+02  0.00000000000E+00 0.  1.
         21   -1    0    0  501  502 -0.00000000000E+00 -0.00000000000E+00 -0.25474603589E+04  0.25474603589E+04  0.00000000000E+00 0.  1.
         25    1    1    2    0    0 -0.18318629820E+03 -0.18238415113E+03 -0.13012399716E+04  0.13325433059E+04  0.12500000000E+03 0.  0.
         21    1    1    2  503  502  0.18318629820E+03  0.18238415113E+03 -0.12169934527E+04  0.12441439878E+04  0.00000000000E+00 0.  1.
<mgrwt>
<rscale>  3 0.28713446E+03</rscale>
<asrwt>0</asrwt>
<pdfrwt beam="1">  1       21 0.44964490E-02 0.28713446E+03</pdfrwt>
<pdfrwt beam="2">  1       21 0.39191720E+00 0.28713446E+03</pdfrwt>
<totfact> 0.28247758E+03</totfact>
</mgrwt>
</event>
<event>
 4    0  0.1525083E-001  0.2390226E+03  0.7546771E-02  0.1120446E+00
         21   -1    0    0  503  501  0.00000000000E+00  0.00000000000E+00  0.45994726504E+03  0.45994726504E+03  0.00000000000E+00 0. -1.
         21   -1    0    0  501  502 -0.00000000000E+00 -0.00000000000E+00 -0.14080894888E+03  0.14080894888E+03  0.00000000000E+00 0. -1.
         25    1    1    2    0    0 -0.17902812410E+03 -0.97240681760E+02  0.31699731235E+03  0.39701273965E+03  0.12500000000E+03 0.  0.
         21    1    1    2  503  502  0.17902812410E+03  0.97240681760E+02  0.21410038154E+01  0.20374347427E+03  0.00000000000E+00 0. -1.
<mgrwt>
<rscale>  3 0.23902263E+03</rscale>
<asrwt>0</asrwt>
<pdfrwt beam="1">  1       21 0.70761117E-01 0.23902263E+03</pdfrwt>
<pdfrwt beam="2">  1       21 0.21662915E-01 0.23902263E+03</pdfrwt>
<totfact> 0.35129015E+04</totfact>
</mgrwt>
</event>
<event>
 4    0  0.1525083E-001  0.2362048E+03  0.7546771E-02  0.1122347E+00
         21   -1    0    0  503  501  0.00000000000E+00  0.00000000000E+00  0.38601538124E+02  0.38601538124E+02  0.00000000000E+00 0.  1.
         21   -1    0    0  501  502 -0.00000000000E+00 -0.00000000000E+00 -0.13997662968E+04  0.13997662968E+04  0.00000000000E+00 0. -1.
         25    1    1    2    0    0  0.15970815130E+03 -0.12108270251E+03 -0.48352407104E+03  0.53813403694E+03  0.12500000000E+03 0.  0.
         21    1    1    2  503  502 -0.15970815130E+03  0.12108270251E+03 -0.87764068765E+03  0.90023379800E+03  0.00000000000E+00 0. -1.
<mgrwt>
<rscale>  3 0.23620481E+03</rscale>
<asrwt>0</asrwt>
<pdfrwt beam="1">  1       21 0.59386972E-02 0.23620481E+03</pdfrwt>
<pdfrwt beam="2">  1       21 0.21534870E+00 0.23620481E+03</pdfrwt>
<totfact> 0.20887373E+04</totfact>
</mgrwt>
</event>
<event>
 4    0  0.1525083E-001  0.2556702E+03  0.7546771E-02  0.1109773E+00
         21   -1    0    0  502  501  0.00000000000E+00  0.00000000000E+00  0.54639317921E+02  0.54639317921E+02  0.00000000000E+00 0.  1.
         21   -1    0    0  503  502 -0.00000000000E+00 -0.00000000000E+00 -0.11086705073E+04  0.11086705073E+04  0.00000000000E+00 0.  1.
         25    1    1    2    0    0 -0.20113302355E+03 -0.96372929313E+02 -0.42577337097E+03  0.49663890111E+03  0.12500000000E+03 0.  0.
         21    1    1    2  503  501  0.20113302355E+03  0.96372929313E+02 -0.62825781842E+03  0.66667092412E+03  0.00000000000E+00 0.  1.
<mgrwt>
<rscale>  3 0.25567017E+03</rscale>
<asrwt>0</asrwt>
<pdfrwt beam="1">  1       21 0.84060488E-02 0.25567017E+03</pdfrwt>
<pdfrwt beam="2">  1       21 0.17056470E+00 0.25567017E+03</pdfrwt>
<totfact> 0.22383337E+04</totfact>
</mgrwt>
</event>
<event>
 4    0  0.1525083E-001  0.2743000E+03  0.7546771E-02  0.1098844E+00
         21   -1    0    0  503  501  0.00000000000E+00  0.00000000000E+00  0.38853190248E+03  0.38853190248E+03  0.00000000000E+00 0. -1.
         21   -1    0    0  501  502 -0.00000000000E+00 -0.00000000000E+00 -0.17405229423E+03  0.17405229423E+03  0.00000000000E+00 0. -1.
         25    1    1    2    0    0  0.24198876034E+03  0.32510186486E+02  0.13566928627E+03  0.30601736486E+03  0.12500000000E+03 0.  0.
         21    1    1    2  503  502 -0.24198876034E+03 -0.32510186486E+02  0.78810321987E+02  0.25656683185E+03  0.00000000000E+00 0. -1.
<mgrwt>
<rscale>  3 0.27429997E+03</rscale>
<asrwt>0</asrwt>
<pdfrwt beam="1">  1       21 0.59774138E-01 0.27429997E+03</pdfrwt>
<pdfrwt beam="2">  1       21 0.26777276E-01 0.27429997E+03</pdfrwt>
<totfact> 0.33391411E+04</totfact>
</mgrwt>
</event>
<event>
 4    0  0.1525083E-001  0.2544986E+03  0.7546771E-02  0.1110494E+00
         21   -1    0    0  502  501  0.00000000000E+00  0.00000000000E+00  0.21291133388E+03  0.21291133388E+03  0.00000000000E+00 0. -1.
         21   -1    0    0  503  502 -0.00000000000E+00 -0.00000000000E+00 -0.37594804794E+03  0.37594804794E+03  0.00000000000E+00 0. -1.
         25    1    1    2    0    0 -0.19803200680E+03  0.99638571153E+02  0.73279023445E+02  0.26483832021E+03  0.12500000000E+03 0.  0.
         21    1    1    2  503  501  0.19803200680E+03 -0.99638571153E+02 -0.23631573751E+03  0.32402106161E+03  0.00000000000E+00 0. -1.
<mgrwt>
<rscale>  3 0.25449857E+03</rscale>
<asrwt>0</asrwt>
<pdfrwt beam="1">  1       21 0.32755590E-01 0.25449857E+03</pdfrwt>
<pdfrwt beam="2">  1       21 0.57838160E-01 0.25449857E+03</pdfrwt>
<totfact> 0.24350720E+04</totfact>
</mgrwt>
</event>
<event>
 4    0  0.1525083E-001  0.2371618E+03  0.7546771E-02  0.1121698E+00
         21   -1    0    0  502  501  0.00000000000E+00  0.00000000000E+00  0.95264459888E+03  0.95264459888E+03  0.00000000000E+00 0.  1.
         21   -1    0    0  503  502 -0.00000000000E+00 -0.00000000000E+00 -0.13350876451E+03  0.13350876451E+03  0.00000000000E+00 0. -1.
         25    1    1    2    0    0  0.48292446431E+02  0.19567467601E+03  0.84981352541E+03  0.88228610279E+03  0.12500000000E+03 0.  0.
         21    1    1    2  503  501 -0.48292446431E+02 -0.19567467601E+03 -0.30677691048E+02  0.20386726060E+03  0.00000000000E+00 0. -1.
<mgrwt>
<rscale>  3 0.23716184E+03</rscale>
<asrwt>0</asrwt>
<pdfrwt beam="1">  1       21 0.14656070E+00 0.23716184E+03</pdfrwt>
<pdfrwt beam="2">  1       21 0.20539811E-01 0.23716184E+03</pdfrwt>
<totfact> 0.67491998E+03</totfact>
</mgrwt>
</event>
<event>
 4    0  0.1525083E-001  0.2683125E+03  0.7546771E-02  0.1102249E+00
         21   -1    0    0  503  501  0.00000000000E+00  0.00000000000E+00  0.81930996288E+03  0.81930996288E+03  0.00000000000E+00 0. -1.
         21   -1    0    0  501  502 -0.00000000000E+00 -0.00000000000E+00 -0.92671192321E+02  0.92671192321E+02  0.00000000000E+00 0. -1.
         25    1    1    2    0    0 -0.72960401205E+02  0.22592776915E+03  0.56290066198E+03  0.62357736671E+03  0.12500000000E+03 0.  0.
         21    1    1    2  503  502  0.72960401205E+02 -0.22592776915E+03  0.16373810859E+03  0.28840378850E+03  0.00000000000E+00 0. -1.
<mgrwt>
<rscale>  3 0.26831246E+03</rscale>
<asrwt>0</asrwt>
<pdfrwt beam="1">  1       21 0.12604768E+00 0.26831246E+03</pdfrwt>
<pdfrwt beam="2">  1       21 0.14257107E-01 0.26831246E+03</pdfrwt>
<totfact> 0.19254178E+04</totfact>
</mgrwt>
</event>
<event>
 4    0  0.1525083E-001  0.3893998E+03  0.7546771E-02  0.1047513E+00
         21   -1    0    0  503  501  0.00000000000E+00  0.00000000000E+00  0.20881151310E+03  0.20881151310E+03  0.00000000000E+00 0. -1.
         21   -1    0    0  501  502 -0.00000000000E+00 -0.00000000000E+00 -0.10284552072E+04  0.10284552072E+04  0.00000000000E+00 0. -1.
         25    1    1    2    0    0  0.29457166049E+03  0.22188907871E+03 -0.61557580238E+02  0.39423541457E+03  0.12500000000E+03 0.  0.
         21    1    1    2  503  502 -0.29457166049E+03 -0.22188907871E+03 -0.75808611384E+03  0.84303130571E+03  0.00000000000E+00 0. -1.
<mgrwt>
<rscale>  3 0.38939983E+03</rscale>
<asrwt>0</asrwt>
<pdfrwt beam="1">  1       21 0.32124849E-01 0.38939983E+03</pdfrwt>
<pdfrwt beam="2">  1       21 0.15822387E+00 0.38939983E+03</pdfrwt>
<totfact> 0.21221449E+03</totfact>
</mgrwt>
</event>
<event>
 4    0  0.1525083E-001  0.2593482E+03  0.7546771E-02  0.1107535E+00
         21   -1    0    0  503  501  0.00000000000E+00  0.00000000000E+00  0.45688168848E+03  0.45688168848E+03  0.00000000000E+00 0.  1.
         21   -1    0    0  501  502 -0.00000000000E+00 -0.00000000000E+00 -0.12957734691E+03  0.12957734691E+03  0.00000000000E+00 0.  1.
         25    1    1    2    0    0  0.20376174953E+03 -0.10058642225E+03  0.17831456977E+03  0.31473411748E+03  0.12500000000E+03 0.  0.
         21    1    1    2  503  502 -0.20376174953E+03  0.10058642225E+03  0.14898977180E+03  0.27172491791E+03  0.00000000000E+00 0.  1.
<mgrwt>
<rscale>  3 0.25934818E+03</rscale>
<asrwt>0</asrwt>
<pdfrwt beam="1">  1       21 0.70289490E-01 0.25934818E+03</pdfrwt>
<pdfrwt beam="2">  1       21 0.19934977E-01 0.25934818E+03</pdfrwt>
<totfact> 0.41347846E+04</totfact>
</mgrwt>
</event>
<event>
 4    0  0.1525083E-001  0.3512877E+03  0.7546771E-02  0.1062088E+00
         21   -1    0    0  503  501  0.00000000000E+00  0.00000000000E+00  0.97282187271E+03  0.97282187271E+03  0.00000000000E+00 0. -1.
         21   -1    0    0  501  502 -0.00000000000E+00 -0.00000000000E+00 -0.12046610766E+03  0.12046610766E+03  0.00000000000E+00 0.  1.
         25    1    1    2    0    0 -0.32233227926E+03 -0.62289330715E+02  0.50683293953E+03  0.61667064756E+03  0.12500000000E+03 0.  0.
         21    1    1    2  503  502  0.32233227926E+03  0.62289330715E+02  0.34552282552E+03  0.47661733280E+03  0.00000000000E+00 0.  1.
<mgrwt>
<rscale>  3 0.35128772E+03</rscale>
<asrwt>0</asrwt>
<pdfrwt beam="1">  1       21 0.14966490E+00 0.35128772E+03</pdfrwt>
<pdfrwt beam="2">  1       21 0.18533248E-01 0.35128772E+03</pdfrwt>
<totfact> 0.72826956E+03</totfact>
</mgrwt>
</event>
<event>
 4    0  0.1525083E-001  0.2802875E+03  0.7546771E-02  0.1095532E+00
         21   -1    0    0  503  501  0.00000000000E+00  0.00000000000E+00  0.11884131213E+03  0.11884131213E+03  0.00000000000E+00 0.  1.
         21   -1    0    0  501  502 -0.00000000000E+00 -0.00000000000E+00 -0.20291227242E+04  0.20291227242E+04  0.00000000000E+00 0.  1.
         25    1    1    2    0    0 -0.24750896365E+03  0.40931893136E+02 -0.67653579903E+02  0.28833680625E+03  0.12500000000E+03 0.  0.
         21    1    1    2  503  502  0.24750896365E+03 -0.40931893136E+02 -0.18426278322E+04  0.18596272301E+04  0.00000000000E+00 0.  1.
<mgrwt>
<rscale>  3 0.28028754E+03</rscale>
<asrwt>0</asrwt>
<pdfrwt beam="1">  1       21 0.18283278E-01 0.28028754E+03</pdfrwt>
<pdfrwt beam="2">  1       21 0.31217274E+00 0.28028754E+03</pdfrwt>
<totfact> 0.71503697E+02</totfact>
</mgrwt>
</event>
<event>
 4    0  0.1525083E-001  0.3000675E+03  0.7546771E-02  0.1085207E+00
         21   -1    0    0  503  501  0.00000000000E+00  0.00000000000E+00  0.99258609823E+02  0.99258609823E+02  0.00000000000E+00 0.  1.
         21   -1    0    0  501  502 -0.00000000000E+00 -0.00000000000E+00 -0.11877691041E+04  0.11877691041E+04  0.00000000000E+00 0.  1.
         25    1    1    2    0    0 -0.25984184484E+03 -0.83052560374E+02 -0.20769065469E+03  0.36493276115E+03  0.12500000000E+03 0.  0.
         21    1    1    2  503  502  0.25984184484E+03  0.83052560374E+02 -0.88081983957E+03  0.92209495275E+03  0.00000000000E+00 0.  1.
<mgrwt>
<rscale>  3 0.30006751E+03</rscale>
<asrwt>0</asrwt>
<pdfrwt beam="1">  1       21 0.15270555E-01 0.30006751E+03</pdfrwt>
<pdfrwt beam="2">  1       21 0.18273371E+00 0.30006751E+03</pdfrwt>
<totfact> 0.61392289E+03</totfact>
</mgrwt>
</event>
<event>
 4    0  0.1525083E-001  0.3128429E+03  0.7546771E-02  0.1078991E+00
         21   -1    0    0  502  501  0.00000000000E+00  0.00000000000E+00  0.18822089890E+03  0.18822089890E+03  0.00000000000E+00 0.  1.
         21   -1    0    0  503  502 -0.00000000000E+00 -0.00000000000E+00 -0.52281843498E+03  0.52281843498E+03  0.00000000000E+00 0. -1.
         25    1    1    2    0    0 -0.21038111418E+02 -0.28601235514E+03 -0.69438614684E+02  0.32045653470E+03  0.12500000000E+03 0.  0.
         21    1    1    2  503  501  0.21038111418E+02  0.28601235514E+03 -0.26515892140E+03  0.39058279918E+03  0.00000000000E+00 0. -1.
<mgrwt>
<rscale>  3 0.31284288E+03</rscale>
<asrwt>0</asrwt>
<pdfrwt beam="1">  1       21 0.28957062E-01 0.31284288E+03</pdfrwt>
<pdfrwt beam="2">  1       21 0.80433604E-01 0.31284288E+03</pdfrwt>
<totfact> 0.14573869E+04</totfact>
</mgrwt>
</event>
<event>
 4    0  0.1525083E-001  0.3250415E+03  0.7546771E-02  0.1073352E+00
         21   -1    0    0  502  501  0.00000000000E+00  0.00000000000E+00  0.83987546561E+03  0.83987546561E+03  0.00000000000E+00 0.  1.
         21   -1    0    0  503  502 -0.00000000000E+00 -0.00000000000E+00 -0.34897971299E+03  0.34897971299E+03  0.00000000000E+00 0.  1.
         25    1    1    2    0    0  0.15704938353E+03 -0.25566081301E+03  0.73395838405E+03  0.80271219605E+03  0.12500000000E+03 0.  0.
         21    1    1    2  503  501 -0.15704938353E+03  0.25566081301E+03 -0.24306263142E+03  0.38614298255E+03  0.00000000000E+00 0.  1.
<mgrwt>
<rscale>  3 0.32504147E+03</rscale>
<asrwt>0</asrwt>
<pdfrwt beam="1">  1       21 0.12921161E+00 0.32504147E+03</pdfrwt>
<pdfrwt beam="2">  1       21 0.53689187E-01 0.32504147E+03</pdfrwt>
<totfact> 0.13030252E+03</totfact>
</mgrwt>
</event>
<event>
 4    0  0.1525083E-001  0.2513523E+03  0.7546771E-02  0.1112453E+00
         21   -1    0    0  503  501  0.00000000000E+00  0.00000000000E+00  0.15590140362E+04  0.15590140362E+04  0.00000000000E+00 0. -1.
         21   -1    0    0  501  502 -0.00000000000E+00 -0.00000000000E+00 -0.39396399443E+02  0.39396399443E+02  0.00000000000E+00 0. -1.
         25    1    1    2    0    0  0.17883236192E+03 -0.12478766431E+03  0.10641449304E+04  0.10934269101E+04  0.12500000000E+03 0.  0.
         21    1    1    2  503  502 -0.17883236192E+03  0.12478766431E+03  0.45547270634E+03  0.50498352553E+03  0.00000000000E+00 0. -1.
<mgrwt>
<rscale>  3 0.25135229E+03</rscale>
<asrwt>0</asrwt>
<pdfrwt beam="1">  1       21 0.23984827E+00 0.25135229E+03</pdfrwt>
<pdfrwt beam="2">  1       21 0.60609857E-02 0.25135229E+03</pdfrwt>
<totfact> 0.14122100E+04</totfact>
</mgrwt>
</event>
<event>
 4    0  0.1525083E-001  0.2441949E+03  0.7546771E-02  0.1117029E+00
         21   -1    0    0  502  501  0.00000000000E+00  0.00000000000E+00  0.38994505266E+03  0.38994505266E+03  0.00000000000E+00 0. -1.
         21   -1    0    0  503  502 -0.00000000000E+00 -0.00000000000E+00 -0.20421856656E+03  0.20421856656E+03  0.00000000000E+00 0. -1.
         25    1    1    2    0    0  0.51829159092E+02  0.20327299070E+03  0.27359968825E+03  0.36672600111E+03  0.12500000000E+03 0.  0.
         21    1    1    2  503  501 -0.51829159092E+02 -0.20327299070E+03 -0.87873202149E+02  0.22743761812E+03  0.00000000000E+00 0. -1.
<mgrwt>
<rscale>  3 0.24419494E+03</rscale>
<asrwt>0</asrwt>
<pdfrwt beam="1">  1       21 0.59991546E-01 0.24419494E+03</pdfrwt>
<pdfrwt beam="2">  1       21 0.31418241E-01 0.24419494E+03</pdfrwt>
<totfact> 0.24555865E+04</totfact>
</mgrwt>
</event>
<event>
 4    0  0.1525083E-001  0.2853670E+03  0.7546771E-02  0.1092793E+00
         21   -1    0    0  503  501  0.00000000000E+00  0.00000000000E+00  0.19374108618E+03  0.19374108618E+03  0.00000000000E+00 0.  1.
         21   -1    0    0  501  502 -0.00000000000E+00 -0.00000000000E+00 -0.53766256150E+03  0.53766256150E+03  0.00000000000E+00 0.  1.
         25    1    1    2    0    0  0.10162403651E+02 -0.25633195232E+03  0.20096817757E+02  0.28607381270E+03  0.12500000000E+03 0.  0.
         21    1    1    2  503  502 -0.10162403651E+02  0.25633195232E+03 -0.36401829308E+03  0.44532983498E+03  0.00000000000E+00 0.  1.
<mgrwt>
<rscale>  3 0.28536703E+03</rscale>
<asrwt>0</asrwt>
<pdfrwt beam="1">  1       21 0.29806321E-01 0.28536703E+03</pdfrwt>
<pdfrwt beam="2">  1       21 0.82717316E-01 0.28536703E+03</pdfrwt>
<totfact> 0.13066218E+04</totfact>
</mgrwt>
</event>
<event>
 4    0  0.1525083E-001  0.2522561E+03  0.7546771E-02  0.1111887E+00
         21   -1    0    0  502  501  0.00000000000E+00  0.00000000000E+00  0.11345204116E+04  0.11345204116E+04  0.00000000000E+00 0.  1.
         21   -1    0    0  503  502 -0.00000000000E+00 -0.00000000000E+00 -0.21382478210E+03  0.21382478210E+03  0.00000000000E+00 0.  1.
         25    1    1    2    0    0 -0.21597540515E+03  0.36915348708E+02  0.10594041805E+04  0.10890226519E+04  0.12500000000E+03 0.  0.
         21    1    1    2  503  501  0.21597540515E+03 -0.36915348708E+02 -0.13870855099E+03  0.25932254186E+03  0.00000000000E+00 0.  1.
<mgrwt>
<rscale>  3 0.25225606E+03</rscale>
<asrwt>0</asrwt>
<pdfrwt beam="1">  1       21 0.17454160E+00 0.25225606E+03</pdfrwt>
<pdfrwt beam="2">  1       21 0.32896121E-01 0.25225606E+03</pdfrwt>
<totfact> 0.16722743E+03</totfact>
</mgrwt>
</event>
<event>
 4    0  0.1525083E-001  0.2441008E+03  0.7546771E-02  0.1117091E+00
         21   -1    0    0  503  501  0.00000000000E+00  0.00000000000E+00  0.13346585736E+03  0.13346585736E+03  0.00000000000E+00 0.  1.
         21   -1    0    0  501  502 -0.00000000000E+00 -0.00000000000E+00 -0.45349523859E+03  0.45349523859E+03  0.00000000000E+00 0.  1.
         25    1    1    2    0    0 -0.33566002559E+02 -0.20696262620E+03 -0.57137578230E+02  0.25069883929E+03  0.12500000000E+03 0.  0.
         21    1    1    2  503  502  0.33566002559E+02  0.20696262620E+03 -0.26289180300E+03  0.33626225667E+03  0.00000000000E+00 0.  1.
<mgrwt>
<rscale>  3 0.24410081E+03</rscale>
<asrwt>0</asrwt>
<pdfrwt beam="1">  1       21 0.20533209E-01 0.24410081E+03</pdfrwt>
<pdfrwt beam="2">  1       21 0.69768498E-01 0.24410081E+03</pdfrwt>
<totfact> 0.40014134E+04</totfact>
</mgrwt>
</event>
<event>
 4    0  0.1525083E-001  0.2536884E+03  0.7546771E-02  0.1110996E+00
         21   -1    0    0  503  501  0.00000000000E+00  0.00000000000E+00  0.44278830455E+03  0.44278830455E+03  0.00000000000E+00 0.  1.
         21   -1    0    0  501  502 -0.00000000000E+00 -0.00000000000E+00 -0.39084897131E+03  0.39084897131E+03  0.00000000000E+00 0. -1.
         25    1    1    2    0    0  0.18273763877E+03 -0.12385386236E+03  0.36869704670E+03  0.44754366948E+03  0.12500000000E+03 0.  0.
         21    1    1    2  503  502 -0.18273763877E+03  0.12385386236E+03 -0.31675771346E+03  0.38609360637E+03  0.00000000000E+00 0. -1.
<mgrwt>
<rscale>  3 0.25368844E+03</rscale>
<asrwt>0</asrwt>
<pdfrwt beam="1">  1       21 0.68121278E-01 0.25368844E+03</pdfrwt>
<pdfrwt beam="2">  1       21 0.60130610E-01 0.25368844E+03</pdfrwt>
<totfact> 0.48615394E+03</totfact>
</mgrwt>
</event>
<event>
 4    0  0.1525083E-001  0.3294910E+03  0.7546771E-02  0.1071362E+00
         21   -1    0    0  503  501  0.00000000000E+00  0.00000000000E+00  0.70544691572E+03  0.70544691572E+03  0.00000000000E+00 0. -1.
         21   -1    0    0  501  502 -0.00000000000E+00 -0.00000000000E+00 -0.28382079757E+03  0.28382079757E+03  0.00000000000E+00 0.  1.
         25    1    1    2    0    0 -0.30473098257E+03 -0.88500950901E+01  0.56369596075E+03  0.65292988298E+03  0.12500000000E+03 0.  0.
         21    1    1    2  503  502  0.30473098257E+03  0.88500950901E+01 -0.14206984260E+03  0.33633783031E+03  0.00000000000E+00 0.  1.
<mgrwt>
<rscale>  3 0.32949096E+03</rscale>
<asrwt>0</asrwt>
<pdfrwt beam="1">  1       21 0.10853029E+00 0.32949096E+03</pdfrwt>
<pdfrwt beam="2">  1       21 0.43664738E-01 0.32949096E+03</pdfrwt>
<totfact> 0.31079010E+03</totfact>
</mgrwt>
</event>
<event>
 4    0  0.1525083E-001  0.2771128E+03  0.7546771E-02  0.1097276E+00
         21   -1    0    0  503  501  0.00000000000E+00  0.00000000000E+00  0.16359710991E+03  0.16359710991E+03  0.00000000000E+00 0.  1.
         21   -1    0    0  501  502 -0.00000000000E+00 -0.00000000000E+00 -0.49209248575E+03  0.49209248575E+03  0.00000000000E+00 0. -1.
         25    1    1    2    0    0  0.12593888665E+03  0.21285178032E+03 -0.47151988131E+02  0.28109570175E+03  0.12500000000E+03 0.  0.
         21    1    1    2  503  502 -0.12593888665E+03 -0.21285178032E+03 -0.28134338770E+03  0.37459389392E+03  0.00000000000E+00 0. -1.
<mgrwt>
<rscale>  3 0.27711276E+03</rscale>
<asrwt>0</asrwt>
<pdfrwt beam="1">  1       21 0.25168787E-01 0.27711276E+03</pdfrwt>
<pdfrwt beam="2">  1       21 0.75706535E-01 0.27711276E+03</pdfrwt>
<totfact> 0.22299985E+04</totfact>
</mgrwt>
</event>
<event>
 4    0  0.1525083E-001  0.6039383E+03  0.7546771E-02  0.9897269E-01
         21   -1    0    0  502  501  0.00000000000E+00  0.00000000000E+00  0.13242464807E+04  0.13242464807E+04  0.00000000000E+00 0. -1.
         21   -1    0    0  503  502 -0.00000000000E+00 -0.00000000000E+00 -0.47481887659E+03  0.47481887659E+03  0.00000000000E+00 0.  1.
         25    1    1    2    0    0 -0.21117653645E+03 -0.55183415195E+03  0.10188474974E+04  0.11843950708E+04  0.12500000000E+03 0.  0.
         21    1    1    2  503  501  0.21117653645E+03  0.55183415195E+03 -0.16941989332E+03  0.61467028646E+03  0.00000000000E+00 0.  1.
<mgrwt>
<rscale>  3 0.60393829E+03</rscale>
<asrwt>0</asrwt>
<pdfrwt beam="1">  1       21 0.20373023E+00 0.60393829E+03</pdfrwt>
<pdfrwt beam="2">  1       21 0.73049058E-01 0.60393829E+03</pdfrwt>
<totfact> 0.16054538E+02</totfact>
</mgrwt>
</event>
<event>
 4    0  0.1525083E-001  0.2726405E+03  0.7546771E-02  0.1099778E+00
         21   -1    0    0  502  501  0.00000000000E+00  0.00000000000E+00  0.16470360940E+03  0.16470360940E+03  0.00000000000E+00 0. -1.
         21   -1    0    0  503  502 -0.00000000000E+00 -0.00000000000E+00 -0.43768510271E+03  0.43768510271E+03  0.00000000000E+00 0. -1.
         25    1    1    2    0    0  0.23704638980E+03 -0.50167990137E+02 -0.22917041797E+03  0.35616274177E+03  0.12500000000E+03 0.  0.
         21    1    1    2  503  501 -0.23704638980E+03  0.50167990137E+02 -0.43811075340E+02  0.24622597035E+03  0.00000000000E+00 0. -1.
<mgrwt>
<rscale>  3 0.27264046E+03</rscale>
<asrwt>0</asrwt>
<pdfrwt beam="1">  1       21 0.25339017E-01 0.27264046E+03</pdfrwt>
<pdfrwt beam="2">  1       21 0.67336169E-01 0.27264046E+03</pdfrwt>
<totfact> 0.28650536E+04</totfact>
</mgrwt>
</event>
<event>
 4    0  0.1525083E-001  0.2388240E+03  0.7546771E-02  0.1120579E+00
         21   -1    0    0  502  501  0.00000000000E+00  0.00000000000E+00  0.37926826488E+03  0.37926826488E+03  0.00000000000E+00 0. -1.
         21   -1    0    0  503  502 -0.00000000000E+00 -0.00000000000E+00 -0.20497622628E+03  0.20497622628E+03  0.00000000000E+00 0.  1.
         25    1    1    2    0    0  0.19162120662E+03  0.68507185787E+02  0.26905725848E+03  0.35976204590E+03  0.12500000000E+03 0.  0.
         21    1    1    2  503  501 -0.19162120662E+03 -0.68507185787E+02 -0.94765219873E+02  0.22448244526E+03  0.00000000000E+00 0.  1.
<mgrwt>
<rscale>  3 0.23882404E+03</rscale>
<asrwt>0</asrwt>
<pdfrwt beam="1">  1       21 0.58348964E-01 0.23882404E+03</pdfrwt>
<pdfrwt beam="2">  1       21 0.31534804E-01 0.23882404E+03</pdfrwt>
<totfact> 0.25946059E+04</totfact>
</mgrwt>
</event>
<event>
 4    0  0.1525083E-001  0.3081007E+03  0.7546771E-02  0.1081260E+00
         21   -1    0    0  503  501  0.00000000000E+00  0.00000000000E+00  0.13152713073E+04  0.13152713073E+04  0.00000000000E+00 0.  1.
         21   -1    0    0  501  502 -0.00000000000E+00 -0.00000000000E+00 -0.66221275892E+02  0.66221275892E+02  0.00000000000E+00 0.  1.
         25    1    1    2    0    0 -0.24398480049E+03  0.14061455456E+03  0.68219467659E+03  0.74854232519E+03  0.12500000000E+03 0.  0.
         21    1    1    2  503  502  0.24398480049E+03 -0.14061455456E+03  0.56685535480E+03  0.63295025799E+03  0.00000000000E+00 0.  1.
<mgrwt>
<rscale>  3 0.30810069E+03</rscale>
<asrwt>0</asrwt>
<pdfrwt beam="1">  1       21 0.20234941E+00 0.30810069E+03</pdfrwt>
<pdfrwt beam="2">  1       21 0.10187890E-01 0.30810069E+03</pdfrwt>
<totfact> 0.94135544E+03</totfact>
</mgrwt>
</event>
<event>
 4    0  0.1525083E-001  0.2671799E+03  0.7546771E-02  0.1102905E+00
         21   -1    0    0  502  501  0.00000000000E+00  0.00000000000E+00  0.10115693924E+04  0.10115693924E+04  0.00000000000E+00 0.  1.
         21   -1    0    0  503  502 -0.00000000000E+00 -0.00000000000E+00 -0.23376104842E+03  0.23376104842E+03  0.00000000000E+00 0. -1.
         25    1    1    2    0    0  0.23251476688E+03 -0.41194232895E+02  0.92785403955E+03  0.96555590224E+03  0.12500000000E+03 0.  0.
         21    1    1    2  503  501 -0.23251476688E+03  0.41194232895E+02 -0.15004569562E+03  0.27977453854E+03  0.00000000000E+00 0. -1.
<mgrwt>
<rscale>  3 0.26717987E+03</rscale>
<asrwt>0</asrwt>
<pdfrwt beam="1">  1       21 0.15562606E+00 0.26717987E+03</pdfrwt>
<pdfrwt beam="2">  1       21 0.35963239E-01 0.26717987E+03</pdfrwt>
<totfact> 0.18994287E+03</totfact>
</mgrwt>
</event>
<event>
 4    0  0.1525083E-001  0.2453161E+03  0.7546771E-02  0.1116301E+00
         21   -1    0    0  502  501  0.00000000000E+00  0.00000000000E+00  0.36113649932E+03  0.36113649932E+03  0.00000000000E+00 0.  1.
         21   -1    0    0  503  502 -0.00000000000E+00 -0.00000000000E+00 -0.25675556809E+03  0.25675556809E+03  0.00000000000E+00 0. -1.
         25    1    1    2    0    0 -0.18800683982E+03  0.95960441352E+02  0.25862240374E+03  0.35646251674E+03  0.12500000000E+03 0.  0.
         21    1    1    2  503  501  0.18800683982E+03 -0.95960441352E+02 -0.15424147250E+03  0.26142955067E+03  0.00000000000E+00 0. -1.
<mgrwt>
<rscale>  3 0.24531608E+03</rscale>
<asrwt>0</asrwt>
<pdfrwt beam="1">  1       21 0.55559461E-01 0.24531608E+03</pdfrwt>
<pdfrwt beam="2">  1       21 0.39500857E-01 0.24531608E+03</pdfrwt>
<totfact> 0.18313377E+04</totfact>
</mgrwt>
</event>
<event>
 4    0  0.1525083E-001  0.2552356E+03  0.7546771E-02  0.1110040E+00
         21   -1    0    0  503  501  0.00000000000E+00  0.00000000000E+00  0.74720783809E+03  0.74720783809E+03  0.00000000000E+00 0.  1.
         21   -1    0    0  501  502 -0.00000000000E+00 -0.00000000000E+00 -0.92186868927E+02  0.92186868927E+02  0.00000000000E+00 0.  1.
         25    1    1    2    0    0  0.12828103057E+03 -0.18183562981E+03  0.17258383552E+03  0.30810777231E+03  0.12500000000E+03 0.  0.
         21    1    1    2  503  502 -0.12828103057E+03  0.18183562981E+03  0.48243713364E+03  0.53128693471E+03  0.00000000000E+00 0.  1.
<mgrwt>
<rscale>  3 0.25523561E+03</rscale>
<asrwt>0</asrwt>
<pdfrwt beam="1">  1       21 0.11495505E+00 0.25523561E+03</pdfrwt>
<pdfrwt beam="2">  1       21 0.14182596E-01 0.25523561E+03</pdfrwt>
<totfact> 0.24629307E+04</totfact>
</mgrwt>
</event>
<event>
 4    0  0.1525083E-001  0.2444514E+03  0.7546771E-02  0.1116862E+00
         21   -1    0    0  503  501  0.00000000000E+00  0.00000000000E+00  0.24416239499E+03  0.24416239499E+03  0.00000000000E+00 0. -1.
         21   -1    0    0  501  502 -0.00000000000E+00 -0.00000000000E+00 -0.44854653549E+03  0.44854653549E+03  0.00000000000E+00 0. -1.
         25    1    1    2    0    0  0.19672930691E+03  0.73682163047E+02  0.14559264735E+03  0.28452363753E+03  0.12500000000E+03 0.  0.
         21    1    1    2  503  502 -0.19672930691E+03 -0.73682163047E+02 -0.34997678785E+03  0.40818529295E+03  0.00000000000E+00 0. -1.
<mgrwt>
<rscale>  3 0.24445139E+03</rscale>
<asrwt>0</asrwt>
<pdfrwt beam="1">  1       21 0.37563446E-01 0.24445139E+03</pdfrwt>
<pdfrwt beam="2">  1       21 0.69007159E-01 0.24445139E+03</pdfrwt>
<totfact> 0.12665693E+04</totfact>
</mgrwt>
</event>
<event>
 4    0  0.1525083E-001  0.3050458E+03  0.7546771E-02  0.1082745E+00
         21   -1    0    0  503  501  0.00000000000E+00  0.00000000000E+00  0.82597954859E+03  0.82597954859E+03  0.00000000000E+00 0.  1.
         21   -1    0    0  501  502 -0.00000000000E+00 -0.00000000000E+00 -0.10672763984E+03  0.10672763984E+03  0.00000000000E+00 0.  1.
         25    1    1    2    0    0  0.11547142403E+03  0.25316851905E+03  0.28828539269E+03  0.41971587585E+03  0.12500000000E+03 0.  0.
         21    1    1    2  503  502 -0.11547142403E+03 -0.25316851905E+03  0.43096651607E+03  0.51299131258E+03  0.00000000000E+00 0.  1.
<mgrwt>
<rscale>  3 0.30504581E+03</rscale>
<asrwt>0</asrwt>
<pdfrwt beam="1">  1       21 0.12707377E+00 0.30504581E+03</pdfrwt>
<pdfrwt beam="2">  1       21 0.16419637E-01 0.30504581E+03</pdfrwt>
<totfact> 0.14299405E+04</totfact>
</mgrwt>
</event>
<event>
 4    0  0.1525083E-001  0.3172088E+03  0.7546771E-02  0.1076941E+00
         21   -1    0    0  503  501  0.00000000000E+00  0.00000000000E+00  0.52082569189E+03  0.52082569189E+03  0.00000000000E+00 0.  1.
         21   -1    0    0  501  502 -0.00000000000E+00 -0.00000000000E+00 -0.21750286556E+03  0.21750286556E+03  0.00000000000E+00 0.  1.
         25    1    1    2    0    0  0.24860879421E+03 -0.15228285572E+03  0.31434272622E+03  0.44657894065E+03  0.12500000000E+03 0.  0.
         21    1    1    2  503  502 -0.24860879421E+03  0.15228285572E+03 -0.11019899893E+02  0.29174961680E+03  0.00000000000E+00 0.  1.
<mgrwt>
<rscale>  3 0.31720877E+03</rscale>
<asrwt>0</asrwt>
<pdfrwt beam="1">  1       21 0.80127029E-01 0.31720877E+03</pdfrwt>
<pdfrwt beam="2">  1       21 0.33461980E-01 0.31720877E+03</pdfrwt>
<totfact> 0.11021417E+04</totfact>
</mgrwt>
</event>
<event>
 4    0  0.1525083E-001  0.3164108E+03  0.7546771E-02  0.1077313E+00
         21   -1    0    0  503  501  0.00000000000E+00  0.00000000000E+00  0.14266611996E+04  0.14266611996E+04  0.00000000000E+00 0. -1.
         21   -1    0    0  501  502 -0.00000000000E+00 -0.00000000000E+00 -0.64743636717E+02  0.64743636717E+02  0.00000000000E+00 0. -1.
         25    1    1    2    0    0  0.86741085436E+02 -0.27742887437E+03  0.74689772450E+03  0.81115473684E+03  0.12500000000E+03 0.  0.
         21    1    1    2  503  502 -0.86741085436E+02  0.27742887437E+03  0.61501983838E+03  0.68025009947E+03  0.00000000000E+00 0. -1.
<mgrwt>
<rscale>  3 0.31641080E+03</rscale>
<asrwt>0</asrwt>
<pdfrwt beam="1">  1       21 0.21948631E+00 0.31641080E+03</pdfrwt>
<pdfrwt beam="2">  1       21 0.99605606E-02 0.31641080E+03</pdfrwt>
<totfact> 0.75773131E+03</totfact>
</mgrwt>
</event>
<event>
 4    0  0.1525083E-001  0.3053322E+03  0.7546771E-02  0.1082605E+00
         21   -1    0    0  502  501  0.00000000000E+00  0.00000000000E+00  0.12192211745E+04  0.12192211745E+04  0.00000000000E+00 0. -1.
         21   -1    0    0  503  502 -0.00000000000E+00 -0.00000000000E+00 -0.11701316886E+03  0.11701316886E+03  0.00000000000E+00 0. -1.
         25    1    1    2    0    0 -0.22878568778E+03  0.15893358507E+03  0.98982263573E+03  0.10358458503E+04  0.12500000000E+03 0.  0.
         21    1    1    2  503  501  0.22878568778E+03 -0.15893358507E+03  0.11238536991E+03  0.30038849306E+03  0.00000000000E+00 0. -1.
<mgrwt>
<rscale>  3 0.30533224E+03</rscale>
<asrwt>0</asrwt>
<pdfrwt beam="1">  1       21 0.18757248E+00 0.30533224E+03</pdfrwt>
<pdfrwt beam="2">  1       21 0.18002027E-01 0.30533224E+03</pdfrwt>
<totfact> 0.41803325E+03</totfact>
</mgrwt>
</event>
<event>
 4    0  0.1525083E-001  0.2491296E+03  0.7546771E-02  0.1113856E+00
         21   -1    0    0  502  501  0.00000000000E+00  0.00000000000E+00  0.47317293840E+03  0.47317293840E+03  0.00000000000E+00 0.  1.
         21   -1    0    0  503  502 -0.00000000000E+00 -0.00000000000E+00 -0.27908337121E+03  0.27908337121E+03  0.00000000000E+00 0.  1.
         25    1    1    2    0    0 -0.10821589629E+03 -0.18635948252E+03  0.38883409524E+03  0.46179810583E+03  0.12500000000E+03 0.  0.
         21    1    1    2  503  501  0.10821589629E+03  0.18635948252E+03 -0.19474452806E+03  0.29045820378E+03  0.00000000000E+00 0.  1.
<mgrwt>
<rscale>  3 0.24912956E+03</rscale>
<asrwt>0</asrwt>
<pdfrwt beam="1">  1       21 0.72795837E-01 0.24912956E+03</pdfrwt>
<pdfrwt beam="2">  1       21 0.42935903E-01 0.24912956E+03</pdfrwt>
<totfact> 0.85471698E+03</totfact>
</mgrwt>
</event>
<event>
 4    0  0.1525083E-001  0.2361606E+03  0.7546771E-02  0.1122377E+00
         21   -1    0    0  502  501  0.00000000000E+00  0.00000000000E+00  0.54049942805E+03  0.54049942805E+03  0.00000000000E+00 0. -1.
         21   -1    0    0  503  502 -0.00000000000E+00 -0.00000000000E+00 -0.40274283449E+03  0.40274283449E+03  0.00000000000E+00 0.  1.
         25    1    1    2    0    0  0.11420423667E+03 -0.16463360298E+03  0.48663986601E+03  0.54091606566E+03  0.12500000000E+03 0.  0.
         21    1    1    2  503  501 -0.11420423667E+03  0.16463360298E+03 -0.34888327244E+03  0.40232619688E+03  0.00000000000E+00 0.  1.
<mgrwt>
<rscale>  3 0.23616060E+03</rscale>
<asrwt>0</asrwt>
<pdfrwt beam="1">  1       21 0.83153758E-01 0.23616060E+03</pdfrwt>
<pdfrwt beam="2">  1       21 0.61960436E-01 0.23616060E+03</pdfrwt>
<totfact> 0.29430732E+03</totfact>
</mgrwt>
</event>
<event>
 4    0  0.1525083E-001  0.4027344E+03  0.7546771E-02  0.1042837E+00
         21   -1    0    0  503  501  0.00000000000E+00  0.00000000000E+00  0.22135832245E+03  0.22135832245E+03  0.00000000000E+00 0. -1.
         21   -1    0    0  501  502 -0.00000000000E+00 -0.00000000000E+00 -0.84563873486E+03  0.84563873486E+03  0.00000000000E+00 0. -1.
         25    1    1    2    0    0  0.25517593328E+03  0.28540369515E+03 -0.54227496343E+03  0.67546810590E+03  0.12500000000E+03 0.  0.
         21    1    1    2  503  502 -0.25517593328E+03 -0.28540369515E+03 -0.82005448980E+02  0.39152895141E+03  0.00000000000E+00 0. -1.
<mgrwt>
<rscale>  3 0.40273444E+03</rscale>
<asrwt>0</asrwt>
<pdfrwt beam="1">  1       21 0.34055127E-01 0.40273444E+03</pdfrwt>
<pdfrwt beam="2">  1       21 0.13009826E+00 0.40273444E+03</pdfrwt>
<totfact> 0.31635627E+03</totfact>
</mgrwt>
</event>
<event>
 4    0  0.1525083E-001  0.2956791E+03  0.7546771E-02  0.1087421E+00
         21   -1    0    0  502  501  0.00000000000E+00  0.00000000000E+00  0.37107316564E+03  0.37107316564E+03  0.00000000000E+00 0. -1.
         21   -1    0    0  503  502 -0.00000000000E+00 -0.00000000000E+00 -0.23243207755E+03  0.23243207755E+03  0.00000000000E+00 0. -1.
         25    1    1    2    0    0 -0.18804425438E+03 -0.19089388330E+03  0.15726672802E+03  0.33490138851E+03  0.12500000000E+03 0.  0.
         21    1    1    2  503  501  0.18804425438E+03  0.19089388330E+03 -0.18625639931E+02  0.26860385468E+03  0.00000000000E+00 0. -1.
<mgrwt>
<rscale>  3 0.29567908E+03</rscale>
<asrwt>0</asrwt>
<pdfrwt beam="1">  1       21 0.57088179E-01 0.29567908E+03</pdfrwt>
<pdfrwt beam="2">  1       21 0.35758781E-01 0.29567908E+03</pdfrwt>
<totfact> 0.20654494E+04</totfact>
</mgrwt>
</event>
<event>
 4    0  0.1525083E-001  0.2519057E+03  0.7546771E-02  0.1112106E+00
         21   -1    0    0  503  501  0.00000000000E+00  0.00000000000E+00  0.66872126594E+02  0.66872126594E+02  0.00000000000E+00 0.  1.
         21   -1    0    0  501  502 -0.00000000000E+00 -0.00000000000E+00 -0.10210112371E+04  0.10210112371E+04  0.00000000000E+00 0.  1.
         25    1    1    2    0    0 -0.18975999091E+03 -0.10873189797E+03 -0.26832696901E+03  0.36804326116E+03  0.12500000000E+03 0.  0.
         21    1    1    2  503  502  0.18975999091E+03  0.10873189797E+03 -0.68581214145E+03  0.71984010249E+03  0.00000000000E+00 0.  1.
<mgrwt>
<rscale>  3 0.25190570E+03</rscale>
<asrwt>0</asrwt>
<pdfrwt beam="1">  1       21 0.10288020E-01 0.25190570E+03</pdfrwt>
<pdfrwt beam="2">  1       21 0.15707865E+00 0.25190570E+03</pdfrwt>
<totfact> 0.19674921E+04</totfact>
</mgrwt>
</event>
<event>
 4    0  0.1525083E-001  0.4094216E+03  0.7546771E-02  0.1040565E+00
         21   -1    0    0  502  501  0.00000000000E+00  0.00000000000E+00  0.26888959812E+03  0.26888959812E+03  0.00000000000E+00 0.  1.
         21   -1    0    0  503  502 -0.00000000000E+00 -0.00000000000E+00 -0.99644146836E+03  0.99644146836E+03  0.00000000000E+00 0. -1.
         25    1    1    2    0    0  0.12640611081E+03 -0.36881236864E+03  0.32921366958E+02  0.41074308821E+03  0.12500000000E+03 0.  0.
         21    1    1    2  503  501 -0.12640611081E+03  0.36881236864E+03 -0.76047323719E+03  0.85458797827E+03  0.00000000000E+00 0. -1.
<mgrwt>
<rscale>  3 0.40942163E+03</rscale>
<asrwt>0</asrwt>
<pdfrwt beam="1">  1       21 0.41367631E-01 0.40942163E+03</pdfrwt>
<pdfrwt beam="2">  1       21 0.15329869E+00 0.40942163E+03</pdfrwt>
<totfact> 0.13723908E+03</totfact>
</mgrwt>
</event>
<event>
 4    0  0.1525083E-001  0.2623436E+03  0.7546771E-02  0.1105743E+00
         21   -1    0    0  502  501  0.00000000000E+00  0.00000000000E+00  0.55194689390E+03  0.55194689390E+03  0.00000000000E+00 0. -1.
         21   -1    0    0  503  502 -0.00000000000E+00 -0.00000000000E+00 -0.16194950001E+03  0.16194950001E+03  0.00000000000E+00 0.  1.
         25    1    1    2    0    0 -0.68736765189E+02  0.22016909127E+03  0.40523768267E+03  0.48274398090E+03  0.12500000000E+03 0.  0.
         21    1    1    2  503  501  0.68736765189E+02 -0.22016909127E+03 -0.15240288790E+02  0.23115241301E+03  0.00000000000E+00 0.  1.
<mgrwt>
<rscale>  3 0.26234361E+03</rscale>
<asrwt>0</asrwt>
<pdfrwt beam="1">  1       21 0.84914906E-01 0.26234361E+03</pdfrwt>
<pdfrwt beam="2">  1       21 0.24915308E-01 0.26234361E+03</pdfrwt>
<totfact> 0.17616359E+04</totfact>
</mgrwt>
</event>
<event>
 4    0  0.1525083E-001  0.2511496E+03  0.7546771E-02  0.1112580E+00
         21   -1    0    0  502  501  0.00000000000E+00  0.00000000000E+00  0.11153808559E+03  0.11153808559E+03  0.00000000000E+00 0.  1.
         21   -1    0    0  503  502 -0.00000000000E+00 -0.00000000000E+00 -0.54800828945E+03  0.54800828945E+03  0.00000000000E+00 0.  1.
         25    1    1    2    0    0 -0.16191629852E+03  0.14571963408E+03 -0.12792017726E+03  0.28185044125E+03  0.12500000000E+03 0.  0.
         21    1    1    2  503  501  0.16191629852E+03 -0.14571963408E+03 -0.30855002661E+03  0.37769593379E+03  0.00000000000E+00 0.  1.
<mgrwt>
<rscale>  3 0.25114956E+03</rscale>
<asrwt>0</asrwt>
<pdfrwt beam="1">  1       21 0.17159706E-01 0.25114956E+03</pdfrwt>
<pdfrwt beam="2">  1       21 0.84308966E-01 0.25114956E+03</pdfrwt>
<totfact> 0.36378873E+04</totfact>
</mgrwt>
</event>
<event>
 4    0  0.1525083E-001  0.3910513E+03  0.7546771E-02  0.1046923E+00
         21   -1    0    0  502  501  0.00000000000E+00  0.00000000000E+00  0.11126371060E+04  0.11126371060E+04  0.00000000000E+00 0. -1.
         21   -1    0    0  503  502 -0.00000000000E+00 -0.00000000000E+00 -0.22208695206E+03  0.22208695206E+03  0.00000000000E+00 0. -1.
         25    1    1    2    0    0  0.27573007631E+03  0.24752589996E+03  0.88119919103E+03  0.96407113866E+03  0.12500000000E+03 0.  0.
         21    1    1    2  503  501 -0.27573007631E+03 -0.24752589996E+03  0.93509628891E+01  0.37065291937E+03  0.00000000000E+00 0. -1.
<mgrwt>
<rscale>  3 0.39105133E+03</rscale>
<asrwt>0</asrwt>
<pdfrwt beam="1">  1       21 0.17117494E+00 0.39105133E+03</pdfrwt>
<pdfrwt beam="2">  1       21 0.34167224E-01 0.39105133E+03</pdfrwt>
<totfact> 0.15035684E+03</totfact>
</mgrwt>
</event>
<event>
 4    0  0.1525083E-001  0.2979910E+03  0.7546771E-02  0.1086249E+00
         21   -1    0    0  502  501  0.00000000000E+00  0.00000000000E+00  0.16647178829E+03  0.16647178829E+03  0.00000000000E+00 0. -1.
         21   -1    0    0  503  502 -0.00000000000E+00 -0.00000000000E+00 -0.81902677796E+03  0.81902677796E+03  0.00000000000E+00 0.  1.
         25    1    1    2    0    0  0.26533866165E+03  0.52621417552E+02 -0.21329715740E+02  0.29875336940E+03  0.12500000000E+03 0.  0.
         21    1    1    2  503  501 -0.26533866165E+03 -0.52621417552E+02 -0.63122527393E+03  0.68674519686E+03  0.00000000000E+00 0.  1.
<mgrwt>
<rscale>  3 0.29799097E+03</rscale>
<asrwt>0</asrwt>
<pdfrwt beam="1">  1       21 0.25611044E-01 0.29799097E+03</pdfrwt>
<pdfrwt beam="2">  1       21 0.12600412E+00 0.29799097E+03</pdfrwt>
<totfact> 0.63214815E+03</totfact>
</mgrwt>
</event>
<event>
 4    0  0.1525083E-001  0.2853287E+03  0.7546771E-02  0.1092814E+00
         21   -1    0    0  502  501  0.00000000000E+00  0.00000000000E+00  0.22066806652E+03  0.22066806652E+03  0.00000000000E+00 0.  1.
         21   -1    0    0  503  502 -0.00000000000E+00 -0.00000000000E+00 -0.41689040938E+03  0.41689040938E+03  0.00000000000E+00 0. -1.
         25    1    1    2    0    0  0.19621206057E+03  0.16519161714E+03  0.40909360620E+02  0.28824645509E+03  0.12500000000E+03 0.  0.
         21    1    1    2  503  501 -0.19621206057E+03 -0.16519161714E+03 -0.23713170348E+03  0.34931202081E+03  0.00000000000E+00 0. -1.
<mgrwt>
<rscale>  3 0.28532866E+03</rscale>
<asrwt>0</asrwt>
<pdfrwt beam="1">  1       21 0.33948933E-01 0.28532866E+03</pdfrwt>
<pdfrwt beam="2">  1       21 0.64136986E-01 0.28532866E+03</pdfrwt>
<totfact> 0.17873131E+04</totfact>
</mgrwt>
</event>
<event>
 4    0  0.1525083E-001  0.2599196E+03  0.7546771E-02  0.1107192E+00
         21   -1    0    0  503  501  0.00000000000E+00  0.00000000000E+00  0.23785100934E+03  0.23785100934E+03  0.00000000000E+00 0. -1.
         21   -1    0    0  501  502 -0.00000000000E+00 -0.00000000000E+00 -0.47271562565E+03  0.47271562565E+03  0.00000000000E+00 0.  1.
         25    1    1    2    0    0  0.13009123763E+02 -0.22751697987E+03  0.12201407913E+03  0.28713350368E+03  0.12500000000E+03 0.  0.
         21    1    1    2  503  502 -0.13009123763E+02  0.22751697987E+03 -0.35687869544E+03  0.42343313131E+03  0.00000000000E+00 0.  1.
<mgrwt>
<rscale>  3 0.25991963E+03</rscale>
<asrwt>0</asrwt>
<pdfrwt beam="1">  1       21 0.36592463E-01 0.25991963E+03</pdfrwt>
<pdfrwt beam="2">  1       21 0.72725481E-01 0.25991963E+03</pdfrwt>
<totfact> 0.11783345E+04</totfact>
</mgrwt>
</event>
<event>
 4    0  0.1525083E-001  0.3015851E+03  0.7546771E-02  0.1084451E+00
         21   -1    0    0  502  501  0.00000000000E+00  0.00000000000E+00  0.94237539259E+02  0.94237539259E+02  0.00000000000E+00 0.  1.
         21   -1    0    0  503  502 -0.00000000000E+00 -0.00000000000E+00 -0.13994159298E+04  0.13994159298E+04  0.00000000000E+00 0.  1.
         25    1    1    2    0    0  0.69301299502E+02 -0.26556715575E+03 -0.21737474124E+03  0.37175981824E+03  0.12500000000E+03 0.  0.
         21    1    1    2  503  501 -0.69301299502E+02  0.26556715575E+03 -0.10878036493E+04  0.11218936508E+04  0.00000000000E+00 0.  1.
<mgrwt>
<rscale>  3 0.30158512E+03</rscale>
<asrwt>0</asrwt>
<pdfrwt beam="1">  1       21 0.14498085E-01 0.30158512E+03</pdfrwt>
<pdfrwt beam="2">  1       21 0.21529473E+00 0.30158512E+03</pdfrwt>
<totfact> 0.41198744E+03</totfact>
</mgrwt>
</event>
<event>
 4    0  0.1525083E-001  0.2787077E+03  0.7546771E-02  0.1096397E+00
         21   -1    0    0  503  501  0.00000000000E+00  0.00000000000E+00  0.29382752351E+03  0.29382752351E+03  0.00000000000E+00 0. -1.
         21   -1    0    0  501  502 -0.00000000000E+00 -0.00000000000E+00 -0.24840340000E+03  0.24840340000E+03  0.00000000000E+00 0.  1.
         25    1    1    2    0    0  0.11141548391E+03 -0.22279935845E+03  0.81849053345E+02  0.29047759245E+03  0.12500000000E+03 0.  0.
         21    1    1    2  503  502 -0.11141548391E+03  0.22279935845E+03 -0.36424929837E+02  0.25175333105E+03  0.00000000000E+00 0.  1.
<mgrwt>
<rscale>  3 0.27870767E+03</rscale>
<asrwt>0</asrwt>
<pdfrwt beam="1">  1       21 0.45204234E-01 0.27870767E+03</pdfrwt>
<pdfrwt beam="2">  1       21 0.38215908E-01 0.27870767E+03</pdfrwt>
<totfact> 0.29765372E+04</totfact>
</mgrwt>
</event>
<event>
 4    0  0.1525083E-001  0.3180281E+03  0.7546771E-02  0.1076560E+00
         21   -1    0    0  503  501  0.00000000000E+00  0.00000000000E+00  0.29378862911E+03  0.29378862911E+03  0.00000000000E+00 0.  1.
         21   -1    0    0  501  502 -0.00000000000E+00 -0.00000000000E+00 -0.51988370005E+03  0.51988370005E+03  0.00000000000E+00 0.  1.
         25    1    1    2    0    0 -0.64865164753E+02  0.28514802097E+03  0.13800115054E+03  0.34667881534E+03  0.12500000000E+03 0.  0.
         21    1    1    2  503  502  0.64865164753E+02 -0.28514802097E+03 -0.36409622147E+03  0.46699351382E+03  0.00000000000E+00 0.  1.
<mgrwt>
<rscale>  3 0.31802812E+03</rscale>
<asrwt>0</asrwt>
<pdfrwt beam="1">  1       21 0.45198251E-01 0.31802812E+03</pdfrwt>
<pdfrwt beam="2">  1       21 0.79982106E-01 0.31802812E+03</pdfrwt>
<totfact> 0.59964652E+03</totfact>
</mgrwt>
</event>
<event>
 4    0  0.1525083E-001  0.2380882E+03  0.7546771E-02  0.1121073E+00
         21   -1    0    0  503  501  0.00000000000E+00  0.00000000000E+00  0.10726509739E+04  0.10726509739E+04  0.00000000000E+00 0.  1.
         21   -1    0    0  501  502 -0.00000000000E+00 -0.00000000000E+00 -0.23030243261E+03  0.23030243261E+03  0.00000000000E+00 0.  1.
         25    1    1    2    0    0  0.18894575102E+03 -0.73215484342E+02  0.10114092485E+04  0.10390547011E+04  0.12500000000E+03 0.  0.
         21    1    1    2  503  502 -0.18894575102E+03  0.73215484342E+02 -0.16906070722E+03  0.26389870538E+03  0.00000000000E+00 0.  1.
<mgrwt>
<rscale>  3 0.23808823E+03</rscale>
<asrwt>0</asrwt>
<pdfrwt beam="1">  1       21 0.16502322E+00 0.23808823E+03</pdfrwt>
<pdfrwt beam="2">  1       21 0.35431144E-01 0.23808823E+03</pdfrwt>
<totfact> 0.17050695E+03</totfact>
</mgrwt>
</event>
<event>
 4    0  0.1525083E-001  0.2664023E+03  0.7546771E-02  0.1103356E+00
         21   -1    0    0  503  501  0.00000000000E+00  0.00000000000E+00  0.52965428090E+03  0.52965428090E+03  0.00000000000E+00 0. -1.
         21   -1    0    0  501  502 -0.00000000000E+00 -0.00000000000E+00 -0.15510223910E+03  0.15510223910E+03  0.00000000000E+00 0.  1.
         25    1    1    2    0    0 -0.22045635485E+03 -0.82123037536E+02  0.36160914058E+03  0.44914515275E+03  0.12500000000E+03 0.  0.
         21    1    1    2  503  502  0.22045635485E+03  0.82123037536E+02  0.12942901225E+02  0.23561136725E+03  0.00000000000E+00 0.  1.
<mgrwt>
<rscale>  3 0.26640232E+03</rscale>
<asrwt>0</asrwt>
<pdfrwt beam="1">  1       21 0.81485273E-01 0.26640232E+03</pdfrwt>
<pdfrwt beam="2">  1       21 0.23861883E-01 0.26640232E+03</pdfrwt>
<totfact> 0.21000295E+04</totfact>
</mgrwt>
</event>
<event>
 4    0  0.1525083E-001  0.2772163E+03  0.7546771E-02  0.1097219E+00
         21   -1    0    0  502  501  0.00000000000E+00  0.00000000000E+00  0.41650201587E+03  0.41650201587E+03  0.00000000000E+00 0.  1.
         21   -1    0    0  503  502 -0.00000000000E+00 -0.00000000000E+00 -0.19519808148E+03  0.19519808148E+03  0.00000000000E+00 0.  1.
         25    1    1    2    0    0  0.41906209374E+02 -0.24386014538E+03  0.23566351784E+03  0.36384913704E+03  0.12500000000E+03 0.  0.
         21    1    1    2  503  501 -0.41906209374E+02  0.24386014538E+03 -0.14359583447E+02  0.24785096031E+03  0.00000000000E+00 0.  1.
<mgrwt>
<rscale>  3 0.27721634E+03</rscale>
<asrwt>0</asrwt>
<pdfrwt beam="1">  1       21 0.64077233E-01 0.27721634E+03</pdfrwt>
<pdfrwt beam="2">  1       21 0.30030474E-01 0.27721634E+03</pdfrwt>
<totfact> 0.22914054E+04</totfact>
</mgrwt>
</event>
<event>
 4    0  0.1525083E-001  0.2826637E+03  0.7546771E-02  0.1094243E+00
         21   -1    0    0  503  501  0.00000000000E+00  0.00000000000E+00  0.34257876534E+03  0.34257876534E+03  0.00000000000E+00 0. -1.
         21   -1    0    0  501  502 -0.00000000000E+00 -0.00000000000E+00 -0.23556874680E+03  0.23556874680E+03  0.00000000000E+00 0. -1.
         25    1    1    2    0    0 -0.24776182571E+03 -0.53738667706E+02 -0.39382686342E+02  0.28539404806E+03  0.12500000000E+03 0.  0.
         21    1    1    2  503  502  0.24776182571E+03  0.53738667706E+02  0.14639270488E+03  0.29275346407E+03  0.00000000000E+00 0. -1.
<mgrwt>
<rscale>  3 0.28266370E+03</rscale>
<asrwt>0</asrwt>
<pdfrwt beam="1">  1       21 0.52704426E-01 0.28266370E+03</pdfrwt>
<pdfrwt beam="2">  1       21 0.36241345E-01 0.28266370E+03</pdfrwt>
<totfact> 0.23971920E+04</totfact>
</mgrwt>
</event>
<event>
 4    0  0.1525083E-001  0.3782616E+03  0.7546771E-02  0.1051578E+00
         21   -1    0    0  502  501  0.00000000000E+00  0.00000000000E+00  0.13314753466E+03  0.13314753466E+03  0.00000000000E+00 0. -1.
         21   -1    0    0  503  502 -0.00000000000E+00 -0.00000000000E+00 -0.10688792949E+04  0.10688792949E+04  0.00000000000E+00 0.  1.
         25    1    1    2    0    0 -0.33263987565E+03  0.12964393167E+03 -0.34593405950E+03  0.51259361039E+03  0.12500000000E+03 0.  0.
         21    1    1    2  503  501  0.33263987565E+03 -0.12964393167E+03 -0.58979770070E+03  0.68943321914E+03  0.00000000000E+00 0.  1.
<mgrwt>
<rscale>  3 0.37826160E+03</rscale>
<asrwt>0</asrwt>
<pdfrwt beam="1">  1       21 0.20484237E-01 0.37826160E+03</pdfrwt>
<pdfrwt beam="2">  1       21 0.16444296E+00 0.37826160E+03</pdfrwt>
<totfact> 0.46006704E+03</totfact>
</mgrwt>
</event>
<event>
 4    0  0.1525083E-001  0.2447554E+03  0.7546771E-02  0.1116665E+00
         21   -1    0    0  503  501  0.00000000000E+00  0.00000000000E+00  0.24559535793E+03  0.24559535793E+03  0.00000000000E+00 0. -1.
         21   -1    0    0  501  502 -0.00000000000E+00 -0.00000000000E+00 -0.31127160748E+03  0.31127160748E+03  0.00000000000E+00 0.  1.
         25    1    1    2    0    0  0.20440654477E+03  0.49981850718E+02  0.12328155137E+03  0.27405029074E+03  0.12500000000E+03 0.  0.
         21    1    1    2  503  502 -0.20440654477E+03 -0.49981850718E+02 -0.18895780092E+03  0.28281667468E+03  0.00000000000E+00 0.  1.
<mgrwt>
<rscale>  3 0.24475543E+03</rscale>
<asrwt>0</asrwt>
<pdfrwt beam="1">  1       21 0.37783901E-01 0.24475543E+03</pdfrwt>
<pdfrwt beam="2">  1       21 0.47887940E-01 0.24475543E+03</pdfrwt>
<totfact> 0.27410120E+04</totfact>
</mgrwt>
</event>
<event>
 4    0  0.1525083E-001  0.4134953E+03  0.7546771E-02  0.1039204E+00
         21   -1    0    0  503  501  0.00000000000E+00  0.00000000000E+00  0.55374701767E+03  0.55374701767E+03  0.00000000000E+00 0. -1.
         21   -1    0    0  501  502 -0.00000000000E+00 -0.00000000000E+00 -0.33681713066E+03  0.33681713066E+03  0.00000000000E+00 0. -1.
         25    1    1    2    0    0 -0.23743322421E+03 -0.31460904882E+03  0.26855023478E+03  0.49304930601E+03  0.12500000000E+03 0.  0.
         21    1    1    2  503  502  0.23743322421E+03  0.31460904882E+03 -0.51620347771E+02  0.39751484231E+03  0.00000000000E+00 0. -1.
<mgrwt>
<rscale>  3 0.41349533E+03</rscale>
<asrwt>0</asrwt>
<pdfrwt beam="1">  1       21 0.85191849E-01 0.41349533E+03</pdfrwt>
<pdfrwt beam="2">  1       21 0.51818020E-01 0.41349533E+03</pdfrwt>
<totfact> 0.37333374E+03</totfact>
</mgrwt>
</event>
<event>
 4    0  0.1525083E-001  0.2651109E+03  0.7546771E-02  0.1104111E+00
         21   -1    0    0  502  501  0.00000000000E+00  0.00000000000E+00  0.68942960676E+02  0.68942960676E+02  0.00000000000E+00 0. -1.
         21   -1    0    0  503  502 -0.00000000000E+00 -0.00000000000E+00 -0.91442563958E+03  0.91442563958E+03  0.00000000000E+00 0. -1.
         25    1    1    2    0    0  0.21557594085E+03  0.90475340617E+02 -0.39306580242E+03  0.47411443615E+03  0.12500000000E+03 0.  0.
         21    1    1    2  503  501 -0.21557594085E+03 -0.90475340617E+02 -0.45241687649E+03  0.50925416411E+03  0.00000000000E+00 0. -1.
<mgrwt>
<rscale>  3 0.26511087E+03</rscale>
<asrwt>0</asrwt>
<pdfrwt beam="1">  1       21 0.10606610E-01 0.26511087E+03</pdfrwt>
<pdfrwt beam="2">  1       21 0.14068086E+00 0.26511087E+03</pdfrwt>
<totfact> 0.24808275E+04</totfact>
</mgrwt>
</event>
<event>
 4    0  0.1525083E-001  0.2705242E+03  0.7546771E-02  0.1100980E+00
         21   -1    0    0  502  501  0.00000000000E+00  0.00000000000E+00  0.40900249394E+03  0.40900249394E+03  0.00000000000E+00 0.  1.
         21   -1    0    0  503  502 -0.00000000000E+00 -0.00000000000E+00 -0.16914749380E+03  0.16914749380E+03  0.00000000000E+00 0. -1.
         25    1    1    2    0    0 -0.22266500104E+03  0.89323308900E+02  0.19648137046E+03  0.33434755142E+03  0.12500000000E+03 0.  0.
         21    1    1    2  503  501  0.22266500104E+03 -0.89323308900E+02  0.43373629672E+02  0.24380243632E+03  0.00000000000E+00 0. -1.
<mgrwt>
<rscale>  3 0.27052422E+03</rscale>
<asrwt>0</asrwt>
<pdfrwt beam="1">  1       21 0.62923460E-01 0.27052422E+03</pdfrwt>
<pdfrwt beam="2">  1       21 0.26022691E-01 0.27052422E+03</pdfrwt>
<totfact> 0.31611305E+04</totfact>
</mgrwt>
</event>
<event>
 4    0  0.1525083E-001  0.2566165E+03  0.7546771E-02  0.1109193E+00
         21   -1    0    0  503  501  0.00000000000E+00  0.00000000000E+00  0.11910068439E+03  0.11910068439E+03  0.00000000000E+00 0. -1.
         21   -1    0    0  501  502 -0.00000000000E+00 -0.00000000000E+00 -0.49553650241E+03  0.49553650241E+03  0.00000000000E+00 0. -1.
         25    1    1    2    0    0  0.66105665105E+02 -0.21414263811E+03 -0.15617026295E+03  0.30040169681E+03  0.12500000000E+03 0.  0.
         21    1    1    2  503  502 -0.66105665105E+02  0.21414263811E+03 -0.22026555508E+03  0.31423548999E+03  0.00000000000E+00 0. -1.
<mgrwt>
<rscale>  3 0.25661650E+03</rscale>
<asrwt>0</asrwt>
<pdfrwt beam="1">  1       21 0.18323182E-01 0.25661650E+03</pdfrwt>
<pdfrwt beam="2">  1       21 0.76236387E-01 0.25661650E+03</pdfrwt>
<totfact> 0.40409971E+04</totfact>
</mgrwt>
</event>
<event>
 4    0  0.1525083E-001  0.2753521E+03  0.7546771E-02  0.1098255E+00
         21   -1    0    0  502  501  0.00000000000E+00  0.00000000000E+00  0.27743469076E+03  0.27743469076E+03  0.00000000000E+00 0.  1.
         21   -1    0    0  503  502 -0.00000000000E+00 -0.00000000000E+00 -0.26276137559E+03  0.26276137559E+03  0.00000000000E+00 0.  1.
         25    1    1    2    0    0  0.20167413546E+03  0.13971870153E+03 -0.63725999982E+02  0.28263010375E+03  0.12500000000E+03 0.  0.
         21    1    1    2  503  501 -0.20167413546E+03 -0.13971870153E+03  0.78399315154E+02  0.25756596259E+03  0.00000000000E+00 0.  1.
<mgrwt>
<rscale>  3 0.27535209E+03</rscale>
<asrwt>0</asrwt>
<pdfrwt beam="1">  1       21 0.42682260E-01 0.27535209E+03</pdfrwt>
<pdfrwt beam="2">  1       21 0.40424827E-01 0.27535209E+03</pdfrwt>
<totfact> 0.29934172E+04</totfact>
</mgrwt>
</event>
<event>
 4    0  0.1525083E-001  0.2900253E+03  0.7546771E-02  0.1090336E+00
         21   -1    0    0  503  501  0.00000000000E+00  0.00000000000E+00  0.40365661338E+03  0.40365661338E+03  0.00000000000E+00 0.  1.
         21   -1    0    0  501  502 -0.00000000000E+00 -0.00000000000E+00 -0.25097075353E+03  0.25097075353E+03  0.00000000000E+00 0. -1.
         25    1    1    2    0    0 -0.24561559319E+03  0.90347306202E+02  0.24238670262E+03  0.37797614867E+03  0.12500000000E+03 0.  0.
         21    1    1    2  503  502  0.24561559319E+03 -0.90347306202E+02 -0.89700842770E+02  0.27665121824E+03  0.00000000000E+00 0. -1.
<mgrwt>
<rscale>  3 0.29002527E+03</rscale>
<asrwt>0</asrwt>
<pdfrwt beam="1">  1       21 0.62101017E-01 0.29002527E+03</pdfrwt>
<pdfrwt beam="2">  1       21 0.38610885E-01 0.29002527E+03</pdfrwt>
<totfact> 0.14774286E+04</totfact>
</mgrwt>
</event>
<event>
 4    0  0.1525083E-001  0.2739935E+03  0.7546771E-02  0.1099016E+00
         21   -1    0    0  502  501  0.00000000000E+00  0.00000000000E+00  0.23194196751E+03  0.23194196751E+03  0.00000000000E+00 0.  1.
         21   -1    0    0  503  502 -0.00000000000E+00 -0.00000000000E+00 -0.72048465635E+03  0.72048465635E+03  0.00000000000E+00 0.  1.
         25    1    1    2    0    0 -0.24221899050E+03  0.27882271384E+02  0.11829479587E+03  0.29843947317E+03  0.12500000000E+03 0.  0.
         21    1    1    2  503  501  0.24221899050E+03 -0.27882271384E+02 -0.60683748472E+03  0.65398715069E+03  0.00000000000E+00 0.  1.
<mgrwt>
<rscale>  3 0.27399354E+03</rscale>
<asrwt>0</asrwt>
<pdfrwt beam="1">  1       21 0.35683380E-01 0.27399354E+03</pdfrwt>
<pdfrwt beam="2">  1       21 0.11084379E+00 0.27399354E+03</pdfrwt>
<totfact> 0.45887385E+03</totfact>
</mgrwt>
</event>
<event>
 4    0  0.1525083E-001  0.2590516E+03  0.7546771E-02  0.1107714E+00
         21   -1    0    0  503  501  0.00000000000E+00  0.00000000000E+00  0.13237198814E+03  0.13237198814E+03  0.00000000000E+00 0.  1.
         21   -1    0    0  501  502 -0.00000000000E+00 -0.00000000000E+00 -0.47216504018E+03  0.47216504018E+03  0.00000000000E+00 0.  1.
         25    1    1    2    0    0 -0.19601680045E+03  0.11428098962E+03 -0.25153441934E+03  0.36107796216E+03  0.12500000000E+03 0.  0.
         21    1    1    2  503  502  0.19601680045E+03 -0.11428098962E+03 -0.88258632697E+02  0.24345906616E+03  0.00000000000E+00 0.  1.
<mgrwt>
<rscale>  3 0.25905160E+03</rscale>
<asrwt>0</asrwt>
<pdfrwt beam="1">  1       21 0.20364922E-01 0.25905160E+03</pdfrwt>
<pdfrwt beam="2">  1       21 0.72640775E-01 0.25905160E+03</pdfrwt>
<totfact> 0.36914090E+04</totfact>
</mgrwt>
</event>
<event>
 4    0  0.1525083E-001  0.2477934E+03  0.7546771E-02  0.1114707E+00
         21   -1    0    0  502  501  0.00000000000E+00  0.00000000000E+00  0.80312250119E+02  0.80312250119E+02  0.00000000000E+00 0.  1.
         21   -1    0    0  503  502 -0.00000000000E+00 -0.00000000000E+00 -0.73483964208E+03  0.73483964208E+03  0.00000000000E+00 0.  1.
         25    1    1    2    0    0  0.20152328079E+03 -0.71867376719E+02 -0.22241359335E+03  0.33297050777E+03  0.12500000000E+03 0.  0.
         21    1    1    2  503  501 -0.20152328079E+03  0.71867376719E+02 -0.43211379861E+03  0.48218138443E+03  0.00000000000E+00 0.  1.
<mgrwt>
<rscale>  3 0.24779337E+03</rscale>
<asrwt>0</asrwt>
<pdfrwt beam="1">  1       21 0.12355731E-01 0.24779337E+03</pdfrwt>
<pdfrwt beam="2">  1       21 0.11305225E+00 0.24779337E+03</pdfrwt>
<totfact> 0.33067489E+04</totfact>
</mgrwt>
</event>
<event>
 4    0  0.1525083E-001  0.3865428E+03  0.7546771E-02  0.1048542E+00
         21   -1    0    0  502  501  0.00000000000E+00  0.00000000000E+00  0.81606176972E+03  0.81606176972E+03  0.00000000000E+00 0. -1.
         21   -1    0    0  503  502 -0.00000000000E+00 -0.00000000000E+00 -0.55252524389E+03  0.55252524389E+03  0.00000000000E+00 0.  1.
         25    1    1    2    0    0  0.22786713749E+03 -0.28612386764E+03  0.69968769325E+03  0.79936109992E+03  0.12500000000E+03 0.  0.
         21    1    1    2  503  501 -0.22786713749E+03  0.28612386764E+03 -0.43615116742E+03  0.56922591370E+03  0.00000000000E+00 0.  1.
<mgrwt>
<rscale>  3 0.38654275E+03</rscale>
<asrwt>0</asrwt>
<pdfrwt beam="1">  1       21 0.12554796E+00 0.38654275E+03</pdfrwt>
<pdfrwt beam="2">  1       21 0.85003883E-01 0.38654275E+03</pdfrwt>
<totfact> 0.48700944E+02</totfact>
</mgrwt>
</event>
<event>
 4    0  0.1525083E-001  0.2873919E+03  0.7546771E-02  0.1091719E+00
         21   -1    0    0  503  501  0.00000000000E+00  0.00000000000E+00  0.36829249785E+03  0.36829249785E+03  0.00000000000E+00 0.  1.
         21   -1    0    0  501  502 -0.00000000000E+00 -0.00000000000E+00 -0.21512544062E+03  0.21512544062E+03  0.00000000000E+00 0.  1.
         25    1    1    2    0    0  0.15058711764E+03  0.21045815500E+03  0.15095359500E+03  0.32462455675E+03  0.12500000000E+03 0.  0.
         21    1    1    2  503  502 -0.15058711764E+03 -0.21045815500E+03  0.22134622336E+01  0.25879338172E+03  0.00000000000E+00 0.  1.
<mgrwt>
<rscale>  3 0.28739192E+03</rscale>
<asrwt>0</asrwt>
<pdfrwt beam="1">  1       21 0.56660384E-01 0.28739192E+03</pdfrwt>
<pdfrwt beam="2">  1       21 0.33096222E-01 0.28739192E+03</pdfrwt>
<totfact> 0.24586015E+04</totfact>
</mgrwt>
</event>
<event>
 4    0  0.1525083E-001  0.2788559E+03  0.7546771E-02  0.1096315E+00
         21   -1    0    0  503  501  0.00000000000E+00  0.00000000000E+00  0.18457977398E+03  0.18457977398E+03  0.00000000000E+00 0.  1.
         21   -1    0    0  501  502 -0.00000000000E+00 -0.00000000000E+00 -0.40693840281E+03  0.40693840281E+03  0.00000000000E+00 0. -1.
         25    1    1    2    0    0 -0.24179779579E+03 -0.60575820506E+02 -0.19602424177E+03  0.34086083295E+03  0.12500000000E+03 0.  0.
         21    1    1    2  503  502  0.24179779579E+03  0.60575820506E+02 -0.26334387060E+02  0.25065734384E+03  0.00000000000E+00 0. -1.
<mgrwt>
<rscale>  3 0.27885588E+03</rscale>
<asrwt>0</asrwt>
<pdfrwt beam="1">  1       21 0.28396889E-01 0.27885588E+03</pdfrwt>
<pdfrwt beam="2">  1       21 0.62605908E-01 0.27885588E+03</pdfrwt>
<totfact> 0.26883321E+04</totfact>
</mgrwt>
</event>
<event>
 4    0  0.1525083E-001  0.2550470E+03  0.7546771E-02  0.1110156E+00
         21   -1    0    0  502  501  0.00000000000E+00  0.00000000000E+00  0.26049621773E+03  0.26049621773E+03  0.00000000000E+00 0.  1.
         21   -1    0    0  503  502 -0.00000000000E+00 -0.00000000000E+00 -0.31351437376E+03  0.31351437376E+03  0.00000000000E+00 0.  1.
         25    1    1    2    0    0 -0.21523807960E+03  0.55646590901E+02  0.12980317048E+03  0.28617798143E+03  0.12500000000E+03 0.  0.
         21    1    1    2  503  501  0.21523807960E+03 -0.55646590901E+02 -0.18282132650E+03  0.28783261006E+03  0.00000000000E+00 0.  1.
<mgrwt>
<rscale>  3 0.25504700E+03</rscale>
<asrwt>0</asrwt>
<pdfrwt beam="1">  1       21 0.40076341E-01 0.25504700E+03</pdfrwt>
<pdfrwt beam="2">  1       21 0.48232981E-01 0.25504700E+03</pdfrwt>
<totfact> 0.23854302E+04</totfact>
</mgrwt>
</event>
<event>
 4    0  0.1525083E-001  0.2429555E+03  0.7546771E-02  0.1117839E+00
         21   -1    0    0  502  501  0.00000000000E+00  0.00000000000E+00  0.11619102055E+04  0.11619102055E+04  0.00000000000E+00 0. -1.
         21   -1    0    0  503  502 -0.00000000000E+00 -0.00000000000E+00 -0.46700835446E+02  0.46700835446E+02  0.00000000000E+00 0. -1.
         25    1    1    2    0    0 -0.12764149684E+03 -0.16465117421E+03  0.74741539069E+03  0.78591165351E+03  0.12500000000E+03 0.  0.
         21    1    1    2  503  501  0.12764149684E+03  0.16465117421E+03  0.36779397938E+03  0.42269938745E+03  0.00000000000E+00 0. -1.
<mgrwt>
<rscale>  3 0.24295547E+03</rscale>
<asrwt>0</asrwt>
<pdfrwt beam="1">  1       21 0.17875539E+00 0.24295547E+03</pdfrwt>
<pdfrwt beam="2">  1       21 0.71847448E-02 0.24295547E+03</pdfrwt>
<totfact> 0.25988366E+04</totfact>
</mgrwt>
</event>
<event>
 4    0  0.1525083E-001  0.3295794E+03  0.7546771E-02  0.1071323E+00
         21   -1    0    0  502  501  0.00000000000E+00  0.00000000000E+00  0.48535501563E+03  0.48535501563E+03  0.00000000000E+00 0. -1.
         21   -1    0    0  503  502 -0.00000000000E+00 -0.00000000000E+00 -0.25103262207E+03  0.25103262207E+03  0.00000000000E+00 0. -1.
         25    1    1    2    0    0  0.98989319690E+02 -0.28844188003E+03 -0.32505013963E+02  0.33117847076E+03  0.12500000000E+03 0.  0.
         21    1    1    2  503  501 -0.98989319690E+02  0.28844188003E+03  0.26682740752E+03  0.40520916694E+03  0.00000000000E+00 0. -1.
<mgrwt>
<rscale>  3 0.32957943E+03</rscale>
<asrwt>0</asrwt>
<pdfrwt beam="1">  1       21 0.74670003E-01 0.32957943E+03</pdfrwt>
<pdfrwt beam="2">  1       21 0.38620403E-01 0.32957943E+03</pdfrwt>
<totfact> 0.96424096E+03</totfact>
</mgrwt>
</event>
<event>
 4    0  0.1525083E-001  0.2760089E+03  0.7546771E-02  0.1097889E+00
         21   -1    0    0  502  501  0.00000000000E+00  0.00000000000E+00  0.17419889808E+03  0.17419889808E+03  0.00000000000E+00 0. -1.
         21   -1    0    0  503  502 -0.00000000000E+00 -0.00000000000E+00 -0.42034488766E+03  0.42034488766E+03  0.00000000000E+00 0. -1.
         25    1    1    2    0    0 -0.21728854724E+03 -0.11550589508E+03 -0.51465511375E+02  0.28076613652E+03  0.12500000000E+03 0.  0.
         21    1    1    2  503  501  0.21728854724E+03  0.11550589508E+03 -0.19468047820E+03  0.31377764922E+03  0.00000000000E+00 0. -1.
<mgrwt>
<rscale>  3 0.27600892E+03</rscale>
<asrwt>0</asrwt>
<pdfrwt beam="1">  1       21 0.26799831E-01 0.27600892E+03</pdfrwt>
<pdfrwt beam="2">  1       21 0.64668444E-01 0.27600892E+03</pdfrwt>
<totfact> 0.28062396E+04</totfact>
</mgrwt>
</event>
<event>
 4    0  0.1525083E-001  0.2818233E+03  0.7546771E-02  0.1094697E+00
         21   -1    0    0  502  501  0.00000000000E+00  0.00000000000E+00  0.20271897308E+03  0.20271897308E+03  0.00000000000E+00 0. -1.
         21   -1    0    0  503  502 -0.00000000000E+00 -0.00000000000E+00 -0.56092916335E+03  0.56092916335E+03  0.00000000000E+00 0.  1.
         25    1    1    2    0    0 -0.23597524191E+03  0.90083527301E+02  0.47438618651E+02  0.28578799700E+03  0.12500000000E+03 0.  0.
         21    1    1    2  503  501  0.23597524191E+03 -0.90083527301E+02 -0.40564880892E+03  0.47786013944E+03  0.00000000000E+00 0.  1.
<mgrwt>
<rscale>  3 0.28182327E+03</rscale>
<asrwt>0</asrwt>
<pdfrwt beam="1">  1       21 0.31187534E-01 0.28182327E+03</pdfrwt>
<pdfrwt beam="2">  1       21 0.86296794E-01 0.28182327E+03</pdfrwt>
<totfact> 0.10854520E+04</totfact>
</mgrwt>
</event>
<event>
 4    0  0.1525083E-001  0.3320235E+03  0.7546771E-02  0.1070245E+00
         21   -1    0    0  503  501  0.00000000000E+00  0.00000000000E+00  0.73278224818E+03  0.73278224818E+03  0.00000000000E+00 0.  1.
         21   -1    0    0  501  502 -0.00000000000E+00 -0.00000000000E+00 -0.15731888947E+03  0.15731888947E+03  0.00000000000E+00 0. -1.
         25    1    1    2    0    0  0.40166364199E+02  0.30496113509E+03  0.44685177521E+03  0.55670112245E+03  0.12500000000E+03 0.  0.
         21    1    1    2  503  502 -0.40166364199E+02 -0.30496113509E+03  0.12861158349E+03  0.33340001520E+03  0.00000000000E+00 0. -1.
<mgrwt>
<rscale>  3 0.33202354E+03</rscale>
<asrwt>0</asrwt>
<pdfrwt beam="1">  1       21 0.11273573E+00 0.33202354E+03</pdfrwt>
<pdfrwt beam="2">  1       21 0.24202906E-01 0.33202354E+03</pdfrwt>
<totfact> 0.91710550E+03</totfact>
</mgrwt>
</event>
<event>
 4    0  0.1525083E-001  0.3019122E+03  0.7546771E-02  0.1084289E+00
         21   -1    0    0  502  501  0.00000000000E+00  0.00000000000E+00  0.16596500653E+03  0.16596500653E+03  0.00000000000E+00 0.  1.
         21   -1    0    0  503  502 -0.00000000000E+00 -0.00000000000E+00 -0.52791441275E+03  0.52791441275E+03  0.00000000000E+00 0. -1.
         25    1    1    2    0    0  0.13934197874E+03 -0.23687506228E+03 -0.11084586996E+03  0.32161745764E+03  0.12500000000E+03 0.  0.
         21    1    1    2  503  501 -0.13934197874E+03  0.23687506228E+03 -0.25110353626E+03  0.37226196165E+03  0.00000000000E+00 0. -1.
<mgrwt>
<rscale>  3 0.30191221E+03</rscale>
<asrwt>0</asrwt>
<pdfrwt beam="1">  1       21 0.25533078E-01 0.30191221E+03</pdfrwt>
<pdfrwt beam="2">  1       21 0.81217602E-01 0.30191221E+03</pdfrwt>
<totfact> 0.18294544E+04</totfact>
</mgrwt>
</event>
<event>
 4    0  0.1525083E-001  0.3042865E+03  0.7546771E-02  0.1083117E+00
         21   -1    0    0  502  501  0.00000000000E+00  0.00000000000E+00  0.95032411587E+02  0.95032411587E+02  0.00000000000E+00 0. -1.
         21   -1    0    0  503  502 -0.00000000000E+00 -0.00000000000E+00 -0.93294236340E+03  0.93294236340E+03  0.00000000000E+00 0. -1.
         25    1    1    2    0    0 -0.25507424033E+03 -0.10909823226E+03 -0.32750420065E+03  0.44704506910E+03  0.12500000000E+03 0.  0.
         21    1    1    2  503  501  0.25507424033E+03  0.10909823226E+03 -0.51040575116E+03  0.58092970588E+03  0.00000000000E+00 0. -1.
<mgrwt>
<rscale>  3 0.30428653E+03</rscale>
<asrwt>0</asrwt>
<pdfrwt beam="1">  1       21 0.14620372E-01 0.30428653E+03</pdfrwt>
<pdfrwt beam="2">  1       21 0.14352959E+00 0.30428653E+03</pdfrwt>
<totfact> 0.12920891E+04</totfact>
</mgrwt>
</event>
<event>
 4    0  0.1525083E-001  0.2492023E+03  0.7546771E-02  0.1113810E+00
         21   -1    0    0  502  501  0.00000000000E+00  0.00000000000E+00  0.86979315691E+02  0.86979315691E+02  0.00000000000E+00 0.  1.
         21   -1    0    0  503  502 -0.00000000000E+00 -0.00000000000E+00 -0.63591167515E+03  0.63591167515E+03  0.00000000000E+00 0.  1.
         25    1    1    2    0    0  0.21527339672E+03 -0.11582262671E+02 -0.23848528211E+03  0.34493044795E+03  0.12500000000E+03 0.  0.
         21    1    1    2  503  501 -0.21527339672E+03  0.11582262671E+02 -0.31044707735E+03  0.37796054289E+03  0.00000000000E+00 0.  1.
<mgrwt>
<rscale>  3 0.24920230E+03</rscale>
<asrwt>0</asrwt>
<pdfrwt beam="1">  1       21 0.13381433E-01 0.24920230E+03</pdfrwt>
<pdfrwt beam="2">  1       21 0.97832566E-01 0.24920230E+03</pdfrwt>
<totfact> 0.40578102E+04</totfact>
</mgrwt>
</event>
<event>
 4    0  0.1525083E-001  0.2632155E+03  0.7546771E-02  0.1105227E+00
         21   -1    0    0  503  501  0.00000000000E+00  0.00000000000E+00  0.75151695130E+03  0.75151695130E+03  0.00000000000E+00 0.  1.
         21   -1    0    0  501  502 -0.00000000000E+00 -0.00000000000E+00 -0.97672004251E+02  0.97672004251E+02  0.00000000000E+00 0.  1.
         25    1    1    2    0    0  0.13123206711E+03  0.19088093577E+03  0.51699638109E+03  0.58014450368E+03  0.12500000000E+03 0.  0.
         21    1    1    2  503  502 -0.13123206711E+03 -0.19088093577E+03  0.13684856595E+03  0.26904445187E+03  0.00000000000E+00 0.  1.
<mgrwt>
<rscale>  3 0.26321548E+03</rscale>
<asrwt>0</asrwt>
<pdfrwt beam="1">  1       21 0.11561799E+00 0.26321548E+03</pdfrwt>
<pdfrwt beam="2">  1       21 0.15026463E-01 0.26321548E+03</pdfrwt>
<totfact> 0.21763594E+04</totfact>
</mgrwt>
</event>
<event>
 4    0  0.1525083E-001  0.3274371E+03  0.7546771E-02  0.1072277E+00
         21   -1    0    0  502  501  0.00000000000E+00  0.00000000000E+00  0.13379836168E+03  0.13379836168E+03  0.00000000000E+00 0. -1.
         21   -1    0    0  503  502 -0.00000000000E+00 -0.00000000000E+00 -0.97686257122E+03  0.97686257122E+03  0.00000000000E+00 0. -1.
         25    1    1    2    0    0  0.28549171303E+03  0.10042180907E+03 -0.16186617775E+03  0.36526116334E+03  0.12500000000E+03 0.  0.
         21    1    1    2  503  501 -0.28549171303E+03 -0.10042180907E+03 -0.68119803179E+03  0.74539976956E+03  0.00000000000E+00 0. -1.
<mgrwt>
<rscale>  3 0.32743711E+03</rscale>
<asrwt>0</asrwt>
<pdfrwt beam="1">  1       21 0.20584362E-01 0.32743711E+03</pdfrwt>
<pdfrwt beam="2">  1       21 0.15028656E+00 0.32743711E+03</pdfrwt>
<totfact> 0.59727341E+03</totfact>
</mgrwt>
</event>
<event>
 4    0  0.1525083E-001  0.2592106E+03  0.7546771E-02  0.1107618E+00
         21   -1    0    0  503  501  0.00000000000E+00  0.00000000000E+00  0.13081515826E+03  0.13081515826E+03  0.00000000000E+00 0.  1.
         21   -1    0    0  501  502 -0.00000000000E+00 -0.00000000000E+00 -0.46079427089E+03  0.46079427089E+03  0.00000000000E+00 0.  1.
         25    1    1    2    0    0  0.69351831960E+02  0.21623010189E+03 -0.13474619561E+03  0.29214152528E+03  0.12500000000E+03 0.  0.
         21    1    1    2  503  502 -0.69351831960E+02 -0.21623010189E+03 -0.19523291702E+03  0.29946790387E+03  0.00000000000E+00 0.  1.
<mgrwt>
<rscale>  3 0.25921060E+03</rscale>
<asrwt>0</asrwt>
<pdfrwt beam="1">  1       21 0.20125409E-01 0.25921060E+03</pdfrwt>
<pdfrwt beam="2">  1       21 0.70891426E-01 0.25921060E+03</pdfrwt>
<totfact> 0.39853681E+04</totfact>
</mgrwt>
</event>
<event>
 4    0  0.1525083E-001  0.2909781E+03  0.7546771E-02  0.1089840E+00
         21   -1    0    0  502  501  0.00000000000E+00  0.00000000000E+00  0.18227269013E+03  0.18227269013E+03  0.00000000000E+00 0. -1.
         21   -1    0    0  503  502 -0.00000000000E+00 -0.00000000000E+00 -0.59776281935E+03  0.59776281935E+03  0.00000000000E+00 0. -1.
         25    1    1    2    0    0  0.32764523706E+02  0.26071008348E+03 -0.30360287829E+01  0.29099395030E+03  0.12500000000E+03 0.  0.
         21    1    1    2  503  501 -0.32764523706E+02 -0.26071008348E+03 -0.41245410043E+03  0.48904155918E+03  0.00000000000E+00 0. -1.
<mgrwt>
<rscale>  3 0.29097811E+03</rscale>
<asrwt>0</asrwt>
<pdfrwt beam="1">  1       21 0.28041952E-01 0.29097811E+03</pdfrwt>
<pdfrwt beam="2">  1       21 0.91963511E-01 0.29097811E+03</pdfrwt>
<totfact> 0.11479723E+04</totfact>
</mgrwt>
</event>
<event>
 4    0  0.1525083E-001  0.2621728E+03  0.7546771E-02  0.1105845E+00
         21   -1    0    0  503  501  0.00000000000E+00  0.00000000000E+00  0.88826511991E+02  0.88826511991E+02  0.00000000000E+00 0.  1.
         21   -1    0    0  501  502 -0.00000000000E+00 -0.00000000000E+00 -0.10683647427E+04  0.10683647427E+04  0.00000000000E+00 0.  1.
         25    1    1    2    0    0  0.22948293138E+03 -0.21146794629E+02 -0.16290319872E+03  0.30866171591E+03  0.12500000000E+03 0.  0.
         21    1    1    2  503  502 -0.22948293138E+03  0.21146794629E+02 -0.81663503203E+03  0.84852953882E+03  0.00000000000E+00 0.  1.
<mgrwt>
<rscale>  3 0.26217285E+03</rscale>
<asrwt>0</asrwt>
<pdfrwt beam="1">  1       21 0.13665617E-01 0.26217285E+03</pdfrwt>
<pdfrwt beam="2">  1       21 0.16436381E+00 0.26217285E+03</pdfrwt>
<totfact> 0.10367776E+04</totfact>
</mgrwt>
</event>
<event>
 4    0  0.1525083E-001  0.2493095E+03  0.7546771E-02  0.1113742E+00
         21   -1    0    0  503  501  0.00000000000E+00  0.00000000000E+00  0.21666858411E+03  0.21666858411E+03  0.00000000000E+00 0.  1.
         21   -1    0    0  501  502 -0.00000000000E+00 -0.00000000000E+00 -0.29648649452E+03  0.29648649452E+03  0.00000000000E+00 0. -1.
         25    1    1    2    0    0 -0.11058358676E+03 -0.18520664309E+03  0.59572906589E+02  0.25632823002E+03  0.12500000000E+03 0.  0.
         21    1    1    2  503  502  0.11058358676E+03  0.18520664309E+03 -0.13939081700E+03  0.25682684861E+03  0.00000000000E+00 0. -1.
<mgrwt>
<rscale>  3 0.24930951E+03</rscale>
<asrwt>0</asrwt>
<pdfrwt beam="1">  1       21 0.33333629E-01 0.24930951E+03</pdfrwt>
<pdfrwt beam="2">  1       21 0.45613306E-01 0.24930951E+03</pdfrwt>
<totfact> 0.38888071E+04</totfact>
</mgrwt>
</event>
<event>
 4    0  0.1525083E-001  0.2832617E+03  0.7546771E-02  0.1093921E+00
         21   -1    0    0  502  501  0.00000000000E+00  0.00000000000E+00  0.19597997603E+03  0.19597997603E+03  0.00000000000E+00 0. -1.
         21   -1    0    0  503  502 -0.00000000000E+00 -0.00000000000E+00 -0.37376077789E+03  0.37376077789E+03  0.00000000000E+00 0. -1.
         25    1    1    2    0    0  0.15275743059E+03 -0.20316825944E+03 -0.12746453414E+03  0.31061935179E+03  0.12500000000E+03 0.  0.
         21    1    1    2  503  501 -0.15275743059E+03  0.20316825944E+03 -0.50316267711E+02  0.25912140213E+03  0.00000000000E+00 0. -1.
<mgrwt>
<rscale>  3 0.28326167E+03</rscale>
<asrwt>0</asrwt>
<pdfrwt beam="1">  1       21 0.30150766E-01 0.28326167E+03</pdfrwt>
<pdfrwt beam="2">  1       21 0.57501658E-01 0.28326167E+03</pdfrwt>
<totfact> 0.28691244E+04</totfact>
</mgrwt>
</event>
<event>
 4    0  0.1525083E-001  0.2482300E+03  0.7546771E-02  0.1114429E+00
         21   -1    0    0  502  501  0.00000000000E+00  0.00000000000E+00  0.16902125329E+03  0.16902125329E+03  0.00000000000E+00 0.  1.
         21   -1    0    0  503  502 -0.00000000000E+00 -0.00000000000E+00 -0.36741852023E+03  0.36741852023E+03  0.00000000000E+00 0.  1.
         25    1    1    2    0    0 -0.76940828753E+02 -0.20018305426E+03 -0.59643708518E+01  0.24830167149E+03  0.12500000000E+03 0.  0.
         21    1    1    2  503  501  0.76940828753E+02  0.20018305426E+03 -0.19243289609E+03  0.28813810203E+03  0.00000000000E+00 0.  1.
<mgrwt>
<rscale>  3 0.24823003E+03</rscale>
<asrwt>0</asrwt>
<pdfrwt beam="1">  1       21 0.26003270E-01 0.24823003E+03</pdfrwt>
<pdfrwt beam="2">  1       21 0.56525926E-01 0.24823003E+03</pdfrwt>
<totfact> 0.40280555E+04</totfact>
</mgrwt>
</event>
<event>
 4    0  0.1525083E-001  0.2495542E+03  0.7546771E-02  0.1113587E+00
         21   -1    0    0  503  501  0.00000000000E+00  0.00000000000E+00  0.22976072620E+03  0.22976072620E+03  0.00000000000E+00 0. -1.
         21   -1    0    0  501  502 -0.00000000000E+00 -0.00000000000E+00 -0.23652014629E+03  0.23652014629E+03  0.00000000000E+00 0. -1.
         25    1    1    2    0    0  0.13557599568E+03 -0.16814113199E+03  0.89896303951E+01  0.24971604740E+03  0.12500000000E+03 0.  0.
         21    1    1    2  503  502 -0.13557599568E+03  0.16814113199E+03 -0.15749050485E+02  0.21656482508E+03  0.00000000000E+00 0. -1.
<mgrwt>
<rscale>  3 0.24955418E+03</rscale>
<asrwt>0</asrwt>
<pdfrwt beam="1">  1       21 0.35347804E-01 0.24955418E+03</pdfrwt>
<pdfrwt beam="2">  1       21 0.36387715E-01 0.24955418E+03</pdfrwt>
<totfact> 0.54831790E+04</totfact>
</mgrwt>
</event>
<event>
 4    0  0.1525083E-001  0.2460854E+03  0.7546771E-02  0.1115804E+00
         21   -1    0    0  503  501  0.00000000000E+00  0.00000000000E+00  0.12308558925E+03  0.12308558925E+03  0.00000000000E+00 0. -1.
         21   -1    0    0  501  502 -0.00000000000E+00 -0.00000000000E+00 -0.60157935810E+03  0.60157935810E+03  0.00000000000E+00 0. -1.
         25    1    1    2    0    0  0.21182272564E+03 -0.80100494435E+01 -0.56596241595E+02  0.25250972764E+03  0.12500000000E+03 0.  0.
         21    1    1    2  503  502 -0.21182272564E+03  0.80100494435E+01 -0.42189752725E+03  0.47215521970E+03  0.00000000000E+00 0. -1.
<mgrwt>
<rscale>  3 0.24608541E+03</rscale>
<asrwt>0</asrwt>
<pdfrwt beam="1">  1       21 0.18936244E-01 0.24608541E+03</pdfrwt>
<pdfrwt beam="2">  1       21 0.92550673E-01 0.24608541E+03</pdfrwt>
<totfact> 0.24444997E+04</totfact>
</mgrwt>
</event>
<event>
 4    0  0.1525083E-001  0.3223486E+03  0.7546771E-02  0.1074573E+00
         21   -1    0    0  503  501  0.00000000000E+00  0.00000000000E+00  0.34162202345E+03  0.34162202345E+03  0.00000000000E+00 0.  1.
         21   -1    0    0  501  502 -0.00000000000E+00 -0.00000000000E+00 -0.76995538091E+03  0.76995538091E+03  0.00000000000E+00 0.  1.
         25    1    1    2    0    0 -0.28353894110E+03  0.88821698525E+02  0.22550265223E+03  0.39339556608E+03  0.12500000000E+03 0.  0.
         21    1    1    2  503  502  0.28353894110E+03 -0.88821698525E+02 -0.65383600969E+03  0.71818183827E+03  0.00000000000E+00 0.  1.
<mgrwt>
<rscale>  3 0.32234861E+03</rscale>
<asrwt>0</asrwt>
<pdfrwt beam="1">  1       21 0.52557235E-01 0.32234861E+03</pdfrwt>
<pdfrwt beam="2">  1       21 0.11845467E+00 0.32234861E+03</pdfrwt>
<totfact> 0.17030352E+03</totfact>
</mgrwt>
</event>
<event>
 4    0  0.1525083E-001  0.2408640E+03  0.7546771E-02  0.1119219E+00
         21   -1    0    0  503  501  0.00000000000E+00  0.00000000000E+00  0.39620560182E+03  0.39620560182E+03  0.00000000000E+00 0.  1.
         21   -1    0    0  501  502 -0.00000000000E+00 -0.00000000000E+00 -0.29271674611E+03  0.29271674611E+03  0.00000000000E+00 0.  1.
         25    1    1    2    0    0 -0.12537036397E+03 -0.16331788420E+03  0.31315268625E+03  0.39506969558E+03  0.12500000000E+03 0.  0.
         21    1    1    2  503  502  0.12537036397E+03  0.16331788420E+03 -0.20966383053E+03  0.29385265235E+03  0.00000000000E+00 0.  1.
<mgrwt>
<rscale>  3 0.24086399E+03</rscale>
<asrwt>0</asrwt>
<pdfrwt beam="1">  1       21 0.60954708E-01 0.24086399E+03</pdfrwt>
<pdfrwt beam="2">  1       21 0.45033345E-01 0.24086399E+03</pdfrwt>
<totfact> 0.11501917E+04</totfact>
</mgrwt>
</event>
<event>
 4    0  0.1525083E-001  0.2696803E+03  0.7546771E-02  0.1101463E+00
         21   -1    0    0  502  501  0.00000000000E+00  0.00000000000E+00  0.14916591810E+04  0.14916591810E+04  0.00000000000E+00 0.  1.
         21   -1    0    0  503  502 -0.00000000000E+00 -0.00000000000E+00 -0.13901327637E+03  0.13901327637E+03  0.00000000000E+00 0.  1.
         25    1    1    2    0    0 -0.20520586241E+03  0.12244598391E+03  0.13650067911E+04  0.13913917509E+04  0.12500000000E+03 0.  0.
         21    1    1    2  503  501  0.20520586241E+03 -0.12244598391E+03 -0.12360886447E+02  0.23928070641E+03  0.00000000000E+00 0.  1.
<mgrwt>
<rscale>  3 0.26968030E+03</rscale>
<asrwt>0</asrwt>
<pdfrwt beam="1">  1       21 0.22948602E+00 0.26968030E+03</pdfrwt>
<pdfrwt beam="2">  1       21 0.21386659E-01 0.26968030E+03</pdfrwt>
<totfact> 0.16659628E+03</totfact>
</mgrwt>
</event>
<event>
 4    0  0.1525083E-001  0.2386285E+03  0.7546771E-02  0.1120710E+00
         21   -1    0    0  503  501  0.00000000000E+00  0.00000000000E+00  0.42557680635E+03  0.42557680635E+03  0.00000000000E+00 0. -1.
         21   -1    0    0  501  502 -0.00000000000E+00 -0.00000000000E+00 -0.11677907154E+03  0.11677907154E+03  0.00000000000E+00 0. -1.
         25    1    1    2    0    0 -0.14549871566E+03 -0.14194598194E+03  0.20250536209E+03  0.31297277793E+03  0.12500000000E+03 0.  0.
         21    1    1    2  503  502  0.14549871566E+03  0.14194598194E+03  0.10629237272E+03  0.22938309996E+03  0.00000000000E+00 0. -1.
<mgrwt>
<rscale>  3 0.23862845E+03</rscale>
<asrwt>0</asrwt>
<pdfrwt beam="1">  1       21 0.65473354E-01 0.23862845E+03</pdfrwt>
<pdfrwt beam="2">  1       21 0.17966011E-01 0.23862845E+03</pdfrwt>
<totfact> 0.59227017E+04</totfact>
</mgrwt>
</event>
<event>
 4    0  0.1525083E-001  0.2449355E+03  0.7546771E-02  0.1116548E+00
         21   -1    0    0  503  501  0.00000000000E+00  0.00000000000E+00  0.17241065245E+03  0.17241065245E+03  0.00000000000E+00 0.  1.
         21   -1    0    0  501  502 -0.00000000000E+00 -0.00000000000E+00 -0.98275531150E+03  0.98275531150E+03  0.00000000000E+00 0.  1.
         25    1    1    2    0    0  0.16766167602E+03 -0.12750675594E+03  0.66154449435E+02  0.25371208406E+03  0.12500000000E+03 0.  0.
         21    1    1    2  503  502 -0.16766167602E+03  0.12750675594E+03 -0.87649910848E+03  0.90145387989E+03  0.00000000000E+00 0.  1.
<mgrwt>
<rscale>  3 0.24493552E+03</rscale>
<asrwt>0</asrwt>
<pdfrwt beam="1">  1       21 0.26524716E-01 0.24493552E+03</pdfrwt>
<pdfrwt beam="2">  1       21 0.15119312E+00 0.24493552E+03</pdfrwt>
<totfact> 0.37970172E+03</totfact>
</mgrwt>
</event>
<event>
 4    0  0.1525083E-001  0.2505708E+03  0.7546771E-02  0.1112945E+00
         21   -1    0    0  503  501  0.00000000000E+00  0.00000000000E+00  0.39657057809E+03  0.39657057809E+03  0.00000000000E+00 0. -1.
         21   -1    0    0  501  502 -0.00000000000E+00 -0.00000000000E+00 -0.16666334198E+03  0.16666334198E+03  0.00000000000E+00 0.  1.
         25    1    1    2    0    0 -0.15797704929E+03  0.14901003666E+03  0.23845628736E+03  0.34590047717E+03  0.12500000000E+03 0.  0.
         21    1    1    2  503  502  0.15797704929E+03 -0.14901003666E+03 -0.85490512403E+01  0.21733344290E+03  0.00000000000E+00 0.  1.
<mgrwt>
<rscale>  3 0.25057083E+03</rscale>
<asrwt>0</asrwt>
<pdfrwt beam="1">  1       21 0.61010858E-01 0.25057083E+03</pdfrwt>
<pdfrwt beam="2">  1       21 0.25640514E-01 0.25057083E+03</pdfrwt>
<totfact> 0.35076506E+04</totfact>
</mgrwt>
</event>
<event>
 4    0  0.1525083E-001  0.2935644E+03  0.7546771E-02  0.1088503E+00
         21   -1    0    0  503  501  0.00000000000E+00  0.00000000000E+00  0.24902329131E+03  0.24902329131E+03  0.00000000000E+00 0.  1.
         21   -1    0    0  501  502 -0.00000000000E+00 -0.00000000000E+00 -0.54554252075E+03  0.54554252075E+03  0.00000000000E+00 0.  1.
         25    1    1    2    0    0 -0.22511001441E+03 -0.14099844834E+03  0.10616017981E+03  0.31216992936E+03  0.12500000000E+03 0.  0.
         21    1    1    2  503  502  0.22511001441E+03  0.14099844834E+03 -0.40267940925E+03  0.48239588270E+03  0.00000000000E+00 0.  1.
<mgrwt>
<rscale>  3 0.29356444E+03</rscale>
<asrwt>0</asrwt>
<pdfrwt beam="1">  1       21 0.38311276E-01 0.29356444E+03</pdfrwt>
<pdfrwt beam="2">  1       21 0.83929619E-01 0.29356444E+03</pdfrwt>
<totfact> 0.76262982E+03</totfact>
</mgrwt>
</event>
<event>
 4    0  0.1525083E-001  0.2809798E+03  0.7546771E-02  0.1095155E+00
         21   -1    0    0  503  501  0.00000000000E+00  0.00000000000E+00  0.31392439521E+03  0.31392439521E+03  0.00000000000E+00 0. -1.
         21   -1    0    0  501  502 -0.00000000000E+00 -0.00000000000E+00 -0.34783223685E+03  0.34783223685E+03  0.00000000000E+00 0. -1.
         25    1    1    2    0    0 -0.10027137384E+03  0.23080356589E+03  0.17813366138E+03  0.33268789541E+03  0.12500000000E+03 0.  0.
         21    1    1    2  503  502  0.10027137384E+03 -0.23080356589E+03 -0.21204150301E+03  0.32906873665E+03  0.00000000000E+00 0. -1.
<mgrwt>
<rscale>  3 0.28097978E+03</rscale>
<asrwt>0</asrwt>
<pdfrwt beam="1">  1       21 0.48296061E-01 0.28097978E+03</pdfrwt>
<pdfrwt beam="2">  1       21 0.53512652E-01 0.28097978E+03</pdfrwt>
<totfact> 0.12885167E+04</totfact>
</mgrwt>
</event>
<event>
 4    0  0.1525083E-001  0.2456968E+03  0.7546771E-02  0.1116055E+00
         21   -1    0    0  503  501  0.00000000000E+00  0.00000000000E+00  0.14589455132E+03  0.14589455132E+03  0.00000000000E+00 0. -1.
         21   -1    0    0  501  502 -0.00000000000E+00 -0.00000000000E+00 -0.41022286345E+03  0.41022286345E+03  0.00000000000E+00 0. -1.
         25    1    1    2    0    0 -0.37026803754E+02 -0.20825689189E+03 -0.42031589351E+02  0.24926606612E+03  0.12500000000E+03 0.  0.
         21    1    1    2  503  502  0.37026803754E+02  0.20825689189E+03 -0.22229672278E+03  0.30685134866E+03  0.00000000000E+00 0. -1.
<mgrwt>
<rscale>  3 0.24569680E+03</rscale>
<asrwt>0</asrwt>
<pdfrwt beam="1">  1       21 0.22445316E-01 0.24569680E+03</pdfrwt>
<pdfrwt beam="2">  1       21 0.63111209E-01 0.24569680E+03</pdfrwt>
<totfact> 0.42122698E+04</totfact>
</mgrwt>
</event>
<event>
 4    0  0.1525083E-001  0.2575623E+03  0.7546771E-02  0.1108617E+00
         21   -1    0    0  502  501  0.00000000000E+00  0.00000000000E+00  0.10389879451E+04  0.10389879451E+04  0.00000000000E+00 0.  1.
         21   -1    0    0  503  502 -0.00000000000E+00 -0.00000000000E+00 -0.56158451561E+02  0.56158451561E+02  0.00000000000E+00 0.  1.
         25    1    1    2    0    0 -0.14157992967E+03  0.17512407280E+03  0.54504681227E+03  0.60283857286E+03  0.12500000000E+03 0.  0.
         21    1    1    2  503  501  0.14157992967E+03 -0.17512407280E+03  0.43778268132E+03  0.49230782385E+03  0.00000000000E+00 0.  1.
<mgrwt>
<rscale>  3 0.25756226E+03</rscale>
<asrwt>0</asrwt>
<pdfrwt beam="1">  1       21 0.15984429E+00 0.25756226E+03</pdfrwt>
<pdfrwt beam="2">  1       21 0.86397625E-02 0.25756226E+03</pdfrwt>
<totfact> 0.25484921E+04</totfact>
</mgrwt>
</event>
<event>
 4    0  0.1525083E-001  0.2369476E+03  0.7546771E-02  0.1121843E+00
         21   -1    0    0  503  501  0.00000000000E+00  0.00000000000E+00  0.37519128215E+03  0.37519128215E+03  0.00000000000E+00 0.  1.
         21   -1    0    0  501  502 -0.00000000000E+00 -0.00000000000E+00 -0.19176124477E+03  0.19176124477E+03  0.00000000000E+00 0. -1.
         25    1    1    2    0    0 -0.71655396097E+02  0.18810814430E+03  0.25983049256E+03  0.35164762847E+03  0.12500000000E+03 0.  0.
         21    1    1    2  503  502  0.71655396097E+02 -0.18810814430E+03 -0.76400455194E+02  0.21530489845E+03  0.00000000000E+00 0. -1.
<mgrwt>
<rscale>  3 0.23694761E+03</rscale>
<asrwt>0</asrwt>
<pdfrwt beam="1">  1       21 0.57721736E-01 0.23694761E+03</pdfrwt>
<pdfrwt beam="2">  1       21 0.29501730E-01 0.23694761E+03</pdfrwt>
<totfact> 0.30292699E+04</totfact>
</mgrwt>
</event>
<event>
 4    0  0.1525083E-001  0.2993042E+03  0.7546771E-02  0.1085589E+00
         21   -1    0    0  503  501  0.00000000000E+00  0.00000000000E+00  0.15793620259E+04  0.15793620259E+04  0.00000000000E+00 0. -1.
         21   -1    0    0  501  502 -0.00000000000E+00 -0.00000000000E+00 -0.12884573213E+03  0.12884573213E+03  0.00000000000E+00 0. -1.
         25    1    1    2    0    0  0.22931684692E+03  0.14619100137E+03  0.13999585072E+04  0.14315959091E+04  0.12500000000E+03 0.  0.
         21    1    1    2  503  502 -0.22931684692E+03 -0.14619100137E+03  0.50557786552E+02  0.27661184888E+03  0.00000000000E+00 0. -1.
<mgrwt>
<rscale>  3 0.29930424E+03</rscale>
<asrwt>0</asrwt>
<pdfrwt beam="1">  1       21 0.24297876E+00 0.29930424E+03</pdfrwt>
<pdfrwt beam="2">  1       21 0.19822421E-01 0.29930424E+03</pdfrwt>
<totfact> 0.15550993E+03</totfact>
</mgrwt>
</event>
<event>
 4    0  0.1525083E-001  0.2502182E+03  0.7546771E-02  0.1113167E+00
         21   -1    0    0  502  501  0.00000000000E+00  0.00000000000E+00  0.10117219782E+04  0.10117219782E+04  0.00000000000E+00 0. -1.
         21   -1    0    0  503  502 -0.00000000000E+00 -0.00000000000E+00 -0.36730529607E+03  0.36730529607E+03  0.00000000000E+00 0.  1.
         25    1    1    2    0    0  0.15704408148E+03  0.14940314504E+03  0.96228690607E+03  0.99428629321E+03  0.12500000000E+03 0.  0.
         21    1    1    2  503  501 -0.15704408148E+03 -0.14940314504E+03 -0.31787022391E+03  0.38474098108E+03  0.00000000000E+00 0.  1.
<mgrwt>
<rscale>  3 0.25021819E+03</rscale>
<asrwt>0</asrwt>
<pdfrwt beam="1">  1       21 0.15564953E+00 0.25021819E+03</pdfrwt>
<pdfrwt beam="2">  1       21 0.56508508E-01 0.25021819E+03</pdfrwt>
<totfact> 0.75489523E+02</totfact>
</mgrwt>
</event>
<event>
 4    0  0.1525083E-001  0.3572431E+03  0.7546771E-02  0.1059681E+00
         21   -1    0    0  503  501  0.00000000000E+00  0.00000000000E+00  0.30640709518E+03  0.30640709518E+03  0.00000000000E+00 0. -1.
         21   -1    0    0  501  502 -0.00000000000E+00 -0.00000000000E+00 -0.47593565636E+03  0.47593565636E+03  0.00000000000E+00 0. -1.
         25    1    1    2    0    0  0.20653562457E+03  0.26332615390E+03  0.78530031400E+02  0.36577259790E+03  0.12500000000E+03 0.  0.
         21    1    1    2  503  502 -0.20653562457E+03 -0.26332615390E+03 -0.24805859258E+03  0.41657015363E+03  0.00000000000E+00 0. -1.
<mgrwt>
<rscale>  3 0.35724309E+03</rscale>
<asrwt>0</asrwt>
<pdfrwt beam="1">  1       21 0.47139553E-01 0.35724309E+03</pdfrwt>
<pdfrwt beam="2">  1       21 0.73220871E-01 0.35724309E+03</pdfrwt>
<totfact> 0.66009358E+03</totfact>
</mgrwt>
</event>
<event>
 4    0  0.1525083E-001  0.3100789E+03  0.7546771E-02  0.1080308E+00
         21   -1    0    0  503  501  0.00000000000E+00  0.00000000000E+00  0.68363523585E+03  0.68363523585E+03  0.00000000000E+00 0. -1.
         21   -1    0    0  501  502 -0.00000000000E+00 -0.00000000000E+00 -0.43634507316E+03  0.43634507316E+03  0.00000000000E+00 0. -1.
         25    1    1    2    0    0 -0.27042302177E+03  0.85996056070E+02  0.59513549108E+03  0.67107017898E+03  0.12500000000E+03 0.  0.
         21    1    1    2  503  502  0.27042302177E+03 -0.85996056070E+02 -0.34784532839E+03  0.44891013003E+03  0.00000000000E+00 0. -1.
<mgrwt>
<rscale>  3 0.31007891E+03</rscale>
<asrwt>0</asrwt>
<pdfrwt beam="1">  1       21 0.10517465E+00 0.31007891E+03</pdfrwt>
<pdfrwt beam="2">  1       21 0.67130012E-01 0.31007891E+03</pdfrwt>
<totfact> 0.13516393E+03</totfact>
</mgrwt>
</event>
<event>
 4    0  0.1525083E-001  0.2408528E+03  0.7546771E-02  0.1119226E+00
         21   -1    0    0  502  501  0.00000000000E+00  0.00000000000E+00  0.24006047687E+03  0.24006047687E+03  0.00000000000E+00 0. -1.
         21   -1    0    0  503  502 -0.00000000000E+00 -0.00000000000E+00 -0.20782988295E+03  0.20782988295E+03  0.00000000000E+00 0. -1.
         25    1    1    2    0    0  0.17046711807E+03 -0.11543846940E+03  0.17392085562E+02  0.24147994368E+03  0.12500000000E+03 0.  0.
         21    1    1    2  503  501 -0.17046711807E+03  0.11543846940E+03  0.14838508357E+02  0.20641041614E+03  0.00000000000E+00 0. -1.
<mgrwt>
<rscale>  3 0.24085282E+03</rscale>
<asrwt>0</asrwt>
<pdfrwt beam="1">  1       21 0.36932381E-01 0.24085282E+03</pdfrwt>
<pdfrwt beam="2">  1       21 0.31973828E-01 0.24085282E+03</pdfrwt>
<totfact> 0.65175034E+04</totfact>
</mgrwt>
</event>
<event>
 4    0  0.1525083E-001  0.2868064E+03  0.7546771E-02  0.1092028E+00
         21   -1    0    0  503  501  0.00000000000E+00  0.00000000000E+00  0.19435705225E+03  0.19435705225E+03  0.00000000000E+00 0.  1.
         21   -1    0    0  501  502 -0.00000000000E+00 -0.00000000000E+00 -0.45493899134E+03  0.45493899134E+03  0.00000000000E+00 0.  1.
         25    1    1    2    0    0 -0.23986193455E+03  0.95389490383E+02 -0.61855908704E+01  0.28687308005E+03  0.12500000000E+03 0.  0.
         21    1    1    2  503  502  0.23986193455E+03 -0.95389490383E+02 -0.25439634822E+03  0.36242296355E+03  0.00000000000E+00 0.  1.
<mgrwt>
<rscale>  3 0.28680639E+03</rscale>
<asrwt>0</asrwt>
<pdfrwt beam="1">  1       21 0.29901085E-01 0.28680639E+03</pdfrwt>
<pdfrwt beam="2">  1       21 0.69990614E-01 0.28680639E+03</pdfrwt>
<totfact> 0.18937981E+04</totfact>
</mgrwt>
</event>
<event>
 4    0  0.1525083E-001  0.4199987E+03  0.7546771E-02  0.1037067E+00
         21   -1    0    0  502  501  0.00000000000E+00  0.00000000000E+00  0.12132306051E+04  0.12132306051E+04  0.00000000000E+00 0. -1.
         21   -1    0    0  503  502 -0.00000000000E+00 -0.00000000000E+00 -0.23841831166E+03  0.23841831166E+03  0.00000000000E+00 0. -1.
         25    1    1    2    0    0  0.22056479798E+03  0.33485080884E+03  0.96289309834E+03  0.10505055988E+04  0.12500000000E+03 0.  0.
         21    1    1    2  503  501 -0.22056479798E+03 -0.33485080884E+03  0.11919195046E+02  0.40114331791E+03  0.00000000000E+00 0. -1.
<mgrwt>
<rscale>  3 0.41999868E+03</rscale>
<asrwt>0</asrwt>
<pdfrwt beam="1">  1       21 0.18665086E+00 0.41999868E+03</pdfrwt>
<pdfrwt beam="2">  1       21 0.36679741E-01 0.41999868E+03</pdfrwt>
<totfact> 0.99903450E+02</totfact>
</mgrwt>
</event>
<event>
 4    0  0.1525083E-001  0.2560795E+03  0.7546771E-02  0.1109522E+00
         21   -1    0    0  503  501  0.00000000000E+00  0.00000000000E+00  0.31705243811E+03  0.31705243811E+03  0.00000000000E+00 0. -1.
         21   -1    0    0  501  502 -0.00000000000E+00 -0.00000000000E+00 -0.18139528304E+03  0.18139528304E+03  0.00000000000E+00 0. -1.
         25    1    1    2    0    0 -0.17709693245E+03  0.13633927302E+03  0.76169783653E+02  0.26716765671E+03  0.12500000000E+03 0.  0.
         21    1    1    2  503  502  0.17709693245E+03 -0.13633927302E+03  0.59487371408E+02  0.23128006444E+03  0.00000000000E+00 0. -1.
<mgrwt>
<rscale>  3 0.25607952E+03</rscale>
<asrwt>0</asrwt>
<pdfrwt beam="1">  1       21 0.48777298E-01 0.25607952E+03</pdfrwt>
<pdfrwt beam="2">  1       21 0.27906967E-01 0.25607952E+03</pdfrwt>
<totfact> 0.47829139E+04</totfact>
</mgrwt>
</event>
<event>
 4    0  0.1525083E-001  0.4289927E+03  0.7546771E-02  0.1034179E+00
         21   -1    0    0  503  501  0.00000000000E+00  0.00000000000E+00  0.39404459570E+03  0.39404459570E+03  0.00000000000E+00 0. -1.
         21   -1    0    0  501  502 -0.00000000000E+00 -0.00000000000E+00 -0.48268459947E+03  0.48268459947E+03  0.00000000000E+00 0. -1.
         25    1    1    2    0    0 -0.14995927894E+03 -0.38199730204E+03  0.73943733165E+02  0.43531873355E+03  0.12500000000E+03 0.  0.
         21    1    1    2  503  502  0.14995927894E+03  0.38199730204E+03 -0.16258373694E+03  0.44141046162E+03  0.00000000000E+00 0. -1.
<mgrwt>
<rscale>  3 0.42899269E+03</rscale>
<asrwt>0</asrwt>
<pdfrwt beam="1">  1       21 0.60622246E-01 0.42899269E+03</pdfrwt>
<pdfrwt beam="2">  1       21 0.74259169E-01 0.42899269E+03</pdfrwt>
<totfact> 0.36279463E+03</totfact>
</mgrwt>
</event>
<event>
 4    0  0.1525083E-001  0.2926346E+03  0.7546771E-02  0.1088982E+00
         21   -1    0    0  502  501  0.00000000000E+00  0.00000000000E+00  0.48407463369E+02  0.48407463369E+02  0.00000000000E+00 0. -1.
         21   -1    0    0  503  502 -0.00000000000E+00 -0.00000000000E+00 -0.19742282785E+04  0.19742282785E+04  0.00000000000E+00 0. -1.
         25    1    1    2    0    0  0.18288864039E+03  0.19121127833E+03 -0.56453052001E+03  0.63586925997E+03  0.12500000000E+03 0.  0.
         21    1    1    2  503  501 -0.18288864039E+03 -0.19121127833E+03 -0.13612902951E+04  0.13867664819E+04  0.00000000000E+00 0. -1.
<mgrwt>
<rscale>  3 0.29263460E+03</rscale>
<asrwt>0</asrwt>
<pdfrwt beam="1">  1       21 0.74473030E-02 0.29263460E+03</pdfrwt>
<pdfrwt beam="2">  1       21 0.30372739E+00 0.29263460E+03</pdfrwt>
<totfact> 0.40107112E+03</totfact>
</mgrwt>
</event>
<event>
 4    0  0.1525083E-001  0.2863030E+03  0.7546771E-02  0.1092295E+00
         21   -1    0    0  503  501  0.00000000000E+00  0.00000000000E+00  0.21094245624E+03  0.21094245624E+03  0.00000000000E+00 0.  1.
         21   -1    0    0  501  502 -0.00000000000E+00 -0.00000000000E+00 -0.36302424263E+03  0.36302424263E+03  0.00000000000E+00 0.  1.
         25    1    1    2    0    0  0.14784724350E+02 -0.25714942902E+03 -0.13299866795E+03  0.31568665255E+03  0.12500000000E+03 0.  0.
         21    1    1    2  503  502 -0.14784724350E+02  0.25714942902E+03 -0.19083118436E+02  0.25828004633E+03  0.00000000000E+00 0.  1.
<mgrwt>
<rscale>  3 0.28630302E+03</rscale>
<asrwt>0</asrwt>
<pdfrwt beam="1">  1       21 0.32452686E-01 0.28630302E+03</pdfrwt>
<pdfrwt beam="2">  1       21 0.55849884E-01 0.28630302E+03</pdfrwt>
<totfact> 0.26378133E+04</totfact>
</mgrwt>
</event>
<event>
 4    0  0.1525083E-001  0.3470311E+03  0.7546771E-02  0.1063840E+00
         21   -1    0    0  503  501  0.00000000000E+00  0.00000000000E+00  0.78494385358E+03  0.78494385358E+03  0.00000000000E+00 0.  1.
         21   -1    0    0  501  502 -0.00000000000E+00 -0.00000000000E+00 -0.12325417986E+04  0.12325417986E+04  0.00000000000E+00 0. -1.
         25    1    1    2    0    0 -0.31675955367E+03 -0.66850165435E+02  0.72352229774E+03  0.80244319100E+03  0.12500000000E+03 0.  0.
         21    1    1    2  503  502  0.31675955367E+03  0.66850165435E+02 -0.11711202428E+04  0.12150424612E+04  0.00000000000E+00 0. -1.
<mgrwt>
<rscale>  3 0.34703106E+03</rscale>
<asrwt>0</asrwt>
<pdfrwt beam="1">  1       21 0.12076059E+00 0.34703106E+03</pdfrwt>
<pdfrwt beam="2">  1       21 0.18962181E+00 0.34703106E+03</pdfrwt>
<totfact> 0.69056838E+01</totfact>
</mgrwt>
</event>
<event>
 4    0  0.1525083E-001  0.2636028E+03  0.7546771E-02  0.1104998E+00
         21   -1    0    0  503  501  0.00000000000E+00  0.00000000000E+00  0.98695229439E+02  0.98695229439E+02  0.00000000000E+00 0. -1.
         21   -1    0    0  501  502 -0.00000000000E+00 -0.00000000000E+00 -0.62892605819E+03  0.62892605819E+03  0.00000000000E+00 0. -1.
         25    1    1    2    0    0 -0.21429806897E+03  0.89094302501E+02 -0.24474614454E+03  0.35970422901E+03  0.12500000000E+03 0.  0.
         21    1    1    2  503  502  0.21429806897E+03 -0.89094302501E+02 -0.28548468421E+03  0.36791705862E+03  0.00000000000E+00 0. -1.
<mgrwt>
<rscale>  3 0.26360284E+03</rscale>
<asrwt>0</asrwt>
<pdfrwt beam="1">  1       21 0.15183881E-01 0.26360284E+03</pdfrwt>
<pdfrwt beam="2">  1       21 0.96757857E-01 0.26360284E+03</pdfrwt>
<totfact> 0.32869991E+04</totfact>
</mgrwt>
</event>
<event>
 4    0  0.1525083E-001  0.3980795E+03  0.7546771E-02  0.1044447E+00
         21   -1    0    0  502  501  0.00000000000E+00  0.00000000000E+00  0.90784377795E+03  0.90784377795E+03  0.00000000000E+00 0.  1.
         21   -1    0    0  503  502 -0.00000000000E+00 -0.00000000000E+00 -0.16612820677E+03  0.16612820677E+03  0.00000000000E+00 0.  1.
         25    1    1    2    0    0  0.36524729311E+03  0.97142692130E+02  0.35796061587E+03  0.53535323878E+03  0.12500000000E+03 0.  0.
         21    1    1    2  503  501 -0.36524729311E+03 -0.97142692130E+02  0.38375495531E+03  0.53861874595E+03  0.00000000000E+00 0.  1.
<mgrwt>
<rscale>  3 0.39807950E+03</rscale>
<asrwt>0</asrwt>
<pdfrwt beam="1">  1       21 0.13966827E+00 0.39807950E+03</pdfrwt>
<pdfrwt beam="2">  1       21 0.25558186E-01 0.39807950E+03</pdfrwt>
<totfact> 0.46457804E+03</totfact>
</mgrwt>
</event>
<event>
 4    0  0.1525083E-001  0.2450700E+03  0.7546771E-02  0.1116461E+00
         21   -1    0    0  503  501  0.00000000000E+00  0.00000000000E+00  0.13251784250E+03  0.13251784250E+03  0.00000000000E+00 0.  1.
         21   -1    0    0  501  502 -0.00000000000E+00 -0.00000000000E+00 -0.48239737605E+03  0.48239737605E+03  0.00000000000E+00 0.  1.
         25    1    1    2    0    0  0.19989551427E+03  0.66903485714E+02 -0.52874767588E+02  0.25070906261E+03  0.12500000000E+03 0.  0.
         21    1    1    2  503  502 -0.19989551427E+03 -0.66903485714E+02 -0.29700476596E+03  0.36420615594E+03  0.00000000000E+00 0.  1.
<mgrwt>
<rscale>  3 0.24506998E+03</rscale>
<asrwt>0</asrwt>
<pdfrwt beam="1">  1       21 0.20387360E-01 0.24506998E+03</pdfrwt>
<pdfrwt beam="2">  1       21 0.74214981E-01 0.24506998E+03</pdfrwt>
<totfact> 0.35320514E+04</totfact>
</mgrwt>
</event>
<event>
 4    0  0.1525083E-001  0.2842887E+03  0.7546771E-02  0.1093369E+00
         21   -1    0    0  503  501  0.00000000000E+00  0.00000000000E+00  0.67222099969E+02  0.67222099969E+02  0.00000000000E+00 0.  1.
         21   -1    0    0  501  502 -0.00000000000E+00 -0.00000000000E+00 -0.11880288099E+04  0.11880288099E+04  0.00000000000E+00 0.  1.
         25    1    1    2    0    0 -0.17666121818E+03 -0.18435256042E+03 -0.40139914076E+03  0.49187531219E+03  0.12500000000E+03 0.  0.
         21    1    1    2  503  502  0.17666121818E+03  0.18435256042E+03 -0.71940756913E+03  0.76337559763E+03  0.00000000000E+00 0.  1.
<mgrwt>
<rscale>  3 0.28428868E+03</rscale>
<asrwt>0</asrwt>
<pdfrwt beam="1">  1       21 0.10341862E-01 0.28428868E+03</pdfrwt>
<pdfrwt beam="2">  1       21 0.18277366E+00 0.28428868E+03</pdfrwt>
<totfact> 0.12544530E+04</totfact>
</mgrwt>
</event>
<event>
 4    0  0.1525083E-001  0.2406926E+03  0.7546771E-02  0.1119332E+00
         21   -1    0    0  503  501  0.00000000000E+00  0.00000000000E+00  0.70948902405E+03  0.70948902405E+03  0.00000000000E+00 0. -1.
         21   -1    0    0  501  502 -0.00000000000E+00 -0.00000000000E+00 -0.16338137635E+03  0.16338137635E+03  0.00000000000E+00 0. -1.
         25    1    1    2    0    0  0.17084875621E+03  0.11453657224E+03  0.61139656883E+03  0.65706825235E+03  0.12500000000E+03 0.  0.
         21    1    1    2  503  502 -0.17084875621E+03 -0.11453657224E+03 -0.65288921135E+02  0.21580214805E+03  0.00000000000E+00 0. -1.
<mgrwt>
<rscale>  3 0.24069259E+03</rscale>
<asrwt>0</asrwt>
<pdfrwt beam="1">  1       21 0.10915216E+00 0.24069259E+03</pdfrwt>
<pdfrwt beam="2">  1       21 0.25135597E-01 0.24069259E+03</pdfrwt>
<totfact> 0.96634651E+03</totfact>
</mgrwt>
</event>
<event>
 4    0  0.1525083E-001  0.3130703E+03  0.7546771E-02  0.1078883E+00
         21   -1    0    0  502  501  0.00000000000E+00  0.00000000000E+00  0.81468174814E+02  0.81468174814E+02  0.00000000000E+00 0. -1.
         21   -1    0    0  503  502 -0.00000000000E+00 -0.00000000000E+00 -0.14361166936E+04  0.14361166936E+04  0.00000000000E+00 0.  1.
         25    1    1    2    0    0  0.26570767995E+03 -0.10856994633E+03 -0.33591105974E+03  0.45918323629E+03  0.12500000000E+03 0.  0.
         21    1    1    2  503  501 -0.26570767995E+03  0.10856994633E+03 -0.10187374590E+04  0.10584016321E+04  0.00000000000E+00 0.  1.
<mgrwt>
<rscale>  3 0.31307029E+03</rscale>
<asrwt>0</asrwt>
<pdfrwt beam="1">  1       21 0.12533565E-01 0.31307029E+03</pdfrwt>
<pdfrwt beam="2">  1       21 0.22094104E+00 0.31307029E+03</pdfrwt>
<totfact> 0.49159796E+03</totfact>
</mgrwt>
</event>
<event>
 4    0  0.1525083E-001  0.5545176E+03  0.7546771E-02  0.1000454E+00
         21   -1    0    0  503  501  0.00000000000E+00  0.00000000000E+00  0.93059076009E+03  0.93059076009E+03  0.00000000000E+00 0.  1.
         21   -1    0    0  501  502 -0.00000000000E+00 -0.00000000000E+00 -0.67689604261E+03  0.67689604261E+03  0.00000000000E+00 0.  1.
         25    1    1    2    0    0  0.35321579733E+03  0.40878274253E+03  0.70961011450E+03  0.90057550748E+03  0.12500000000E+03 0.  0.
         21    1    1    2  503  502 -0.35321579733E+03 -0.40878274253E+03 -0.45591539702E+03  0.70691129522E+03  0.00000000000E+00 0.  1.
<mgrwt>
<rscale>  3 0.55451757E+03</rscale>
<asrwt>0</asrwt>
<pdfrwt beam="1">  1       21 0.14316781E+00 0.55451757E+03</pdfrwt>
<pdfrwt beam="2">  1       21 0.10413785E+00 0.55451757E+03</pdfrwt>
<totfact> 0.19612124E+02</totfact>
</mgrwt>
</event>
<event>
 4    0  0.1525083E-001  0.2643700E+03  0.7546771E-02  0.1104546E+00
         21   -1    0    0  503  501  0.00000000000E+00  0.00000000000E+00  0.45743820499E+03  0.45743820499E+03  0.00000000000E+00 0. -1.
         21   -1    0    0  501  502 -0.00000000000E+00 -0.00000000000E+00 -0.14363508528E+03  0.14363508528E+03  0.00000000000E+00 0. -1.
         25    1    1    2    0    0 -0.21222973489E+03  0.96047010012E+02  0.23904948933E+03  0.35642130528E+03  0.12500000000E+03 0.  0.
         21    1    1    2  503  502  0.21222973489E+03 -0.96047010012E+02  0.74753630373E+02  0.24465198499E+03  0.00000000000E+00 0. -1.
<mgrwt>
<rscale>  3 0.26436998E+03</rscale>
<asrwt>0</asrwt>
<pdfrwt beam="1">  1       21 0.70375108E-01 0.26436998E+03</pdfrwt>
<pdfrwt beam="2">  1       21 0.22097706E-01 0.26436998E+03</pdfrwt>
<totfact> 0.33872478E+04</totfact>
</mgrwt>
</event>
<event>
 4    0  0.1525083E-001  0.3109112E+03  0.7546771E-02  0.1079910E+00
         21   -1    0    0  502  501  0.00000000000E+00  0.00000000000E+00  0.41174512921E+03  0.41174512921E+03  0.00000000000E+00 0.  1.
         21   -1    0    0  503  502 -0.00000000000E+00 -0.00000000000E+00 -0.25563154113E+03  0.25563154113E+03  0.00000000000E+00 0.  1.
         25    1    1    2    0    0 -0.21985202599E+03 -0.18084762798E+03 -0.51351177087E+02  0.31512334294E+03  0.12500000000E+03 0.  0.
         21    1    1    2  503  501  0.21985202599E+03  0.18084762798E+03  0.20746476517E+03  0.35225332740E+03  0.00000000000E+00 0.  1.
<mgrwt>
<rscale>  3 0.31091121E+03</rscale>
<asrwt>0</asrwt>
<pdfrwt beam="1">  1       21 0.63345405E-01 0.31091121E+03</pdfrwt>
<pdfrwt beam="2">  1       21 0.39327929E-01 0.31091121E+03</pdfrwt>
<totfact> 0.13507223E+04</totfact>
</mgrwt>
</event>
<event>
 4    0  0.1525083E-001  0.3768393E+03  0.7546771E-02  0.1052108E+00
         21   -1    0    0  502  501  0.00000000000E+00  0.00000000000E+00  0.36249002551E+03  0.36249002551E+03  0.00000000000E+00 0.  1.
         21   -1    0    0  503  502 -0.00000000000E+00 -0.00000000000E+00 -0.37237244451E+03  0.37237244451E+03  0.00000000000E+00 0.  1.
         25    1    1    2    0    0 -0.21740585344E+03 -0.28127840319E+03  0.24901759836E+02  0.37766114819E+03  0.12500000000E+03 0.  0.
         21    1    1    2  503  501  0.21740585344E+03  0.28127840319E+03 -0.34784178839E+02  0.35720132182E+03  0.00000000000E+00 0.  1.
<mgrwt>
<rscale>  3 0.37683928E+03</rscale>
<asrwt>0</asrwt>
<pdfrwt beam="1">  1       21 0.55767697E-01 0.37683928E+03</pdfrwt>
<pdfrwt beam="2">  1       21 0.57288068E-01 0.37683928E+03</pdfrwt>
<totfact> 0.78845294E+03</totfact>
</mgrwt>
</event>
<event>
 4    0  0.1525083E-001  0.2440645E+03  0.7546771E-02  0.1117114E+00
         21   -1    0    0  503  501  0.00000000000E+00  0.00000000000E+00  0.68441830221E+02  0.68441830221E+02  0.00000000000E+00 0.  1.
         21   -1    0    0  501  502 -0.00000000000E+00 -0.00000000000E+00 -0.94516495298E+03  0.94516495298E+03  0.00000000000E+00 0.  1.
         25    1    1    2    0    0  0.11455702506E+03 -0.17555395525E+03 -0.23616024415E+03  0.33961620119E+03  0.12500000000E+03 0.  0.
         21    1    1    2  503  502 -0.11455702506E+03  0.17555395525E+03 -0.64056287861E+03  0.67399058201E+03  0.00000000000E+00 0.  1.
<mgrwt>
<rscale>  3 0.24406455E+03</rscale>
<asrwt>0</asrwt>
<pdfrwt beam="1">  1       21 0.10529514E-01 0.24406455E+03</pdfrwt>
<pdfrwt beam="2">  1       21 0.14540998E+00 0.24406455E+03</pdfrwt>
<totfact> 0.23289730E+04</totfact>
</mgrwt>
</event>
<event>
 4    0  0.1525083E-001  0.2398131E+03  0.7546771E-02  0.1119917E+00
         21   -1    0    0  503  501  0.00000000000E+00  0.00000000000E+00  0.36768918863E+03  0.36768918863E+03  0.00000000000E+00 0. -1.
         21   -1    0    0  501  502 -0.00000000000E+00 -0.00000000000E+00 -0.26085833102E+03  0.26085833102E+03  0.00000000000E+00 0. -1.
         25    1    1    2    0    0  0.16512450677E+03 -0.12091002350E+03  0.27412138942E+03  0.36421542068E+03  0.12500000000E+03 0.  0.
         21    1    1    2  503  502 -0.16512450677E+03  0.12091002350E+03 -0.16729053181E+03  0.26433209898E+03  0.00000000000E+00 0. -1.
<mgrwt>
<rscale>  3 0.23981313E+03</rscale>
<asrwt>0</asrwt>
<pdfrwt beam="1">  1       21 0.56567568E-01 0.23981313E+03</pdfrwt>
<pdfrwt beam="2">  1       21 0.40132051E-01 0.23981313E+03</pdfrwt>
<totfact> 0.17113092E+04</totfact>
</mgrwt>
</event>
<event>
 4    0  0.1525083E-001  0.2446199E+03  0.7546771E-02  0.1116753E+00
         21   -1    0    0  503  501  0.00000000000E+00  0.00000000000E+00  0.21638162680E+03  0.21638162680E+03  0.00000000000E+00 0.  1.
         21   -1    0    0  501  502 -0.00000000000E+00 -0.00000000000E+00 -0.39601240724E+03  0.39601240724E+03  0.00000000000E+00 0.  1.
         25    1    1    2    0    0 -0.79243810771E+02 -0.19476739459E+03  0.98515032102E+02  0.26371221263E+03  0.12500000000E+03 0.  0.
         21    1    1    2  503  502  0.79243810771E+02  0.19476739459E+03 -0.27814581255E+03  0.34868182140E+03  0.00000000000E+00 0.  1.
<mgrwt>
<rscale>  3 0.24461995E+03</rscale>
<asrwt>0</asrwt>
<pdfrwt beam="1">  1       21 0.33289482E-01 0.24461995E+03</pdfrwt>
<pdfrwt beam="2">  1       21 0.60924985E-01 0.24461995E+03</pdfrwt>
<totfact> 0.21177797E+04</totfact>
</mgrwt>
</event>
<event>
 4    0  0.1525083E-001  0.2388025E+03  0.7546771E-02  0.1120593E+00
         21   -1    0    0  503  501  0.00000000000E+00  0.00000000000E+00  0.65242236167E+03  0.65242236167E+03  0.00000000000E+00 0. -1.
         21   -1    0    0  501  502 -0.00000000000E+00 -0.00000000000E+00 -0.80975798050E+02  0.80975798050E+02  0.00000000000E+00 0. -1.
         25    1    1    2    0    0 -0.14953138467E+03  0.13799281121E+03  0.20715213251E+03  0.31613075926E+03  0.12500000000E+03 0.  0.
         21    1    1    2  503  502  0.14953138467E+03 -0.13799281121E+03  0.36429443111E+03  0.41726740046E+03  0.00000000000E+00 0. -1.
<mgrwt>
<rscale>  3 0.23880254E+03</rscale>
<asrwt>0</asrwt>
<pdfrwt beam="1">  1       21 0.10037267E+00 0.23880254E+03</pdfrwt>
<pdfrwt beam="2">  1       21 0.12457816E-01 0.23880254E+03</pdfrwt>
<totfact> 0.43647155E+04</totfact>
</mgrwt>
</event>
<event>
 4    0  0.1525083E-001  0.2514925E+03  0.7546771E-02  0.1112365E+00
         21   -1    0    0  502  501  0.00000000000E+00  0.00000000000E+00  0.70757311175E+02  0.70757311175E+02  0.00000000000E+00 0.  1.
         21   -1    0    0  503  502 -0.00000000000E+00 -0.00000000000E+00 -0.21032398569E+04  0.21032398569E+04  0.00000000000E+00 0. -1.
         25    1    1    2    0    0 -0.21544033185E+03 -0.34770133401E+02 -0.18138162854E+03  0.31007707741E+03  0.12500000000E+03 0.  0.
         21    1    1    2  503  501  0.21544033185E+03  0.34770133401E+02 -0.18511009172E+04  0.18639200906E+04  0.00000000000E+00 0. -1.
<mgrwt>
<rscale>  3 0.25149254E+03</rscale>
<asrwt>0</asrwt>
<pdfrwt beam="1">  1       21 0.10885742E-01 0.25149254E+03</pdfrwt>
<pdfrwt beam="2">  1       21 0.32357532E+00 0.25149254E+03</pdfrwt>
<totfact> 0.16255604E+03</totfact>
</mgrwt>
</event>
<event>
 4    0  0.1525083E-001  0.2850960E+03  0.7546771E-02  0.1092938E+00
         21   -1    0    0  503  501  0.00000000000E+00  0.00000000000E+00  0.16008874144E+03  0.16008874144E+03  0.00000000000E+00 0.  1.
         21   -1    0    0  501  502 -0.00000000000E+00 -0.00000000000E+00 -0.62846410203E+03  0.62846410203E+03  0.00000000000E+00 0.  1.
         25    1    1    2    0    0 -0.16462018359E+03 -0.19635402550E+03 -0.37919345535E+02  0.28760664968E+03  0.12500000000E+03 0.  0.
         21    1    1    2  503  502  0.16462018359E+03  0.19635402550E+03 -0.43045601505E+03  0.50094619379E+03  0.00000000000E+00 0.  1.
<mgrwt>
<rscale>  3 0.28509596E+03</rscale>
<asrwt>0</asrwt>
<pdfrwt beam="1">  1       21 0.24629037E-01 0.28509596E+03</pdfrwt>
<pdfrwt beam="2">  1       21 0.96686787E-01 0.28509596E+03</pdfrwt>
<totfact> 0.13148971E+04</totfact>
</mgrwt>
</event>
<event>
 4    0  0.1525083E-001  0.3322185E+03  0.7546771E-02  0.1070159E+00
         21   -1    0    0  503  501  0.00000000000E+00  0.00000000000E+00  0.12970214461E+03  0.12970214461E+03  0.00000000000E+00 0.  1.
         21   -1    0    0  501  502 -0.00000000000E+00 -0.00000000000E+00 -0.91925998744E+03  0.91925998744E+03  0.00000000000E+00 0. -1.
         25    1    1    2    0    0 -0.16823745934E+03  0.25776011471E+03 -0.21082936917E+03  0.39346936650E+03  0.12500000000E+03 0.  0.
         21    1    1    2  503  502  0.16823745934E+03 -0.25776011471E+03 -0.57872847366E+03  0.65549276555E+03  0.00000000000E+00 0. -1.
<mgrwt>
<rscale>  3 0.33221848E+03</rscale>
<asrwt>0</asrwt>
<pdfrwt beam="1">  1       21 0.19954176E-01 0.33221848E+03</pdfrwt>
<pdfrwt beam="2">  1       21 0.14142461E+00 0.33221848E+03</pdfrwt>
<totfact> 0.74315886E+03</totfact>
</mgrwt>
</event>
<event>
 4    0  0.1525083E-001  0.2648003E+03  0.7546771E-02  0.1104293E+00
         21   -1    0    0  502  501  0.00000000000E+00  0.00000000000E+00  0.41669860900E+03  0.41669860900E+03  0.00000000000E+00 0.  1.
         21   -1    0    0  503  502 -0.00000000000E+00 -0.00000000000E+00 -0.24222727999E+03  0.24222727999E+03  0.00000000000E+00 0. -1.
         25    1    1    2    0    0 -0.21743096871E+03  0.84958531554E+02  0.29482755024E+03  0.39628583449E+03  0.12500000000E+03 0.  0.
         21    1    1    2  503  501  0.21743096871E+03 -0.84958531554E+02 -0.12035622123E+03  0.26264005450E+03  0.00000000000E+00 0. -1.
<mgrwt>
<rscale>  3 0.26480026E+03</rscale>
<asrwt>0</asrwt>
<pdfrwt beam="1">  1       21 0.64107478E-01 0.26480026E+03</pdfrwt>
<pdfrwt beam="2">  1       21 0.37265735E-01 0.26480026E+03</pdfrwt>
<totfact> 0.14979415E+04</totfact>
</mgrwt>
</event>
<event>
 4    0  0.1525083E-001  0.3523924E+03  0.7546771E-02  0.1061637E+00
         21   -1    0    0  503  501  0.00000000000E+00  0.00000000000E+00  0.85341203716E+02  0.85341203716E+02  0.00000000000E+00 0.  1.
         21   -1    0    0  501  502 -0.00000000000E+00 -0.00000000000E+00 -0.13995709094E+04  0.13995709094E+04  0.00000000000E+00 0. -1.
         25    1    1    2    0    0 -0.73255022526E+02  0.32123064067E+03 -0.55706250010E+03  0.65916542070E+03  0.12500000000E+03 0.  0.
         21    1    1    2  503  502  0.73255022526E+02 -0.32123064067E+03 -0.75716720562E+03  0.82574669246E+03  0.00000000000E+00 0. -1.
<mgrwt>
<rscale>  3 0.35239243E+03</rscale>
<asrwt>0</asrwt>
<pdfrwt beam="1">  1       21 0.13129415E-01 0.35239243E+03</pdfrwt>
<pdfrwt beam="2">  1       21 0.21531862E+00 0.35239243E+03</pdfrwt>
<totfact> 0.47967653E+03</totfact>
</mgrwt>
</event>
<event>
 4    0  0.1525083E-001  0.2758175E+03  0.7546771E-02  0.1097995E+00
         21   -1    0    0  503  501  0.00000000000E+00  0.00000000000E+00  0.41043919928E+03  0.41043919928E+03  0.00000000000E+00 0. -1.
         21   -1    0    0  501  502 -0.00000000000E+00 -0.00000000000E+00 -0.20304498073E+03  0.20304498073E+03  0.00000000000E+00 0. -1.
         25    1    1    2    0    0 -0.14666958151E+03  0.19732800262E+03  0.23980796950E+03  0.36549031313E+03  0.12500000000E+03 0.  0.
         21    1    1    2  503  502  0.14666958151E+03 -0.19732800262E+03 -0.32413750949E+02  0.24799386687E+03  0.00000000000E+00 0. -1.
<mgrwt>
<rscale>  3 0.27581752E+03</rscale>
<asrwt>0</asrwt>
<pdfrwt beam="1">  1       21 0.63144492E-01 0.27581752E+03</pdfrwt>
<pdfrwt beam="2">  1       21 0.31237689E-01 0.27581752E+03</pdfrwt>
<totfact> 0.21906334E+04</totfact>
</mgrwt>
</event>
<event>
 4    0  0.1525083E-001  0.2854224E+03  0.7546771E-02  0.1092764E+00
         21   -1    0    0  502  501  0.00000000000E+00  0.00000000000E+00  0.15574965538E+03  0.15574965538E+03  0.00000000000E+00 0.  1.
         21   -1    0    0  503  502 -0.00000000000E+00 -0.00000000000E+00 -0.53745517659E+03  0.53745517659E+03  0.00000000000E+00 0.  1.
         25    1    1    2    0    0 -0.22844254854E+03  0.11685438054E+03 -0.32096921671E+03  0.42951971120E+03  0.12500000000E+03 0.  0.
         21    1    1    2  503  501  0.22844254854E+03 -0.11685438054E+03 -0.60736304496E+02  0.26368512077E+03  0.00000000000E+00 0.  1.
<mgrwt>
<rscale>  3 0.28542240E+03</rscale>
<asrwt>0</asrwt>
<pdfrwt beam="1">  1       21 0.23961486E-01 0.28542240E+03</pdfrwt>
<pdfrwt beam="2">  1       21 0.82685410E-01 0.28542240E+03</pdfrwt>
<totfact> 0.19978255E+04</totfact>
</mgrwt>
</event>
<event>
 4    0  0.1525083E-001  0.2974108E+03  0.7546771E-02  0.1086542E+00
         21   -1    0    0  502  501  0.00000000000E+00  0.00000000000E+00  0.43546230870E+03  0.43546230870E+03  0.00000000000E+00 0.  1.
         21   -1    0    0  503  502 -0.00000000000E+00 -0.00000000000E+00 -0.31747234959E+03  0.31747234959E+03  0.00000000000E+00 0. -1.
         25    1    1    2    0    0 -0.24436143710E+03  0.11452379410E+03  0.30391063704E+03  0.42522333739E+03  0.12500000000E+03 0.  0.
         21    1    1    2  503  501  0.24436143710E+03 -0.11452379410E+03 -0.18592067793E+03  0.32771132089E+03  0.00000000000E+00 0. -1.
<mgrwt>
<rscale>  3 0.29741085E+03</rscale>
<asrwt>0</asrwt>
<pdfrwt beam="1">  1       21 0.66994201E-01 0.29741085E+03</pdfrwt>
<pdfrwt beam="2">  1       21 0.48841900E-01 0.29741085E+03</pdfrwt>
<totfact> 0.76721437E+03</totfact>
</mgrwt>
</event>
<event>
 4    0  0.1525083E-001  0.2440344E+03  0.7546771E-02  0.1117134E+00
         21   -1    0    0  503  501  0.00000000000E+00  0.00000000000E+00  0.25886099072E+03  0.25886099072E+03  0.00000000000E+00 0.  1.
         21   -1    0    0  501  502 -0.00000000000E+00 -0.00000000000E+00 -0.39972421969E+03  0.39972421969E+03  0.00000000000E+00 0. -1.
         25    1    1    2    0    0 -0.15630628811E+03  0.13962848402E+03  0.16007767370E+03  0.29185207018E+03  0.12500000000E+03 0.  0.
         21    1    1    2  503  502  0.15630628811E+03 -0.13962848402E+03 -0.30094090266E+03  0.36673314024E+03  0.00000000000E+00 0. -1.
<mgrwt>
<rscale>  3 0.24403436E+03</rscale>
<asrwt>0</asrwt>
<pdfrwt beam="1">  1       21 0.39824768E-01 0.24403436E+03</pdfrwt>
<pdfrwt beam="2">  1       21 0.61496034E-01 0.24403436E+03</pdfrwt>
<totfact> 0.14488802E+04</totfact>
</mgrwt>
</event>
<event>
 4    0  0.1525083E-001  0.2483862E+03  0.7546771E-02  0.1114329E+00
         21   -1    0    0  502  501  0.00000000000E+00  0.00000000000E+00  0.36747122370E+02  0.36747122370E+02  0.00000000000E+00 0. -1.
         21   -1    0    0  503  502 -0.00000000000E+00 -0.00000000000E+00 -0.26014696228E+04  0.26014696228E+04  0.00000000000E+00 0.  1.
         25    1    1    2    0    0 -0.10399404033E+03  0.18776564355E+03 -0.46173692616E+03  0.52430590908E+03  0.12500000000E+03 0.  0.
         21    1    1    2  503  501  0.10399404033E+03 -0.18776564355E+03 -0.21029855742E+04  0.21139108361E+04  0.00000000000E+00 0.  1.
<mgrwt>
<rscale>  3 0.24838619E+03</rscale>
<asrwt>0</asrwt>
<pdfrwt beam="1">  1       21 0.56534001E-02 0.24838619E+03</pdfrwt>
<pdfrwt beam="2">  1       21 0.40022633E+00 0.24838619E+03</pdfrwt>
<totfact> 0.17632456E+03</totfact>
</mgrwt>
</event>
<event>
 4    0  0.1525083E-001  0.3514436E+03  0.7546771E-02  0.1062024E+00
         21   -1    0    0  502  501  0.00000000000E+00  0.00000000000E+00  0.77709647250E+03  0.77709647250E+03  0.00000000000E+00 0.  1.
         21   -1    0    0  503  502 -0.00000000000E+00 -0.00000000000E+00 -0.14928034893E+03  0.14928034893E+03  0.00000000000E+00 0.  1.
         25    1    1    2    0    0 -0.22483789265E+03  0.23944839856E+03  0.35289593032E+03  0.49804432652E+03  0.12500000000E+03 0.  0.
         21    1    1    2  503  501  0.22483789265E+03 -0.23944839856E+03  0.27492019326E+03  0.42833249492E+03  0.00000000000E+00 0.  1.
<mgrwt>
<rscale>  3 0.35144361E+03</rscale>
<asrwt>0</asrwt>
<pdfrwt beam="1">  1       21 0.11955330E+00 0.35144361E+03</pdfrwt>
<pdfrwt beam="2">  1       21 0.22966208E-01 0.35144361E+03</pdfrwt>
<totfact> 0.86937984E+03</totfact>
</mgrwt>
</event>
<event>
 4    0  0.1525083E-001  0.2704389E+03  0.7546771E-02  0.1101029E+00
         21   -1    0    0  502  501  0.00000000000E+00  0.00000000000E+00  0.41270540178E+02  0.41270540178E+02  0.00000000000E+00 0.  1.
         21   -1    0    0  503  502 -0.00000000000E+00 -0.00000000000E+00 -0.15919673647E+04  0.15919673647E+04  0.00000000000E+00 0.  1.
         25    1    1    2    0    0 -0.11697512358E+03 -0.20935382965E+03 -0.90006094383E+03  0.93981216641E+03  0.12500000000E+03 0.  0.
         21    1    1    2  503  501  0.11697512358E+03  0.20935382965E+03 -0.65063588069E+03  0.69342573846E+03  0.00000000000E+00 0.  1.
<mgrwt>
<rscale>  3 0.27043891E+03</rscale>
<asrwt>0</asrwt>
<pdfrwt beam="1">  1       21 0.63493153E-02 0.27043891E+03</pdfrwt>
<pdfrwt beam="2">  1       21 0.24491800E+00 0.27043891E+03</pdfrwt>
<totfact> 0.11990645E+04</totfact>
</mgrwt>
</event>
<event>
 4    0  0.1525083E-001  0.3328910E+03  0.7546771E-02  0.1069865E+00
         21   -1    0    0  502  501  0.00000000000E+00  0.00000000000E+00  0.73683628924E+03  0.73683628924E+03  0.00000000000E+00 0. -1.
         21   -1    0    0  503  502 -0.00000000000E+00 -0.00000000000E+00 -0.32107661948E+03  0.32107661948E+03  0.00000000000E+00 0.  1.
         25    1    1    2    0    0  0.51944504868E+02  0.30412695262E+03  0.60887037397E+03  0.69393052044E+03  0.12500000000E+03 0.  0.
         21    1    1    2  503  501 -0.51944504868E+02 -0.30412695262E+03 -0.19311070421E+03  0.36398238828E+03  0.00000000000E+00 0.  1.
<mgrwt>
<rscale>  3 0.33289103E+03</rscale>
<asrwt>0</asrwt>
<pdfrwt beam="1">  1       21 0.11335943E+00 0.33289103E+03</pdfrwt>
<pdfrwt beam="2">  1       21 0.49396403E-01 0.33289103E+03</pdfrwt>
<totfact> 0.21536260E+03</totfact>
</mgrwt>
</event>
<event>
 4    0  0.1525083E-001  0.3158718E+03  0.7546771E-02  0.1077565E+00
         21   -1    0    0  502  501  0.00000000000E+00  0.00000000000E+00  0.12420230853E+03  0.12420230853E+03  0.00000000000E+00 0.  1.
         21   -1    0    0  503  502 -0.00000000000E+00 -0.00000000000E+00 -0.11482971013E+04  0.11482971013E+04  0.00000000000E+00 0.  1.
         25    1    1    2    0    0 -0.18613656893E+03 -0.22249301832E+03 -0.14647666859E+03  0.34818153302E+03  0.12500000000E+03 0.  0.
         21    1    1    2  503  501  0.18613656893E+03  0.22249301832E+03 -0.87761812419E+03  0.92431787682E+03  0.00000000000E+00 0.  1.
<mgrwt>
<rscale>  3 0.31587175E+03</rscale>
<asrwt>0</asrwt>
<pdfrwt beam="1">  1       21 0.19108049E-01 0.31587175E+03</pdfrwt>
<pdfrwt beam="2">  1       21 0.17666108E+00 0.31587175E+03</pdfrwt>
<totfact> 0.44193723E+03</totfact>
</mgrwt>
</event>
<event>
 4    0  0.1525083E-001  0.2883429E+03  0.7546771E-02  0.1091218E+00
         21   -1    0    0  503  501  0.00000000000E+00  0.00000000000E+00  0.44232925982E+03  0.44232925982E+03  0.00000000000E+00 0. -1.
         21   -1    0    0  501  502 -0.00000000000E+00 -0.00000000000E+00 -0.39702925368E+03  0.39702925368E+03  0.00000000000E+00 0. -1.
         25    1    1    2    0    0 -0.25925245018E+03 -0.17457615135E+02  0.34043705826E+03  0.44613786197E+03  0.12500000000E+03 0.  0.
         21    1    1    2  503  502  0.25925245018E+03  0.17457615135E+02 -0.29513705212E+03  0.39322065152E+03  0.00000000000E+00 0. -1.
<mgrwt>
<rscale>  3 0.28834285E+03</rscale>
<asrwt>0</asrwt>
<pdfrwt beam="1">  1       21 0.68050656E-01 0.28834285E+03</pdfrwt>
<pdfrwt beam="2">  1       21 0.61081423E-01 0.28834285E+03</pdfrwt>
<totfact> 0.46171376E+03</totfact>
</mgrwt>
</event>
<event>
 4    0  0.1525083E-001  0.2753028E+03  0.7546771E-02  0.1098282E+00
         21   -1    0    0  502  501  0.00000000000E+00  0.00000000000E+00  0.46706501439E+02  0.46706501439E+02  0.00000000000E+00 0.  1.
         21   -1    0    0  503  502 -0.00000000000E+00 -0.00000000000E+00 -0.19902562724E+04  0.19902562724E+04  0.00000000000E+00 0. -1.
         25    1    1    2    0    0 -0.19998989588E+03  0.14202358830E+03 -0.48292563794E+03  0.55588562661E+03  0.12500000000E+03 0.  0.
         21    1    1    2  503  501  0.19998989588E+03 -0.14202358830E+03 -0.14606241331E+04  0.14810771473E+04  0.00000000000E+00 0. -1.
<mgrwt>
<rscale>  3 0.27530285E+03</rscale>
<asrwt>0</asrwt>
<pdfrwt beam="1">  1       21 0.71856160E-02 0.27530285E+03</pdfrwt>
<pdfrwt beam="2">  1       21 0.30619325E+00 0.27530285E+03</pdfrwt>
<totfact> 0.41862504E+03</totfact>
</mgrwt>
</event>
<event>
 4    0  0.1525083E-001  0.2949457E+03  0.7546771E-02  0.1087795E+00
         21   -1    0    0  503  501  0.00000000000E+00  0.00000000000E+00  0.96152426521E+02  0.96152426521E+02  0.00000000000E+00 0.  1.
         21   -1    0    0  501  502 -0.00000000000E+00 -0.00000000000E+00 -0.14089384300E+04  0.14089384300E+04  0.00000000000E+00 0.  1.
         25    1    1    2    0    0  0.18398056845E+03 -0.19369859525E+03 -0.18973447442E+03  0.35070238972E+03  0.12500000000E+03 0.  0.
         21    1    1    2  503  502 -0.18398056845E+03  0.19369859525E+03 -0.11230515291E+04  0.11543884668E+04  0.00000000000E+00 0.  1.
<mgrwt>
<rscale>  3 0.29494575E+03</rscale>
<asrwt>0</asrwt>
<pdfrwt beam="1">  1       21 0.14792682E-01 0.29494575E+03</pdfrwt>
<pdfrwt beam="2">  1       21 0.21675974E+00 0.29494575E+03</pdfrwt>
<totfact> 0.39030461E+03</totfact>
</mgrwt>
</event>
<event>
 4    0  0.1525083E-001  0.2366727E+03  0.7546771E-02  0.1122029E+00
         21   -1    0    0  503  501  0.00000000000E+00  0.00000000000E+00  0.34128349855E+03  0.34128349855E+03  0.00000000000E+00 0.  1.
         21   -1    0    0  501  502 -0.00000000000E+00 -0.00000000000E+00 -0.14280506268E+03  0.14280506268E+03  0.00000000000E+00 0.  1.
         25    1    1    2    0    0 -0.11301516694E+03  0.16618230698E+03  0.13913203239E+03  0.27453908565E+03  0.12500000000E+03 0.  0.
         21    1    1    2  503  502  0.11301516694E+03 -0.16618230698E+03  0.59346403488E+02  0.20954947559E+03  0.00000000000E+00 0.  1.
<mgrwt>
<rscale>  3 0.23667274E+03</rscale>
<asrwt>0</asrwt>
<pdfrwt beam="1">  1       21 0.52505153E-01 0.23667274E+03</pdfrwt>
<pdfrwt beam="2">  1       21 0.21970010E-01 0.23667274E+03</pdfrwt>
<totfact> 0.65325983E+04</totfact>
</mgrwt>
</event>
<event>
 4    0  0.1525083E-001  0.2497992E+03  0.7546771E-02  0.1113432E+00
         21   -1    0    0  502  501  0.00000000000E+00  0.00000000000E+00  0.11416442558E+03  0.11416442558E+03  0.00000000000E+00 0. -1.
         21   -1    0    0  503  502 -0.00000000000E+00 -0.00000000000E+00 -0.49955112294E+03  0.49955112294E+03  0.00000000000E+00 0. -1.
         25    1    1    2    0    0  0.15938159700E+03  0.14619214749E+03 -0.13898372912E+03  0.28586030576E+03  0.12500000000E+03 0.  0.
         21    1    1    2  503  501 -0.15938159700E+03 -0.14619214749E+03 -0.24640296824E+03  0.32785524277E+03  0.00000000000E+00 0. -1.
<mgrwt>
<rscale>  3 0.24979919E+03</rscale>
<asrwt>0</asrwt>
<pdfrwt beam="1">  1       21 0.17563758E-01 0.24979919E+03</pdfrwt>
<pdfrwt beam="2">  1       21 0.76854017E-01 0.24979919E+03</pdfrwt>
<totfact> 0.43052166E+04</totfact>
</mgrwt>
</event>
<event>
 4    0  0.1525083E-001  0.4408764E+03  0.7546771E-02  0.1030478E+00
         21   -1    0    0  502  501  0.00000000000E+00  0.00000000000E+00  0.11857047985E+03  0.11857047985E+03  0.00000000000E+00 0. -1.
         21   -1    0    0  503  502 -0.00000000000E+00 -0.00000000000E+00 -0.23839432436E+04  0.23839432436E+04  0.00000000000E+00 0.  1.
         25    1    1    2    0    0 -0.23450443420E+03 -0.35178787661E+03 -0.41853432665E+03  0.60790050368E+03  0.12500000000E+03 0.  0.
         21    1    1    2  503  501  0.23450443420E+03  0.35178787661E+03 -0.18468384371E+04  0.18946132198E+04  0.00000000000E+00 0.  1.
<mgrwt>
<rscale>  3 0.44087645E+03</rscale>
<asrwt>0</asrwt>
<pdfrwt beam="1">  1       21 0.18241613E-01 0.44087645E+03</pdfrwt>
<pdfrwt beam="2">  1       21 0.36676049E+00 0.44087645E+03</pdfrwt>
<totfact> 0.29640659E+02</totfact>
</mgrwt>
</event>
<event>
 4    0  0.1525083E-001  0.5665333E+03  0.7546771E-02  0.9977379E-01
         21   -1    0    0  502  501  0.00000000000E+00  0.00000000000E+00  0.29471348810E+03  0.29471348810E+03  0.00000000000E+00 0. -1.
         21   -1    0    0  503  502 -0.00000000000E+00 -0.00000000000E+00 -0.20399097048E+04  0.20399097048E+04  0.00000000000E+00 0.  1.
         25    1    1    2    0    0  0.47388826834E+03 -0.28419171214E+03 -0.70237079928E+02  0.57087062240E+03  0.12500000000E+03 0.  0.
         21    1    1    2  503  501 -0.47388826834E+03  0.28419171214E+03 -0.16749591368E+04  0.17637525706E+04  0.00000000000E+00 0.  1.
<mgrwt>
<rscale>  3 0.56653334E+03</rscale>
<asrwt>0</asrwt>
<pdfrwt beam="1">  1       21 0.45340537E-01 0.56653334E+03</pdfrwt>
<pdfrwt beam="2">  1       21 0.31383226E+00 0.56653334E+03</pdfrwt>
<totfact> 0.95424838E+01</totfact>
</mgrwt>
</event>
<event>
 4    0  0.1525083E-001  0.4428448E+03  0.7546771E-02  0.1029878E+00
         21   -1    0    0  502  501  0.00000000000E+00  0.00000000000E+00  0.18421962009E+03  0.18421962009E+03  0.00000000000E+00 0. -1.
         21   -1    0    0  503  502 -0.00000000000E+00 -0.00000000000E+00 -0.14986356940E+04  0.14986356940E+04  0.00000000000E+00 0. -1.
         25    1    1    2    0    0 -0.24356374687E+03  0.34808509864E+03 -0.19190121202E+03  0.48263610501E+03  0.12500000000E+03 0.  0.
         21    1    1    2  503  501  0.24356374687E+03 -0.34808509864E+03 -0.11225148619E+04  0.12002192091E+04  0.00000000000E+00 0. -1.
<mgrwt>
<rscale>  3 0.44284482E+03</rscale>
<asrwt>0</asrwt>
<pdfrwt beam="1">  1       21 0.28341479E-01 0.44284482E+03</pdfrwt>
<pdfrwt beam="2">  1       21 0.23055934E+00 0.44284482E+03</pdfrwt>
<totfact> 0.85418394E+02</totfact>
</mgrwt>
</event>
<event>
 4    0  0.1525083E-001  0.3060732E+03  0.7546771E-02  0.1082243E+00
         21   -1    0    0  502  501  0.00000000000E+00  0.00000000000E+00  0.75528460306E+02  0.75528460306E+02  0.00000000000E+00 0.  1.
         21   -1    0    0  503  502 -0.00000000000E+00 -0.00000000000E+00 -0.11892313300E+04  0.11892313300E+04  0.00000000000E+00 0.  1.
         25    1    1    2    0    0 -0.19169158775E+03 -0.20324891247E+03 -0.71654536203E+03  0.77917779811E+03  0.12500000000E+03 0.  0.
         21    1    1    2  503  501  0.19169158775E+03  0.20324891247E+03 -0.39715750762E+03  0.48558199214E+03  0.00000000000E+00 0.  1.
<mgrwt>
<rscale>  3 0.30607317E+03</rscale>
<asrwt>0</asrwt>
<pdfrwt beam="1">  1       21 0.11619763E-01 0.30607317E+03</pdfrwt>
<pdfrwt beam="2">  1       21 0.18295867E+00 0.30607317E+03</pdfrwt>
<totfact> 0.10032511E+04</totfact>
</mgrwt>
</event>
<event>
 4    0  0.1525083E-001  0.2546580E+03  0.7546771E-02  0.1110396E+00
         21   -1    0    0  502  501  0.00000000000E+00  0.00000000000E+00  0.38428321525E+03  0.38428321525E+03  0.00000000000E+00 0. -1.
         21   -1    0    0  503  502 -0.00000000000E+00 -0.00000000000E+00 -0.33896680600E+03  0.33896680600E+03  0.00000000000E+00 0. -1.
         25    1    1    2    0    0 -0.15770458208E+03 -0.15606071807E+03  0.29468112547E+03  0.38947098562E+03  0.12500000000E+03 0.  0.
         21    1    1    2  503  501  0.15770458208E+03  0.15606071807E+03 -0.24936471621E+03  0.33377903563E+03  0.00000000000E+00 0. -1.
<mgrwt>
<rscale>  3 0.25465797E+03</rscale>
<asrwt>0</asrwt>
<pdfrwt beam="1">  1       21 0.59120495E-01 0.25465797E+03</pdfrwt>
<pdfrwt beam="2">  1       21 0.52148739E-01 0.25465797E+03</pdfrwt>
<totfact> 0.89760302E+03</totfact>
</mgrwt>
</event>
<event>
 4    0  0.1525083E-001  0.2553937E+03  0.7546771E-02  0.1109943E+00
         21   -1    0    0  503  501  0.00000000000E+00  0.00000000000E+00  0.10807015460E+03  0.10807015460E+03  0.00000000000E+00 0.  1.
         21   -1    0    0  501  502 -0.00000000000E+00 -0.00000000000E+00 -0.63931955152E+03  0.63931955152E+03  0.00000000000E+00 0. -1.
         25    1    1    2    0    0  0.21320240278E+03 -0.64386936719E+02 -0.12556227211E+03  0.28459062941E+03  0.12500000000E+03 0.  0.
         21    1    1    2  503  502 -0.21320240278E+03  0.64386936719E+02 -0.40568712481E+03  0.46279907671E+03  0.00000000000E+00 0. -1.
<mgrwt>
<rscale>  3 0.25539370E+03</rscale>
<asrwt>0</asrwt>
<pdfrwt beam="1">  1       21 0.16626178E-01 0.25539370E+03</pdfrwt>
<pdfrwt beam="2">  1       21 0.98356853E-01 0.25539370E+03</pdfrwt>
<totfact> 0.26845803E+04</totfact>
</mgrwt>
</event>
<event>
 4    0  0.1525083E-001  0.2524854E+03  0.7546771E-02  0.1111744E+00
         21   -1    0    0  502  501  0.00000000000E+00  0.00000000000E+00  0.48682712715E+03  0.48682712715E+03  0.00000000000E+00 0.  1.
         21   -1    0    0  503  502 -0.00000000000E+00 -0.00000000000E+00 -0.13915772080E+03  0.13915772080E+03  0.00000000000E+00 0.  1.
         25    1    1    2    0    0  0.21413682269E+03 -0.47636921080E+02  0.31577766226E+03  0.40430729287E+03  0.12500000000E+03 0.  0.
         21    1    1    2  503  501 -0.21413682269E+03  0.47636921080E+02  0.31891744091E+02  0.22167755508E+03  0.00000000000E+00 0.  1.
<mgrwt>
<rscale>  3 0.25248536E+03</rscale>
<asrwt>0</asrwt>
<pdfrwt beam="1">  1       21 0.74896480E-01 0.25248536E+03</pdfrwt>
<pdfrwt beam="2">  1       21 0.21408880E-01 0.25248536E+03</pdfrwt>
<totfact> 0.31450878E+04</totfact>
</mgrwt>
</event>
<event>
 4    0  0.1525083E-001  0.2523871E+03  0.7546771E-02  0.1111805E+00
         21   -1    0    0  503  501  0.00000000000E+00  0.00000000000E+00  0.84202820190E+03  0.84202820190E+03  0.00000000000E+00 0.  1.
         21   -1    0    0  501  502 -0.00000000000E+00 -0.00000000000E+00 -0.11697340164E+03  0.11697340164E+03  0.00000000000E+00 0.  1.
         25    1    1    2    0    0  0.17031346564E+02 -0.21859594623E+03  0.60956094659E+02  0.25964379436E+03  0.12500000000E+03 0.  0.
         21    1    1    2  503  502 -0.17031346564E+02  0.21859594623E+03  0.66409870560E+03  0.69935780918E+03  0.00000000000E+00 0.  1.
<mgrwt>
<rscale>  3 0.25238711E+03</rscale>
<asrwt>0</asrwt>
<pdfrwt beam="1">  1       21 0.12954280E+00 0.25238711E+03</pdfrwt>
<pdfrwt beam="2">  1       21 0.17995908E-01 0.25238711E+03</pdfrwt>
<totfact> 0.11789606E+04</totfact>
</mgrwt>
</event>
<event>
 4    0  0.1525083E-001  0.2494185E+03  0.7546771E-02  0.1113673E+00
         21   -1    0    0  503  501  0.00000000000E+00  0.00000000000E+00  0.36808465108E+03  0.36808465108E+03  0.00000000000E+00 0.  1.
         21   -1    0    0  501  502 -0.00000000000E+00 -0.00000000000E+00 -0.14746684634E+03  0.14746684634E+03  0.00000000000E+00 0.  1.
         25    1    1    2    0    0  0.14229055752E+03  0.16228978459E+03  0.10406441917E+03  0.27025724834E+03  0.12500000000E+03 0.  0.
         21    1    1    2  503  502 -0.14229055752E+03 -0.16228978459E+03  0.11655338558E+03  0.24529424908E+03  0.00000000000E+00 0.  1.
<mgrwt>
<rscale>  3 0.24941848E+03</rscale>
<asrwt>0</asrwt>
<pdfrwt beam="1">  1       21 0.56628408E-01 0.24941848E+03</pdfrwt>
<pdfrwt beam="2">  1       21 0.22687207E-01 0.24941848E+03</pdfrwt>
<totfact> 0.52079827E+04</totfact>
</mgrwt>
</event>
<event>
 4    0  0.1525083E-001  0.2837339E+03  0.7546771E-02  0.1093667E+00
         21   -1    0    0  502  501  0.00000000000E+00  0.00000000000E+00  0.20790036910E+03  0.20790036910E+03  0.00000000000E+00 0. -1.
         21   -1    0    0  503  502 -0.00000000000E+00 -0.00000000000E+00 -0.40563083027E+03  0.40563083027E+03  0.00000000000E+00 0. -1.
         25    1    1    2    0    0 -0.16289254898E+02  0.25419403485E+03 -0.21828897910E+03  0.35798746567E+03  0.12500000000E+03 0.  0.
         21    1    1    2  503  501  0.16289254898E+02 -0.25419403485E+03  0.20558517930E+02  0.25554373370E+03  0.00000000000E+00 0. -1.
<mgrwt>
<rscale>  3 0.28373394E+03</rscale>
<asrwt>0</asrwt>
<pdfrwt beam="1">  1       21 0.31984672E-01 0.28373394E+03</pdfrwt>
<pdfrwt beam="2">  1       21 0.62404743E-01 0.28373394E+03</pdfrwt>
<totfact> 0.21379070E+04</totfact>
</mgrwt>
</event>
<event>
 4    0  0.1525083E-001  0.2739324E+03  0.7546771E-02  0.1099050E+00
         21   -1    0    0  502  501  0.00000000000E+00  0.00000000000E+00  0.46137043491E+02  0.46137043491E+02  0.00000000000E+00 0.  1.
         21   -1    0    0  503  502 -0.00000000000E+00 -0.00000000000E+00 -0.18195582548E+04  0.18195582548E+04  0.00000000000E+00 0.  1.
         25    1    1    2    0    0 -0.23176755186E+03 -0.75483501023E+02 -0.50936762696E+03  0.57835485337E+03  0.12500000000E+03 0.  0.
         21    1    1    2  503  501  0.23176755186E+03  0.75483501023E+02 -0.12640535843E+04  0.12873404449E+04  0.00000000000E+00 0.  1.
<mgrwt>
<rscale>  3 0.27393239E+03</rscale>
<asrwt>0</asrwt>
<pdfrwt beam="1">  1       21 0.70980069E-02 0.27393239E+03</pdfrwt>
<pdfrwt beam="2">  1       21 0.27993203E+00 0.27393239E+03</pdfrwt>
<totfact> 0.61065503E+03</totfact>
</mgrwt>
</event>
<event>
 4    0  0.1525083E-001  0.2771584E+03  0.7546771E-02  0.1097251E+00
         21   -1    0    0  502  501  0.00000000000E+00  0.00000000000E+00  0.42770019431E+03  0.42770019431E+03  0.00000000000E+00 0.  1.
         21   -1    0    0  503  502 -0.00000000000E+00 -0.00000000000E+00 -0.32274404986E+03  0.32274404986E+03  0.00000000000E+00 0.  1.
         25    1    1    2    0    0  0.24732978536E+03  0.44445436612E+01  0.31952559208E+03  0.42298153705E+03  0.12500000000E+03 0.  0.
         21    1    1    2  503  501 -0.24732978536E+03 -0.44445436612E+01 -0.21456944762E+03  0.32746270711E+03  0.00000000000E+00 0.  1.
<mgrwt>
<rscale>  3 0.27715840E+03</rscale>
<asrwt>0</asrwt>
<pdfrwt beam="1">  1       21 0.65800030E-01 0.27715840E+03</pdfrwt>
<pdfrwt beam="2">  1       21 0.49652931E-01 0.27715840E+03</pdfrwt>
<totfact> 0.77886961E+03</totfact>
</mgrwt>
</event>
<event>
 4    0  0.1525083E-001  0.2412027E+03  0.7546771E-02  0.1118994E+00
         21   -1    0    0  502  501  0.00000000000E+00  0.00000000000E+00  0.35490743957E+03  0.35490743957E+03  0.00000000000E+00 0. -1.
         21   -1    0    0  503  502 -0.00000000000E+00 -0.00000000000E+00 -0.14625767421E+03  0.14625767421E+03  0.00000000000E+00 0. -1.
         25    1    1    2    0    0 -0.20210582894E+02  0.20529309691E+03  0.15929853232E+03  0.28905837767E+03  0.12500000000E+03 0.  0.
         21    1    1    2  503  501  0.20210582894E+02 -0.20529309691E+03  0.49351233040E+02  0.21210673611E+03  0.00000000000E+00 0. -1.
<mgrwt>
<rscale>  3 0.24120266E+03</rscale>
<asrwt>0</asrwt>
<pdfrwt beam="1">  1       21 0.54601144E-01 0.24120266E+03</pdfrwt>
<pdfrwt beam="2">  1       21 0.22501181E-01 0.24120266E+03</pdfrwt>
<totfact> 0.57362483E+04</totfact>
</mgrwt>
</event>
<event>
 4    0  0.1525083E-001  0.3682964E+03  0.7546771E-02  0.1055346E+00
         21   -1    0    0  503  501  0.00000000000E+00  0.00000000000E+00  0.21105668318E+03  0.21105668318E+03  0.00000000000E+00 0.  1.
         21   -1    0    0  501  502 -0.00000000000E+00 -0.00000000000E+00 -0.73103858616E+03  0.73103858616E+03  0.00000000000E+00 0. -1.
         25    1    1    2    0    0  0.21245457280E+03 -0.27364259856E+03 -0.71136091426E+02  0.37510340008E+03  0.12500000000E+03 0.  0.
         21    1    1    2  503  502 -0.21245457280E+03  0.27364259856E+03 -0.44884581156E+03  0.56699186926E+03  0.00000000000E+00 0. -1.
<mgrwt>
<rscale>  3 0.36829637E+03</rscale>
<asrwt>0</asrwt>
<pdfrwt beam="1">  1       21 0.32470259E-01 0.36829637E+03</pdfrwt>
<pdfrwt beam="2">  1       21 0.11246748E+00 0.36829637E+03</pdfrwt>
<totfact> 0.51061483E+03</totfact>
</mgrwt>
</event>
<event>
 4    0  0.1525083E-001  0.2423011E+03  0.7546771E-02  0.1118269E+00
         21   -1    0    0  503  501  0.00000000000E+00  0.00000000000E+00  0.19173785571E+03  0.19173785571E+03  0.00000000000E+00 0. -1.
         21   -1    0    0  501  502 -0.00000000000E+00 -0.00000000000E+00 -0.44183946701E+03  0.44183946701E+03  0.00000000000E+00 0. -1.
         25    1    1    2    0    0  0.11764199683E+02  0.20723523220E+03  0.69872270462E+02  0.25217448729E+03  0.12500000000E+03 0.  0.
         21    1    1    2  503  502 -0.11764199683E+02 -0.20723523220E+03 -0.31997388176E+03  0.38140283543E+03  0.00000000000E+00 0. -1.
<mgrwt>
<rscale>  3 0.24230113E+03</rscale>
<asrwt>0</asrwt>
<pdfrwt beam="1">  1       21 0.29498132E-01 0.24230113E+03</pdfrwt>
<pdfrwt beam="2">  1       21 0.67975302E-01 0.24230113E+03</pdfrwt>
<totfact> 0.21177015E+04</totfact>
</mgrwt>
</event>
<event>
 4    0  0.1525083E-001  0.2375197E+03  0.7546771E-02  0.1121456E+00
         21   -1    0    0  502  501  0.00000000000E+00  0.00000000000E+00  0.25098628332E+03  0.25098628332E+03  0.00000000000E+00 0. -1.
         21   -1    0    0  503  502 -0.00000000000E+00 -0.00000000000E+00 -0.22289794381E+03  0.22289794381E+03  0.00000000000E+00 0. -1.
         25    1    1    2    0    0 -0.40474888649E+02 -0.19786967541E+03  0.10243642865E+03  0.25866744475E+03  0.12500000000E+03 0.  0.
         21    1    1    2  503  501  0.40474888649E+02  0.19786967541E+03 -0.74348089148E+02  0.21521678238E+03  0.00000000000E+00 0. -1.
<mgrwt>
<rscale>  3 0.23751974E+03</rscale>
<asrwt>0</asrwt>
<pdfrwt beam="1">  1       21 0.38613274E-01 0.23751974E+03</pdfrwt>
<pdfrwt beam="2">  1       21 0.34291991E-01 0.23751974E+03</pdfrwt>
<totfact> 0.51935902E+04</totfact>
</mgrwt>
</event>
<event>
 4    0  0.1525083E-001  0.2665062E+03  0.7546771E-02  0.1103296E+00
         21   -1    0    0  503  501  0.00000000000E+00  0.00000000000E+00  0.76387307501E+03  0.76387307501E+03  0.00000000000E+00 0. -1.
         21   -1    0    0  501  502 -0.00000000000E+00 -0.00000000000E+00 -0.12461647458E+03  0.12461647458E+03  0.00000000000E+00 0. -1.
         25    1    1    2    0    0  0.23439894462E+03  0.21393199269E+02  0.59087324263E+03  0.64819497303E+03  0.12500000000E+03 0.  0.
         21    1    1    2  503  502 -0.23439894462E+03 -0.21393199269E+02  0.48383357799E+02  0.24029457656E+03  0.00000000000E+00 0. -1.
<mgrwt>
<rscale>  3 0.26650616E+03</rscale>
<asrwt>0</asrwt>
<pdfrwt beam="1">  1       21 0.11751893E+00 0.26650616E+03</pdfrwt>
<pdfrwt beam="2">  1       21 0.19171766E-01 0.26650616E+03</pdfrwt>
<totfact> 0.13287116E+04</totfact>
</mgrwt>
</event>
<event>
 4    0  0.1525083E-001  0.2911200E+03  0.7546771E-02  0.1089766E+00
         21   -1    0    0  502  501  0.00000000000E+00  0.00000000000E+00  0.35114190281E+03  0.35114190281E+03  0.00000000000E+00 0. -1.
         21   -1    0    0  503  502 -0.00000000000E+00 -0.00000000000E+00 -0.36307177933E+03  0.36307177933E+03  0.00000000000E+00 0. -1.
         25    1    1    2    0    0 -0.22216316239E+01  0.26290852147E+03  0.21898607371E+03  0.36428797234E+03  0.12500000000E+03 0.  0.
         21    1    1    2  503  501  0.22216316239E+01 -0.26290852147E+03 -0.23091595024E+03  0.34992570981E+03  0.00000000000E+00 0. -1.
<mgrwt>
<rscale>  3 0.29111995E+03</rscale>
<asrwt>0</asrwt>
<pdfrwt beam="1">  1       21 0.54021831E-01 0.29111995E+03</pdfrwt>
<pdfrwt beam="2">  1       21 0.55857197E-01 0.29111995E+03</pdfrwt>
<totfact> 0.92367304E+03</totfact>
</mgrwt>
</event>
<event>
 4    0  0.1525083E-001  0.2423544E+03  0.7546771E-02  0.1118234E+00
         21   -1    0    0  503  501  0.00000000000E+00  0.00000000000E+00  0.28368968800E+03  0.28368968800E+03  0.00000000000E+00 0. -1.
         21   -1    0    0  501  502 -0.00000000000E+00 -0.00000000000E+00 -0.22996127173E+03  0.22996127173E+03  0.00000000000E+00 0. -1.
         25    1    1    2    0    0  0.28161529403E+02 -0.20571243108E+03  0.14975466923E+03  0.28488969268E+03  0.12500000000E+03 0.  0.
         21    1    1    2  503  502 -0.28161529403E+02  0.20571243108E+03 -0.96026252959E+02  0.22876126704E+03  0.00000000000E+00 0. -1.
<mgrwt>
<rscale>  3 0.24235444E+03</rscale>
<asrwt>0</asrwt>
<pdfrwt beam="1">  1       21 0.43644567E-01 0.24235444E+03</pdfrwt>
<pdfrwt beam="2">  1       21 0.35378657E-01 0.24235444E+03</pdfrwt>
<totfact> 0.37942822E+04</totfact>
</mgrwt>
</event>
<event>
 4    0  0.1525083E-001  0.2568273E+03  0.7546771E-02  0.1109065E+00
         21   -1    0    0  503  501  0.00000000000E+00  0.00000000000E+00  0.63588853891E+03  0.63588853891E+03  0.00000000000E+00 0.  1.
         21   -1    0    0  501  502 -0.00000000000E+00 -0.00000000000E+00 -0.10734646863E+03  0.10734646863E+03  0.00000000000E+00 0.  1.
         25    1    1    2    0    0 -0.67446681274E+02 -0.21397706531E+03  0.42400202169E+03  0.49571963214E+03  0.12500000000E+03 0.  0.
         21    1    1    2  503  502  0.67446681274E+02  0.21397706531E+03  0.10454004859E+03  0.24751537539E+03  0.00000000000E+00 0.  1.
<mgrwt>
<rscale>  3 0.25682726E+03</rscale>
<asrwt>0</asrwt>
<pdfrwt beam="1">  1       21 0.97829004E-01 0.25682726E+03</pdfrwt>
<pdfrwt beam="2">  1       21 0.16514842E-01 0.25682726E+03</pdfrwt>
<totfact> 0.27513133E+04</totfact>
</mgrwt>
</event>
<event>
 4    0  0.1525083E-001  0.2368448E+03  0.7546771E-02  0.1121913E+00
         21   -1    0    0  502  501  0.00000000000E+00  0.00000000000E+00  0.16906887053E+04  0.16906887053E+04  0.00000000000E+00 0. -1.
         21   -1    0    0  503  502 -0.00000000000E+00 -0.00000000000E+00 -0.59370753500E+02  0.59370753500E+02  0.00000000000E+00 0. -1.
         25    1    1    2    0    0 -0.19318147397E+03  0.56137003363E+02  0.14786974177E+04  0.14975451573E+04  0.12500000000E+03 0.  0.
         21    1    1    2  503  501  0.19318147397E+03 -0.56137003363E+02  0.15262053408E+03  0.25251430148E+03  0.00000000000E+00 0. -1.
<mgrwt>
<rscale>  3 0.23684477E+03</rscale>
<asrwt>0</asrwt>
<pdfrwt beam="1">  1       21 0.26010592E+00 0.23684477E+03</pdfrwt>
<pdfrwt beam="2">  1       21 0.91339634E-02 0.23684477E+03</pdfrwt>
<totfact> 0.52917712E+03</totfact>
</mgrwt>
</event>
<event>
 4    0  0.1525083E-001  0.2437078E+03  0.7546771E-02  0.1117347E+00
         21   -1    0    0  502  501  0.00000000000E+00  0.00000000000E+00  0.40619785234E+03  0.40619785234E+03  0.00000000000E+00 0. -1.
         21   -1    0    0  503  502 -0.00000000000E+00 -0.00000000000E+00 -0.12901315113E+03  0.12901315113E+03  0.00000000000E+00 0. -1.
         25    1    1    2    0    0  0.20750563067E+03  0.26644308226E+02  0.18795785516E+03  0.30776884383E+03  0.12500000000E+03 0.  0.
         21    1    1    2  503  501 -0.20750563067E+03 -0.26644308226E+02  0.89226846058E+02  0.22744215963E+03  0.00000000000E+00 0. -1.
<mgrwt>
<rscale>  3 0.24370783E+03</rscale>
<asrwt>0</asrwt>
<pdfrwt beam="1">  1       21 0.62491977E-01 0.24370783E+03</pdfrwt>
<pdfrwt beam="2">  1       21 0.19848177E-01 0.24370783E+03</pdfrwt>
<totfact> 0.54328212E+04</totfact>
</mgrwt>
</event>
<event>
 4    0  0.1525083E-001  0.3728103E+03  0.7546771E-02  0.1053624E+00
         21   -1    0    0  503  501  0.00000000000E+00  0.00000000000E+00  0.33249854965E+03  0.33249854965E+03  0.00000000000E+00 0. -1.
         21   -1    0    0  501  502 -0.00000000000E+00 -0.00000000000E+00 -0.96568718520E+03  0.96568718520E+03  0.00000000000E+00 0.  1.
         25    1    1    2    0    0 -0.27656637217E+03  0.21650308250E+03  0.17881457576E+03  0.41347574953E+03  0.12500000000E+03 0.  0.
         21    1    1    2  503  502  0.27656637217E+03 -0.21650308250E+03 -0.81200321131E+03  0.88470998532E+03  0.00000000000E+00 0.  1.
<mgrwt>
<rscale>  3 0.37281033E+03</rscale>
<asrwt>0</asrwt>
<pdfrwt beam="1">  1       21 0.51153624E-01 0.37281033E+03</pdfrwt>
<pdfrwt beam="2">  1       21 0.14856726E+00 0.37281033E+03</pdfrwt>
<totfact> 0.97506587E+02</totfact>
</mgrwt>
</event>
<event>
 4    0  0.1525083E-001  0.2390737E+03  0.7546771E-02  0.1120411E+00
         21   -1    0    0  503  501  0.00000000000E+00  0.00000000000E+00  0.23762822877E+04  0.23762822877E+04  0.00000000000E+00 0. -1.
         21   -1    0    0  501  502 -0.00000000000E+00 -0.00000000000E+00 -0.41170197283E+02  0.41170197283E+02  0.00000000000E+00 0.  1.
         25    1    1    2    0    0  0.97932126601E+02  0.17871908211E+03  0.20664955988E+04  0.20802788928E+04  0.12500000000E+03 0.  0.
         21    1    1    2  503  502 -0.97932126601E+02 -0.17871908211E+03  0.26861649159E+03  0.33717359222E+03  0.00000000000E+00 0.  1.
<mgrwt>
<rscale>  3 0.23907365E+03</rscale>
<asrwt>0</asrwt>
<pdfrwt beam="1">  1       21 0.36558178E+00 0.23907365E+03</pdfrwt>
<pdfrwt beam="2">  1       21 0.63338783E-02 0.23907365E+03</pdfrwt>
<totfact> 0.23954904E+03</totfact>
</mgrwt>
</event>
<event>
 4    0  0.1525083E-001  0.2596544E+03  0.7546771E-02  0.1107351E+00
         21   -1    0    0  502  501  0.00000000000E+00  0.00000000000E+00  0.91004974834E+03  0.91004974834E+03  0.00000000000E+00 0.  1.
         21   -1    0    0  503  502 -0.00000000000E+00 -0.00000000000E+00 -0.10289583813E+03  0.10289583813E+03  0.00000000000E+00 0.  1.
         25    1    1    2    0    0  0.22106317630E+03  0.54096877561E+02  0.72647363028E+03  0.77148190878E+03  0.12500000000E+03 0.  0.
         21    1    1    2  503  501 -0.22106317630E+03 -0.54096877561E+02  0.80680279934E+02  0.24146367769E+03  0.00000000000E+00 0.  1.
<mgrwt>
<rscale>  3 0.25965439E+03</rscale>
<asrwt>0</asrwt>
<pdfrwt beam="1">  1       21 0.14000765E+00 0.25965439E+03</pdfrwt>
<pdfrwt beam="2">  1       21 0.15830130E-01 0.25965439E+03</pdfrwt>
<totfact> 0.12189130E+04</totfact>
</mgrwt>
</event>
<event>
 4    0  0.1525083E-001  0.2623338E+03  0.7546771E-02  0.1105749E+00
         21   -1    0    0  502  501  0.00000000000E+00  0.00000000000E+00  0.49018864235E+03  0.49018864235E+03  0.00000000000E+00 0. -1.
         21   -1    0    0  503  502 -0.00000000000E+00 -0.00000000000E+00 -0.12472708165E+03  0.12472708165E+03  0.00000000000E+00 0. -1.
         25    1    1    2    0    0  0.22949170195E+03 -0.22969260335E+02  0.21873506972E+03  0.34156120815E+03  0.12500000000E+03 0.  0.
         21    1    1    2  503  501 -0.22949170195E+03  0.22969260335E+02  0.14672649098E+03  0.27335451585E+03  0.00000000000E+00 0. -1.
<mgrwt>
<rscale>  3 0.26233381E+03</rscale>
<asrwt>0</asrwt>
<pdfrwt beam="1">  1       21 0.75413636E-01 0.26233381E+03</pdfrwt>
<pdfrwt beam="2">  1       21 0.19188782E-01 0.26233381E+03</pdfrwt>
<totfact> 0.37899161E+04</totfact>
</mgrwt>
</event>
<event>
 4    0  0.1525083E-001  0.2418645E+03  0.7546771E-02  0.1118557E+00
         21   -1    0    0  503  501  0.00000000000E+00  0.00000000000E+00  0.26550637191E+03  0.26550637191E+03  0.00000000000E+00 0.  1.
         21   -1    0    0  501  502 -0.00000000000E+00 -0.00000000000E+00 -0.19308962243E+03  0.19308962243E+03  0.00000000000E+00 0.  1.
         25    1    1    2    0    0 -0.80995024146E+02 -0.19056029378E+03  0.68978959501E+02  0.25150848167E+03  0.12500000000E+03 0.  0.
         21    1    1    2  503  502  0.80995024146E+02  0.19056029378E+03  0.34377899777E+01  0.20708751266E+03  0.00000000000E+00 0.  1.
<mgrwt>
<rscale>  3 0.24186447E+03</rscale>
<asrwt>0</asrwt>
<pdfrwt beam="1">  1       21 0.40847134E-01 0.24186447E+03</pdfrwt>
<pdfrwt beam="2">  1       21 0.29706096E-01 0.24186447E+03</pdfrwt>
<totfact> 0.61404935E+04</totfact>
</mgrwt>
</event>
<event>
 4    0  0.1525083E-001  0.3042314E+03  0.7546771E-02  0.1083144E+00
         21   -1    0    0  502  501  0.00000000000E+00  0.00000000000E+00  0.68849853565E+03  0.68849853565E+03  0.00000000000E+00 0.  1.
         21   -1    0    0  503  502 -0.00000000000E+00 -0.00000000000E+00 -0.29529415065E+03  0.29529415065E+03  0.00000000000E+00 0. -1.
         25    1    1    2    0    0  0.26998421145E+03  0.63563053215E+02  0.57613994022E+03  0.65153201524E+03  0.12500000000E+03 0.  0.
         21    1    1    2  503  501 -0.26998421145E+03 -0.63563053215E+02 -0.18293555523E+03  0.33226067106E+03  0.00000000000E+00 0. -1.
<mgrwt>
<rscale>  3 0.30423139E+03</rscale>
<asrwt>0</asrwt>
<pdfrwt beam="1">  1       21 0.10592285E+00 0.30423139E+03</pdfrwt>
<pdfrwt beam="2">  1       21 0.45429870E-01 0.30423139E+03</pdfrwt>
<totfact> 0.30785996E+03</totfact>
</mgrwt>
</event>
<event>
 4    0  0.1525083E-001  0.2836986E+03  0.7546771E-02  0.1093686E+00
         21   -1    0    0  502  501  0.00000000000E+00  0.00000000000E+00  0.14620164126E+04  0.14620164126E+04  0.00000000000E+00 0.  1.
         21   -1    0    0  503  502 -0.00000000000E+00 -0.00000000000E+00 -0.95561015448E+02  0.95561015448E+02  0.00000000000E+00 0. -1.
         25    1    1    2    0    0 -0.23581002764E+03  0.96195237431E+02  0.12422406041E+04  0.12742239251E+04  0.12500000000E+03 0.  0.
         21    1    1    2  503  501  0.23581002764E+03 -0.96195237431E+02  0.12421479312E+03  0.28335350301E+03  0.00000000000E+00 0. -1.
<mgrwt>
<rscale>  3 0.28369860E+03</rscale>
<asrwt>0</asrwt>
<pdfrwt beam="1">  1       21 0.22492559E+00 0.28369860E+03</pdfrwt>
<pdfrwt beam="2">  1       21 0.14701696E-01 0.28369860E+03</pdfrwt>
<totfact> 0.35356101E+03</totfact>
</mgrwt>
</event>
<event>
 4    0  0.1525083E-001  0.2386182E+03  0.7546771E-02  0.1120717E+00
         21   -1    0    0  502  501  0.00000000000E+00  0.00000000000E+00  0.53675567794E+03  0.53675567794E+03  0.00000000000E+00 0. -1.
         21   -1    0    0  503  502 -0.00000000000E+00 -0.00000000000E+00 -0.21971635682E+03  0.21971635682E+03  0.00000000000E+00 0. -1.
         25    1    1    2    0    0 -0.66748658889E+02  0.19198502326E+03  0.45295160019E+03  0.51196072578E+03  0.12500000000E+03 0.  0.
         21    1    1    2  503  501  0.66748658889E+02 -0.19198502326E+03 -0.13591227907E+03  0.24451130899E+03  0.00000000000E+00 0. -1.
<mgrwt>
<rscale>  3 0.23861817E+03</rscale>
<asrwt>0</asrwt>
<pdfrwt beam="1">  1       21 0.82577797E-01 0.23861817E+03</pdfrwt>
<pdfrwt beam="2">  1       21 0.33802516E-01 0.23861817E+03</pdfrwt>
<totfact> 0.10478411E+04</totfact>
</mgrwt>
</event>
<event>
 4    0  0.1525083E-001  0.2530159E+03  0.7546771E-02  0.1111414E+00
         21   -1    0    0  502  501  0.00000000000E+00  0.00000000000E+00  0.97003845333E+03  0.97003845333E+03  0.00000000000E+00 0.  1.
         21   -1    0    0  503  502 -0.00000000000E+00 -0.00000000000E+00 -0.44927682503E+03  0.44927682503E+03  0.00000000000E+00 0.  1.
         25    1    1    2    0    0 -0.20688051246E+03 -0.74782898195E+02  0.92506376117E+03  0.95904118291E+03  0.12500000000E+03 0.  0.
         21    1    1    2  503  501  0.20688051246E+03  0.74782898195E+02 -0.40430213286E+03  0.46027409544E+03  0.00000000000E+00 0.  1.
<mgrwt>
<rscale>  3 0.25301587E+03</rscale>
<asrwt>0</asrwt>
<pdfrwt beam="1">  1       21 0.14923669E+00 0.25301587E+03</pdfrwt>
<pdfrwt beam="2">  1       21 0.69119512E-01 0.25301587E+03</pdfrwt>
<totfact> 0.54352865E+02</totfact>
</mgrwt>
</event>
<event>
 4    0  0.1525083E-001  0.2832003E+03  0.7546771E-02  0.1093954E+00
         21   -1    0    0  502  501  0.00000000000E+00  0.00000000000E+00  0.17888890528E+03  0.17888890528E+03  0.00000000000E+00 0. -1.
         21   -1    0    0  503  502 -0.00000000000E+00 -0.00000000000E+00 -0.48575397033E+03  0.48575397033E+03  0.00000000000E+00 0. -1.
         25    1    1    2    0    0  0.98608140559E+02  0.23420895841E+03 -0.23731118515E+02  0.28419283518E+03  0.12500000000E+03 0.  0.
         21    1    1    2  503  501 -0.98608140559E+02 -0.23420895841E+03 -0.28313394653E+03  0.38045004043E+03  0.00000000000E+00 0. -1.
<mgrwt>
<rscale>  3 0.28320029E+03</rscale>
<asrwt>0</asrwt>
<pdfrwt beam="1">  1       21 0.27521370E-01 0.28320029E+03</pdfrwt>
<pdfrwt beam="2">  1       21 0.74731379E-01 0.28320029E+03</pdfrwt>
<totfact> 0.19262545E+04</totfact>
</mgrwt>
</event>
<event>
 4    0  0.1525083E-001  0.2682254E+03  0.7546771E-02  0.1102300E+00
         21   -1    0    0  503  501  0.00000000000E+00  0.00000000000E+00  0.61699618631E+02  0.61699618631E+02  0.00000000000E+00 0. -1.
         21   -1    0    0  501  502 -0.00000000000E+00 -0.00000000000E+00 -0.11096222281E+04  0.11096222281E+04  0.00000000000E+00 0. -1.
         25    1    1    2    0    0  0.20565829374E+03 -0.11842521769E+03 -0.40281255818E+03  0.48394506196E+03  0.12500000000E+03 0.  0.
         21    1    1    2  503  502 -0.20565829374E+03  0.11842521769E+03 -0.64511005131E+03  0.68737678479E+03  0.00000000000E+00 0. -1.
<mgrwt>
<rscale>  3 0.26822540E+03</rscale>
<asrwt>0</asrwt>
<pdfrwt beam="1">  1       21 0.94922500E-02 0.26822540E+03</pdfrwt>
<pdfrwt beam="2">  1       21 0.17071109E+00 0.26822540E+03</pdfrwt>
<totfact> 0.17896792E+04</totfact>
</mgrwt>
</event>
<event>
 4    0  0.1525083E-001  0.2463781E+03  0.7546771E-02  0.1115615E+00
         21   -1    0    0  503  501  0.00000000000E+00  0.00000000000E+00  0.33614435732E+03  0.33614435732E+03  0.00000000000E+00 0.  1.
         21   -1    0    0  501  502 -0.00000000000E+00 -0.00000000000E+00 -0.17525770121E+03  0.17525770121E+03  0.00000000000E+00 0. -1.
         25    1    1    2    0    0  0.13239846182E+03  0.16597529564E+03  0.16927099626E+03  0.29892276867E+03  0.12500000000E+03 0.  0.
         21    1    1    2  503  502 -0.13239846182E+03 -0.16597529564E+03 -0.83843401553E+01  0.21247928985E+03  0.00000000000E+00 0. -1.
<mgrwt>
<rscale>  3 0.24637807E+03</rscale>
<asrwt>0</asrwt>
<pdfrwt beam="1">  1       21 0.51714516E-01 0.24637807E+03</pdfrwt>
<pdfrwt beam="2">  1       21 0.26962723E-01 0.24637807E+03</pdfrwt>
<totfact> 0.45400105E+04</totfact>
</mgrwt>
</event>
<event>
 4    0  0.1525083E-001  0.2676758E+03  0.7546771E-02  0.1102617E+00
         21   -1    0    0  502  501  0.00000000000E+00  0.00000000000E+00  0.27294657694E+03  0.27294657694E+03  0.00000000000E+00 0. -1.
         21   -1    0    0  503  502 -0.00000000000E+00 -0.00000000000E+00 -0.53422946356E+03  0.53422946356E+03  0.00000000000E+00 0. -1.
         25    1    1    2    0    0  0.19455154190E+03  0.13481472161E+03  0.16866306640E+03  0.31638195522E+03  0.12500000000E+03 0.  0.
         21    1    1    2  503  501 -0.19455154190E+03 -0.13481472161E+03 -0.42994595303E+03  0.49079408528E+03  0.00000000000E+00 0. -1.
<mgrwt>
<rscale>  3 0.26767576E+03</rscale>
<asrwt>0</asrwt>
<pdfrwt beam="1">  1       21 0.41991782E-01 0.26767576E+03</pdfrwt>
<pdfrwt beam="2">  1       21 0.82189147E-01 0.26767576E+03</pdfrwt>
<totfact> 0.67271240E+03</totfact>
</mgrwt>
</event>
<event>
 4    0  0.1525083E-001  0.2594431E+03  0.7546771E-02  0.1107478E+00
         21   -1    0    0  502  501  0.00000000000E+00  0.00000000000E+00  0.59307982005E+03  0.59307982005E+03  0.00000000000E+00 0.  1.
         21   -1    0    0  503  502 -0.00000000000E+00 -0.00000000000E+00 -0.20882927466E+03  0.20882927466E+03  0.00000000000E+00 0.  1.
         25    1    1    2    0    0  0.57658207906E+02 -0.21991190055E+03  0.48748365971E+03  0.55222371501E+03  0.12500000000E+03 0.  0.
         21    1    1    2  503  501 -0.57658207906E+02  0.21991190055E+03 -0.10323311432E+03  0.24968537970E+03  0.00000000000E+00 0.  1.
<mgrwt>
<rscale>  3 0.25944308E+03</rscale>
<asrwt>0</asrwt>
<pdfrwt beam="1">  1       21 0.91243049E-01 0.25944308E+03</pdfrwt>
<pdfrwt beam="2">  1       21 0.32127581E-01 0.25944308E+03</pdfrwt>
<totfact> 0.90933100E+03</totfact>
</mgrwt>
</event>
<event>
 4    0  0.1525083E-001  0.2790101E+03  0.7546771E-02  0.1096231E+00
         21   -1    0    0  502  501  0.00000000000E+00  0.00000000000E+00  0.51371502130E+03  0.51371502130E+03  0.00000000000E+00 0.  1.
         21   -1    0    0  503  502 -0.00000000000E+00 -0.00000000000E+00 -0.17497792740E+03  0.17497792740E+03  0.00000000000E+00 0.  1.
         25    1    1    2    0    0 -0.14037091289E+03 -0.20619804630E+03  0.33925468315E+03  0.43924977806E+03  0.12500000000E+03 0.  0.
         21    1    1    2  503  501  0.14037091289E+03  0.20619804630E+03 -0.51758925232E+00  0.24944317064E+03  0.00000000000E+00 0.  1.
<mgrwt>
<rscale>  3 0.27901008E+03</rscale>
<asrwt>0</asrwt>
<pdfrwt beam="1">  1       21 0.79033080E-01 0.27901008E+03</pdfrwt>
<pdfrwt beam="2">  1       21 0.26919681E-01 0.27901008E+03</pdfrwt>
<totfact> 0.17746370E+04</totfact>
</mgrwt>
</event>
<event>
 4    0  0.1525083E-001  0.2613173E+03  0.7546771E-02  0.1106354E+00
         21   -1    0    0  503  501  0.00000000000E+00  0.00000000000E+00  0.38998290863E+02  0.38998290863E+02  0.00000000000E+00 0. -1.
         21   -1    0    0  501  502 -0.00000000000E+00 -0.00000000000E+00 -0.15567526690E+04  0.15567526690E+04  0.00000000000E+00 0. -1.
         25    1    1    2    0    0 -0.22121425564E+03  0.61041031382E+02 -0.87922239776E+03  0.91723430983E+03  0.12500000000E+03 0.  0.
         21    1    1    2  503  502  0.22121425564E+03 -0.61041031382E+02 -0.63853198042E+03  0.67851665007E+03  0.00000000000E+00 0. -1.
<mgrwt>
<rscale>  3 0.26131734E+03</rscale>
<asrwt>0</asrwt>
<pdfrwt beam="1">  1       21 0.59997384E-02 0.26131734E+03</pdfrwt>
<pdfrwt beam="2">  1       21 0.23950036E+00 0.26131734E+03</pdfrwt>
<totfact> 0.14343479E+04</totfact>
</mgrwt>
</event>
<event>
 4    0  0.1525083E-001  0.2522557E+03  0.7546771E-02  0.1111888E+00
         21   -1    0    0  503  501  0.00000000000E+00  0.00000000000E+00  0.22712079449E+04  0.22712079449E+04  0.00000000000E+00 0. -1.
         21   -1    0    0  501  502 -0.00000000000E+00 -0.00000000000E+00 -0.38884298106E+02  0.38884298106E+02  0.00000000000E+00 0. -1.
         25    1    1    2    0    0  0.51966274593E+02 -0.21285541912E+03  0.18680147246E+04  0.18849700089E+04  0.12500000000E+03 0.  0.
         21    1    1    2  503  502 -0.51966274593E+02  0.21285541912E+03  0.36430892222E+03  0.42512223413E+03  0.00000000000E+00 0. -1.
<mgrwt>
<rscale>  3 0.25225567E+03</rscale>
<asrwt>0</asrwt>
<pdfrwt beam="1">  1       21 0.34941650E+00 0.25225567E+03</pdfrwt>
<pdfrwt beam="2">  1       21 0.59822015E-02 0.25225567E+03</pdfrwt>
<totfact> 0.32614147E+03</totfact>
</mgrwt>
</event>
<event>
 4    0  0.1525083E-001  0.2760512E+03  0.7546771E-02  0.1097865E+00
         21   -1    0    0  502  501  0.00000000000E+00  0.00000000000E+00  0.81531487331E+03  0.81531487331E+03  0.00000000000E+00 0. -1.
         21   -1    0    0  503  502 -0.00000000000E+00 -0.00000000000E+00 -0.12514452863E+03  0.12514452863E+03  0.00000000000E+00 0. -1.
         25    1    1    2    0    0 -0.96474568195E+02  0.22643301862E+03  0.62890136591E+03  0.68681961407E+03  0.12500000000E+03 0.  0.
         21    1    1    2  503  501  0.96474568195E+02 -0.22643301862E+03  0.61268978761E+02  0.25363978787E+03  0.00000000000E+00 0. -1.
<mgrwt>
<rscale>  3 0.27605118E+03</rscale>
<asrwt>0</asrwt>
<pdfrwt beam="1">  1       21 0.12543305E+00 0.27605118E+03</pdfrwt>
<pdfrwt beam="2">  1       21 0.19253005E-01 0.27605118E+03</pdfrwt>
<totfact> 0.11136084E+04</totfact>
</mgrwt>
</event>
<event>
 4    0  0.1525083E-001  0.2375256E+03  0.7546771E-02  0.1121452E+00
         21   -1    0    0  502  501  0.00000000000E+00  0.00000000000E+00  0.40629259851E+03  0.40629259851E+03  0.00000000000E+00 0. -1.
         21   -1    0    0  503  502 -0.00000000000E+00 -0.00000000000E+00 -0.11971763355E+03  0.11971763355E+03  0.00000000000E+00 0. -1.
         25    1    1    2    0    0 -0.52603638289E+02 -0.19500325038E+03  0.17704678247E+03  0.29624984996E+03  0.12500000000E+03 0.  0.
         21    1    1    2  503  501  0.52603638289E+02  0.19500325038E+03  0.10952818249E+03  0.22976038209E+03  0.00000000000E+00 0. -1.
<mgrwt>
<rscale>  3 0.23752560E+03</rscale>
<asrwt>0</asrwt>
<pdfrwt beam="1">  1       21 0.62506553E-01 0.23752560E+03</pdfrwt>
<pdfrwt beam="2">  1       21 0.18418098E-01 0.23752560E+03</pdfrwt>
<totfact> 0.62602109E+04</totfact>
</mgrwt>
</event>
<event>
 4    0  0.1525083E-001  0.2512056E+03  0.7546771E-02  0.1112545E+00
         21   -1    0    0  503  501  0.00000000000E+00  0.00000000000E+00  0.27633590743E+03  0.27633590743E+03  0.00000000000E+00 0. -1.
         21   -1    0    0  501  502 -0.00000000000E+00 -0.00000000000E+00 -0.59814212137E+03  0.59814212137E+03  0.00000000000E+00 0. -1.
         25    1    1    2    0    0 -0.13512591305E+03 -0.17093930935E+03  0.19213090428E+03  0.31625708568E+03  0.12500000000E+03 0.  0.
         21    1    1    2  503  502  0.13512591305E+03  0.17093930935E+03 -0.51393711822E+03  0.55822094313E+03  0.00000000000E+00 0. -1.
<mgrwt>
<rscale>  3 0.25120561E+03</rscale>
<asrwt>0</asrwt>
<pdfrwt beam="1">  1       21 0.42513216E-01 0.25120561E+03</pdfrwt>
<pdfrwt beam="2">  1       21 0.92021865E-01 0.25120561E+03</pdfrwt>
<totfact> 0.50965097E+03</totfact>
</mgrwt>
</event>
<event>
 4    0  0.1525083E-001  0.2644806E+03  0.7546771E-02  0.1104481E+00
         21   -1    0    0  502  501  0.00000000000E+00  0.00000000000E+00  0.15153169556E+03  0.15153169556E+03  0.00000000000E+00 0.  1.
         21   -1    0    0  503  502 -0.00000000000E+00 -0.00000000000E+00 -0.49240313630E+03  0.49240313630E+03  0.00000000000E+00 0.  1.
         25    1    1    2    0    0  0.15581190409E+03  0.17334249143E+03 -0.46622411000E+02  0.26855840706E+03  0.12500000000E+03 0.  0.
         21    1    1    2  503  501 -0.15581190409E+03 -0.17334249143E+03 -0.29424902974E+03  0.37537642480E+03  0.00000000000E+00 0.  1.
<mgrwt>
<rscale>  3 0.26448056E+03</rscale>
<asrwt>0</asrwt>
<pdfrwt beam="1">  1       21 0.23312569E-01 0.26448056E+03</pdfrwt>
<pdfrwt beam="2">  1       21 0.75754328E-01 0.26448056E+03</pdfrwt>
<totfact> 0.25935235E+04</totfact>
</mgrwt>
</event>
<event>
 4    0  0.1525083E-001  0.4744344E+03  0.7546771E-02  0.1020676E+00
         21   -1    0    0  503  501  0.00000000000E+00  0.00000000000E+00  0.35626250612E+03  0.35626250612E+03  0.00000000000E+00 0.  1.
         21   -1    0    0  501  502 -0.00000000000E+00 -0.00000000000E+00 -0.65980381993E+03  0.65980381993E+03  0.00000000000E+00 0.  1.
         25    1    1    2    0    0 -0.25813677596E+03  0.37792639747E+03 -0.29430080526E+03  0.55830181890E+03  0.12500000000E+03 0.  0.
         21    1    1    2  503  502  0.25813677596E+03 -0.37792639747E+03 -0.92405085512E+01  0.45776450715E+03  0.00000000000E+00 0.  1.
<mgrwt>
<rscale>  3 0.47443435E+03</rscale>
<asrwt>0</asrwt>
<pdfrwt beam="1">  1       21 0.54809616E-01 0.47443435E+03</pdfrwt>
<pdfrwt beam="2">  1       21 0.10150828E+00 0.47443435E+03</pdfrwt>
<totfact> 0.21306306E+03</totfact>
</mgrwt>
</event>
<event>
 4    0  0.1525083E-001  0.2847964E+03  0.7546771E-02  0.1093098E+00
         21   -1    0    0  502  501  0.00000000000E+00  0.00000000000E+00  0.17350370792E+03  0.17350370792E+03  0.00000000000E+00 0.  1.
         21   -1    0    0  503  502 -0.00000000000E+00 -0.00000000000E+00 -0.48146427601E+03  0.48146427601E+03  0.00000000000E+00 0.  1.
         25    1    1    2    0    0 -0.58028300665E+02  0.24923218586E+03 -0.45508178738E+02  0.28840936267E+03  0.12500000000E+03 0.  0.
         21    1    1    2  503  501  0.58028300665E+02 -0.24923218586E+03 -0.26245238935E+03  0.36655862126E+03  0.00000000000E+00 0.  1.
<mgrwt>
<rscale>  3 0.28479636E+03</rscale>
<asrwt>0</asrwt>
<pdfrwt beam="1">  1       21 0.26692878E-01 0.28479636E+03</pdfrwt>
<pdfrwt beam="2">  1       21 0.74071426E-01 0.28479636E+03</pdfrwt>
<totfact> 0.20840148E+04</totfact>
</mgrwt>
</event>
<event>
 4    0  0.1525083E-001  0.3061713E+03  0.7546771E-02  0.1082196E+00
         21   -1    0    0  503  501  0.00000000000E+00  0.00000000000E+00  0.40545566601E+03  0.40545566601E+03  0.00000000000E+00 0.  1.
         21   -1    0    0  501  502 -0.00000000000E+00 -0.00000000000E+00 -0.24892720861E+03  0.24892720861E+03  0.00000000000E+00 0. -1.
         25    1    1    2    0    0  0.90077022382E+01  0.27934700057E+03  0.20806588385E+03  0.37017873716E+03  0.12500000000E+03 0.  0.
         21    1    1    2  503  502 -0.90077022382E+01 -0.27934700057E+03 -0.51537426450E+02  0.28420413746E+03  0.00000000000E+00 0. -1.
<mgrwt>
<rscale>  3 0.30617133E+03</rscale>
<asrwt>0</asrwt>
<pdfrwt beam="1">  1       21 0.62377795E-01 0.30617133E+03</pdfrwt>
<pdfrwt beam="2">  1       21 0.38296494E-01 0.30617133E+03</pdfrwt>
<totfact> 0.14774976E+04</totfact>
</mgrwt>
</event>
<event>
 4    0  0.1525083E-001  0.3214775E+03  0.7546771E-02  0.1074971E+00
         21   -1    0    0  502  501  0.00000000000E+00  0.00000000000E+00  0.84493091986E+03  0.84493091986E+03  0.00000000000E+00 0.  1.
         21   -1    0    0  503  502 -0.00000000000E+00 -0.00000000000E+00 -0.11508504322E+03  0.11508504322E+03  0.00000000000E+00 0.  1.
         25    1    1    2    0    0 -0.17490395067E+03 -0.23902170989E+03  0.44597981970E+03  0.54976883263E+03  0.12500000000E+03 0.  0.
         21    1    1    2  503  501  0.17490395067E+03  0.23902170989E+03  0.28386605694E+03  0.41024713045E+03  0.00000000000E+00 0.  1.
<mgrwt>
<rscale>  3 0.32147748E+03</rscale>
<asrwt>0</asrwt>
<pdfrwt beam="1">  1       21 0.12998937E+00 0.32147748E+03</pdfrwt>
<pdfrwt beam="2">  1       21 0.17705392E-01 0.32147748E+03</pdfrwt>
<totfact> 0.11642340E+04</totfact>
</mgrwt>
</event>
<event>
 4    0  0.1525083E-001  0.3280584E+03  0.7546771E-02  0.1071999E+00
         21   -1    0    0  503  501  0.00000000000E+00  0.00000000000E+00  0.43631182234E+03  0.43631182234E+03  0.00000000000E+00 0.  1.
         21   -1    0    0  501  502 -0.00000000000E+00 -0.00000000000E+00 -0.23705923194E+03  0.23705923194E+03  0.00000000000E+00 0.  1.
         25    1    1    2    0    0 -0.21240661635E+03 -0.21651956782E+03  0.39114423010E+02  0.33038194867E+03  0.12500000000E+03 0.  0.
         21    1    1    2  503  502  0.21240661635E+03  0.21651956782E+03  0.16013816739E+03  0.34298910562E+03  0.00000000000E+00 0.  1.
<mgrwt>
<rscale>  3 0.32805837E+03</rscale>
<asrwt>0</asrwt>
<pdfrwt beam="1">  1       21 0.67124896E-01 0.32805837E+03</pdfrwt>
<pdfrwt beam="2">  1       21 0.36470651E-01 0.32805837E+03</pdfrwt>
<totfact> 0.13756713E+04</totfact>
</mgrwt>
</event>
<event>
 4    0  0.1525083E-001  0.3981109E+03  0.7546771E-02  0.1044436E+00
         21   -1    0    0  502  501  0.00000000000E+00  0.00000000000E+00  0.66001186136E+03  0.66001186136E+03  0.00000000000E+00 0.  1.
         21   -1    0    0  503  502 -0.00000000000E+00 -0.00000000000E+00 -0.24239274368E+03  0.24239274368E+03  0.00000000000E+00 0.  1.
         25    1    1    2    0    0 -0.36556193032E+03  0.96082175207E+02  0.32326471336E+03  0.51282783095E+03  0.12500000000E+03 0.  0.
         21    1    1    2  503  501  0.36556193032E+03 -0.96082175207E+02  0.94354404319E+02  0.38957677409E+03  0.00000000000E+00 0.  1.
<mgrwt>
<rscale>  3 0.39811093E+03</rscale>
<asrwt>0</asrwt>
<pdfrwt beam="1">  1       21 0.10154029E+00 0.39811093E+03</pdfrwt>
<pdfrwt beam="2">  1       21 0.37291192E-01 0.39811093E+03</pdfrwt>
<totfact> 0.49071281E+03</totfact>
</mgrwt>
</event>
<event>
 4    0  0.1525083E-001  0.2690574E+03  0.7546771E-02  0.1101820E+00
         21   -1    0    0  502  501  0.00000000000E+00  0.00000000000E+00  0.17756786006E+04  0.17756786006E+04  0.00000000000E+00 0.  1.
         21   -1    0    0  503  502 -0.00000000000E+00 -0.00000000000E+00 -0.13978007772E+03  0.13978007772E+03  0.00000000000E+00 0. -1.
         25    1    1    2    0    0  0.19293640321E+03  0.13979426769E+03  0.16547263074E+04  0.16764578866E+04  0.12500000000E+03 0.  0.
         21    1    1    2  503  501 -0.19293640321E+03 -0.13979426769E+03 -0.18827784588E+02  0.23900079170E+03  0.00000000000E+00 0. -1.
<mgrwt>
<rscale>  3 0.26905742E+03</rscale>
<asrwt>0</asrwt>
<pdfrwt beam="1">  1       21 0.27318131E+00 0.26905742E+03</pdfrwt>
<pdfrwt beam="2">  1       21 0.21504629E-01 0.26905742E+03</pdfrwt>
<totfact> 0.90260565E+02</totfact>
</mgrwt>
</event>
<event>
 4    0  0.1525083E-001  0.2651013E+03  0.7546771E-02  0.1104116E+00
         21   -1    0    0  502  501  0.00000000000E+00  0.00000000000E+00  0.75605929188E+02  0.75605929188E+02  0.00000000000E+00 0. -1.
         21   -1    0    0  503  502 -0.00000000000E+00 -0.00000000000E+00 -0.11642296293E+04  0.11642296293E+04  0.00000000000E+00 0.  1.
         25    1    1    2    0    0  0.17353258078E+03 -0.15665298958E+03 -0.23330500293E+03  0.35314294575E+03  0.12500000000E+03 0.  0.
         21    1    1    2  503  501 -0.17353258078E+03  0.15665298958E+03 -0.85531869717E+03  0.88669261273E+03  0.00000000000E+00 0.  1.
<mgrwt>
<rscale>  3 0.26510133E+03</rscale>
<asrwt>0</asrwt>
<pdfrwt beam="1">  1       21 0.11631682E-01 0.26510133E+03</pdfrwt>
<pdfrwt beam="2">  1       21 0.17911224E+00 0.26510133E+03</pdfrwt>
<totfact> 0.10888357E+04</totfact>
</mgrwt>
</event>
<event>
 4    0  0.1525083E-001  0.2379958E+03  0.7546771E-02  0.1121135E+00
         21   -1    0    0  502  501  0.00000000000E+00  0.00000000000E+00  0.40495879750E+03  0.40495879750E+03  0.00000000000E+00 0.  1.
         21   -1    0    0  503  502 -0.00000000000E+00 -0.00000000000E+00 -0.13261094211E+03  0.13261094211E+03  0.00000000000E+00 0.  1.
         25    1    1    2    0    0  0.13209660214E+03  0.15351700991E+03  0.62789240108E+02  0.24613913403E+03  0.12500000000E+03 0.  0.
         21    1    1    2  503  501 -0.13209660214E+03 -0.15351700991E+03  0.20955861528E+03  0.29143060558E+03  0.00000000000E+00 0.  1.
<mgrwt>
<rscale>  3 0.23799577E+03</rscale>
<asrwt>0</asrwt>
<pdfrwt beam="1">  1       21 0.62301353E-01 0.23799577E+03</pdfrwt>
<pdfrwt beam="2">  1       21 0.20401684E-01 0.23799577E+03</pdfrwt>
<totfact> 0.52056039E+04</totfact>
</mgrwt>
</event>
<event>
 4    0  0.1525083E-001  0.2575606E+03  0.7546771E-02  0.1108618E+00
         21   -1    0    0  502  501  0.00000000000E+00  0.00000000000E+00  0.21608095015E+03  0.21608095015E+03  0.00000000000E+00 0.  1.
         21   -1    0    0  503  502 -0.00000000000E+00 -0.00000000000E+00 -0.30388908530E+03  0.30388908530E+03  0.00000000000E+00 0.  1.
         25    1    1    2    0    0  0.19942183421E+03 -0.10461069798E+03  0.40595912425E+02  0.26074028112E+03  0.12500000000E+03 0.  0.
         21    1    1    2  503  501 -0.19942183421E+03  0.10461069798E+03 -0.12840404758E+03  0.25922975433E+03  0.00000000000E+00 0.  1.
<mgrwt>
<rscale>  3 0.25756061E+03</rscale>
<asrwt>0</asrwt>
<pdfrwt beam="1">  1       21 0.33243223E-01 0.25756061E+03</pdfrwt>
<pdfrwt beam="2">  1       21 0.46752167E-01 0.25756061E+03</pdfrwt>
<totfact> 0.37021311E+04</totfact>
</mgrwt>
</event>
<event>
 4    0  0.1525083E-001  0.3424494E+03  0.7546771E-02  0.1065757E+00
         21   -1    0    0  503  501  0.00000000000E+00  0.00000000000E+00  0.21306663003E+03  0.21306663003E+03  0.00000000000E+00 0. -1.
         21   -1    0    0  501  502 -0.00000000000E+00 -0.00000000000E+00 -0.51346725381E+03  0.51346725381E+03  0.00000000000E+00 0. -1.
         25    1    1    2    0    0 -0.43582704575E+02  0.31582767142E+03 -0.14554898902E+03  0.37209686693E+03  0.12500000000E+03 0.  0.
         21    1    1    2  503  502  0.43582704575E+02 -0.31582767142E+03 -0.15485163476E+03  0.35443701691E+03  0.00000000000E+00 0. -1.
<mgrwt>
<rscale>  3 0.34244937E+03</rscale>
<asrwt>0</asrwt>
<pdfrwt beam="1">  1       21 0.32779482E-01 0.34244937E+03</pdfrwt>
<pdfrwt beam="2">  1       21 0.78994962E-01 0.34244937E+03</pdfrwt>
<totfact> 0.11744063E+04</totfact>
</mgrwt>
</event>
<event>
 4    0  0.1525083E-001  0.5488070E+03  0.7546771E-02  0.1001770E+00
         21   -1    0    0  503  501  0.00000000000E+00  0.00000000000E+00  0.59364273153E+03  0.59364273153E+03  0.00000000000E+00 0.  1.
         21   -1    0    0  501  502 -0.00000000000E+00 -0.00000000000E+00 -0.60915154461E+03  0.60915154461E+03  0.00000000000E+00 0.  1.
         25    1    1    2    0    0  0.51193822007E+03  0.15324303601E+03  0.25349546257E+03  0.60452387777E+03  0.12500000000E+03 0.  0.
         21    1    1    2  503  502 -0.51193822007E+03 -0.15324303601E+03 -0.26900427565E+03  0.59827039837E+03  0.00000000000E+00 0.  1.
<mgrwt>
<rscale>  3 0.54880704E+03</rscale>
<asrwt>0</asrwt>
<pdfrwt beam="1">  1       21 0.91329651E-01 0.54880704E+03</pdfrwt>
<pdfrwt beam="2">  1       21 0.93715622E-01 0.54880704E+03</pdfrwt>
<totfact> 0.79182097E+02</totfact>
</mgrwt>
</event>
<event>
 4    0  0.1525083E-001  0.2423116E+03  0.7546771E-02  0.1118262E+00
         21   -1    0    0  502  501  0.00000000000E+00  0.00000000000E+00  0.25648802887E+03  0.25648802887E+03  0.00000000000E+00 0.  1.
         21   -1    0    0  503  502 -0.00000000000E+00 -0.00000000000E+00 -0.19934675516E+03  0.19934675516E+03  0.00000000000E+00 0.  1.
         25    1    1    2    0    0 -0.11336063812E+03 -0.17389441233E+03  0.76344503868E+01  0.24243181669E+03  0.12500000000E+03 0.  0.
         21    1    1    2  503  501  0.11336063812E+03  0.17389441233E+03  0.49506823321E+02  0.21340296734E+03  0.00000000000E+00 0.  1.
<mgrwt>
<rscale>  3 0.24231158E+03</rscale>
<asrwt>0</asrwt>
<pdfrwt beam="1">  1       21 0.39459697E-01 0.24231158E+03</pdfrwt>
<pdfrwt beam="2">  1       21 0.30668732E-01 0.24231158E+03</pdfrwt>
<totfact> 0.61869721E+04</totfact>
</mgrwt>
</event>
<event>
 4    0  0.1525083E-001  0.2578458E+03  0.7546771E-02  0.1108444E+00
         21   -1    0    0  503  501  0.00000000000E+00  0.00000000000E+00  0.65835592602E+03  0.65835592602E+03  0.00000000000E+00 0. -1.
         21   -1    0    0  501  502 -0.00000000000E+00 -0.00000000000E+00 -0.12018164450E+03  0.12018164450E+03  0.00000000000E+00 0. -1.
         25    1    1    2    0    0  0.19810979405E+03 -0.10775878712E+03  0.83538821398E+02  0.27104092196E+03  0.12500000000E+03 0.  0.
         21    1    1    2  503  502 -0.19810979405E+03  0.10775878712E+03  0.45463546012E+03  0.50749664856E+03  0.00000000000E+00 0. -1.
<mgrwt>
<rscale>  3 0.25784578E+03</rscale>
<asrwt>0</asrwt>
<pdfrwt beam="1">  1       21 0.10128553E+00 0.25784578E+03</pdfrwt>
<pdfrwt beam="2">  1       21 0.18489484E-01 0.25784578E+03</pdfrwt>
<totfact> 0.20522659E+04</totfact>
</mgrwt>
</event>
<event>
 4    0  0.1525083E-001  0.3035910E+03  0.7546771E-02  0.1083459E+00
         21   -1    0    0  503  501  0.00000000000E+00  0.00000000000E+00  0.98102779510E+03  0.98102779510E+03  0.00000000000E+00 0. -1.
         21   -1    0    0  501  502 -0.00000000000E+00 -0.00000000000E+00 -0.18583288265E+03  0.18583288265E+03  0.00000000000E+00 0. -1.
         25    1    1    2    0    0  0.14496695356E+03  0.23564186521E+03  0.83395498907E+03  0.88749559439E+03  0.12500000000E+03 0.  0.
         21    1    1    2  503  502 -0.14496695356E+03 -0.23564186521E+03 -0.38760076615E+02  0.27936508336E+03  0.00000000000E+00 0. -1.
<mgrwt>
<rscale>  3 0.30359102E+03</rscale>
<asrwt>0</asrwt>
<pdfrwt beam="1">  1       21 0.15092735E+00 0.30359102E+03</pdfrwt>
<pdfrwt beam="2">  1       21 0.28589675E-01 0.30359102E+03</pdfrwt>
<totfact> 0.31764097E+03</totfact>
</mgrwt>
</event>
<event>
 4    0  0.1525083E-001  0.2816917E+03  0.7546771E-02  0.1094769E+00
         21   -1    0    0  502  501  0.00000000000E+00  0.00000000000E+00  0.22831883017E+03  0.22831883017E+03  0.00000000000E+00 0.  1.
         21   -1    0    0  503  502 -0.00000000000E+00 -0.00000000000E+00 -0.42155237339E+03  0.42155237339E+03  0.00000000000E+00 0.  1.
         25    1    1    2    0    0 -0.13760979194E+03  0.21163351093E+03  0.64632120626E+02  0.28901126068E+03  0.12500000000E+03 0.  0.
         21    1    1    2  503  501  0.13760979194E+03 -0.21163351093E+03 -0.25786566385E+03  0.36085994288E+03  0.00000000000E+00 0.  1.
<mgrwt>
<rscale>  3 0.28169167E+03</rscale>
<asrwt>0</asrwt>
<pdfrwt beam="1">  1       21 0.35125974E-01 0.28169167E+03</pdfrwt>
<pdfrwt beam="2">  1       21 0.64854211E-01 0.28169167E+03</pdfrwt>
<totfact> 0.16318457E+04</totfact>
</mgrwt>
</event>
<event>
 4    0  0.1525083E-001  0.5020708E+03  0.7546771E-02  0.1013240E+00
         21   -1    0    0  503  501  0.00000000000E+00  0.00000000000E+00  0.44915447192E+03  0.44915447192E+03  0.00000000000E+00 0.  1.
         21   -1    0    0  501  502 -0.00000000000E+00 -0.00000000000E+00 -0.63430187586E+03  0.63430187586E+03  0.00000000000E+00 0.  1.
         25    1    1    2    0    0  0.36570643881E+03  0.32048226054E+03  0.11088730914E+03  0.51417027728E+03  0.12500000000E+03 0.  0.
         21    1    1    2  503  502 -0.36570643881E+03 -0.32048226054E+03 -0.29603471308E+03  0.56928607050E+03  0.00000000000E+00 0.  1.
<mgrwt>
<rscale>  3 0.50207079E+03</rscale>
<asrwt>0</asrwt>
<pdfrwt beam="1">  1       21 0.69100688E-01 0.50207079E+03</pdfrwt>
<pdfrwt beam="2">  1       21 0.97584903E-01 0.50207079E+03</pdfrwt>
<totfact> 0.13930163E+03</totfact>
</mgrwt>
</event>
<event>
 4    0  0.1525083E-001  0.2368751E+03  0.7546771E-02  0.1121892E+00
         21   -1    0    0  502  501  0.00000000000E+00  0.00000000000E+00  0.13742078519E+03  0.13742078519E+03  0.00000000000E+00 0.  1.
         21   -1    0    0  503  502 -0.00000000000E+00 -0.00000000000E+00 -0.47340575935E+03  0.47340575935E+03  0.00000000000E+00 0.  1.
         25    1    1    2    0    0 -0.10559808057E+03 -0.17127135264E+03 -0.21987736071E+02  0.23789344546E+03  0.12500000000E+03 0.  0.
         21    1    1    2  503  501  0.10559808057E+03  0.17127135264E+03 -0.31399723810E+03  0.37293309908E+03  0.00000000000E+00 0.  1.
<mgrwt>
<rscale>  3 0.23687514E+03</rscale>
<asrwt>0</asrwt>
<pdfrwt beam="1">  1       21 0.21141659E-01 0.23687514E+03</pdfrwt>
<pdfrwt beam="2">  1       21 0.72831656E-01 0.23687514E+03</pdfrwt>
<totfact> 0.34528364E+04</totfact>
</mgrwt>
</event>
<event>
 4    0  0.1525083E-001  0.2969719E+03  0.7546771E-02  0.1086764E+00
         21   -1    0    0  502  501  0.00000000000E+00  0.00000000000E+00  0.25718684821E+04  0.25718684821E+04  0.00000000000E+00 0. -1.
         21   -1    0    0  503  502 -0.00000000000E+00 -0.00000000000E+00 -0.89451947428E+02  0.89451947428E+02  0.00000000000E+00 0. -1.
         25    1    1    2    0    0 -0.21982007826E+03  0.15571268466E+03  0.23358381885E+04  0.23546405989E+04  0.12500000000E+03 0.  0.
         21    1    1    2  503  501  0.21982007826E+03 -0.15571268466E+03  0.14657834618E+03  0.30667983067E+03  0.00000000000E+00 0. -1.
<mgrwt>
<rscale>  3 0.29697190E+03</rscale>
<asrwt>0</asrwt>
<pdfrwt beam="1">  1       21 0.39567202E+00 0.29697190E+03</pdfrwt>
<pdfrwt beam="2">  1       21 0.13761840E-01 0.29697190E+03</pdfrwt>
<totfact> 0.37096113E+02</totfact>
</mgrwt>
</event>
<event>
 4    0  0.1525083E-001  0.2495597E+03  0.7546771E-02  0.1113583E+00
         21   -1    0    0  502  501  0.00000000000E+00  0.00000000000E+00  0.63957333978E+03  0.63957333978E+03  0.00000000000E+00 0. -1.
         21   -1    0    0  503  502 -0.00000000000E+00 -0.00000000000E+00 -0.84722824142E+02  0.84722824142E+02  0.00000000000E+00 0. -1.
         25    1    1    2    0    0 -0.21163307945E+03 -0.43203062682E+02  0.29851634926E+03  0.38909134624E+03  0.12500000000E+03 0.  0.
         21    1    1    2  503  501  0.21163307945E+03  0.43203062682E+02  0.25633416638E+03  0.33520481768E+03  0.00000000000E+00 0. -1.
<mgrwt>
<rscale>  3 0.24955974E+03</rscale>
<asrwt>0</asrwt>
<pdfrwt beam="1">  1       21 0.98395895E-01 0.24955974E+03</pdfrwt>
<pdfrwt beam="2">  1       21 0.13034281E-01 0.24955974E+03</pdfrwt>
<totfact> 0.41976310E+04</totfact>
</mgrwt>
</event>
<event>
 4    0  0.1525083E-001  0.2814663E+03  0.7546771E-02  0.1094891E+00
         21   -1    0    0  503  501  0.00000000000E+00  0.00000000000E+00  0.15145708076E+04  0.15145708076E+04  0.00000000000E+00 0. -1.
         21   -1    0    0  501  502 -0.00000000000E+00 -0.00000000000E+00 -0.47077364470E+02  0.47077364470E+02  0.00000000000E+00 0. -1.
         25    1    1    2    0    0 -0.24667052833E+03 -0.52459076020E+02  0.74395239906E+03  0.79541717122E+03  0.12500000000E+03 0.  0.
         21    1    1    2  503  502  0.24667052833E+03  0.52459076020E+02  0.72354104403E+03  0.76623100081E+03  0.00000000000E+00 0. -1.
<mgrwt>
<rscale>  3 0.28146635E+03</rscale>
<asrwt>0</asrwt>
<pdfrwt beam="1">  1       21 0.23301086E+00 0.28146635E+03</pdfrwt>
<pdfrwt beam="2">  1       21 0.72426726E-02 0.28146635E+03</pdfrwt>
<totfact> 0.11185046E+04</totfact>
</mgrwt>
</event>
<event>
 4    0  0.1525083E-001  0.2613199E+03  0.7546771E-02  0.1106353E+00
         21   -1    0    0  503  501  0.00000000000E+00  0.00000000000E+00  0.90954436771E+03  0.90954436771E+03  0.00000000000E+00 0. -1.
         21   -1    0    0  501  502 -0.00000000000E+00 -0.00000000000E+00 -0.69320249553E+02  0.69320249553E+02  0.00000000000E+00 0.  1.
         25    1    1    2    0    0  0.18246166491E+03  0.13917920180E+03  0.54957944199E+03  0.60854389524E+03  0.12500000000E+03 0.  0.
         21    1    1    2  503  502 -0.18246166491E+03 -0.13917920180E+03  0.29064467616E+03  0.37032072202E+03  0.00000000000E+00 0.  1.
<mgrwt>
<rscale>  3 0.26131994E+03</rscale>
<asrwt>0</asrwt>
<pdfrwt beam="1">  1       21 0.13992989E+00 0.26131994E+03</pdfrwt>
<pdfrwt beam="2">  1       21 0.10664654E-01 0.26131994E+03</pdfrwt>
<totfact> 0.24959792E+04</totfact>
</mgrwt>
</event>
<event>
 4    0  0.1525083E-001  0.2506682E+03  0.7546771E-02  0.1112883E+00
         21   -1    0    0  502  501  0.00000000000E+00  0.00000000000E+00  0.25674198519E+03  0.25674198519E+03  0.00000000000E+00 0.  1.
         21   -1    0    0  503  502 -0.00000000000E+00 -0.00000000000E+00 -0.21892796384E+03  0.21892796384E+03  0.00000000000E+00 0. -1.
         25    1    1    2    0    0  0.14234175825E+03 -0.16415955828E+03 -0.18076573099E+02  0.25131911827E+03  0.12500000000E+03 0.  0.
         21    1    1    2  503  501 -0.14234175825E+03  0.16415955828E+03  0.55890594452E+02  0.22435083076E+03  0.00000000000E+00 0. -1.
<mgrwt>
<rscale>  3 0.25066818E+03</rscale>
<asrwt>0</asrwt>
<pdfrwt beam="1">  1       21 0.39498767E-01 0.25066818E+03</pdfrwt>
<pdfrwt beam="2">  1       21 0.33681225E-01 0.25066818E+03</pdfrwt>
<totfact> 0.51142294E+04</totfact>
</mgrwt>
</event>
<event>
 4    0  0.1525083E-001  0.2666868E+03  0.7546771E-02  0.1103191E+00
         21   -1    0    0  502  501  0.00000000000E+00  0.00000000000E+00  0.22107995059E+03  0.22107995059E+03  0.00000000000E+00 0. -1.
         21   -1    0    0  503  502 -0.00000000000E+00 -0.00000000000E+00 -0.39018418231E+03  0.39018418231E+03  0.00000000000E+00 0.  1.
         25    1    1    2    0    0  0.16079353010E+03 -0.17216940660E+03  0.69879301613E+02  0.27569000832E+03  0.12500000000E+03 0.  0.
         21    1    1    2  503  501 -0.16079353010E+03  0.17216940660E+03 -0.23898353333E+03  0.33557412459E+03  0.00000000000E+00 0.  1.
<mgrwt>
<rscale>  3 0.26668683E+03</rscale>
<asrwt>0</asrwt>
<pdfrwt beam="1">  1       21 0.34012300E-01 0.26668683E+03</pdfrwt>
<pdfrwt beam="2">  1       21 0.60028335E-01 0.26668683E+03</pdfrwt>
<totfact> 0.20739506E+04</totfact>
</mgrwt>
</event>
<event>
 4    0  0.1525083E-001  0.4384816E+03  0.7546771E-02  0.1031214E+00
         21   -1    0    0  503  501  0.00000000000E+00  0.00000000000E+00  0.16166508618E+04  0.16166508618E+04  0.00000000000E+00 0. -1.
         21   -1    0    0  501  502 -0.00000000000E+00 -0.00000000000E+00 -0.16358829022E+03  0.16358829022E+03  0.00000000000E+00 0. -1.
         25    1    1    2    0    0  0.31559001666E+03  0.27756808884E+03  0.12270378543E+04  0.13030303137E+04  0.12500000000E+03 0.  0.
         21    1    1    2  503  502 -0.31559001666E+03 -0.27756808884E+03  0.22602471730E+03  0.47720883834E+03  0.00000000000E+00 0. -1.
<mgrwt>
<rscale>  3 0.43848159E+03</rscale>
<asrwt>0</asrwt>
<pdfrwt beam="1">  1       21 0.24871551E+00 0.43848159E+03</pdfrwt>
<pdfrwt beam="2">  1       21 0.25167430E-01 0.43848159E+03</pdfrwt>
<totfact> 0.83344305E+02</totfact>
</mgrwt>
</event>
<event>
 4    0  0.1525083E-001  0.4162290E+03  0.7546771E-02  0.1038301E+00
         21   -1    0    0  502  501  0.00000000000E+00  0.00000000000E+00  0.43147599962E+03  0.43147599962E+03  0.00000000000E+00 0. -1.
         21   -1    0    0  503  502 -0.00000000000E+00 -0.00000000000E+00 -0.49899005539E+03  0.49899005539E+03  0.00000000000E+00 0.  1.
         25    1    1    2    0    0  0.39666654052E+03 -0.16649499394E+02  0.18969159648E+03  0.45741606003E+03  0.12500000000E+03 0.  0.
         21    1    1    2  503  501 -0.39666654052E+03  0.16649499394E+02 -0.25720565226E+03  0.47304999498E+03  0.00000000000E+00 0.  1.
<mgrwt>
<rscale>  3 0.41622896E+03</rscale>
<asrwt>0</asrwt>
<pdfrwt beam="1">  1       21 0.66380923E-01 0.41622896E+03</pdfrwt>
<pdfrwt beam="2">  1       21 0.76767701E-01 0.41622896E+03</pdfrwt>
<totfact> 0.27652206E+03</totfact>
</mgrwt>
</event>
<event>
 4    0  0.1525083E-001  0.2424254E+03  0.7546771E-02  0.1118188E+00
         21   -1    0    0  503  501  0.00000000000E+00  0.00000000000E+00  0.47282633438E+03  0.47282633438E+03  0.00000000000E+00 0.  1.
         21   -1    0    0  501  502 -0.00000000000E+00 -0.00000000000E+00 -0.22403465725E+03  0.22403465725E+03  0.00000000000E+00 0.  1.
         25    1    1    2    0    0  0.19616469962E+03  0.68297099842E+02  0.38031423411E+03  0.45100886897E+03  0.12500000000E+03 0.  0.
         21    1    1    2  503  502 -0.19616469962E+03 -0.68297099842E+02 -0.13152255698E+03  0.24585212266E+03  0.00000000000E+00 0.  1.
<mgrwt>
<rscale>  3 0.24242542E+03</rscale>
<asrwt>0</asrwt>
<pdfrwt beam="1">  1       21 0.72742513E-01 0.24242542E+03</pdfrwt>
<pdfrwt beam="2">  1       21 0.34466870E-01 0.24242542E+03</pdfrwt>
<totfact> 0.13398054E+04</totfact>
</mgrwt>
</event>
<event>
 4    0  0.1525083E-001  0.3891256E+03  0.7546771E-02  0.1047612E+00
         21   -1    0    0  503  501  0.00000000000E+00  0.00000000000E+00  0.67319356696E+03  0.67319356696E+03  0.00000000000E+00 0.  1.
         21   -1    0    0  501  502 -0.00000000000E+00 -0.00000000000E+00 -0.17413231815E+04  0.17413231815E+04  0.00000000000E+00 0. -1.
         25    1    1    2    0    0 -0.34863206371E+03  0.11937101494E+03  0.59505835848E+03  0.71099451830E+03  0.12500000000E+03 0.  0.
         21    1    1    2  503  502  0.34863206371E+03 -0.11937101494E+03 -0.16631879730E+04  0.17035222302E+04  0.00000000000E+00 0. -1.
<mgrwt>
<rscale>  3 0.38912563E+03</rscale>
<asrwt>0</asrwt>
<pdfrwt beam="1">  1       21 0.10356824E+00 0.38912563E+03</pdfrwt>
<pdfrwt beam="2">  1       21 0.26789587E+00 0.38912563E+03</pdfrwt>
<totfact> 0.31409045E+01</totfact>
</mgrwt>
</event>
<event>
 4    0  0.1525083E-001  0.2471356E+03  0.7546771E-02  0.1115129E+00
         21   -1    0    0  503  501  0.00000000000E+00  0.00000000000E+00  0.60721595876E+03  0.60721595876E+03  0.00000000000E+00 0.  1.
         21   -1    0    0  501  502 -0.00000000000E+00 -0.00000000000E+00 -0.15797201198E+03  0.15797201198E+03  0.00000000000E+00 0. -1.
         25    1    1    2    0    0 -0.20504223550E+03  0.58383951003E+02  0.48938822541E+03  0.54824888440E+03  0.12500000000E+03 0.  0.
         21    1    1    2  503  502  0.20504223550E+03 -0.58383951003E+02 -0.40144278627E+02  0.21693908634E+03  0.00000000000E+00 0. -1.
<mgrwt>
<rscale>  3 0.24713560E+03</rscale>
<asrwt>0</asrwt>
<pdfrwt beam="1">  1       21 0.93417839E-01 0.24713560E+03</pdfrwt>
<pdfrwt beam="2">  1       21 0.24303387E-01 0.24713560E+03</pdfrwt>
<totfact> 0.14909462E+04</totfact>
</mgrwt>
</event>
<event>
 4    0  0.1525083E-001  0.2721778E+03  0.7546771E-02  0.1100040E+00
         21   -1    0    0  503  501  0.00000000000E+00  0.00000000000E+00  0.11874160788E+03  0.11874160788E+03  0.00000000000E+00 0.  1.
         21   -1    0    0  501  502 -0.00000000000E+00 -0.00000000000E+00 -0.20271477171E+04  0.20271477171E+04  0.00000000000E+00 0.  1.
         25    1    1    2    0    0 -0.48098766899E+02  0.23694355863E+03 -0.56136087046E+02  0.27790646200E+03  0.12500000000E+03 0.  0.
         21    1    1    2  503  502  0.48098766899E+02 -0.23694355863E+03 -0.18522700222E+04  0.18679828630E+04  0.00000000000E+00 0.  1.
<mgrwt>
<rscale>  3 0.27217778E+03</rscale>
<asrwt>0</asrwt>
<pdfrwt beam="1">  1       21 0.18267940E-01 0.27217778E+03</pdfrwt>
<pdfrwt beam="2">  1       21 0.31186887E+00 0.27217778E+03</pdfrwt>
<totfact> 0.72495473E+02</totfact>
</mgrwt>
</event>
<event>
 4    0  0.1525083E-001  0.2611991E+03  0.7546771E-02  0.1106425E+00
         21   -1    0    0  502  501  0.00000000000E+00  0.00000000000E+00  0.19331003115E+03  0.19331003115E+03  0.00000000000E+00 0. -1.
         21   -1    0    0  503  502 -0.00000000000E+00 -0.00000000000E+00 -0.59866206148E+03  0.59866206148E+03  0.00000000000E+00 0. -1.
         25    1    1    2    0    0  0.16294730493E+03  0.16139431308E+03  0.64577177845E+02  0.26906348763E+03  0.12500000000E+03 0.  0.
         21    1    1    2  503  501 -0.16294730493E+03 -0.16139431308E+03 -0.46992920818E+03  0.52290860500E+03  0.00000000000E+00 0. -1.
<mgrwt>
<rscale>  3 0.26119906E+03</rscale>
<asrwt>0</asrwt>
<pdfrwt beam="1">  1       21 0.29740005E-01 0.26119906E+03</pdfrwt>
<pdfrwt beam="2">  1       21 0.92101854E-01 0.26119906E+03</pdfrwt>
<totfact> 0.10347617E+04</totfact>
</mgrwt>
</event>
<event>
 4    0  0.1525083E-001  0.2779954E+03  0.7546771E-02  0.1096789E+00
         21   -1    0    0  503  501  0.00000000000E+00  0.00000000000E+00  0.18577066626E+03  0.18577066626E+03  0.00000000000E+00 0. -1.
         21   -1    0    0  501  502 -0.00000000000E+00 -0.00000000000E+00 -0.62742417511E+03  0.62742417511E+03  0.00000000000E+00 0. -1.
         25    1    1    2    0    0 -0.15370401160E+02  0.24783092179E+03  0.30566319963E+02  0.27967072594E+03  0.12500000000E+03 0.  0.
         21    1    1    2  503  502  0.15370401160E+02 -0.24783092179E+03 -0.47221982881E+03  0.53352411544E+03  0.00000000000E+00 0. -1.
<mgrwt>
<rscale>  3 0.27799535E+03</rscale>
<asrwt>0</asrwt>
<pdfrwt beam="1">  1       21 0.28580102E-01 0.27799535E+03</pdfrwt>
<pdfrwt beam="2">  1       21 0.96526798E-01 0.27799535E+03</pdfrwt>
<totfact> 0.99265672E+03</totfact>
</mgrwt>
</event>
<event>
 4    0  0.1525083E-001  0.4782136E+03  0.7546771E-02  0.1019627E+00
         21   -1    0    0  502  501  0.00000000000E+00  0.00000000000E+00  0.28842362392E+03  0.28842362392E+03  0.00000000000E+00 0.  1.
         21   -1    0    0  503  502 -0.00000000000E+00 -0.00000000000E+00 -0.76659833119E+03  0.76659833119E+03  0.00000000000E+00 0.  1.
         25    1    1    2    0    0 -0.39063153068E+03  0.24590702553E+03 -0.22393481026E+03  0.52804834742E+03  0.12500000000E+03 0.  0.
         21    1    1    2  503  501  0.39063153068E+03 -0.24590702553E+03 -0.25423989701E+03  0.52697360769E+03  0.00000000000E+00 0.  1.
<mgrwt>
<rscale>  3 0.47821361E+03</rscale>
<asrwt>0</asrwt>
<pdfrwt beam="1">  1       21 0.44372866E-01 0.47821361E+03</pdfrwt>
<pdfrwt beam="2">  1       21 0.11793820E+00 0.47821361E+03</pdfrwt>
<totfact> 0.22971040E+03</totfact>
</mgrwt>
</event>
<event>
 4    0  0.1525083E-001  0.2384023E+03  0.7546771E-02  0.1120862E+00
         21   -1    0    0  503  501  0.00000000000E+00  0.00000000000E+00  0.47985635194E+03  0.47985635194E+03  0.00000000000E+00 0.  1.
         21   -1    0    0  501  502 -0.00000000000E+00 -0.00000000000E+00 -0.13237613008E+03  0.13237613008E+03  0.00000000000E+00 0.  1.
         25    1    1    2    0    0 -0.15429889633E+03  0.13191854986E+03  0.33187732181E+03  0.40862967335E+03  0.12500000000E+03 0.  0.
         21    1    1    2  503  502  0.15429889633E+03 -0.13191854986E+03  0.15602900056E+02  0.20360280867E+03  0.00000000000E+00 0.  1.
<mgrwt>
<rscale>  3 0.23840229E+03</rscale>
<asrwt>0</asrwt>
<pdfrwt beam="1">  1       21 0.73824053E-01 0.23840229E+03</pdfrwt>
<pdfrwt beam="2">  1       21 0.20365559E-01 0.23840229E+03</pdfrwt>
<totfact> 0.35919491E+04</totfact>
</mgrwt>
</event>
<event>
 4    0  0.1525083E-001  0.2703076E+03  0.7546771E-02  0.1101104E+00
         21   -1    0    0  502  501  0.00000000000E+00  0.00000000000E+00  0.22890197766E+03  0.22890197766E+03  0.00000000000E+00 0.  1.
         21   -1    0    0  503  502 -0.00000000000E+00 -0.00000000000E+00 -0.35248145095E+03  0.35248145095E+03  0.00000000000E+00 0.  1.
         25    1    1    2    0    0 -0.23769064717E+03 -0.30730175851E+02  0.63118062008E+02  0.27757895671E+03  0.12500000000E+03 0.  0.
         21    1    1    2  503  501  0.23769064717E+03  0.30730175851E+02 -0.18669753530E+03  0.30380447190E+03  0.00000000000E+00 0.  1.
<mgrwt>
<rscale>  3 0.27030758E+03</rscale>
<asrwt>0</asrwt>
<pdfrwt beam="1">  1       21 0.35215689E-01 0.27030758E+03</pdfrwt>
<pdfrwt beam="2">  1       21 0.54227915E-01 0.27030758E+03</pdfrwt>
<totfact> 0.24025772E+04</totfact>
</mgrwt>
</event>
<event>
 4    0  0.1525083E-001  0.2392030E+03  0.7546771E-02  0.1120325E+00
         21   -1    0    0  502  501  0.00000000000E+00  0.00000000000E+00  0.55123042401E+03  0.55123042401E+03  0.00000000000E+00 0. -1.
         21   -1    0    0  503  502 -0.00000000000E+00 -0.00000000000E+00 -0.12921148938E+03  0.12921148938E+03  0.00000000000E+00 0. -1.
         25    1    1    2    0    0  0.19308042003E+03  0.65673472644E+02  0.41181216416E+03  0.47624291297E+03  0.12500000000E+03 0.  0.
         21    1    1    2  503  501 -0.19308042003E+03 -0.65673472644E+02  0.10206770472E+02  0.20419900042E+03  0.00000000000E+00 0. -1.
<mgrwt>
<rscale>  3 0.23920295E+03</rscale>
<asrwt>0</asrwt>
<pdfrwt beam="1">  1       21 0.84804680E-01 0.23920295E+03</pdfrwt>
<pdfrwt beam="2">  1       21 0.19878691E-01 0.23920295E+03</pdfrwt>
<totfact> 0.27432848E+04</totfact>
</mgrwt>
</event>
<event>
 4    0  0.1525083E-001  0.3789933E+03  0.7546771E-02  0.1051306E+00
         21   -1    0    0  502  501  0.00000000000E+00  0.00000000000E+00  0.23540626396E+03  0.23540626396E+03  0.00000000000E+00 0. -1.
         21   -1    0    0  503  502 -0.00000000000E+00 -0.00000000000E+00 -0.58444317741E+03  0.58444317741E+03  0.00000000000E+00 0.  1.
         25    1    1    2    0    0 -0.34373108513E+03 -0.99296729556E+02 -0.13169417207E+03  0.40122220071E+03  0.12500000000E+03 0.  0.
         21    1    1    2  503  501  0.34373108513E+03  0.99296729556E+02 -0.21734274139E+03  0.41862724066E+03  0.00000000000E+00 0.  1.
<mgrwt>
<rscale>  3 0.37899327E+03</rscale>
<asrwt>0</asrwt>
<pdfrwt beam="1">  1       21 0.36216349E-01 0.37899327E+03</pdfrwt>
<pdfrwt beam="2">  1       21 0.89914334E-01 0.37899327E+03</pdfrwt>
<totfact> 0.70166110E+03</totfact>
</mgrwt>
</event>
<event>
 4    0  0.1525083E-001  0.2364042E+03  0.7546771E-02  0.1122212E+00
         21   -1    0    0  502  501  0.00000000000E+00  0.00000000000E+00  0.17226779593E+04  0.17226779593E+04  0.00000000000E+00 0.  1.
         21   -1    0    0  503  502 -0.00000000000E+00 -0.00000000000E+00 -0.32666253429E+02  0.32666253429E+02  0.00000000000E+00 0.  1.
         25    1    1    2    0    0  0.75274261858E+02 -0.18599932685E+03  0.12441689479E+04  0.12664293643E+04  0.12500000000E+03 0.  0.
         21    1    1    2  503  501 -0.75274261858E+02  0.18599932685E+03  0.44584275798E+03  0.48891484834E+03  0.00000000000E+00 0.  1.
<mgrwt>
<rscale>  3 0.23640424E+03</rscale>
<asrwt>0</asrwt>
<pdfrwt beam="1">  1       21 0.26502731E+00 0.23640424E+03</pdfrwt>
<pdfrwt beam="2">  1       21 0.50255788E-02 0.23640424E+03</pdfrwt>
<totfact> 0.13940770E+04</totfact>
</mgrwt>
</event>
<event>
 4    0  0.1525083E-001  0.2539175E+03  0.7546771E-02  0.1110854E+00
         21   -1    0    0  502  501  0.00000000000E+00  0.00000000000E+00  0.20500854987E+02  0.20500854987E+02  0.00000000000E+00 0. -1.
         21   -1    0    0  503  502 -0.00000000000E+00 -0.00000000000E+00 -0.27642603235E+04  0.27642603235E+04  0.00000000000E+00 0. -1.
         25    1    1    2    0    0 -0.20901262060E+03 -0.71852885504E+02 -0.15638512639E+04  0.15843310539E+04  0.12500000000E+03 0.  0.
         21    1    1    2  503  501  0.20901262060E+03  0.71852885504E+02 -0.11799082046E+04  0.12004301246E+04  0.00000000000E+00 0. -1.
<mgrwt>
<rscale>  3 0.25391753E+03</rscale>
<asrwt>0</asrwt>
<pdfrwt beam="1">  1       21 0.31539802E-02 0.25391753E+03</pdfrwt>
<pdfrwt beam="2">  1       21 0.42527047E+00 0.25391753E+03</pdfrwt>
<totfact> 0.32547100E+03</totfact>
</mgrwt>
</event>
<event>
 4    0  0.1525083E-001  0.2989395E+03  0.7546771E-02  0.1085772E+00
         21   -1    0    0  503  501  0.00000000000E+00  0.00000000000E+00  0.11542600998E+03  0.11542600998E+03  0.00000000000E+00 0.  1.
         21   -1    0    0  501  502 -0.00000000000E+00 -0.00000000000E+00 -0.26780597484E+04  0.26780597484E+04  0.00000000000E+00 0.  1.
         25    1    1    2    0    0 -0.10637276353E+03 -0.24984923772E+03 -0.98962460168E+02  0.31489422817E+03  0.12500000000E+03 0.  0.
         21    1    1    2  503  502  0.10637276353E+03  0.24984923772E+03 -0.24636712782E+04  0.24785915302E+04  0.00000000000E+00 0.  1.
<mgrwt>
<rscale>  3 0.29893947E+03</rscale>
<asrwt>0</asrwt>
<pdfrwt beam="1">  1       21 0.17757848E-01 0.29893947E+03</pdfrwt>
<pdfrwt beam="2">  1       21 0.41200918E+00 0.29893947E+03</pdfrwt>
<totfact> 0.18210150E+02</totfact>
</mgrwt>
</event>
<event>
 4    0  0.1525083E-001  0.2368491E+03  0.7546771E-02  0.1121910E+00
         21   -1    0    0  503  501  0.00000000000E+00  0.00000000000E+00  0.10429844180E+04  0.10429844180E+04  0.00000000000E+00 0. -1.
         21   -1    0    0  501  502 -0.00000000000E+00 -0.00000000000E+00 -0.56492240885E+02  0.56492240885E+02  0.00000000000E+00 0.  1.
         25    1    1    2    0    0  0.19782005107E+03  0.36602497108E+02  0.76233512305E+03  0.79828087491E+03  0.12500000000E+03 0.  0.
         21    1    1    2  503  502 -0.19782005107E+03 -0.36602497108E+02  0.22415705406E+03  0.30119578398E+03  0.00000000000E+00 0.  1.
<mgrwt>
<rscale>  3 0.23684914E+03</rscale>
<asrwt>0</asrwt>
<pdfrwt beam="1">  1       21 0.16045913E+00 0.23684914E+03</pdfrwt>
<pdfrwt beam="2">  1       21 0.86911148E-02 0.23684914E+03</pdfrwt>
<totfact> 0.25235220E+04</totfact>
</mgrwt>
</event>
<event>
 4    0  0.1525083E-001  0.2710506E+03  0.7546771E-02  0.1100680E+00
         21   -1    0    0  502  501  0.00000000000E+00  0.00000000000E+00  0.10055020533E+03  0.10055020533E+03  0.00000000000E+00 0.  1.
         21   -1    0    0  503  502 -0.00000000000E+00 -0.00000000000E+00 -0.95268233980E+03  0.95268233980E+03  0.00000000000E+00 0. -1.
         25    1    1    2    0    0  0.10349215099E+03 -0.21710093434E+03 -0.14728493541E+03  0.30848224132E+03  0.12500000000E+03 0.  0.
         21    1    1    2  503  501 -0.10349215099E+03  0.21710093434E+03 -0.70484719905E+03  0.74475030381E+03  0.00000000000E+00 0. -1.
<mgrwt>
<rscale>  3 0.27105062E+03</rscale>
<asrwt>0</asrwt>
<pdfrwt beam="1">  1       21 0.15469263E-01 0.27105062E+03</pdfrwt>
<pdfrwt beam="2">  1       21 0.14656650E+00 0.27105062E+03</pdfrwt>
<totfact> 0.11204103E+04</totfact>
</mgrwt>
</event>
<event>
 4    0  0.1525083E-001  0.2965763E+03  0.7546771E-02  0.1086965E+00
         21   -1    0    0  503  501  0.00000000000E+00  0.00000000000E+00  0.12292346269E+04  0.12292346269E+04  0.00000000000E+00 0. -1.
         21   -1    0    0  501  502 -0.00000000000E+00 -0.00000000000E+00 -0.65056895783E+02  0.65056895783E+02  0.00000000000E+00 0. -1.
         25    1    1    2    0    0  0.11814237387E+03 -0.24160898710E+03  0.61966743616E+03  0.68698271782E+03  0.12500000000E+03 0.  0.
         21    1    1    2  503  502 -0.11814237387E+03  0.24160898710E+03  0.54451029500E+03  0.60730880490E+03  0.00000000000E+00 0. -1.
<mgrwt>
<rscale>  3 0.29657634E+03</rscale>
<asrwt>0</asrwt>
<pdfrwt beam="1">  1       21 0.18911300E+00 0.29657634E+03</pdfrwt>
<pdfrwt beam="2">  1       21 0.10008754E-01 0.29657634E+03</pdfrwt>
<totfact> 0.11965575E+04</totfact>
</mgrwt>
</event>
<event>
 4    0  0.1525083E-001  0.2555945E+03  0.7546771E-02  0.1109819E+00
         21   -1    0    0  503  501  0.00000000000E+00  0.00000000000E+00  0.19146639460E+03  0.19146639460E+03  0.00000000000E+00 0.  1.
         21   -1    0    0  501  502 -0.00000000000E+00 -0.00000000000E+00 -0.30646481643E+03  0.30646481643E+03  0.00000000000E+00 0.  1.
         25    1    1    2    0    0 -0.18850741925E+03 -0.11903152617E+03 -0.22573796061E+02  0.25658941444E+03  0.12500000000E+03 0.  0.
         21    1    1    2  503  502  0.18850741925E+03  0.11903152617E+03 -0.92424625768E+02  0.24134179659E+03  0.00000000000E+00 0.  1.
<mgrwt>
<rscale>  3 0.25559451E+03</rscale>
<asrwt>0</asrwt>
<pdfrwt beam="1">  1       21 0.29456369E-01 0.25559451E+03</pdfrwt>
<pdfrwt beam="2">  1       21 0.47148433E-01 0.25559451E+03</pdfrwt>
<totfact> 0.46211149E+04</totfact>
</mgrwt>
</event>
<event>
 4    0  0.1525083E-001  0.4727358E+03  0.7546771E-02  0.1021151E+00
         21   -1    0    0  502  501  0.00000000000E+00  0.00000000000E+00  0.27307054617E+03  0.27307054617E+03  0.00000000000E+00 0. -1.
         21   -1    0    0  503  502 -0.00000000000E+00 -0.00000000000E+00 -0.10202495652E+04  0.10202495652E+04  0.00000000000E+00 0. -1.
         25    1    1    2    0    0 -0.11013969059E+03 -0.44240634553E+03 -0.71348813211E+02  0.47808971873E+03  0.12500000000E+03 0.  0.
         21    1    1    2  503  501  0.11013969059E+03  0.44240634553E+03 -0.67583020580E+03  0.81523039264E+03  0.00000000000E+00 0. -1.
<mgrwt>
<rscale>  3 0.47273579E+03</rscale>
<asrwt>0</asrwt>
<pdfrwt beam="1">  1       21 0.42010853E-01 0.47273579E+03</pdfrwt>
<pdfrwt beam="2">  1       21 0.15696147E+00 0.47273579E+03</pdfrwt>
<totfact> 0.12123636E+03</totfact>
</mgrwt>
</event>
<event>
 4    0  0.1525083E-001  0.2959221E+03  0.7546771E-02  0.1087297E+00
         21   -1    0    0  502  501  0.00000000000E+00  0.00000000000E+00  0.65505573023E+03  0.65505573023E+03  0.00000000000E+00 0. -1.
         21   -1    0    0  503  502 -0.00000000000E+00 -0.00000000000E+00 -0.13539940782E+03  0.13539940782E+03  0.00000000000E+00 0. -1.
         25    1    1    2    0    0  0.10452779970E+03 -0.24701993677E+03  0.39792868743E+03  0.49590034316E+03  0.12500000000E+03 0.  0.
         21    1    1    2  503  501 -0.10452779970E+03  0.24701993677E+03  0.12172763498E+03  0.29455479489E+03  0.00000000000E+00 0. -1.
<mgrwt>
<rscale>  3 0.29592214E+03</rscale>
<asrwt>0</asrwt>
<pdfrwt beam="1">  1       21 0.10077780E+00 0.29592214E+03</pdfrwt>
<pdfrwt beam="2">  1       21 0.20830679E-01 0.29592214E+03</pdfrwt>
<totfact> 0.16315212E+04</totfact>
</mgrwt>
</event>
<event>
 4    0  0.1525083E-001  0.4573171E+03  0.7546771E-02  0.1025562E+00
         21   -1    0    0  502  501  0.00000000000E+00  0.00000000000E+00  0.13941924496E+04  0.13941924496E+04  0.00000000000E+00 0. -1.
         21   -1    0    0  503  502 -0.00000000000E+00 -0.00000000000E+00 -0.15850035763E+03  0.15850035763E+03  0.00000000000E+00 0. -1.
         25    1    1    2    0    0 -0.43774444592E+03 -0.43516552633E+02  0.86070028870E+03  0.97465064369E+03  0.12500000000E+03 0.  0.
         21    1    1    2  503  501  0.43774444592E+03  0.43516552633E+02  0.37499180324E+03  0.57804216350E+03  0.00000000000E+00 0. -1.
<mgrwt>
<rscale>  3 0.45731706E+03</rscale>
<asrwt>0</asrwt>
<pdfrwt beam="1">  1       21 0.21449114E+00 0.45731706E+03</pdfrwt>
<pdfrwt beam="2">  1       21 0.24384671E-01 0.45731706E+03</pdfrwt>
<totfact> 0.14411604E+03</totfact>
</mgrwt>
</event>
<event>
 4    0  0.1525083E-001  0.2709502E+03  0.7546771E-02  0.1100737E+00
         21   -1    0    0  502  501  0.00000000000E+00  0.00000000000E+00  0.75858640751E+02  0.75858640751E+02  0.00000000000E+00 0.  1.
         21   -1    0    0  503  502 -0.00000000000E+00 -0.00000000000E+00 -0.97845732014E+03  0.97845732014E+03  0.00000000000E+00 0.  1.
         25    1    1    2    0    0  0.20502256166E+03 -0.12551793530E+03 -0.29324287933E+03  0.39925604460E+03  0.12500000000E+03 0.  0.
         21    1    1    2  503  501 -0.20502256166E+03  0.12551793530E+03 -0.60935580006E+03  0.65505991629E+03  0.00000000000E+00 0.  1.
<mgrwt>
<rscale>  3 0.27095019E+03</rscale>
<asrwt>0</asrwt>
<pdfrwt beam="1">  1       21 0.11670561E-01 0.27095019E+03</pdfrwt>
<pdfrwt beam="2">  1       21 0.15053189E+00 0.27095019E+03</pdfrwt>
<totfact> 0.17426194E+04</totfact>
</mgrwt>
</event>
<event>
 4    0  0.1525083E-001  0.2656387E+03  0.7546771E-02  0.1103802E+00
         21   -1    0    0  502  501  0.00000000000E+00  0.00000000000E+00  0.17290184256E+03  0.17290184256E+03  0.00000000000E+00 0.  1.
         21   -1    0    0  503  502 -0.00000000000E+00 -0.00000000000E+00 -0.37454939549E+03  0.37454939549E+03  0.00000000000E+00 0.  1.
         25    1    1    2    0    0 -0.13058399021E+03  0.19464521950E+03 -0.55946778929E+02  0.27146635528E+03  0.12500000000E+03 0.  0.
         21    1    1    2  503  501  0.13058399021E+03 -0.19464521950E+03 -0.14570077401E+03  0.27598488277E+03  0.00000000000E+00 0.  1.
<mgrwt>
<rscale>  3 0.26563874E+03</rscale>
<asrwt>0</asrwt>
<pdfrwt beam="1">  1       21 0.26600284E-01 0.26563874E+03</pdfrwt>
<pdfrwt beam="2">  1       21 0.57622984E-01 0.26563874E+03</pdfrwt>
<totfact> 0.36733129E+04</totfact>
</mgrwt>
</event>
<event>
 4    0  0.1525083E-001  0.2412330E+03  0.7546771E-02  0.1118974E+00
         21   -1    0    0  502  501  0.00000000000E+00  0.00000000000E+00  0.15438622935E+03  0.15438622935E+03  0.00000000000E+00 0. -1.
         21   -1    0    0  503  502 -0.00000000000E+00 -0.00000000000E+00 -0.11107329776E+04  0.11107329776E+04  0.00000000000E+00 0. -1.
         25    1    1    2    0    0 -0.17010958774E+03  0.11675224963E+03  0.42706458614E+02  0.24498408365E+03  0.12500000000E+03 0.  0.
         21    1    1    2  503  501  0.17010958774E+03 -0.11675224963E+03 -0.99905320691E+03  0.10201351233E+04  0.00000000000E+00 0. -1.
<mgrwt>
<rscale>  3 0.24123300E+03</rscale>
<asrwt>0</asrwt>
<pdfrwt beam="1">  1       21 0.23751727E-01 0.24123300E+03</pdfrwt>
<pdfrwt beam="2">  1       21 0.17088200E+00 0.24123300E+03</pdfrwt>
<totfact> 0.33716886E+03</totfact>
</mgrwt>
</event>
<event>
 4    0  0.1525083E-001  0.2749827E+03  0.7546771E-02  0.1098461E+00
         21   -1    0    0  503  501  0.00000000000E+00  0.00000000000E+00  0.26767301466E+03  0.26767301466E+03  0.00000000000E+00 0.  1.
         21   -1    0    0  501  502 -0.00000000000E+00 -0.00000000000E+00 -0.34304517553E+03  0.34304517553E+03  0.00000000000E+00 0.  1.
         25    1    1    2    0    0  0.22404667035E+03  0.98962564281E+02  0.11743090369E+03  0.29900755302E+03  0.12500000000E+03 0.  0.
         21    1    1    2  503  502 -0.22404667035E+03 -0.98962564281E+02 -0.19280306456E+03  0.31171063717E+03  0.00000000000E+00 0.  1.
<mgrwt>
<rscale>  3 0.27498273E+03</rscale>
<asrwt>0</asrwt>
<pdfrwt beam="1">  1       21 0.41180464E-01 0.27498273E+03</pdfrwt>
<pdfrwt beam="2">  1       21 0.52776180E-01 0.27498273E+03</pdfrwt>
<totfact> 0.18506317E+04</totfact>
</mgrwt>
</event>
<event>
 4    0  0.1525083E-001  0.5481456E+03  0.7546771E-02  0.1001924E+00
         21   -1    0    0  502  501  0.00000000000E+00  0.00000000000E+00  0.98832534061E+03  0.98832534061E+03  0.00000000000E+00 0. -1.
         21   -1    0    0  503  502 -0.00000000000E+00 -0.00000000000E+00 -0.33155226976E+03  0.33155226976E+03  0.00000000000E+00 0.  1.
         25    1    1    2    0    0 -0.10425156749E+03 -0.52342165506E+03  0.54821909440E+03  0.77524692439E+03  0.12500000000E+03 0.  0.
         21    1    1    2  503  501  0.10425156749E+03  0.52342165506E+03  0.10855397646E+03  0.54463068598E+03  0.00000000000E+00 0.  1.
<mgrwt>
<rscale>  3 0.54814562E+03</rscale>
<asrwt>0</asrwt>
<pdfrwt beam="1">  1       21 0.15205005E+00 0.54814562E+03</pdfrwt>
<pdfrwt beam="2">  1       21 0.51008042E-01 0.54814562E+03</pdfrwt>
<totfact> 0.85432772E+02</totfact>
</mgrwt>
</event>
<event>
 4    0  0.1525083E-001  0.2726768E+03  0.7546771E-02  0.1099757E+00
         21   -1    0    0  503  501  0.00000000000E+00  0.00000000000E+00  0.69208407961E+03  0.69208407961E+03  0.00000000000E+00 0.  1.
         21   -1    0    0  501  502 -0.00000000000E+00 -0.00000000000E+00 -0.12117363902E+03  0.12117363902E+03  0.00000000000E+00 0.  1.
         25    1    1    2    0    0 -0.10317480696E+03  0.21927747762E+03  0.48452561153E+03  0.55598356200E+03  0.12500000000E+03 0.  0.
         21    1    1    2  503  502  0.10317480696E+03 -0.21927747762E+03  0.86384829058E+02  0.25727415664E+03  0.00000000000E+00 0.  1.
<mgrwt>
<rscale>  3 0.27267683E+03</rscale>
<asrwt>0</asrwt>
<pdfrwt beam="1">  1       21 0.10647447E+00 0.27267683E+03</pdfrwt>
<pdfrwt beam="2">  1       21 0.18642099E-01 0.27267683E+03</pdfrwt>
<totfact> 0.17783056E+04</totfact>
</mgrwt>
</event>
<event>
 4    0  0.1525083E-001  0.2964986E+03  0.7546771E-02  0.1087004E+00
         21   -1    0    0  503  501  0.00000000000E+00  0.00000000000E+00  0.30022134196E+03  0.30022134196E+03  0.00000000000E+00 0. -1.
         21   -1    0    0  501  502 -0.00000000000E+00 -0.00000000000E+00 -0.44543727081E+03  0.44543727081E+03  0.00000000000E+00 0.  1.
         25    1    1    2    0    0  0.26510584741E+03 -0.44780380323E+02  0.16162624266E+03  0.33768985047E+03  0.12500000000E+03 0.  0.
         21    1    1    2  503  502 -0.26510584741E+03  0.44780380323E+02 -0.30684217152E+03  0.40796876230E+03  0.00000000000E+00 0.  1.
<mgrwt>
<rscale>  3 0.29649855E+03</rscale>
<asrwt>0</asrwt>
<pdfrwt beam="1">  1       21 0.46187899E-01 0.29649855E+03</pdfrwt>
<pdfrwt beam="2">  1       21 0.68528811E-01 0.29649855E+03</pdfrwt>
<totfact> 0.82044475E+03</totfact>
</mgrwt>
</event>
<event>
 4    0  0.1525083E-001  0.4117323E+03  0.7546771E-02  0.1039791E+00
         21   -1    0    0  503  501  0.00000000000E+00  0.00000000000E+00  0.19289285131E+03  0.19289285131E+03  0.00000000000E+00 0. -1.
         21   -1    0    0  501  502 -0.00000000000E+00 -0.00000000000E+00 -0.92024516389E+03  0.92024516389E+03  0.00000000000E+00 0. -1.
         25    1    1    2    0    0  0.38920037108E+03 -0.49209178321E+02 -0.20519038971E+03  0.46002887747E+03  0.12500000000E+03 0.  0.
         21    1    1    2  503  502 -0.38920037108E+03  0.49209178321E+02 -0.52216192287E+03  0.65310913772E+03  0.00000000000E+00 0. -1.
<mgrwt>
<rscale>  3 0.41173228E+03</rscale>
<asrwt>0</asrwt>
<pdfrwt beam="1">  1       21 0.29675823E-01 0.41173228E+03</pdfrwt>
<pdfrwt beam="2">  1       21 0.14157618E+00 0.41173228E+03</pdfrwt>
<totfact> 0.33239384E+03</totfact>
</mgrwt>
</event>
<event>
 4    0  0.1525083E-001  0.4622424E+03  0.7546771E-02  0.1024133E+00
         21   -1    0    0  502  501  0.00000000000E+00  0.00000000000E+00  0.31463895630E+03  0.31463895630E+03  0.00000000000E+00 0.  1.
         21   -1    0    0  503  502 -0.00000000000E+00 -0.00000000000E+00 -0.96193153252E+03  0.96193153252E+03  0.00000000000E+00 0.  1.
         25    1    1    2    0    0 -0.28553708296E+03 -0.34133797448E+03  0.33253570239E+02  0.46343698439E+03  0.12500000000E+03 0.  0.
         21    1    1    2  503  501  0.28553708296E+03  0.34133797448E+03 -0.68054614646E+03  0.81313350443E+03  0.00000000000E+00 0.  1.
<mgrwt>
<rscale>  3 0.46224240E+03</rscale>
<asrwt>0</asrwt>
<pdfrwt beam="1">  1       21 0.48405993E-01 0.46224240E+03</pdfrwt>
<pdfrwt beam="2">  1       21 0.14798947E+00 0.46224240E+03</pdfrwt>
<totfact> 0.10625464E+03</totfact>
</mgrwt>
</event>
<event>
 4    0  0.1525083E-001  0.2390881E+03  0.7546771E-02  0.1120402E+00
         21   -1    0    0  503  501  0.00000000000E+00  0.00000000000E+00  0.14116043392E+04  0.14116043392E+04  0.00000000000E+00 0.  1.
         21   -1    0    0  501  502 -0.00000000000E+00 -0.00000000000E+00 -0.35067512319E+02  0.35067512319E+02  0.00000000000E+00 0.  1.
         25    1    1    2    0    0  0.56791889941E+02  0.19573650190E+03  0.67292035722E+03  0.71413227354E+03  0.12500000000E+03 0.  0.
         21    1    1    2  503  502 -0.56791889941E+02 -0.19573650190E+03  0.70361646971E+03  0.73253957803E+03  0.00000000000E+00 0.  1.
<mgrwt>
<rscale>  3 0.23908805E+03</rscale>
<asrwt>0</asrwt>
<pdfrwt beam="1">  1       21 0.21716985E+00 0.23908805E+03</pdfrwt>
<pdfrwt beam="2">  1       21 0.53950030E-02 0.23908805E+03</pdfrwt>
<totfact> 0.23942717E+04</totfact>
</mgrwt>
</event>
<event>
 4    0  0.1525083E-001  0.4088452E+03  0.7546771E-02  0.1040759E+00
         21   -1    0    0  503  501  0.00000000000E+00  0.00000000000E+00  0.70440783505E+03  0.70440783505E+03  0.00000000000E+00 0.  1.
         21   -1    0    0  501  502 -0.00000000000E+00 -0.00000000000E+00 -0.50551299414E+03  0.50551299414E+03  0.00000000000E+00 0. -1.
         25    1    1    2    0    0  0.21956775006E+03  0.32143331631E+03  0.55026470111E+03  0.68552579454E+03  0.12500000000E+03 0.  0.
         21    1    1    2  503  502 -0.21956775006E+03 -0.32143331631E+03 -0.35136986019E+03  0.52439503464E+03  0.00000000000E+00 0. -1.
<mgrwt>
<rscale>  3 0.40884517E+03</rscale>
<asrwt>0</asrwt>
<pdfrwt beam="1">  1       21 0.10837044E+00 0.40884517E+03</pdfrwt>
<pdfrwt beam="2">  1       21 0.77771230E-01 0.40884517E+03</pdfrwt>
<totfact> 0.85559715E+02</totfact>
</mgrwt>
</event>
<event>
 4    0  0.1525083E-001  0.3136855E+03  0.7546771E-02  0.1078593E+00
         21   -1    0    0  502  501  0.00000000000E+00  0.00000000000E+00  0.45531670517E+03  0.45531670517E+03  0.00000000000E+00 0. -1.
         21   -1    0    0  503  502 -0.00000000000E+00 -0.00000000000E+00 -0.23794350361E+03  0.23794350361E+03  0.00000000000E+00 0.  1.
         25    1    1    2    0    0  0.45409265511E+02  0.28409783688E+03  0.25347949924E+03  0.40329944067E+03  0.12500000000E+03 0.  0.
         21    1    1    2  503  501 -0.45409265511E+02 -0.28409783688E+03 -0.36106297678E+02  0.28996076811E+03  0.00000000000E+00 0.  1.
<mgrwt>
<rscale>  3 0.31368548E+03</rscale>
<asrwt>0</asrwt>
<pdfrwt beam="1">  1       21 0.70048724E-01 0.31368548E+03</pdfrwt>
<pdfrwt beam="2">  1       21 0.36606693E-01 0.31368548E+03</pdfrwt>
<totfact> 0.12489958E+04</totfact>
</mgrwt>
</event>
<event>
 4    0  0.1525083E-001  0.2735617E+03  0.7546771E-02  0.1099258E+00
         21   -1    0    0  503  501  0.00000000000E+00  0.00000000000E+00  0.99236960208E+02  0.99236960208E+02  0.00000000000E+00 0.  1.
         21   -1    0    0  501  502 -0.00000000000E+00 -0.00000000000E+00 -0.10839369416E+04  0.10839369416E+04  0.00000000000E+00 0. -1.
         25    1    1    2    0    0  0.19703853380E+03 -0.14278235395E+03 -0.14640089260E+03  0.31027279248E+03  0.12500000000E+03 0.  0.
         21    1    1    2  503  502 -0.19703853380E+03  0.14278235395E+03 -0.83829908878E+03  0.87290110932E+03  0.00000000000E+00 0. -1.
<mgrwt>
<rscale>  3 0.27356166E+03</rscale>
<asrwt>0</asrwt>
<pdfrwt beam="1">  1       21 0.15267225E-01 0.27356166E+03</pdfrwt>
<pdfrwt beam="2">  1       21 0.16675953E+00 0.27356166E+03</pdfrwt>
<totfact> 0.80790666E+03</totfact>
</mgrwt>
</event>
<event>
 4    0  0.1525083E-001  0.2436319E+03  0.7546771E-02  0.1117397E+00
         21   -1    0    0  502  501  0.00000000000E+00  0.00000000000E+00  0.37519503801E+03  0.37519503801E+03  0.00000000000E+00 0. -1.
         21   -1    0    0  503  502 -0.00000000000E+00 -0.00000000000E+00 -0.31194349993E+03  0.31194349993E+03  0.00000000000E+00 0.  1.
         25    1    1    2    0    0  0.17070839401E+03  0.12078966181E+03  0.28994934438E+03  0.37871773195E+03  0.12500000000E+03 0.  0.
         21    1    1    2  503  501 -0.17070839401E+03 -0.12078966181E+03 -0.22669780630E+03  0.30842080599E+03  0.00000000000E+00 0.  1.
<mgrwt>
<rscale>  3 0.24363189E+03</rscale>
<asrwt>0</asrwt>
<pdfrwt beam="1">  1       21 0.57722314E-01 0.24363189E+03</pdfrwt>
<pdfrwt beam="2">  1       21 0.47991308E-01 0.24363189E+03</pdfrwt>
<totfact> 0.11318681E+04</totfact>
</mgrwt>
</event>
<event>
 4    0  0.1525083E-001  0.2431799E+03  0.7546771E-02  0.1117692E+00
         21   -1    0    0  503  501  0.00000000000E+00  0.00000000000E+00  0.10267353236E+03  0.10267353236E+03  0.00000000000E+00 0. -1.
         21   -1    0    0  501  502 -0.00000000000E+00 -0.00000000000E+00 -0.51194980932E+03  0.51194980932E+03  0.00000000000E+00 0. -1.
         25    1    1    2    0    0 -0.22853601675E+02  0.20733836737E+03 -0.16741548483E+03  0.29523622788E+03  0.12500000000E+03 0.  0.
         21    1    1    2  503  502  0.22853601675E+02 -0.20733836737E+03 -0.24186079213E+03  0.31938711380E+03  0.00000000000E+00 0. -1.
<mgrwt>
<rscale>  3 0.24317995E+03</rscale>
<asrwt>0</asrwt>
<pdfrwt beam="1">  1       21 0.15795928E-01 0.24317995E+03</pdfrwt>
<pdfrwt beam="2">  1       21 0.78761509E-01 0.24317995E+03</pdfrwt>
<totfact> 0.49681629E+04</totfact>
</mgrwt>
</event>
<event>
 4    0  0.1525083E-001  0.2956627E+03  0.7546771E-02  0.1087429E+00
         21   -1    0    0  502  501  0.00000000000E+00  0.00000000000E+00  0.61750666909E+03  0.61750666909E+03  0.00000000000E+00 0. -1.
         21   -1    0    0  503  502 -0.00000000000E+00 -0.00000000000E+00 -0.15061906438E+03  0.15061906438E+03  0.00000000000E+00 0.  1.
         25    1    1    2    0    0 -0.10700831778E+03 -0.24564330496E+03  0.38994011547E+03  0.48935642123E+03  0.12500000000E+03 0.  0.
         21    1    1    2  503  501  0.10700831778E+03  0.24564330496E+03  0.76947489248E+02  0.27876931224E+03  0.00000000000E+00 0.  1.
<mgrwt>
<rscale>  3 0.29566267E+03</rscale>
<asrwt>0</asrwt>
<pdfrwt beam="1">  1       21 0.95001024E-01 0.29566267E+03</pdfrwt>
<pdfrwt beam="2">  1       21 0.23172164E-01 0.29566267E+03</pdfrwt>
<totfact> 0.15338301E+04</totfact>
</mgrwt>
</event>
<event>
 4    0  0.1525083E-001  0.2854921E+03  0.7546771E-02  0.1092727E+00
         21   -1    0    0  503  501  0.00000000000E+00  0.00000000000E+00  0.13790809714E+04  0.13790809714E+04  0.00000000000E+00 0.  1.
         21   -1    0    0  501  502 -0.00000000000E+00 -0.00000000000E+00 -0.55850596996E+02  0.55850596996E+02  0.00000000000E+00 0. -1.
         25    1    1    2    0    0 -0.25527983165E+03 -0.26701177265E+02  0.84870793338E+03  0.89543894347E+03  0.12500000000E+03 0.  0.
         21    1    1    2  503  502  0.25527983165E+03  0.26701177265E+02  0.47452244106E+03  0.53949262496E+03  0.00000000000E+00 0. -1.
<mgrwt>
<rscale>  3 0.28549211E+03</rscale>
<asrwt>0</asrwt>
<pdfrwt beam="1">  1       21 0.21216628E+00 0.28549211E+03</pdfrwt>
<pdfrwt beam="2">  1       21 0.85924006E-02 0.28549211E+03</pdfrwt>
<totfact> 0.11152640E+04</totfact>
</mgrwt>
</event>
<event>
 4    0  0.1525083E-001  0.2499262E+03  0.7546771E-02  0.1113352E+00
         21   -1    0    0  503  501  0.00000000000E+00  0.00000000000E+00  0.11853096727E+03  0.11853096727E+03  0.00000000000E+00 0. -1.
         21   -1    0    0  501  502 -0.00000000000E+00 -0.00000000000E+00 -0.51260744102E+03  0.51260744102E+03  0.00000000000E+00 0. -1.
         25    1    1    2    0    0 -0.29415855266E+02  0.21441265859E+03 -0.10760511910E+03  0.27210649085E+03  0.12500000000E+03 0.  0.
         21    1    1    2  503  502  0.29415855266E+02 -0.21441265859E+03 -0.28647135465E+03  0.35903191744E+03  0.00000000000E+00 0. -1.
<mgrwt>
<rscale>  3 0.24992615E+03</rscale>
<asrwt>0</asrwt>
<pdfrwt beam="1">  1       21 0.18235533E-01 0.24992615E+03</pdfrwt>
<pdfrwt beam="2">  1       21 0.78862684E-01 0.24992615E+03</pdfrwt>
<totfact> 0.37870046E+04</totfact>
</mgrwt>
</event>
<event>
 4    0  0.1525083E-001  0.2867337E+03  0.7546771E-02  0.1092067E+00
         21   -1    0    0  503  501  0.00000000000E+00  0.00000000000E+00  0.10623746781E+03  0.10623746781E+03  0.00000000000E+00 0. -1.
         21   -1    0    0  501  502 -0.00000000000E+00 -0.00000000000E+00 -0.82585134650E+03  0.82585134650E+03  0.00000000000E+00 0. -1.
         25    1    1    2    0    0 -0.14122041884E+03  0.21598155273E+03 -0.19297037017E+03  0.34562089286E+03  0.12500000000E+03 0.  0.
         21    1    1    2  503  502  0.14122041884E+03 -0.21598155273E+03 -0.52664350852E+03  0.58646792144E+03  0.00000000000E+00 0. -1.
<mgrwt>
<rscale>  3 0.28673374E+03</rscale>
<asrwt>0</asrwt>
<pdfrwt beam="1">  1       21 0.16344225E-01 0.28673374E+03</pdfrwt>
<pdfrwt beam="2">  1       21 0.12705406E+00 0.28673374E+03</pdfrwt>
<totfact> 0.14548346E+04</totfact>
</mgrwt>
</event>
<event>
 4    0  0.1525083E-001  0.2491404E+03  0.7546771E-02  0.1113849E+00
         21   -1    0    0  503  501  0.00000000000E+00  0.00000000000E+00  0.10242765341E+03  0.10242765341E+03  0.00000000000E+00 0.  1.
         21   -1    0    0  501  502 -0.00000000000E+00 -0.00000000000E+00 -0.63033621409E+03  0.63033621409E+03  0.00000000000E+00 0.  1.
         25    1    1    2    0    0  0.21240488582E+03 -0.36470621718E+02 -0.13187839017E+03  0.28189155994E+03  0.12500000000E+03 0.  0.
         21    1    1    2  503  502 -0.21240488582E+03  0.36470621718E+02 -0.39603017051E+03  0.45087230756E+03  0.00000000000E+00 0.  1.
<mgrwt>
<rscale>  3 0.24914041E+03</rscale>
<asrwt>0</asrwt>
<pdfrwt beam="1">  1       21 0.15758101E-01 0.24914041E+03</pdfrwt>
<pdfrwt beam="2">  1       21 0.96974802E-01 0.24914041E+03</pdfrwt>
<totfact> 0.30736027E+04</totfact>
</mgrwt>
</event>
<event>
 4    0  0.1525083E-001  0.2836159E+03  0.7546771E-02  0.1093730E+00
         21   -1    0    0  502  501  0.00000000000E+00  0.00000000000E+00  0.26031568743E+04  0.26031568743E+04  0.00000000000E+00 0. -1.
         21   -1    0    0  503  502 -0.00000000000E+00 -0.00000000000E+00 -0.42009263724E+02  0.42009263724E+02  0.00000000000E+00 0. -1.
         25    1    1    2    0    0 -0.16926759478E+03  0.19016172123E+03  0.20942807683E+04  0.21133977230E+04  0.12500000000E+03 0.  0.
         21    1    1    2  503  501  0.16926759478E+03 -0.19016172123E+03  0.46686684228E+03  0.53176841509E+03  0.00000000000E+00 0. -1.
<mgrwt>
<rscale>  3 0.28361594E+03</rscale>
<asrwt>0</asrwt>
<pdfrwt beam="1">  1       21 0.40048555E+00 0.28361594E+03</pdfrwt>
<pdfrwt beam="2">  1       21 0.64629657E-02 0.28361594E+03</pdfrwt>
<totfact> 0.13427409E+03</totfact>
</mgrwt>
</event>
<event>
 4    0  0.1525083E-001  0.3238664E+03  0.7546771E-02  0.1073883E+00
         21   -1    0    0  503  501  0.00000000000E+00  0.00000000000E+00  0.65192347951E+02  0.65192347951E+02  0.00000000000E+00 0. -1.
         21   -1    0    0  501  502 -0.00000000000E+00 -0.00000000000E+00 -0.16013496524E+04  0.16013496524E+04  0.00000000000E+00 0. -1.
         25    1    1    2    0    0 -0.29393549731E+03  0.53538706102E+02 -0.57399646153E+03  0.65906100437E+03  0.12500000000E+03 0.  0.
         21    1    1    2  503  502  0.29393549731E+03 -0.53538706102E+02 -0.96216084294E+03  0.10074809960E+04  0.00000000000E+00 0. -1.
<mgrwt>
<rscale>  3 0.32386644E+03</rscale>
<asrwt>0</asrwt>
<pdfrwt beam="1">  1       21 0.10029593E-01 0.32386644E+03</pdfrwt>
<pdfrwt beam="2">  1       21 0.24636146E+00 0.32386644E+03</pdfrwt>
<totfact> 0.50865535E+03</totfact>
</mgrwt>
</event>
<event>
 4    0  0.1525083E-001  0.3297399E+03  0.7546771E-02  0.1071252E+00
         21   -1    0    0  503  501  0.00000000000E+00  0.00000000000E+00  0.63034478618E+03  0.63034478618E+03  0.00000000000E+00 0. -1.
         21   -1    0    0  501  502 -0.00000000000E+00 -0.00000000000E+00 -0.16111376394E+03  0.16111376394E+03  0.00000000000E+00 0. -1.
         25    1    1    2    0    0  0.29941278032E+03 -0.58782624699E+02  0.20870274282E+03  0.39023742112E+03  0.12500000000E+03 0.  0.
         21    1    1    2  503  502 -0.29941278032E+03  0.58782624699E+02  0.26052827941E+03  0.40122112900E+03  0.00000000000E+00 0. -1.
<mgrwt>
<rscale>  3 0.32973991E+03</rscale>
<asrwt>0</asrwt>
<pdfrwt beam="1">  1       21 0.96976120E-01 0.32973991E+03</pdfrwt>
<pdfrwt beam="2">  1       21 0.24786733E-01 0.32973991E+03</pdfrwt>
<totfact> 0.12649909E+04</totfact>
</mgrwt>
</event>
<event>
 4    0  0.1525083E-001  0.2517959E+03  0.7546771E-02  0.1112175E+00
         21   -1    0    0  502  501  0.00000000000E+00  0.00000000000E+00  0.24017892573E+03  0.24017892573E+03  0.00000000000E+00 0.  1.
         21   -1    0    0  503  502 -0.00000000000E+00 -0.00000000000E+00 -0.25138181801E+03  0.25138181801E+03  0.00000000000E+00 0. -1.
         25    1    1    2    0    0  0.10935032947E+03  0.18925821821E+03  0.65052301408E+02  0.26006339541E+03  0.12500000000E+03 0.  0.
         21    1    1    2  503  501 -0.10935032947E+03 -0.18925821821E+03 -0.76255193690E+02  0.23149734832E+03  0.00000000000E+00 0. -1.
<mgrwt>
<rscale>  3 0.25179589E+03</rscale>
<asrwt>0</asrwt>
<pdfrwt beam="1">  1       21 0.36950604E-01 0.25179589E+03</pdfrwt>
<pdfrwt beam="2">  1       21 0.38674126E-01 0.25179589E+03</pdfrwt>
<totfact> 0.44330127E+04</totfact>
</mgrwt>
</event>
<event>
 4    0  0.1525083E-001  0.3185391E+03  0.7546771E-02  0.1076324E+00
         21   -1    0    0  502  501  0.00000000000E+00  0.00000000000E+00  0.55037141240E+03  0.55037141240E+03  0.00000000000E+00 0. -1.
         21   -1    0    0  503  502 -0.00000000000E+00 -0.00000000000E+00 -0.85044599358E+03  0.85044599358E+03  0.00000000000E+00 0.  1.
         25    1    1    2    0    0 -0.20811073106E+03 -0.20623307401E+03  0.47516692882E+03  0.57205836017E+03  0.12500000000E+03 0.  0.
         21    1    1    2  503  501  0.20811073106E+03  0.20623307401E+03 -0.77524151000E+03  0.82875904581E+03  0.00000000000E+00 0.  1.
<mgrwt>
<rscale>  3 0.31853910E+03</rscale>
<asrwt>0</asrwt>
<pdfrwt beam="1">  1       21 0.84672524E-01 0.31853910E+03</pdfrwt>
<pdfrwt beam="2">  1       21 0.13083785E+00 0.31853910E+03</pdfrwt>
<totfact> 0.46056910E+02</totfact>
</mgrwt>
</event>
<event>
 4    0  0.1525083E-001  0.2531066E+03  0.7546771E-02  0.1111357E+00
         21   -1    0    0  503  501  0.00000000000E+00  0.00000000000E+00  0.26003972490E+03  0.26003972490E+03  0.00000000000E+00 0. -1.
         21   -1    0    0  501  502 -0.00000000000E+00 -0.00000000000E+00 -0.45164577619E+03  0.45164577619E+03  0.00000000000E+00 0.  1.
         25    1    1    2    0    0 -0.21582067652E+03  0.43120723214E+02  0.15814435544E+03  0.29845032810E+03  0.12500000000E+03 0.  0.
         21    1    1    2  503  502  0.21582067652E+03 -0.43120723214E+02 -0.34975040673E+03  0.41323517299E+03  0.00000000000E+00 0.  1.
<mgrwt>
<rscale>  3 0.25310662E+03</rscale>
<asrwt>0</asrwt>
<pdfrwt beam="1">  1       21 0.40006112E-01 0.25310662E+03</pdfrwt>
<pdfrwt beam="2">  1       21 0.69483964E-01 0.25310662E+03</pdfrwt>
<totfact> 0.10930139E+04</totfact>
</mgrwt>
</event>
<event>
 4    0  0.1525083E-001  0.3453144E+03  0.7546771E-02  0.1064555E+00
         21   -1    0    0  502  501  0.00000000000E+00  0.00000000000E+00  0.27637317548E+03  0.27637317548E+03  0.00000000000E+00 0. -1.
         21   -1    0    0  503  502 -0.00000000000E+00 -0.00000000000E+00 -0.46562103028E+03  0.46562103028E+03  0.00000000000E+00 0. -1.
         25    1    1    2    0    0  0.48629635329E+02 -0.31820154761E+03  0.38823361580E+02  0.34749002825E+03  0.12500000000E+03 0.  0.
         21    1    1    2  503  501 -0.48629635329E+02  0.31820154761E+03 -0.22807121638E+03  0.39450417751E+03  0.00000000000E+00 0. -1.
<mgrwt>
<rscale>  3 0.34531445E+03</rscale>
<asrwt>0</asrwt>
<pdfrwt beam="1">  1       21 0.42518950E-01 0.34531445E+03</pdfrwt>
<pdfrwt beam="2">  1       21 0.71634004E-01 0.34531445E+03</pdfrwt>
<totfact> 0.86374050E+03</totfact>
</mgrwt>
</event>
<event>
 4    0  0.1525083E-001  0.2657391E+03  0.7546771E-02  0.1103743E+00
         21   -1    0    0  502  501  0.00000000000E+00  0.00000000000E+00  0.24719681359E+03  0.24719681359E+03  0.00000000000E+00 0.  1.
         21   -1    0    0  503  502 -0.00000000000E+00 -0.00000000000E+00 -0.37493194749E+03  0.37493194749E+03  0.00000000000E+00 0.  1.
         25    1    1    2    0    0 -0.13358271096E+03 -0.19273801803E+03  0.11053951314E+03  0.28781290491E+03  0.12500000000E+03 0.  0.
         21    1    1    2  503  501  0.13358271096E+03  0.19273801803E+03 -0.23827464705E+03  0.33431585617E+03  0.00000000000E+00 0.  1.
<mgrwt>
<rscale>  3 0.26573913E+03</rscale>
<asrwt>0</asrwt>
<pdfrwt beam="1">  1       21 0.38030279E-01 0.26573913E+03</pdfrwt>
<pdfrwt beam="2">  1       21 0.57681838E-01 0.26573913E+03</pdfrwt>
<totfact> 0.18072628E+04</totfact>
</mgrwt>
</event>
<event>
 4    0  0.1525083E-001  0.2373552E+03  0.7546771E-02  0.1121567E+00
         21   -1    0    0  503  501  0.00000000000E+00  0.00000000000E+00  0.80675566533E+03  0.80675566533E+03  0.00000000000E+00 0. -1.
         21   -1    0    0  501  502 -0.00000000000E+00 -0.00000000000E+00 -0.60755363957E+02  0.60755363957E+02  0.00000000000E+00 0. -1.
         25    1    1    2    0    0 -0.11430390038E+03 -0.16627415779E+03  0.34727469293E+03  0.42063902522E+03  0.12500000000E+03 0.  0.
         21    1    1    2  503  502  0.11430390038E+03  0.16627415779E+03  0.39872560844E+03  0.44687200407E+03  0.00000000000E+00 0. -1.
<mgrwt>
<rscale>  3 0.23735517E+03</rscale>
<asrwt>0</asrwt>
<pdfrwt beam="1">  1       21 0.12411625E+00 0.23735517E+03</pdfrwt>
<pdfrwt beam="2">  1       21 0.93469796E-02 0.23735517E+03</pdfrwt>
<totfact> 0.43367428E+04</totfact>
</mgrwt>
</event>
<event>
 4    0  0.1525083E-001  0.5643706E+03  0.7546771E-02  0.9982214E-01
         21   -1    0    0  503  501  0.00000000000E+00  0.00000000000E+00  0.42396084244E+03  0.42396084244E+03  0.00000000000E+00 0. -1.
         21   -1    0    0  501  502 -0.00000000000E+00 -0.00000000000E+00 -0.15896343067E+04  0.15896343067E+04  0.00000000000E+00 0.  1.
         25    1    1    2    0    0  0.43255887964E+03 -0.34026758219E+03  0.15295048380E+03  0.58472905037E+03  0.12500000000E+03 0.  0.
         21    1    1    2  503  502 -0.43255887964E+03  0.34026758219E+03 -0.13186239481E+04  0.14288660988E+04  0.00000000000E+00 0.  1.
<mgrwt>
<rscale>  3 0.56437063E+03</rscale>
<asrwt>0</asrwt>
<pdfrwt beam="1">  1       21 0.65224746E-01 0.56437063E+03</pdfrwt>
<pdfrwt beam="2">  1       21 0.24455912E+00 0.56437063E+03</pdfrwt>
<totfact> 0.11519709E+02</totfact>
</mgrwt>
</event>
<event>
 4    0  0.1525083E-001  0.3730887E+03  0.7546771E-02  0.1053518E+00
         21   -1    0    0  503  501  0.00000000000E+00  0.00000000000E+00  0.45289107686E+03  0.45289107686E+03  0.00000000000E+00 0.  1.
         21   -1    0    0  501  502 -0.00000000000E+00 -0.00000000000E+00 -0.32761694417E+03  0.32761694417E+03  0.00000000000E+00 0.  1.
         25    1    1    2    0    0  0.93478753225E+02  0.33886851187E+03  0.19675126761E+03  0.42178929213E+03  0.12500000000E+03 0.  0.
         21    1    1    2  503  502 -0.93478753225E+02 -0.33886851187E+03 -0.71477134923E+02  0.35871872890E+03  0.00000000000E+00 0.  1.
<mgrwt>
<rscale>  3 0.37308866E+03</rscale>
<asrwt>0</asrwt>
<pdfrwt beam="1">  1       21 0.69675550E-01 0.37308866E+03</pdfrwt>
<pdfrwt beam="2">  1       21 0.50402607E-01 0.37308866E+03</pdfrwt>
<totfact> 0.63688548E+03</totfact>
</mgrwt>
</event>
<event>
 4    0  0.1525083E-001  0.2466285E+03  0.7546771E-02  0.1115454E+00
         21   -1    0    0  502  501  0.00000000000E+00  0.00000000000E+00  0.16910832495E+03  0.16910832495E+03  0.00000000000E+00 0.  1.
         21   -1    0    0  503  502 -0.00000000000E+00 -0.00000000000E+00 -0.45207843593E+03  0.45207843593E+03  0.00000000000E+00 0.  1.
         25    1    1    2    0    0 -0.15675837022E+03  0.14362247346E+03  0.23987325880E+02  0.24779223821E+03  0.12500000000E+03 0.  0.
         21    1    1    2  503  501  0.15675837022E+03 -0.14362247346E+03 -0.30695743686E+03  0.37339452267E+03  0.00000000000E+00 0.  1.
<mgrwt>
<rscale>  3 0.24662847E+03</rscale>
<asrwt>0</asrwt>
<pdfrwt beam="1">  1       21 0.26016665E-01 0.24662847E+03</pdfrwt>
<pdfrwt beam="2">  1       21 0.69550529E-01 0.24662847E+03</pdfrwt>
<totfact> 0.25638652E+04</totfact>
</mgrwt>
</event>
<event>
 4    0  0.1525083E-001  0.2495964E+03  0.7546771E-02  0.1113560E+00
         21   -1    0    0  503  501  0.00000000000E+00  0.00000000000E+00  0.41084746529E+03  0.41084746529E+03  0.00000000000E+00 0.  1.
         21   -1    0    0  501  502 -0.00000000000E+00 -0.00000000000E+00 -0.68172941492E+03  0.68172941492E+03  0.00000000000E+00 0. -1.
         25    1    1    2    0    0  0.13464129381E+03 -0.16895292959E+03  0.35301148921E+03  0.43233723172E+03  0.12500000000E+03 0.  0.
         21    1    1    2  503  502 -0.13464129381E+03  0.16895292959E+03 -0.62389343884E+03  0.66023964850E+03  0.00000000000E+00 0. -1.
<mgrwt>
<rscale>  3 0.24959642E+03</rscale>
<asrwt>0</asrwt>
<pdfrwt beam="1">  1       21 0.63207303E-01 0.24959642E+03</pdfrwt>
<pdfrwt beam="2">  1       21 0.10488145E+00 0.24959642E+03</pdfrwt>
<totfact> 0.16170559E+03</totfact>
</mgrwt>
</event>
<event>
 4    0  0.1525083E-001  0.2570629E+03  0.7546771E-02  0.1108921E+00
         21   -1    0    0  502  501  0.00000000000E+00  0.00000000000E+00  0.45311813952E+03  0.45311813952E+03  0.00000000000E+00 0.  1.
         21   -1    0    0  503  502 -0.00000000000E+00 -0.00000000000E+00 -0.13426864127E+03  0.13426864127E+03  0.00000000000E+00 0.  1.
         25    1    1    2    0    0 -0.12202462956E+03  0.18859042668E+03  0.23290793408E+03  0.34688249453E+03  0.12500000000E+03 0.  0.
         21    1    1    2  503  501  0.12202462956E+03 -0.18859042668E+03  0.85941564166E+02  0.24050428625E+03  0.00000000000E+00 0.  1.
<mgrwt>
<rscale>  3 0.25706295E+03</rscale>
<asrwt>0</asrwt>
<pdfrwt beam="1">  1       21 0.69710482E-01 0.25706295E+03</pdfrwt>
<pdfrwt beam="2">  1       21 0.20656714E-01 0.25706295E+03</pdfrwt>
<totfact> 0.39422818E+04</totfact>
</mgrwt>
</event>
<event>
 4    0  0.1525083E-001  0.3271149E+03  0.7546771E-02  0.1072421E+00
         21   -1    0    0  502  501  0.00000000000E+00  0.00000000000E+00  0.93970617035E+02  0.93970617035E+02  0.00000000000E+00 0.  1.
         21   -1    0    0  503  502 -0.00000000000E+00 -0.00000000000E+00 -0.10650703514E+04  0.10650703514E+04  0.00000000000E+00 0.  1.
         25    1    1    2    0    0 -0.28788332363E+03  0.92208174123E+02 -0.56374859576E+03  0.65177959052E+03  0.12500000000E+03 0.  0.
         21    1    1    2  503  501  0.28788332363E+03 -0.92208174123E+02 -0.40735113859E+03  0.50726137790E+03  0.00000000000E+00 0.  1.
<mgrwt>
<rscale>  3 0.32711490E+03</rscale>
<asrwt>0</asrwt>
<pdfrwt beam="1">  1       21 0.14457018E-01 0.32711490E+03</pdfrwt>
<pdfrwt beam="2">  1       21 0.16385697E+00 0.32711490E+03</pdfrwt>
<totfact> 0.91181852E+03</totfact>
</mgrwt>
</event>
<event>
 4    0  0.1525083E-001  0.2495615E+03  0.7546771E-02  0.1113582E+00
         21   -1    0    0  502  501  0.00000000000E+00  0.00000000000E+00  0.97930138627E+02  0.97930138627E+02  0.00000000000E+00 0. -1.
         21   -1    0    0  503  502 -0.00000000000E+00 -0.00000000000E+00 -0.11478418976E+04  0.11478418976E+04  0.00000000000E+00 0. -1.
         25    1    1    2    0    0  0.43976032841E+02  0.21147585634E+03 -0.95478550876E+02  0.26720232589E+03  0.12500000000E+03 0.  0.
         21    1    1    2  503  501 -0.43976032841E+02 -0.21147585634E+03 -0.95443320811E+03  0.97856971035E+03  0.00000000000E+00 0. -1.
<mgrwt>
<rscale>  3 0.24956147E+03</rscale>
<asrwt>0</asrwt>
<pdfrwt beam="1">  1       21 0.15066174E-01 0.24956147E+03</pdfrwt>
<pdfrwt beam="2">  1       21 0.17659107E+00 0.24956147E+03</pdfrwt>
<totfact> 0.71576441E+03</totfact>
</mgrwt>
</event>
<event>
 4    0  0.1525083E-001  0.4716505E+03  0.7546771E-02  0.1021455E+00
         21   -1    0    0  503  501  0.00000000000E+00  0.00000000000E+00  0.96793545407E+03  0.96793545407E+03  0.00000000000E+00 0. -1.
         21   -1    0    0  501  502 -0.00000000000E+00 -0.00000000000E+00 -0.46493655808E+03  0.46493655808E+03  0.00000000000E+00 0. -1.
         25    1    1    2    0    0 -0.41273825454E+03 -0.19098770087E+03  0.77186143930E+03  0.90455748856E+03  0.12500000000E+03 0.  0.
         21    1    1    2  503  502  0.41273825454E+03  0.19098770087E+03 -0.26886254331E+03  0.52831452359E+03  0.00000000000E+00 0. -1.
<mgrwt>
<rscale>  3 0.47165047E+03</rscale>
<asrwt>0</asrwt>
<pdfrwt beam="1">  1       21 0.14891315E+00 0.47165047E+03</pdfrwt>
<pdfrwt beam="2">  1       21 0.71528701E-01 0.47165047E+03</pdfrwt>
<totfact> 0.44290848E+02</totfact>
</mgrwt>
</event>
<event>
 4    0  0.1525083E-001  0.2363941E+03  0.7546771E-02  0.1122219E+00
         21   -1    0    0  503  501  0.00000000000E+00  0.00000000000E+00  0.46759581168E+03  0.46759581168E+03  0.00000000000E+00 0.  1.
         21   -1    0    0  501  502 -0.00000000000E+00 -0.00000000000E+00 -0.32611141898E+03  0.32611141898E+03  0.00000000000E+00 0. -1.
         25    1    1    2    0    0 -0.96198364754E+02  0.17607681882E+03  0.40111014131E+03  0.46558728179E+03  0.12500000000E+03 0.  0.
         21    1    1    2  503  502  0.96198364754E+02 -0.17607681882E+03 -0.25962574861E+03  0.32811994887E+03  0.00000000000E+00 0. -1.
<mgrwt>
<rscale>  3 0.23639410E+03</rscale>
<asrwt>0</asrwt>
<pdfrwt beam="1">  1       21 0.71937817E-01 0.23639410E+03</pdfrwt>
<pdfrwt beam="2">  1       21 0.50170987E-01 0.23639410E+03</pdfrwt>
<totfact> 0.64015701E+03</totfact>
</mgrwt>
</event>
<event>
 4    0  0.1525083E-001  0.3260679E+03  0.7546771E-02  0.1072890E+00
         21   -1    0    0  502  501  0.00000000000E+00  0.00000000000E+00  0.46574478369E+03  0.46574478369E+03  0.00000000000E+00 0. -1.
         21   -1    0    0  503  502 -0.00000000000E+00 -0.00000000000E+00 -0.37876884374E+03  0.37876884374E+03  0.00000000000E+00 0.  1.
         25    1    1    2    0    0 -0.17755672769E+03  0.24324659003E+03  0.32520774363E+03  0.46052184706E+03  0.12500000000E+03 0.  0.
         21    1    1    2  503  501  0.17755672769E+03 -0.24324659003E+03 -0.23823180368E+03  0.38399178037E+03  0.00000000000E+00 0.  1.
<mgrwt>
<rscale>  3 0.32606793E+03</rscale>
<asrwt>0</asrwt>
<pdfrwt beam="1">  1       21 0.71653044E-01 0.32606793E+03</pdfrwt>
<pdfrwt beam="2">  1       21 0.58272130E-01 0.32606793E+03</pdfrwt>
<totfact> 0.44726156E+03</totfact>
</mgrwt>
</event>
<event>
 4    0  0.1525083E-001  0.2631048E+03  0.7546771E-02  0.1105292E+00
         21   -1    0    0  502  501  0.00000000000E+00  0.00000000000E+00  0.70355783537E+03  0.70355783537E+03  0.00000000000E+00 0. -1.
         21   -1    0    0  503  502 -0.00000000000E+00 -0.00000000000E+00 -0.18832132734E+03  0.18832132734E+03  0.00000000000E+00 0.  1.
         25    1    1    2    0    0 -0.63913008051E+01 -0.23142659868E+03  0.59211104376E+03  0.64793487902E+03  0.12500000000E+03 0.  0.
         21    1    1    2  503  501  0.63913008051E+01  0.23142659868E+03 -0.76874535732E+02  0.24394428370E+03  0.00000000000E+00 0.  1.
<mgrwt>
<rscale>  3 0.26310477E+03</rscale>
<asrwt>0</asrwt>
<pdfrwt beam="1">  1       21 0.10823967E+00 0.26310477E+03</pdfrwt>
<pdfrwt beam="2">  1       21 0.28972512E-01 0.26310477E+03</pdfrwt>
<totfact> 0.73934682E+03</totfact>
</mgrwt>
</event>
<event>
 4    0  0.1525083E-001  0.3283330E+03  0.7546771E-02  0.1071877E+00
         21   -1    0    0  503  501  0.00000000000E+00  0.00000000000E+00  0.65452452200E+03  0.65452452200E+03  0.00000000000E+00 0. -1.
         21   -1    0    0  501  502 -0.00000000000E+00 -0.00000000000E+00 -0.66400384990E+03  0.66400384990E+03  0.00000000000E+00 0.  1.
         25    1    1    2    0    0 -0.22556388284E+03  0.20322023750E+03  0.57372372511E+03  0.66103059152E+03  0.12500000000E+03 0.  0.
         21    1    1    2  503  502  0.22556388284E+03 -0.20322023750E+03 -0.58320305301E+03  0.65749778038E+03  0.00000000000E+00 0.  1.
<mgrwt>
<rscale>  3 0.32833296E+03</rscale>
<asrwt>0</asrwt>
<pdfrwt beam="1">  1       21 0.10069608E+00 0.32833296E+03</pdfrwt>
<pdfrwt beam="2">  1       21 0.10215444E+00 0.32833296E+03</pdfrwt>
<totfact> 0.56309632E+02</totfact>
</mgrwt>
</event>
<event>
 4    0  0.1525083E-001  0.2932092E+03  0.7546771E-02  0.1088685E+00
         21   -1    0    0  503  501  0.00000000000E+00  0.00000000000E+00  0.52708311525E+03  0.52708311525E+03  0.00000000000E+00 0. -1.
         21   -1    0    0  501  502 -0.00000000000E+00 -0.00000000000E+00 -0.30963397155E+03  0.30963397155E+03  0.00000000000E+00 0. -1.
         25    1    1    2    0    0  0.52091979507E+02  0.26006361236E+03  0.41349206459E+03  0.50689973790E+03  0.12500000000E+03 0.  0.
         21    1    1    2  503  502 -0.52091979507E+02 -0.26006361236E+03 -0.19604292090E+03  0.32981734890E+03  0.00000000000E+00 0. -1.
<mgrwt>
<rscale>  3 0.29320924E+03</rscale>
<asrwt>0</asrwt>
<pdfrwt beam="1">  1       21 0.81089710E-01 0.29320924E+03</pdfrwt>
<pdfrwt beam="2">  1       21 0.47635996E-01 0.29320924E+03</pdfrwt>
<totfact> 0.52711262E+03</totfact>
</mgrwt>
</event>
<event>
 4    0  0.1525083E-001  0.3394681E+03  0.7546771E-02  0.1067023E+00
         21   -1    0    0  502  501  0.00000000000E+00  0.00000000000E+00  0.49495199071E+03  0.49495199071E+03  0.00000000000E+00 0. -1.
         21   -1    0    0  503  502 -0.00000000000E+00 -0.00000000000E+00 -0.26742023860E+03  0.26742023860E+03  0.00000000000E+00 0. -1.
         25    1    1    2    0    0 -0.12199353846E+03  0.29108615517E+03 -0.48704290898E+02  0.34294413701E+03  0.12500000000E+03 0.  0.
         21    1    1    2  503  501  0.12199353846E+03 -0.29108615517E+03  0.27623604301E+03  0.41942809231E+03  0.00000000000E+00 0. -1.
<mgrwt>
<rscale>  3 0.33946807E+03</rscale>
<asrwt>0</asrwt>
<pdfrwt beam="1">  1       21 0.76146460E-01 0.33946807E+03</pdfrwt>
<pdfrwt beam="2">  1       21 0.41141575E-01 0.33946807E+03</pdfrwt>
<totfact> 0.80710223E+03</totfact>
</mgrwt>
</event>
<event>
 4    0  0.1525083E-001  0.2527508E+03  0.7546771E-02  0.1111579E+00
         21   -1    0    0  503  501  0.00000000000E+00  0.00000000000E+00  0.17905078183E+03  0.17905078183E+03  0.00000000000E+00 0.  1.
         21   -1    0    0  501  502 -0.00000000000E+00 -0.00000000000E+00 -0.15138726649E+04  0.15138726649E+04  0.00000000000E+00 0.  1.
         25    1    1    2    0    0  0.12704476926E+03 -0.17921384657E+03  0.76916788315E+02  0.26419532267E+03  0.12500000000E+03 0.  0.
         21    1    1    2  503  502 -0.12704476926E+03  0.17921384657E+03 -0.14117386714E+04  0.14287281241E+04  0.00000000000E+00 0.  1.
<mgrwt>
<rscale>  3 0.25275082E+03</rscale>
<asrwt>0</asrwt>
<pdfrwt beam="1">  1       21 0.27546274E-01 0.25275082E+03</pdfrwt>
<pdfrwt beam="2">  1       21 0.23290348E+00 0.25275082E+03</pdfrwt>
<totfact> 0.99155309E+02</totfact>
</mgrwt>
</event>
<event>
 4    0  0.1525083E-001  0.2756784E+03  0.7546771E-02  0.1098073E+00
         21   -1    0    0  502  501  0.00000000000E+00  0.00000000000E+00  0.19673951793E+03  0.19673951793E+03  0.00000000000E+00 0.  1.
         21   -1    0    0  503  502 -0.00000000000E+00 -0.00000000000E+00 -0.34545713368E+03  0.34545713368E+03  0.00000000000E+00 0.  1.
         25    1    1    2    0    0 -0.23917382405E+03  0.56298115447E+02 -0.76691736180E+02  0.28614719693E+03  0.12500000000E+03 0.  0.
         21    1    1    2  503  501  0.23917382405E+03 -0.56298115447E+02 -0.72025879570E+02  0.25604945468E+03  0.00000000000E+00 0.  1.
<mgrwt>
<rscale>  3 0.27567843E+03</rscale>
<asrwt>0</asrwt>
<pdfrwt beam="1">  1       21 0.30267619E-01 0.27567843E+03</pdfrwt>
<pdfrwt beam="2">  1       21 0.53147250E-01 0.27567843E+03</pdfrwt>
<totfact> 0.33792855E+04</totfact>
</mgrwt>
</event>
<event>
 4    0  0.1525083E-001  0.2467880E+03  0.7546771E-02  0.1115352E+00
         21   -1    0    0  502  501  0.00000000000E+00  0.00000000000E+00  0.28734228117E+03  0.28734228117E+03  0.00000000000E+00 0. -1.
         21   -1    0    0  503  502 -0.00000000000E+00 -0.00000000000E+00 -0.36291284743E+03  0.36291284743E+03  0.00000000000E+00 0. -1.
         25    1    1    2    0    0 -0.13146734993E+02  0.21238281518E+03  0.18891676106E+03  0.31079549456E+03  0.12500000000E+03 0.  0.
         21    1    1    2  503  501  0.13146734993E+02 -0.21238281518E+03 -0.26448732732E+03  0.33945963404E+03  0.00000000000E+00 0. -1.
<mgrwt>
<rscale>  3 0.24678796E+03</rscale>
<asrwt>0</asrwt>
<pdfrwt beam="1">  1       21 0.44206505E-01 0.24678796E+03</pdfrwt>
<pdfrwt beam="2">  1       21 0.55832745E-01 0.24678796E+03</pdfrwt>
<totfact> 0.14386065E+04</totfact>
</mgrwt>
</event>
<event>
 4    0  0.1525083E-001  0.3988386E+03  0.7546771E-02  0.1044183E+00
         21   -1    0    0  502  501  0.00000000000E+00  0.00000000000E+00  0.19293790973E+04  0.19293790973E+04  0.00000000000E+00 0.  1.
         21   -1    0    0  503  502 -0.00000000000E+00 -0.00000000000E+00 -0.33964827846E+03  0.33964827846E+03  0.00000000000E+00 0.  1.
         25    1    1    2    0    0  0.23194575339E+03  0.29941339529E+03  0.17946270291E+04  0.18384119200E+04  0.12500000000E+03 0.  0.
         21    1    1    2  503  501 -0.23194575339E+03 -0.29941339529E+03 -0.20489621028E+03  0.43061545581E+03  0.00000000000E+00 0.  1.
<mgrwt>
<rscale>  3 0.39883858E+03</rscale>
<asrwt>0</asrwt>
<pdfrwt beam="1">  1       21 0.29682755E+00 0.39883858E+03</pdfrwt>
<pdfrwt beam="2">  1       21 0.52253583E-01 0.39883858E+03</pdfrwt>
<totfact> 0.99035267E+01</totfact>
</mgrwt>
</event>
<event>
 4    0  0.1525083E-001  0.2523668E+03  0.7546771E-02  0.1111818E+00
         21   -1    0    0  503  501  0.00000000000E+00  0.00000000000E+00  0.10357490397E+04  0.10357490397E+04  0.00000000000E+00 0.  1.
         21   -1    0    0  501  502 -0.00000000000E+00 -0.00000000000E+00 -0.65830354473E+02  0.65830354473E+02  0.00000000000E+00 0.  1.
         25    1    1    2    0    0 -0.68539414139E+01 -0.21912782023E+03  0.27661933192E+03  0.37444256289E+03  0.12500000000E+03 0.  0.
         21    1    1    2  503  502  0.68539414139E+01  0.21912782023E+03  0.69329935333E+03  0.72713683130E+03  0.00000000000E+00 0.  1.
<mgrwt>
<rscale>  3 0.25236675E+03</rscale>
<asrwt>0</asrwt>
<pdfrwt beam="1">  1       21 0.15934599E+00 0.25236675E+03</pdfrwt>
<pdfrwt beam="2">  1       21 0.10127748E-01 0.25236675E+03</pdfrwt>
<totfact> 0.19455065E+04</totfact>
</mgrwt>
</event>
<event>
 4    0  0.1525083E-001  0.3304647E+03  0.7546771E-02  0.1070931E+00
         21   -1    0    0  503  501  0.00000000000E+00  0.00000000000E+00  0.86961573303E+02  0.86961573303E+02  0.00000000000E+00 0.  1.
         21   -1    0    0  501  502 -0.00000000000E+00 -0.00000000000E+00 -0.12852314369E+04  0.12852314369E+04  0.00000000000E+00 0.  1.
         25    1    1    2    0    0 -0.30554682954E+03  0.14934111634E+02 -0.83044711726E+03  0.89378370275E+03  0.12500000000E+03 0.  0.
         21    1    1    2  503  502  0.30554682954E+03 -0.14934111634E+02 -0.36782274631E+03  0.47840930743E+03  0.00000000000E+00 0.  1.
<mgrwt>
<rscale>  3 0.33046466E+03</rscale>
<asrwt>0</asrwt>
<pdfrwt beam="1">  1       21 0.13378704E-01 0.33046466E+03</pdfrwt>
<pdfrwt beam="2">  1       21 0.19772791E+00 0.33046466E+03</pdfrwt>
<totfact> 0.60983519E+03</totfact>
</mgrwt>
</event>
<event>
 4    0  0.1525083E-001  0.2695626E+03  0.7546771E-02  0.1101530E+00
         21   -1    0    0  502  501  0.00000000000E+00  0.00000000000E+00  0.95680078794E+03  0.95680078794E+03  0.00000000000E+00 0. -1.
         21   -1    0    0  503  502 -0.00000000000E+00 -0.00000000000E+00 -0.18875862379E+03  0.18875862379E+03  0.00000000000E+00 0. -1.
         25    1    1    2    0    0  0.20223402518E+03  0.12704477770E+03  0.85104719913E+03  0.89271793509E+03  0.12500000000E+03 0.  0.
         21    1    1    2  503  501 -0.20223402518E+03 -0.12704477770E+03 -0.83005034980E+02  0.25284147665E+03  0.00000000000E+00 0. -1.
<mgrwt>
<rscale>  3 0.26956257E+03</rscale>
<asrwt>0</asrwt>
<pdfrwt beam="1">  1       21 0.14720012E+00 0.26956257E+03</pdfrwt>
<pdfrwt beam="2">  1       21 0.29039789E-01 0.26956257E+03</pdfrwt>
<totfact> 0.33619219E+03</totfact>
</mgrwt>
</event>
<event>
 4    0  0.1525083E-001  0.3272193E+03  0.7546771E-02  0.1072374E+00
         21   -1    0    0  503  501  0.00000000000E+00  0.00000000000E+00  0.11101833053E+04  0.11101833053E+04  0.00000000000E+00 0.  1.
         21   -1    0    0  501  502 -0.00000000000E+00 -0.00000000000E+00 -0.24443296750E+03  0.24443296750E+03  0.00000000000E+00 0.  1.
         25    1    1    2    0    0 -0.81710925023E+02  0.29115427288E+03  0.97858868904E+03  0.10318470372E+04  0.12500000000E+03 0.  0.
         21    1    1    2  503  502  0.81710925023E+02 -0.29115427288E+03 -0.11283835130E+03  0.32276923554E+03  0.00000000000E+00 0.  1.
<mgrwt>
<rscale>  3 0.32721932E+03</rscale>
<asrwt>0</asrwt>
<pdfrwt beam="1">  1       21 0.17079743E+00 0.32721932E+03</pdfrwt>
<pdfrwt beam="2">  1       21 0.37605073E-01 0.32721932E+03</pdfrwt>
<totfact> 0.12907959E+03</totfact>
</mgrwt>
</event>
<event>
 4    0  0.1525083E-001  0.3020459E+03  0.7546771E-02  0.1084222E+00
         21   -1    0    0  502  501  0.00000000000E+00  0.00000000000E+00  0.92314941645E+03  0.92314941645E+03  0.00000000000E+00 0. -1.
         21   -1    0    0  503  502 -0.00000000000E+00 -0.00000000000E+00 -0.10156645705E+03  0.10156645705E+03  0.00000000000E+00 0. -1.
         25    1    1    2    0    0 -0.24804769907E+03 -0.11865518177E+03  0.25641099772E+03  0.39620488756E+03  0.12500000000E+03 0.  0.
         21    1    1    2  503  501  0.24804769907E+03  0.11865518177E+03  0.56517196168E+03  0.62851098594E+03  0.00000000000E+00 0. -1.
<mgrwt>
<rscale>  3 0.30204588E+03</rscale>
<asrwt>0</asrwt>
<pdfrwt beam="1">  1       21 0.14202298E+00 0.30204588E+03</pdfrwt>
<pdfrwt beam="2">  1       21 0.15625609E-01 0.30204588E+03</pdfrwt>
<totfact> 0.11767646E+04</totfact>
</mgrwt>
</event>
<event>
 4    0  0.1525083E-001  0.2957165E+03  0.7546771E-02  0.1087402E+00
         21   -1    0    0  503  501  0.00000000000E+00  0.00000000000E+00  0.22104946701E+03  0.22104946701E+03  0.00000000000E+00 0.  1.
         21   -1    0    0  501  502 -0.00000000000E+00 -0.00000000000E+00 -0.36207068094E+03  0.36207068094E+03  0.00000000000E+00 0.  1.
         25    1    1    2    0    0 -0.24050929171E+03  0.11823089098E+03 -0.48910122743E+02  0.29973398721E+03  0.12500000000E+03 0.  0.
         21    1    1    2  503  502  0.24050929171E+03 -0.11823089098E+03 -0.92111091186E+02  0.28338616074E+03  0.00000000000E+00 0.  1.
<mgrwt>
<rscale>  3 0.29571652E+03</rscale>
<asrwt>0</asrwt>
<pdfrwt beam="1">  1       21 0.34007611E-01 0.29571652E+03</pdfrwt>
<pdfrwt beam="2">  1       21 0.55703181E-01 0.29571652E+03</pdfrwt>
<totfact> 0.24077424E+04</totfact>
</mgrwt>
</event>
<event>
 4    0  0.1525083E-001  0.2455547E+03  0.7546771E-02  0.1116147E+00
         21   -1    0    0  502  501  0.00000000000E+00  0.00000000000E+00  0.33990741210E+02  0.33990741210E+02  0.00000000000E+00 0. -1.
         21   -1    0    0  503  502 -0.00000000000E+00 -0.00000000000E+00 -0.16122590302E+04  0.16122590302E+04  0.00000000000E+00 0. -1.
         25    1    1    2    0    0  0.31438662795E+02 -0.20900647155E+03 -0.10245250311E+04  0.10535409977E+04  0.12500000000E+03 0.  0.
         21    1    1    2  503  501 -0.31438662795E+02  0.20900647155E+03 -0.55374325790E+03  0.59270877363E+03  0.00000000000E+00 0. -1.
<mgrwt>
<rscale>  3 0.24555467E+03</rscale>
<asrwt>0</asrwt>
<pdfrwt beam="1">  1       21 0.52293454E-02 0.24555467E+03</pdfrwt>
<pdfrwt beam="2">  1       21 0.24803982E+00 0.24555467E+03</pdfrwt>
<totfact> 0.16310463E+04</totfact>
</mgrwt>
</event>
<event>
 4    0  0.1525083E-001  0.3643615E+03  0.7546771E-02  0.1056870E+00
         21   -1    0    0  502  501  0.00000000000E+00  0.00000000000E+00  0.69605313734E+03  0.69605313734E+03  0.00000000000E+00 0. -1.
         21   -1    0    0  503  502 -0.00000000000E+00 -0.00000000000E+00 -0.24104056051E+03  0.24104056051E+03  0.00000000000E+00 0. -1.
         25    1    1    2    0    0 -0.34220928595E+03 -0.52085413023E+01  0.46978906817E+03  0.59452593961E+03  0.12500000000E+03 0.  0.
         21    1    1    2  503  501  0.34220928595E+03  0.52085413023E+01 -0.14776491341E+02  0.34256775825E+03  0.00000000000E+00 0. -1.
<mgrwt>
<rscale>  3 0.36436153E+03</rscale>
<asrwt>0</asrwt>
<pdfrwt beam="1">  1       21 0.10708510E+00 0.36436153E+03</pdfrwt>
<pdfrwt beam="2">  1       21 0.37083163E-01 0.36436153E+03</pdfrwt>
<totfact> 0.44179445E+03</totfact>
</mgrwt>
</event>
<event>
 4    0  0.1525083E-001  0.2456892E+03  0.7546771E-02  0.1116060E+00
         21   -1    0    0  503  501  0.00000000000E+00  0.00000000000E+00  0.23520424250E+03  0.23520424250E+03  0.00000000000E+00 0. -1.
         21   -1    0    0  501  502 -0.00000000000E+00 -0.00000000000E+00 -0.22690576932E+03  0.22690576932E+03  0.00000000000E+00 0. -1.
         25    1    1    2    0    0  0.20741410642E+03  0.41443453410E+02 -0.28785517853E+02  0.24736971806E+03  0.12500000000E+03 0.  0.
         21    1    1    2  503  502 -0.20741410642E+03 -0.41443453410E+02  0.37083991029E+02  0.21474029376E+03  0.00000000000E+00 0. -1.
<mgrwt>
<rscale>  3 0.24568918E+03</rscale>
<asrwt>0</asrwt>
<pdfrwt beam="1">  1       21 0.36185268E-01 0.24568918E+03</pdfrwt>
<pdfrwt beam="2">  1       21 0.34908580E-01 0.24568918E+03</pdfrwt>
<totfact> 0.56936237E+04</totfact>
</mgrwt>
</event>
<event>
 4    0  0.1525083E-001  0.3457367E+03  0.7546771E-02  0.1064379E+00
         21   -1    0    0  502  501  0.00000000000E+00  0.00000000000E+00  0.13516701877E+03  0.13516701877E+03  0.00000000000E+00 0.  1.
         21   -1    0    0  503  502 -0.00000000000E+00 -0.00000000000E+00 -0.84136165122E+03  0.84136165122E+03  0.00000000000E+00 0.  1.
         25    1    1    2    0    0  0.32188045685E+03  0.17372890265E+02 -0.43215986412E+03  0.55344014489E+03  0.12500000000E+03 0.  0.
         21    1    1    2  503  501 -0.32188045685E+03 -0.17372890265E+02 -0.27403476834E+03  0.42308852510E+03  0.00000000000E+00 0.  1.
<mgrwt>
<rscale>  3 0.34573667E+03</rscale>
<asrwt>0</asrwt>
<pdfrwt beam="1">  1       21 0.20794926E-01 0.34573667E+03</pdfrwt>
<pdfrwt beam="2">  1       21 0.12944025E+00 0.34573667E+03</pdfrwt>
<totfact> 0.86026145E+03</totfact>
</mgrwt>
</event>
<event>
 4    0  0.1525083E-001  0.4466138E+03  0.7546771E-02  0.1028737E+00
         21   -1    0    0  503  501  0.00000000000E+00  0.00000000000E+00  0.23031816320E+03  0.23031816320E+03  0.00000000000E+00 0.  1.
         21   -1    0    0  501  502 -0.00000000000E+00 -0.00000000000E+00 -0.86630196561E+03  0.86630196561E+03  0.00000000000E+00 0.  1.
         25    1    1    2    0    0  0.42268403008E+03 -0.71952354246E+02 -0.43366711534E+03  0.62251995751E+03  0.12500000000E+03 0.  0.
         21    1    1    2  503  502 -0.42268403008E+03  0.71952354246E+02 -0.20231668706E+03  0.47410017130E+03  0.00000000000E+00 0.  1.
<mgrwt>
<rscale>  3 0.44661385E+03</rscale>
<asrwt>0</asrwt>
<pdfrwt beam="1">  1       21 0.35433564E-01 0.44661385E+03</pdfrwt>
<pdfrwt beam="2">  1       21 0.13327722E+00 0.44661385E+03</pdfrwt>
<totfact> 0.26956589E+03</totfact>
</mgrwt>
</event>
<event>
 4    0  0.1525083E-001  0.2408641E+03  0.7546771E-02  0.1119219E+00
         21   -1    0    0  502  501  0.00000000000E+00  0.00000000000E+00  0.52605325776E+02  0.52605325776E+02  0.00000000000E+00 0. -1.
         21   -1    0    0  503  502 -0.00000000000E+00 -0.00000000000E+00 -0.11254856108E+04  0.11254856108E+04  0.00000000000E+00 0. -1.
         25    1    1    2    0    0  0.85913577280E+02  0.18710789340E+03 -0.33886329727E+03  0.41574492272E+03  0.12500000000E+03 0.  0.
         21    1    1    2  503  501 -0.85913577280E+02 -0.18710789340E+03 -0.73401698780E+03  0.76234601390E+03  0.00000000000E+00 0. -1.
<mgrwt>
<rscale>  3 0.24086408E+03</rscale>
<asrwt>0</asrwt>
<pdfrwt beam="1">  1       21 0.80931278E-02 0.24086408E+03</pdfrwt>
<pdfrwt beam="2">  1       21 0.17315162E+00 0.24086408E+03</pdfrwt>
<totfact> 0.23127965E+04</totfact>
</mgrwt>
</event>
<event>
 4    0  0.1525083E-001  0.2627672E+03  0.7546771E-02  0.1105492E+00
         21   -1    0    0  503  501  0.00000000000E+00  0.00000000000E+00  0.33869822889E+03  0.33869822889E+03  0.00000000000E+00 0. -1.
         21   -1    0    0  501  502 -0.00000000000E+00 -0.00000000000E+00 -0.27883304196E+03  0.27883304196E+03  0.00000000000E+00 0. -1.
         25    1    1    2    0    0 -0.18538592041E+03  0.13803497927E+03  0.21470348616E+03  0.33932901727E+03  0.12500000000E+03 0.  0.
         21    1    1    2  503  502  0.18538592041E+03 -0.13803497927E+03 -0.15483829922E+03  0.27820225358E+03  0.00000000000E+00 0. -1.
<mgrwt>
<rscale>  3 0.26276719E+03</rscale>
<asrwt>0</asrwt>
<pdfrwt beam="1">  1       21 0.52107420E-01 0.26276719E+03</pdfrwt>
<pdfrwt beam="2">  1       21 0.42897391E-01 0.26276719E+03</pdfrwt>
<totfact> 0.17582817E+04</totfact>
</mgrwt>
</event>
<event>
 4    0  0.1525083E-001  0.2554660E+03  0.7546771E-02  0.1109898E+00
         21   -1    0    0  503  501  0.00000000000E+00  0.00000000000E+00  0.16417961704E+04  0.16417961704E+04  0.00000000000E+00 0. -1.
         21   -1    0    0  501  502 -0.00000000000E+00 -0.00000000000E+00 -0.34842946739E+02  0.34842946739E+02  0.00000000000E+00 0. -1.
         25    1    1    2    0    0 -0.19402562654E+03  0.10950764937E+03  0.87455118600E+03  0.91109969046E+03  0.12500000000E+03 0.  0.
         21    1    1    2  503  502  0.19402562654E+03 -0.10950764937E+03  0.73240203766E+03  0.76553942667E+03  0.00000000000E+00 0. -1.
<mgrwt>
<rscale>  3 0.25546598E+03</rscale>
<asrwt>0</asrwt>
<pdfrwt beam="1">  1       21 0.25258397E+00 0.25546598E+03</pdfrwt>
<pdfrwt beam="2">  1       21 0.53604546E-02 0.25546598E+03</pdfrwt>
<totfact> 0.14585822E+04</totfact>
</mgrwt>
</event>
<event>
 4    0  0.1525083E-001  0.2491637E+03  0.7546771E-02  0.1113834E+00
         21   -1    0    0  502  501  0.00000000000E+00  0.00000000000E+00  0.78855690454E+03  0.78855690454E+03  0.00000000000E+00 0.  1.
         21   -1    0    0  503  502 -0.00000000000E+00 -0.00000000000E+00 -0.79421664417E+02  0.79421664417E+02  0.00000000000E+00 0.  1.
         25    1    1    2    0    0  0.23953760501E+02  0.21420501919E+03  0.53752276901E+03  0.59246375424E+03  0.12500000000E+03 0.  0.
         21    1    1    2  503  501 -0.23953760501E+02 -0.21420501919E+03  0.17161247112E+03  0.27551481472E+03  0.00000000000E+00 0.  1.
<mgrwt>
<rscale>  3 0.24916375E+03</rscale>
<asrwt>0</asrwt>
<pdfrwt beam="1">  1       21 0.12131644E+00 0.24916375E+03</pdfrwt>
<pdfrwt beam="2">  1       21 0.12218718E-01 0.24916375E+03</pdfrwt>
<totfact> 0.28316101E+04</totfact>
</mgrwt>
</event>
<event>
 4    0  0.1525083E-001  0.2552530E+03  0.7546771E-02  0.1110029E+00
         21   -1    0    0  502  501  0.00000000000E+00  0.00000000000E+00  0.25957228754E+02  0.25957228754E+02  0.00000000000E+00 0. -1.
         21   -1    0    0  503  502 -0.00000000000E+00 -0.00000000000E+00 -0.28492415492E+04  0.28492415492E+04  0.00000000000E+00 0. -1.
         25    1    1    2    0    0 -0.34357013947E+02  0.21988332661E+03 -0.80055815038E+03  0.84026628748E+03  0.12500000000E+03 0.  0.
         21    1    1    2  503  501  0.34357013947E+02 -0.21988332661E+03 -0.20227261701E+04  0.20349324905E+04  0.00000000000E+00 0. -1.
<mgrwt>
<rscale>  3 0.25525298E+03</rscale>
<asrwt>0</asrwt>
<pdfrwt beam="1">  1       21 0.39934204E-02 0.25525298E+03</pdfrwt>
<pdfrwt beam="2">  1       21 0.43834479E+00 0.25525298E+03</pdfrwt>
<totfact> 0.17971035E+03</totfact>
</mgrwt>
</event>
<event>
 4    0  0.1525083E-001  0.2910817E+03  0.7546771E-02  0.1089786E+00
         21   -1    0    0  502  501  0.00000000000E+00  0.00000000000E+00  0.57869126285E+03  0.57869126285E+03  0.00000000000E+00 0. -1.
         21   -1    0    0  503  502 -0.00000000000E+00 -0.00000000000E+00 -0.24491700563E+03  0.24491700563E+03  0.00000000000E+00 0. -1.
         25    1    1    2    0    0  0.10976565219E+03  0.23886206045E+03  0.45019939358E+03  0.53610453860E+03  0.12500000000E+03 0.  0.
         21    1    1    2  503  501 -0.10976565219E+03 -0.23886206045E+03 -0.11642513635E+03  0.28750372988E+03  0.00000000000E+00 0. -1.
<mgrwt>
<rscale>  3 0.29108175E+03</rscale>
<asrwt>0</asrwt>
<pdfrwt beam="1">  1       21 0.89029425E-01 0.29108175E+03</pdfrwt>
<pdfrwt beam="2">  1       21 0.37679539E-01 0.29108175E+03</pdfrwt>
<totfact> 0.68862067E+03</totfact>
</mgrwt>
</event>
<event>
 4    0  0.1525083E-001  0.2813767E+03  0.7546771E-02  0.1094939E+00
         21   -1    0    0  502  501  0.00000000000E+00  0.00000000000E+00  0.12640414692E+04  0.12640414692E+04  0.00000000000E+00 0.  1.
         21   -1    0    0  503  502 -0.00000000000E+00 -0.00000000000E+00 -0.56300861572E+02  0.56300861572E+02  0.00000000000E+00 0.  1.
         25    1    1    2    0    0  0.12556459303E+03 -0.21858954217E+03  0.62576286231E+03  0.68611370400E+03  0.12500000000E+03 0.  0.
         21    1    1    2  503  501 -0.12556459303E+03  0.21858954217E+03  0.58197774529E+03  0.63422862674E+03  0.00000000000E+00 0.  1.
<mgrwt>
<rscale>  3 0.28137671E+03</rscale>
<asrwt>0</asrwt>
<pdfrwt beam="1">  1       21 0.19446790E+00 0.28137671E+03</pdfrwt>
<pdfrwt beam="2">  1       21 0.86616720E-02 0.28137671E+03</pdfrwt>
<totfact> 0.14356068E+04</totfact>
</mgrwt>
</event>
<event>
 4    0  0.1525083E-001  0.2379109E+03  0.7546771E-02  0.1121192E+00
         21   -1    0    0  503  501  0.00000000000E+00  0.00000000000E+00  0.63310742843E+03  0.63310742843E+03  0.00000000000E+00 0.  1.
         21   -1    0    0  501  502 -0.00000000000E+00 -0.00000000000E+00 -0.76973023218E+02  0.76973023218E+02  0.00000000000E+00 0.  1.
         25    1    1    2    0    0 -0.20221169485E+03  0.93298753435E+01  0.32609896030E+03  0.40366093199E+03  0.12500000000E+03 0.  0.
         21    1    1    2  503  502  0.20221169485E+03 -0.93298753435E+01  0.23003544492E+03  0.30641951966E+03  0.00000000000E+00 0.  1.
<mgrwt>
<rscale>  3 0.23791094E+03</rscale>
<asrwt>0</asrwt>
<pdfrwt beam="1">  1       21 0.97401139E-01 0.23791094E+03</pdfrwt>
<pdfrwt beam="2">  1       21 0.11842004E-01 0.23791094E+03</pdfrwt>
<totfact> 0.51378140E+04</totfact>
</mgrwt>
</event>
<event>
 4    0  0.1525083E-001  0.2890126E+03  0.7546771E-02  0.1090866E+00
         21   -1    0    0  503  501  0.00000000000E+00  0.00000000000E+00  0.29366719932E+02  0.29366719932E+02  0.00000000000E+00 0.  1.
         21   -1    0    0  501  502 -0.00000000000E+00 -0.00000000000E+00 -0.29811179087E+04  0.29811179087E+04  0.00000000000E+00 0.  1.
         25    1    1    2    0    0 -0.21117493564E+03  0.15267093126E+03 -0.98434334282E+03  0.10258947720E+04  0.12500000000E+03 0.  0.
         21    1    1    2  503  502  0.21117493564E+03 -0.15267093126E+03 -0.19674078460E+04  0.19845898566E+04  0.00000000000E+00 0.  1.
<mgrwt>
<rscale>  3 0.28901257E+03</rscale>
<asrwt>0</asrwt>
<pdfrwt beam="1">  1       21 0.45179570E-02 0.28901257E+03</pdfrwt>
<pdfrwt beam="2">  1       21 0.45863352E+00 0.28901257E+03</pdfrwt>
<totfact> 0.10290006E+03</totfact>
</mgrwt>
</event>
<event>
 4    0  0.1525083E-001  0.4341187E+03  0.7546771E-02  0.1032567E+00
         21   -1    0    0  503  501  0.00000000000E+00  0.00000000000E+00  0.25596562203E+03  0.25596562203E+03  0.00000000000E+00 0. -1.
         21   -1    0    0  501  502 -0.00000000000E+00 -0.00000000000E+00 -0.27139590137E+04  0.27139590137E+04  0.00000000000E+00 0.  1.
         25    1    1    2    0    0 -0.12879799436E+03 -0.39527856261E+03  0.41495806074E+02  0.43609742872E+03  0.12500000000E+03 0.  0.
         21    1    1    2  503  502  0.12879799436E+03  0.39527856261E+03 -0.24994891978E+04  0.25338272070E+04  0.00000000000E+00 0.  1.
<mgrwt>
<rscale>  3 0.43411872E+03</rscale>
<asrwt>0</asrwt>
<pdfrwt beam="1">  1       21 0.39379327E-01 0.43411872E+03</pdfrwt>
<pdfrwt beam="2">  1       21 0.41753215E+00 0.43411872E+03</pdfrwt>
<totfact> 0.31248244E+01</totfact>
</mgrwt>
</event>
<event>
 4    0  0.1525083E-001  0.2429118E+03  0.7546771E-02  0.1117868E+00
         21   -1    0    0  502  501  0.00000000000E+00  0.00000000000E+00  0.63826590412E+02  0.63826590412E+02  0.00000000000E+00 0.  1.
         21   -1    0    0  503  502 -0.00000000000E+00 -0.00000000000E+00 -0.94650853867E+03  0.94650853867E+03  0.00000000000E+00 0.  1.
         25    1    1    2    0    0 -0.14139198335E+03  0.15293601821E+03 -0.26985548499E+03  0.36308139776E+03  0.12500000000E+03 0.  0.
         21    1    1    2  503  501  0.14139198335E+03 -0.15293601821E+03 -0.61282646327E+03  0.64725373132E+03  0.00000000000E+00 0.  1.
<mgrwt>
<rscale>  3 0.24291175E+03</rscale>
<asrwt>0</asrwt>
<pdfrwt beam="1">  1       21 0.98194765E-02 0.24291175E+03</pdfrwt>
<pdfrwt beam="2">  1       21 0.14561668E+00 0.24291175E+03</pdfrwt>
<totfact> 0.26285305E+04</totfact>
</mgrwt>
</event>
<event>
 4    0  0.1525083E-001  0.2403114E+03  0.7546771E-02  0.1119586E+00
         21   -1    0    0  502  501  0.00000000000E+00  0.00000000000E+00  0.16867232173E+02  0.16867232173E+02  0.00000000000E+00 0.  1.
         21   -1    0    0  503  502 -0.00000000000E+00 -0.00000000000E+00 -0.29458492965E+04  0.29458492965E+04  0.00000000000E+00 0.  1.
         25    1    1    2    0    0 -0.19349602049E+03  0.68438871848E+02 -0.15288692576E+04  0.15476403962E+04  0.12500000000E+03 0.  0.
         21    1    1    2  503  501  0.19349602049E+03 -0.68438871848E+02 -0.14001128067E+04  0.14150761325E+04  0.00000000000E+00 0.  1.
<mgrwt>
<rscale>  3 0.24031144E+03</rscale>
<asrwt>0</asrwt>
<pdfrwt beam="1">  1       21 0.25949584E-02 0.24031144E+03</pdfrwt>
<pdfrwt beam="2">  1       21 0.45320764E+00 0.24031144E+03</pdfrwt>
<totfact> 0.29902298E+03</totfact>
</mgrwt>
</event>
<event>
 4    0  0.1525083E-001  0.3280312E+03  0.7546771E-02  0.1072011E+00
         21   -1    0    0  503  501  0.00000000000E+00  0.00000000000E+00  0.49090350349E+03  0.49090350349E+03  0.00000000000E+00 0.  1.
         21   -1    0    0  501  502 -0.00000000000E+00 -0.00000000000E+00 -0.75025434486E+03  0.75025434486E+03  0.00000000000E+00 0. -1.
         25    1    1    2    0    0  0.49238918713E+02 -0.29925739608E+03  0.39886745594E+03  0.51642977028E+03  0.12500000000E+03 0.  0.
         21    1    1    2  503  502 -0.49238918713E+02  0.29925739608E+03 -0.65821829731E+03  0.72472807807E+03  0.00000000000E+00 0. -1.
<mgrwt>
<rscale>  3 0.32803119E+03</rscale>
<asrwt>0</asrwt>
<pdfrwt beam="1">  1       21 0.75523616E-01 0.32803119E+03</pdfrwt>
<pdfrwt beam="2">  1       21 0.11542374E+00 0.32803119E+03</pdfrwt>
<totfact> 0.81702745E+02</totfact>
</mgrwt>
</event>
