<event>
 5    0  0.1856407E+000  0.2396532E+03  0.7546771E-02  0.1120024E+00
         21   -1    0    0  502  501  0.00000000000E+00  0.00000000000E+00  0.36145752911E+03  0.36145752911E+03  0.00000000000E+00 0. -1.
         21   -1    0    0  503  502 -0.00000000000E+00 -0.00000000000E+00 -0.65356668441E+03  0.65356668441E+03  0.00000000000E+00 0.  1.
         25    1    1    2    0    0  0.18992871777E+03 -0.75734510798E+02  0.30226588876E+03  0.38574382881E+03  0.12500000000E+03 0.  0.
         21    1    1    2  503  504 -0.21599366019E+02 -0.97405728206E+00 -0.57549564114E+02  0.61477099230E+02  0.00000000000E+00 0. -1.
         21    1    1    2  504  501 -0.16832935175E+03  0.76708568080E+02 -0.53682547995E+03  0.56780328548E+03  0.00000000000E+00 0.  1.
<mgrwt>
<rscale>  4 0.23965315E+03</rscale>
<asrwt>0</asrwt>
<pdfrwt beam="1">  1       21 0.55608850E-01 0.23965315E+03</pdfrwt>
<pdfrwt beam="2">  1       21 0.10054872E+00 0.23965315E+03</pdfrwt>
<totfact> 0.23764107E+03</totfact>
</mgrwt>
</event>
<event>
 5    0  0.1856407E+000  0.3278599E+03  0.7546771E-02  0.1072088E+00
         21   -1    0    0  502  501  0.00000000000E+00  0.00000000000E+00  0.24773119640E+03  0.24773119640E+03  0.00000000000E+00 0.  1.
         21   -1    0    0  503  502 -0.00000000000E+00 -0.00000000000E+00 -0.68303011313E+03  0.68303011313E+03  0.00000000000E+00 0. -1.
         25    1    1    2    0    0  0.26018729110E+03 -0.15546610033E+03  0.72930146555E+02  0.33587340037E+03  0.12500000000E+03 0.  0.
         21    1    1    2  503  504 -0.58533183415E+02  0.64629877943E+02 -0.16379924186E+03  0.18556224378E+03  0.00000000000E+00 0. -1.
         21    1    1    2  504  501 -0.20165410768E+03  0.90836222386E+02 -0.34442982142E+03  0.40932566537E+03  0.00000000000E+00 0. -1.
<mgrwt>
<rscale>  4 0.32785993E+03</rscale>
<asrwt>0</asrwt>
<pdfrwt beam="1">  1       21 0.38112492E-01 0.32785993E+03</pdfrwt>
<pdfrwt beam="2">  1       21 0.10508155E+00 0.32785993E+03</pdfrwt>
<totfact> 0.44495653E+03</totfact>
</mgrwt>
</event>
<event>
 5    0  0.1856407E+000  0.2696829E+03  0.7546771E-02  0.1101461E+00
         21   -1    0    0  502  501  0.00000000000E+00  0.00000000000E+00  0.30690261975E+03  0.30690261975E+03  0.00000000000E+00 0. -1.
         21   -1    0    0  503  502 -0.00000000000E+00 -0.00000000000E+00 -0.23657954925E+03  0.23657954925E+03  0.00000000000E+00 0. -1.
         25    1    1    2    0    0 -0.95204623996E+02  0.21918016805E+03 -0.46748127363E+02  0.27370468376E+03  0.12500000000E+03 0.  0.
         21    1    1    2  503  504  0.63324969460E+02 -0.16522885794E+03  0.65718158730E+02  0.18875779094E+03  0.00000000000E+00 0. -1.
         21    1    1    2  504  501  0.31879654536E+02 -0.53951310116E+02  0.51353039141E+02  0.81019694307E+02  0.00000000000E+00 0. -1.
<mgrwt>
<rscale>  4 0.26968290E+03</rscale>
<asrwt>0</asrwt>
<pdfrwt beam="1">  1       21 0.47215788E-01 0.26968290E+03</pdfrwt>
<pdfrwt beam="2">  1       21 0.36396854E-01 0.26968290E+03</pdfrwt>
<totfact> 0.30110289E+04</totfact>
</mgrwt>
</event>
<event>
 5    0  0.1974399E+000  0.2385782E+03  0.7546771E-02  0.1120744E+00
         21   -1    0    0  502  501  0.00000000000E+00  0.00000000000E+00  0.33456186697E+03  0.33456186697E+03  0.00000000000E+00 0.  1.
         21   -1    0    0  503  502 -0.00000000000E+00 -0.00000000000E+00 -0.37498433583E+03  0.37498433583E+03  0.00000000000E+00 0.  1.
         25    1    1    2    0    0  0.36384282208E+02  0.19992683793E+03  0.25512820953E+03  0.34929924107E+03  0.12500000000E+03 0.  0.
         21    1    1    2  503  504  0.46683637064E+01 -0.40259115399E+02 -0.47969683782E+02  0.62798730517E+02  0.00000000000E+00 0. -1.
         21    1    1    2  504  501 -0.41052645915E+02 -0.15966772254E+03 -0.24758099461E+03  0.29744823121E+03  0.00000000000E+00 0.  1.
<mgrwt>
<rscale>  4 0.23857820E+03</rscale>
<asrwt>0</asrwt>
<pdfrwt beam="1">  1       21 0.51471057E-01 0.23857820E+03</pdfrwt>
<pdfrwt beam="2">  1       21 0.57689898E-01 0.23857820E+03</pdfrwt>
<totfact> 0.98143478E+03</totfact>
</mgrwt>
</event>
<event>
 5    0  0.1856407E+000  0.2402527E+03  0.7546771E-02  0.1119625E+00
         21   -1    0    0  502  501  0.00000000000E+00  0.00000000000E+00  0.10084211670E+03  0.10084211670E+03  0.00000000000E+00 0. -1.
         21   -1    0    0  503  502 -0.00000000000E+00 -0.00000000000E+00 -0.62324765256E+03  0.62324765256E+03  0.00000000000E+00 0. -1.
         25    1    1    2    0    0 -0.58676220499E+02  0.19660488323E+03 -0.13730116023E+03  0.27671824581E+03  0.12500000000E+03 0.  0.
         21    1    1    2  503  504  0.65731576092E+02 -0.55376372468E+02 -0.15724522695E+03  0.17920168560E+03  0.00000000000E+00 0. -1.
         21    1    1    2  504  501 -0.70553555930E+01 -0.14122851076E+03 -0.22785914868E+03  0.26816983785E+03  0.00000000000E+00 0. -1.
<mgrwt>
<rscale>  4 0.24025274E+03</rscale>
<asrwt>0</asrwt>
<pdfrwt beam="1">  1       21 0.15514172E-01 0.24025274E+03</pdfrwt>
<pdfrwt beam="2">  1       21 0.95884253E-01 0.24025274E+03</pdfrwt>
<totfact> 0.32620745E+04</totfact>
</mgrwt>
</event>
<event>
 5    0  0.1856407E+000  0.2778008E+03  0.7546771E-02  0.1096896E+00
         21   -1    0    0  502  501  0.00000000000E+00  0.00000000000E+00  0.14189973613E+03  0.14189973613E+03  0.00000000000E+00 0.  1.
         21   -1    0    0  503  502 -0.00000000000E+00 -0.00000000000E+00 -0.54980420326E+03  0.54980420326E+03  0.00000000000E+00 0. -1.
         25    1    1    2    0    0 -0.24014456534E+03  0.62280767722E+02 -0.26730394956E+03  0.38551875148E+03  0.12500000000E+03 0.  0.
         21    1    1    2  503  504  0.98929529607E+02  0.23283111635E+02 -0.83308181773E+02  0.13141312060E+03  0.00000000000E+00 0. -1.
         21    1    1    2  504  501  0.14121503574E+03 -0.85563879357E+02 -0.57292335801E+02  0.17477206731E+03  0.00000000000E+00 0. -1.
<mgrwt>
<rscale>  4 0.27780084E+03</rscale>
<asrwt>0</asrwt>
<pdfrwt beam="1">  1       21 0.21830729E-01 0.27780084E+03</pdfrwt>
<pdfrwt beam="2">  1       21 0.84585262E-01 0.27780084E+03</pdfrwt>
<totfact> 0.22722013E+04</totfact>
</mgrwt>
</event>
<event>
 5    0  0.2374117E+000  0.2348734E+03  0.7546771E-02  0.1123256E+00
         21   -1    0    0  502  501  0.00000000000E+00  0.00000000000E+00  0.97385411765E+03  0.97385411765E+03  0.00000000000E+00 0.  1.
         21   -1    0    0  503  502 -0.00000000000E+00 -0.00000000000E+00 -0.13034977343E+03  0.13034977343E+03  0.00000000000E+00 0.  1.
         25    1    1    2    0    0  0.72572615358E+02 -0.18743510751E+03  0.86105067173E+03  0.89299046094E+03  0.12500000000E+03 0.  0.
         21    1    1    2  503  504 -0.16964560459E+02  0.11449652278E+02  0.12848191963E+02  0.24165406795E+02  0.00000000000E+00 0.  1.
         21    1    1    2  504  501 -0.55608054898E+02  0.17598545523E+03 -0.30394519477E+02  0.18704802335E+03  0.00000000000E+00 0.  1.
<mgrwt>
<rscale>  4 0.23487336E+03</rscale>
<asrwt>0</asrwt>
<pdfrwt beam="1">  1       21 0.14982371E+00 0.23487336E+03</pdfrwt>
<pdfrwt beam="2">  1       21 0.20053812E-01 0.23487336E+03</pdfrwt>
<totfact> 0.66707858E+03</totfact>
</mgrwt>
</event>
<event>
 5    0  0.2950971E+000  0.2443816E+03  0.7546771E-02  0.1116908E+00
         21   -1    0    0  502  501  0.00000000000E+00  0.00000000000E+00  0.22547442126E+03  0.22547442126E+03  0.00000000000E+00 0.  1.
         21   -1    0    0  503  502 -0.00000000000E+00 -0.00000000000E+00 -0.30048648898E+03  0.30048648898E+03  0.00000000000E+00 0. -1.
         25    1    1    2    0    0 -0.81372569763E+02 -0.19358682183E+03  0.82688884630E+02  0.25799186874E+03  0.12500000000E+03 0.  0.
         21    1    1    2  503  504  0.60699251532E+01  0.20782056339E+02  0.83304433106E+00  0.21666375329E+02  0.00000000000E+00 0. -1.
         21    1    1    2  504  501  0.75302644609E+02  0.17280476549E+03 -0.15853399667E+03  0.24630266617E+03  0.00000000000E+00 0. -1.
<mgrwt>
<rscale>  4 0.24438157E+03</rscale>
<asrwt>0</asrwt>
<pdfrwt beam="1">  1       21 0.34688372E-01 0.24438157E+03</pdfrwt>
<pdfrwt beam="2">  1       21 0.46228691E-01 0.24438157E+03</pdfrwt>
<totfact> 0.35014242E+04</totfact>
</mgrwt>
</event>
<event>
 5    0  0.1856407E+000  0.4673238E+03  0.7546771E-02  0.1023957E+00
         21   -1    0    0  502  501  0.00000000000E+00  0.00000000000E+00  0.30959428762E+03  0.30959428762E+03  0.00000000000E+00 0. -1.
         21   -1    0    0  503  502 -0.00000000000E+00 -0.00000000000E+00 -0.10047705022E+04  0.10047705022E+04  0.00000000000E+00 0.  1.
         25    1    1    2    0    0  0.18893954802E+03 -0.38845510536E+03  0.31060895027E+02  0.45076080230E+03  0.12500000000E+03 0.  0.
         21    1    1    2  503  504 -0.11408896898E+03  0.18625515588E+03 -0.20508344150E+03  0.29961057043E+03  0.00000000000E+00 0. -1.
         21    1    1    2  504  501 -0.74850579036E+02  0.20219994948E+03 -0.52115366812E+03  0.56399341711E+03  0.00000000000E+00 0.  1.
<mgrwt>
<rscale>  4 0.46285138E+03</rscale>
<asrwt>0</asrwt>
<pdfrwt beam="1">  1       21 0.47629889E-01 0.46732377E+03</pdfrwt>
<pdfrwt beam="2">  1       21 0.15458008E+00 0.46732377E+03</pdfrwt>
<totfact> 0.97436019E+02</totfact>
</mgrwt>
</event>
<event>
 5    0  0.1929996E+000  0.2712241E+03  0.7546771E-02  0.1100581E+00
         21   -1    0    0  502  501  0.00000000000E+00  0.00000000000E+00  0.46293356988E+03  0.46293356988E+03  0.00000000000E+00 0. -1.
         21   -1    0    0  503  502 -0.00000000000E+00 -0.00000000000E+00 -0.21765044621E+03  0.21765044621E+03  0.00000000000E+00 0.  1.
         25    1    1    2    0    0 -0.24021229272E+03 -0.81729925485E+00  0.28640109823E+03  0.39414870623E+03  0.12500000000E+03 0.  0.
         21    1    1    2  503  504  0.24138881535E+03  0.24395893411E+02 -0.42489813784E+01  0.24265566887E+03  0.00000000000E+00 0.  1.
         21    1    1    2  504  501 -0.11765226295E+01 -0.23578594156E+02 -0.36868993185E+02  0.43779641003E+02  0.00000000000E+00 0. -1.
<mgrwt>
<rscale>  4 0.27122406E+03</rscale>
<asrwt>0</asrwt>
<pdfrwt beam="1">  1       21 0.71220549E-01 0.27122406E+03</pdfrwt>
<pdfrwt beam="2">  1       21 0.33484684E-01 0.27122406E+03</pdfrwt>
<totfact> 0.14663518E+04</totfact>
</mgrwt>
</event>
<event>
 5    0  0.1856407E+000  0.2440978E+03  0.7546771E-02  0.1117093E+00
         21   -1    0    0  502  501  0.00000000000E+00  0.00000000000E+00  0.78563192808E+03  0.78563192808E+03  0.00000000000E+00 0.  1.
         21   -1    0    0  503  502 -0.00000000000E+00 -0.00000000000E+00 -0.27919341987E+03  0.27919341987E+03  0.00000000000E+00 0.  1.
         25    1    1    2    0    0 -0.19007615061E+03  0.88486217754E+02  0.71925297202E+03  0.75954498979E+03  0.12500000000E+03 0.  0.
         21    1    1    2  503  504  0.70655474392E+02 -0.38732564756E+01 -0.88054594488E+02  0.11296375431E+03  0.00000000000E+00 0. -1.
         21    1    1    2  504  501  0.11942067621E+03 -0.84612961279E+02 -0.12475986932E+03  0.19231660385E+03  0.00000000000E+00 0.  1.
<mgrwt>
<rscale>  4 0.24409784E+03</rscale>
<asrwt>0</asrwt>
<pdfrwt beam="1">  1       21 0.12086645E+00 0.24409784E+03</pdfrwt>
<pdfrwt beam="2">  1       21 0.42952834E-01 0.24409784E+03</pdfrwt>
<totfact> 0.25935311E+03</totfact>
</mgrwt>
</event>
