<event>
 5    0  0.1283376E+001  0.2374379E+03  0.7546771E-02  0.1121512E+00
         21   -1    0    0  503  501  0.00000000000E+00  0.00000000000E+00  0.33174004542E+03  0.33174004542E+03  0.00000000000E+00 0.  1.
         21   -1    0    0  504  502 -0.00000000000E+00 -0.00000000000E+00 -0.21880169759E+03  0.21880169759E+03  0.00000000000E+00 0.  1.
         25    1    1    2    0    0 -0.16885674905E+03  0.11593558999E+03  0.18531600273E+03  0.30318424035E+03  0.12500000000E+03 0.  0.
         21    1    1    2  503  502  0.17555990358E+03 -0.89658127875E+02 -0.33498991467E+02  0.19995510013E+03  0.00000000000E+00 0.  1.
         21    1    1    2  504  501 -0.67031545275E+01 -0.26277462113E+02 -0.38878663428E+02  0.47402402530E+02  0.00000000000E+00 0. -1.
<mgrwt>
<rscale>  4 0.23743786E+03</rscale>
<asrwt>0</asrwt>
<pdfrwt beam="1">  1       21 0.51036930E-01 0.23743786E+03</pdfrwt>
<pdfrwt beam="2">  1       21 0.33661800E-01 0.23743786E+03</pdfrwt>
<totfact> 0.30327529E+04</totfact>
</mgrwt>
</event>
<event>
 5    0  0.1283376E+001  0.2451954E+03  0.7546771E-02  0.1116379E+00
         21   -1    0    0  503  501  0.00000000000E+00  0.00000000000E+00  0.38375322857E+03  0.38375322857E+03  0.00000000000E+00 0.  1.
         21   -1    0    0  504  502 -0.00000000000E+00 -0.00000000000E+00 -0.15922608180E+03  0.15922608180E+03  0.00000000000E+00 0.  1.
         25    1    1    2    0    0  0.19008333655E+03 -0.10676684580E+03  0.66783874798E+02  0.26003061383E+03  0.12500000000E+03 0.  0.
         21    1    1    2  503  502 -0.16294643191E+03  0.12182127133E+03  0.14236900034E+03  0.24831611724E+03  0.00000000000E+00 0.  1.
         21    1    1    2  504  501 -0.27136904638E+02 -0.15054425534E+02  0.15374271631E+02  0.34632579310E+02  0.00000000000E+00 0. -1.
<mgrwt>
<rscale>  4 0.24519539E+03</rscale>
<asrwt>0</asrwt>
<pdfrwt beam="1">  1       21 0.59038958E-01 0.24519539E+03</pdfrwt>
<pdfrwt beam="2">  1       21 0.24496320E-01 0.24519539E+03</pdfrwt>
<totfact> 0.41203170E+04</totfact>
</mgrwt>
</event>
<event>
 5    0  0.1283376E+001  0.2410209E+03  0.7546771E-02  0.1119115E+00
         21   -1    0    0  503  501  0.00000000000E+00  0.00000000000E+00  0.11323478326E+03  0.11323478326E+03  0.00000000000E+00 0.  1.
         21   -1    0    0  504  502 -0.00000000000E+00 -0.00000000000E+00 -0.10288919845E+04  0.10288919845E+04  0.00000000000E+00 0.  1.
         25    1    1    2    0    0  0.84056513786E+02  0.18327815681E+03 -0.67030168532E+02  0.24652469200E+03  0.12500000000E+03 0.  0.
         21    1    1    2  503  502 -0.12788904750E+02  0.27313809290E+02 -0.32941954304E+03  0.33079727266E+03  0.00000000000E+00 0.  1.
         21    1    1    2  504  501 -0.71267609036E+02 -0.21059196610E+03 -0.51920748971E+03  0.56480480314E+03  0.00000000000E+00 0.  1.
<mgrwt>
<rscale>  4 0.24102091E+03</rscale>
<asrwt>0</asrwt>
<pdfrwt beam="1">  1       21 0.17420737E-01 0.24102091E+03</pdfrwt>
<pdfrwt beam="2">  1       21 0.15829107E+00 0.24102091E+03</pdfrwt>
<totfact> 0.74549086E+03</totfact>
</mgrwt>
</event>
<event>
 5    0  0.1283376E+001  0.3217253E+03  0.7546771E-02  0.1074858E+00
         21   -1    0    0  503  501  0.00000000000E+00  0.00000000000E+00  0.19489223798E+04  0.19489223798E+04  0.00000000000E+00 0.  1.
         21   -1    0    0  504  502 -0.00000000000E+00 -0.00000000000E+00 -0.19348456883E+03  0.19348456883E+03  0.00000000000E+00 0.  1.
         25    1    1    2    0    0  0.20680310251E+03  0.21682054032E+03  0.17384216914E+04  0.17684777768E+04  0.12500000000E+03 0.  0.
         21    1    1    2  503  502 -0.23639997927E+02 -0.10645812972E+02 -0.78031514243E+02  0.82225908635E+02  0.00000000000E+00 0.  1.
         21    1    1    2  504  501 -0.18316310458E+03 -0.20617472735E+03  0.95047633851E+02  0.29170326323E+03  0.00000000000E+00 0.  1.
<mgrwt>
<rscale>  4 0.32172535E+03</rscale>
<asrwt>0</asrwt>
<pdfrwt beam="1">  1       21 0.29983420E+00 0.32172535E+03</pdfrwt>
<pdfrwt beam="2">  1       21 0.29766858E-01 0.32172535E+03</pdfrwt>
<totfact> 0.32003027E+02</totfact>
</mgrwt>
</event>
<event>
 5    0  0.1283376E+001  0.3259005E+03  0.7546771E-02  0.1072965E+00
         21   -1    0    0  504  501  0.00000000000E+00  0.00000000000E+00  0.73717353550E+03  0.73717353550E+03  0.00000000000E+00 0.  1.
         21   -1    0    0  501  502 -0.00000000000E+00 -0.00000000000E+00 -0.35065178650E+03  0.35065178650E+03  0.00000000000E+00 0.  1.
         25    1    1    2    0    0 -0.10255656314E+03  0.28296338768E+03  0.61841501585E+03  0.69903380407E+03  0.12500000000E+03 0.  0.
         21    1    1    2  503  502 -0.14019644482E+02 -0.23654316326E+02 -0.16105376737E+02  0.31866287391E+02  0.00000000000E+00 0. -1.
         21    1    1    2  504  503  0.11657620763E+03 -0.25930907135E+03 -0.21578789011E+03  0.35692523053E+03  0.00000000000E+00 0.  1.
<mgrwt>
<rscale>  4 0.32590049E+03</rscale>
<asrwt>0</asrwt>
<pdfrwt beam="1">  1       21 0.11341131E+00 0.32590049E+03</pdfrwt>
<pdfrwt beam="2">  1       21 0.53946429E-01 0.32590049E+03</pdfrwt>
<totfact> 0.17910040E+03</totfact>
</mgrwt>
</event>
<event>
 5    0  0.1283376E+001  0.3237690E+03  0.7546771E-02  0.1073928E+00
         21   -1    0    0  503  501  0.00000000000E+00  0.00000000000E+00  0.49782027379E+03  0.49782027379E+03  0.00000000000E+00 0.  1.
         21   -1    0    0  504  502 -0.00000000000E+00 -0.00000000000E+00 -0.28049722199E+03  0.28049722199E+03  0.00000000000E+00 0.  1.
         25    1    1    2    0    0  0.14230596343E+02 -0.29351856312E+03  0.26565686900E+03  0.41539647184E+03  0.12500000000E+03 0.  0.
         21    1    1    2  503  502 -0.57837714606E+02  0.30617756926E+03 -0.27024976960E+02  0.31276229716E+03  0.00000000000E+00 0.  1.
         21    1    1    2  504  501  0.43607118263E+02 -0.12659006133E+02 -0.21308840245E+02  0.50158726779E+02  0.00000000000E+00 0. -1.
<mgrwt>
<rscale>  4 0.32376898E+03</rscale>
<asrwt>0</asrwt>
<pdfrwt beam="1">  1       21 0.76587734E-01 0.32376898E+03</pdfrwt>
<pdfrwt beam="2">  1       21 0.43153419E-01 0.32376898E+03</pdfrwt>
<totfact> 0.72679916E+03</totfact>
</mgrwt>
</event>
<event>
 5    0  0.1283376E+001  0.2721923E+03  0.7546771E-02  0.1100031E+00
         21   -1    0    0  503  501  0.00000000000E+00  0.00000000000E+00  0.23166493289E+04  0.23166493289E+04  0.00000000000E+00 0. -1.
         21   -1    0    0  504  502 -0.00000000000E+00 -0.00000000000E+00 -0.65515645004E+02  0.65515645004E+02  0.00000000000E+00 0. -1.
         25    1    1    2    0    0  0.19652267213E+03  0.17289021918E+03  0.17554699214E+04  0.17792728384E+04  0.12500000000E+03 0.  0.
         21    1    1    2  503  502 -0.20699484769E+03 -0.42487339361E+02  0.32901571163E+03  0.39102861721E+03  0.00000000000E+00 0. -1.
         21    1    1    2  504  501  0.10472175558E+02 -0.13040287981E+03  0.16664805086E+03  0.21186351829E+03  0.00000000000E+00 0. -1.
<mgrwt>
<rscale>  4 0.27219232E+03</rscale>
<asrwt>0</asrwt>
<pdfrwt beam="1">  1       21 0.35640753E+00 0.27219232E+03</pdfrwt>
<pdfrwt beam="2">  1       21 0.10079332E-01 0.27219232E+03</pdfrwt>
<totfact> 0.11642484E+03</totfact>
</mgrwt>
</event>
<event>
 5    0  0.1283376E+001  0.2951224E+03  0.7546771E-02  0.1087705E+00
         21   -1    0    0  503  501  0.00000000000E+00  0.00000000000E+00  0.82598240095E+03  0.82598240095E+03  0.00000000000E+00 0. -1.
         21   -1    0    0  504  502 -0.00000000000E+00 -0.00000000000E+00 -0.16238789143E+03  0.16238789143E+03  0.00000000000E+00 0. -1.
         25    1    1    2    0    0  0.25647292094E+03  0.19968403251E+02  0.45224122182E+02  0.28956401284E+03  0.12500000000E+03 0.  0.
         21    1    1    2  503  502  0.13235226435E+02 -0.15501114842E+02 -0.37488212886E+01  0.20724609555E+02  0.00000000000E+00 0. -1.
         21    1    1    2  504  501 -0.26970814738E+03 -0.44672884091E+01  0.62211920862E+03  0.67808166998E+03  0.00000000000E+00 0. -1.
<mgrwt>
<rscale>  4 0.29512242E+03</rscale>
<asrwt>0</asrwt>
<pdfrwt beam="1">  1       21 0.12707421E+00 0.29512242E+03</pdfrwt>
<pdfrwt beam="2">  1       21 0.24982753E-01 0.29512242E+03</pdfrwt>
<totfact> 0.65003652E+03</totfact>
</mgrwt>
</event>
<event>
 5    0  0.1283376E+001  0.2807733E+03  0.7546771E-02  0.1095267E+00
         21   -1    0    0  503  501  0.00000000000E+00  0.00000000000E+00  0.18396060506E+04  0.18396060506E+04  0.00000000000E+00 0.  1.
         21   -1    0    0  504  502 -0.00000000000E+00 -0.00000000000E+00 -0.78476789876E+02  0.78476789876E+02  0.00000000000E+00 0. -1.
         25    1    1    2    0    0  0.86671981081E+02 -0.23600131741E+03  0.15460175232E+04  0.15713064107E+04  0.12500000000E+03 0.  0.
         21    1    1    2  503  502 -0.10288534030E+03  0.14536729130E+03  0.16038384473E+03  0.23966647717E+03  0.00000000000E+00 0. -1.
         21    1    1    2  504  501  0.16213359221E+02  0.90634026113E+02  0.54727892792E+02  0.10710995265E+03  0.00000000000E+00 0. -1.
<mgrwt>
<rscale>  4 0.28077331E+03</rscale>
<asrwt>0</asrwt>
<pdfrwt beam="1">  1       21 0.28301628E+00 0.28077331E+03</pdfrwt>
<pdfrwt beam="2">  1       21 0.12073354E-01 0.28077331E+03</pdfrwt>
<totfact> 0.22718694E+03</totfact>
</mgrwt>
</event>
<event>
 5    0  0.1283376E+001  0.2709657E+03  0.7546771E-02  0.1100728E+00
         21   -1    0    0  504  501  0.00000000000E+00  0.00000000000E+00  0.58175105604E+03  0.58175105604E+03  0.00000000000E+00 0.  1.
         21   -1    0    0  501  502 -0.00000000000E+00 -0.00000000000E+00 -0.46175846543E+03  0.46175846543E+03  0.00000000000E+00 0. -1.
         25    1    1    2    0    0  0.18223820581E+03  0.19312274290E+03  0.25293113461E+03  0.38743556411E+03  0.12500000000E+03 0.  0.
         21    1    1    2  503  502  0.43867303741E+01 -0.67914016714E+02 -0.34225714205E+03  0.34895774580E+03  0.00000000000E+00 0. -1.
         21    1    1    2  504  503 -0.18662493618E+03 -0.12520872619E+03  0.20931859804E+03  0.30711621156E+03  0.00000000000E+00 0.  1.
<mgrwt>
<rscale>  4 0.27096573E+03</rscale>
<asrwt>0</asrwt>
<pdfrwt beam="1">  1       21 0.89500163E-01 0.27096573E+03</pdfrwt>
<pdfrwt beam="2">  1       21 0.71039763E-01 0.27096573E+03</pdfrwt>
<totfact> 0.17944333E+03</totfact>
</mgrwt>
</event>
<event>
 5    0  0.1283376E+001  0.2176028E+03  0.7546771E-02  0.1135683E+00
         21   -1    0    0  503  501  0.00000000000E+00  0.00000000000E+00  0.21585607167E+04  0.21585607167E+04  0.00000000000E+00 0. -1.
         21   -1    0    0  504  502 -0.00000000000E+00 -0.00000000000E+00 -0.72279511218E+02  0.72279511218E+02  0.00000000000E+00 0. -1.
         25    1    1    2    0    0  0.37911454868E+02 -0.20010429021E+03  0.64976849183E+03  0.69231719490E+03  0.12500000000E+03 0.  0.
         21    1    1    2  503  502  0.12955007634E+02  0.35452183699E+02 -0.38242966509E+02  0.53732802265E+02  0.00000000000E+00 0. -1.
         21    1    1    2  504  501 -0.50866462503E+02  0.16465210651E+03  0.14747556801E+04  0.14847902307E+04  0.00000000000E+00 0. -1.
<mgrwt>
<rscale>  4 0.21760277E+03</rscale>
<asrwt>0</asrwt>
<pdfrwt beam="1">  1       21 0.33208622E+00 0.21760277E+03</pdfrwt>
<pdfrwt beam="2">  1       21 0.11119926E-01 0.21760277E+03</pdfrwt>
<totfact> 0.14490596E+03</totfact>
</mgrwt>
</event>
<event>
 5    0  0.1283376E+001  0.2330285E+03  0.7546771E-02  0.1124526E+00
         21   -1    0    0  503  501  0.00000000000E+00  0.00000000000E+00  0.12466890400E+03  0.12466890400E+03  0.00000000000E+00 0. -1.
         21   -1    0    0  504  502 -0.00000000000E+00 -0.00000000000E+00 -0.49315956142E+03  0.49315956142E+03  0.00000000000E+00 0. -1.
         25    1    1    2    0    0  0.14537581398E+03  0.13872062715E+03 -0.98296098519E+02  0.25625117106E+03  0.12500000000E+03 0.  0.
         21    1    1    2  503  502 -0.10548607274E+03 -0.16249918359E+03 -0.21370705336E+03  0.28845103721E+03  0.00000000000E+00 0. -1.
         21    1    1    2  504  501 -0.39889741240E+02  0.23778556437E+02 -0.56487505540E+02  0.73126257148E+02  0.00000000000E+00 0. -1.
<mgrwt>
<rscale>  4 0.23302855E+03</rscale>
<asrwt>0</asrwt>
<pdfrwt beam="1">  1       21 0.19179832E-01 0.23302855E+03</pdfrwt>
<pdfrwt beam="2">  1       21 0.75870701E-01 0.23302855E+03</pdfrwt>
<totfact> 0.37894768E+04</totfact>
</mgrwt>
</event>
<event>
 5    0  0.1283376E+001  0.3090228E+03  0.7546771E-02  0.1080815E+00
         21   -1    0    0  504  501  0.00000000000E+00  0.00000000000E+00  0.82360829917E+03  0.82360829917E+03  0.00000000000E+00 0.  1.
         21   -1    0    0  501  502 -0.00000000000E+00 -0.00000000000E+00 -0.19925186872E+03  0.19925186872E+03  0.00000000000E+00 0.  1.
         25    1    1    2    0    0 -0.89097236025E+02 -0.27485729485E+03  0.58975306669E+03  0.66851965541E+03  0.12500000000E+03 0.  0.
         21    1    1    2  503  502  0.29171461167E+02  0.13430999955E+02 -0.61545453876E+02  0.69420521455E+02  0.00000000000E+00 0.  1.
         21    1    1    2  504  503  0.59925774858E+02  0.26142629490E+03  0.96148817639E+02  0.28491999103E+03  0.00000000000E+00 0.  1.
<mgrwt>
<rscale>  4 0.30902284E+03</rscale>
<asrwt>0</asrwt>
<pdfrwt beam="1">  1       21 0.12670897E+00 0.30902284E+03</pdfrwt>
<pdfrwt beam="2">  1       21 0.30654134E-01 0.30902284E+03</pdfrwt>
<totfact> 0.43611465E+03</totfact>
</mgrwt>
</event>
<event>
 5    0  0.1283376E+001  0.3479134E+03  0.7546771E-02  0.1063475E+00
         21   -1    0    0  503  501  0.00000000000E+00  0.00000000000E+00  0.15048917143E+04  0.15048917143E+04  0.00000000000E+00 0.  1.
         21   -1    0    0  504  502 -0.00000000000E+00 -0.00000000000E+00 -0.92335164852E+02  0.92335164852E+02  0.00000000000E+00 0.  1.
         25    1    1    2    0    0  0.25413268132E+03  0.17023798230E+03  0.71732847666E+03  0.78977815477E+03  0.12500000000E+03 0.  0.
         21    1    1    2  503  502 -0.29338660319E+03 -0.18402722201E+03  0.68005627477E+03  0.76316332081E+03  0.00000000000E+00 0.  1.
         21    1    1    2  504  501  0.39253921876E+02  0.13789239714E+02  0.15171798025E+02  0.44285403575E+02  0.00000000000E+00 0.  1.
<mgrwt>
<rscale>  4 0.34791344E+03</rscale>
<asrwt>0</asrwt>
<pdfrwt beam="1">  1       21 0.23152178E+00 0.34791344E+03</pdfrwt>
<pdfrwt beam="2">  1       21 0.14205411E-01 0.34791344E+03</pdfrwt>
<totfact> 0.32919881E+03</totfact>
</mgrwt>
</event>
<event>
 5    0  0.1283376E+001  0.2433810E+03  0.7546771E-02  0.1117561E+00
         21   -1    0    0  503  501  0.00000000000E+00  0.00000000000E+00  0.59821645782E+03  0.59821645782E+03  0.00000000000E+00 0.  1.
         21   -1    0    0  504  502 -0.00000000000E+00 -0.00000000000E+00 -0.29610663352E+03  0.29610663352E+03  0.00000000000E+00 0.  1.
         25    1    1    2    0    0  0.46237914295E+01  0.20649330209E+03  0.45707817446E+03  0.51692003329E+03  0.12500000000E+03 0.  0.
         21    1    1    2  503  502  0.54843741039E+02  0.85619977849E+01 -0.14363725171E+03  0.15398962243E+03  0.00000000000E+00 0.  1.
         21    1    1    2  504  501 -0.59467532468E+02 -0.21505529987E+03 -0.11331098440E+02  0.22341343562E+03  0.00000000000E+00 0.  1.
<mgrwt>
<rscale>  4 0.24338104E+03</rscale>
<asrwt>0</asrwt>
<pdfrwt beam="1">  1       21 0.92033301E-01 0.24338104E+03</pdfrwt>
<pdfrwt beam="2">  1       21 0.45554867E-01 0.24338104E+03</pdfrwt>
<totfact> 0.44409638E+03</totfact>
</mgrwt>
</event>
<event>
 5    0  0.1283376E+001  0.2452357E+03  0.7546771E-02  0.1116353E+00
         21   -1    0    0  503  501  0.00000000000E+00  0.00000000000E+00  0.10137049028E+03  0.10137049028E+03  0.00000000000E+00 0.  1.
         21   -1    0    0  504  502 -0.00000000000E+00 -0.00000000000E+00 -0.10565755562E+04  0.10565755562E+04  0.00000000000E+00 0.  1.
         25    1    1    2    0    0 -0.22610584074E+03 -0.47653471401E+02 -0.71536334476E+03  0.76207901137E+03  0.12500000000E+03 0.  0.
         21    1    1    2  503  502  0.19906762090E+03  0.57793264248E+02 -0.62951622034E+02  0.21663537523E+03  0.00000000000E+00 0.  1.
         21    1    1    2  504  501  0.27038219839E+02 -0.10139792846E+02 -0.17689009910E+03  0.17923165985E+03  0.00000000000E+00 0. -1.
<mgrwt>
<rscale>  4 0.24523571E+03</rscale>
<asrwt>0</asrwt>
<pdfrwt beam="1">  1       21 0.15595459E-01 0.24523571E+03</pdfrwt>
<pdfrwt beam="2">  1       21 0.16255010E+00 0.24523571E+03</pdfrwt>
<totfact> 0.84824484E+03</totfact>
</mgrwt>
</event>
