<event>
 5    0  0.1911311E+001  0.2521701E+03  0.7546771E-02  0.1111941E+00
         21   -1    0    0  502  501  0.00000000000E+00  0.00000000000E+00  0.99507099738E+03  0.99507099738E+03  0.00000000000E+00 0. -1.
         21   -1    0    0  504  502 -0.00000000000E+00 -0.00000000000E+00 -0.30165799413E+03  0.30165799413E+03  0.00000000000E+00 0. -1.
         25    1    1    2    0    0 -0.29658117060E+03  0.15653584284E+03  0.34920419538E+03  0.50003242986E+03  0.12500000000E+03 0.  0.
         21    1    1    2  503  501  0.10504445129E+03 -0.16812606622E+03  0.50742979860E+03  0.54478042494E+03  0.00000000000E+00 0. -1.
         21    1    1    2  504  503  0.19153671931E+03  0.11590223387E+02 -0.16322099073E+03  0.25191613671E+03  0.00000000000E+00 0. -1.
<mgrwt>
<rscale>  4 0.25217005E+03</rscale>
<asrwt>0</asrwt>
<pdfrwt beam="1">  1       21 0.15308784E+00 0.25217005E+03</pdfrwt>
<pdfrwt beam="2">  1       21 0.46408922E-01 0.25217005E+03</pdfrwt>
<totfact> 0.11931398E+03</totfact>
</mgrwt>
</event>
<event>
 5    0  0.1911311E+001  0.1782068E+03  0.7546771E-02  0.1169550E+00
         21   -1    0    0  502  501  0.00000000000E+00  0.00000000000E+00  0.12558750810E+04  0.12558750810E+04  0.00000000000E+00 0. -1.
         21   -1    0    0  504  502 -0.00000000000E+00 -0.00000000000E+00 -0.19983394023E+04  0.19983394023E+04  0.00000000000E+00 0.  1.
         25    1    1    2    0    0 -0.98345246048E+02 -0.20120382293E+03  0.93051706073E+03  0.96521591683E+03  0.12500000000E+03 0.  0.
         21    1    1    2  503  501  0.21115383724E+02  0.10061694809E+03  0.29733398213E+03  0.31460630414E+03  0.00000000000E+00 0. -1.
         21    1    1    2  504  503  0.77229862324E+02  0.10058687484E+03 -0.19703153642E+04  0.19743922623E+04  0.00000000000E+00 0.  1.
<mgrwt>
<rscale>  4 0.17820678E+03</rscale>
<asrwt>0</asrwt>
<pdfrwt beam="1">  1       21 0.19321155E+00 0.17820678E+03</pdfrwt>
<pdfrwt beam="2">  1       21 0.30743683E+00 0.17820678E+03</pdfrwt>
<totfact> 0.47514176E+00</totfact>
</mgrwt>
</event>
<event>
 5    0  0.1911311E+001  0.3628694E+03  0.7546771E-02  0.1057453E+00
         21   -1    0    0  502  501  0.00000000000E+00  0.00000000000E+00  0.62985363464E+03  0.62985363464E+03  0.00000000000E+00 0. -1.
         21   -1    0    0  504  502 -0.00000000000E+00 -0.00000000000E+00 -0.27761387525E+03  0.27761387525E+03  0.00000000000E+00 0. -1.
         25    1    1    2    0    0  0.23189910666E+03 -0.24348111221E+03  0.27627806648E+03  0.45278562001E+03  0.12500000000E+03 0.  0.
         21    1    1    2  503  501 -0.12291207423E+02 -0.19698431979E+02  0.10795372111E+03  0.11042240671E+03  0.00000000000E+00 0. -1.
         21    1    1    2  504  503 -0.21960789924E+03  0.26317954419E+03 -0.31992028204E+02  0.34425948317E+03  0.00000000000E+00 0. -1.
<mgrwt>
<rscale>  4 0.36286943E+03</rscale>
<asrwt>0</asrwt>
<pdfrwt beam="1">  1       21 0.96900559E-01 0.36286943E+03</pdfrwt>
<pdfrwt beam="2">  1       21 0.42709827E-01 0.36286943E+03</pdfrwt>
<totfact> 0.42184854E+03</totfact>
</mgrwt>
</event>
