<event>
 5    0  0.1911311E+001  0.3866649E+03  0.7546771E-02  0.1048498E+00
         21   -1    0    0  502  501  0.00000000000E+00  0.00000000000E+00  0.21237960278E+03  0.21237960278E+03  0.00000000000E+00 0. -1.
         21   -1    0    0  504  502 -0.00000000000E+00 -0.00000000000E+00 -0.15980785180E+04  0.15980785180E+04  0.00000000000E+00 0. -1.
         25    1    1    2    0    0  0.37661941630E+03  0.58398246471E+02 -0.12577320737E+04  0.13201392006E+04  0.12500000000E+03 0.  0.
         21    1    1    2  503  501 -0.35500984742E+03 -0.79625017953E+02 -0.51964954475E+01  0.36386692459E+03  0.00000000000E+00 0. -1.
         21    1    1    2  504  503 -0.21609568884E+02  0.21226771482E+02 -0.12277034608E+03  0.12645199552E+03  0.00000000000E+00 0.  1.
<mgrwt>
<rscale>  4 0.38666486E+03</rscale>
<asrwt>0</asrwt>
<pdfrwt beam="1">  1       21 0.32673784E-01 0.38666486E+03</pdfrwt>
<pdfrwt beam="2">  1       21 0.24585824E+00 0.38666486E+03</pdfrwt>
<totfact> 0.53397243E+02</totfact>
</mgrwt>
</event>
<event>
 5    0  0.1911311E+001  0.2218148E+03  0.7546771E-02  0.1132537E+00
         21   -1    0    0  502  501  0.00000000000E+00  0.00000000000E+00  0.34004396426E+03  0.34004396426E+03  0.00000000000E+00 0.  1.
         21   -1    0    0  504  502 -0.00000000000E+00 -0.00000000000E+00 -0.21084339312E+03  0.21084339312E+03  0.00000000000E+00 0.  1.
         25    1    1    2    0    0  0.20093392758E+03  0.13088656235E+02  0.14423831648E+03  0.27744449556E+03  0.12500000000E+03 0.  0.
         21    1    1    2  503  501 -0.25125621499E+02 -0.49970354703E+02  0.57039862297E+02  0.79886664066E+02  0.00000000000E+00 0.  1.
         21    1    1    2  504  503 -0.17580830608E+03  0.36881698467E+02 -0.72077607638E+02  0.19355619776E+03  0.00000000000E+00 0.  1.
<mgrwt>
<rscale>  4 0.22181476E+03</rscale>
<asrwt>0</asrwt>
<pdfrwt beam="1">  1       21 0.52314456E-01 0.22181476E+03</pdfrwt>
<pdfrwt beam="2">  1       21 0.32437445E-01 0.22181476E+03</pdfrwt>
<totfact> 0.31214353E+04</totfact>
</mgrwt>
</event>
<event>
 5    0  0.1911311E+001  0.3677952E+03  0.7546771E-02  0.1055539E+00
         21   -1    0    0  504  501  0.00000000000E+00  0.00000000000E+00  0.62695471020E+03  0.62695471020E+03  0.00000000000E+00 0.  1.
         21   -1    0    0  503  502 -0.00000000000E+00 -0.00000000000E+00 -0.84231183348E+03  0.84231183348E+03  0.00000000000E+00 0.  1.
         25    1    1    2    0    0 -0.17976519002E+02  0.28009134934E+03 -0.16506487822E+03  0.34877748384E+03  0.12500000000E+03 0.  0.
         21    1    1    2  503  501  0.15352938026E+03 -0.37394031037E+03 -0.49915381814E+03  0.64230612677E+03  0.00000000000E+00 0.  1.
         21    1    1    2  504  502 -0.13555286126E+03  0.93848961030E+02  0.44886157309E+03  0.47818293307E+03  0.00000000000E+00 0.  1.
<mgrwt>
<rscale>  4 0.36779515E+03</rscale>
<asrwt>0</asrwt>
<pdfrwt beam="1">  1       21 0.96454571E-01 0.36779515E+03</pdfrwt>
<pdfrwt beam="2">  1       21 0.12958644E+00 0.36779515E+03</pdfrwt>
<totfact> 0.33671273E+02</totfact>
</mgrwt>
</event>
<event>
 5    0  0.1911311E+001  0.3320109E+03  0.7546771E-02  0.1070251E+00
         21   -1    0    0  504  501  0.00000000000E+00  0.00000000000E+00  0.24706288598E+03  0.24706288598E+03  0.00000000000E+00 0.  1.
         21   -1    0    0  503  502 -0.00000000000E+00 -0.00000000000E+00 -0.49941023897E+03  0.49941023897E+03  0.00000000000E+00 0.  1.
         25    1    1    2    0    0 -0.22613187899E+03 -0.22084920670E+03 -0.15733652690E+03  0.37455277531E+03  0.12500000000E+03 0.  0.
         21    1    1    2  503  501  0.23522237352E+03  0.18701730927E+03 -0.12532453727E+03  0.32559373245E+03  0.00000000000E+00 0.  1.
         21    1    1    2  504  502 -0.90904945283E+01  0.33831897432E+02  0.30313711179E+02  0.46326617188E+02  0.00000000000E+00 0.  1.
<mgrwt>
<rscale>  4 0.33201095E+03</rscale>
<asrwt>0</asrwt>
<pdfrwt beam="1">  1       21 0.38009675E-01 0.33201095E+03</pdfrwt>
<pdfrwt beam="2">  1       21 0.76832344E-01 0.33201095E+03</pdfrwt>
<totfact> 0.93260406E+03</totfact>
</mgrwt>
</event>
<event>
 5    0  0.1911311E+001  0.2364777E+03  0.7546771E-02  0.1122162E+00
         21   -1    0    0  504  501  0.00000000000E+00  0.00000000000E+00  0.66372613185E+03  0.66372613185E+03  0.00000000000E+00 0.  1.
         21   -1    0    0  503  502 -0.00000000000E+00 -0.00000000000E+00 -0.87842081507E+03  0.87842081507E+03  0.00000000000E+00 0. -1.
         25    1    1    2    0    0 -0.20208908831E+03 -0.15985053502E+01  0.61449268771E+03  0.65883899254E+03  0.12500000000E+03 0.  0.
         21    1    1    2  503  501  0.15041913908E+03  0.24852605913E+01 -0.81630114244E+03  0.83004797999E+03  0.00000000000E+00 0. -1.
         21    1    1    2  504  502  0.51669949228E+02 -0.88675524110E+00 -0.12886228495E+02  0.53259974398E+02  0.00000000000E+00 0.  1.
<mgrwt>
<rscale>  4 0.23647767E+03</rscale>
<asrwt>0</asrwt>
<pdfrwt beam="1">  1       21 0.10211171E+00 0.23647767E+03</pdfrwt>
<pdfrwt beam="2">  1       21 0.13514166E+00 0.23647767E+03</pdfrwt>
<totfact> 0.29152509E+02</totfact>
</mgrwt>
</event>
