<event>
 5    0  0.1856407E+000  0.1914780E+03  0.7546771E-02  0.1157135E+00
         21   -1    0    0  502  501  0.00000000000E+00  0.00000000000E+00  0.13314964725E+03  0.13314964725E+03  0.00000000000E+00 0. -1.
         21   -1    0    0  503  502 -0.00000000000E+00 -0.00000000000E+00 -0.60748485604E+03  0.60748485604E+03  0.00000000000E+00 0. -1.
         25    1    1    2    0    0 -0.94441963087E+02 -0.20330458126E+03 -0.11695786039E+03  0.28205704788E+03  0.12500000000E+03 0.  0.
         21    1    1    2  503  504  0.14270666856E+01  0.10727814869E+03 -0.40542993497E+02  0.11469251078E+03  0.00000000000E+00 0. -1.
         21    1    1    2  504  501  0.93014896401E+02  0.96026432562E+02 -0.31683435490E+03  0.34388494464E+03  0.00000000000E+00 0. -1.
<mgrwt>
<rscale>  4 0.19147799E+03</rscale>
<asrwt>0</asrwt>
<pdfrwt beam="1">  1       21 0.20484561E-01 0.19147799E+03</pdfrwt>
<pdfrwt beam="2">  1       21 0.93459208E-01 0.19147799E+03</pdfrwt>
<totfact> 0.21259176E+04</totfact>
</mgrwt>
</event>
<event>
 5    0  0.1947845E+000  0.2587307E+03  0.7546771E-02  0.1107908E+00
         21   -1    0    0  502  501  0.00000000000E+00  0.00000000000E+00  0.14783570489E+04  0.14783570489E+04  0.00000000000E+00 0.  1.
         21   -1    0    0  503  502 -0.00000000000E+00 -0.00000000000E+00 -0.40671942166E+02  0.40671942166E+02  0.00000000000E+00 0.  1.
         25    1    1    2    0    0  0.12651329766E+02  0.22617805200E+03  0.82869483379E+03  0.86814554937E+03  0.12500000000E+03 0.  0.
         21    1    1    2  503  504 -0.99156140830E+01 -0.19412582541E+03  0.55478186835E+03  0.58784868542E+03  0.00000000000E+00 0.  1.
         21    1    1    2  504  501 -0.27357156832E+01 -0.32052226585E+02  0.54208404545E+02  0.63034756228E+02  0.00000000000E+00 0.  1.
<mgrwt>
<rscale>  4 0.25873068E+03</rscale>
<asrwt>0</asrwt>
<pdfrwt beam="1">  1       21 0.22743950E+00 0.25873068E+03</pdfrwt>
<pdfrwt beam="2">  1       21 0.62572230E-02 0.25873068E+03</pdfrwt>
<totfact> 0.15829779E+04</totfact>
</mgrwt>
</event>
<event>
 5    0  0.1856407E+000  0.2043161E+03  0.7546771E-02  0.1146148E+00
         21   -1    0    0  502  501  0.00000000000E+00  0.00000000000E+00  0.87049423381E+03  0.87049423381E+03  0.00000000000E+00 0. -1.
         21   -1    0    0  503  502 -0.00000000000E+00 -0.00000000000E+00 -0.79679772606E+02  0.79679772606E+02  0.00000000000E+00 0. -1.
         25    1    1    2    0    0 -0.40588356093E+02  0.19824935432E+03  0.63100753847E+03  0.67434837787E+03  0.12500000000E+03 0.  0.
         21    1    1    2  503  504  0.13922049797E+02 -0.15392283714E+03  0.64672785636E+02  0.16753695851E+03  0.00000000000E+00 0. -1.
         21    1    1    2  504  501  0.26666306295E+02 -0.44326517178E+02  0.95134137101E+02  0.10828867004E+03  0.00000000000E+00 0. -1.
<mgrwt>
<rscale>  4 0.20431610E+03</rscale>
<asrwt>0</asrwt>
<pdfrwt beam="1">  1       21 0.13392218E+00 0.20431610E+03</pdfrwt>
<pdfrwt beam="2">  1       21 0.12258427E-01 0.20431610E+03</pdfrwt>
<totfact> 0.22478347E+04</totfact>
</mgrwt>
</event>
<event>
 5    0  0.1856407E+000  0.2679617E+03  0.7546771E-02  0.1102452E+00
         21   -1    0    0  502  501  0.00000000000E+00  0.00000000000E+00  0.12566420017E+04  0.12566420017E+04  0.00000000000E+00 0. -1.
         21   -1    0    0  503  502 -0.00000000000E+00 -0.00000000000E+00 -0.59642895502E+02  0.59642895502E+02  0.00000000000E+00 0. -1.
         25    1    1    2    0    0 -0.57736786176E+02  0.22988031031E+03  0.85230640743E+03  0.89343701832E+03  0.12500000000E+03 0.  0.
         21    1    1    2  503  504  0.35292930688E+02 -0.12946667705E+03  0.14103369699E+03  0.19467335491E+03  0.00000000000E+00 0. -1.
         21    1    1    2  504  501  0.22443855488E+02 -0.10041363326E+03  0.20365900182E+03  0.22817452403E+03  0.00000000000E+00 0. -1.
<mgrwt>
<rscale>  4 0.26796174E+03</rscale>
<asrwt>0</asrwt>
<pdfrwt beam="1">  1       21 0.19332952E+00 0.26796174E+03</pdfrwt>
<pdfrwt beam="2">  1       21 0.91758310E-02 0.26796174E+03</pdfrwt>
<totfact> 0.13295447E+04</totfact>
</mgrwt>
</event>
<event>
 5    0  0.1856407E+000  0.3272686E+03  0.7546771E-02  0.1072919E+00
         21   -1    0    0  502  501  0.00000000000E+00  0.00000000000E+00  0.64697033567E+02  0.64697033567E+02  0.00000000000E+00 0. -1.
         21   -1    0    0  503  502 -0.00000000000E+00 -0.00000000000E+00 -0.17993730422E+04  0.17993730422E+04  0.00000000000E+00 0. -1.
         25    1    1    2    0    0 -0.41320544349E+02 -0.29411458969E+03 -0.57540592338E+03  0.65949052754E+03  0.12500000000E+03 0.  0.
         21    1    1    2  503  504 -0.28879028970E+02  0.21749215578E+03 -0.69441598480E+03  0.72825160219E+03  0.00000000000E+00 0. -1.
         21    1    1    2  504  501  0.70199573319E+02  0.76622433910E+02 -0.46485410041E+03  0.47632794600E+03  0.00000000000E+00 0. -1.
<mgrwt>
<rscale>  4 0.32600305E+03</rscale>
<asrwt>0</asrwt>
<pdfrwt beam="1">  1       21 0.99533878E-02 0.32726863E+03</pdfrwt>
<pdfrwt beam="2">  1       21 0.27682668E+00 0.32726863E+03</pdfrwt>
<totfact> 0.33788266E+03</totfact>
</mgrwt>
</event>
<event>
 5    0  0.1856407E+000  0.2423737E+03  0.7546771E-02  0.1118222E+00
         21   -1    0    0  502  501  0.00000000000E+00  0.00000000000E+00  0.99398355406E+02  0.99398355406E+02  0.00000000000E+00 0. -1.
         21   -1    0    0  503  502 -0.00000000000E+00 -0.00000000000E+00 -0.54918143140E+03  0.54918143140E+03  0.00000000000E+00 0. -1.
         25    1    1    2    0    0 -0.79658568895E+02  0.19176684038E+03 -0.16946884987E+03  0.29574431481E+03  0.12500000000E+03 0.  0.
         21    1    1    2  503  504  0.97557710140E+01 -0.37842010138E+02 -0.24224390405E+02  0.45978406778E+02  0.00000000000E+00 0. -1.
         21    1    1    2  504  501  0.69902797881E+02 -0.15392483024E+03 -0.25608983573E+03  0.30685706522E+03  0.00000000000E+00 0. -1.
<mgrwt>
<rscale>  4 0.24237370E+03</rscale>
<asrwt>0</asrwt>
<pdfrwt beam="1">  1       21 0.15292055E-01 0.24237370E+03</pdfrwt>
<pdfrwt beam="2">  1       21 0.84489451E-01 0.24237370E+03</pdfrwt>
<totfact> 0.44934270E+04</totfact>
</mgrwt>
</event>
<event>
 5    0  0.1856407E+000  0.4114186E+03  0.7546771E-02  0.1039896E+00
         21   -1    0    0  502  501  0.00000000000E+00  0.00000000000E+00  0.12543592813E+04  0.12543592813E+04  0.00000000000E+00 0.  1.
         21   -1    0    0  503  502 -0.00000000000E+00 -0.00000000000E+00 -0.18807748739E+03  0.18807748739E+03  0.00000000000E+00 0.  1.
         25    1    1    2    0    0 -0.32897436589E+03 -0.21311065868E+03  0.93664405946E+03  0.10230187586E+04  0.12500000000E+03 0.  0.
         21    1    1    2  503  504  0.36805137212E+02  0.35105696948E+02  0.42727488374E+02  0.66427903370E+02  0.00000000000E+00 0.  1.
         21    1    1    2  504  501  0.29216922868E+03  0.17800496174E+03  0.86910246084E+02  0.35299010675E+03  0.00000000000E+00 0.  1.
<mgrwt>
<rscale>  4 0.41141863E+03</rscale>
<asrwt>0</asrwt>
<pdfrwt beam="1">  1       21 0.19297835E+00 0.41141863E+03</pdfrwt>
<pdfrwt beam="2">  1       21 0.28934999E-01 0.41141863E+03</pdfrwt>
<totfact> 0.14605980E+03</totfact>
</mgrwt>
</event>
<event>
 5    0  0.2018978E+000  0.2787647E+03  0.7546771E-02  0.1096366E+00
         21   -1    0    0  502  501  0.00000000000E+00  0.00000000000E+00  0.53576667555E+02  0.53576667555E+02  0.00000000000E+00 0. -1.
         21   -1    0    0  503  502 -0.00000000000E+00 -0.00000000000E+00 -0.20095552012E+04  0.20095552012E+04  0.00000000000E+00 0. -1.
         25    1    1    2    0    0 -0.12181538851E+03  0.21736093166E+03 -0.41639622574E+03  0.50109438263E+03  0.12500000000E+03 0.  0.
         21    1    1    2  503  504  0.86939310034E+02 -0.18439482286E+03 -0.10153810812E+04  0.10356440674E+04  0.00000000000E+00 0. -1.
         21    1    1    2  504  501  0.34876078476E+02 -0.32966108799E+02 -0.52420122677E+03  0.52639341878E+03  0.00000000000E+00 0. -1.
<mgrwt>
<rscale>  4 0.27876471E+03</rscale>
<asrwt>0</asrwt>
<pdfrwt beam="1">  1       21 0.82425628E-02 0.27876471E+03</pdfrwt>
<pdfrwt beam="2">  1       21 0.30916239E+00 0.27876471E+03</pdfrwt>
<totfact> 0.31530651E+03</totfact>
</mgrwt>
</event>
<event>
 5    0  0.1856407E+000  0.3197259E+03  0.7546771E-02  0.1075776E+00
         21   -1    0    0  502  501  0.00000000000E+00  0.00000000000E+00  0.15342674014E+03  0.15342674014E+03  0.00000000000E+00 0. -1.
         21   -1    0    0  503  502 -0.00000000000E+00 -0.00000000000E+00 -0.93100539165E+03  0.93100539165E+03  0.00000000000E+00 0. -1.
         25    1    1    2    0    0  0.27779953678E+03 -0.21912946751E+02 -0.17473227211E+03  0.35186521111E+03  0.12500000000E+03 0.  0.
         21    1    1    2  503  504 -0.31720307872E+03  0.96339040231E+02 -0.49454549926E+03  0.59537740523E+03  0.00000000000E+00 0. -1.
         21    1    1    2  504  501  0.39403541942E+02 -0.74426093480E+02 -0.10830088014E+03  0.13718951544E+03  0.00000000000E+00 0. -1.
<mgrwt>
<rscale>  4 0.31972586E+03</rscale>
<asrwt>0</asrwt>
<pdfrwt beam="1">  1       21 0.23604114E-01 0.31972586E+03</pdfrwt>
<pdfrwt beam="2">  1       21 0.14323160E+00 0.31972586E+03</pdfrwt>
<totfact> 0.52493847E+03</totfact>
</mgrwt>
</event>
<event>
 5    0  0.1856407E+000  0.2797222E+03  0.7546771E-02  0.1095841E+00
         21   -1    0    0  502  501  0.00000000000E+00  0.00000000000E+00  0.97224259863E+03  0.97224259863E+03  0.00000000000E+00 0. -1.
         21   -1    0    0  503  502 -0.00000000000E+00 -0.00000000000E+00 -0.22861740510E+03  0.22861740510E+03  0.00000000000E+00 0.  1.
         25    1    1    2    0    0 -0.23077939010E+03 -0.96748958899E+02  0.87240437127E+03  0.91615166592E+03  0.12500000000E+03 0.  0.
         21    1    1    2  503  504  0.20636646997E+03  0.96993782970E+02 -0.10654824931E+03  0.25168917993E+03  0.00000000000E+00 0.  1.
         21    1    1    2  504  501  0.24412920123E+02 -0.24482407108E+00 -0.22230928430E+02  0.33019157872E+02  0.00000000000E+00 0.  1.
<mgrwt>
<rscale>  4 0.27972216E+03</rscale>
<asrwt>0</asrwt>
<pdfrwt beam="1">  1       21 0.14957578E+00 0.27972216E+03</pdfrwt>
<pdfrwt beam="2">  1       21 0.35171909E-01 0.27972216E+03</pdfrwt>
<totfact> 0.21899246E+03</totfact>
</mgrwt>
</event>
<event>
 5    0  0.1856407E+000  0.2391767E+03  0.7546771E-02  0.1120342E+00
         21   -1    0    0  502  501  0.00000000000E+00  0.00000000000E+00  0.49600247245E+02  0.49600247245E+02  0.00000000000E+00 0.  1.
         21   -1    0    0  503  502 -0.00000000000E+00 -0.00000000000E+00 -0.10780928164E+04  0.10780928164E+04  0.00000000000E+00 0.  1.
         25    1    1    2    0    0 -0.16385525635E+03 -0.12137531113E+03 -0.43094415910E+03  0.49286750699E+03  0.12500000000E+03 0.  0.
         21    1    1    2  503  504  0.73403891338E+02  0.78900404859E+02 -0.23101043775E+03  0.25491023420E+03  0.00000000000E+00 0.  1.
         21    1    1    2  504  501  0.90451365011E+02  0.42474906271E+02 -0.36653797233E+03  0.37991532248E+03  0.00000000000E+00 0.  1.
<mgrwt>
<rscale>  4 0.23917674E+03</rscale>
<asrwt>0</asrwt>
<pdfrwt beam="1">  1       21 0.76308070E-02 0.23917674E+03</pdfrwt>
<pdfrwt beam="2">  1       21 0.16586044E+00 0.23917674E+03</pdfrwt>
<totfact> 0.28908419E+04</totfact>
</mgrwt>
</event>
<event>
 5    0  0.2064338E+000  0.2528212E+03  0.7546771E-02  0.1111535E+00
         21   -1    0    0  502  501  0.00000000000E+00  0.00000000000E+00  0.16281755378E+04  0.16281755378E+04  0.00000000000E+00 0. -1.
         21   -1    0    0  503  502 -0.00000000000E+00 -0.00000000000E+00 -0.65014934738E+02  0.65014934738E+02  0.00000000000E+00 0. -1.
         25    1    1    2    0    0 -0.22556943403E+03 -0.59301603159E+02  0.12824606920E+04  0.13094764893E+04  0.12500000000E+03 0.  0.
         21    1    1    2  503  504  0.49788276013E+02 -0.15200712143E+02  0.10882224485E+02  0.53182298632E+02  0.00000000000E+00 0. -1.
         21    1    1    2  504  501  0.17578115802E+03  0.74502315302E+02  0.26981768667E+03  0.33053168462E+03  0.00000000000E+00 0. -1.
<mgrwt>
<rscale>  4 0.25282121E+03</rscale>
<asrwt>0</asrwt>
<pdfrwt beam="1">  1       21 0.25048851E+00 0.25282121E+03</pdfrwt>
<pdfrwt beam="2">  1       21 0.10002299E-01 0.25282121E+03</pdfrwt>
<totfact> 0.50708635E+03</totfact>
</mgrwt>
</event>
<event>
 5    0  0.1856407E+000  0.2322986E+03  0.7546771E-02  0.1125032E+00
         21   -1    0    0  502  501  0.00000000000E+00  0.00000000000E+00  0.13057216297E+03  0.13057216297E+03  0.00000000000E+00 0.  1.
         21   -1    0    0  503  502 -0.00000000000E+00 -0.00000000000E+00 -0.80902982837E+03  0.80902982837E+03  0.00000000000E+00 0.  1.
         25    1    1    2    0    0  0.21385560697E+03 -0.59206297295E+01 -0.82090209247E+02  0.26102313488E+03  0.12500000000E+03 0.  0.
         21    1    1    2  503  504 -0.18576965168E+03 -0.56693258262E+02 -0.57467086654E+03  0.60660620988E+03  0.00000000000E+00 0.  1.
         21    1    1    2  504  501 -0.28085955286E+02  0.62613887991E+02 -0.21696589613E+02  0.71972646572E+02  0.00000000000E+00 0. -1.
<mgrwt>
<rscale>  4 0.23229862E+03</rscale>
<asrwt>0</asrwt>
<pdfrwt beam="1">  1       21 0.20088025E-01 0.23229862E+03</pdfrwt>
<pdfrwt beam="2">  1       21 0.12446613E+00 0.23229862E+03</pdfrwt>
<totfact> 0.10746612E+04</totfact>
</mgrwt>
</event>
<event>
 5    0  0.1856407E+000  0.2793897E+03  0.7546771E-02  0.1096023E+00
         21   -1    0    0  502  501  0.00000000000E+00  0.00000000000E+00  0.24035878765E+03  0.24035878765E+03  0.00000000000E+00 0. -1.
         21   -1    0    0  503  502 -0.00000000000E+00 -0.00000000000E+00 -0.71921129083E+03  0.71921129083E+03  0.00000000000E+00 0. -1.
         25    1    1    2    0    0  0.44992533530E+02  0.24578296676E+03  0.12118524385E+03  0.30453974807E+03  0.12500000000E+03 0.  0.
         21    1    1    2  503  504 -0.42873659000E+02 -0.18756685281E+03 -0.53051396454E+03  0.56432662660E+03  0.00000000000E+00 0. -1.
         21    1    1    2  504  501 -0.21188745306E+01 -0.58216113953E+02 -0.69523782494E+02  0.90703703813E+02  0.00000000000E+00 0. -1.
<mgrwt>
<rscale>  4 0.27938968E+03</rscale>
<asrwt>0</asrwt>
<pdfrwt beam="1">  1       21 0.36978276E-01 0.27938968E+03</pdfrwt>
<pdfrwt beam="2">  1       21 0.11064789E+00 0.27938968E+03</pdfrwt>
<totfact> 0.42763001E+03</totfact>
</mgrwt>
</event>
<event>
 5    0  0.1856407E+000  0.3605274E+03  0.7546771E-02  0.1058375E+00
         21   -1    0    0  502  501  0.00000000000E+00  0.00000000000E+00  0.35256302293E+03  0.35256302293E+03  0.00000000000E+00 0.  1.
         21   -1    0    0  503  502 -0.00000000000E+00 -0.00000000000E+00 -0.36701326127E+03  0.36701326127E+03  0.00000000000E+00 0.  1.
         25    1    1    2    0    0 -0.44690877886E+02  0.33519803407E+03 -0.64546792975E+02  0.36625986006E+03  0.12500000000E+03 0.  0.
         21    1    1    2  503  504  0.85913469137E+01 -0.21923185569E+03  0.69881637241E+02  0.23026041999E+03  0.00000000000E+00 0.  1.
         21    1    1    2  504  501  0.36099530972E+02 -0.11596617838E+03 -0.19785082613E+02  0.12305600415E+03  0.00000000000E+00 0.  1.
<mgrwt>
<rscale>  4 0.36052739E+03</rscale>
<asrwt>0</asrwt>
<pdfrwt beam="1">  1       21 0.54240465E-01 0.36052739E+03</pdfrwt>
<pdfrwt beam="2">  1       21 0.56463579E-01 0.36052739E+03</pdfrwt>
<totfact> 0.86884747E+03</totfact>
</mgrwt>
</event>
<event>
 5    0  0.1856407E+000  0.2693680E+03  0.7546771E-02  0.1101642E+00
         21   -1    0    0  502  501  0.00000000000E+00  0.00000000000E+00  0.40292230653E+03  0.40292230653E+03  0.00000000000E+00 0.  1.
         21   -1    0    0  503  502 -0.00000000000E+00 -0.00000000000E+00 -0.17832082998E+03  0.17832082998E+03  0.00000000000E+00 0.  1.
         25    1    1    2    0    0 -0.20217689251E+03  0.12672254807E+03  0.19522256207E+03  0.33267243468E+03  0.12500000000E+03 0.  0.
         21    1    1    2  503  504  0.11685291475E+03 -0.37305531183E+02  0.61881539759E+01  0.12281937792E+03  0.00000000000E+00 0.  1.
         21    1    1    2  504  501  0.85323977767E+02 -0.89417016891E+02  0.23190760501E+02  0.12575132391E+03  0.00000000000E+00 0.  1.
<mgrwt>
<rscale>  4 0.26936796E+03</rscale>
<asrwt>0</asrwt>
<pdfrwt beam="1">  1       21 0.61988047E-01 0.26936796E+03</pdfrwt>
<pdfrwt beam="2">  1       21 0.27433974E-01 0.26936796E+03</pdfrwt>
<totfact> 0.29496874E+04</totfact>
</mgrwt>
</event>
