<event>
 5    0  0.3387552E+000  0.2369637E+03  0.7546771E-02  0.1121832E+00
         21   -1    0    0  503  501  0.00000000000E+00  0.00000000000E+00  0.44173643865E+03  0.44173643865E+03  0.00000000000E+00 0. -1.
         21   -1    0    0  501  502 -0.00000000000E+00 -0.00000000000E+00 -0.11645131205E+03  0.11645131205E+03  0.00000000000E+00 0. -1.
         25    1    1    2    0    0 -0.19794733588E+03  0.36655926877E+02  0.15033401730E+03  0.28062808398E+03  0.12500000000E+03 0.  0.
         21    1    1    2  503  504  0.44701039016E+02 -0.16262731529E+02  0.88395196383E+02  0.10038112407E+03  0.00000000000E+00 0.  1.
         21    1    1    2  504  502  0.15324629686E+03 -0.20393195348E+02  0.86555912912E+02  0.17717854266E+03  0.00000000000E+00 0. -1.
<mgrwt>
<rscale>  4 0.23696372E+03</rscale>
<asrwt>0</asrwt>
<pdfrwt beam="1">  1       21 0.67959451E-01 0.23696372E+03</pdfrwt>
<pdfrwt beam="2">  1       21 0.17915587E-01 0.23696372E+03</pdfrwt>
<totfact> 0.54890986E+04</totfact>
</mgrwt>
</event>
<event>
 5    0  0.3387552E+000  0.1967866E+03  0.7546771E-02  0.1152479E+00
         21   -1    0    0  503  501  0.00000000000E+00  0.00000000000E+00  0.64187058285E+03  0.64187058285E+03  0.00000000000E+00 0.  1.
         21   -1    0    0  504  502 -0.00000000000E+00 -0.00000000000E+00 -0.80457986064E+03  0.80457986064E+03  0.00000000000E+00 0.  1.
         25    1    1    2    0    0 -0.11790234317E+03 -0.25698853452E+03 -0.43286062124E+03  0.53191859040E+03  0.12500000000E+03 0.  0.
         21    1    1    2  503  502  0.23813247883E+02  0.14077439349E+03 -0.29617831333E+03  0.32879491165E+03  0.00000000000E+00 0.  1.
         21    1    1    2  504  501  0.94089095283E+02  0.11621414103E+03  0.56632965677E+03  0.58573694144E+03  0.00000000000E+00 0.  1.
<mgrwt>
<rscale>  4 0.19678664E+03</rscale>
<asrwt>0</asrwt>
<pdfrwt beam="1">  1       21 0.98749322E-01 0.19678664E+03</pdfrwt>
<pdfrwt beam="2">  1       21 0.12378152E+00 0.19678664E+03</pdfrwt>
<totfact> 0.41150881E+02</totfact>
</mgrwt>
</event>
<event>
 5    0  0.3387552E+000  0.2999114E+03  0.7546771E-02  0.1085285E+00
         21   -1    0    0  502  501  0.00000000000E+00  0.00000000000E+00  0.17688493954E+04  0.17688493954E+04  0.00000000000E+00 0. -1.
         21   -1    0    0  503  502 -0.00000000000E+00 -0.00000000000E+00 -0.25579193512E+03  0.25579193512E+03  0.00000000000E+00 0.  1.
         25    1    1    2    0    0  0.20056652578E+03 -0.18464808416E+03 -0.15219718976E+03  0.33631953678E+03  0.12500000000E+03 0.  0.
         21    1    1    2  503  504 -0.12169119953E+02  0.27224715506E+02  0.11799078430E+03  0.12170085371E+03  0.00000000000E+00 0.  1.
         21    1    1    2  504  501 -0.18839740583E+03  0.15742336866E+03  0.15472638658E+04  0.15666209401E+04  0.00000000000E+00 0. -1.
<mgrwt>
<rscale>  4 0.29991140E+03</rscale>
<asrwt>0</asrwt>
<pdfrwt beam="1">  1       21 0.27213067E+00 0.29991140E+03</pdfrwt>
<pdfrwt beam="2">  1       21 0.39352607E-01 0.29991140E+03</pdfrwt>
<totfact> 0.27205225E+02</totfact>
</mgrwt>
</event>
<event>
 5    0  0.3387552E+000  0.4299490E+03  0.7546771E-02  0.1033876E+00
         21   -1    0    0  503  501  0.00000000000E+00  0.00000000000E+00  0.89270538837E+03  0.89270538837E+03  0.00000000000E+00 0.  1.
         21   -1    0    0  504  502 -0.00000000000E+00 -0.00000000000E+00 -0.53488543323E+03  0.53488543323E+03  0.00000000000E+00 0.  1.
         25    1    1    2    0    0 -0.41229658521E+03 -0.60001020120E+02 -0.36792697958E+03  0.56972261575E+03  0.12500000000E+03 0.  0.
         21    1    1    2  503  502  0.37687571302E+03  0.62475667118E+02  0.49943414948E+03  0.62878691280E+03  0.00000000000E+00 0.  1.
         21    1    1    2  504  501  0.35420872199E+02 -0.24746469974E+01  0.22631278524E+03  0.22908129306E+03  0.00000000000E+00 0.  1.
<mgrwt>
<rscale>  4 0.42994900E+03</rscale>
<asrwt>0</asrwt>
<pdfrwt beam="1">  1       21 0.13733929E+00 0.42994900E+03</pdfrwt>
<pdfrwt beam="2">  1       21 0.82290067E-01 0.42994900E+03</pdfrwt>
<totfact> 0.40686758E+02</totfact>
</mgrwt>
</event>
<event>
 5    0  0.3387552E+000  0.2581594E+03  0.7546771E-02  0.1108254E+00
         21   -1    0    0  503  501  0.00000000000E+00  0.00000000000E+00  0.78722282580E+03  0.78722282580E+03  0.00000000000E+00 0. -1.
         21   -1    0    0  504  502 -0.00000000000E+00 -0.00000000000E+00 -0.10203881812E+03  0.10203881812E+03  0.00000000000E+00 0.  1.
         25    1    1    2    0    0 -0.20664944047E+02 -0.22493159671E+03  0.14262014235E+03  0.29493519308E+03  0.12500000000E+03 0.  0.
         21    1    1    2  503  502  0.49692663571E+02  0.19351442725E+03  0.44398004266E+03  0.48686288896E+03  0.00000000000E+00 0. -1.
         21    1    1    2  504  501 -0.29027719525E+02  0.31417169460E+02  0.98583822680E+02  0.10746356188E+03  0.00000000000E+00 0. -1.
<mgrwt>
<rscale>  4 0.25815938E+03</rscale>
<asrwt>0</asrwt>
<pdfrwt beam="1">  1       21 0.12111120E+00 0.25815938E+03</pdfrwt>
<pdfrwt beam="2">  1       21 0.15698280E-01 0.25815938E+03</pdfrwt>
<totfact> 0.17938660E+04</totfact>
</mgrwt>
</event>
<event>
 5    0  0.3387552E+000  0.2632530E+03  0.7546771E-02  0.1105204E+00
         21   -1    0    0  503  501  0.00000000000E+00  0.00000000000E+00  0.21891487370E+04  0.21891487370E+04  0.00000000000E+00 0. -1.
         21   -1    0    0  501  502 -0.00000000000E+00 -0.00000000000E+00 -0.25989056483E+03  0.25989056483E+03  0.00000000000E+00 0. -1.
         25    1    1    2    0    0  0.19232919992E+03 -0.13072561236E+03 -0.18178237393E+03  0.32054568838E+03  0.12500000000E+03 0.  0.
         21    1    1    2  503  504  0.84653658296E+00  0.34099132603E+02  0.71776979975E+03  0.71857981665E+03  0.00000000000E+00 0. -1.
         21    1    1    2  504  502 -0.19317573650E+03  0.96626479759E+02  0.13932707463E+04  0.14099137968E+04  0.00000000000E+00 0. -1.
<mgrwt>
<rscale>  4 0.26325301E+03</rscale>
<asrwt>0</asrwt>
<pdfrwt beam="1">  1       21 0.33679210E+00 0.26325301E+03</pdfrwt>
<pdfrwt beam="2">  1       21 0.39983165E-01 0.26325301E+03</pdfrwt>
<totfact> 0.11381075E+02</totfact>
</mgrwt>
</event>
<event>
 5    0  0.3387552E+000  0.2373827E+03  0.7546771E-02  0.1121549E+00
         21   -1    0    0  503  501  0.00000000000E+00  0.00000000000E+00  0.19910055647E+04  0.19910055647E+04  0.00000000000E+00 0. -1.
         21   -1    0    0  504  502 -0.00000000000E+00 -0.00000000000E+00 -0.32923723178E+02  0.32923723178E+02  0.00000000000E+00 0. -1.
         25    1    1    2    0    0  0.21148749118E+03 -0.33075197435E+02  0.64756166675E+03  0.69338448198E+03  0.12500000000E+03 0.  0.
         21    1    1    2  503  502 -0.18498061563E+03  0.11978305694E+02  0.91570512006E+03  0.93427895987E+03  0.00000000000E+00 0. -1.
         21    1    1    2  504  501 -0.26506875544E+02  0.21096891741E+02  0.39481505469E+03  0.39626584600E+03  0.00000000000E+00 0.  1.
<mgrwt>
<rscale>  4 0.23738271E+03</rscale>
<asrwt>0</asrwt>
<pdfrwt beam="1">  1       21 0.30630845E+00 0.23738271E+03</pdfrwt>
<pdfrwt beam="2">  1       21 0.50651897E-02 0.23738271E+03</pdfrwt>
<totfact> 0.78923991E+03</totfact>
</mgrwt>
</event>
<event>
 5    0  0.3387552E+000  0.2846612E+03  0.7546771E-02  0.1093170E+00
         21   -1    0    0  502  501  0.00000000000E+00  0.00000000000E+00  0.23686368967E+03  0.23686368967E+03  0.00000000000E+00 0.  1.
         21   -1    0    0  504  502 -0.00000000000E+00 -0.00000000000E+00 -0.13216878960E+04  0.13216878960E+04  0.00000000000E+00 0.  1.
         25    1    1    2    0    0  0.47039025866E+02  0.25138591685E+03 -0.12099522518E+04  0.12429871281E+04  0.12500000000E+03 0.  0.
         21    1    1    2  503  501 -0.67289466644E+02 -0.24751242256E+03  0.84590155553E+02  0.27008473867E+03  0.00000000000E+00 0.  1.
         21    1    1    2  504  503  0.20250440778E+02 -0.38734942806E+01  0.40537889902E+02  0.45479718857E+02  0.00000000000E+00 0.  1.
<mgrwt>
<rscale>  4 0.28466125E+03</rscale>
<asrwt>0</asrwt>
<pdfrwt beam="1">  1       21 0.36440567E-01 0.28466125E+03</pdfrwt>
<pdfrwt beam="2">  1       21 0.20333660E+00 0.28466125E+03</pdfrwt>
<totfact> 0.85058745E+02</totfact>
</mgrwt>
</event>
<event>
 5    0  0.3387552E+000  0.2850833E+03  0.7546771E-02  0.1092945E+00
         21   -1    0    0  503  501  0.00000000000E+00  0.00000000000E+00  0.62548254614E+03  0.62548254614E+03  0.00000000000E+00 0. -1.
         21   -1    0    0  501  502 -0.00000000000E+00 -0.00000000000E+00 -0.21387489317E+03  0.21387489317E+03  0.00000000000E+00 0. -1.
         25    1    1    2    0    0 -0.23467362588E+03  0.87159907205E+02  0.95814803316E+01  0.27997386463E+03  0.12500000000E+03 0.  0.
         21    1    1    2  503  504 -0.61377399384E+01  0.25762164013E+02  0.25324449644E+03  0.25462548168E+03  0.00000000000E+00 0. -1.
         21    1    1    2  504  502  0.24081136582E+03 -0.11292207122E+03  0.14878167619E+03  0.30475809300E+03  0.00000000000E+00 0. -1.
<mgrwt>
<rscale>  4 0.28508327E+03</rscale>
<asrwt>0</asrwt>
<pdfrwt beam="1">  1       21 0.96228083E-01 0.28508327E+03</pdfrwt>
<pdfrwt beam="2">  1       21 0.32903830E-01 0.28508327E+03</pdfrwt>
<totfact> 0.75475689E+03</totfact>
</mgrwt>
</event>
<event>
 5    0  0.3387552E+000  0.3167239E+03  0.7546771E-02  0.1077167E+00
         21   -1    0    0  503  501  0.00000000000E+00  0.00000000000E+00  0.70127509586E+03  0.70127509586E+03  0.00000000000E+00 0.  1.
         21   -1    0    0  504  502 -0.00000000000E+00 -0.00000000000E+00 -0.18090769635E+03  0.18090769635E+03  0.00000000000E+00 0.  1.
         25    1    1    2    0    0 -0.26028558848E+03 -0.12429611214E+03  0.19100048603E+03  0.36783732373E+03  0.12500000000E+03 0.  0.
         21    1    1    2  503  502  0.23181447842E+03  0.18584299916E+03  0.17276318542E+03  0.34368981797E+03  0.00000000000E+00 0.  1.
         21    1    1    2  504  501  0.28471110069E+02 -0.61546887023E+02  0.15660372805E+03  0.17065565051E+03  0.00000000000E+00 0.  1.
<mgrwt>
<rscale>  4 0.31672392E+03</rscale>
<asrwt>0</asrwt>
<pdfrwt beam="1">  1       21 0.10788847E+00 0.31672392E+03</pdfrwt>
<pdfrwt beam="2">  1       21 0.27831954E-01 0.31672392E+03</pdfrwt>
<totfact> 0.78450785E+03</totfact>
</mgrwt>
</event>
<event>
 5    0  0.3387552E+000  0.2532168E+03  0.7546771E-02  0.1111289E+00
         21   -1    0    0  503  501  0.00000000000E+00  0.00000000000E+00  0.97393195821E+02  0.97393195821E+02  0.00000000000E+00 0. -1.
         21   -1    0    0  504  502 -0.00000000000E+00 -0.00000000000E+00 -0.11640698340E+04  0.11640698340E+04  0.00000000000E+00 0. -1.
         25    1    1    2    0    0 -0.70376100529E+02  0.20872058823E+03 -0.96075338351E+03  0.99357392448E+03  0.12500000000E+03 0.  0.
         21    1    1    2  503  502  0.89556670660E+02 -0.20175909579E+03 -0.79760671877E+02  0.23471023576E+03  0.00000000000E+00 0. -1.
         21    1    1    2  504  501 -0.19180570132E+02 -0.69614924403E+01 -0.26162582752E+02  0.33178869538E+02  0.00000000000E+00 0. -1.
<mgrwt>
<rscale>  4 0.25321678E+03</rscale>
<asrwt>0</asrwt>
<pdfrwt beam="1">  1       21 0.14983569E-01 0.25321678E+03</pdfrwt>
<pdfrwt beam="2">  1       21 0.17908766E+00 0.25321678E+03</pdfrwt>
<totfact> 0.69307504E+03</totfact>
</mgrwt>
</event>
<event>
 5    0  0.3387552E+000  0.2470701E+03  0.7546771E-02  0.1115171E+00
         21   -1    0    0  503  501  0.00000000000E+00  0.00000000000E+00  0.73970823573E+03  0.73970823573E+03  0.00000000000E+00 0. -1.
         21   -1    0    0  501  502 -0.00000000000E+00 -0.00000000000E+00 -0.52669019674E+03  0.52669019674E+03  0.00000000000E+00 0. -1.
         25    1    1    2    0    0  0.19857403296E+03  0.77101594776E+02 -0.47457332296E+03  0.53499639377E+03  0.12500000000E+03 0.  0.
         21    1    1    2  503  504 -0.93678358672E+01  0.29507022493E+02  0.11211069826E+03  0.11630661800E+03  0.00000000000E+00 0.  1.
         21    1    1    2  504  502 -0.18920619709E+03 -0.10660861727E+03  0.57548066369E+03  0.61509542071E+03  0.00000000000E+00 0. -1.
<mgrwt>
<rscale>  4 0.24707005E+03</rscale>
<asrwt>0</asrwt>
<pdfrwt beam="1">  1       21 0.11380127E+00 0.24707005E+03</pdfrwt>
<pdfrwt beam="2">  1       21 0.81029261E-01 0.24707005E+03</pdfrwt>
<totfact> 0.76338632E+02</totfact>
</mgrwt>
</event>
<event>
 5    0  0.3387552E+000  0.3554395E+03  0.7546771E-02  0.1060404E+00
         21   -1    0    0  503  501  0.00000000000E+00  0.00000000000E+00  0.71589464282E+03  0.71589464282E+03  0.00000000000E+00 0. -1.
         21   -1    0    0  501  502 -0.00000000000E+00 -0.00000000000E+00 -0.20142210451E+03  0.20142210451E+03  0.00000000000E+00 0. -1.
         25    1    1    2    0    0 -0.19695884732E+03  0.24148212431E+03  0.23728342600E+03  0.41113845375E+03  0.12500000000E+03 0.  0.
         21    1    1    2  503  504 -0.66730947275E+02 -0.33911006236E+01  0.59818093237E+02  0.89681230847E+02  0.00000000000E+00 0.  1.
         21    1    1    2  504  502  0.26368979460E+03 -0.23809102369E+03  0.21737101907E+03  0.41649706273E+03  0.00000000000E+00 0. -1.
<mgrwt>
<rscale>  4 0.35543952E+03</rscale>
<asrwt>0</asrwt>
<pdfrwt beam="1">  1       21 0.11013764E+00 0.35543952E+03</pdfrwt>
<pdfrwt beam="2">  1       21 0.30988016E-01 0.35543952E+03</pdfrwt>
<totfact> 0.59331905E+03</totfact>
</mgrwt>
</event>
<event>
 5    0  0.3387552E+000  0.2709262E+03  0.7546771E-02  0.1100751E+00
         21   -1    0    0  502  501  0.00000000000E+00  0.00000000000E+00  0.73730287149E+03  0.73730287149E+03  0.00000000000E+00 0. -1.
         21   -1    0    0  504  502 -0.00000000000E+00 -0.00000000000E+00 -0.10287031918E+03  0.10287031918E+03  0.00000000000E+00 0. -1.
         25    1    1    2    0    0  0.58219946870E+02  0.23320901630E+03  0.19631784431E+03  0.33457690221E+03  0.12500000000E+03 0.  0.
         21    1    1    2  503  501 -0.48874547142E+02 -0.54239247037E+02  0.11954317035E+03  0.14007564690E+03  0.00000000000E+00 0. -1.
         21    1    1    2  504  503 -0.93453997287E+01 -0.17896976927E+03  0.31857153765E+03  0.36552064156E+03  0.00000000000E+00 0. -1.
<mgrwt>
<rscale>  4 0.27092620E+03</rscale>
<asrwt>0</asrwt>
<pdfrwt beam="1">  1       21 0.11343121E+00 0.27092620E+03</pdfrwt>
<pdfrwt beam="2">  1       21 0.15826203E-01 0.27092620E+03</pdfrwt>
<totfact> 0.20661207E+04</totfact>
</mgrwt>
</event>
<event>
 5    0  0.3387552E+000  0.2817960E+03  0.7546771E-02  0.1094712E+00
         21   -1    0    0  503  501  0.00000000000E+00  0.00000000000E+00  0.74379229126E+03  0.74379229126E+03  0.00000000000E+00 0.  1.
         21   -1    0    0  504  502 -0.00000000000E+00 -0.00000000000E+00 -0.13104586428E+03  0.13104586428E+03  0.00000000000E+00 0. -1.
         25    1    1    2    0    0 -0.47960506420E+02  0.26254716807E+03  0.15648117270E+03  0.33368036059E+03  0.12500000000E+03 0.  0.
         21    1    1    2  503  502  0.78678979289E+02 -0.21947292751E+03  0.32810294433E+03  0.40250501832E+03  0.00000000000E+00 0.  1.
         21    1    1    2  504  501 -0.30718472869E+02 -0.43074240554E+02  0.12816230994E+03  0.13865277662E+03  0.00000000000E+00 0.  1.
<mgrwt>
<rscale>  4 0.28179604E+03</rscale>
<asrwt>0</asrwt>
<pdfrwt beam="1">  1       21 0.11442958E+00 0.28179604E+03</pdfrwt>
<pdfrwt beam="2">  1       21 0.20160903E-01 0.28179604E+03</pdfrwt>
<totfact> 0.12811188E+04</totfact>
</mgrwt>
</event>
<event>
 5    0  0.3387552E+000  0.3823015E+03  0.7546771E-02  0.1050086E+00
         21   -1    0    0  502  501  0.00000000000E+00  0.00000000000E+00  0.90010472011E+03  0.90010472011E+03  0.00000000000E+00 0. -1.
         21   -1    0    0  503  502 -0.00000000000E+00 -0.00000000000E+00 -0.26979163909E+03  0.26979163909E+03  0.00000000000E+00 0. -1.
         25    1    1    2    0    0  0.13071567419E+03  0.24711370368E+03 -0.30946864158E+02  0.30778966589E+03  0.12500000000E+03 0.  0.
         21    1    1    2  503  504  0.68068486115E+02  0.85304352850E+02  0.17094329630E+02  0.11046432692E+03  0.00000000000E+00 0.  1.
         21    1    1    2  504  501 -0.19878416030E+03 -0.33241805653E+03  0.64416561555E+03  0.75164236639E+03  0.00000000000E+00 0. -1.
<mgrwt>
<rscale>  4 0.38230148E+03</rscale>
<asrwt>0</asrwt>
<pdfrwt beam="1">  1       21 0.13847765E+00 0.38230148E+03</pdfrwt>
<pdfrwt beam="2">  1       21 0.41506406E-01 0.38230148E+03</pdfrwt>
<totfact> 0.18131136E+03</totfact>
</mgrwt>
</event>
<event>
 5    0  0.3387552E+000  0.2081308E+03  0.7546771E-02  0.1143055E+00
         21   -1    0    0  503  501  0.00000000000E+00  0.00000000000E+00  0.15944766670E+03  0.15944766670E+03  0.00000000000E+00 0.  1.
         21   -1    0    0  504  502 -0.00000000000E+00 -0.00000000000E+00 -0.80413430774E+03  0.80413430774E+03  0.00000000000E+00 0. -1.
         25    1    1    2    0    0  0.49834503507E+02  0.22769131498E+03 -0.46320701091E+03  0.53339717623E+03  0.12500000000E+03 0.  0.
         21    1    1    2  503  502 -0.44864762178E+02 -0.12824458899E+03 -0.26657737589E+03  0.29920397529E+03  0.00000000000E+00 0. -1.
         21    1    1    2  504  501 -0.49697413293E+01 -0.99446725982E+02  0.85097745762E+02  0.13098082291E+03  0.00000000000E+00 0.  1.
<mgrwt>
<rscale>  4 0.20813085E+03</rscale>
<asrwt>0</asrwt>
<pdfrwt beam="1">  1       21 0.24530410E-01 0.20813085E+03</pdfrwt>
<pdfrwt beam="2">  1       21 0.12371297E+00 0.20813085E+03</pdfrwt>
<totfact> 0.75989969E+03</totfact>
</mgrwt>
</event>
<event>
 5    0  0.3387552E+000  0.2574191E+03  0.7546771E-02  0.1108704E+00
         21   -1    0    0  502  501  0.00000000000E+00  0.00000000000E+00  0.11275560646E+04  0.11275560646E+04  0.00000000000E+00 0. -1.
         21   -1    0    0  503  502 -0.00000000000E+00 -0.00000000000E+00 -0.74051335865E+02  0.74051335865E+02  0.00000000000E+00 0. -1.
         25    1    1    2    0    0  0.18498238834E+02  0.19957117293E+03  0.38628895259E+03  0.45278581338E+03  0.12500000000E+03 0.  0.
         21    1    1    2  503  504 -0.25806799773E+02  0.50161932775E+02  0.29621822891E+03  0.30154178740E+03  0.00000000000E+00 0. -1.
         21    1    1    2  504  501  0.73085609390E+01 -0.24973310570E+03  0.37099754723E+03  0.44727979967E+03  0.00000000000E+00 0. -1.
<mgrwt>
<rscale>  4 0.25741913E+03</rscale>
<asrwt>0</asrwt>
<pdfrwt beam="1">  1       21 0.17347015E+00 0.25741913E+03</pdfrwt>
<pdfrwt beam="2">  1       21 0.11392514E-01 0.25741913E+03</pdfrwt>
<totfact> 0.12432491E+04</totfact>
</mgrwt>
</event>
<event>
 5    0  0.3387552E+000  0.2243502E+03  0.7546771E-02  0.1130681E+00
         21   -1    0    0  503  501  0.00000000000E+00  0.00000000000E+00  0.62689518594E+03  0.62689518594E+03  0.00000000000E+00 0. -1.
         21   -1    0    0  501  502 -0.00000000000E+00 -0.00000000000E+00 -0.14059314567E+03  0.14059314567E+03  0.00000000000E+00 0. -1.
         25    1    1    2    0    0  0.20991063463E+03 -0.78535608420E+01  0.23535075603E+03  0.33932157508E+03  0.12500000000E+03 0.  0.
         21    1    1    2  503  504 -0.31202400652E+02  0.33351913908E+01  0.24738349791E+03  0.24936581230E+03  0.00000000000E+00 0. -1.
         21    1    1    2  504  502 -0.17870823398E+03  0.45183694512E+01  0.35677863340E+01  0.17880094422E+03  0.00000000000E+00 0. -1.
<mgrwt>
<rscale>  4 0.22435016E+03</rscale>
<asrwt>0</asrwt>
<pdfrwt beam="1">  1       21 0.96445412E-01 0.22435016E+03</pdfrwt>
<pdfrwt beam="2">  1       21 0.21629715E-01 0.22435016E+03</pdfrwt>
<totfact> 0.17478793E+04</totfact>
</mgrwt>
</event>
<event>
 5    0  0.3387552E+000  0.2683857E+03  0.7546771E-02  0.1102207E+00
         21   -1    0    0  503  501  0.00000000000E+00  0.00000000000E+00  0.13329905825E+03  0.13329905825E+03  0.00000000000E+00 0.  1.
         21   -1    0    0  501  502 -0.00000000000E+00 -0.00000000000E+00 -0.13875010705E+04  0.13875010705E+04  0.00000000000E+00 0. -1.
         25    1    1    2    0    0 -0.48844380639E+02  0.23242231163E+03 -0.12525369319E+04  0.12809682549E+04  0.12500000000E+03 0.  0.
         21    1    1    2  503  504  0.15717121944E+01 -0.22043713826E+02  0.91903261480E+01  0.23934445747E+02  0.00000000000E+00 0.  1.
         21    1    1    2  504  502  0.47272668444E+02 -0.21037859781E+03 -0.10855406536E+02  0.21589742807E+03  0.00000000000E+00 0.  1.
<mgrwt>
<rscale>  4 0.26838574E+03</rscale>
<asrwt>0</asrwt>
<pdfrwt beam="1">  1       21 0.20507549E-01 0.26838574E+03</pdfrwt>
<pdfrwt beam="2">  1       21 0.21346169E+00 0.26838574E+03</pdfrwt>
<totfact> 0.22718456E+03</totfact>
</mgrwt>
</event>
<event>
 5    0  0.3387552E+000  0.3262516E+03  0.7546771E-02  0.1072808E+00
         21   -1    0    0  503  501  0.00000000000E+00  0.00000000000E+00  0.32077365833E+03  0.32077365833E+03  0.00000000000E+00 0.  1.
         21   -1    0    0  504  502 -0.00000000000E+00 -0.00000000000E+00 -0.17116227096E+04  0.17116227096E+04  0.00000000000E+00 0. -1.
         25    1    1    2    0    0 -0.28393515255E+03  0.12068472786E+03 -0.15824527776E+04  0.16170855783E+04  0.12500000000E+03 0.  0.
         21    1    1    2  503  502  0.12672949649E+03  0.35758744409E+02  0.16446168806E+02  0.13270090259E+03  0.00000000000E+00 0. -1.
         21    1    1    2  504  501  0.15720565606E+03 -0.15644347227E+03  0.17515755747E+03  0.28260988704E+03  0.00000000000E+00 0.  1.
<mgrwt>
<rscale>  4 0.32625161E+03</rscale>
<asrwt>0</asrwt>
<pdfrwt beam="1">  1       21 0.49349793E-01 0.32625161E+03</pdfrwt>
<pdfrwt beam="2">  1       21 0.26332657E+00 0.32625161E+03</pdfrwt>
<totfact> 0.18764788E+02</totfact>
</mgrwt>
</event>
<event>
 5    0  0.3387552E+000  0.2660045E+03  0.7546771E-02  0.1103588E+00
         21   -1    0    0  502  501  0.00000000000E+00  0.00000000000E+00  0.88735893055E+03  0.88735893055E+03  0.00000000000E+00 0. -1.
         21   -1    0    0  504  502 -0.00000000000E+00 -0.00000000000E+00 -0.29039319285E+03  0.29039319285E+03  0.00000000000E+00 0.  1.
         25    1    1    2    0    0  0.22243939375E+03  0.11395018130E+03 -0.13755168372E+03  0.31146330988E+03  0.12500000000E+03 0.  0.
         21    1    1    2  503  501 -0.23587495667E+03  0.11391706130E+02  0.69524002759E+03  0.73425163405E+03  0.00000000000E+00 0. -1.
         21    1    1    2  504  503  0.13435562924E+02 -0.12534188743E+03  0.39277393832E+02  0.13203717947E+03  0.00000000000E+00 0. -1.
<mgrwt>
<rscale>  4 0.26600445E+03</rscale>
<asrwt>0</asrwt>
<pdfrwt beam="1">  1       21 0.13651676E+00 0.26600445E+03</pdfrwt>
<pdfrwt beam="2">  1       21 0.44675876E-01 0.26600445E+03</pdfrwt>
<totfact> 0.17280385E+03</totfact>
</mgrwt>
</event>
<event>
 5    0  0.3387552E+000  0.2430196E+03  0.7546771E-02  0.1117797E+00
         21   -1    0    0  502  501  0.00000000000E+00  0.00000000000E+00  0.77503962725E+03  0.77503962725E+03  0.00000000000E+00 0.  1.
         21   -1    0    0  503  502 -0.00000000000E+00 -0.00000000000E+00 -0.11905846847E+03  0.11905846847E+03  0.00000000000E+00 0.  1.
         25    1    1    2    0    0  0.16683275334E+03 -0.12933930677E+03  0.55414465586E+02  0.25151060983E+03  0.12500000000E+03 0.  0.
         21    1    1    2  503  504 -0.23428689257E+02 -0.88027093680E+01  0.35270795800E+02  0.43248354984E+02  0.00000000000E+00 0. -1.
         21    1    1    2  504  501 -0.14340406408E+03  0.13814201614E+03  0.56529589739E+03  0.59933913090E+03  0.00000000000E+00 0.  1.
<mgrwt>
<rscale>  4 0.24301961E+03</rscale>
<asrwt>0</asrwt>
<pdfrwt beam="1">  1       21 0.11923686E+00 0.24301961E+03</pdfrwt>
<pdfrwt beam="2">  1       21 0.18316688E-01 0.24301961E+03</pdfrwt>
<totfact> 0.14132970E+04</totfact>
</mgrwt>
</event>
<event>
 5    0  0.3387552E+000  0.2571961E+03  0.7546771E-02  0.1108840E+00
         21   -1    0    0  503  501  0.00000000000E+00  0.00000000000E+00  0.56074919135E+03  0.56074919135E+03  0.00000000000E+00 0.  1.
         21   -1    0    0  501  502 -0.00000000000E+00 -0.00000000000E+00 -0.10104666431E+04  0.10104666431E+04  0.00000000000E+00 0. -1.
         25    1    1    2    0    0  0.17746755514E+03  0.15297365982E+03 -0.55322594346E+03  0.61366083324E+03  0.12500000000E+03 0.  0.
         21    1    1    2  503  504 -0.22527510264E+03 -0.20027858201E+02  0.49344917900E+03  0.54280943178E+03  0.00000000000E+00 0.  1.
         21    1    1    2  504  502  0.47807547493E+02 -0.13294580162E+03 -0.38994068732E+03  0.41474556947E+03  0.00000000000E+00 0. -1.
<mgrwt>
<rscale>  4 0.25719606E+03</rscale>
<asrwt>0</asrwt>
<pdfrwt beam="1">  1       21 0.86269107E-01 0.25719606E+03</pdfrwt>
<pdfrwt beam="2">  1       21 0.15545641E+00 0.25719606E+03</pdfrwt>
<totfact> 0.29404260E+02</totfact>
</mgrwt>
</event>
<event>
 5    0  0.3387552E+000  0.3039509E+03  0.7546771E-02  0.1083282E+00
         21   -1    0    0  502  501  0.00000000000E+00  0.00000000000E+00  0.79950274395E+03  0.79950274395E+03  0.00000000000E+00 0.  1.
         21   -1    0    0  503  502 -0.00000000000E+00 -0.00000000000E+00 -0.20161345960E+03  0.20161345960E+03  0.00000000000E+00 0.  1.
         25    1    1    2    0    0  0.26252154099E+03 -0.12386009183E+03 -0.12548353331E+02  0.31629312829E+03  0.12500000000E+03 0.  0.
         21    1    1    2  503  504 -0.23074200642E+02 -0.10856854351E+02  0.16377087347E+02  0.30306748615E+02  0.00000000000E+00 0. -1.
         21    1    1    2  504  501 -0.23944734035E+03  0.13471694618E+03  0.59406055033E+03  0.65451632665E+03  0.00000000000E+00 0.  1.
<mgrwt>
<rscale>  4 0.30395085E+03</rscale>
<asrwt>0</asrwt>
<pdfrwt beam="1">  1       21 0.12300042E+00 0.30395085E+03</pdfrwt>
<pdfrwt beam="2">  1       21 0.31017456E-01 0.30395085E+03</pdfrwt>
<totfact> 0.46069819E+03</totfact>
</mgrwt>
</event>
<event>
 5    0  0.3387552E+000  0.2334716E+03  0.7546771E-02  0.1124220E+00
         21   -1    0    0  503  501  0.00000000000E+00  0.00000000000E+00  0.88185548725E+02  0.88185548725E+02  0.00000000000E+00 0.  1.
         21   -1    0    0  504  502 -0.00000000000E+00 -0.00000000000E+00 -0.14477893949E+04  0.14477893949E+04  0.00000000000E+00 0.  1.
         25    1    1    2    0    0  0.10891748484E+03 -0.22922399577E+03 -0.10773581729E+04  0.11138816326E+04  0.12500000000E+03 0.  0.
         21    1    1    2  503  502 -0.88520913915E+02  0.11289540268E+03 -0.26687904334E+03  0.30299463348E+03  0.00000000000E+00 0.  1.
         21    1    1    2  504  501 -0.20396570921E+02  0.11632859309E+03 -0.15366629940E+02  0.11909867754E+03  0.00000000000E+00 0.  1.
<mgrwt>
<rscale>  4 0.23347156E+03</rscale>
<asrwt>0</asrwt>
<pdfrwt beam="1">  1       21 0.13567008E-01 0.23347156E+03</pdfrwt>
<pdfrwt beam="2">  1       21 0.22273682E+00 0.23347156E+03</pdfrwt>
<totfact> 0.43873913E+03</totfact>
</mgrwt>
</event>
<event>
 5    0  0.3387552E+000  0.3249288E+03  0.7546771E-02  0.1073403E+00
         21   -1    0    0  502  501  0.00000000000E+00  0.00000000000E+00  0.82702813913E+03  0.82702813913E+03  0.00000000000E+00 0.  1.
         21   -1    0    0  504  502 -0.00000000000E+00 -0.00000000000E+00 -0.24033012227E+04  0.24033012227E+04  0.00000000000E+00 0.  1.
         25    1    1    2    0    0  0.29289607821E+03  0.64541502426E+02 -0.23627823553E+04  0.23850197434E+04  0.12500000000E+03 0.  0.
         21    1    1    2  503  501 -0.25923404905E+03 -0.77897744385E+02  0.65072687835E+03  0.70478068999E+03  0.00000000000E+00 0.  1.
         21    1    1    2  504  503 -0.33662029164E+02  0.13356241959E+02  0.13578239330E+03  0.14052892847E+03  0.00000000000E+00 0. -1.
<mgrwt>
<rscale>  4 0.32492879E+03</rscale>
<asrwt>0</asrwt>
<pdfrwt beam="1">  1       21 0.12723510E+00 0.32492879E+03</pdfrwt>
<pdfrwt beam="2">  1       21 0.36973864E+00 0.32492879E+03</pdfrwt>
<totfact> 0.49003919E+00</totfact>
</mgrwt>
</event>
<event>
 5    0  0.3387552E+000  0.2391394E+03  0.7546771E-02  0.1120367E+00
         21   -1    0    0  503  501  0.00000000000E+00  0.00000000000E+00  0.73115235716E+03  0.73115235716E+03  0.00000000000E+00 0.  1.
         21   -1    0    0  501  502 -0.00000000000E+00 -0.00000000000E+00 -0.71004574575E+03  0.71004574575E+03  0.00000000000E+00 0.  1.
         25    1    1    2    0    0 -0.14860018704E+03  0.14004356161E+03 -0.66937063935E+03  0.71089821182E+03  0.12500000000E+03 0.  0.
         21    1    1    2  503  504  0.15197595809E+03 -0.12023827109E+03  0.68109290414E+03  0.70812532630E+03  0.00000000000E+00 0.  1.
         21    1    1    2  504  502 -0.33757710495E+01 -0.19805290517E+02  0.93843466217E+01  0.22174564802E+02  0.00000000000E+00 0.  1.
<mgrwt>
<rscale>  4 0.23913943E+03</rscale>
<asrwt>0</asrwt>
<pdfrwt beam="1">  1       21 0.11248498E+00 0.23913943E+03</pdfrwt>
<pdfrwt beam="2">  1       21 0.10923781E+00 0.23913943E+03</pdfrwt>
<totfact> 0.39130219E+02</totfact>
</mgrwt>
</event>
<event>
 5    0  0.3387552E+000  0.3199909E+03  0.7546771E-02  0.1075654E+00
         21   -1    0    0  502  501  0.00000000000E+00  0.00000000000E+00  0.11299839458E+04  0.11299839458E+04  0.00000000000E+00 0. -1.
         21   -1    0    0  503  502 -0.00000000000E+00 -0.00000000000E+00 -0.10079069241E+03  0.10079069241E+03  0.00000000000E+00 0. -1.
         25    1    1    2    0    0  0.22639562183E+03  0.17803957322E+03  0.40261682381E+03  0.51056671849E+03  0.12500000000E+03 0.  0.
         21    1    1    2  503  504  0.35063321644E+02 -0.23861008914E+02  0.14394623880E+03  0.15006433266E+03  0.00000000000E+00 0. -1.
         21    1    1    2  504  501 -0.26145894348E+03 -0.15417856430E+03  0.48263019081E+03  0.57014358708E+03  0.00000000000E+00 0. -1.
<mgrwt>
<rscale>  4 0.31999085E+03</rscale>
<asrwt>0</asrwt>
<pdfrwt beam="1">  1       21 0.17384368E+00 0.31999085E+03</pdfrwt>
<pdfrwt beam="2">  1       21 0.15506261E-01 0.31999085E+03</pdfrwt>
<totfact> 0.68127858E+03</totfact>
</mgrwt>
</event>
<event>
 5    0  0.3387552E+000  0.2963850E+03  0.7546771E-02  0.1087062E+00
         21   -1    0    0  503  501  0.00000000000E+00  0.00000000000E+00  0.81488474636E+03  0.81488474636E+03  0.00000000000E+00 0. -1.
         21   -1    0    0  501  502 -0.00000000000E+00 -0.00000000000E+00 -0.10465497421E+03  0.10465497421E+03  0.00000000000E+00 0. -1.
         25    1    1    2    0    0  0.26035314954E+03  0.66597975510E+02  0.30973530699E+03  0.42869571168E+03  0.12500000000E+03 0.  0.
         21    1    1    2  503  504 -0.35098201067E+02  0.56350143250E+01  0.15055483049E+02  0.38604464436E+02  0.00000000000E+00 0.  1.
         21    1    1    2  504  502 -0.22525494847E+03 -0.72232989835E+02  0.38543898212E+03  0.45223954446E+03  0.00000000000E+00 0. -1.
<mgrwt>
<rscale>  4 0.29638497E+03</rscale>
<asrwt>0</asrwt>
<pdfrwt beam="1">  1       21 0.12536688E+00 0.29638497E+03</pdfrwt>
<pdfrwt beam="2">  1       21 0.16100766E-01 0.29638497E+03</pdfrwt>
<totfact> 0.15406853E+04</totfact>
</mgrwt>
</event>
<event>
 5    0  0.3387552E+000  0.3042922E+03  0.7546771E-02  0.1083114E+00
         21   -1    0    0  503  501  0.00000000000E+00  0.00000000000E+00  0.28395758389E+03  0.28395758389E+03  0.00000000000E+00 0. -1.
         21   -1    0    0  504  502 -0.00000000000E+00 -0.00000000000E+00 -0.76791210783E+03  0.76791210783E+03  0.00000000000E+00 0. -1.
         25    1    1    2    0    0 -0.71089722379E+02  0.26833371070E+03 -0.64350618732E+03  0.71188618616E+03  0.12500000000E+03 0.  0.
         21    1    1    2  503  502  0.49542116908E+02 -0.27263156077E+03  0.15514950089E+03  0.31757480521E+03  0.00000000000E+00 0. -1.
         21    1    1    2  504  501  0.21547605470E+02  0.42978500720E+01  0.44021624971E+01  0.22408700351E+02  0.00000000000E+00 0. -1.
<mgrwt>
<rscale>  4 0.30429223E+03</rscale>
<asrwt>0</asrwt>
<pdfrwt beam="1">  1       21 0.43685783E-01 0.30429223E+03</pdfrwt>
<pdfrwt beam="2">  1       21 0.11814032E+00 0.30429223E+03</pdfrwt>
<totfact> 0.25521704E+03</totfact>
</mgrwt>
</event>
<event>
 5    0  0.3387552E+000  0.3306544E+03  0.7546771E-02  0.1070848E+00
         21   -1    0    0  503  501  0.00000000000E+00  0.00000000000E+00  0.87708455192E+02  0.87708455192E+02  0.00000000000E+00 0. -1.
         21   -1    0    0  504  502 -0.00000000000E+00 -0.00000000000E+00 -0.12534747013E+04  0.12534747013E+04  0.00000000000E+00 0. -1.
         25    1    1    2    0    0  0.30258104265E+03  0.24636729292E+02 -0.65595224601E+03  0.73352614462E+03  0.12500000000E+03 0.  0.
         21    1    1    2  503  502 -0.30934958298E+03 -0.52726106309E+01 -0.48707324266E+03  0.57703146242E+03  0.00000000000E+00 0. -1.
         21    1    1    2  504  501  0.67685403315E+01 -0.19364118661E+02 -0.22740757419E+02  0.30625549428E+02  0.00000000000E+00 0. -1.
<mgrwt>
<rscale>  4 0.33065436E+03</rscale>
<asrwt>0</asrwt>
<pdfrwt beam="1">  1       21 0.13493609E-01 0.33065436E+03</pdfrwt>
<pdfrwt beam="2">  1       21 0.19284226E+00 0.33065436E+03</pdfrwt>
<totfact> 0.64707741E+03</totfact>
</mgrwt>
</event>
<event>
 5    0  0.3387552E+000  0.2910850E+03  0.7546771E-02  0.1089784E+00
         21   -1    0    0  502  501  0.00000000000E+00  0.00000000000E+00  0.44080947670E+03  0.44080947670E+03  0.00000000000E+00 0.  1.
         21   -1    0    0  503  502 -0.00000000000E+00 -0.00000000000E+00 -0.18191437544E+04  0.18191437544E+04  0.00000000000E+00 0.  1.
         25    1    1    2    0    0 -0.96223146300E+02  0.24386858558E+03 -0.17217243358E+04  0.17460499619E+04  0.12500000000E+03 0.  0.
         21    1    1    2  503  504  0.33157392619E+02  0.39522261425E+02 -0.13997305599E+02  0.53454152294E+02  0.00000000000E+00 0.  1.
         21    1    1    2  504  501  0.63065753682E+02 -0.28339084700E+03  0.35738736375E+03  0.46044911687E+03  0.00000000000E+00 0.  1.
<mgrwt>
<rscale>  4 0.29108501E+03</rscale>
<asrwt>0</asrwt>
<pdfrwt beam="1">  1       21 0.67816841E-01 0.29108501E+03</pdfrwt>
<pdfrwt beam="2">  1       21 0.27986828E+00 0.29108501E+03</pdfrwt>
<totfact> 0.77858372E+01</totfact>
</mgrwt>
</event>
<event>
 5    0  0.3387552E+000  0.2905881E+03  0.7546771E-02  0.1090042E+00
         21   -1    0    0  502  501  0.00000000000E+00  0.00000000000E+00  0.70035787332E+02  0.70035787332E+02  0.00000000000E+00 0. -1.
         21   -1    0    0  504  502 -0.00000000000E+00 -0.00000000000E+00 -0.24684598265E+04  0.24684598265E+04  0.00000000000E+00 0.  1.
         25    1    1    2    0    0 -0.22877401911E+03  0.61944477779E+02 -0.20279506257E+04  0.20455765472E+04  0.12500000000E+03 0.  0.
         21    1    1    2  503  501  0.26265715660E+03 -0.43661214194E+02 -0.24556524953E+03  0.36221178241E+03  0.00000000000E+00 0. -1.
         21    1    1    2  504  503 -0.33883137491E+02 -0.18283263585E+02 -0.12490816398E+03  0.13070728427E+03  0.00000000000E+00 0. -1.
<mgrwt>
<rscale>  4 0.29058812E+03</rscale>
<asrwt>0</asrwt>
<pdfrwt beam="1">  1       21 0.10774738E-01 0.29058812E+03</pdfrwt>
<pdfrwt beam="2">  1       21 0.37976299E+00 0.29058812E+03</pdfrwt>
<totfact> 0.73040402E+02</totfact>
</mgrwt>
</event>
<event>
 5    0  0.3387552E+000  0.2431234E+03  0.7546771E-02  0.1117729E+00
         21   -1    0    0  502  501  0.00000000000E+00  0.00000000000E+00  0.11583274482E+04  0.11583274482E+04  0.00000000000E+00 0. -1.
         21   -1    0    0  503  502 -0.00000000000E+00 -0.00000000000E+00 -0.63721195094E+02  0.63721195094E+02  0.00000000000E+00 0.  1.
         25    1    1    2    0    0 -0.11823847004E+03  0.17176622313E+03  0.24558805201E+03  0.34557555251E+03  0.12500000000E+03 0.  0.
         21    1    1    2  503  504  0.39584470844E+02 -0.24780408392E+02  0.12315775940E+03  0.13171496753E+03  0.00000000000E+00 0. -1.
         21    1    1    2  504  501  0.78653999194E+02 -0.14698581474E+03  0.72586044174E+03  0.74475812329E+03  0.00000000000E+00 0. -1.
<mgrwt>
<rscale>  4 0.24312337E+03</rscale>
<asrwt>0</asrwt>
<pdfrwt beam="1">  1       21 0.17820421E+00 0.24312337E+03</pdfrwt>
<pdfrwt beam="2">  1       21 0.98032617E-02 0.24312337E+03</pdfrwt>
<totfact> 0.15192160E+04</totfact>
</mgrwt>
</event>
