<event>
 5    0  0.1257040E+001  0.3214900E+03  0.7546771E-02  0.1074966E+00
         21   -1    0    0  503  501  0.00000000000E+00  0.00000000000E+00  0.59161920749E+02  0.59161920749E+02  0.00000000000E+00 0. -1.
         21   -1    0    0  504  502 -0.00000000000E+00 -0.00000000000E+00 -0.21769291410E+04  0.21769291410E+04  0.00000000000E+00 0. -1.
         25    1    1    2    0    0  0.27878339687E+03  0.91578638590E+02 -0.15149000979E+04  0.15481130889E+04  0.12500000000E+03 0.  0.
         21    1    1    2  503  502  0.10055454240E+01  0.26162354677E+02 -0.69679050611E+02  0.74435542706E+02  0.00000000000E+00 0.  1.
         21    1    1    2  504  501 -0.27978894230E+03 -0.11774099327E+03 -0.53318807168E+03  0.61354243008E+03  0.00000000000E+00 0. -1.
<mgrwt>
<rscale>  4 0.32148997E+03</rscale>
<asrwt>0</asrwt>
<pdfrwt beam="1">  1       21 0.91018338E-02 0.32148997E+03</pdfrwt>
<pdfrwt beam="2">  1       21 0.33491218E+00 0.32148997E+03</pdfrwt>
<totfact> 0.17987410E+03</totfact>
</mgrwt>
</event>
<event>
 5    0  0.1257040E+001  0.2819190E+03  0.7546771E-02  0.1094645E+00
         21   -1    0    0  504  501  0.00000000000E+00  0.00000000000E+00  0.27318598476E+03  0.27318598476E+03  0.00000000000E+00 0.  1.
         21   -1    0    0  503  502 -0.00000000000E+00 -0.00000000000E+00 -0.38799080792E+03  0.38799080792E+03  0.00000000000E+00 0.  1.
         25    1    1    2    0    0 -0.21588214121E+02  0.23681961004E+03  0.11777458896E+03  0.29333501750E+03  0.12500000000E+03 0.  0.
         21    1    1    2  503  501  0.30127219618E+02 -0.25504245572E+03 -0.23431062162E+03  0.34764316617E+03  0.00000000000E+00 0.  1.
         21    1    1    2  504  502 -0.85390054963E+01  0.18222845679E+02  0.17312095093E+01  0.20198609008E+02  0.00000000000E+00 0. -1.
<mgrwt>
<rscale>  4 0.28191901E+03</rscale>
<asrwt>0</asrwt>
<pdfrwt beam="1">  1       21 0.42028613E-01 0.28191901E+03</pdfrwt>
<pdfrwt beam="2">  1       21 0.59690894E-01 0.28191901E+03</pdfrwt>
<totfact> 0.13590588E+04</totfact>
</mgrwt>
</event>
<event>
 5    0  0.1257040E+001  0.5748267E+03  0.7546771E-02  0.9959054E-01
         21   -1    0    0  503  501  0.00000000000E+00  0.00000000000E+00  0.69491874730E+03  0.69491874730E+03  0.00000000000E+00 0. -1.
         21   -1    0    0  504  502 -0.00000000000E+00 -0.00000000000E+00 -0.76777581731E+03  0.76777581731E+03  0.00000000000E+00 0. -1.
         25    1    1    2    0    0  0.49197441238E+03 -0.31063180717E+03  0.24248862994E+03  0.64261705370E+03  0.12500000000E+03 0.  0.
         21    1    1    2  503  502 -0.49463974099E+03  0.25213096738E+03 -0.42269814925E+03  0.69779095971E+03  0.00000000000E+00 0. -1.
         21    1    1    2  504  501  0.26653286132E+01  0.58500839793E+02  0.10735244929E+03  0.12228655119E+03  0.00000000000E+00 0.  1.
<mgrwt>
<rscale>  4 0.57482671E+03</rscale>
<asrwt>0</asrwt>
<pdfrwt beam="1">  1       21 0.10691058E+00 0.57482671E+03</pdfrwt>
<pdfrwt beam="2">  1       21 0.11811936E+00 0.57482671E+03</pdfrwt>
<totfact> 0.30164037E+02</totfact>
</mgrwt>
</event>
<event>
 5    0  0.1257040E+001  0.2608365E+03  0.7546771E-02  0.1106642E+00
         21   -1    0    0  504  501  0.00000000000E+00  0.00000000000E+00  0.32497415430E+03  0.32497415430E+03  0.00000000000E+00 0.  1.
         21   -1    0    0  503  502 -0.00000000000E+00 -0.00000000000E+00 -0.27458838280E+03  0.27458838280E+03  0.00000000000E+00 0.  1.
         25    1    1    2    0    0  0.89283312767E+02 -0.22496768505E+03  0.23132952552E+02  0.27339001948E+03  0.12500000000E+03 0.  0.
         21    1    1    2  503  501 -0.14518546333E+03  0.17215702791E+03 -0.34130588470E+02  0.22777567493E+03  0.00000000000E+00 0.  1.
         21    1    1    2  504  502  0.55902150562E+02  0.52810657138E+02  0.61383407413E+02  0.98396842685E+02  0.00000000000E+00 0.  1.
<mgrwt>
<rscale>  4 0.26083647E+03</rscale>
<asrwt>0</asrwt>
<pdfrwt beam="1">  1       21 0.49996024E-01 0.26083647E+03</pdfrwt>
<pdfrwt beam="2">  1       21 0.42244366E-01 0.26083647E+03</pdfrwt>
<totfact> 0.19815975E+04</totfact>
</mgrwt>
</event>
<event>
 5    0  0.1257040E+001  0.3320442E+03  0.7546771E-02  0.1070236E+00
         21   -1    0    0  502  501  0.00000000000E+00  0.00000000000E+00  0.33813637882E+03  0.33813637882E+03  0.00000000000E+00 0. -1.
         21   -1    0    0  504  502 -0.00000000000E+00 -0.00000000000E+00 -0.49293327088E+03  0.49293327088E+03  0.00000000000E+00 0. -1.
         25    1    1    2    0    0  0.62099089728E+02 -0.28917908767E+03 -0.51553962003E+02  0.32521324187E+03  0.12500000000E+03 0.  0.
         21    1    1    2  503  501 -0.13571815418E+02 -0.21937260877E+02  0.11815225975E+03  0.12093549550E+03  0.00000000000E+00 0. -1.
         21    1    1    2  504  503 -0.48527274310E+02  0.31111634855E+03 -0.22139518980E+03  0.38492091234E+03  0.00000000000E+00 0. -1.
<mgrwt>
<rscale>  4 0.33204421E+03</rscale>
<asrwt>0</asrwt>
<pdfrwt beam="1">  1       21 0.52020981E-01 0.33204421E+03</pdfrwt>
<pdfrwt beam="2">  1       21 0.75835888E-01 0.33204421E+03</pdfrwt>
<totfact> 0.50051629E+03</totfact>
</mgrwt>
</event>
<event>
 5    0  0.1257040E+001  0.3586780E+03  0.7546771E-02  0.1059109E+00
         21   -1    0    0  502  501  0.00000000000E+00  0.00000000000E+00  0.72895663552E+03  0.72895663552E+03  0.00000000000E+00 0. -1.
         21   -1    0    0  504  502 -0.00000000000E+00 -0.00000000000E+00 -0.37876817504E+03  0.37876817504E+03  0.00000000000E+00 0. -1.
         25    1    1    2    0    0 -0.62826534738E+02 -0.33398826408E+03 -0.18321580968E+03  0.40581814514E+03  0.12500000000E+03 0.  0.
         21    1    1    2  503  501  0.27780981387E+02  0.33471162928E+03  0.56330548321E+03  0.65583284846E+03  0.00000000000E+00 0. -1.
         21    1    1    2  504  503  0.35045553351E+02 -0.72336520685E+00 -0.29901213060E+02  0.46073816961E+02  0.00000000000E+00 0. -1.
<mgrwt>
<rscale>  4 0.35867801E+03</rscale>
<asrwt>0</asrwt>
<pdfrwt beam="1">  1       21 0.11214717E+00 0.35867801E+03</pdfrwt>
<pdfrwt beam="2">  1       21 0.58272027E-01 0.35867801E+03</pdfrwt>
<totfact> 0.15330230E+03</totfact>
</mgrwt>
</event>
<event>
 5    0  0.1257040E+001  0.2199446E+03  0.7546771E-02  0.1133924E+00
         21   -1    0    0  502  501  0.00000000000E+00  0.00000000000E+00  0.29544668306E+03  0.29544668306E+03  0.00000000000E+00 0. -1.
         21   -1    0    0  504  502 -0.00000000000E+00 -0.00000000000E+00 -0.66677653581E+03  0.66677653581E+03  0.00000000000E+00 0.  1.
         25    1    1    2    0    0  0.28477419425E+03  0.74808974703E+02 -0.59465107934E+02  0.32535184565E+03  0.12500000000E+03 0.  0.
         21    1    1    2  503  501 -0.14960561825E+03 -0.47748928313E+02  0.11086619369E+03  0.19223192781E+03  0.00000000000E+00 0. -1.
         21    1    1    2  504  503 -0.13516857600E+03 -0.27060046390E+02 -0.42273093850E+03  0.44463944541E+03  0.00000000000E+00 0.  1.
<mgrwt>
<rscale>  4 0.21994464E+03</rscale>
<asrwt>0</asrwt>
<pdfrwt beam="1">  1       21 0.45453336E-01 0.21994464E+03</pdfrwt>
<pdfrwt beam="2">  1       21 0.10258100E+00 0.21994464E+03</pdfrwt>
<totfact> 0.35080897E+03</totfact>
</mgrwt>
</event>
<event>
 5    0  0.1257040E+001  0.4251442E+03  0.7546771E-02  0.1035405E+00
         21   -1    0    0  502  501  0.00000000000E+00  0.00000000000E+00  0.36080049622E+03  0.36080049622E+03  0.00000000000E+00 0. -1.
         21   -1    0    0  504  502 -0.00000000000E+00 -0.00000000000E+00 -0.94117910153E+03  0.94117910153E+03  0.00000000000E+00 0. -1.
         25    1    1    2    0    0 -0.88125985544E+02 -0.40789940264E+03  0.12083981396E+03  0.45207894514E+03  0.12500000000E+03 0.  0.
         21    1    1    2  503  501  0.22237563236E+02  0.89061467317E+01  0.14380971556E+02  0.27939953672E+02  0.00000000000E+00 0. -1.
         21    1    1    2  504  503  0.65888422308E+02  0.39899325591E+03 -0.71559939082E+03  0.82196069894E+03  0.00000000000E+00 0. -1.
<mgrwt>
<rscale>  4 0.42514423E+03</rscale>
<asrwt>0</asrwt>
<pdfrwt beam="1">  1       21 0.55507768E-01 0.42514423E+03</pdfrwt>
<pdfrwt beam="2">  1       21 0.14479679E+00 0.42514423E+03</pdfrwt>
<totfact> 0.85460334E+02</totfact>
</mgrwt>
</event>
<event>
 5    0  0.1257040E+001  0.2512458E+03  0.7546771E-02  0.1112520E+00
         21   -1    0    0  502  501  0.00000000000E+00  0.00000000000E+00  0.23326227704E+03  0.23326227704E+03  0.00000000000E+00 0. -1.
         21   -1    0    0  504  502 -0.00000000000E+00 -0.00000000000E+00 -0.92037881829E+03  0.92037881829E+03  0.00000000000E+00 0.  1.
         25    1    1    2    0    0  0.10873380882E+03  0.17936910356E+03  0.98503772755E+02  0.26329510011E+03  0.12500000000E+03 0.  0.
         21    1    1    2  503  501 -0.41978224268E+02  0.29249901228E+02  0.20409458604E+02  0.55084244890E+02  0.00000000000E+00 0. -1.
         21    1    1    2  504  503 -0.66755584552E+02 -0.20861900479E+03 -0.80602977261E+03  0.83526175033E+03  0.00000000000E+00 0.  1.
<mgrwt>
<rscale>  4 0.25124583E+03</rscale>
<asrwt>0</asrwt>
<pdfrwt beam="1">  1       21 0.35886504E-01 0.25124583E+03</pdfrwt>
<pdfrwt beam="2">  1       21 0.14159674E+00 0.25124583E+03</pdfrwt>
<totfact> 0.24795937E+03</totfact>
</mgrwt>
</event>
<event>
 5    0  0.1257040E+001  0.2304553E+03  0.7546771E-02  0.1126320E+00
         21   -1    0    0  502  501  0.00000000000E+00  0.00000000000E+00  0.91095316052E+03  0.91095316052E+03  0.00000000000E+00 0. -1.
         21   -1    0    0  504  502 -0.00000000000E+00 -0.00000000000E+00 -0.72632579016E+03  0.72632579016E+03  0.00000000000E+00 0. -1.
         25    1    1    2    0    0  0.24337562463E+03  0.57933524520E+02  0.45991449627E+03  0.53826975747E+03  0.12500000000E+03 0.  0.
         21    1    1    2  503  501 -0.57954080232E+02 -0.11116444993E+03  0.38825529164E+03  0.40799311493E+03  0.00000000000E+00 0. -1.
         21    1    1    2  504  503 -0.18542154440E+03  0.53230925409E+02 -0.66354241755E+03  0.69101607827E+03  0.00000000000E+00 0. -1.
<mgrwt>
<rscale>  4 0.23045528E+03</rscale>
<asrwt>0</asrwt>
<pdfrwt beam="1">  1       21 0.14014664E+00 0.23045528E+03</pdfrwt>
<pdfrwt beam="2">  1       21 0.11174243E+00 0.23045528E+03</pdfrwt>
<totfact> 0.21464278E+02</totfact>
</mgrwt>
</event>
<event>
 5    0  0.1257040E+001  0.4361225E+03  0.7546771E-02  0.1031943E+00
         21   -1    0    0  504  501  0.00000000000E+00  0.00000000000E+00  0.47447903999E+03  0.47447903999E+03  0.00000000000E+00 0. -1.
         21   -1    0    0  503  502 -0.00000000000E+00 -0.00000000000E+00 -0.61581743254E+03  0.61581743254E+03  0.00000000000E+00 0. -1.
         25    1    1    2    0    0  0.32016525251E+03 -0.16134321472E+03 -0.24378341054E+03  0.45121255867E+03  0.12500000000E+03 0.  0.
         21    1    1    2  503  501  0.79721177940E+02 -0.24805276669E+02 -0.11912576857E+03  0.14547067299E+03  0.00000000000E+00 0.  1.
         21    1    1    2  504  502 -0.39988643045E+03  0.18614849139E+03  0.22157078656E+03  0.49361324087E+03  0.00000000000E+00 0. -1.
<mgrwt>
<rscale>  4 0.43612249E+03</rscale>
<asrwt>0</asrwt>
<pdfrwt beam="1">  1       21 0.72996776E-01 0.43612249E+03</pdfrwt>
<pdfrwt beam="2">  1       21 0.94741143E-01 0.43612249E+03</pdfrwt>
<totfact> 0.13549253E+03</totfact>
</mgrwt>
</event>
<event>
 5    0  0.1257040E+001  0.2564648E+03  0.7546771E-02  0.1109286E+00
         21   -1    0    0  503  501  0.00000000000E+00  0.00000000000E+00  0.10275529366E+03  0.10275529366E+03  0.00000000000E+00 0.  1.
         21   -1    0    0  504  502 -0.00000000000E+00 -0.00000000000E+00 -0.74565600772E+03  0.74565600772E+03  0.00000000000E+00 0.  1.
         25    1    1    2    0    0  0.17422023099E+03 -0.13753142817E+03 -0.19462909876E+03  0.32058238989E+03  0.12500000000E+03 0.  0.
         21    1    1    2  503  502 -0.16315508408E+03  0.15500019096E+03 -0.45370271464E+03  0.50644920173E+03  0.00000000000E+00 0.  1.
         21    1    1    2  504  501 -0.11065146911E+02 -0.17468762790E+02  0.54310993445E+01  0.21379709766E+02  0.00000000000E+00 0.  1.
<mgrwt>
<rscale>  4 0.25646485E+03</rscale>
<asrwt>0</asrwt>
<pdfrwt beam="1">  1       21 0.15808506E-01 0.25646485E+03</pdfrwt>
<pdfrwt beam="2">  1       21 0.11471631E+00 0.25646485E+03</pdfrwt>
<totfact> 0.20278316E+04</totfact>
</mgrwt>
</event>
<event>
 5    0  0.1257040E+001  0.3871714E+03  0.7546771E-02  0.1048315E+00
         21   -1    0    0  502  501  0.00000000000E+00  0.00000000000E+00  0.10699097452E+03  0.10699097452E+03  0.00000000000E+00 0.  1.
         21   -1    0    0  504  502 -0.00000000000E+00 -0.00000000000E+00 -0.27007398232E+04  0.27007398232E+04  0.00000000000E+00 0.  1.
         25    1    1    2    0    0 -0.39148113692E+03 -0.18310974542E+03 -0.66885405000E+03  0.80608771212E+03  0.12500000000E+03 0.  0.
         21    1    1    2  503  501  0.76572251253E+02  0.28462732599E+02 -0.53509255796E+02  0.97655912595E+02  0.00000000000E+00 0.  1.
         21    1    1    2  504  503  0.31490888567E+03  0.15464701282E+03 -0.18713855429E+04  0.19039871730E+04  0.00000000000E+00 0.  1.
<mgrwt>
<rscale>  4 0.38717140E+03</rscale>
<asrwt>0</asrwt>
<pdfrwt beam="1">  1       21 0.16460153E-01 0.38717140E+03</pdfrwt>
<pdfrwt beam="2">  1       21 0.41549837E+00 0.38717140E+03</pdfrwt>
<totfact> 0.18336994E+02</totfact>
</mgrwt>
</event>
<event>
 5    0  0.1257040E+001  0.2976681E+03  0.7546771E-02  0.1086412E+00
         21   -1    0    0  502  501  0.00000000000E+00  0.00000000000E+00  0.26816286125E+03  0.26816286125E+03  0.00000000000E+00 0. -1.
         21   -1    0    0  504  502 -0.00000000000E+00 -0.00000000000E+00 -0.62284448370E+03  0.62284448370E+03  0.00000000000E+00 0. -1.
         25    1    1    2    0    0  0.29817706050E+03  0.35324918518E+02  0.80659234679E+02  0.33509449625E+03  0.12500000000E+03 0.  0.
         21    1    1    2  503  501 -0.21515892961E+03  0.36076070938E+02 -0.19836543684E+03  0.29486216173E+03  0.00000000000E+00 0. -1.
         21    1    1    2  504  503 -0.83018130891E+02 -0.71400989456E+02 -0.23697542028E+03  0.26105068698E+03  0.00000000000E+00 0. -1.
<mgrwt>
<rscale>  4 0.29766809E+03</rscale>
<asrwt>0</asrwt>
<pdfrwt beam="1">  1       21 0.41255825E-01 0.29766809E+03</pdfrwt>
<pdfrwt beam="2">  1       21 0.95822228E-01 0.29766809E+03</pdfrwt>
<totfact> 0.47985440E+03</totfact>
</mgrwt>
</event>
<event>
 5    0  0.1257040E+001  0.2585363E+03  0.7546771E-02  0.1108026E+00
         21   -1    0    0  502  501  0.00000000000E+00  0.00000000000E+00  0.15756672388E+03  0.15756672388E+03  0.00000000000E+00 0. -1.
         21   -1    0    0  504  502 -0.00000000000E+00 -0.00000000000E+00 -0.40950279409E+03  0.40950279409E+03  0.00000000000E+00 0. -1.
         25    1    1    2    0    0 -0.35922643748E+02 -0.22344038828E+03 -0.14850528054E+03  0.29815241370E+03  0.12500000000E+03 0.  0.
         21    1    1    2  503  501  0.61382994760E+02  0.88315265685E+02 -0.24272992698E+02  0.11025713752E+03  0.00000000000E+00 0. -1.
         21    1    1    2  504  503 -0.25460351012E+02  0.13512512260E+03 -0.79157796963E+02  0.15865996675E+03  0.00000000000E+00 0. -1.
<mgrwt>
<rscale>  4 0.25853635E+03</rscale>
<asrwt>0</asrwt>
<pdfrwt beam="1">  1       21 0.24241035E-01 0.25853635E+03</pdfrwt>
<pdfrwt beam="2">  1       21 0.63000429E-01 0.25853635E+03</pdfrwt>
<totfact> 0.36315292E+04</totfact>
</mgrwt>
</event>
<event>
 5    0  0.1257040E+001  0.2425911E+03  0.7546771E-02  0.1118079E+00
         21   -1    0    0  504  501  0.00000000000E+00  0.00000000000E+00  0.29367592977E+03  0.29367592977E+03  0.00000000000E+00 0. -1.
         21   -1    0    0  503  502 -0.00000000000E+00 -0.00000000000E+00 -0.26552465232E+03  0.26552465232E+03  0.00000000000E+00 0. -1.
         25    1    1    2    0    0 -0.14000691753E+03 -0.19498807946E+03  0.54449946390E+02  0.27606536318E+03  0.12500000000E+03 0.  0.
         21    1    1    2  503  501  0.14430242681E+02  0.56475287883E+02 -0.70040847164E+02  0.91123050414E+02  0.00000000000E+00 0. -1.
         21    1    1    2  504  502  0.12557667485E+03  0.13851279157E+03  0.43742178224E+02  0.19201216850E+03  0.00000000000E+00 0. -1.
<mgrwt>
<rscale>  4 0.24259106E+03</rscale>
<asrwt>0</asrwt>
<pdfrwt beam="1">  1       21 0.45180912E-01 0.24259106E+03</pdfrwt>
<pdfrwt beam="2">  1       21 0.40849946E-01 0.24259106E+03</pdfrwt>
<totfact> 0.26431547E+04</totfact>
</mgrwt>
</event>
<event>
 5    0  0.1257040E+001  0.3210788E+03  0.7546771E-02  0.1075154E+00
         21   -1    0    0  504  501  0.00000000000E+00  0.00000000000E+00  0.68279069857E+03  0.68279069857E+03  0.00000000000E+00 0.  1.
         21   -1    0    0  503  502 -0.00000000000E+00 -0.00000000000E+00 -0.35441650676E+03  0.35441650676E+03  0.00000000000E+00 0.  1.
         25    1    1    2    0    0  0.28431171441E+03 -0.82067958036E+02  0.54920185159E+03  0.63625150254E+03  0.12500000000E+03 0.  0.
         21    1    1    2  503  501 -0.29171364014E+03  0.50805296827E+02 -0.21987780564E+03  0.36881468984E+03  0.00000000000E+00 0.  1.
         21    1    1    2  504  502  0.74019257330E+01  0.31262661209E+02 -0.94985415165E+00  0.32141012948E+02  0.00000000000E+00 0.  1.
<mgrwt>
<rscale>  4 0.32107881E+03</rscale>
<asrwt>0</asrwt>
<pdfrwt beam="1">  1       21 0.10504472E+00 0.32107881E+03</pdfrwt>
<pdfrwt beam="2">  1       21 0.54525616E-01 0.32107881E+03</pdfrwt>
<totfact> 0.21185724E+03</totfact>
</mgrwt>
</event>
<event>
 5    0  0.1257040E+001  0.1910180E+03  0.7546771E-02  0.1157546E+00
         21   -1    0    0  504  501  0.00000000000E+00  0.00000000000E+00  0.59996773557E+02  0.59996773557E+02  0.00000000000E+00 0. -1.
         21   -1    0    0  503  502 -0.00000000000E+00 -0.00000000000E+00 -0.10990177888E+04  0.10990177888E+04  0.00000000000E+00 0. -1.
         25    1    1    2    0    0  0.18947152848E+03 -0.81908261357E+02 -0.42976945607E+03  0.49288457955E+03  0.12500000000E+03 0.  0.
         21    1    1    2  503  501 -0.69508648803E+02  0.50616784223E+02 -0.47765242481E+03  0.48533014539E+03  0.00000000000E+00 0. -1.
         21    1    1    2  504  502 -0.11996287968E+03  0.31291477134E+02 -0.13159913434E+03  0.18079983739E+03  0.00000000000E+00 0. -1.
<mgrwt>
<rscale>  4 0.19101799E+03</rscale>
<asrwt>0</asrwt>
<pdfrwt beam="1">  1       21 0.92302731E-02 0.19101799E+03</pdfrwt>
<pdfrwt beam="2">  1       21 0.16907965E+00 0.19101799E+03</pdfrwt>
<totfact> 0.20262460E+04</totfact>
</mgrwt>
</event>
<event>
 5    0  0.1257040E+001  0.3179852E+03  0.7546771E-02  0.1076580E+00
         21   -1    0    0  504  501  0.00000000000E+00  0.00000000000E+00  0.30583465103E+03  0.30583465103E+03  0.00000000000E+00 0. -1.
         21   -1    0    0  503  502 -0.00000000000E+00 -0.00000000000E+00 -0.96008751968E+03  0.96008751968E+03  0.00000000000E+00 0. -1.
         25    1    1    2    0    0  0.27971938218E+03  0.77527453585E+02 -0.77261101407E+03  0.83474919460E+03  0.12500000000E+03 0.  0.
         21    1    1    2  503  501  0.36389537689E+02 -0.62376814317E+02 -0.34136035514E+02  0.79876995050E+02  0.00000000000E+00 0. -1.
         21    1    1    2  504  502 -0.31610891987E+03 -0.15150639268E+02  0.15249418094E+03  0.35129598106E+03  0.00000000000E+00 0. -1.
<mgrwt>
<rscale>  4 0.31798523E+03</rscale>
<asrwt>0</asrwt>
<pdfrwt beam="1">  1       21 0.47051485E-01 0.31798523E+03</pdfrwt>
<pdfrwt beam="2">  1       21 0.14770577E+00 0.31798523E+03</pdfrwt>
<totfact> 0.12186494E+03</totfact>
</mgrwt>
</event>
<event>
 5    0  0.1257040E+001  0.2595257E+03  0.7546771E-02  0.1107429E+00
         21   -1    0    0  503  501  0.00000000000E+00  0.00000000000E+00  0.80296469142E+03  0.80296469142E+03  0.00000000000E+00 0.  1.
         21   -1    0    0  504  502 -0.00000000000E+00 -0.00000000000E+00 -0.27281419385E+03  0.27281419385E+03  0.00000000000E+00 0. -1.
         25    1    1    2    0    0  0.30692363155E+03 -0.38834502994E+02  0.37219827233E+03  0.49986677040E+03  0.12500000000E+03 0.  0.
         21    1    1    2  503  502 -0.21387894354E+03 -0.41668953824E+02 -0.13626874443E+03  0.25700131305E+03  0.00000000000E+00 0. -1.
         21    1    1    2  504  501 -0.93044688011E+02  0.80503456817E+02  0.29422096967E+03  0.31891080182E+03  0.00000000000E+00 0. -1.
<mgrwt>
<rscale>  4 0.25952571E+03</rscale>
<asrwt>0</asrwt>
<pdfrwt beam="1">  1       21 0.12353303E+00 0.25952571E+03</pdfrwt>
<pdfrwt beam="2">  1       21 0.41971415E-01 0.25952571E+03</pdfrwt>
<totfact> 0.25468067E+03</totfact>
</mgrwt>
</event>
<event>
 5    0  0.1257040E+001  0.2297380E+03  0.7546771E-02  0.1126824E+00
         21   -1    0    0  503  501  0.00000000000E+00  0.00000000000E+00  0.26875069205E+04  0.26875069205E+04  0.00000000000E+00 0.  1.
         21   -1    0    0  504  502 -0.00000000000E+00 -0.00000000000E+00 -0.19025810758E+03  0.19025810758E+03  0.00000000000E+00 0. -1.
         25    1    1    2    0    0  0.21057902229E+03  0.54135221174E+02 -0.74703707761E+02  0.26168643594E+03  0.12500000000E+03 0.  0.
         21    1    1    2  503  502 -0.25166272807E+02 -0.33900019605E+01 -0.97708193356E+01  0.27208497033E+02  0.00000000000E+00 0.  1.
         21    1    1    2  504  501 -0.18541274948E+03 -0.50745219213E+02  0.25817233400E+04  0.25888700951E+04  0.00000000000E+00 0.  1.
<mgrwt>
<rscale>  4 0.22973799E+03</rscale>
<asrwt>0</asrwt>
<pdfrwt beam="1">  1       21 0.41346258E+00 0.22973799E+03</pdfrwt>
<pdfrwt beam="2">  1       21 0.29270480E-01 0.22973799E+03</pdfrwt>
<totfact> 0.75211632E+01</totfact>
</mgrwt>
</event>
<event>
 5    0  0.1257040E+001  0.3697837E+03  0.7546771E-02  0.1054776E+00
         21   -1    0    0  502  501  0.00000000000E+00  0.00000000000E+00  0.30189856490E+03  0.30189856490E+03  0.00000000000E+00 0. -1.
         21   -1    0    0  504  502 -0.00000000000E+00 -0.00000000000E+00 -0.68995731682E+03  0.68995731682E+03  0.00000000000E+00 0. -1.
         25    1    1    2    0    0  0.29543159232E+03  0.22015260730E+03  0.24230038298E+02  0.38981930557E+03  0.12500000000E+03 0.  0.
         21    1    1    2  503  501 -0.37699668242E+01 -0.40610305697E+02  0.24040377417E+02  0.47342890966E+02  0.00000000000E+00 0. -1.
         21    1    1    2  504  503 -0.29166162550E+03 -0.17954230160E+03 -0.43632916764E+03  0.55469368518E+03  0.00000000000E+00 0. -1.
<mgrwt>
<rscale>  4 0.36978372E+03</rscale>
<asrwt>0</asrwt>
<pdfrwt beam="1">  1       21 0.46445933E-01 0.36978372E+03</pdfrwt>
<pdfrwt beam="2">  1       21 0.10614728E+00 0.36978372E+03</pdfrwt>
<totfact> 0.28312514E+03</totfact>
</mgrwt>
</event>
<event>
 5    0  0.1257040E+001  0.2886857E+03  0.7546771E-02  0.1091037E+00
         21   -1    0    0  503  501  0.00000000000E+00  0.00000000000E+00  0.87768375423E+03  0.87768375423E+03  0.00000000000E+00 0.  1.
         21   -1    0    0  504  502 -0.00000000000E+00 -0.00000000000E+00 -0.14857916426E+03  0.14857916426E+03  0.00000000000E+00 0.  1.
         25    1    1    2    0    0  0.15436170508E+01 -0.24355549529E+03  0.40367053814E+02  0.27672397994E+03  0.12500000000E+03 0.  0.
         21    1    1    2  503  502 -0.11333867126E+02 -0.20055658769E+02  0.19477413321E+02  0.30167128176E+02  0.00000000000E+00 0.  1.
         21    1    1    2  504  501  0.97902500754E+01  0.26361115406E+03  0.66926012284E+03  0.71937181038E+03  0.00000000000E+00 0.  1.
<mgrwt>
<rscale>  4 0.28868572E+03</rscale>
<asrwt>0</asrwt>
<pdfrwt beam="1">  1       21 0.13502827E+00 0.28868572E+03</pdfrwt>
<pdfrwt beam="2">  1       21 0.22858333E-01 0.28868572E+03</pdfrwt>
<totfact> 0.66201417E+03</totfact>
</mgrwt>
</event>
<event>
 5    0  0.1257040E+001  0.1793704E+03  0.7546771E-02  0.1168414E+00
         21   -1    0    0  502  501  0.00000000000E+00  0.00000000000E+00  0.58971242224E+03  0.58971242224E+03  0.00000000000E+00 0. -1.
         21   -1    0    0  504  502 -0.00000000000E+00 -0.00000000000E+00 -0.19592781384E+03  0.19592781384E+03  0.00000000000E+00 0. -1.
         25    1    1    2    0    0  0.18401238881E+03  0.13069764274E+03  0.63028954771E+02  0.26559382935E+03  0.12500000000E+03 0.  0.
         21    1    1    2  503  501 -0.93242897937E+02 -0.75373721515E+02  0.38319531960E+03  0.40151474303E+03  0.00000000000E+00 0. -1.
         21    1    1    2  504  503 -0.90769490870E+02 -0.55323921222E+02 -0.52439665969E+02  0.11853166370E+03  0.00000000000E+00 0. -1.
<mgrwt>
<rscale>  4 0.17937039E+03</rscale>
<asrwt>0</asrwt>
<pdfrwt beam="1">  1       21 0.90724987E-01 0.17937039E+03</pdfrwt>
<pdfrwt beam="2">  1       21 0.30142741E-01 0.17937039E+03</pdfrwt>
<totfact> 0.10988631E+04</totfact>
</mgrwt>
</event>
<event>
 5    0  0.1257040E+001  0.1697949E+03  0.7546771E-02  0.1178062E+00
         21   -1    0    0  502  501  0.00000000000E+00  0.00000000000E+00  0.52061977558E+03  0.52061977558E+03  0.00000000000E+00 0.  1.
         21   -1    0    0  504  502 -0.00000000000E+00 -0.00000000000E+00 -0.14286941838E+03  0.14286941838E+03  0.00000000000E+00 0.  1.
         25    1    1    2    0    0  0.13547587234E+03  0.16094783170E+03  0.33068724859E+03  0.41138421566E+03  0.12500000000E+03 0.  0.
         21    1    1    2  503  501 -0.71997831504E+02 -0.76358685498E+02  0.89715762936E+02  0.13806974582E+03  0.00000000000E+00 0.  1.
         21    1    1    2  504  503 -0.63478040833E+02 -0.84589146206E+02 -0.42652654335E+02  0.11403523248E+03  0.00000000000E+00 0.  1.
<mgrwt>
<rscale>  4 0.16979492E+03</rscale>
<asrwt>0</asrwt>
<pdfrwt beam="1">  1       21 0.80095349E-01 0.16979492E+03</pdfrwt>
<pdfrwt beam="2">  1       21 0.21979911E-01 0.16979492E+03</pdfrwt>
<totfact> 0.26876752E+04</totfact>
</mgrwt>
</event>
<event>
 5    0  0.1257040E+001  0.3749887E+03  0.7546771E-02  0.1052802E+00
         21   -1    0    0  503  501  0.00000000000E+00  0.00000000000E+00  0.77352893562E+03  0.77352893562E+03  0.00000000000E+00 0. -1.
         21   -1    0    0  501  502 -0.00000000000E+00 -0.00000000000E+00 -0.37072533084E+03  0.37072533084E+03  0.00000000000E+00 0. -1.
         25    1    1    2    0    0  0.37580734010E+03 -0.14542323150E+02  0.56696732475E+03  0.69175109929E+03  0.12500000000E+03 0.  0.
         21    1    1    2  503  504 -0.25739779836E+03  0.11346342886E+02 -0.20282277452E+03  0.32790157664E+03  0.00000000000E+00 0. -1.
         21    1    1    2  504  502 -0.11840954174E+03  0.31959802636E+01  0.38659054547E+02  0.12460159054E+03  0.00000000000E+00 0. -1.
<mgrwt>
<rscale>  4 0.37498866E+03</rscale>
<asrwt>0</asrwt>
<pdfrwt beam="1">  1       21 0.11900445E+00 0.37498866E+03</pdfrwt>
<pdfrwt beam="2">  1       21 0.57034666E-01 0.37498866E+03</pdfrwt>
<totfact> 0.13741477E+03</totfact>
</mgrwt>
</event>
<event>
 5    0  0.1257040E+001  0.2349546E+03  0.7546771E-02  0.1123200E+00
         21   -1    0    0  503  501  0.00000000000E+00  0.00000000000E+00  0.21197101926E+03  0.21197101926E+03  0.00000000000E+00 0.  1.
         21   -1    0    0  504  502 -0.00000000000E+00 -0.00000000000E+00 -0.72711738937E+03  0.72711738937E+03  0.00000000000E+00 0. -1.
         25    1    1    2    0    0 -0.18422806515E+03  0.12384643922E+03 -0.41380857865E+03  0.48594285699E+03  0.12500000000E+03 0.  0.
         21    1    1    2  503  502  0.72741008613E+01 -0.38741358869E+02 -0.22014386231E+03  0.22364508835E+03  0.00000000000E+00 0. -1.
         21    1    1    2  504  501  0.17695396428E+03 -0.85105080353E+02  0.11880607085E+03  0.22950046329E+03  0.00000000000E+00 0.  1.
<mgrwt>
<rscale>  4 0.23495455E+03</rscale>
<asrwt>0</asrwt>
<pdfrwt beam="1">  1       21 0.32610925E-01 0.23495455E+03</pdfrwt>
<pdfrwt beam="2">  1       21 0.11186422E+00 0.23495455E+03</pdfrwt>
<totfact> 0.55002632E+03</totfact>
</mgrwt>
</event>
