<event>
 5    0  0.2159162E+000  0.3620972E+03  0.7546771E-02  0.1057757E+00
         21   -1    0    0  502  501  0.00000000000E+00  0.00000000000E+00  0.21374425865E+04  0.21374425865E+04  0.00000000000E+00 0.  1.
         21   -1    0    0  503  502 -0.00000000000E+00 -0.00000000000E+00 -0.26894025412E+03  0.26894025412E+03  0.00000000000E+00 0.  1.
         25    1    1    2    0    0  0.19213859825E+02 -0.33914825449E+03  0.19311413290E+04  0.19647703539E+04  0.12500000000E+03 0.  0.
         21    1    1    2  503  504  0.35469969162E+02  0.34418147115E+03 -0.11610875926E+03  0.36496609126E+03  0.00000000000E+00 0.  1.
         21    1    1    2  504  501 -0.54683828987E+02 -0.50332166579E+01  0.53469762626E+02  0.76646395466E+02  0.00000000000E+00 0. -1.
<mgrwt>
<rscale>  4 0.36209715E+03</rscale>
<asrwt>0</asrwt>
<pdfrwt beam="1">  1       21 0.32883731E+00 0.36209715E+03</pdfrwt>
<pdfrwt beam="2">  1       21 0.41375425E-01 0.36209715E+03</pdfrwt>
<totfact> 0.10706198E+02</totfact>
</mgrwt>
</event>
<event>
 5    0  0.2543068E+000  0.2146535E+03  0.7546771E-02  0.1137933E+00
         21   -1    0    0  502  501  0.00000000000E+00  0.00000000000E+00  0.50367752226E+02  0.50367752226E+02  0.00000000000E+00 0. -1.
         21   -1    0    0  503  502 -0.00000000000E+00 -0.00000000000E+00 -0.11543522959E+04  0.11543522959E+04  0.00000000000E+00 0. -1.
         25    1    1    2    0    0  0.11829621426E+03 -0.17134743610E+03 -0.44872184110E+03  0.51022566463E+03  0.12500000000E+03 0.  0.
         21    1    1    2  503  504 -0.48520847660E+02  0.24266173451E+02 -0.80140115612E+02  0.96775812898E+02  0.00000000000E+00 0.  1.
         21    1    1    2  504  501 -0.69775366599E+02  0.14708126265E+03 -0.57512258693E+03  0.59771857057E+03  0.00000000000E+00 0. -1.
<mgrwt>
<rscale>  4 0.21465350E+03</rscale>
<asrwt>0</asrwt>
<pdfrwt beam="1">  1       21 0.77488848E-02 0.21465350E+03</pdfrwt>
<pdfrwt beam="2">  1       21 0.17759266E+00 0.21465350E+03</pdfrwt>
<totfact> 0.23614565E+04</totfact>
</mgrwt>
</event>
<event>
 5    0  0.1438526E+001  0.2490063E+03  0.7546771E-02  0.1113934E+00
         21   -1    0    0  502  501  0.00000000000E+00  0.00000000000E+00  0.50247273229E+03  0.50247273229E+03  0.00000000000E+00 0.  1.
         21   -1    0    0  503  502 -0.00000000000E+00 -0.00000000000E+00 -0.26092944854E+03  0.26092944854E+03  0.00000000000E+00 0.  1.
         25    1    1    2    0    0 -0.13153704567E+03 -0.18317445517E+03  0.38175956928E+03  0.46067368511E+03  0.12500000000E+03 0.  0.
         21    1    1    2  503  504  0.26214639980E+02 -0.33688268344E+01  0.21701481865E+02  0.34198108992E+02  0.00000000000E+00 0. -1.
         21    1    1    2  504  501  0.10532240569E+03  0.18654328200E+03 -0.16191776739E+03  0.26853038673E+03  0.00000000000E+00 0.  1.
<mgrwt>
<rscale>  4 0.24900632E+03</rscale>
<asrwt>0</asrwt>
<pdfrwt beam="1">  1       21 0.77303497E-01 0.24900632E+03</pdfrwt>
<pdfrwt beam="2">  1       21 0.40142992E-01 0.24900632E+03</pdfrwt>
<totfact> 0.85682328E+03</totfact>
</mgrwt>
</event>
<event>
 5    0  0.2237684E+000  0.2736566E+03  0.7546771E-02  0.1099205E+00
         21   -1    0    0  502  501  0.00000000000E+00  0.00000000000E+00  0.46719721902E+03  0.46719721902E+03  0.00000000000E+00 0. -1.
         21   -1    0    0  503  502 -0.00000000000E+00 -0.00000000000E+00 -0.18380791595E+03  0.18380791595E+03  0.00000000000E+00 0. -1.
         25    1    1    2    0    0  0.23372601986E+03 -0.68081513852E+02  0.29377366340E+03  0.40148587796E+03  0.12500000000E+03 0.  0.
         21    1    1    2  503  504 -0.46537834157E+02  0.28810676247E+02  0.14556603294E+02  0.56636735193E+02  0.00000000000E+00 0. -1.
         21    1    1    2  504  501 -0.18718818571E+03  0.39270837605E+02 -0.24940963630E+02  0.19288252181E+03  0.00000000000E+00 0. -1.
<mgrwt>
<rscale>  4 0.27365662E+03</rscale>
<asrwt>0</asrwt>
<pdfrwt beam="1">  1       21 0.71876495E-01 0.27365662E+03</pdfrwt>
<pdfrwt beam="2">  1       21 0.28278141E-01 0.27365662E+03</pdfrwt>
<totfact> 0.20022806E+04</totfact>
</mgrwt>
</event>
<event>
 5    0  0.2159162E+000  0.2500498E+03  0.7546771E-02  0.1113273E+00
         21   -1    0    0  502  501  0.00000000000E+00  0.00000000000E+00  0.33856478368E+03  0.33856478368E+03  0.00000000000E+00 0. -1.
         21   -1    0    0  503  502 -0.00000000000E+00 -0.00000000000E+00 -0.17545041243E+03  0.17545041243E+03  0.00000000000E+00 0. -1.
         25    1    1    2    0    0  0.19242632945E+03  0.99357980927E+02  0.29999609289E+02  0.25184296138E+03  0.12500000000E+03 0.  0.
         21    1    1    2  503  504 -0.98095256023E+02 -0.86062576796E+02  0.80865680590E+02  0.15352102356E+03  0.00000000000E+00 0. -1.
         21    1    1    2  504  501 -0.94331073427E+02 -0.13295404132E+02  0.52249081365E+02  0.10865121117E+03  0.00000000000E+00 0. -1.
<mgrwt>
<rscale>  4 0.25004980E+03</rscale>
<asrwt>0</asrwt>
<pdfrwt beam="1">  1       21 0.52086890E-01 0.25004980E+03</pdfrwt>
<pdfrwt beam="2">  1       21 0.26992371E-01 0.25004980E+03</pdfrwt>
<totfact> 0.44556320E+04</totfact>
</mgrwt>
</event>
<event>
 5    0  0.2159162E+000  0.2435420E+03  0.7546771E-02  0.1117455E+00
         21   -1    0    0  502  501  0.00000000000E+00  0.00000000000E+00  0.53587477958E+02  0.53587477958E+02  0.00000000000E+00 0.  1.
         21   -1    0    0  503  502 -0.00000000000E+00 -0.00000000000E+00 -0.97174301814E+03  0.97174301814E+03  0.00000000000E+00 0.  1.
         25    1    1    2    0    0 -0.16271373988E+03  0.13119433009E+03 -0.48468339640E+03  0.54243037169E+03  0.12500000000E+03 0.  0.
         21    1    1    2  503  504  0.11415529437E+03 -0.10826940189E+03 -0.29406297844E+03  0.33350671643E+03  0.00000000000E+00 0.  1.
         21    1    1    2  504  501  0.48558445505E+02 -0.22924928200E+02 -0.13940916534E+03  0.14939340797E+03  0.00000000000E+00 0.  1.
<mgrwt>
<rscale>  4 0.24354202E+03</rscale>
<asrwt>0</asrwt>
<pdfrwt beam="1">  1       21 0.82442279E-02 0.24354202E+03</pdfrwt>
<pdfrwt beam="2">  1       21 0.14949892E+00 0.24354202E+03</pdfrwt>
<totfact> 0.33363367E+04</totfact>
</mgrwt>
</event>
<event>
 5    0  0.2159162E+000  0.3599391E+03  0.7546771E-02  0.1059043E+00
         21   -1    0    0  502  501  0.00000000000E+00  0.00000000000E+00  0.12457063473E+03  0.12457063473E+03  0.00000000000E+00 0.  1.
         21   -1    0    0  503  502 -0.00000000000E+00 -0.00000000000E+00 -0.18828455637E+04  0.18828455637E+04  0.00000000000E+00 0. -1.
         25    1    1    2    0    0  0.30116132056E+03 -0.14181331288E+03 -0.19969521186E+03  0.40781409288E+03  0.12500000000E+03 0.  0.
         21    1    1    2  503  504 -0.14307294413E+03  0.11375864309E+03 -0.10647854439E+04  0.10803605591E+04  0.00000000000E+00 0. -1.
         21    1    1    2  504  501 -0.15808837644E+03  0.28054669788E+02 -0.49379427321E+03  0.51924154641E+03  0.00000000000E+00 0.  1.
<mgrwt>
<rscale>  4 0.35884329E+03</rscale>
<asrwt>0</asrwt>
<pdfrwt beam="1">  1       21 0.19164713E-01 0.35993911E+03</pdfrwt>
<pdfrwt beam="2">  1       21 0.28966855E+00 0.35993911E+03</pdfrwt>
<totfact> 0.83391575E+02</totfact>
</mgrwt>
</event>
<event>
 5    0  0.2159162E+000  0.3128093E+03  0.7546771E-02  0.1079007E+00
         21   -1    0    0  502  501  0.00000000000E+00  0.00000000000E+00  0.40682295004E+03  0.40682295004E+03  0.00000000000E+00 0. -1.
         21   -1    0    0  503  502 -0.00000000000E+00 -0.00000000000E+00 -0.41694151362E+03  0.41694151362E+03  0.00000000000E+00 0. -1.
         25    1    1    2    0    0 -0.19442202439E+03 -0.21797843882E+03  0.26258227872E+03  0.41217590475E+03  0.12500000000E+03 0.  0.
         21    1    1    2  503  504  0.32878032847E+02  0.89076098479E+01 -0.32549390601E+01  0.34218491863E+02  0.00000000000E+00 0.  1.
         21    1    1    2  504  501  0.16154399155E+03  0.20907082897E+03 -0.26944590324E+03  0.37737006705E+03  0.00000000000E+00 0. -1.
<mgrwt>
<rscale>  4 0.31280932E+03</rscale>
<asrwt>0</asrwt>
<pdfrwt beam="1">  1       21 0.62588146E-01 0.31280932E+03</pdfrwt>
<pdfrwt beam="2">  1       21 0.64144848E-01 0.31280932E+03</pdfrwt>
<totfact> 0.49265629E+03</totfact>
</mgrwt>
</event>
<event>
 5    0  0.2159162E+000  0.3172614E+03  0.7546771E-02  0.1076917E+00
         21   -1    0    0  502  501  0.00000000000E+00  0.00000000000E+00  0.77070236993E+03  0.77070236993E+03  0.00000000000E+00 0. -1.
         21   -1    0    0  503  502 -0.00000000000E+00 -0.00000000000E+00 -0.28007008421E+03  0.28007008421E+03  0.00000000000E+00 0. -1.
         25    1    1    2    0    0  0.26887539889E+03  0.18392867643E+03  0.58640153101E+03  0.68236023750E+03  0.12500000000E+03 0.  0.
         21    1    1    2  503  504 -0.30300615834E+02 -0.25026990771E+02  0.35661815305E+02  0.53068282974E+02  0.00000000000E+00 0.  1.
         21    1    1    2  504  501 -0.23857478306E+03 -0.15890168566E+03 -0.13143106059E+03  0.31534393368E+03  0.00000000000E+00 0. -1.
<mgrwt>
<rscale>  4 0.31726141E+03</rscale>
<asrwt>0</asrwt>
<pdfrwt beam="1">  1       21 0.11856959E+00 0.31726141E+03</pdfrwt>
<pdfrwt beam="2">  1       21 0.43087706E-01 0.31726141E+03</pdfrwt>
<totfact> 0.25835991E+03</totfact>
</mgrwt>
</event>
<event>
 5    0  0.2159162E+000  0.2572749E+03  0.7546771E-02  0.1108792E+00
         21   -1    0    0  502  501  0.00000000000E+00  0.00000000000E+00  0.58070775207E+03  0.58070775207E+03  0.00000000000E+00 0.  1.
         21   -1    0    0  503  502 -0.00000000000E+00 -0.00000000000E+00 -0.20784854319E+03  0.20784854319E+03  0.00000000000E+00 0.  1.
         25    1    1    2    0    0  0.13600065669E+03  0.17907880430E+03  0.47233936751E+03  0.53786139001E+03  0.12500000000E+03 0.  0.
         21    1    1    2  503  504 -0.78005513049E+02 -0.92346779006E+02 -0.78886985343E+02  0.14434661103E+03  0.00000000000E+00 0.  1.
         21    1    1    2  504  501 -0.57995143646E+02 -0.86732025289E+02 -0.20593173287E+02  0.10634829422E+03  0.00000000000E+00 0.  1.
<mgrwt>
<rscale>  4 0.25727494E+03</rscale>
<asrwt>0</asrwt>
<pdfrwt beam="1">  1       21 0.89339653E-01 0.25727494E+03</pdfrwt>
<pdfrwt beam="2">  1       21 0.31976699E-01 0.25727494E+03</pdfrwt>
<totfact> 0.96529362E+03</totfact>
</mgrwt>
</event>
<event>
 5    0  0.2159162E+000  0.4141398E+03  0.7546771E-02  0.1038991E+00
         21   -1    0    0  502  501  0.00000000000E+00  0.00000000000E+00  0.82167405889E+03  0.82167405889E+03  0.00000000000E+00 0. -1.
         21   -1    0    0  503  502 -0.00000000000E+00 -0.00000000000E+00 -0.21806092899E+03  0.21806092899E+03  0.00000000000E+00 0. -1.
         25    1    1    2    0    0 -0.36565114825E+03 -0.14894980313E+03  0.44960478681E+03  0.61127430045E+03  0.12500000000E+03 0.  0.
         21    1    1    2  503  504  0.34486461622E+03  0.12756683982E+03  0.15397541971E+03  0.39863935081E+03  0.00000000000E+00 0. -1.
         21    1    1    2  504  501  0.20786532031E+02  0.21382963310E+02  0.32923378853E-01  0.29821336619E+02  0.00000000000E+00 0. -1.
<mgrwt>
<rscale>  4 0.41413984E+03</rscale>
<asrwt>0</asrwt>
<pdfrwt beam="1">  1       21 0.12641139E+00 0.41413984E+03</pdfrwt>
<pdfrwt beam="2">  1       21 0.33547836E-01 0.41413984E+03</pdfrwt>
<totfact> 0.34952967E+03</totfact>
</mgrwt>
</event>
<event>
 5    0  0.2511219E+000  0.3225929E+03  0.7546771E-02  0.1074462E+00
         21   -1    0    0  502  501  0.00000000000E+00  0.00000000000E+00  0.58135027106E+03  0.58135027106E+03  0.00000000000E+00 0. -1.
         21   -1    0    0  503  502 -0.00000000000E+00 -0.00000000000E+00 -0.25712584090E+03  0.25712584090E+03  0.00000000000E+00 0.  1.
         25    1    1    2    0    0 -0.18006450912E+03  0.23668117358E+03  0.41115718846E+03  0.52260543338E+03  0.12500000000E+03 0.  0.
         21    1    1    2  503  504  0.19030391369E+02 -0.56241117350E+02 -0.33564343790E+02  0.68203989989E+02  0.00000000000E+00 0.  1.
         21    1    1    2  504  501  0.16103411775E+03 -0.18044005623E+03 -0.53368414515E+02  0.24766668859E+03  0.00000000000E+00 0.  1.
<mgrwt>
<rscale>  4 0.32259294E+03</rscale>
<asrwt>0</asrwt>
<pdfrwt beam="1">  1       21 0.89438503E-01 0.32259294E+03</pdfrwt>
<pdfrwt beam="2">  1       21 0.39557822E-01 0.32259294E+03</pdfrwt>
<totfact> 0.60789025E+03</totfact>
</mgrwt>
</event>
<event>
 5    0  0.2159162E+000  0.2521251E+03  0.7546771E-02  0.1111969E+00
         21   -1    0    0  502  501  0.00000000000E+00  0.00000000000E+00  0.69203592747E+03  0.69203592747E+03  0.00000000000E+00 0.  1.
         21   -1    0    0  503  502 -0.00000000000E+00 -0.00000000000E+00 -0.11696108604E+03  0.11696108604E+03  0.00000000000E+00 0.  1.
         25    1    1    2    0    0 -0.44075870771E+02 -0.21447463355E+03  0.50140866838E+03  0.56122874440E+03  0.12500000000E+03 0.  0.
         21    1    1    2  503  504  0.58743812253E+02  0.76138773482E+02  0.42869326685E+02  0.10528878134E+03  0.00000000000E+00 0.  1.
         21    1    1    2  504  501 -0.14667941483E+02  0.13833586006E+03  0.30796846368E+02  0.14247948776E+03  0.00000000000E+00 0.  1.
<mgrwt>
<rscale>  4 0.25212507E+03</rscale>
<asrwt>0</asrwt>
<pdfrwt beam="1">  1       21 0.10646706E+00 0.25212507E+03</pdfrwt>
<pdfrwt beam="2">  1       21 0.17994014E-01 0.25212507E+03</pdfrwt>
<totfact> 0.19189852E+04</totfact>
</mgrwt>
</event>
<event>
 5    0  0.2159162E+000  0.3958634E+03  0.7546771E-02  0.1045222E+00
         21   -1    0    0  502  501  0.00000000000E+00  0.00000000000E+00  0.37928340310E+03  0.37928340310E+03  0.00000000000E+00 0.  1.
         21   -1    0    0  503  502 -0.00000000000E+00 -0.00000000000E+00 -0.68495717825E+03  0.68495717825E+03  0.00000000000E+00 0. -1.
         25    1    1    2    0    0 -0.34144531061E+03 -0.10270673066E+03  0.17966928822E+03  0.41837737246E+03  0.12500000000E+03 0.  0.
         21    1    1    2  503  504  0.36933525141E+03  0.88963238025E+02 -0.48325359581E+03  0.61470075933E+03  0.00000000000E+00 0. -1.
         21    1    1    2  504  501 -0.27889940800E+02  0.13743492635E+02 -0.20894675551E+01  0.31162449556E+02  0.00000000000E+00 0.  1.
<mgrwt>
<rscale>  4 0.39586339E+03</rscale>
<asrwt>0</asrwt>
<pdfrwt beam="1">  1       21 0.58351294E-01 0.39586339E+03</pdfrwt>
<pdfrwt beam="2">  1       21 0.10537803E+00 0.39586339E+03</pdfrwt>
<totfact> 0.17508273E+03</totfact>
</mgrwt>
</event>
<event>
 5    0  0.2398797E+000  0.2575167E+03  0.7546771E-02  0.1108645E+00
         21   -1    0    0  502  501  0.00000000000E+00  0.00000000000E+00  0.31818098473E+03  0.31818098473E+03  0.00000000000E+00 0.  1.
         21   -1    0    0  503  502 -0.00000000000E+00 -0.00000000000E+00 -0.36298844977E+03  0.36298844977E+03  0.00000000000E+00 0.  1.
         25    1    1    2    0    0  0.20410371945E+03 -0.95034230005E+02  0.20778750607E+03  0.33089345845E+03  0.12500000000E+03 0.  0.
         21    1    1    2  503  504 -0.17363245207E+03  0.37978769736E+02 -0.17803403393E+03  0.25156854454E+03  0.00000000000E+00 0.  1.
         21    1    1    2  504  501 -0.30471267379E+02  0.57055460269E+02 -0.74560937179E+02  0.98707431510E+02  0.00000000000E+00 0.  1.
<mgrwt>
<rscale>  4 0.25751667E+03</rscale>
<asrwt>0</asrwt>
<pdfrwt beam="1">  1       21 0.48950921E-01 0.25751667E+03</pdfrwt>
<pdfrwt beam="2">  1       21 0.55844377E-01 0.25751667E+03</pdfrwt>
<totfact> 0.11571064E+04</totfact>
</mgrwt>
</event>
<event>
 5    0  0.2159162E+000  0.2796169E+03  0.7546771E-02  0.1095898E+00
         21   -1    0    0  502  501  0.00000000000E+00  0.00000000000E+00  0.11469309773E+04  0.11469309773E+04  0.00000000000E+00 0. -1.
         21   -1    0    0  503  502 -0.00000000000E+00 -0.00000000000E+00 -0.20155369840E+03  0.20155369840E+03  0.00000000000E+00 0.  1.
         25    1    1    2    0    0 -0.48904652290E+02  0.24529355381E+03  0.10403618500E+04  0.10772828651E+04  0.12500000000E+03 0.  0.
         21    1    1    2  503  504  0.14385756323E+02 -0.35048547936E+02  0.10315063305E+00  0.37886162876E+02  0.00000000000E+00 0.  1.
         21    1    1    2  504  501  0.34518895966E+02 -0.21024500588E+03 -0.95087721670E+02  0.23331564775E+03  0.00000000000E+00 0.  1.
<mgrwt>
<rscale>  4 0.27961687E+03</rscale>
<asrwt>0</asrwt>
<pdfrwt beam="1">  1       21 0.17645092E+00 0.27961687E+03</pdfrwt>
<pdfrwt beam="2">  1       21 0.31008262E-01 0.27961687E+03</pdfrwt>
<totfact> 0.17857568E+03</totfact>
</mgrwt>
</event>
<event>
 5    0  0.2159162E+000  0.4196573E+03  0.7546771E-02  0.1037178E+00
         21   -1    0    0  502  501  0.00000000000E+00  0.00000000000E+00  0.60183892505E+03  0.60183892505E+03  0.00000000000E+00 0.  1.
         21   -1    0    0  503  502 -0.00000000000E+00 -0.00000000000E+00 -0.12910048971E+04  0.12910048971E+04  0.00000000000E+00 0. -1.
         25    1    1    2    0    0 -0.40435009395E+03 -0.47569060570E+01  0.47978076902E+03  0.63979388318E+03  0.12500000000E+03 0.  0.
         21    1    1    2  503  504  0.34605629414E+03  0.24500796464E+02 -0.11253913455E+04  0.11776505968E+04  0.00000000000E+00 0. -1.
         21    1    1    2  504  501  0.58293799815E+02 -0.19743890407E+02 -0.43555395557E+02  0.75399342088E+02  0.00000000000E+00 0. -1.
<mgrwt>
<rscale>  4 0.41965725E+03</rscale>
<asrwt>0</asrwt>
<pdfrwt beam="1">  1       21 0.92590605E-01 0.41965725E+03</pdfrwt>
<pdfrwt beam="2">  1       21 0.19861614E+00 0.41965725E+03</pdfrwt>
<totfact> 0.10945959E+02</totfact>
</mgrwt>
</event>
<event>
 5    0  0.2159162E+000  0.3789630E+03  0.7546771E-02  0.1051318E+00
         21   -1    0    0  502  501  0.00000000000E+00  0.00000000000E+00  0.42551957661E+03  0.42551957661E+03  0.00000000000E+00 0.  1.
         21   -1    0    0  503  502 -0.00000000000E+00 -0.00000000000E+00 -0.10454358076E+04  0.10454358076E+04  0.00000000000E+00 0. -1.
         25    1    1    2    0    0  0.14051545464E+03 -0.33930426679E+03  0.27059666564E+03  0.47298999346E+03  0.12500000000E+03 0.  0.
         21    1    1    2  503  504 -0.93420142440E+01  0.30676514017E+03 -0.70058614130E+03  0.76486146839E+03  0.00000000000E+00 0. -1.
         21    1    1    2  504  501 -0.13117344040E+03  0.32539126623E+02 -0.18992675529E+03  0.23310392233E+03  0.00000000000E+00 0.  1.
<mgrwt>
<rscale>  4 0.37896297E+03</rscale>
<asrwt>0</asrwt>
<pdfrwt beam="1">  1       21 0.65464551E-01 0.37896297E+03</pdfrwt>
<pdfrwt beam="2">  1       21 0.16083628E+00 0.37896297E+03</pdfrwt>
<totfact> 0.45820095E+02</totfact>
</mgrwt>
</event>
