<event>
 5    0  0.1257040E+001  0.2113738E+03  0.7546771E-02  0.1140483E+00
         21   -1    0    0  504  501  0.00000000000E+00  0.00000000000E+00  0.46182415520E+03  0.46182415520E+03  0.00000000000E+00 0.  1.
         21   -1    0    0  503  502 -0.00000000000E+00 -0.00000000000E+00 -0.12753093432E+03  0.12753093432E+03  0.00000000000E+00 0.  1.
         25    1    1    2    0    0  0.72683799331E+02  0.19577005430E+03  0.16489310444E+03  0.29397888485E+03  0.12500000000E+03 0.  0.
         21    1    1    2  503  501 -0.17693615170E+02 -0.15253659263E+03  0.58636317622E+02  0.16437364100E+03  0.00000000000E+00 0.  1.
         21    1    1    2  504  502 -0.54990184161E+02 -0.43233461670E+02  0.11076379882E+03  0.13100256368E+03  0.00000000000E+00 0.  1.
<mgrwt>
<rscale>  4 0.21137376E+03</rscale>
<asrwt>0</asrwt>
<pdfrwt beam="1">  1       21 0.71049870E-01 0.21137376E+03</pdfrwt>
<pdfrwt beam="2">  1       21 0.19620144E-01 0.21137376E+03</pdfrwt>
<totfact> 0.42489621E+04</totfact>
</mgrwt>
</event>
<event>
 5    0  0.1257040E+001  0.2973161E+03  0.7546771E-02  0.1086590E+00
         21   -1    0    0  502  501  0.00000000000E+00  0.00000000000E+00  0.92161530404E+03  0.92161530404E+03  0.00000000000E+00 0. -1.
         21   -1    0    0  504  502 -0.00000000000E+00 -0.00000000000E+00 -0.75180655740E+03  0.75180655740E+03  0.00000000000E+00 0. -1.
         25    1    1    2    0    0 -0.17214636863E+03  0.22066888072E+03  0.48304306492E+03  0.57208804368E+03  0.12500000000E+03 0.  0.
         21    1    1    2  503  501 -0.18123426690E+02 -0.29996988703E+02  0.36753907780E+03  0.36920624539E+03  0.00000000000E+00 0. -1.
         21    1    1    2  504  503  0.19026979532E+03 -0.19067189201E+03 -0.68077339608E+03  0.73212757237E+03  0.00000000000E+00 0. -1.
<mgrwt>
<rscale>  4 0.29731606E+03</rscale>
<asrwt>0</asrwt>
<pdfrwt beam="1">  1       21 0.14178697E+00 0.29731606E+03</pdfrwt>
<pdfrwt beam="2">  1       21 0.11566255E+00 0.29731606E+03</pdfrwt>
<totfact> 0.17973297E+02</totfact>
</mgrwt>
</event>
<event>
 5    0  0.1257040E+001  0.2849556E+03  0.7546771E-02  0.1093013E+00
         21   -1    0    0  504  501  0.00000000000E+00  0.00000000000E+00  0.14084322681E+04  0.14084322681E+04  0.00000000000E+00 0.  1.
         21   -1    0    0  503  502 -0.00000000000E+00 -0.00000000000E+00 -0.57541982925E+02  0.57541982925E+02  0.00000000000E+00 0.  1.
         25    1    1    2    0    0 -0.22387997083E+03 -0.10944783892E+03  0.73683221874E+03  0.78781202667E+03  0.12500000000E+03 0.  0.
         21    1    1    2  503  501  0.22452440543E+03  0.13424114832E+03  0.53928478712E+03  0.59938299622E+03  0.00000000000E+00 0.  1.
         21    1    1    2  504  502 -0.64443459935E+00 -0.24793309400E+02  0.74773279266E+02  0.78779228095E+02  0.00000000000E+00 0. -1.
<mgrwt>
<rscale>  4 0.28495557E+03</rscale>
<asrwt>0</asrwt>
<pdfrwt beam="1">  1       21 0.21668186E+00 0.28495557E+03</pdfrwt>
<pdfrwt beam="2">  1       21 0.88526138E-02 0.28495557E+03</pdfrwt>
<totfact> 0.99092312E+03</totfact>
</mgrwt>
</event>
<event>
 5    0  0.1257040E+001  0.3149657E+03  0.7546771E-02  0.1077990E+00
         21   -1    0    0  502  501  0.00000000000E+00  0.00000000000E+00  0.44494806585E+03  0.44494806585E+03  0.00000000000E+00 0.  1.
         21   -1    0    0  504  502 -0.00000000000E+00 -0.00000000000E+00 -0.40062969100E+03  0.40062969100E+03  0.00000000000E+00 0.  1.
         25    1    1    2    0    0 -0.26610916444E+03  0.60562275008E+02  0.26544854463E+03  0.40071162498E+03  0.12500000000E+03 0.  0.
         21    1    1    2  503  501 -0.17210309986E+02  0.11128369304E+02  0.45096886205E+02  0.49535487467E+02  0.00000000000E+00 0.  1.
         21    1    1    2  504  503  0.28331947442E+03 -0.71690644312E+02 -0.26622705598E+03  0.39533064441E+03  0.00000000000E+00 0.  1.
<mgrwt>
<rscale>  4 0.31496565E+03</rscale>
<asrwt>0</asrwt>
<pdfrwt beam="1">  1       21 0.68453548E-01 0.31496565E+03</pdfrwt>
<pdfrwt beam="2">  1       21 0.61635337E-01 0.31496565E+03</pdfrwt>
<totfact> 0.44078600E+03</totfact>
</mgrwt>
</event>
<event>
 5    0  0.1257040E+001  0.3680595E+03  0.7546771E-02  0.1055437E+00
         21   -1    0    0  502  501  0.00000000000E+00  0.00000000000E+00  0.18332386689E+04  0.18332386689E+04  0.00000000000E+00 0.  1.
         21   -1    0    0  504  502 -0.00000000000E+00 -0.00000000000E+00 -0.97940253155E+03  0.97940253155E+03  0.00000000000E+00 0.  1.
         25    1    1    2    0    0 -0.38346489918E+02  0.30808388948E+03  0.14395548323E+04  0.14779476484E+04  0.12500000000E+03 0.  0.
         21    1    1    2  503  501  0.34976753903E+02  0.38894919981E+02  0.34107940964E+03  0.34506716997E+03  0.00000000000E+00 0. -1.
         21    1    1    2  504  503  0.33697360147E+01 -0.34697880946E+03 -0.92679810461E+03  0.98962638205E+03  0.00000000000E+00 0.  1.
<mgrwt>
<rscale>  4 0.36805955E+03</rscale>
<asrwt>0</asrwt>
<pdfrwt beam="1">  1       21 0.28203672E+00 0.36805955E+03</pdfrwt>
<pdfrwt beam="2">  1       21 0.15067731E+00 0.36805955E+03</pdfrwt>
<totfact> 0.10086660E+01</totfact>
</mgrwt>
</event>
<event>
 5    0  0.1257040E+001  0.6614484E+03  0.7546771E-02  0.9785531E-01
         21   -1    0    0  502  501  0.00000000000E+00  0.00000000000E+00  0.92287857396E+03  0.92287857396E+03  0.00000000000E+00 0.  1.
         21   -1    0    0  504  502 -0.00000000000E+00 -0.00000000000E+00 -0.47161818262E+03  0.47161818262E+03  0.00000000000E+00 0.  1.
         25    1    1    2    0    0 -0.12448630875E+02 -0.64941055473E+03  0.16094861100E+03  0.68074847953E+03  0.12500000000E+03 0.  0.
         21    1    1    2  503  501  0.11692907192E+02  0.62676314130E+03  0.29090139334E+03  0.69108058866E+03  0.00000000000E+00 0.  1.
         21    1    1    2  504  503  0.75572368307E+00  0.22647413427E+02 -0.58961299830E+00  0.22667688384E+02  0.00000000000E+00 0.  1.
<mgrwt>
<rscale>  4 0.66144844E+03</rscale>
<asrwt>0</asrwt>
<pdfrwt beam="1">  1       21 0.14198132E+00 0.66144844E+03</pdfrwt>
<pdfrwt beam="2">  1       21 0.72556643E-01 0.66144844E+03</pdfrwt>
<totfact> 0.45505656E+02</totfact>
</mgrwt>
</event>
<event>
 5    0  0.1257040E+001  0.2625341E+03  0.7546771E-02  0.1105630E+00
         21   -1    0    0  502  501  0.00000000000E+00  0.00000000000E+00  0.53311255686E+03  0.53311255686E+03  0.00000000000E+00 0.  1.
         21   -1    0    0  504  502 -0.00000000000E+00 -0.00000000000E+00 -0.25629356256E+03  0.25629356256E+03  0.00000000000E+00 0. -1.
         25    1    1    2    0    0  0.10637165011E+02  0.21907183544E+03  0.34397457632E+03  0.42667215461E+03  0.12500000000E+03 0.  0.
         21    1    1    2  503  501  0.21085714730E+02  0.11649091945E+02  0.82472071236E+02  0.85918282354E+02  0.00000000000E+00 0.  1.
         21    1    1    2  504  503 -0.31722879740E+02 -0.23072092738E+03 -0.14962765326E+03  0.27681568245E+03  0.00000000000E+00 0. -1.
<mgrwt>
<rscale>  4 0.26253407E+03</rscale>
<asrwt>0</asrwt>
<pdfrwt beam="1">  1       21 0.82017316E-01 0.26253407E+03</pdfrwt>
<pdfrwt beam="2">  1       21 0.39429779E-01 0.26253407E+03</pdfrwt>
<totfact> 0.77080961E+03</totfact>
</mgrwt>
</event>
<event>
 5    0  0.1257040E+001  0.2649197E+03  0.7546771E-02  0.1104223E+00
         21   -1    0    0  502  501  0.00000000000E+00  0.00000000000E+00  0.19104071042E+04  0.19104071042E+04  0.00000000000E+00 0.  1.
         21   -1    0    0  504  502 -0.00000000000E+00 -0.00000000000E+00 -0.35496056269E+03  0.35496056269E+03  0.00000000000E+00 0.  1.
         25    1    1    2    0    0  0.16386676418E+03 -0.20702048324E+03 -0.26356867972E+03  0.39345043628E+03  0.12500000000E+03 0.  0.
         21    1    1    2  503  501 -0.17243170801E+03  0.15664429633E+03  0.18035442773E+04  0.18185274509E+04  0.00000000000E+00 0.  1.
         21    1    1    2  504  503  0.85649438336E+01  0.50376186902E+02  0.15470943932E+02  0.53389779694E+02  0.00000000000E+00 0.  1.
<mgrwt>
<rscale>  4 0.26491972E+03</rscale>
<asrwt>0</asrwt>
<pdfrwt beam="1">  1       21 0.29390878E+00 0.26491972E+03</pdfrwt>
<pdfrwt beam="2">  1       21 0.54609319E-01 0.26491972E+03</pdfrwt>
<totfact> 0.10610644E+02</totfact>
</mgrwt>
</event>
<event>
 5    0  0.1257040E+001  0.2903421E+03  0.7546771E-02  0.1090171E+00
         21   -1    0    0  503  501  0.00000000000E+00  0.00000000000E+00  0.19847243925E+04  0.19847243925E+04  0.00000000000E+00 0. -1.
         21   -1    0    0  501  502 -0.00000000000E+00 -0.00000000000E+00 -0.14011339821E+03  0.14011339821E+03  0.00000000000E+00 0.  1.
         25    1    1    2    0    0 -0.14562788727E+02  0.26388558118E+03  0.37287372037E+02  0.29472533465E+03  0.12500000000E+03 0.  0.
         21    1    1    2  503  504 -0.16130328827E+02 -0.26628124950E+02  0.72929920188E+02  0.79297022675E+02  0.00000000000E+00 0.  1.
         21    1    1    2  504  502  0.30693117554E+02 -0.23725745623E+03  0.17343937021E+04  0.17508154334E+04  0.00000000000E+00 0. -1.
<mgrwt>
<rscale>  4 0.29034208E+03</rscale>
<asrwt>0</asrwt>
<pdfrwt beam="1">  1       21 0.30534219E+00 0.29034208E+03</pdfrwt>
<pdfrwt beam="2">  1       21 0.21555909E-01 0.29034208E+03</pdfrwt>
<totfact> 0.56992499E+02</totfact>
</mgrwt>
</event>
<event>
 5    0  0.1257040E+001  0.3559424E+03  0.7546771E-02  0.1060202E+00
         21   -1    0    0  502  501  0.00000000000E+00  0.00000000000E+00  0.38020435192E+03  0.38020435192E+03  0.00000000000E+00 0.  1.
         21   -1    0    0  504  502 -0.00000000000E+00 -0.00000000000E+00 -0.42549796167E+03  0.42549796167E+03  0.00000000000E+00 0.  1.
         25    1    1    2    0    0  0.32426957159E+03 -0.11073491882E+03  0.88247384003E+02  0.37526734216E+03  0.12500000000E+03 0.  0.
         21    1    1    2  503  501 -0.19033836735E+02 -0.13368563111E+02  0.48646373509E+02  0.53921007744E+02  0.00000000000E+00 0. -1.
         21    1    1    2  504  503 -0.30523573486E+03  0.12410348193E+03 -0.18218736727E+03  0.37651396369E+03  0.00000000000E+00 0.  1.
<mgrwt>
<rscale>  4 0.35594239E+03</rscale>
<asrwt>0</asrwt>
<pdfrwt beam="1">  1       21 0.58492977E-01 0.35594239E+03</pdfrwt>
<pdfrwt beam="2">  1       21 0.65461225E-01 0.35594239E+03</pdfrwt>
<totfact> 0.53544386E+03</totfact>
</mgrwt>
</event>
<event>
 5    0  0.1257040E+001  0.3185130E+03  0.7546771E-02  0.1076336E+00
         21   -1    0    0  503  501  0.00000000000E+00  0.00000000000E+00  0.30401833688E+03  0.30401833688E+03  0.00000000000E+00 0.  1.
         21   -1    0    0  504  502 -0.00000000000E+00 -0.00000000000E+00 -0.46319120809E+03  0.46319120809E+03  0.00000000000E+00 0. -1.
         25    1    1    2    0    0  0.37595718453E+02 -0.28766944862E+03 -0.26886924063E+03  0.41482866135E+03  0.12500000000E+03 0.  0.
         21    1    1    2  503  502  0.29858482544E+02  0.14053616717E+01 -0.14385839841E+02  0.33173127818E+02  0.00000000000E+00 0. -1.
         21    1    1    2  504  501 -0.67454200998E+02  0.28626408695E+03  0.12408220926E+03  0.31920775580E+03  0.00000000000E+00 0.  1.
<mgrwt>
<rscale>  4 0.31851298E+03</rscale>
<asrwt>0</asrwt>
<pdfrwt beam="1">  1       21 0.46772052E-01 0.31851298E+03</pdfrwt>
<pdfrwt beam="2">  1       21 0.71260186E-01 0.31851298E+03</pdfrwt>
<totfact> 0.72508824E+03</totfact>
</mgrwt>
</event>
<event>
 5    0  0.1257040E+001  0.3715103E+03  0.7546771E-02  0.1054117E+00
         21   -1    0    0  502  501  0.00000000000E+00  0.00000000000E+00  0.54352933938E+03  0.54352933938E+03  0.00000000000E+00 0. -1.
         21   -1    0    0  504  502 -0.00000000000E+00 -0.00000000000E+00 -0.53370501349E+03  0.53370501349E+03  0.00000000000E+00 0. -1.
         25    1    1    2    0    0 -0.34224181138E+03 -0.11322361432E+03 -0.57804196218E+02  0.38589554208E+03  0.12500000000E+03 0.  0.
         21    1    1    2  503  501  0.11255911165E+02  0.20124702934E+02  0.28410357439E+03  0.28503778729E+03  0.00000000000E+00 0. -1.
         21    1    1    2  504  503  0.33098590021E+03  0.93098911387E+02 -0.21647505227E+03  0.40630102350E+03  0.00000000000E+00 0. -1.
<mgrwt>
<rscale>  4 0.37151025E+03</rscale>
<asrwt>0</asrwt>
<pdfrwt beam="1">  1       21 0.83619899E-01 0.37151025E+03</pdfrwt>
<pdfrwt beam="2">  1       21 0.82108463E-01 0.37151025E+03</pdfrwt>
<totfact> 0.14297377E+03</totfact>
</mgrwt>
</event>
<event>
 5    0  0.1257040E+001  0.4288982E+03  0.7546771E-02  0.1034209E+00
         21   -1    0    0  504  501  0.00000000000E+00  0.00000000000E+00  0.14689849107E+03  0.14689849107E+03  0.00000000000E+00 0.  1.
         21   -1    0    0  503  502 -0.00000000000E+00 -0.00000000000E+00 -0.16695663223E+04  0.16695663223E+04  0.00000000000E+00 0.  1.
         25    1    1    2    0    0  0.33871707279E+03 -0.21228524988E+03 -0.55136603611E+03  0.69240435331E+03  0.12500000000E+03 0.  0.
         21    1    1    2  503  501 -0.34161406863E+03  0.23859360472E+03 -0.10010095220E+04  0.10842726333E+04  0.00000000000E+00 0.  1.
         21    1    1    2  504  502  0.28969958416E+01 -0.26308354839E+02  0.29707726916E+02  0.39787826753E+02  0.00000000000E+00 0. -1.
<mgrwt>
<rscale>  4 0.42889822E+03</rscale>
<asrwt>0</asrwt>
<pdfrwt beam="1">  1       21 0.22599769E-01 0.42889822E+03</pdfrwt>
<pdfrwt beam="2">  1       21 0.25685635E+00 0.42889822E+03</pdfrwt>
<totfact> 0.91976636E+02</totfact>
</mgrwt>
</event>
<event>
 5    0  0.1257040E+001  0.5435981E+03  0.7546771E-02  0.1002987E+00
         21   -1    0    0  502  501  0.00000000000E+00  0.00000000000E+00  0.29881534612E+03  0.29881534612E+03  0.00000000000E+00 0. -1.
         21   -1    0    0  504  502 -0.00000000000E+00 -0.00000000000E+00 -0.12202853979E+04  0.12202853979E+04  0.00000000000E+00 0. -1.
         25    1    1    2    0    0 -0.42548847236E+03 -0.28760327498E+03 -0.29669661120E+03  0.60614351683E+03  0.12500000000E+03 0.  0.
         21    1    1    2  503  501  0.50670340142E+03  0.20211410041E+03 -0.54112371642E+03  0.76838357808E+03  0.00000000000E+00 0. -1.
         21    1    1    2  504  503 -0.81214929054E+02  0.85489174573E+02 -0.83649724193E+02  0.14457364915E+03  0.00000000000E+00 0. -1.
<mgrwt>
<rscale>  4 0.54359809E+03</rscale>
<asrwt>0</asrwt>
<pdfrwt beam="1">  1       21 0.45971593E-01 0.54359809E+03</pdfrwt>
<pdfrwt beam="2">  1       21 0.18773621E+00 0.54359809E+03</pdfrwt>
<totfact> 0.58320959E+02</totfact>
</mgrwt>
</event>
<event>
 5    0  0.1257040E+001  0.3212421E+03  0.7546771E-02  0.1075079E+00
         21   -1    0    0  502  501  0.00000000000E+00  0.00000000000E+00  0.91913203428E+03  0.91913203428E+03  0.00000000000E+00 0. -1.
         21   -1    0    0  504  502 -0.00000000000E+00 -0.00000000000E+00 -0.76434768087E+03  0.76434768087E+03  0.00000000000E+00 0.  1.
         25    1    1    2    0    0 -0.25626736342E+03 -0.98998002622E+02  0.81222132170E+03  0.86648833893E+03  0.12500000000E+03 0.  0.
         21    1    1    2  503  501 -0.27111160012E+02  0.11074576883E+02  0.45438044001E+02  0.54058089986E+02  0.00000000000E+00 0. -1.
         21    1    1    2  504  503  0.28337852343E+03  0.87923425739E+02 -0.70287501229E+03  0.76293328623E+03  0.00000000000E+00 0.  1.
<mgrwt>
<rscale>  4 0.32124208E+03</rscale>
<asrwt>0</asrwt>
<pdfrwt beam="1">  1       21 0.14140493E+00 0.32124208E+03</pdfrwt>
<pdfrwt beam="2">  1       21 0.11759195E+00 0.32124208E+03</pdfrwt>
<totfact> 0.17048650E+02</totfact>
</mgrwt>
</event>
<event>
 5    0  0.1257040E+001  0.2758639E+03  0.7546771E-02  0.1097970E+00
         21   -1    0    0  504  501  0.00000000000E+00  0.00000000000E+00  0.11280839262E+03  0.11280839262E+03  0.00000000000E+00 0. -1.
         21   -1    0    0  501  502 -0.00000000000E+00 -0.00000000000E+00 -0.73641658996E+03  0.73641658996E+03  0.00000000000E+00 0. -1.
         25    1    1    2    0    0 -0.15762923569E+03  0.19725911304E+03 -0.22265649935E+03  0.35910868873E+03  0.12500000000E+03 0.  0.
         21    1    1    2  503  502  0.17800533437E+03 -0.15991613371E+03 -0.33733140111E+03  0.41358377998E+03  0.00000000000E+00 0. -1.
         21    1    1    2  504  503 -0.20376098686E+02 -0.37342979336E+02 -0.63620296873E+02  0.76532513858E+02  0.00000000000E+00 0. -1.
<mgrwt>
<rscale>  4 0.27586394E+03</rscale>
<asrwt>0</asrwt>
<pdfrwt beam="1">  1       21 0.17355137E-01 0.27586394E+03</pdfrwt>
<pdfrwt beam="2">  1       21 0.11329486E+00 0.27586394E+03</pdfrwt>
<totfact> 0.17430455E+04</totfact>
</mgrwt>
</event>
<event>
 5    0  0.1257040E+001  0.3192003E+03  0.7546771E-02  0.1076018E+00
         21   -1    0    0  502  501  0.00000000000E+00  0.00000000000E+00  0.10294216013E+04  0.10294216013E+04  0.00000000000E+00 0. -1.
         21   -1    0    0  504  502 -0.00000000000E+00 -0.00000000000E+00 -0.10695106232E+03  0.10695106232E+03  0.00000000000E+00 0. -1.
         25    1    1    2    0    0  0.27988082121E+03 -0.19387877860E+02  0.39772094896E+03  0.50250981794E+03  0.12500000000E+03 0.  0.
         21    1    1    2  503  501 -0.30442126350E+03 -0.80754622915E+00  0.51881296025E+03  0.60153125067E+03  0.00000000000E+00 0. -1.
         21    1    1    2  504  503  0.24540442296E+02  0.20195424089E+02  0.59366297473E+01  0.32331594996E+02  0.00000000000E+00 0.  1.
<mgrwt>
<rscale>  4 0.31920032E+03</rscale>
<asrwt>0</asrwt>
<pdfrwt beam="1">  1       21 0.15837255E+00 0.31920032E+03</pdfrwt>
<pdfrwt beam="2">  1       21 0.16454010E-01 0.31920032E+03</pdfrwt>
<totfact> 0.79177443E+03</totfact>
</mgrwt>
</event>
<event>
 5    0  0.1257040E+001  0.2426524E+03  0.7546771E-02  0.1118038E+00
         21   -1    0    0  503  501  0.00000000000E+00  0.00000000000E+00  0.23772271576E+03  0.23772271576E+03  0.00000000000E+00 0.  1.
         21   -1    0    0  504  502 -0.00000000000E+00 -0.00000000000E+00 -0.27141719185E+03  0.27141719185E+03  0.00000000000E+00 0.  1.
         25    1    1    2    0    0 -0.64008165657E+02 -0.19639274122E+03  0.70559688650E+02  0.25153692321E+03  0.12500000000E+03 0.  0.
         21    1    1    2  503  502  0.20898553830E+02 -0.10405436232E+02 -0.17778360532E+02  0.29344382062E+02  0.00000000000E+00 0.  1.
         21    1    1    2  504  501  0.43109611826E+02  0.20679817745E+03 -0.86475804207E+02  0.22825860234E+03  0.00000000000E+00 0.  1.
<mgrwt>
<rscale>  4 0.24265244E+03</rscale>
<asrwt>0</asrwt>
<pdfrwt beam="1">  1       21 0.36572725E-01 0.24265244E+03</pdfrwt>
<pdfrwt beam="2">  1       21 0.41756491E-01 0.24265244E+03</pdfrwt>
<totfact> 0.38866841E+04</totfact>
</mgrwt>
</event>
<event>
 5    0  0.1257040E+001  0.2704855E+03  0.7546771E-02  0.1101002E+00
         21   -1    0    0  503  501  0.00000000000E+00  0.00000000000E+00  0.61410323757E+03  0.61410323757E+03  0.00000000000E+00 0. -1.
         21   -1    0    0  504  502 -0.00000000000E+00 -0.00000000000E+00 -0.16535396355E+03  0.16535396355E+03  0.00000000000E+00 0. -1.
         25    1    1    2    0    0  0.12132410988E+03  0.19957705760E+03  0.40658977031E+03  0.48527392561E+03  0.12500000000E+03 0.  0.
         21    1    1    2  503  502  0.26098919866E+02  0.13433823500E+02  0.16982731686E+02  0.33912157223E+02  0.00000000000E+00 0. -1.
         21    1    1    2  504  501 -0.14742302975E+03 -0.21301088110E+03  0.25176772023E+02  0.26027111829E+03  0.00000000000E+00 0. -1.
<mgrwt>
<rscale>  4 0.27048550E+03</rscale>
<asrwt>0</asrwt>
<pdfrwt beam="1">  1       21 0.94477420E-01 0.27048550E+03</pdfrwt>
<pdfrwt beam="2">  1       21 0.25439072E-01 0.27048550E+03</pdfrwt>
<totfact> 0.13141745E+04</totfact>
</mgrwt>
</event>
<event>
 5    0  0.1257040E+001  0.2939349E+03  0.7546771E-02  0.1088312E+00
         21   -1    0    0  504  501  0.00000000000E+00  0.00000000000E+00  0.45173864728E+03  0.45173864728E+03  0.00000000000E+00 0.  1.
         21   -1    0    0  503  502 -0.00000000000E+00 -0.00000000000E+00 -0.87720287580E+03  0.87720287580E+03  0.00000000000E+00 0.  1.
         25    1    1    2    0    0 -0.24113014022E+03  0.16359572098E+03 -0.61555743761E+03  0.69241841646E+03  0.12500000000E+03 0.  0.
         21    1    1    2  503  501  0.22436455252E+02 -0.15022154657E+02 -0.17982222518E+03  0.18183809371E+03  0.00000000000E+00 0.  1.
         21    1    1    2  504  502  0.21869368496E+03 -0.14857356633E+03  0.36991543427E+03  0.45468501291E+03  0.00000000000E+00 0.  1.
<mgrwt>
<rscale>  4 0.29393489E+03</rscale>
<asrwt>0</asrwt>
<pdfrwt beam="1">  1       21 0.69498254E-01 0.29393489E+03</pdfrwt>
<pdfrwt beam="2">  1       21 0.13495429E+00 0.29393489E+03</pdfrwt>
<totfact> 0.67720995E+02</totfact>
</mgrwt>
</event>
<event>
 5    0  0.1257040E+001  0.2540608E+03  0.7546771E-02  0.1110765E+00
         21   -1    0    0  504  501  0.00000000000E+00  0.00000000000E+00  0.36045497008E+03  0.36045497008E+03  0.00000000000E+00 0. -1.
         21   -1    0    0  503  502 -0.00000000000E+00 -0.00000000000E+00 -0.18480538598E+03  0.18480538598E+03  0.00000000000E+00 0.  1.
         25    1    1    2    0    0  0.19279627996E+03  0.75126035446E+02  0.19751953718E+02  0.24254786423E+03  0.12500000000E+03 0.  0.
         21    1    1    2  503  501  0.18017791689E+02  0.13878211535E+02 -0.46032888045E+01  0.23204220318E+02  0.00000000000E+00 0.  1.
         21    1    1    2  504  502 -0.21081407164E+03 -0.89004246981E+02  0.16050091919E+03  0.27950827151E+03  0.00000000000E+00 0. -1.
<mgrwt>
<rscale>  4 0.25406076E+03</rscale>
<asrwt>0</asrwt>
<pdfrwt beam="1">  1       21 0.55454611E-01 0.25406076E+03</pdfrwt>
<pdfrwt beam="2">  1       21 0.28431598E-01 0.25406076E+03</pdfrwt>
<totfact> 0.35204107E+04</totfact>
</mgrwt>
</event>
<event>
 5    0  0.1257040E+001  0.2407865E+03  0.7546771E-02  0.1119270E+00
         21   -1    0    0  504  501  0.00000000000E+00  0.00000000000E+00  0.11420009970E+03  0.11420009970E+03  0.00000000000E+00 0. -1.
         21   -1    0    0  503  502 -0.00000000000E+00 -0.00000000000E+00 -0.98337030434E+03  0.98337030434E+03  0.00000000000E+00 0. -1.
         25    1    1    2    0    0 -0.17880752761E+03 -0.91305686553E+02 -0.62263392706E+03  0.66603818769E+03  0.12500000000E+03 0.  0.
         21    1    1    2  503  501 -0.62184891403E+02  0.93142267637E+02 -0.94924981011E+02  0.14681006355E+03  0.00000000000E+00 0. -1.
         21    1    1    2  504  502  0.24099241902E+03 -0.18365810840E+01 -0.15161129657E+03  0.28472215281E+03  0.00000000000E+00 0. -1.
<mgrwt>
<rscale>  4 0.24078647E+03</rscale>
<asrwt>0</asrwt>
<pdfrwt beam="1">  1       21 0.17569246E-01 0.24078647E+03</pdfrwt>
<pdfrwt beam="2">  1       21 0.15128774E+00 0.24078647E+03</pdfrwt>
<totfact> 0.82880175E+03</totfact>
</mgrwt>
</event>
<event>
 5    0  0.1257040E+001  0.3463928E+03  0.7546771E-02  0.1064105E+00
         21   -1    0    0  502  501  0.00000000000E+00  0.00000000000E+00  0.10909722875E+04  0.10909722875E+04  0.00000000000E+00 0. -1.
         21   -1    0    0  504  502 -0.00000000000E+00 -0.00000000000E+00 -0.17594765717E+03  0.17594765717E+03  0.00000000000E+00 0. -1.
         25    1    1    2    0    0 -0.15683095293E+03 -0.29975713018E+03  0.81351504028E+03  0.88987752284E+03  0.12500000000E+03 0.  0.
         21    1    1    2  503  501  0.11825094356E+03  0.26106428225E+03  0.13081408055E+03  0.31503994793E+03  0.00000000000E+00 0. -1.
         21    1    1    2  504  503  0.38580009361E+02  0.38692847925E+02 -0.29304490528E+02  0.62002473886E+02  0.00000000000E+00 0. -1.
<mgrwt>
<rscale>  4 0.34639281E+03</rscale>
<asrwt>0</asrwt>
<pdfrwt beam="1">  1       21 0.16784189E+00 0.34639281E+03</pdfrwt>
<pdfrwt beam="2">  1       21 0.27068871E-01 0.34639281E+03</pdfrwt>
<totfact> 0.25791817E+03</totfact>
</mgrwt>
</event>
<event>
 5    0  0.1257040E+001  0.3299678E+03  0.7546771E-02  0.1071151E+00
         21   -1    0    0  502  501  0.00000000000E+00  0.00000000000E+00  0.61444947068E+03  0.61444947068E+03  0.00000000000E+00 0.  1.
         21   -1    0    0  504  502 -0.00000000000E+00 -0.00000000000E+00 -0.18205228708E+03  0.18205228708E+03  0.00000000000E+00 0.  1.
         25    1    1    2    0    0 -0.25940560413E+03 -0.17325233965E+03  0.22617894839E+03  0.40507969259E+03  0.12500000000E+03 0.  0.
         21    1    1    2  503  501  0.26470627790E+03  0.14227512529E+03  0.17860812320E+03  0.34958902515E+03  0.00000000000E+00 0.  1.
         21    1    1    2  504  503 -0.53006737634E+01  0.30977214359E+02  0.27610112020E+02  0.41833040023E+02  0.00000000000E+00 0.  1.
<mgrwt>
<rscale>  4 0.32996777E+03</rscale>
<asrwt>0</asrwt>
<pdfrwt beam="1">  1       21 0.94530687E-01 0.32996777E+03</pdfrwt>
<pdfrwt beam="2">  1       21 0.28008044E-01 0.32996777E+03</pdfrwt>
<totfact> 0.10599740E+04</totfact>
</mgrwt>
</event>
<event>
 5    0  0.1257040E+001  0.2412032E+03  0.7546771E-02  0.1118994E+00
         21   -1    0    0  503  501  0.00000000000E+00  0.00000000000E+00  0.30208466970E+03  0.30208466970E+03  0.00000000000E+00 0. -1.
         21   -1    0    0  504  502 -0.00000000000E+00 -0.00000000000E+00 -0.29657920800E+03  0.29657920800E+03  0.00000000000E+00 0. -1.
         25    1    1    2    0    0  0.21104213624E+03  0.86078407072E+02  0.28966086879E+01  0.25996473948E+03  0.12500000000E+03 0.  0.
         21    1    1    2  503  502 -0.72172136987E+02  0.59972332303E+02 -0.77623568092E+02  0.12178224962E+03  0.00000000000E+00 0. -1.
         21    1    1    2  504  501 -0.13886999925E+03 -0.14605073937E+03  0.80232421101E+02  0.21691688860E+03  0.00000000000E+00 0. -1.
<mgrwt>
<rscale>  4 0.24120324E+03</rscale>
<asrwt>0</asrwt>
<pdfrwt beam="1">  1       21 0.46474565E-01 0.24120324E+03</pdfrwt>
<pdfrwt beam="2">  1       21 0.45627570E-01 0.24120324E+03</pdfrwt>
<totfact> 0.19878967E+04</totfact>
</mgrwt>
</event>
<event>
 5    0  0.1257040E+001  0.2658640E+03  0.7546771E-02  0.1103670E+00
         21   -1    0    0  504  501  0.00000000000E+00  0.00000000000E+00  0.12076268823E+04  0.12076268823E+04  0.00000000000E+00 0. -1.
         21   -1    0    0  501  502 -0.00000000000E+00 -0.00000000000E+00 -0.59782406048E+02  0.59782406048E+02  0.00000000000E+00 0. -1.
         25    1    1    2    0    0 -0.14056608071E+03  0.18373117839E+03  0.46119250131E+03  0.53088557357E+03  0.12500000000E+03 0.  0.
         21    1    1    2  503  502  0.19271763473E+02  0.20218756529E+02  0.53237194327E+02  0.60119862297E+02  0.00000000000E+00 0. -1.
         21    1    1    2  504  503  0.12129431724E+03 -0.20394993492E+03  0.63341478062E+03  0.67640385249E+03  0.00000000000E+00 0. -1.
<mgrwt>
<rscale>  4 0.26586398E+03</rscale>
<asrwt>0</asrwt>
<pdfrwt beam="1">  1       21 0.18578873E+00 0.26586398E+03</pdfrwt>
<pdfrwt beam="2">  1       21 0.91972941E-02 0.26586398E+03</pdfrwt>
<totfact> 0.14892150E+04</totfact>
</mgrwt>
</event>
<event>
 5    0  0.1257040E+001  0.2625587E+03  0.7546771E-02  0.1105616E+00
         21   -1    0    0  502  501  0.00000000000E+00  0.00000000000E+00  0.83775214823E+02  0.83775214823E+02  0.00000000000E+00 0. -1.
         21   -1    0    0  504  502 -0.00000000000E+00 -0.00000000000E+00 -0.11458364626E+04  0.11458364626E+04  0.00000000000E+00 0. -1.
         25    1    1    2    0    0 -0.11834306669E+03 -0.19146723805E+03 -0.52310765612E+03  0.58303636642E+03  0.12500000000E+03 0.  0.
         21    1    1    2  503  501  0.19740293745E+03  0.13851523674E+03 -0.27376049516E+03  0.36482762948E+03  0.00000000000E+00 0. -1.
         21    1    1    2  504  503 -0.79059870761E+02  0.52952001315E+02 -0.26519309647E+03  0.28174768148E+03  0.00000000000E+00 0.  1.
<mgrwt>
<rscale>  4 0.26255873E+03</rscale>
<asrwt>0</asrwt>
<pdfrwt beam="1">  1       21 0.12888496E-01 0.26255873E+03</pdfrwt>
<pdfrwt beam="2">  1       21 0.17628251E+00 0.26255873E+03</pdfrwt>
<totfact> 0.94818760E+03</totfact>
</mgrwt>
</event>
<event>
 5    0  0.1257040E+001  0.1999311E+03  0.7546771E-02  0.1149797E+00
         21   -1    0    0  502  501  0.00000000000E+00  0.00000000000E+00  0.94567487722E+03  0.94567487722E+03  0.00000000000E+00 0.  1.
         21   -1    0    0  504  502 -0.00000000000E+00 -0.00000000000E+00 -0.65862095418E+02  0.65862095418E+02  0.00000000000E+00 0.  1.
         25    1    1    2    0    0 -0.60476586931E+02  0.20600827819E+03  0.40570799405E+03  0.47573186217E+03  0.12500000000E+03 0.  0.
         21    1    1    2  503  501  0.66143770730E+02 -0.72746887244E+02  0.30483337022E+03  0.32029750485E+03  0.00000000000E+00 0.  1.
         21    1    1    2  504  503 -0.56671837997E+01 -0.13326139094E+03  0.16927141753E+03  0.21550760562E+03  0.00000000000E+00 0.  1.
<mgrwt>
<rscale>  4 0.19993107E+03</rscale>
<asrwt>0</asrwt>
<pdfrwt beam="1">  1       21 0.14548843E+00 0.19993107E+03</pdfrwt>
<pdfrwt beam="2">  1       21 0.10132631E-01 0.19993107E+03</pdfrwt>
<totfact> 0.25551505E+04</totfact>
</mgrwt>
</event>
<event>
 5    0  0.1257040E+001  0.2355921E+03  0.7546771E-02  0.1122765E+00
         21   -1    0    0  502  501  0.00000000000E+00  0.00000000000E+00  0.57944410954E+03  0.57944410954E+03  0.00000000000E+00 0. -1.
         21   -1    0    0  504  502 -0.00000000000E+00 -0.00000000000E+00 -0.63225376953E+03  0.63225376953E+03  0.00000000000E+00 0. -1.
         25    1    1    2    0    0 -0.23505275147E+03  0.64230483912E+02 -0.13372186640E+03  0.30476530083E+03  0.12500000000E+03 0.  0.
         21    1    1    2  503  501  0.19288761632E+03 -0.34053421959E+02  0.47272833881E+03  0.51170044986E+03  0.00000000000E+00 0. -1.
         21    1    1    2  504  503  0.42165135146E+02 -0.30177061953E+02 -0.39181613240E+03  0.39523212837E+03  0.00000000000E+00 0. -1.
<mgrwt>
<rscale>  4 0.23559214E+03</rscale>
<asrwt>0</asrwt>
<pdfrwt beam="1">  1       21 0.89145247E-01 0.23559214E+03</pdfrwt>
<pdfrwt beam="2">  1       21 0.97269811E-01 0.23559214E+03</pdfrwt>
<totfact> 0.90388654E+02</totfact>
</mgrwt>
</event>
<event>
 5    0  0.1257040E+001  0.5519012E+03  0.7546771E-02  0.1001055E+00
         21   -1    0    0  504  501  0.00000000000E+00  0.00000000000E+00  0.11337445243E+04  0.11337445243E+04  0.00000000000E+00 0. -1.
         21   -1    0    0  503  502 -0.00000000000E+00 -0.00000000000E+00 -0.30583439467E+03  0.30583439467E+03  0.00000000000E+00 0. -1.
         25    1    1    2    0    0 -0.45678802637E+02 -0.52680228365E+03  0.54797814142E+03  0.77169439711E+03  0.12500000000E+03 0.  0.
         21    1    1    2  503  501  0.26111386982E+01  0.54346597329E+03  0.20699422902E+03  0.58155712791E+03  0.00000000000E+00 0. -1.
         21    1    1    2  504  502  0.43067663939E+02 -0.16663689647E+02  0.72937759149E+02  0.86327393911E+02  0.00000000000E+00 0.  1.
<mgrwt>
<rscale>  4 0.55190117E+03</rscale>
<asrwt>0</asrwt>
<pdfrwt beam="1">  1       21 0.17442223E+00 0.55190117E+03</pdfrwt>
<pdfrwt beam="2">  1       21 0.47051446E-01 0.55190117E+03</pdfrwt>
<totfact> 0.68774774E+02</totfact>
</mgrwt>
</event>
<event>
 5    0  0.1257040E+001  0.2446699E+03  0.7546771E-02  0.1116720E+00
         21   -1    0    0  502  501  0.00000000000E+00  0.00000000000E+00  0.55639420500E+03  0.55639420500E+03  0.00000000000E+00 0.  1.
         21   -1    0    0  504  502 -0.00000000000E+00 -0.00000000000E+00 -0.17152605715E+03  0.17152605715E+03  0.00000000000E+00 0.  1.
         25    1    1    2    0    0 -0.14263525563E+03  0.19430834793E+03  0.27794722776E+03  0.38856172179E+03  0.12500000000E+03 0.  0.
         21    1    1    2  503  501  0.39718333329E+02 -0.20262345079E+02  0.12849676743E+03  0.13601296949E+03  0.00000000000E+00 0.  1.
         21    1    1    2  504  503  0.10291692231E+03 -0.17404600285E+03 -0.21575847335E+02  0.20334557087E+03  0.00000000000E+00 0.  1.
<mgrwt>
<rscale>  4 0.24466992E+03</rscale>
<asrwt>0</asrwt>
<pdfrwt beam="1">  1       21 0.85599108E-01 0.24466992E+03</pdfrwt>
<pdfrwt beam="2">  1       21 0.26388624E-01 0.24466992E+03</pdfrwt>
<totfact> 0.15618528E+04</totfact>
</mgrwt>
</event>
<event>
 5    0  0.1257040E+001  0.1885240E+03  0.7546771E-02  0.1159799E+00
         21   -1    0    0  504  501  0.00000000000E+00  0.00000000000E+00  0.55669697202E+03  0.55669697202E+03  0.00000000000E+00 0.  1.
         21   -1    0    0  503  502 -0.00000000000E+00 -0.00000000000E+00 -0.30745241838E+03  0.30745241838E+03  0.00000000000E+00 0.  1.
         25    1    1    2    0    0  0.12124632047E+03 -0.17841069052E+03 -0.12311314989E+03  0.27805195988E+03  0.12500000000E+03 0.  0.
         21    1    1    2  503  501  0.87010660175E+01  0.12906350987E+03 -0.52103598807E+02  0.13945566729E+03  0.00000000000E+00 0.  1.
         21    1    1    2  504  502 -0.12994738648E+03  0.49347180649E+02  0.42446130233E+03  0.44664176324E+03  0.00000000000E+00 0.  1.
<mgrwt>
<rscale>  4 0.18852400E+03</rscale>
<asrwt>0</asrwt>
<pdfrwt beam="1">  1       21 0.85645688E-01 0.18852400E+03</pdfrwt>
<pdfrwt beam="2">  1       21 0.47300372E-01 0.18852400E+03</pdfrwt>
<totfact> 0.50520958E+03</totfact>
</mgrwt>
</event>
<event>
 5    0  0.1257040E+001  0.3180844E+03  0.7546771E-02  0.1076534E+00
         21   -1    0    0  504  501  0.00000000000E+00  0.00000000000E+00  0.11958104253E+04  0.11958104253E+04  0.00000000000E+00 0. -1.
         21   -1    0    0  501  502 -0.00000000000E+00 -0.00000000000E+00 -0.12461798087E+03  0.12461798087E+03  0.00000000000E+00 0. -1.
         25    1    1    2    0    0  0.88755841492E+02  0.27870246742E+03  0.15173321145E+03  0.35242110068E+03  0.12500000000E+03 0.  0.
         21    1    1    2  503  502 -0.96545050371E+02 -0.24389197846E+03  0.85505483928E+03  0.89438415800E+03  0.00000000000E+00 0. -1.
         21    1    1    2  504  503  0.77892088797E+01 -0.34810488959E+02  0.64404393660E+02  0.73623147441E+02  0.00000000000E+00 0.  1.
<mgrwt>
<rscale>  4 0.31808437E+03</rscale>
<asrwt>0</asrwt>
<pdfrwt beam="1">  1       21 0.18397083E+00 0.31808437E+03</pdfrwt>
<pdfrwt beam="2">  1       21 0.19171998E-01 0.31808437E+03</pdfrwt>
<totfact> 0.39022539E+03</totfact>
</mgrwt>
</event>
<event>
 5    0  0.1257040E+001  0.3303038E+03  0.7546771E-02  0.1071003E+00
         21   -1    0    0  504  501  0.00000000000E+00  0.00000000000E+00  0.47812073409E+03  0.47812073409E+03  0.00000000000E+00 0.  1.
         21   -1    0    0  503  502 -0.00000000000E+00 -0.00000000000E+00 -0.32112201541E+03  0.32112201541E+03  0.00000000000E+00 0.  1.
         25    1    1    2    0    0  0.19360784603E+03  0.26093982417E+03  0.13507118868E+03  0.37342042780E+03  0.12500000000E+03 0.  0.
         21    1    1    2  503  501 -0.17729827257E+02 -0.29862737783E+02 -0.10374206905E+03  0.10940085362E+03  0.00000000000E+00 0.  1.
         21    1    1    2  504  502 -0.17587801877E+03 -0.23107708639E+03  0.12566959904E+03  0.31642146808E+03  0.00000000000E+00 0.  1.
<mgrwt>
<rscale>  4 0.33030380E+03</rscale>
<asrwt>0</asrwt>
<pdfrwt beam="1">  1       21 0.73557036E-01 0.33030380E+03</pdfrwt>
<pdfrwt beam="2">  1       21 0.49403387E-01 0.33030380E+03</pdfrwt>
<totfact> 0.59870154E+03</totfact>
</mgrwt>
</event>
<event>
 5    0  0.1257040E+001  0.2591484E+03  0.7546771E-02  0.1107656E+00
         21   -1    0    0  502  501  0.00000000000E+00  0.00000000000E+00  0.45116602482E+03  0.45116602482E+03  0.00000000000E+00 0.  1.
         21   -1    0    0  504  502 -0.00000000000E+00 -0.00000000000E+00 -0.21858799796E+03  0.21858799796E+03  0.00000000000E+00 0.  1.
         25    1    1    2    0    0 -0.13918816961E+03 -0.19392073703E+03  0.29257843613E+03  0.39775085179E+03  0.12500000000E+03 0.  0.
         21    1    1    2  503  501  0.19693398679E+02  0.39086170334E+01  0.24930278325E+02  0.32009780005E+02  0.00000000000E+00 0.  1.
         21    1    1    2  504  503  0.11949477093E+03  0.19001212000E+03 -0.84930687590E+02  0.23999339099E+03  0.00000000000E+00 0.  1.
<mgrwt>
<rscale>  4 0.25914839E+03</rscale>
<asrwt>0</asrwt>
<pdfrwt beam="1">  1       21 0.69410157E-01 0.25914839E+03</pdfrwt>
<pdfrwt beam="2">  1       21 0.33628923E-01 0.25914839E+03</pdfrwt>
<totfact> 0.15485722E+04</totfact>
</mgrwt>
</event>
<event>
 5    0  0.1257040E+001  0.3311305E+03  0.7546771E-02  0.1070638E+00
         21   -1    0    0  502  501  0.00000000000E+00  0.00000000000E+00  0.98244574825E+02  0.98244574825E+02  0.00000000000E+00 0. -1.
         21   -1    0    0  504  502 -0.00000000000E+00 -0.00000000000E+00 -0.13014171479E+04  0.13014171479E+04  0.00000000000E+00 0.  1.
         25    1    1    2    0    0  0.12690723201E+03 -0.29920410360E+03 -0.79803338040E+03  0.87069559398E+03  0.12500000000E+03 0.  0.
         21    1    1    2  503  501 -0.11553782401E+03  0.27519895515E+03 -0.31058101560E+03  0.43074821061E+03  0.00000000000E+00 0. -1.
         21    1    1    2  504  503 -0.11369408006E+02  0.24005148453E+02 -0.94558177048E+02  0.98217918107E+02  0.00000000000E+00 0.  1.
<mgrwt>
<rscale>  4 0.33113053E+03</rscale>
<asrwt>0</asrwt>
<pdfrwt beam="1">  1       21 0.15114550E-01 0.33113053E+03</pdfrwt>
<pdfrwt beam="2">  1       21 0.20021803E+00 0.33113053E+03</pdfrwt>
<totfact> 0.46921530E+03</totfact>
</mgrwt>
</event>
<event>
 5    0  0.1257040E+001  0.2032631E+03  0.7546771E-02  0.1147015E+00
         21   -1    0    0  503  501  0.00000000000E+00  0.00000000000E+00  0.91439491812E+02  0.91439491812E+02  0.00000000000E+00 0. -1.
         21   -1    0    0  504  502 -0.00000000000E+00 -0.00000000000E+00 -0.83734372697E+03  0.83734372697E+03  0.00000000000E+00 0. -1.
         25    1    1    2    0    0  0.21419867071E+03 -0.41262583175E+02 -0.40601042081E+03  0.47754908974E+03  0.12500000000E+03 0.  0.
         21    1    1    2  503  502 -0.13840702686E+03 -0.20400912942E+02 -0.32310716668E+03  0.35209507735E+03  0.00000000000E+00 0. -1.
         21    1    1    2  504  501 -0.75791643856E+02  0.61663496117E+02 -0.16786647673E+02  0.99139051699E+02  0.00000000000E+00 0. -1.
<mgrwt>
<rscale>  4 0.20326309E+03</rscale>
<asrwt>0</asrwt>
<pdfrwt beam="1">  1       21 0.14067614E-01 0.20326309E+03</pdfrwt>
<pdfrwt beam="2">  1       21 0.12882211E+00 0.20326309E+03</pdfrwt>
<totfact> 0.19360708E+04</totfact>
</mgrwt>
</event>
<event>
 5    0  0.1257040E+001  0.2941674E+03  0.7546771E-02  0.1088193E+00
         21   -1    0    0  502  501  0.00000000000E+00  0.00000000000E+00  0.11419767163E+03  0.11419767163E+03  0.00000000000E+00 0. -1.
         21   -1    0    0  504  502 -0.00000000000E+00 -0.00000000000E+00 -0.15391843184E+04  0.15391843184E+04  0.00000000000E+00 0. -1.
         25    1    1    2    0    0 -0.14089737979E+03 -0.20862458846E+03 -0.12722280028E+03  0.30852379398E+03  0.12500000000E+03 0.  0.
         21    1    1    2  503  501  0.63924986287E+01 -0.23854169341E+02 -0.59284725445E+01  0.25397484529E+02  0.00000000000E+00 0. -1.
         21    1    1    2  504  503  0.13450488116E+03  0.23247875780E+03 -0.12918353740E+04  0.13194607116E+04  0.00000000000E+00 0. -1.
<mgrwt>
<rscale>  4 0.29416738E+03</rscale>
<asrwt>0</asrwt>
<pdfrwt beam="1">  1       21 0.17568872E-01 0.29416738E+03</pdfrwt>
<pdfrwt beam="2">  1       21 0.23679760E+00 0.29416738E+03</pdfrwt>
<totfact> 0.21340553E+03</totfact>
</mgrwt>
</event>
