<LesHouchesEvents version="3.0">
  <!--
  <scalesfunctionalform>
    muR  H_T/2 := sum_i mT(i)/2, i=final state
    muF1 H_T/2 := sum_i mT(i)/2, i=final state
    muF2 H_T/2 := sum_i mT(i)/2, i=final state
    QES  H_T/2 := sum_i mT(i)/2, i=final state
  </scalesfunctionalform>
HERWIG6   
  -->
  <header>
       62
  </header>
  <init>
   2212   2212 0.65000000D+04 0.65000000D+04 -1 -1   247000   247000 -3   1
 0.13465823D-01 0.24382588D-03 0.49447450D-03     66
  </init>
  <event>
  5     66 0.49447450E-03 0.71406924E+02 0.75467711E-02 0.10749139E+00
        4 -1    0    0  502    0 0.00000000E+00 0.00000000E+00 0.21217491E+04 0.21217497E+04 0.15500000E+01 0.0000E+00 0.9000E+01
       21 -1    0    0  501  502 0.00000000E+00 0.00000000E+00 -.43469091E+02 0.43475560E+02 0.75000000E+00 0.0000E+00 0.9000E+01
       25  1    1    2    0    0 0.31431738E+02 0.22300103E+02 0.23062139E+03 0.26513482E+03 0.12500000E+03 0.0000E+00 0.9000E+01
       23  1    1    2    0    0 -.24463923E+02 0.48764173E+02 0.18206252E+04 0.18237236E+04 0.91188000E+02 0.0000E+00 0.9000E+01
        4  1    1    2  501    0 -.69678144E+01 -.71064276E+02 0.27033446E+02 0.76366822E+02 0.15500000E+01 0.0000E+00 0.9000E+01
#aMCatNLO 1  0  0  0  0 0.00000000D+00 0.00000000D+00  -5  6  0 0.00000000D+00 0.00000000D+00 0.00000000D+00 0.00000000D+00 0.00000000D+00
  <mgrwgt>
 0.5251787783D-03    6    2    0
 0.303707298689934D+03 0.000000000000000D+00 0.000000000000000D+00 0.303707298689934D+03
 0.303707298689934D+03 0.000000000000000D+00 0.000000000000000D+00 -.303707298689934D+03
 0.156038939169411D+03 0.314318043868041D+02 0.223007824225485D+02 -.850756564091453D+02
 0.271651460938454D+03 -.244638075086564D+02 0.487653549638523D+02 0.250005454267353D+03
 0.179724197272003D+03 -.696799687814773D+01 -.710661373864008D+02 -.164929797858207D+03
 0.000000000000000D+00 -.000000000000000D+00 0.000000000000000D+00 0.000000000000000D+00
 0.460289312825833D+03 0.000000000000000D+00 0.000000000000000D+00 0.460289312825833D+03
 0.447706347188280D+03 0.000000000000000D+00 0.000000000000000D+00 -.447706347188280D+03
 0.168076908210201D+03 0.661890593483667D+02 -.317173167627977D+02 -.850756564091453D+02
 0.271482148213550D+03 0.337802847938708D+02 -.417548877433964D+02 0.250005454267353D+03
 0.217520229985960D+03 0.356313574943453D+02 -.137272060502879D+03 -.164929797858207D+03
 0.250916373604402D+03 -.135600701636583D+03 0.210744265009073D+03 0.125829656375527D+02
0.999347057694D-05 0.000000000000D+00 0.000000000000D+00 0.120600339488D-06 0.000000000000D+00  6 4 21 25 23 4 21 2 0.32642349D+00 0.66880936D-02 0.23789366D+05 0.23789366D+05 0.23789366D+05 0.12256156D+01  1  2  2  1  6  1        4 0.270564436406D-03 0.100000000000D+01
0.108919730001D-06 0.527369931016D-06 -.201739378483D-07 0.120600339488D-06 0.000000000000D+00  6 4 21 25 23 4 21 4 0.32642349D+00 0.66880936D-02 0.23789366D+05 0.23789366D+05 0.23789366D+05 0.12256156D+01  1  2  3  1  6  1        4 0.442965083044D-05 0.100000000000D+01
0.124686273027D-05 0.000000000000D+00 0.000000000000D+00 0.120600339488D-06 0.000000000000D+00  6 4 21 25 23 4 21 4 0.32642349D+00 0.66880936D-02 0.23789366D+05 0.23789366D+05 0.23789366D+05 0.12256156D+01  1  2 15  1  6  1        4 0.507085954812D-04 0.100000000000D+01
-.383972274007D-06 0.000000000000D+00 -.742646322405D-05 0.120600339488D-06 0.000000000000D+00  6 4 21 25 23 4 21 4 0.56225964D+00 0.66880936D-02 0.23789366D+05 0.23789366D+05 0.23789366D+05 0.12256156D+01  1  2  5  1  6  1        4 -.324793440850D-06 0.100000000000D+01
0.468896821374D-05 0.000000000000D+00 0.644926497155D-05 0.120600339488D-06 0.000000000000D+00  6 4 21 25 23 4 21 4 0.32642349D+00 0.66880936D-02 0.23789366D+05 0.23789366D+05 0.23789366D+05 0.12256156D+01  1  2  6  1  6  1        4 0.190695404236D-03 0.100000000000D+01
0.343346142368D-06 0.000000000000D+00 -.448166930576D-06 0.120600339488D-06 0.000000000000D+00  6 21 21 25 23 4 -4 4 0.56225964D+00 0.66880936D-02 0.23789366D+05 0.23789366D+05 0.23789366D+05 0.12256156D+01  1  2  5  4  6  1        4 0.910548473909D-05 0.100000000000D+01
  </mgrwgt>
  </event>
  <event>
  5     66 0.49447450E-03 0.37441853E+02 0.75467711E-02 0.89889154E-01
        2 -1    0    0  502    0 0.00000000E+00 0.00000000E+00 0.12200592E+04 0.12200592E+04 0.32000000E+00 0.0000E+00 0.9000E+01
       21 -1    0    0  501  502 0.00000000E+00 0.00000000E+00 -.22524016E+03 0.22524141E+03 0.75000000E+00 0.0000E+00 0.9000E+01
       25  1    1    2    0    0 -.13971834E+02 -.73381393E+02 0.97809986E+03 0.98888037E+03 0.12500000E+03 0.0000E+00 0.9000E+01
       23  1    1    2    0    0 0.38041986E+02 0.44701788E+02 0.22236141E+03 0.24739703E+03 0.91188000E+02 0.0000E+00 0.9000E+01
        2  1    1    2  501    0 -.24070152E+02 0.28679605E+02 -.20564223E+03 0.20902325E+03 0.32000000E+00 0.0000E+00 0.9000E+01
#aMCatNLO 1  0  0  2  1 0.96714333D+02 0.00000000D+00  -5  6  0 0.00000000D+00 0.00000000D+00 0.00000000D+00 0.00000000D+00 0.00000000D+00
  <mgrwgt>
 0.2323939523D+00   12    2    0
 0.524220623363877D+03 0.000000000000000D+00 0.000000000000000D+00 0.524220623363877D+03
 0.524220623363877D+03 0.000000000000000D+00 0.000000000000000D+00 -.524220623363877D+03
 0.435119390051038D+03 -.139718316512422D+02 -.733813956819294D+02 0.410029074928192D+03
 0.130053764821353D+03 0.380419868241499D+02 0.447017869694429D+02 0.717864045653321D+02
 0.483268091855363D+03 -.240701551729077D+02 0.286796087124865D+02 -.481815479493524D+03
 0.000000000000000D+00 0.000000000000000D+00 0.000000000000000D+00 -.000000000000000D+00
 0.117769878876570D+04 0.000000000000000D+00 0.000000000000000D+00 0.117769878876570D+04
 0.216051726058015D+04 0.000000000000000D+00 0.000000000000000D+00 -.216051726058015D+04
 0.795292842689578D+03 -.144671207438678D+03 -.654073470708785D+03 0.410029074928192D+03
 0.143884884707635D+03 0.894311284941459D+01 -.845833408862206D+02 0.717864045653321D+02
 0.749895586719228D+03 -.155061800691937D+03 -.553311008988231D+03 -.481815479493524D+03
 0.164914273522941D+04 0.290789895281200D+03 0.129196782058324D+04 -.982818471814450D+03
0.238732504752D-03 0.000000000000D+00 0.000000000000D+00 0.115084957358D-04 0.000000000000D+00  6 2 21 25 23 2 21 2 0.18770151D+00 0.34652432D-01 0.21244242D+05 0.21244242D+05 0.21244242D+05 0.12309508D+01  1  2  2  2  6  2       21 0.742867135390D-01 0.100000000000D+01
0.766929040247D-04 0.125982603934D-04 -.481932145210D-06 0.115084957358D-04 0.000000000000D+00  6 2 21 25 23 2 21 4 0.18770151D+00 0.34652432D-01 0.21244242D+05 0.21244242D+05 0.21244242D+05 0.12309508D+01  1  2  3  2  6  2       21 0.361606452503D-01 0.100000000000D+01
0.163097415102D-04 0.000000000000D+00 0.000000000000D+00 0.115084957358D-04 0.000000000000D+00  6 2 21 25 23 2 21 4 0.18770151D+00 0.34652432D-01 0.21244242D+05 0.21244242D+05 0.21244242D+05 0.12309508D+01  1  2 15  2  6  2       21 0.769003057551D-02 0.100000000000D+01
0.147940549257D-01 0.000000000000D+00 -.433403764580D-02 0.115084957358D-04 0.000000000000D+00  6 2 21 25 23 2 21 4 0.18770151D+00 0.27905496D+00 0.21244242D+05 0.21244242D+05 0.21244242D+05 0.12309508D+01  1  2  5  2  6  2       21 0.413698617814D-01 0.100000000000D+01
0.641767894611D-02 0.000000000000D+00 -.187653606649D-02 0.115084957358D-04 0.000000000000D+00  6 2 -1 25 23 2 -1 4 0.18770151D+00 0.27905496D+00 0.21244242D+05 0.21244242D+05 0.21244242D+05 0.12309508D+01  1  2  5  5  6  2       21 0.193314670044D-02 0.100000000000D+01
0.641767894611D-02 0.000000000000D+00 -.187653606649D-02 0.115084957358D-04 0.000000000000D+00  6 2 -3 25 23 2 -3 4 0.18770151D+00 0.27905496D+00 0.21244242D+05 0.21244242D+05 0.21244242D+05 0.12309508D+01  1  2  5  5  6  2       21 0.108603341040D-02 0.100000000000D+01
0.641767894611D-02 0.000000000000D+00 -.187653606649D-02 0.115084957358D-04 0.000000000000D+00  6 2 1 25 23 2 1 4 0.18770151D+00 0.27905496D+00 0.21244242D+05 0.21244242D+05 0.21244242D+05 0.12309508D+01  1  2  5  6  6  2       21 0.195529958775D-01 0.100000000000D+01
0.641767894611D-02 0.000000000000D+00 -.187653606649D-02 0.115084957358D-04 0.000000000000D+00  6 2 3 25 23 2 3 4 0.18770151D+00 0.27905496D+00 0.21244242D+05 0.21244242D+05 0.21244242D+05 0.12309508D+01  1  2  5  6  6  2       21 0.110020978333D-02 0.100000000000D+01
0.641767894611D-02 0.000000000000D+00 -.187653606649D-02 0.115084957358D-04 0.000000000000D+00  6 2 -2 25 23 2 -2 4 0.18770151D+00 0.27905496D+00 0.21244242D+05 0.21244242D+05 0.21244242D+05 0.12309508D+01  1  2  5  7  6  2       21 0.156367472538D-02 0.100000000000D+01
0.641767894611D-02 0.000000000000D+00 -.187653606649D-02 0.115084957358D-04 0.000000000000D+00  6 2 2 25 23 2 2 4 0.18770151D+00 0.27905496D+00 0.21244242D+05 0.21244242D+05 0.21244242D+05 0.12309508D+01  1  2  5  8  6  2       21 0.460794352368D-01 0.100000000000D+01
0.641767894611D-02 0.000000000000D+00 -.187653606649D-02 0.115084957358D-04 0.000000000000D+00  6 2 -4 25 23 2 -4 4 0.18770151D+00 0.27905496D+00 0.21244242D+05 0.21244242D+05 0.21244242D+05 0.12309508D+01  1  2  5  9  6  2       21 0.785602690522D-03 0.100000000000D+01
0.641767894611D-02 0.000000000000D+00 -.187653606649D-02 0.115084957358D-04 0.000000000000D+00  6 2 4 25 23 2 4 4 0.18770151D+00 0.27905496D+00 0.21244242D+05 0.21244242D+05 0.21244242D+05 0.12309508D+01  1  2  5 10  6  2       21 0.785602690522D-03 0.100000000000D+01
  </mgrwgt>
  </event>
  <event>
  5     66 0.49447450E-03 0.38432144E+02 0.75467711E-02 0.12003000E+00
        2 -1    0    0  502    0 0.00000000E+00 0.00000000E+00 0.29696955E+04 0.29696955E+04 0.32000000E+00 0.0000E+00 0.9000E+01
       21 -1    0    0  501  502 0.00000000E+00 0.00000000E+00 -.17698283E+02 0.17714168E+02 0.75000000E+00 0.0000E+00 0.9000E+01
       25  1    1    2    0    0 0.35448190E+01 0.41162305E+02 0.26258810E+04 0.26291792E+04 0.12500000E+03 0.0000E+00 0.9000E+01
       23  1    1    2    0    0 -.41943421E+02 -.39563821E+02 0.26388655E+03 0.28508930E+03 0.91188000E+02 0.0000E+00 0.9000E+01
        2  1    1    2  501    0 0.38398602E+02 -.15984834E+01 0.62229636E+02 0.73141218E+02 0.32000000E+00 0.0000E+00 0.9000E+01
#aMCatNLO 1  0  0  2  1 0.22195907D+02 0.00000000D+00  -5  6  0 0.00000000D+00 0.00000000D+00 0.00000000D+00 0.00000000D+00 0.00000000D+00
  <mgrwgt>
 0.6031449878D-01   23    2    0
 0.229308230711161D+03 0.000000000000000D+00 0.000000000000000D+00 0.229308230711161D+03
 0.229308230711161D+03 0.000000000000000D+00 0.000000000000000D+00 -.229308230711161D+03
 0.224243839353175D+03 0.354465210336955D+01 0.411623116297361D+02 0.181530710984712D+03
 0.158489999337430D+03 -.419435391758387D+02 -.395638163997725D+02 -.116100269161051D+03
 0.758826227317160D+02 0.383988870724691D+02 -.159849522996362D+01 -.654304418236610D+02
 0.000000000000000D+00 0.000000000000000D+00 -.000000000000000D+00 -.000000000000000D+00
 0.235343311607091D+03 0.000000000000000D+00 0.000000000000000D+00 0.235343311607091D+03
 0.250934595393715D+03 0.000000000000000D+00 0.000000000000000D+00 -.250934595393715D+03
 0.225293864442076D+03 -.604419105812014D+01 0.462860030579695D+02 0.181530710984712D+03
 0.159563504632436D+03 -.487277647052691D+02 -.359387411318875D+02 -.116100269161051D+03
 0.742958918135675D+02 0.351955112264776D+02 0.113192935865842D+00 -.654304418236610D+02
 0.271246461127269D+02 0.195764445369117D+02 -.104604548619478D+02 -.155912837866240D+02
0.208676016440D-05 0.000000000000D+00 0.000000000000D+00 0.164305990397D-06 0.000000000000D+00  6 2 21 25 23 2 21 2 0.45687745D+00 0.27240360D-02 0.19316936D+05 0.19316936D+05 0.19316936D+05 0.12354910D+01  1  2  2  2  6  2       21 0.693753108965D-02 0.100000000000D+01
0.373788188253D-07 0.110121359289D-06 -.421256754968D-08 0.164305990397D-06 0.000000000000D+00  6 2 21 25 23 2 21 4 0.45687745D+00 0.27240360D-02 0.19316936D+05 0.19316936D+05 0.19316936D+05 0.12354910D+01  1  2  3  2  6  2       21 0.189686812613D-03 0.100000000000D+01
0.178775085824D-06 0.000000000000D+00 0.000000000000D+00 0.164305990397D-06 0.000000000000D+00  6 2 21 25 23 2 21 4 0.45687745D+00 0.27240360D-02 0.19316936D+05 0.19316936D+05 0.19316936D+05 0.12354910D+01  1  2 15  2  6  2       21 0.907232418530D-03 0.100000000000D+01
0.710688942461D-05 0.000000000000D+00 0.000000000000D+00 0.162358073750D-06 0.000000000000D+00  6 2 21 25 23 2 21 4 0.45687745D+00 0.30144807D-02 0.22542290D+05 0.22542290D+05 0.22542290D+05 0.12281455D+01  1  2 12  2  6  2       21 0.296493078390D-01 0.100000000000D+01
-.383295762338D-06 0.000000000000D+00 0.000000000000D+00 0.164305990397D-06 0.000000000000D+00  6 2 21 25 23 2 21 4 0.45687745D+00 0.27240360D-02 0.19316936D+05 0.19316936D+05 0.19316936D+05 0.12354910D+01  1  2  4  2  6  2       21 -.194511634479D-02 0.100000000000D+01
-.272081045706D-04 0.000000000000D+00 -.581638787169D-05 0.164305990397D-06 0.000000000000D+00  6 2 21 25 23 2 21 4 0.45687745D+00 0.30886469D-02 0.19316936D+05 0.19316936D+05 0.19316936D+05 0.12354910D+01  1  2  5  2  6  2       21 -.112360308555D+00 0.100000000000D+01
0.271445412889D-04 0.000000000000D+00 0.563684758452D-05 0.164305990397D-06 0.000000000000D+00  6 2 21 25 23 2 21 4 0.45687745D+00 0.27240360D-02 0.19316936D+05 0.19316936D+05 0.19316936D+05 0.12354910D+01  1  2  6  2  6  2       21 0.137750781827D+00 0.100000000000D+01
0.184269236800D-06 0.000000000000D+00 0.000000000000D+00 0.162358073750D-06 0.000000000000D+00  6 2 -1 25 23 2 -1 4 0.45687745D+00 0.30144807D-02 0.22542290D+05 0.22542290D+05 0.22542290D+05 0.12281455D+01  1  2 12  5  6  2       21 0.399513582918D-04 0.100000000000D+01
0.184269236800D-06 0.000000000000D+00 0.000000000000D+00 0.162358073750D-06 0.000000000000D+00  6 2 -3 25 23 2 -3 4 0.45687745D+00 0.30144807D-02 0.22542290D+05 0.22542290D+05 0.22542290D+05 0.12281455D+01  1  2 12  5  6  2       21 0.299231697408D-04 0.100000000000D+01
-.724859332861D-06 0.000000000000D+00 -.192755256136D-06 0.164305990397D-06 0.000000000000D+00  6 2 -1 25 23 2 -1 4 0.45687745D+00 0.30886469D-02 0.19316936D+05 0.19316936D+05 0.19316936D+05 0.12354910D+01  1  2  5  5  6  2       21 -.155921406341D-03 0.100000000000D+01
-.724859332861D-06 0.000000000000D+00 -.192755256136D-06 0.164305990397D-06 0.000000000000D+00  6 2 -3 25 23 2 -3 4 0.45687745D+00 0.30886469D-02 0.19316936D+05 0.19316936D+05 0.19316936D+05 0.12354910D+01  1  2  5  5  6  2       21 -.116148830014D-03 0.100000000000D+01
0.184269236800D-06 0.000000000000D+00 0.000000000000D+00 0.162358073750D-06 0.000000000000D+00  6 2 1 25 23 2 1 4 0.45687745D+00 0.30144807D-02 0.22542290D+05 0.22542290D+05 0.22542290D+05 0.12281455D+01  1  2 12  6  6  2       21 0.430084219332D-04 0.100000000000D+01
0.184269236800D-06 0.000000000000D+00 0.000000000000D+00 0.162358073750D-06 0.000000000000D+00  6 2 3 25 23 2 3 4 0.45687745D+00 0.30144807D-02 0.22542290D+05 0.22542290D+05 0.22542290D+05 0.12281455D+01  1  2 12  6  6  2       21 0.299209696330D-04 0.100000000000D+01
-.724859332861D-06 0.000000000000D+00 -.192755256136D-06 0.164305990397D-06 0.000000000000D+00  6 2 1 25 23 2 1 4 0.45687745D+00 0.30886469D-02 0.19316936D+05 0.19316936D+05 0.19316936D+05 0.12354910D+01  1  2  5  6  6  2       21 -.168180970372D-03 0.100000000000D+01
-.724859332861D-06 0.000000000000D+00 -.192755256136D-06 0.164305990397D-06 0.000000000000D+00  6 2 3 25 23 2 3 4 0.45687745D+00 0.30886469D-02 0.19316936D+05 0.19316936D+05 0.19316936D+05 0.12354910D+01  1  2  5  6  6  2       21 -.116140052139D-03 0.100000000000D+01
0.184269236800D-06 0.000000000000D+00 0.000000000000D+00 0.162358073750D-06 0.000000000000D+00  6 2 -2 25 23 2 -2 4 0.45687745D+00 0.30144807D-02 0.22542290D+05 0.22542290D+05 0.22542290D+05 0.12281455D+01  1  2 12  7  6  2       21 0.394040866319D-04 0.100000000000D+01
-.724859332861D-06 0.000000000000D+00 -.192755256136D-06 0.164305990397D-06 0.000000000000D+00  6 2 -2 25 23 2 -2 4 0.45687745D+00 0.30886469D-02 0.19316936D+05 0.19316936D+05 0.19316936D+05 0.12354910D+01  1  2  5  7  6  2       21 -.153726995565D-03 0.100000000000D+01
0.184269236800D-06 0.000000000000D+00 0.000000000000D+00 0.162358073750D-06 0.000000000000D+00  6 2 2 25 23 2 2 4 0.45687745D+00 0.30144807D-02 0.22542290D+05 0.22542290D+05 0.22542290D+05 0.12281455D+01  1  2 12  8  6  2       21 0.450869998540D-04 0.100000000000D+01
-.724859332861D-06 0.000000000000D+00 -.192755256136D-06 0.164305990397D-06 0.000000000000D+00  6 2 2 25 23 2 2 4 0.45687745D+00 0.30886469D-02 0.19316936D+05 0.19316936D+05 0.19316936D+05 0.12354910D+01  1  2  5  8  6  2       21 -.176507313458D-03 0.100000000000D+01
0.184269236800D-06 0.000000000000D+00 0.000000000000D+00 0.162358073750D-06 0.000000000000D+00  6 2 -4 25 23 2 -4 4 0.45687745D+00 0.30144807D-02 0.22542290D+05 0.22542290D+05 0.22542290D+05 0.12281455D+01  1  2 12  9  6  2       21 0.270174925955D-04 0.100000000000D+01
-.724859332861D-06 0.000000000000D+00 -.192755256136D-06 0.164305990397D-06 0.000000000000D+00  6 2 -4 25 23 2 -4 4 0.45687745D+00 0.30886469D-02 0.19316936D+05 0.19316936D+05 0.19316936D+05 0.12354910D+01  1  2  5  9  6  2       21 -.104660364058D-03 0.100000000000D+01
0.184269236800D-06 0.000000000000D+00 0.000000000000D+00 0.162358073750D-06 0.000000000000D+00  6 2 4 25 23 2 4 4 0.45687745D+00 0.30144807D-02 0.22542290D+05 0.22542290D+05 0.22542290D+05 0.12281455D+01  1  2 12 10  6  2       21 0.270174925955D-04 0.100000000000D+01
-.724859332861D-06 0.000000000000D+00 -.192755256136D-06 0.164305990397D-06 0.000000000000D+00  6 2 4 25 23 2 4 4 0.45687745D+00 0.30886469D-02 0.19316936D+05 0.19316936D+05 0.19316936D+05 0.12354910D+01  1  2  5 10  6  2       21 -.104660364058D-03 0.100000000000D+01
  </mgrwgt>
  </event>
  <event>
  5     66 0.49447450E-03 0.46393936E+02 0.75467711E-02 0.10142432E+00
        2 -1    0    0  502    0 0.00000000E+00 0.00000000E+00 0.13814257E+04 0.13814258E+04 0.32000000E+00 0.0000E+00 0.9000E+01
       21 -1    0    0  501  502 0.00000000E+00 0.00000000E+00 -.27664733E+03 0.27664835E+03 0.75000000E+00 0.0000E+00 0.9000E+01
       25  1    1    2    0    0 -.21221251E+03 -.37114456E+03 0.53531086E+03 0.69639439E+03 0.12500000E+03 0.0000E+00 0.9000E+01
       23  1    1    2    0    0 0.22446383E+03 0.41589163E+03 0.68499308E+03 0.83718613E+03 0.91188000E+02 0.0000E+00 0.9000E+01
        2  1    1    2  501    0 -.12251316E+02 -.44747069E+02 -.11552555E+03 0.12449357E+03 0.32000000E+00 0.0000E+00 0.9000E+01
#aMCatNLO 1  0  0  2  1 0.20461709D+02 0.00000000D+00  -5  6  0 0.00000000D+00 0.00000000D+00 0.00000000D+00 0.00000000D+00 0.00000000D+00
  <mgrwgt>
 0.4455737360D+00   23    2    0
 0.618197872236825D+03 0.000000000000000D+00 0.000000000000000D+00 0.618197872236825D+03
 0.618197872236825D+03 0.000000000000000D+00 0.000000000000000D+00 -.618197872236825D+03
 0.455577142647356D+03 -.212212508991478D+03 -.371144544817484D+03 0.956196150509558D+02
 0.510638399318467D+03 0.224463831429680D+03 0.415891638319991D+03 0.170547521441821D+03
 0.270180202507828D+03 -.122513224382019D+02 -.447470935025062D+02 -.266167136492776D+03
 0.000000000000000D+00 0.000000000000000D+00 0.000000000000000D+00 -.000000000000000D+00
 0.626261082819072D+03 0.000000000000000D+00 0.000000000000000D+00 0.626261082819072D+03
 0.631401482912575D+03 0.000000000000000D+00 0.000000000000000D+00 -.631401482912575D+03
 0.462133796691951D+03 -.218288261138876D+03 -.375699042201854D+03 0.956196150509558D+02
 0.503607640125272D+03 0.217748963721362D+03 0.410858047964100D+03 0.170547521441821D+03
 0.270823611404866D+03 -.158330658208154D+02 -.474320352960229D+02 -.266167136492776D+03
 0.210975175095576D+02 0.163723632383302D+02 0.122730295337777D+02 -.514040009350274D+01
0.443524132362D-03 0.000000000000D+00 0.000000000000D+00 0.218421727442D-06 0.000000000000D+00  6 2 21 25 23 2 21 2 0.21252711D+00 0.42561209D-01 0.23675009D+06 0.23675009D+06 0.23675009D+06 0.11306783D+01  1  2  2  2  6  2       21 0.545282469094D-01 0.100000000000D+01
0.146763520955D-03 0.234054114921D-04 -.895347438272D-06 0.218421727442D-06 0.000000000000D+00  6 2 21 25 23 2 21 4 0.21252711D+00 0.42561209D-01 0.23675009D+06 0.23675009D+06 0.23675009D+06 0.11306783D+01  1  2  3  2  6  2       21 0.230675012304D-01 0.100000000000D+01
0.437282902917D-04 0.000000000000D+00 0.000000000000D+00 0.218421727442D-06 0.000000000000D+00  6 2 21 25 23 2 21 4 0.21252711D+00 0.42561209D-01 0.23675009D+06 0.23675009D+06 0.23675009D+06 0.11306783D+01  1  2 15  2  6  2       21 0.687297758696D-02 0.100000000000D+01
0.672154398302D-03 0.000000000000D+00 0.000000000000D+00 0.217755763309D-06 0.000000000000D+00  6 2 21 25 23 2 21 4 0.21252711D+00 0.43743018D-01 0.24822828D+06 0.24822828D+06 0.24822828D+06 0.11289533D+01  1  2 12  2  6  2       21 0.988849625907D-01 0.100000000000D+01
-.193481869974D-03 0.000000000000D+00 0.000000000000D+00 0.218421727442D-06 0.000000000000D+00  6 2 21 25 23 2 21 4 0.21252711D+00 0.42561209D-01 0.23675009D+06 0.23675009D+06 0.23675009D+06 0.11306783D+01  1  2  4  2  6  2       21 -.304104401737D-01 0.100000000000D+01
-.285510307286D-01 0.000000000000D+00 -.411988024884D-02 0.218421727442D-06 0.000000000000D+00  6 2 21 25 23 2 21 4 0.21252711D+00 0.44015109D-01 0.23675009D+06 0.23675009D+06 0.23675009D+06 0.11306783D+01  1  2  5  2  6  2       21 -.418370754119D+01 0.100000000000D+01
0.286262366071D-01 0.000000000000D+00 0.411059841702D-02 0.218421727442D-06 0.000000000000D+00  6 2 21 25 23 2 21 4 0.21252711D+00 0.42561209D-01 0.23675009D+06 0.23675009D+06 0.23675009D+06 0.11306783D+01  1  2  6  2  6  2       21 0.449931797669D+01 0.100000000000D+01
0.210173917185D-04 0.000000000000D+00 0.000000000000D+00 0.217755763309D-06 0.000000000000D+00  6 2 -1 25 23 2 -1 4 0.21252711D+00 0.43743018D-01 0.24822828D+06 0.24822828D+06 0.24822828D+06 0.11289533D+01  1  2 12  5  6  2       21 0.313147851013D-03 0.100000000000D+01
0.210173917185D-04 0.000000000000D+00 0.000000000000D+00 0.217755763309D-06 0.000000000000D+00  6 2 -3 25 23 2 -3 4 0.21252711D+00 0.43743018D-01 0.24822828D+06 0.24822828D+06 0.24822828D+06 0.11289533D+01  1  2 12  5  6  2       21 0.172563807838D-03 0.100000000000D+01
-.193067783834D-03 0.000000000000D+00 -.323053710237D-04 0.218421727442D-06 0.000000000000D+00  6 2 -1 25 23 2 -1 4 0.21252711D+00 0.44015109D-01 0.23675009D+06 0.23675009D+06 0.23675009D+06 0.11306783D+01  1  2  5  5  6  2       21 -.286648791174D-02 0.100000000000D+01
-.193067783834D-03 0.000000000000D+00 -.323053710237D-04 0.218421727442D-06 0.000000000000D+00  6 2 -3 25 23 2 -3 4 0.21252711D+00 0.44015109D-01 0.23675009D+06 0.23675009D+06 0.23675009D+06 0.11306783D+01  1  2  5  5  6  2       21 -.157667573728D-02 0.100000000000D+01
0.210173917185D-04 0.000000000000D+00 0.000000000000D+00 0.217755763309D-06 0.000000000000D+00  6 2 1 25 23 2 1 4 0.21252711D+00 0.43743018D-01 0.24822828D+06 0.24822828D+06 0.24822828D+06 0.11289533D+01  1  2 12  6  6  2       21 0.664061260343D-03 0.100000000000D+01
0.210173917185D-04 0.000000000000D+00 0.000000000000D+00 0.217755763309D-06 0.000000000000D+00  6 2 3 25 23 2 3 4 0.21252711D+00 0.43743018D-01 0.24822828D+06 0.24822828D+06 0.24822828D+06 0.11289533D+01  1  2 12  6  6  2       21 0.172618215753D-03 0.100000000000D+01
-.193067783834D-03 0.000000000000D+00 -.323053710237D-04 0.218421727442D-06 0.000000000000D+00  6 2 1 25 23 2 1 4 0.21252711D+00 0.44015109D-01 0.23675009D+06 0.23675009D+06 0.23675009D+06 0.11306783D+01  1  2  5  6  6  2       21 -.609898885965D-02 0.100000000000D+01
-.193067783834D-03 0.000000000000D+00 -.323053710237D-04 0.218421727442D-06 0.000000000000D+00  6 2 3 25 23 2 3 4 0.21252711D+00 0.44015109D-01 0.23675009D+06 0.23675009D+06 0.23675009D+06 0.11306783D+01  1  2  5  6  6  2       21 -.157718096719D-02 0.100000000000D+01
0.210173917185D-04 0.000000000000D+00 0.000000000000D+00 0.217755763309D-06 0.000000000000D+00  6 2 -2 25 23 2 -2 4 0.21252711D+00 0.43743018D-01 0.24822828D+06 0.24822828D+06 0.24822828D+06 0.11289533D+01  1  2 12  7  6  2       21 0.262903008528D-03 0.100000000000D+01
-.193067783834D-03 0.000000000000D+00 -.323053710237D-04 0.218421727442D-06 0.000000000000D+00  6 2 -2 25 23 2 -2 4 0.21252711D+00 0.44015109D-01 0.23675009D+06 0.23675009D+06 0.23675009D+06 0.11306783D+01  1  2  5  7  6  2       21 -.240428478228D-02 0.100000000000D+01
0.210173917185D-04 0.000000000000D+00 0.000000000000D+00 0.217755763309D-06 0.000000000000D+00  6 2 2 25 23 2 2 4 0.21252711D+00 0.43743018D-01 0.24822828D+06 0.24822828D+06 0.24822828D+06 0.11289533D+01  1  2 12  8  6  2       21 0.936165532806D-03 0.100000000000D+01
-.193067783834D-03 0.000000000000D+00 -.323053710237D-04 0.218421727442D-06 0.000000000000D+00  6 2 2 25 23 2 2 4 0.21252711D+00 0.44015109D-01 0.23675009D+06 0.23675009D+06 0.23675009D+06 0.11306783D+01  1  2  5  8  6  2       21 -.860669441751D-02 0.100000000000D+01
0.210173917185D-04 0.000000000000D+00 0.000000000000D+00 0.217755763309D-06 0.000000000000D+00  6 2 -4 25 23 2 -4 4 0.21252711D+00 0.43743018D-01 0.24822828D+06 0.24822828D+06 0.24822828D+06 0.11289533D+01  1  2 12  9  6  2       21 0.145799289327D-03 0.100000000000D+01
-.193067783834D-03 0.000000000000D+00 -.323053710237D-04 0.218421727442D-06 0.000000000000D+00  6 2 -4 25 23 2 -4 4 0.21252711D+00 0.44015109D-01 0.23675009D+06 0.23675009D+06 0.23675009D+06 0.11306783D+01  1  2  5  9  6  2       21 -.133134659578D-02 0.100000000000D+01
0.210173917185D-04 0.000000000000D+00 0.000000000000D+00 0.217755763309D-06 0.000000000000D+00  6 2 4 25 23 2 4 4 0.21252711D+00 0.43743018D-01 0.24822828D+06 0.24822828D+06 0.24822828D+06 0.11289533D+01  1  2 12 10  6  2       21 0.145799289327D-03 0.100000000000D+01
-.193067783834D-03 0.000000000000D+00 -.323053710237D-04 0.218421727442D-06 0.000000000000D+00  6 2 4 25 23 2 4 4 0.21252711D+00 0.44015109D-01 0.23675009D+06 0.23675009D+06 0.23675009D+06 0.11306783D+01  1  2  5 10  6  2       21 -.133134659578D-02 0.100000000000D+01
  </mgrwgt>
  </event>
  <event>
  6     66 -.49447450E-03 0.74367014E+02 0.75467711E-02 0.11940792E+00
        2 -1    0    0  503    0 0.00000000E+00 0.00000000E+00 0.50350682E+03 0.50350692E+03 0.32000000E+00 0.0000E+00 0.9000E+01
       21 -1    0    0  501  502 0.00000000E+00 0.00000000E+00 -.48656643E+02 0.48662423E+02 0.75000000E+00 0.0000E+00 0.9000E+01
       25  1    1    2    0    0 -.29161970E+02 -.52556719E+01 0.19016013E+03 0.22948620E+03 0.12500000E+03 0.0000E+00 0.9000E+01
       23  1    1    2    0    0 -.16635256E+02 -.54005547E+02 0.13018815E+03 0.16869362E+03 0.91188000E+02 0.0000E+00 0.9000E+01
        2  1    1    2  501    0 0.39915537E+02 0.52312875E+02 0.11633957E+03 0.13365958E+03 0.32000000E+00 0.0000E+00 0.9000E+01
       21  1    1    2  503  502 0.58816893E+01 0.69483437E+01 0.18162338E+02 0.20329948E+02 0.75000000E+00 0.0000E+00 0.9000E+01
#aMCatNLO 2  0  0  1  2 0.91035021D+01 0.00000000D+00  -5  6  0 0.00000000D+00 0.00000000D+00 0.00000000D+00 0.00000000D+00 0.00000000D+00
  <mgrwgt>
 -.5988655890D-01    3    2    0
 0.151718491478878D+03 0.000000000000000D+00 0.000000000000000D+00 0.151718491478878D+03
 0.151718491478878D+03 0.000000000000000D+00 0.000000000000000D+00 -.151718491478878D+03
 0.127872221342075D+03 -.266780137866513D+02 -.232126984519647D+01 0.303319594843667D+01
 0.106754541407381D+03 -.145519626980993D+02 -.515444639604942D+02 -.145838740997939D+02
 0.688102202083009D+02 0.412299764847506D+02 0.538657338056907D+02 0.115506781513572D+02
 0.000000000000000D+00 0.000000000000000D+00 0.000000000000000D+00 0.000000000000000D+00
 0.157804236704094D+03 0.000000000000000D+00 0.000000000000000D+00 0.157804236704094D+03
 0.155229796733734D+03 0.000000000000000D+00 0.000000000000000D+00 -.155229796733734D+03
 0.128500025075037D+03 -.291621584927174D+02 -.525591844201670D+01 0.303319594843667D+01
 0.108264949681352D+03 -.166354157159430D+02 -.540057547461821D+02 -.145838740997939D+02
 0.668085359070255D+02 0.399158848864774D+02 0.523133294487510D+02 0.115506781513572D+02
 0.946052277441346D+01 0.588168932218299D+01 0.694834373944786D+01 0.257443997036055D+01
-.253180866812D-05 0.000000000000D+00 0.000000000000D+00 0.174820146303D-06 0.000000000000D+00  6 2 21 25 23 2 21 4 0.78289963D-01 0.73160589D-02 0.24125601D+05 0.24125601D+05 0.24125601D+05 0.12249588D+01  1  2 13  1  6  1        2 -.608715567145D-01 0.100000000000D+01
-.228798129324D-07 0.000000000000D+00 0.000000000000D+00 0.175628569227D-06 0.000000000000D+00  6 2 21 25 23 2 21 4 0.74468589D-01 0.73160589D-02 0.22714071D+05 0.22714071D+05 0.22714071D+05 0.12277879D+01  1  2  8  1  6  1        2 -.586220681092D-03 0.100000000000D+01
0.671796947505D-07 0.000000000000D+00 0.000000000000D+00 0.175628569227D-06 0.105399174510D-05  6 2 21 25 23 2 21 4 0.77455679D-01 0.74853785D-02 0.24125601D+05 0.24125601D+05 0.24125601D+05 0.12249588D+01  1  2  1  1  6  1        2 0.157121849102D-02 0.100000000000D+01
  </mgrwgt>
  </event>
  <event>
  5     66 0.49447450E-03 0.25695001E+02 0.75467711E-02 0.11779963E+00
        2 -1    0    0  502    0 0.00000000E+00 0.00000000E+00 0.21786549E+03 0.21786573E+03 0.32000000E+00 0.0000E+00 0.9000E+01
       21 -1    0    0  501  502 0.00000000E+00 0.00000000E+00 -.23063427E+03 0.23063549E+03 0.75000000E+00 0.0000E+00 0.9000E+01
       25  1    1    2    0    0 -.20583565E+02 0.91057231E+02 0.87136922E+02 0.17869792E+03 0.12500000E+03 0.0000E+00 0.9000E+01
       23  1    1    2    0    0 0.11514293E+02 -.11509840E+03 0.18672503E+02 0.14847267E+03 0.91188000E+02 0.0000E+00 0.9000E+01
        2  1    1    2  501    0 0.90692721E+01 0.24041169E+02 -.11857820E+03 0.12133063E+03 0.32000000E+00 0.0000E+00 0.9000E+01
#aMCatNLO 1  0  0  2  1 0.12714655D+02 0.00000000D+00  -5  6  0 0.00000000D+00 0.00000000D+00 0.00000000D+00 0.00000000D+00 0.00000000D+00
  <mgrwgt>
 0.1347345955D+00   23    2    0
 0.224159709759925D+03 0.000000000000000D+00 0.000000000000000D+00 0.224159709759925D+03
 0.224159709759925D+03 0.000000000000000D+00 0.000000000000000D+00 -.224159709759925D+03
 0.181252236398261D+03 -.205835783026473D+02 0.910571953308793D+02 0.922620002064988D+02
 0.149064742671725D+03 0.115142816758647D+02 -.115098429466833D+03 0.229089287297542D+02
 0.118002440449864D+03 0.906929662678262D+01 0.240412341359537D+02 -.115170928936253D+03
 0.000000000000000D+00 -.000000000000000D+00 0.000000000000000D+00 -.000000000000000D+00
 0.224762226624751D+03 0.000000000000000D+00 0.000000000000000D+00 0.224762226624751D+03
 0.303127148735755D+03 0.000000000000000D+00 0.000000000000000D+00 -.303127148735755D+03
 0.178724390241073D+03 -.185456113340237D+02 0.863781875544203D+02 0.922620002064988D+02
 0.152247799547656D+03 0.132201285637804D+02 -.119014916326969D+03 0.229089287297542D+02
 0.117527491793500D+03 0.104027227064571D+02 0.209797954118786D+02 -.115170928936253D+03
 0.793896937782772D+02 -.507723993621385D+01 0.116569333606704D+02 -.783649221110034D+02
0.145704475408D-05 0.000000000000D+00 0.000000000000D+00 0.161416606020D-05 0.000000000000D+00  6 2 21 25 23 2 21 2 0.33517880D-01 0.35482307D-01 0.27060576D+05 0.27060576D+05 0.27060576D+05 0.12196269D+01  1  2  2  2  6  2       21 0.319009774220D-02 0.100000000000D+01
0.322329096337D-06 0.768903641164D-07 -.294135356529D-08 0.161416606020D-05 0.000000000000D+00  6 2 21 25 23 2 21 4 0.33517880D-01 0.35482307D-01 0.27060576D+05 0.27060576D+05 0.27060576D+05 0.12196269D+01  1  2  3  2  6  2       21 0.104974697723D-02 0.100000000000D+01
0.987173417180D-07 0.000000000000D+00 0.000000000000D+00 0.161416606020D-05 0.000000000000D+00  6 2 21 25 23 2 21 4 0.33517880D-01 0.35482307D-01 0.27060576D+05 0.27060576D+05 0.27060576D+05 0.12196269D+01  1  2 15  2  6  2       21 0.321498221060D-03 0.100000000000D+01
0.589833254631D-04 0.000000000000D+00 0.000000000000D+00 0.160637891598D-05 0.000000000000D+00  6 2 21 25 23 2 21 4 0.33517880D-01 0.48017578D-01 0.28851626D+05 0.28851626D+05 0.28851626D+05 0.12166815D+01  1  2 12  2  6  2       21 0.103077014938D+00 0.100000000000D+01
-.253255316417D-04 0.000000000000D+00 0.000000000000D+00 0.161416606020D-05 0.000000000000D+00  6 2 21 25 23 2 21 4 0.33517880D-01 0.35482307D-01 0.27060576D+05 0.27060576D+05 0.27060576D+05 0.12196269D+01  1  2  4  2  6  2       21 -.824790581725D-01 0.100000000000D+01
-.119816944227D-03 0.000000000000D+00 -.205192460881D-05 0.161416606020D-05 0.000000000000D+00  6 2 21 25 23 2 21 4 0.33517880D-01 0.48038576D-01 0.27060576D+05 0.27060576D+05 0.27060576D+05 0.12196269D+01  1  2  5  2  6  2       21 -.211521117037D+00 0.100000000000D+01
0.101334859573D-03 0.000000000000D+00 0.171918383506D-05 0.161416606020D-05 0.000000000000D+00  6 2 21 25 23 2 21 4 0.33517880D-01 0.35482307D-01 0.27060576D+05 0.27060576D+05 0.27060576D+05 0.12196269D+01  1  2  6  2  6  2       21 0.330022836080D+00 0.100000000000D+01
0.552576193762D-05 0.000000000000D+00 0.000000000000D+00 0.160637891598D-05 0.000000000000D+00  6 2 -1 25 23 2 -1 4 0.33517880D-01 0.48017578D-01 0.28851626D+05 0.28851626D+05 0.28851626D+05 0.12166815D+01  1  2 12  5  6  2       21 0.947360591479D-03 0.100000000000D+01
0.552576193762D-05 0.000000000000D+00 0.000000000000D+00 0.160637891598D-05 0.000000000000D+00  6 2 -3 25 23 2 -3 4 0.33517880D-01 0.48017578D-01 0.28851626D+05 0.28851626D+05 0.28851626D+05 0.12166815D+01  1  2 12  5  6  2       21 0.492300841623D-03 0.100000000000D+01
-.111404837894D-04 0.000000000000D+00 -.195540962541D-06 0.161416606020D-05 0.000000000000D+00  6 2 -1 25 23 2 -1 4 0.33517880D-01 0.48038576D-01 0.27060576D+05 0.27060576D+05 0.27060576D+05 0.12196269D+01  1  2  5  5  6  2       21 -.192659077720D-02 0.100000000000D+01
-.111404837894D-04 0.000000000000D+00 -.195540962541D-06 0.161416606020D-05 0.000000000000D+00  6 2 -3 25 23 2 -3 4 0.33517880D-01 0.48038576D-01 0.27060576D+05 0.27060576D+05 0.27060576D+05 0.12196269D+01  1  2  5  5  6  2       21 -.999602648888D-03 0.100000000000D+01
0.552576193762D-05 0.000000000000D+00 0.000000000000D+00 0.160637891598D-05 0.000000000000D+00  6 2 1 25 23 2 1 4 0.33517880D-01 0.48017578D-01 0.28851626D+05 0.28851626D+05 0.28851626D+05 0.12166815D+01  1  2 12  6  6  2       21 0.210967647395D-02 0.100000000000D+01
0.552576193762D-05 0.000000000000D+00 0.000000000000D+00 0.160637891598D-05 0.000000000000D+00  6 2 3 25 23 2 3 4 0.33517880D-01 0.48017578D-01 0.28851626D+05 0.28851626D+05 0.28851626D+05 0.12166815D+01  1  2 12  6  6  2       21 0.492484910814D-03 0.100000000000D+01
-.111404837894D-04 0.000000000000D+00 -.195540962541D-06 0.161416606020D-05 0.000000000000D+00  6 2 1 25 23 2 1 4 0.33517880D-01 0.48038576D-01 0.27060576D+05 0.27060576D+05 0.27060576D+05 0.12196269D+01  1  2  5  6  6  2       21 -.429099823433D-02 0.100000000000D+01
-.111404837894D-04 0.000000000000D+00 -.195540962541D-06 0.161416606020D-05 0.000000000000D+00  6 2 3 25 23 2 3 4 0.33517880D-01 0.48038576D-01 0.27060576D+05 0.27060576D+05 0.27060576D+05 0.12196269D+01  1  2  5  6  6  2       21 -.999975668254D-03 0.100000000000D+01
0.552576193762D-05 0.000000000000D+00 0.000000000000D+00 0.160637891598D-05 0.000000000000D+00  6 2 -2 25 23 2 -2 4 0.33517880D-01 0.48017578D-01 0.28851626D+05 0.28851626D+05 0.28851626D+05 0.12166815D+01  1  2 12  7  6  2       21 0.780872436544D-03 0.100000000000D+01
-.111404837894D-04 0.000000000000D+00 -.195540962541D-06 0.161416606020D-05 0.000000000000D+00  6 2 -2 25 23 2 -2 4 0.33517880D-01 0.48038576D-01 0.27060576D+05 0.27060576D+05 0.27060576D+05 0.12196269D+01  1  2  5  7  6  2       21 -.158762125498D-02 0.100000000000D+01
0.552576193762D-05 0.000000000000D+00 0.000000000000D+00 0.160637891598D-05 0.000000000000D+00  6 2 2 25 23 2 2 4 0.33517880D-01 0.48017578D-01 0.28851626D+05 0.28851626D+05 0.28851626D+05 0.12166815D+01  1  2 12  8  6  2       21 0.300591139054D-02 0.100000000000D+01
-.111404837894D-04 0.000000000000D+00 -.195540962541D-06 0.161416606020D-05 0.000000000000D+00  6 2 2 25 23 2 2 4 0.33517880D-01 0.48038576D-01 0.27060576D+05 0.27060576D+05 0.27060576D+05 0.12196269D+01  1  2  5  8  6  2       21 -.611315407658D-02 0.100000000000D+01
0.552576193762D-05 0.000000000000D+00 0.000000000000D+00 0.160637891598D-05 0.000000000000D+00  6 2 -4 25 23 2 -4 4 0.33517880D-01 0.48017578D-01 0.28851626D+05 0.28851626D+05 0.28851626D+05 0.12166815D+01  1  2 12  9  6  2       21 0.406719403425D-03 0.100000000000D+01
-.111404837894D-04 0.000000000000D+00 -.195540962541D-06 0.161416606020D-05 0.000000000000D+00  6 2 -4 25 23 2 -4 4 0.33517880D-01 0.48038576D-01 0.27060576D+05 0.27060576D+05 0.27060576D+05 0.12196269D+01  1  2  5  9  6  2       21 -.825263028944D-03 0.100000000000D+01
0.552576193762D-05 0.000000000000D+00 0.000000000000D+00 0.160637891598D-05 0.000000000000D+00  6 2 4 25 23 2 4 4 0.33517880D-01 0.48017578D-01 0.28851626D+05 0.28851626D+05 0.28851626D+05 0.12166815D+01  1  2 12 10  6  2       21 0.406719403425D-03 0.100000000000D+01
-.111404837894D-04 0.000000000000D+00 -.195540962541D-06 0.161416606020D-05 0.000000000000D+00  6 2 4 25 23 2 4 4 0.33517880D-01 0.48038576D-01 0.27060576D+05 0.27060576D+05 0.27060576D+05 0.12196269D+01  1  2  5 10  6  2       21 -.825263028944D-03 0.100000000000D+01
  </mgrwgt>
  </event>
  <event>
  5     66 -.49447450E-03 0.62309587E+02 0.75467711E-02 0.11293341E+00
        2 -1    0    0  502    0 0.00000000E+00 0.00000000E+00 0.27283507E+04 0.27283507E+04 0.32000000E+00 0.0000E+00 0.9000E+01
       21 -1    0    0  501  502 0.00000000E+00 0.00000000E+00 -.12058192E+02 0.12081494E+02 0.75000000E+00 0.0000E+00 0.9000E+01
       25  1    1    2    0    0 -.93889513E+02 0.43471803E+01 0.13766471E+04 0.13855022E+04 0.12500000E+03 0.0000E+00 0.9000E+01
       23  1    1    2    0    0 0.64564194E+02 0.50629735E+02 0.11174663E+04 0.11241789E+04 0.91188000E+02 0.0000E+00 0.9000E+01
        2  1    1    2  501    0 0.29325319E+02 -.54976915E+02 0.22217912E+03 0.23075116E+03 0.32000000E+00 0.0000E+00 0.9000E+01
#aMCatNLO 1  0  0  2  2 0.57169060D+03 0.00000000D+00  -5  6  0 0.00000000D+00 0.00000000D+00 0.00000000D+00 0.00000000D+00 0.00000000D+00
  <mgrwgt>
 -.9391477152D-01   12    2    0
 0.181468815930995D+03 0.000000000000000D+00 0.000000000000000D+00 0.181468815930995D+03
 0.181468815930995D+03 0.000000000000000D+00 0.000000000000000D+00 -.181468815930995D+03
 0.158425898065715D+03 -.938896169977084D+02 0.434737469149995D+01 0.252904197522229D+02
 0.125009394816579D+03 0.645641120800885D+02 0.506298882146769D+02 0.240870774293292D+02
 0.795023389796957D+02 0.293255049176200D+02 -.549772629061769D+02 -.493774971815521D+02
 0.000000000000000D+00 0.000000000000000D+00 0.000000000000000D+00 -.000000000000000D+00
 0.191666535710072D+03 0.000000000000000D+00 0.000000000000000D+00 0.191666535710072D+03
 0.788814051768466D+03 0.000000000000000D+00 0.000000000000000D+00 -.788814051768466D+03
 0.180111581406869D+03 -.124045908825727D+03 -.280747026562871D+02 0.252904197522229D+02
 0.107791668940956D+03 0.438266243801075D+02 0.283342945109814D+02 0.240870774293292D+02
 0.876680564758617D+02 0.144342756267986D+02 -.709873410226803D+02 -.493774971815521D+02
 0.604909280654853D+03 0.657850088188205D+02 0.707277491679860D+02 -.597147516058394D+03
0.545547644627D-06 0.000000000000D+00 0.000000000000D+00 0.213749816906D-06 0.000000000000D+00  6 2 21 25 23 2 21 2 0.41974806D+00 0.18569004D-02 0.29133489D+05 0.29133489D+05 0.29133489D+05 0.12162366D+01  1  2  2  2  6  2       21 0.443256325514D-02 0.100000000000D+01
-.486668277618D-08 0.287893401494D-07 -.110130351526D-08 0.213749816906D-06 0.000000000000D+00  6 2 21 25 23 2 21 4 0.41974806D+00 0.18569004D-02 0.29133489D+05 0.29133489D+05 0.29133489D+05 0.12162366D+01  1  2  3  2  6  2       21 -.584913213807D-04 0.100000000000D+01
0.515866950497D-07 0.000000000000D+00 0.000000000000D+00 0.213749816906D-06 0.000000000000D+00  6 2 21 25 23 2 21 4 0.41974806D+00 0.18569004D-02 0.29133489D+05 0.29133489D+05 0.29133489D+05 0.12162366D+01  1  2 15  2  6  2       21 0.620006295435D-03 0.100000000000D+01
-.907608641318D-04 0.000000000000D+00 -.332146266866D-05 0.213749816906D-06 0.000000000000D+00  6 2 21 25 23 2 21 4 0.41974806D+00 0.86446563D-02 0.29133489D+05 0.29133489D+05 0.29133489D+05 0.12162366D+01  1  2  5  2  6  2       21 -.829167866587D-01 0.100000000000D+01
-.381951860183D-04 0.000000000000D+00 -.135558190283D-05 0.213749816906D-06 0.000000000000D+00  6 2 -1 25 23 2 -1 4 0.41974806D+00 0.86446563D-02 0.29133489D+05 0.29133489D+05 0.29133489D+05 0.12162366D+01  1  2  5  5  6  2       21 -.225652807488D-02 0.100000000000D+01
-.381951860183D-04 0.000000000000D+00 -.135558190283D-05 0.213749816906D-06 0.000000000000D+00  6 2 -3 25 23 2 -3 4 0.41974806D+00 0.86446563D-02 0.29133489D+05 0.29133489D+05 0.29133489D+05 0.12162366D+01  1  2  5  5  6  2       21 -.152416460448D-02 0.100000000000D+01
-.381951860183D-04 0.000000000000D+00 -.135558190283D-05 0.213749816906D-06 0.000000000000D+00  6 2 1 25 23 2 1 4 0.41974806D+00 0.86446563D-02 0.29133489D+05 0.29133489D+05 0.29133489D+05 0.12162366D+01  1  2  5  6  6  2       21 -.274941078894D-02 0.100000000000D+01
-.381951860183D-04 0.000000000000D+00 -.135558190283D-05 0.213749816906D-06 0.000000000000D+00  6 2 3 25 23 2 3 4 0.41974806D+00 0.86446563D-02 0.29133489D+05 0.29133489D+05 0.29133489D+05 0.12162366D+01  1  2  5  6  6  2       21 -.152398372764D-02 0.100000000000D+01
-.381951860183D-04 0.000000000000D+00 -.135558190283D-05 0.213749816906D-06 0.000000000000D+00  6 2 -2 25 23 2 -2 4 0.41974806D+00 0.86446563D-02 0.29133489D+05 0.29133489D+05 0.29133489D+05 0.12162366D+01  1  2  5  7  6  2       21 -.217083127622D-02 0.100000000000D+01
-.381951860183D-04 0.000000000000D+00 -.135558190283D-05 0.213749816906D-06 0.000000000000D+00  6 2 2 25 23 2 2 4 0.41974806D+00 0.86446563D-02 0.29133489D+05 0.29133489D+05 0.29133489D+05 0.12162366D+01  1  2  5  8  6  2       21 -.308211698722D-02 0.100000000000D+01
-.381951860183D-04 0.000000000000D+00 -.135558190283D-05 0.213749816906D-06 0.000000000000D+00  6 2 -4 25 23 2 -4 4 0.41974806D+00 0.86446563D-02 0.29133489D+05 0.29133489D+05 0.29133489D+05 0.12162366D+01  1  2  5  9  6  2       21 -.134251381769D-02 0.100000000000D+01
-.381951860183D-04 0.000000000000D+00 -.135558190283D-05 0.213749816906D-06 0.000000000000D+00  6 2 4 25 23 2 4 4 0.41974806D+00 0.86446563D-02 0.29133489D+05 0.29133489D+05 0.29133489D+05 0.12162366D+01  1  2  5 10  6  2       21 -.134251381769D-02 0.100000000000D+01
  </mgrwgt>
  </event>
  <event>
  5     66 -.49447450E-03 0.16493816E+03 0.75467711E-02 0.11158948E+00
        2 -1    0    0  502    0 0.00000000E+00 0.00000000E+00 0.27462808E+04 0.27462808E+04 0.32000000E+00 0.0000E+00 0.9000E+01
       21 -1    0    0  501  502 0.00000000E+00 0.00000000E+00 -.66927088E+02 0.66931290E+02 0.75000000E+00 0.0000E+00 0.9000E+01
       25  1    1    2    0    0 -.59586844E+02 -.34356496E+02 0.82904775E+03 0.84123488E+03 0.12500000E+03 0.0000E+00 0.9000E+01
       23  1    1    2    0    0 -.98353124E+02 0.81891254E+02 0.17891933E+04 0.17960811E+04 0.91188000E+02 0.0000E+00 0.9000E+01
        2  1    1    2  501    0 0.15793997E+03 -.47534759E+02 0.61112714E+02 0.17589614E+03 0.32000000E+00 0.0000E+00 0.9000E+01
#aMCatNLO 1  0  0  5  1 0.52033343D+02 0.00000000D+00  -5  6  0 0.00000000D+00 0.00000000D+00 0.00000000D+00 0.00000000D+00 0.00000000D+00
  <mgrwgt>
 -.2842985580D-02    6    2    0
 0.428726618022934D+03 0.000000000000000D+00 0.000000000000000D+00 0.428726618022934D+03
 0.428726618022934D+03 -.000000000000000D+00 -.000000000000000D+00 -.428726618022934D+03
 0.169408670558065D+03 -.595868550769632D+02 -.343564927305428D+02 0.913418620871295D+02
 0.301912101086766D+03 -.983531428710195D+02 0.818912602264257D+02 0.257790896318210D+03
 0.386132464401036D+03 0.157939997947983D+03 -.475347674958830D+02 -.349132758405339D+03
 0.000000000000000D+00 0.000000000000000D+00 0.000000000000000D+00 0.000000000000000D+00
 0.428726618022934D+03 0.000000000000000D+00 0.000000000000000D+00 0.428726618022934D+03
 0.428726618022934D+03 -.000000000000000D+00 -.000000000000000D+00 -.428726618022934D+03
 0.167078349807573D+03 -.579957386915762D+02 -.348353666600155D+02 0.878246349135730D+02
 0.295439432103092D+03 -.955284995571062D+02 0.810411350844089D+02 0.251546907939645D+03
 0.297234997438579D+03 0.971439476081139D+02 -.827582260114125D+02 -.268445102717237D+03
 0.977004566966229D+02 0.563802906405686D+02 0.365524575870190D+02 -.709264401359808D+02
0.850790370605D-05 0.000000000000D+00 0.000000000000D+00 0.457134440177D-06 0.000000000000D+00  6 2 21 25 23 2 21 2 0.42250506D+00 0.10296800D-01 0.54000042D+05 0.54000042D+05 0.54000042D+05 0.11889857D+01  1  2  2  3  6  5        2 0.347311323348D-02 0.100000000000D+01
0.206870208817D-07 0.448974413444D-06 -.171750063468D-07 0.457134440177D-06 0.000000000000D+00  6 2 21 25 23 2 21 4 0.42250506D+00 0.10296800D-01 0.54000042D+05 0.54000042D+05 0.54000042D+05 0.11889857D+01  1  2  3  3  6  5        2 0.119384401615D-04 0.100000000000D+01
0.917576235685D-06 0.000000000000D+00 0.000000000000D+00 0.457134440177D-06 0.000000000000D+00  6 2 21 25 23 2 21 4 0.42250506D+00 0.10296800D-01 0.54000042D+05 0.54000042D+05 0.54000042D+05 0.11889857D+01  1  2 15  3  6  5        2 0.529531489622D-03 0.100000000000D+01
-.172986584956D-04 0.000000000000D+00 0.000000000000D+00 0.457134440177D-06 0.000000000000D+00  6 2 21 25 23 2 21 4 0.42250506D+00 0.10296800D-01 0.54000042D+05 0.54000042D+05 0.54000042D+05 0.11889857D+01  1  2  4  3  6  5        2 -.998302271287D-02 0.100000000000D+01
-.190887005657D-04 0.000000000000D+00 0.000000000000D+00 0.457134440177D-06 0.000000000000D+00  6 2 21 25 23 2 21 4 0.42250506D+00 0.10296800D-01 0.54000042D+05 0.54000042D+05 0.54000042D+05 0.11889857D+01  1  2  5  3  6  5        2 -.110160525659D-01 0.100000000000D+01
0.245045112290D-04 0.000000000000D+00 -.000000000000D+00 0.457134440177D-06 0.000000000000D+00  6 2 21 25 23 2 21 4 0.42250506D+00 0.10296800D-01 0.54000042D+05 0.54000042D+05 0.54000042D+05 0.11889857D+01  1  2  6  3  6  5        2 0.141415065353D-01 0.100000000000D+01
  </mgrwgt>
  </event>
  <event>
  5     66 0.49447450E-03 0.97645101E+02 0.75467711E-02 0.11417856E+00
        2 -1    0    0  502    0 0.00000000E+00 0.00000000E+00 0.13986175E+04 0.13986175E+04 0.32000000E+00 0.0000E+00 0.9000E+01
       21 -1    0    0  501  502 0.00000000E+00 0.00000000E+00 -.31205964E+02 0.31214976E+02 0.75000000E+00 0.0000E+00 0.9000E+01
       25  1    1    2    0    0 0.96235924E+02 -.45140835E+01 0.63659385E+03 0.65586467E+03 0.12500000E+03 0.0000E+00 0.9000E+01
       23  1    1    2    0    0 -.18086830E+02 -.73722547E+02 0.54474178E+03 0.55751323E+03 0.91188000E+02 0.0000E+00 0.9000E+01
        2  1    1    2  501    0 -.78149094E+02 0.78236630E+02 0.18607585E+03 0.21645456E+03 0.32000000E+00 0.0000E+00 0.9000E+01
#aMCatNLO 1  0  0  2  1 0.31200330D+02 0.00000000D+00  -5  6  0 0.00000000D+00 0.00000000D+00 0.00000000D+00 0.00000000D+00 0.00000000D+00
  <mgrwgt>
 0.3770361636D-01   23    2    0
 0.208929831876699D+03 0.000000000000000D+00 0.000000000000000D+00 0.208929831876699D+03
 0.208929831876699D+03 0.000000000000000D+00 0.000000000000000D+00 -.208929831876699D+03
 0.161037026663260D+03 0.962360127417505D+02 -.451417241467948D+01 0.320339828233031D+02
 0.125076379251237D+03 -.180867608372263D+02 -.737226159206791D+02 0.395814891941711D+02
 0.131746257838901D+03 -.781492519045241D+02 0.782367883353586D+02 -.716154720174743D+02
 0.000000000000000D+00 -.000000000000000D+00 -.000000000000000D+00 -.000000000000000D+00
 0.216824521793303D+03 0.000000000000000D+00 0.000000000000000D+00 0.216824521793303D+03
 0.242789448065647D+03 0.000000000000000D+00 0.000000000000000D+00 -.242789448065647D+03
 0.165848521307521D+03 0.104073739527021D+03 0.481795654083374D+01 0.320339828233031D+02
 0.120340800682388D+03 -.122023991189677D+02 -.667162958638387D+02 0.395814891941711D+02
 0.132833540395546D+03 -.718054285561488D+02 0.857901745632754D+02 -.716154720174743D+02
 0.405911074734959D+02 -.200659118519042D+02 -.238918352402705D+02 -.259649262723443D+02
0.115183462955D-05 0.000000000000D+00 0.000000000000D+00 0.161692660491D-06 0.000000000000D+00  6 2 21 25 23 2 21 2 0.21517261D+00 0.48016136D-02 0.37451657D+05 0.37451657D+05 0.37451657D+05 0.12049143D+01  1  2  2  2  6  2       21 0.957318489885D-02 0.100000000000D+01
-.557972513577D-07 0.607839833468D-07 -.232522225879D-08 0.161692660491D-06 0.000000000000D+00  6 2 21 25 23 2 21 4 0.21517261D+00 0.48016136D-02 0.37451657D+05 0.37451657D+05 0.37451657D+05 0.12049143D+01  1  2  3  2  6  2       21 -.673273404114D-03 0.100000000000D+01
0.142235668302D-06 0.000000000000D+00 0.000000000000D+00 0.161692660491D-06 0.000000000000D+00  6 2 21 25 23 2 21 4 0.21517261D+00 0.48016136D-02 0.37451657D+05 0.37451657D+05 0.37451657D+05 0.12049143D+01  1  2 15  2  6  2       21 0.171627616511D-02 0.100000000000D+01
0.308061715966D-05 0.000000000000D+00 0.000000000000D+00 0.159798394151D-06 0.000000000000D+00  6 2 21 25 23 2 21 4 0.21517261D+00 0.56602812D-02 0.43983667D+05 0.43983667D+05 0.43983667D+05 0.11978356D+01  1  2 12  2  6  2       21 0.273659035371D-01 0.100000000000D+01
-.255134634406D-05 0.000000000000D+00 0.000000000000D+00 0.161692660491D-06 0.000000000000D+00  6 2 21 25 23 2 21 4 0.21517261D+00 0.48016136D-02 0.37451657D+05 0.37451657D+05 0.37451657D+05 0.12049143D+01  1  2  4  2  6  2       21 -.307856318429D-01 0.100000000000D+01
-.116134319169D-04 0.000000000000D+00 -.228573782733D-05 0.161692660491D-06 0.000000000000D+00  6 2 21 25 23 2 21 4 0.21517261D+00 0.57992050D-02 0.37451657D+05 0.37451657D+05 0.37451657D+05 0.12049143D+01  1  2  5  2  6  2       21 -.101659668549D+00 0.100000000000D+01
0.110921575339D-04 0.000000000000D+00 0.213071443377D-05 0.161692660491D-06 0.000000000000D+00  6 2 21 25 23 2 21 4 0.21517261D+00 0.48016136D-02 0.37451657D+05 0.37451657D+05 0.37451657D+05 0.12049143D+01  1  2  6  2  6  2       21 0.133842697984D+00 0.100000000000D+01
0.139941184179D-06 0.000000000000D+00 0.000000000000D+00 0.159798394151D-06 0.000000000000D+00  6 2 -1 25 23 2 -1 4 0.21517261D+00 0.56602812D-02 0.43983667D+05 0.43983667D+05 0.43983667D+05 0.11978356D+01  1  2 12  5  6  2       21 0.740116374716D-04 0.100000000000D+01
0.139941184179D-06 0.000000000000D+00 0.000000000000D+00 0.159798394151D-06 0.000000000000D+00  6 2 -3 25 23 2 -3 4 0.21517261D+00 0.56602812D-02 0.43983667D+05 0.43983667D+05 0.43983667D+05 0.11978356D+01  1  2 12  5  6  2       21 0.528740287854D-04 0.100000000000D+01
-.597041173630D-06 0.000000000000D+00 -.122327611150D-06 0.161692660491D-06 0.000000000000D+00  6 2 -1 25 23 2 -1 4 0.21517261D+00 0.57992050D-02 0.37451657D+05 0.37451657D+05 0.37451657D+05 0.12049143D+01  1  2  5  5  6  2       21 -.311660866225D-03 0.100000000000D+01
-.597041173630D-06 0.000000000000D+00 -.122327611150D-06 0.161692660491D-06 0.000000000000D+00  6 2 -3 25 23 2 -3 4 0.21517261D+00 0.57992050D-02 0.37451657D+05 0.37451657D+05 0.37451657D+05 0.12049143D+01  1  2  5  5  6  2       21 -.221380853084D-03 0.100000000000D+01
0.139941184179D-06 0.000000000000D+00 0.000000000000D+00 0.159798394151D-06 0.000000000000D+00  6 2 1 25 23 2 1 4 0.21517261D+00 0.56602812D-02 0.43983667D+05 0.43983667D+05 0.43983667D+05 0.11978356D+01  1  2 12  6  6  2       21 0.845568639394D-04 0.100000000000D+01
0.139941184179D-06 0.000000000000D+00 0.000000000000D+00 0.159798394151D-06 0.000000000000D+00  6 2 3 25 23 2 3 4 0.21517261D+00 0.56602812D-02 0.43983667D+05 0.43983667D+05 0.43983667D+05 0.11978356D+01  1  2 12  6  6  2       21 0.528688325084D-04 0.100000000000D+01
-.597041173630D-06 0.000000000000D+00 -.122327611150D-06 0.161692660491D-06 0.000000000000D+00  6 2 1 25 23 2 1 4 0.21517261D+00 0.57992050D-02 0.37451657D+05 0.37451657D+05 0.37451657D+05 0.12049143D+01  1  2  5  6  6  2       21 -.357238938113D-03 0.100000000000D+01
-.597041173630D-06 0.000000000000D+00 -.122327611150D-06 0.161692660491D-06 0.000000000000D+00  6 2 3 25 23 2 3 4 0.21517261D+00 0.57992050D-02 0.37451657D+05 0.37451657D+05 0.37451657D+05 0.12049143D+01  1  2  5  6  6  2       21 -.221358579173D-03 0.100000000000D+01
0.139941184179D-06 0.000000000000D+00 0.000000000000D+00 0.159798394151D-06 0.000000000000D+00  6 2 -2 25 23 2 -2 4 0.21517261D+00 0.56602812D-02 0.43983667D+05 0.43983667D+05 0.43983667D+05 0.11978356D+01  1  2 12  7  6  2       21 0.721630335565D-04 0.100000000000D+01
-.597041173630D-06 0.000000000000D+00 -.122327611150D-06 0.161692660491D-06 0.000000000000D+00  6 2 -2 25 23 2 -2 4 0.21517261D+00 0.57992050D-02 0.37451657D+05 0.37451657D+05 0.37451657D+05 0.12049143D+01  1  2  5  7  6  2       21 -.303672722210D-03 0.100000000000D+01
0.139941184179D-06 0.000000000000D+00 0.000000000000D+00 0.159798394151D-06 0.000000000000D+00  6 2 2 25 23 2 2 4 0.21517261D+00 0.56602812D-02 0.43983667D+05 0.43983667D+05 0.43983667D+05 0.11978356D+01  1  2 12  8  6  2       21 0.916604614450D-04 0.100000000000D+01
-.597041173630D-06 0.000000000000D+00 -.122327611150D-06 0.161692660491D-06 0.000000000000D+00  6 2 2 25 23 2 2 4 0.21517261D+00 0.57992050D-02 0.37451657D+05 0.37451657D+05 0.37451657D+05 0.12049143D+01  1  2  5  8  6  2       21 -.387916605602D-03 0.100000000000D+01
0.139941184179D-06 0.000000000000D+00 0.000000000000D+00 0.159798394151D-06 0.000000000000D+00  6 2 -4 25 23 2 -4 4 0.21517261D+00 0.56602812D-02 0.43983667D+05 0.43983667D+05 0.43983667D+05 0.11978356D+01  1  2 12  9  6  2       21 0.473147751666D-04 0.100000000000D+01
-.597041173630D-06 0.000000000000D+00 -.122327611150D-06 0.161692660491D-06 0.000000000000D+00  6 2 -4 25 23 2 -4 4 0.21517261D+00 0.57992050D-02 0.37451657D+05 0.37451657D+05 0.37451657D+05 0.12049143D+01  1  2  5  9  6  2       21 -.197704138815D-03 0.100000000000D+01
0.139941184179D-06 0.000000000000D+00 0.000000000000D+00 0.159798394151D-06 0.000000000000D+00  6 2 4 25 23 2 4 4 0.21517261D+00 0.56602812D-02 0.43983667D+05 0.43983667D+05 0.43983667D+05 0.11978356D+01  1  2 12 10  6  2       21 0.473147751666D-04 0.100000000000D+01
-.597041173630D-06 0.000000000000D+00 -.122327611150D-06 0.161692660491D-06 0.000000000000D+00  6 2 4 25 23 2 4 4 0.21517261D+00 0.57992050D-02 0.37451657D+05 0.37451657D+05 0.37451657D+05 0.12049143D+01  1  2  5 10  6  2       21 -.197704138815D-03 0.100000000000D+01
  </mgrwgt>
  </event>
  <event>
  5     66 -.49447450E-03 0.21434939E+03 0.75467711E-02 0.10544380E+00
        2 -1    0    0  502    0 0.00000000E+00 0.00000000E+00 0.90635658E+03 0.90635663E+03 0.32000000E+00 0.0000E+00 0.9000E+01
       21 -1    0    0  501  502 0.00000000E+00 0.00000000E+00 -.16197437E+03 0.16197610E+03 0.75000000E+00 0.0000E+00 0.9000E+01
       25  1    1    2    0    0 -.74680002E+02 -.10313611E+03 0.30353032E+03 0.35209347E+03 0.12500000E+03 0.0000E+00 0.9000E+01
       23  1    1    2    0    0 -.22215022E+03 0.11410136E+03 0.18147224E+03 0.32189636E+03 0.91188000E+02 0.0000E+00 0.9000E+01
        2  1    1    2  501    0 0.29683023E+03 -.10965251E+02 0.25937965E+03 0.39434290E+03 0.32000000E+00 0.0000E+00 0.9000E+01
#aMCatNLO 1  0  0  2  1 0.31200330D+02 0.00000000D+00  -5  6  0 0.00000000D+00 0.00000000D+00 0.00000000D+00 0.00000000D+00 0.00000000D+00
  <mgrwgt>
 -.8920692520D-02    1    2    0
 0.383154657528040D+03 0.000000000000000D+00 0.000000000000000D+00 0.383154657528040D+03
 0.383154657528040D+03 0.000000000000000D+00 0.000000000000000D+00 -.383154657528040D+03
 0.196018011862454D+03 -.746800460588537D+02 -.103136105295842D+03 0.811412070378646D+02
 0.272484945983228D+03 -.222150285298448D+03 0.114101360120016D+03 -.596902404423308D+02
 0.297806357210398D+03 0.296830331357301D+03 -.109652548241744D+02 -.214509665955338D+02
 0.000000000000000D+00 0.000000000000000D+00 -.000000000000000D+00 -.000000000000000D+00
 0.465623347939095D+03 0.000000000000000D+00 0.000000000000000D+00 0.465623347939095D+03
 0.525319078506946D+03 0.000000000000000D+00 0.000000000000000D+00 -.525319078506946D+03
 0.187734200745701D+03 -.964372121733259D+02 -.611154543327821D+02 0.811412070378646D+02
 0.331851688858442D+03 -.256413677459621D+03 0.180275880976269D+03 -.596902404423308D+02
 0.270385978004509D+03 0.264616171761397D+03 0.512514855971523D+02 -.214509665955338D+02
 0.200970558837390D+03 0.882347178715503D+02 -.170411912240639D+03 -.596957305678506D+02
-.916533246343D-05 0.000000000000D+00 0.000000000000D+00 0.266490369519D-07 0.000000000000D+00  6 2 21 25 23 2 21 4 0.13943961D+00 0.24919271D-01 0.13739434D+06 0.13739434D+06 0.13739434D+06 0.11511064D+01  1  2 14  2  6  2       21 -.892069252037D-02 0.100000000000D+01
  </mgrwgt>
  </event>
  <event>
  6     66 0.49447450E-03 0.12570544E+03 0.75467711E-02 0.11498557E+00
        2 -1    0    0  502    0 0.00000000E+00 0.00000000E+00 0.88567964E+03 0.88567970E+03 0.32000000E+00 0.0000E+00 0.9000E+01
       21 -1    0    0  501  502 0.00000000E+00 0.00000000E+00 -.57875415E+02 0.57880274E+02 0.75000000E+00 0.0000E+00 0.9000E+01
       25  1    1    2    0    0 0.10370390E+03 0.16002624E+02 0.21543136E+03 0.27027071E+03 0.12500000E+03 0.0000E+00 0.9000E+01
       23  1    1    2    0    0 0.71389716E+01 0.53202063E+02 0.45845018E+03 0.47050318E+03 0.91188000E+02 0.0000E+00 0.9000E+01
        2  1    1    2  503    0 -.87224331E+02 -.53072368E+02 0.13120672E+03 0.16625302E+03 0.32000000E+00 0.0000E+00 0.9000E+01
       21  1    1    2  501  503 -.23618545E+02 -.16132319E+02 0.22715963E+02 0.36533066E+02 0.75000000E+00 0.0000E+00 0.9000E+01
#aMCatNLO 2  0  0  5  2 0.80797952D+01 0.00000000D+00  -5  6  0 0.00000000D+00 0.00000000D+00 0.00000000D+00 0.00000000D+00 0.00000000D+00
  <mgrwgt>
 0.3186645851D-01    2    2    0
 0.226409797491604D+03 0.000000000000000D+00 0.000000000000000D+00 0.226409797491604D+03
 0.226409797491604D+03 -.000000000000000D+00 -.000000000000000D+00 -.226409797491604D+03
 0.169549486617343D+03 0.104078422657097D+03 0.162364539202284D+02 -.450120863048072D+02
 0.142495065231630D+03 0.745371707859164D+01 0.533985740659783D+02 0.953028155974369D+02
 0.140775043134235D+03 -.111532139735689D+03 -.696350279862066D+02 -.502907292926297D+02
 0.000000000000000D+00 0.000000000000000D+00 0.000000000000000D+00 -.000000000000000D+00
 0.226409797491604D+03 0.000000000000000D+00 0.000000000000000D+00 0.226409797491604D+03
 0.226409797491604D+03 -.000000000000000D+00 -.000000000000000D+00 -.226409797491604D+03
 0.169342703225912D+03 0.103704163053960D+03 0.160027851499495D+02 -.451808429379282D+02
 0.142310602917987D+03 0.713918856619840D+01 0.532021983682209D+02 0.951609921884261D+02
 0.106458761732801D+03 -.871484808865998D+02 -.530191398198331D+02 -.304562151556004D+02
 0.347075271065074D+02 -.236948707335583D+02 -.161858436983373D+02 -.195239340948975D+02
-.492367291355D-05 0.000000000000D+00 0.000000000000D+00 0.856352525069D-07 0.000000000000D+00  6 2 21 25 23 2 21 4 0.13625879D+00 0.89042882D-02 0.39944703D+05 0.39944703D+05 0.39944703D+05 0.12020613D+01  1  2 13  3  6  5        2 -.402332902538D-01 0.100000000000D+01
0.882342900145D-05 0.000000000000D+00 0.000000000000D+00 0.855987652840D-07 0.107783575962D-07  6 2 21 25 23 2 21 4 0.13625879D+00 0.89042882D-02 0.39944703D+05 0.39944703D+05 0.39944703D+05 0.12020613D+01  1  2  1  3  6  5        2 0.720997487612D-01 0.100000000000D+01
  </mgrwgt>
  </event>
  <event>
  5     66 0.49447450E-03 0.59759436E+02 0.75467711E-02 0.11842766E+00
        2 -1    0    0  502    0 0.00000000E+00 0.00000000E+00 0.10540483E+03 0.10540532E+03 0.32000000E+00 0.0000E+00 0.9000E+01
       21 -1    0    0  501  502 0.00000000E+00 0.00000000E+00 -.33520367E+03 0.33520451E+03 0.75000000E+00 0.0000E+00 0.9000E+01
       25  1    1    2    0    0 -.45545404E+02 -.76509612E+02 0.27872309E+01 0.15349552E+03 0.12500000E+03 0.0000E+00 0.9000E+01
       23  1    1    2    0    0 0.38063941E+02 0.13906565E+02 -.10531365E+03 0.14508092E+03 0.91188000E+02 0.0000E+00 0.9000E+01
        2  1    1    2  501    0 0.74814627E+01 0.62603047E+02 -.12727242E+03 0.14203339E+03 0.32000000E+00 0.0000E+00 0.9000E+01
#aMCatNLO 1  0  0  2  1 0.11848709D+02 0.00000000D+00  -5  6  0 0.00000000D+00 0.00000000D+00 0.00000000D+00 0.00000000D+00 0.00000000D+00
  <mgrwgt>
 0.3440533923D-01   23    2    0
 0.187969087637259D+03 0.000000000000000D+00 0.000000000000000D+00 0.187969087637259D+03
 0.187969087637259D+03 0.000000000000000D+00 0.000000000000000D+00 -.187969087637259D+03
 0.181604879814039D+03 -.455454270680531D+02 -.765098088592920D+02 0.970937464195038D+02
 0.105663919455571D+03 0.380639271519740D+02 0.139064506824974D+02 -.347470949850175D+02
 0.886693760049075D+02 0.748149991607902D+01 0.626033581767946D+02 -.623466514344864D+02
 0.000000000000000D+00 0.000000000000000D+00 0.000000000000000D+00 -.000000000000000D+00
 0.190397030410653D+03 0.000000000000000D+00 0.000000000000000D+00 0.190397030410653D+03
 0.203096222691636D+03 0.000000000000000D+00 0.000000000000000D+00 -.203096222691636D+03
 0.184139878380639D+03 -.456822587080364D+02 -.822704713466110D+02 0.970937464195038D+02
 0.105249724190911D+03 0.379850205945774D+02 0.105844555265987D+02 -.347470949850175D+02
 0.867352484233156D+02 0.741587791635537D+01 0.598406477963820D+02 -.623466514344864D+02
 0.173684021074235D+02 0.281360197103652D+00 0.118453680236303D+02 -.126991922809836D+02
0.947235240371D-06 0.000000000000D+00 0.000000000000D+00 0.206503635883D-06 0.000000000000D+00  6 2 21 25 23 2 21 2 0.16216230D-01 0.51569897D-01 0.25012438D+05 0.25012438D+05 0.25012438D+05 0.12232745D+01  1  2  2  2  6  2       21 0.220188417041D-02 0.100000000000D+01
-.132141106245D-07 0.499869769490D-07 -.191219503974D-08 0.206503635883D-06 0.000000000000D+00  6 2 21 25 23 2 21 4 0.16216230D-01 0.51569897D-01 0.25012438D+05 0.25012438D+05 0.25012438D+05 0.12232745D+01  1  2  3  2  6  2       21 -.459644846219D-04 0.100000000000D+01
0.990419409013D-07 0.000000000000D+00 0.000000000000D+00 0.206503635883D-06 0.000000000000D+00  6 2 21 25 23 2 21 4 0.16216230D-01 0.51569897D-01 0.25012438D+05 0.25012438D+05 0.25012438D+05 0.12232745D+01  1  2 15  2  6  2       21 0.344511401398D-03 0.100000000000D+01
0.643341404879D-05 0.000000000000D+00 0.000000000000D+00 0.205372774605D-06 0.000000000000D+00  6 2 21 25 23 2 21 4 0.16216230D-01 0.56036321D-01 0.26889036D+05 0.26889036D+05 0.26889036D+05 0.12199204D+01  1  2 12  2  6  2       21 0.185780714028D-01 0.100000000000D+01
-.167065982108D-06 0.000000000000D+00 0.000000000000D+00 0.206503635883D-06 0.000000000000D+00  6 2 21 25 23 2 21 4 0.16216230D-01 0.51569897D-01 0.25012438D+05 0.25012438D+05 0.25012438D+05 0.12232745D+01  1  2  4  2  6  2       21 -.581128914661D-03 0.100000000000D+01
-.258064294910D-04 0.000000000000D+00 -.351058358787D-05 0.206503635883D-06 0.000000000000D+00  6 2 21 25 23 2 21 4 0.16216230D-01 0.56241449D-01 0.25012438D+05 0.25012438D+05 0.25012438D+05 0.12232745D+01  1  2  5  2  6  2       21 -.748349053310D-01 0.100000000000D+01
0.257861023781D-04 0.000000000000D+00 0.345834413466D-05 0.206503635883D-06 0.000000000000D+00  6 2 21 25 23 2 21 4 0.16216230D-01 0.51569897D-01 0.25012438D+05 0.25012438D+05 0.25012438D+05 0.12232745D+01  1  2  6  2  6  2       21 0.896953975866D-01 0.100000000000D+01
0.136923313120D-06 0.000000000000D+00 0.000000000000D+00 0.205372774605D-06 0.000000000000D+00  6 2 -1 25 23 2 -1 4 0.16216230D-01 0.56036321D-01 0.26889036D+05 0.26889036D+05 0.26889036D+05 0.12199204D+01  1  2 12  5  6  2       21 0.401870419433D-04 0.100000000000D+01
0.136923313120D-06 0.000000000000D+00 0.000000000000D+00 0.205372774605D-06 0.000000000000D+00  6 2 -3 25 23 2 -3 4 0.16216230D-01 0.56036321D-01 0.26889036D+05 0.26889036D+05 0.26889036D+05 0.12199204D+01  1  2 12  5  6  2       21 0.203139542699D-04 0.100000000000D+01
-.470767051800D-06 0.000000000000D+00 -.764481380553D-07 0.206503635883D-06 0.000000000000D+00  6 2 -1 25 23 2 -1 4 0.16216230D-01 0.56241449D-01 0.25012438D+05 0.25012438D+05 0.25012438D+05 0.12232745D+01  1  2  5  5  6  2       21 -.138622086890D-03 0.100000000000D+01
-.470767051800D-06 0.000000000000D+00 -.764481380553D-07 0.206503635883D-06 0.000000000000D+00  6 2 -3 25 23 2 -3 4 0.16216230D-01 0.56241449D-01 0.25012438D+05 0.25012438D+05 0.25012438D+05 0.12232745D+01  1  2  5  5  6  2       21 -.699087120680D-04 0.100000000000D+01
0.136923313120D-06 0.000000000000D+00 0.000000000000D+00 0.205372774605D-06 0.000000000000D+00  6 2 1 25 23 2 1 4 0.16216230D-01 0.56036321D-01 0.26889036D+05 0.26889036D+05 0.26889036D+05 0.12199204D+01  1  2 12  6  6  2       21 0.981021599559D-04 0.100000000000D+01
0.136923313120D-06 0.000000000000D+00 0.000000000000D+00 0.205372774605D-06 0.000000000000D+00  6 2 3 25 23 2 3 4 0.16216230D-01 0.56036321D-01 0.26889036D+05 0.26889036D+05 0.26889036D+05 0.12199204D+01  1  2 12  6  6  2       21 0.203255466821D-04 0.100000000000D+01
-.470767051800D-06 0.000000000000D+00 -.764481380553D-07 0.206503635883D-06 0.000000000000D+00  6 2 1 25 23 2 1 4 0.16216230D-01 0.56241449D-01 0.25012438D+05 0.25012438D+05 0.25012438D+05 0.12232745D+01  1  2  5  6  6  2       21 -.339117985857D-03 0.100000000000D+01
-.470767051800D-06 0.000000000000D+00 -.764481380553D-07 0.206503635883D-06 0.000000000000D+00  6 2 3 25 23 2 3 4 0.16216230D-01 0.56241449D-01 0.25012438D+05 0.25012438D+05 0.25012438D+05 0.12232745D+01  1  2  5  6  6  2       21 -.699488881026D-04 0.100000000000D+01
0.136923313120D-06 0.000000000000D+00 0.000000000000D+00 0.205372774605D-06 0.000000000000D+00  6 2 -2 25 23 2 -2 4 0.16216230D-01 0.56036321D-01 0.26889036D+05 0.26889036D+05 0.26889036D+05 0.12199204D+01  1  2 12  7  6  2       21 0.323493086094D-04 0.100000000000D+01
-.470767051800D-06 0.000000000000D+00 -.764481380553D-07 0.206503635883D-06 0.000000000000D+00  6 2 -2 25 23 2 -2 4 0.16216230D-01 0.56241449D-01 0.25012438D+05 0.25012438D+05 0.25012438D+05 0.12232745D+01  1  2  5  7  6  2       21 -.111495230058D-03 0.100000000000D+01
0.136923313120D-06 0.000000000000D+00 0.000000000000D+00 0.205372774605D-06 0.000000000000D+00  6 2 2 25 23 2 2 4 0.16216230D-01 0.56036321D-01 0.26889036D+05 0.26889036D+05 0.26889036D+05 0.12199204D+01  1  2 12  8  6  2       21 0.143780505396D-03 0.100000000000D+01
-.470767051800D-06 0.000000000000D+00 -.764481380553D-07 0.206503635883D-06 0.000000000000D+00  6 2 2 25 23 2 2 4 0.16216230D-01 0.56241449D-01 0.25012438D+05 0.25012438D+05 0.25012438D+05 0.12232745D+01  1  2  5  8  6  2       21 -.497231888561D-03 0.100000000000D+01
0.136923313120D-06 0.000000000000D+00 0.000000000000D+00 0.205372774605D-06 0.000000000000D+00  6 2 -4 25 23 2 -4 4 0.16216230D-01 0.56036321D-01 0.26889036D+05 0.26889036D+05 0.26889036D+05 0.12199204D+01  1  2 12  9  6  2       21 0.166638064296D-04 0.100000000000D+01
-.470767051800D-06 0.000000000000D+00 -.764481380553D-07 0.206503635883D-06 0.000000000000D+00  6 2 -4 25 23 2 -4 4 0.16216230D-01 0.56241449D-01 0.25012438D+05 0.25012438D+05 0.25012438D+05 0.12232745D+01  1  2  5  9  6  2       21 -.572939702700D-04 0.100000000000D+01
0.136923313120D-06 0.000000000000D+00 0.000000000000D+00 0.205372774605D-06 0.000000000000D+00  6 2 4 25 23 2 4 4 0.16216230D-01 0.56036321D-01 0.26889036D+05 0.26889036D+05 0.26889036D+05 0.12199204D+01  1  2 12 10  6  2       21 0.166638064296D-04 0.100000000000D+01
-.470767051800D-06 0.000000000000D+00 -.764481380553D-07 0.206503635883D-06 0.000000000000D+00  6 2 4 25 23 2 4 4 0.16216230D-01 0.56241449D-01 0.25012438D+05 0.25012438D+05 0.25012438D+05 0.12232745D+01  1  2  5 10  6  2       21 -.572939702700D-04 0.100000000000D+01
  </mgrwgt>
  </event>
  <event>
  5     66 -.49447450E-03 0.69875129E+02 0.75467711E-02 0.11921843E+00
        2 -1    0    0  502    0 0.00000000E+00 0.00000000E+00 0.13985126E+04 0.13985126E+04 0.32000000E+00 0.0000E+00 0.9000E+01
       21 -1    0    0  501  502 0.00000000E+00 0.00000000E+00 -.34295414E+02 0.34303614E+02 0.75000000E+00 0.0000E+00 0.9000E+01
       25  1    1    2    0    0 -.17781564E+01 0.98268589E+01 0.12372083E+03 0.17615781E+03 0.12500000E+03 0.0000E+00 0.9000E+01
       23  1    1    2    0    0 -.29075216E+02 0.59444516E+02 0.51335815E+03 0.52557669E+03 0.91188000E+02 0.0000E+00 0.9000E+01
        2  1    1    2  501    0 0.30853372E+02 -.69271375E+02 0.72713819E+03 0.73108174E+03 0.32000000E+00 0.0000E+00 0.9000E+01
#aMCatNLO 1  0  0  1  2 0.24323985D+02 0.00000000D+00  -5  6  0 0.00000000D+00 0.00000000D+00 0.00000000D+00 0.00000000D+00 0.00000000D+00
  <mgrwgt>
 -.2075004823D-02    1    2    0
 0.219017050805133D+03 0.000000000000000D+00 0.000000000000000D+00 0.219017050805133D+03
 0.219017050805133D+03 0.000000000000000D+00 0.000000000000000D+00 -.219017050805133D+03
 0.190897768619468D+03 -.177819928291674D+01 0.982695505505636D+01 -.143934801300964D+03
 0.120362358436100D+03 -.290752425966460D+02 0.594445766809688D+02 0.423416881508843D+02
 0.126773974554699D+03 0.308534418795628D+02 -.692715317360252D+02 0.101593113150080D+03
 0.000000000000000D+00 -.000000000000000D+00 -.000000000000000D+00 0.000000000000000D+00
 0.368266898116120D+03 0.000000000000000D+00 0.000000000000000D+00 0.368266898116120D+03
 0.221532004619075D+03 0.000000000000000D+00 0.000000000000000D+00 -.221532004619075D+03
 0.191743993499696D+03 0.104789506880118D+02 0.177122446387201D+02 -.143934801300964D+03
 0.121300233282820D+03 -.213340733822422D+02 0.644246382055887D+02 0.423416881508843D+02
 0.126262703485057D+03 0.389589567969674D+02 -.640570787432795D+02 0.101593113150080D+03
 0.150491972467621D+03 -.281038341027370D+02 -.180798041010293D+02 0.146734893497046D+03
-.188400957693D-06 0.000000000000D+00 0.000000000000D+00 0.495546956451D-07 0.000000000000D+00  6 2 21 25 23 2 21 4 0.21515642D+00 0.52768511D-02 0.24633161D+05 0.24633161D+05 0.24633161D+05 0.12239865D+01  1  2 14  1  6  1        2 -.207500482255D-02 0.100000000000D+01
  </mgrwgt>
  </event>
  <event>
  5     66 0.49447450E-03 0.16176315E+03 0.75467711E-02 0.10870074E+00
        2 -1    0    0  502    0 0.00000000E+00 0.00000000E+00 0.27211174E+04 0.27211174E+04 0.32000000E+00 0.0000E+00 0.9000E+01
       21 -1    0    0  501  502 0.00000000E+00 0.00000000E+00 -.50335413E+02 0.50341001E+02 0.75000000E+00 0.0000E+00 0.9000E+01
       25  1    1    2    0    0 -.13234112E+03 0.10782487E+03 0.18267566E+04 0.18389685E+04 0.12500000E+03 0.0000E+00 0.9000E+01
       23  1    1    2    0    0 0.12120334E+03 0.90689288E+02 0.25061400E+03 0.30665522E+03 0.91188000E+02 0.0000E+00 0.9000E+01
        2  1    1    2  501    0 0.11137774E+02 -.19851416E+03 0.59341137E+03 0.62583471E+03 0.32000000E+00 0.0000E+00 0.9000E+01
#aMCatNLO 1  0  0  1  2 0.56377899D+01 0.00000000D+00  -5  6  0 0.00000000D+00 0.00000000D+00 0.00000000D+00 0.00000000D+00 0.00000000D+00
  <mgrwgt>
 0.7796000584D-01   11    2    0
 0.370103142770402D+03 0.000000000000000D+00 0.000000000000000D+00 0.370103142770402D+03
 0.370103142770402D+03 0.000000000000000D+00 0.000000000000000D+00 -.370103142770402D+03
 0.294182961340414D+03 -.132341121985718D+03 0.107824972708135D+03 0.204397205056886D+03
 0.243914239535702D+03 0.121203337447650D+03 0.906893703014162D+02 -.168119285063206D+03
 0.202109084664688D+03 0.111377845380675D+02 -.198514343009551D+03 -.362779199936802D+02
 0.000000000000000D+00 0.000000000000000D+00 -.000000000000000D+00 0.000000000000000D+00
 0.373353644922183D+03 0.000000000000000D+00 0.000000000000000D+00 0.373353644922183D+03
 0.372566575081750D+03 0.000000000000000D+00 0.000000000000000D+00 -.372566575081750D+03
 0.295391431895850D+03 -.134493599162850D+03 0.108463599362351D+03 0.204397205056886D+03
 0.243232771143835D+03 0.119424812405814D+03 0.912170476719239D+02 -.168119285063206D+03
 0.201603552336133D+03 0.966387005461387D+01 -.198077041706119D+03 -.362779199936802D+02
 0.569246462811457D+01 0.540491670242252D+01 -.160360532815579D+01 0.787069840433496D+00
0.103352738242D-04 0.000000000000D+00 0.000000000000D+00 0.143942343103D-07 0.000000000000D+00  6 2 21 25 23 2 21 2 0.41863387D+00 0.77443410D-02 0.86178996D+05 0.86178996D+05 0.86178996D+05 0.11695529D+01  1  2  2  1  6  1        2 0.678071528613D-02 0.100000000000D+01
-.887029571013D-06 0.545407383927D-06 -.208639401268D-07 0.143942343103D-07 0.000000000000D+00  6 2 21 25 23 2 21 4 0.41863387D+00 0.77443410D-02 0.86178996D+05 0.86178996D+05 0.86178996D+05 0.11695529D+01  1  2  3  1  6  1        2 -.796033510503D-03 0.100000000000D+01
0.906777221613D-06 0.000000000000D+00 0.000000000000D+00 0.143942343103D-07 0.000000000000D+00  6 2 21 25 23 2 21 4 0.41863387D+00 0.77443410D-02 0.86178996D+05 0.86178996D+05 0.86178996D+05 0.11695529D+01  1  2 15  1  6  1        2 0.813755345428D-03 0.100000000000D+01
0.654295964776D-05 0.000000000000D+00 0.000000000000D+00 0.143744484460D-07 0.000000000000D+00  6 2 21 25 23 2 21 4 0.42369309D+00 0.77443410D-02 0.87907620D+05 0.87907620D+05 0.87907620D+05 0.11687488D+01  1  2 12  1  6  1        2 0.560263824219D-02 0.100000000000D+01
-.493105093997D-04 0.000000000000D+00 0.000000000000D+00 0.143942343103D-07 0.000000000000D+00  6 2 21 25 23 2 21 4 0.41863387D+00 0.77443410D-02 0.86178996D+05 0.86178996D+05 0.86178996D+05 0.11695529D+01  1  2  4  1  6  1        2 -.442519834567D-01 0.100000000000D+01
-.192931365158D-02 0.000000000000D+00 -.215084831799D-03 0.143942343103D-07 0.000000000000D+00  6 2 21 25 23 2 21 4 0.42338731D+00 0.77443410D-02 0.86178996D+05 0.86178996D+05 0.86178996D+05 0.11695529D+01  1  2  5  1  6  1        2 -.166282015188D+01 0.100000000000D+01
0.193163268800D-02 0.000000000000D+00 0.215071123119D-03 0.143942343103D-07 0.000000000000D+00  6 2 21 25 23 2 21 4 0.41863387D+00 0.77443410D-02 0.86178996D+05 0.86178996D+05 0.86178996D+05 0.11695529D+01  1  2  6  1  6  1        2 0.173347586132D+01 0.100000000000D+01
0.462219800412D-04 0.000000000000D+00 0.000000000000D+00 0.143942343103D-07 0.516976439715D-08  6 2 21 25 23 2 21 4 0.42231061D+00 0.77958879D-02 0.87907620D+05 0.87907620D+05 0.87907620D+05 0.11687488D+01  1  2 11  1  6  1        2 0.395848564609D-01 0.100000000000D+01
0.460790560962D-06 0.000000000000D+00 0.000000000000D+00 0.143744484460D-07 0.000000000000D+00  6 21 21 25 23 2 -2 4 0.42369309D+00 0.77443410D-02 0.87907620D+05 0.87907620D+05 0.87907620D+05 0.11687488D+01  1  2 12  4  6  1        2 0.590511347231D-04 0.100000000000D+01
-.400591117951D-05 0.000000000000D+00 -.447719406859D-06 0.143942343103D-07 0.000000000000D+00  6 21 21 25 23 2 -2 4 0.42338731D+00 0.77443410D-02 0.86178996D+05 0.86178996D+05 0.86178996D+05 0.11695529D+01  1  2  5  4  6  1        2 -.518645973460D-03 0.100000000000D+01
0.231550828012D-06 0.000000000000D+00 0.000000000000D+00 0.143942343103D-07 0.849269210750D-11  6 21 21 25 23 2 -2 4 0.42231061D+00 0.77958879D-02 0.87907620D+05 0.87907620D+05 0.87907620D+05 0.11687488D+01  1  2 11  4  6  1        2 0.299428725641D-04 0.100000000000D+01
  </mgrwgt>
  </event>
  <event>
  5     66 0.49447450E-03 0.30813996E+02 0.75467711E-02 0.11738698E+00
        2 -1    0    0  502    0 0.00000000E+00 0.00000000E+00 0.31963788E+03 0.31963805E+03 0.32000000E+00 0.0000E+00 0.9000E+01
       21 -1    0    0  501  502 0.00000000E+00 0.00000000E+00 -.16576440E+03 0.16576610E+03 0.75000000E+00 0.0000E+00 0.9000E+01
       25  1    1    2    0    0 -.17193568E+02 -.96953679E+02 0.11234610E+03 0.19478778E+03 0.12500000E+03 0.0000E+00 0.9000E+01
       23  1    1    2    0    0 0.47965971E+02 0.98552934E+02 0.13245442E+03 0.19460945E+03 0.91188000E+02 0.0000E+00 0.9000E+01
        2  1    1    2  501    0 -.30772402E+02 -.15992552E+01 -.90927030E+02 0.96006904E+02 0.32000000E+00 0.0000E+00 0.9000E+01
#aMCatNLO 1  0  0  2  1 0.18532584D+02 0.00000000D+00  -5  6  0 0.00000000D+00 0.00000000D+00 0.00000000D+00 0.00000000D+00 0.00000000D+00
  <mgrwgt>
 0.7005874467D-01   23    2    0
 0.230184778707534D+03 0.000000000000000D+00 0.000000000000000D+00 0.230184778707534D+03
 0.230184778707534D+03 0.000000000000000D+00 0.000000000000000D+00 -.230184778707534D+03
 0.167829796285659D+03 -.171935352579705D+02 -.969536768904238D+02 0.533498585194558D+02
 0.160920813619097D+03 0.479660022915076D+02 0.985529354577436D+02 0.746112488078378D+02
 0.131618947510313D+03 -.307724670335371D+02 -.159925856731980D+01 -.127961107327294D+03
 0.000000000000000D+00 -.000000000000000D+00 0.000000000000000D+00 -.000000000000000D+00
 0.237322649572183D+03 0.000000000000000D+00 0.000000000000000D+00 0.237322649572183D+03
 0.242723221000374D+03 0.000000000000000D+00 0.000000000000000D+00 -.242723221000374D+03
 0.168494267196434D+03 -.107477674506856D+02 -.990131110956691D+02 0.533498585194558D+02
 0.161683025186923D+03 0.541488172145708D+02 0.965775151636916D+02 0.746112488078378D+02
 0.130565136823415D+03 -.257476177471560D+02 -.320470679412071D+01 -.127961107327294D+03
 0.193034413657849D+02 -.176534320167292D+02 0.564030272609825D+01 -.540057142819048D+01
0.296165794243D-05 0.000000000000D+00 0.000000000000D+00 0.141175970000D-05 0.000000000000D+00  6 2 21 25 23 2 21 2 0.49175202D-01 0.25502358D-01 0.27641926D+05 0.27641926D+05 0.27641926D+05 0.12186476D+01  1  2  2  2  6  2       21 0.815501065082D-02 0.100000000000D+01
0.568133043240D-06 0.156290983474D-06 -.597873409428D-08 0.141175970000D-05 0.000000000000D+00  6 2 21 25 23 2 21 4 0.49175202D-01 0.25502358D-01 0.27641926D+05 0.27641926D+05 0.27641926D+05 0.12186476D+01  1  2  3  2  6  2       21 0.232325010740D-02 0.100000000000D+01
0.139099122374D-06 0.000000000000D+00 0.000000000000D+00 0.141175970000D-05 0.000000000000D+00  6 2 21 25 23 2 21 4 0.49175202D-01 0.25502358D-01 0.27641926D+05 0.27641926D+05 0.27641926D+05 0.12186476D+01  1  2 15  2  6  2       21 0.568814038963D-03 0.100000000000D+01
0.921847146922D-05 0.000000000000D+00 0.000000000000D+00 0.140227858773D-05 0.000000000000D+00  6 2 21 25 23 2 21 4 0.49175202D-01 0.27269835D-01 0.30231208D+05 0.30231208D+05 0.30231208D+05 0.12145486D+01  1  2 12  2  6  2       21 0.326782800619D-01 0.100000000000D+01
-.202801199412D-05 0.000000000000D+00 0.000000000000D+00 0.141175970000D-05 0.000000000000D+00  6 2 21 25 23 2 21 4 0.49175202D-01 0.25502358D-01 0.27641926D+05 0.27641926D+05 0.27641926D+05 0.12186476D+01  1  2  4  2  6  2       21 -.829309109761D-02 0.100000000000D+01
-.601418121881D-04 0.000000000000D+00 -.119514571455D-04 0.141175970000D-05 0.000000000000D+00  6 2 21 25 23 2 21 4 0.49175202D-01 0.27667165D-01 0.27641926D+05 0.27641926D+05 0.27641926D+05 0.12186476D+01  1  2  5  2  6  2       21 -.210413704912D+00 0.100000000000D+01
0.603947601125D-04 0.000000000000D+00 0.117942637971D-04 0.141175970000D-05 0.000000000000D+00  6 2 21 25 23 2 21 4 0.49175202D-01 0.25502358D-01 0.27641926D+05 0.27641926D+05 0.27641926D+05 0.12186476D+01  1  2  6  2  6  2       21 0.246970554850D+00 0.100000000000D+01
0.160327052555D-06 0.000000000000D+00 0.000000000000D+00 0.140227858773D-05 0.000000000000D+00  6 2 -1 25 23 2 -1 4 0.49175202D-01 0.27269835D-01 0.30231208D+05 0.30231208D+05 0.30231208D+05 0.12145486D+01  1  2 12  5  6  2       21 0.484114824102D-04 0.100000000000D+01
0.160327052555D-06 0.000000000000D+00 0.000000000000D+00 0.140227858773D-05 0.000000000000D+00  6 2 -3 25 23 2 -3 4 0.49175202D-01 0.27269835D-01 0.30231208D+05 0.30231208D+05 0.30231208D+05 0.12145486D+01  1  2 12  5  6  2       21 0.277477753695D-04 0.100000000000D+01
-.981287696798D-06 0.000000000000D+00 -.242846739391D-06 0.141175970000D-05 0.000000000000D+00  6 2 -1 25 23 2 -1 4 0.49175202D-01 0.27667165D-01 0.27641926D+05 0.27641926D+05 0.27641926D+05 0.12186476D+01  1  2  5  5  6  2       21 -.292924532909D-03 0.100000000000D+01
-.981287696798D-06 0.000000000000D+00 -.242846739391D-06 0.141175970000D-05 0.000000000000D+00  6 2 -3 25 23 2 -3 4 0.49175202D-01 0.27667165D-01 0.27641926D+05 0.27641926D+05 0.27641926D+05 0.12186476D+01  1  2  5  5  6  2       21 -.167151538735D-03 0.100000000000D+01
0.160327052555D-06 0.000000000000D+00 0.000000000000D+00 0.140227858773D-05 0.000000000000D+00  6 2 1 25 23 2 1 4 0.49175202D-01 0.27269835D-01 0.30231208D+05 0.30231208D+05 0.30231208D+05 0.12145486D+01  1  2 12  6  6  2       21 0.817018494960D-04 0.100000000000D+01
0.160327052555D-06 0.000000000000D+00 0.000000000000D+00 0.140227858773D-05 0.000000000000D+00  6 2 3 25 23 2 3 4 0.49175202D-01 0.27269835D-01 0.30231208D+05 0.30231208D+05 0.30231208D+05 0.12145486D+01  1  2 12  6  6  2       21 0.277474979731D-04 0.100000000000D+01
-.981287696798D-06 0.000000000000D+00 -.242846739391D-06 0.141175970000D-05 0.000000000000D+00  6 2 1 25 23 2 1 4 0.49175202D-01 0.27667165D-01 0.27641926D+05 0.27641926D+05 0.27641926D+05 0.12186476D+01  1  2  5  6  6  2       21 -.497322920807D-03 0.100000000000D+01
-.981287696798D-06 0.000000000000D+00 -.242846739391D-06 0.141175970000D-05 0.000000000000D+00  6 2 3 25 23 2 3 4 0.49175202D-01 0.27667165D-01 0.27641926D+05 0.27641926D+05 0.27641926D+05 0.12186476D+01  1  2  5  6  6  2       21 -.167150477730D-03 0.100000000000D+01
0.160327052555D-06 0.000000000000D+00 0.000000000000D+00 0.140227858773D-05 0.000000000000D+00  6 2 -2 25 23 2 -2 4 0.49175202D-01 0.27269835D-01 0.30231208D+05 0.30231208D+05 0.30231208D+05 0.12145486D+01  1  2 12  7  6  2       21 0.429711841862D-04 0.100000000000D+01
-.981287696798D-06 0.000000000000D+00 -.242846739391D-06 0.141175970000D-05 0.000000000000D+00  6 2 -2 25 23 2 -2 4 0.49175202D-01 0.27667165D-01 0.27641926D+05 0.27641926D+05 0.27641926D+05 0.12186476D+01  1  2  5  7  6  2       21 -.259558979586D-03 0.100000000000D+01
0.160327052555D-06 0.000000000000D+00 0.000000000000D+00 0.140227858773D-05 0.000000000000D+00  6 2 2 25 23 2 2 4 0.49175202D-01 0.27269835D-01 0.30231208D+05 0.30231208D+05 0.30231208D+05 0.12145486D+01  1  2 12  8  6  2       21 0.105771524300D-03 0.100000000000D+01
-.981287696798D-06 0.000000000000D+00 -.242846739391D-06 0.141175970000D-05 0.000000000000D+00  6 2 2 25 23 2 2 4 0.49175202D-01 0.27667165D-01 0.27641926D+05 0.27641926D+05 0.27641926D+05 0.12186476D+01  1  2  5  8  6  2       21 -.645196961812D-03 0.100000000000D+01
0.160327052555D-06 0.000000000000D+00 0.000000000000D+00 0.140227858773D-05 0.000000000000D+00  6 2 -4 25 23 2 -4 4 0.49175202D-01 0.27269835D-01 0.30231208D+05 0.30231208D+05 0.30231208D+05 0.12145486D+01  1  2 12  9  6  2       21 0.234712478916D-04 0.100000000000D+01
-.981287696798D-06 0.000000000000D+00 -.242846739391D-06 0.141175970000D-05 0.000000000000D+00  6 2 -4 25 23 2 -4 4 0.49175202D-01 0.27667165D-01 0.27641926D+05 0.27641926D+05 0.27641926D+05 0.12186476D+01  1  2  5  9  6  2       21 -.141178711049D-03 0.100000000000D+01
0.160327052555D-06 0.000000000000D+00 0.000000000000D+00 0.140227858773D-05 0.000000000000D+00  6 2 4 25 23 2 4 4 0.49175202D-01 0.27269835D-01 0.30231208D+05 0.30231208D+05 0.30231208D+05 0.12145486D+01  1  2 12 10  6  2       21 0.234712478916D-04 0.100000000000D+01
-.981287696798D-06 0.000000000000D+00 -.242846739391D-06 0.141175970000D-05 0.000000000000D+00  6 2 4 25 23 2 4 4 0.49175202D-01 0.27667165D-01 0.27641926D+05 0.27641926D+05 0.27641926D+05 0.12186476D+01  1  2  5 10  6  2       21 -.141178711049D-03 0.100000000000D+01
  </mgrwgt>
  </event>
  <event>
  6     66 0.49447450E-03 0.19549936E+02 0.75467711E-02 0.12241610E+00
        2 -1    0    0  503    0 0.00000000E+00 0.00000000E+00 0.84784676E+03 0.84784682E+03 0.32000000E+00 0.0000E+00 0.9000E+01
       21 -1    0    0  501  502 0.00000000E+00 0.00000000E+00 -.41660730E+02 0.41667481E+02 0.75000000E+00 0.0000E+00 0.9000E+01
       25  1    1    2    0    0 -.18880608E+02 -.55700262E+02 0.21938589E+03 0.25925695E+03 0.12500000E+03 0.0000E+00 0.9000E+01
       23  1    1    2    0    0 0.15023223E+02 0.34519489E+02 0.11813229E+03 0.15390836E+03 0.91188000E+02 0.0000E+00 0.9000E+01
        2  1    1    2  501    0 0.53291399E+01 -.10348132E+01 0.44004588E+03 0.44007948E+03 0.32000000E+00 0.0000E+00 0.9000E+01
       21  1    1    2  503  502 -.14717546E+01 0.22215586E+02 0.28621970E+02 0.36269519E+02 0.75000000E+00 0.0000E+00 0.9000E+01
#aMCatNLO 2  0  0  1  2 0.56377899D+01 0.00000000D+00  -5  6  0 0.00000000D+00 0.00000000D+00 0.00000000D+00 0.00000000D+00 0.00000000D+00
  <mgrwgt>
 0.2343894742D-01    1    2    0
 0.175303375593471D+03 0.000000000000000D+00 0.000000000000000D+00 0.175303375593471D+03
 0.175303375593471D+03 0.000000000000000D+00 0.000000000000000D+00 -.175303375593471D+03
 0.140936968838176D+03 -.194782652220373D+02 -.466790280800239D+02 -.409865185974285D+02
 0.114689362375679D+03 0.145471908264831D+02 0.417048628542206D+02 -.537352970728592D+02
 0.949804199730874D+02 0.493107439555419D+01 0.497416522580329D+01 0.947218156702878D+02
 0.000000000000000D+00 -.000000000000000D+00 0.000000000000000D+00 -.000000000000000D+00
 0.182640429138755D+03 0.000000000000000D+00 0.000000000000000D+00 0.182640429138755D+03
 0.193400669304902D+03 0.000000000000000D+00 0.000000000000000D+00 -.193400669304902D+03
 0.144096819402775D+03 -.188806188343467D+02 -.557002772676298D+02 -.409865185974285D+02
 0.112338882795837D+03 0.150232137270236D+02 0.345194748166950D+02 -.537352970728592D+02
 0.948772527173117D+02 0.532915966452887D+01 -.103478334864136D+01 0.947218156702878D+02
 0.247281435277331D+02 -.147175455720583D+01 0.222155857995762D+02 -.107602401661476D+02
0.135027127645D-05 0.000000000000D+00 0.000000000000D+00 0.105439669966D-06 0.409991696139D-08  6 2 21 25 23 2 21 4 0.13043449D+00 0.64096708D-02 0.17488935D+05 0.17488935D+05 0.17488935D+05 0.12402927D+01  1  2  1  1  6  1        2 0.234389474155D-01 0.100000000000D+01
  </mgrwgt>
  </event>
  <event>
  5     66 -.49447450E-03 0.42041563E+02 0.75467711E-02 0.11649978E+00
        4 -1    0    0  502    0 0.00000000E+00 0.00000000E+00 0.44167975E+03 0.44168247E+03 0.15500000E+01 0.0000E+00 0.9000E+01
       21 -1    0    0  501  502 0.00000000E+00 0.00000000E+00 -.93133560E+02 0.93136580E+02 0.75000000E+00 0.0000E+00 0.9000E+01
       25  1    1    2    0    0 0.53669555E+02 -.40764386E+02 0.11445745E+03 0.18239425E+03 0.12500000E+03 0.0000E+00 0.9000E+01
       23  1    1    2    0    0 -.11886275E+02 0.45391426E+02 0.27514986E+03 0.29363985E+03 0.91188000E+02 0.0000E+00 0.9000E+01
        4  1    1    2  501    0 -.41783280E+02 -.46270408E+01 -.41061117E+02 0.58784946E+02 0.15500000E+01 0.0000E+00 0.9000E+01
#aMCatNLO 1  0  0  2  5 0.18773648D+03 0.00000000D+00  -5  6  0 0.00000000D+00 0.00000000D+00 0.00000000D+00 0.00000000D+00 0.00000000D+00
  <mgrwgt>
 -.8301000858D-02   12    2    0
 0.202821947127334D+03 0.000000000000000D+00 0.000000000000000D+00 0.202821947127334D+03
 0.202821947127334D+03 0.000000000000000D+00 0.000000000000000D+00 -.202821947127334D+03
 0.142130452639837D+03 0.536709375141939D+02 -.407642325853496D+02 -.581148652926733D+01
 0.150730273583047D+03 -.118848086807512D+02 0.453915888565401D+02 0.110465917884753D+03
 0.112783168031784D+03 -.417861288334427D+02 -.462735627119045D+01 -.104654431355485D+03
 0.000000000000000D+00 0.000000000000000D+00 -.000000000000000D+00 -.000000000000000D+00
 0.207042842969628D+03 0.000000000000000D+00 0.000000000000000D+00 0.207042842969628D+03
 0.802299660421320D+03 0.000000000000000D+00 0.000000000000000D+00 -.802299660421320D+03
 0.133747291216138D+03 0.411679435142562D+02 -.231249855952754D+02 -.581148652926733D+01
 0.159517664570440D+03 -.259454866281944D+02 0.652284192320546D+02 0.110465917884753D+03
 0.117392762772703D+03 -.522178811073086D+02 0.100897790724646D+02 -.104654431355485D+03
 0.598684784831667D+03 0.369954242212468D+02 -.521932127092438D+02 -.595256817451692D+03
0.411449523422D-06 0.000000000000D+00 0.000000000000D+00 0.701402569166D-06 0.000000000000D+00  6 4 21 25 23 4 21 2 0.67951172D-01 0.14328681D-01 0.20535617D+05 0.20535617D+05 0.20535617D+05 0.12325644D+01  1  2  2  2  6  2       21 0.224377320585D-03 0.100000000000D+01
0.293768844967D-07 0.217127878761D-07 -.830598043927D-09 0.701402569166D-06 0.000000000000D+00  6 4 21 25 23 4 21 4 0.67951172D-01 0.14328681D-01 0.20535617D+05 0.20535617D+05 0.20535617D+05 0.12325644D+01  1  2  3  2  6  2       21 0.243381407941D-04 0.100000000000D+01
0.298871216512D-07 0.000000000000D+00 0.000000000000D+00 0.701402569166D-06 0.000000000000D+00  6 4 21 25 23 4 21 4 0.67951172D-01 0.14328681D-01 0.20535617D+05 0.20535617D+05 0.20535617D+05 0.12325644D+01  1  2 15  2  6  2       21 0.247608617162D-04 0.100000000000D+01
-.106976891010D-03 0.000000000000D+00 -.181077401654D-05 0.701402569166D-06 0.000000000000D+00  6 4 21 25 23 4 21 4 0.67951172D-01 0.57067859D-01 0.20535617D+05 0.20535617D+05 0.20535617D+05 0.12325644D+01  1  2  5  2  6  2       21 -.611878526845D-02 0.100000000000D+01
-.435677442856D-04 0.000000000000D+00 -.713486587861D-06 0.701402569166D-06 0.000000000000D+00  6 4 -1 25 23 4 -1 4 0.67951172D-01 0.57067859D-01 0.20535617D+05 0.20535617D+05 0.20535617D+05 0.12325644D+01  1  2  5  5  6  2       21 -.252765800258D-03 0.100000000000D+01
-.435677442856D-04 0.000000000000D+00 -.713486587861D-06 0.701402569166D-06 0.000000000000D+00  6 4 -3 25 23 4 -3 4 0.67951172D-01 0.57067859D-01 0.20535617D+05 0.20535617D+05 0.20535617D+05 0.12325644D+01  1  2  5  5  6  2       21 -.126547020694D-03 0.100000000000D+01
-.435677442856D-04 0.000000000000D+00 -.713486587861D-06 0.701402569166D-06 0.000000000000D+00  6 4 1 25 23 4 1 4 0.67951172D-01 0.57067859D-01 0.20535617D+05 0.20535617D+05 0.20535617D+05 0.12325644D+01  1  2  5  6  6  2       21 -.623767254238D-03 0.100000000000D+01
-.435677442856D-04 0.000000000000D+00 -.713486587861D-06 0.701402569166D-06 0.000000000000D+00  6 4 3 25 23 4 3 4 0.67951172D-01 0.57067859D-01 0.20535617D+05 0.20535617D+05 0.20535617D+05 0.12325644D+01  1  2  5  6  6  2       21 -.126622033265D-03 0.100000000000D+01
-.435677442856D-04 0.000000000000D+00 -.713486587861D-06 0.701402569166D-06 0.000000000000D+00  6 4 -4 25 23 4 -4 4 0.67951172D-01 0.57067859D-01 0.20535617D+05 0.20535617D+05 0.20535617D+05 0.12325644D+01  1  2  5  7  6  2       21 -.103420068945D-03 0.100000000000D+01
-.435677442856D-04 0.000000000000D+00 -.713486587861D-06 0.701402569166D-06 0.000000000000D+00  6 4 4 25 23 4 4 4 0.67951172D-01 0.57067859D-01 0.20535617D+05 0.20535617D+05 0.20535617D+05 0.12325644D+01  1  2  5  8  6  2       21 -.103420068945D-03 0.100000000000D+01
-.435677442856D-04 0.000000000000D+00 -.713486587861D-06 0.701402569166D-06 0.000000000000D+00  6 4 -2 25 23 4 -2 4 0.67951172D-01 0.57067859D-01 0.20535617D+05 0.20535617D+05 0.20535617D+05 0.12325644D+01  1  2  5  9  6  2       21 -.202695637079D-03 0.100000000000D+01
-.435677442856D-04 0.000000000000D+00 -.713486587861D-06 0.701402569166D-06 0.000000000000D+00  6 4 2 25 23 4 2 4 0.67951172D-01 0.57067859D-01 0.20535617D+05 0.20535617D+05 0.20535617D+05 0.12325644D+01  1  2  5 10  6  2       21 -.916454029011D-03 0.100000000000D+01
  </mgrwgt>
  </event>
  <event>
  5     66 -.49447450E-03 0.70590622E+02 0.75467711E-02 0.11789099E+00
        2 -1    0    0  502    0 0.00000000E+00 0.00000000E+00 0.31180849E+03 0.31180866E+03 0.32000000E+00 0.0000E+00 0.9000E+01
       21 -1    0    0  501  502 0.00000000E+00 0.00000000E+00 -.99612324E+02 0.99615147E+02 0.75000000E+00 0.0000E+00 0.9000E+01
       25  1    1    2    0    0 -.31041227E+02 0.35499828E+02 0.12163871E+03 0.18067864E+03 0.12500000E+03 0.0000E+00 0.9000E+01
       23  1    1    2    0    0 0.10035330E+03 -.22128542E+02 0.37431141E+02 0.14239663E+03 0.91188000E+02 0.0000E+00 0.9000E+01
        2  1    1    2  501    0 -.69312078E+02 -.13371286E+02 0.53126322E+02 0.88348536E+02 0.32000000E+00 0.0000E+00 0.9000E+01
#aMCatNLO 1  0  0  5  2 0.14154301D+02 0.00000000D+00  -5  6  0 0.00000000D+00 0.00000000D+00 0.00000000D+00 0.00000000D+00 0.00000000D+00
  <mgrwgt>
 -.3355385418D-01    7    2    0
 0.176240128574500D+03 0.000000000000000D+00 0.000000000000000D+00 0.176240128574500D+03
 0.176240128574500D+03 -.000000000000000D+00 -.000000000000000D+00 -.176240128574500D+03
 0.137665029985636D+03 -.310409531648591D+02 0.354998805407743D+02 0.332096098916258D+02
 0.143675249383812D+03 0.100353590602854D+03 -.221284869061618D+02 -.420334731120239D+02
 0.711399777795510D+02 -.693126374379951D+02 -.133713936346125D+02 0.882386322039818D+01
 0.000000000000000D+00 0.000000000000000D+00 -.000000000000000D+00 0.000000000000000D+00
 0.176240128574500D+03 0.000000000000000D+00 0.000000000000000D+00 0.176240128574500D+03
 0.176240128574500D+03 -.000000000000000D+00 -.000000000000000D+00 -.176240128574500D+03
 0.138141271126222D+03 -.332605074365540D+02 0.350716969517893D+02 0.334921708217477D+02
 0.142062132000824D+03 0.980541158523553D+02 -.225720882922622D+02 -.417407378846953D+02
 0.364619824826406D+02 -.329793988015966D+02 0.232455860897972D+01 0.153763405439349D+02
 0.358148715393130D+02 -.318142096142048D+02 -.148241672685067D+02 -.712777348098737D+01
0.175035725630D-05 0.000000000000D+00 0.000000000000D+00 0.945342700013D-07 0.000000000000D+00  6 2 21 25 23 2 21 2 0.47970767D-01 0.15325203D-01 0.29169063D+05 0.29169063D+05 0.29169063D+05 0.12161808D+01  1  2  2  3  6  5        2 0.127078167444D-01 0.100000000000D+01
-.116440839879D-06 0.923688901072D-07 -.353346700020D-08 0.945342700013D-07 0.000000000000D+00  6 2 21 25 23 2 21 4 0.47970767D-01 0.15325203D-01 0.29169063D+05 0.29169063D+05 0.29169063D+05 0.12161808D+01  1  2  3  3  6  5        2 -.125039104239D-02 0.100000000000D+01
0.131771750851D-06 0.000000000000D+00 0.000000000000D+00 0.945342700013D-07 0.000000000000D+00  6 2 21 25 23 2 21 4 0.47970767D-01 0.15325203D-01 0.29169063D+05 0.29169063D+05 0.29169063D+05 0.12161808D+01  1  2 15  3  6  5        2 0.141502085587D-02 0.100000000000D+01
0.146761811324D-05 0.000000000000D+00 0.000000000000D+00 0.946855031256D-07 0.000000000000D+00  6 2 21 25 23 2 21 4 0.47970767D-01 0.15325203D-01 0.28556095D+05 0.28556095D+05 0.28556095D+05 0.12171532D+01  1  2 12  3  6  5        2 0.158102904242D-01 0.100000000000D+01
-.683545409211D-05 0.000000000000D+00 0.000000000000D+00 0.945342700013D-07 0.000000000000D+00  6 2 21 25 23 2 21 4 0.47970767D-01 0.15325203D-01 0.29169063D+05 0.29169063D+05 0.29169063D+05 0.12161808D+01  1  2  4  3  6  5        2 -.734020003317D-01 0.100000000000D+01
-.133766419603D-05 0.000000000000D+00 0.000000000000D+00 0.945342700013D-07 0.000000000000D+00  6 2 21 25 23 2 21 4 0.47970767D-01 0.15325203D-01 0.29169063D+05 0.29169063D+05 0.29169063D+05 0.12161808D+01  1  2  5  3  6  5        2 -.143644045352D-01 0.100000000000D+01
0.237742662055D-05 0.000000000000D+00 -.000000000000D+00 0.945342700013D-07 0.000000000000D+00  6 2 21 25 23 2 21 4 0.47970767D-01 0.15325203D-01 0.29169063D+05 0.29169063D+05 0.29169063D+05 0.12161808D+01  1  2  6  3  6  5        2 0.255298137093D-01 0.100000000000D+01
  </mgrwgt>
  </event>
  <event>
  6     66 0.49447450E-03 0.68705215E+02 0.75467711E-02 0.11021780E+00
        2 -1    0    0  502    0 0.00000000E+00 0.00000000E+00 0.17137988E+03 0.17138017E+03 0.32000000E+00 0.0000E+00 0.9000E+01
       21 -1    0    0  503  502 0.00000000E+00 0.00000000E+00 -.11116558E+04 0.11116560E+04 0.75000000E+00 0.0000E+00 0.9000E+01
       25  1    1    2    0    0 -.17059731E+02 0.12030903E+03 -.81582027E+02 0.19247318E+03 0.12500000E+03 0.0000E+00 0.9000E+01
       23  1    1    2    0    0 0.10938564E+03 -.13763389E+03 -.29496946E+02 0.20023393E+03 0.91188000E+02 0.0000E+00 0.9000E+01
        2  1    1    2  501    0 -.25974135E+02 -.58337925E+02 -.96008073E+01 0.64577450E+02 0.32000000E+00 0.0000E+00 0.9000E+01
       21  1    1    2  503  501 -.66351771E+02 0.75662785E+02 -.81959611E+03 0.82575163E+03 0.75000000E+00 0.0000E+00 0.9000E+01
#aMCatNLO 2  0  0  2  1 0.17463067D+02 0.00000000D+00  -5  6  0 0.00000000D+00 0.00000000D+00 0.00000000D+00 0.00000000D+00 0.00000000D+00
  <mgrwgt>
 0.1716088228D-01    1    2    0
 0.214719669133575D+03 0.000000000000000D+00 0.000000000000000D+00 0.214719669133575D+03
 0.214719669133575D+03 0.000000000000000D+00 0.000000000000000D+00 -.214719669133575D+03
 0.205860638950899D+03 -.462589245336442D+02 0.153606294341750D+03 -.319189741197712D+02
 0.163777432604680D+03 0.816945287617480D+02 -.106056464214132D+03 0.242038520771565D+02
 0.598012667115718D+02 -.354356042281037D+02 -.475498301276178D+02 0.771512204261465D+01
 0.000000000000000D+00 -.000000000000000D+00 0.000000000000000D+00 -.000000000000000D+00
 0.224569350593392D+03 0.000000000000000D+00 0.000000000000000D+00 0.224569350593392D+03
 0.848358913471676D+03 0.000000000000000D+00 0.000000000000000D+00 -.848358913471676D+03
 0.177226351940405D+03 -.170594593556760D+02 0.120309325323259D+03 -.319189741197712D+02
 0.199522799421470D+03 0.109385817493621D+03 -.137633617335517D+03 0.242038520771565D+02
 0.643240396542424D+02 -.259745871559746D+02 -.583384932217553D+02 0.771512204261465D+01
 0.631855073048950D+03 -.663517709819699D+02 0.756627852340135D+02 -.623789562878284D+03
0.179002137670D-03 0.000000000000D+00 0.000000000000D+00 0.661033114427D-07 0.107672490998D-08  6 2 21 25 23 2 21 4 0.26366152D-01 0.17102384D+00 0.72057976D+05 0.72057976D+05 0.72057976D+05 0.11768762D+01  1  2  1  2  6  2       21 0.171608822777D-01 0.100000000000D+01
  </mgrwgt>
  </event>
  <event>
  5     66 0.49447450E-03 0.42738764E+02 0.75467711E-02 0.11185921E+00
        2 -1    0    0  502    0 0.00000000E+00 0.00000000E+00 0.17962673E+04 0.17962674E+04 0.32000000E+00 0.0000E+00 0.9000E+01
       21 -1    0    0  501  502 0.00000000E+00 0.00000000E+00 -.17494365E+02 0.17510434E+02 0.75000000E+00 0.0000E+00 0.9000E+01
       25  1    1    2    0    0 -.44135278E+02 -.75380989E+02 0.82026604E+03 0.83432104E+03 0.12500000E+03 0.0000E+00 0.9000E+01
       23  1    1    2    0    0 0.73533855E+02 0.10640096E+03 0.78166732E+03 0.79752583E+03 0.91188000E+02 0.0000E+00 0.9000E+01
        2  1    1    2  501    0 -.29398578E+02 -.31019975E+02 0.17683962E+03 0.18193095E+03 0.32000000E+00 0.0000E+00 0.9000E+01
#aMCatNLO 1  0  0  2  5 0.18168973D+02 0.00000000D+00  -5  6  0 0.00000000D+00 0.00000000D+00 0.00000000D+00 0.00000000D+00 0.00000000D+00
  <mgrwgt>
 0.3395436484D-01   14    2    0
 0.177310901469712D+03 0.000000000000000D+00 0.000000000000000D+00 0.177310901469712D+03
 0.177310901469712D+03 0.000000000000000D+00 0.000000000000000D+00 -.177310901469712D+03
 0.152855286148848D+03 -.441349347810747D+02 -.753806271016442D+02 0.104693406324977D+02
 0.158270257701375D+03 0.735342103491554D+02 0.106401338312374D+03 -.238709918549838D+01
 0.434962590892026D+02 -.293992755680807D+02 -.310207112107298D+02 -.808224144699934D+01
 0.000000000000000D+00 0.000000000000000D+00 0.000000000000000D+00 -.000000000000000D+00
 0.240549030838952D+03 0.000000000000000D+00 0.000000000000000D+00 0.240549030838952D+03
 0.244048562095075D+03 0.000000000000000D+00 0.000000000000000D+00 -.244048562095075D+03
 0.176254098961429D+03 -.949212795975881D+02 -.795037797024916D+02 0.104693406324977D+02
 0.140060393612731D+03 0.274974699447563D+02 0.102663788255981D+03 -.238709918549838D+01
 0.557253284403226D+02 -.447106036112717D+02 -.322637804308479D+02 -.808224144699934D+01
 0.112557771919545D+03 0.112134413264104D+03 0.910377187735817D+01 -.349953125612306D+01
0.132705636017D-05 0.000000000000D+00 0.000000000000D+00 0.154976752674D-06 0.000000000000D+00  6 2 21 25 23 2 21 2 0.27635006D+00 0.26926791D-02 0.31238327D+05 0.31238327D+05 0.31238327D+05 0.12130590D+01  1  2  2  2  6  2       21 0.181901352270D-01 0.100000000000D+01
0.100499345754D-07 0.700306881109D-07 -.267894444930D-08 0.154976752674D-06 0.000000000000D+00  6 2 21 25 23 2 21 4 0.27635006D+00 0.26926791D-02 0.31238327D+05 0.31238327D+05 0.31238327D+05 0.12130590D+01  1  2  3  2  6  2       21 0.202709299635D-03 0.100000000000D+01
0.152018987752D-06 0.000000000000D+00 0.000000000000D+00 0.154976752674D-06 0.000000000000D+00  6 2 21 25 23 2 21 4 0.27635006D+00 0.26926791D-02 0.31238327D+05 0.31238327D+05 0.31238327D+05 0.12130590D+01  1  2 15  2  6  2       21 0.306625503950D-02 0.100000000000D+01
-.187888881794D-06 0.000000000000D+00 0.000000000000D+00 0.154976752674D-06 0.000000000000D+00  6 2 21 25 23 2 21 4 0.27635006D+00 0.26926791D-02 0.31238327D+05 0.31238327D+05 0.31238327D+05 0.12130590D+01  1  2  4  2  6  2       21 -.378975836629D-02 0.100000000000D+01
-.189210538926D-05 0.000000000000D+00 -.190371778693D-05 0.154976752674D-06 0.000000000000D+00  6 2 21 25 23 2 21 4 0.27635006D+00 0.53836460D-02 0.31238327D+05 0.31238327D+05 0.31238327D+05 0.12130590D+01  1  2  5  2  6  2       21 -.119978467978D-01 0.100000000000D+01
0.144929841454D-05 0.000000000000D+00 0.846635011057D-06 0.154976752674D-06 0.000000000000D+00  6 2 21 25 23 2 21 4 0.27635006D+00 0.26926791D-02 0.31238327D+05 0.31238327D+05 0.31238327D+05 0.12130590D+01  1  2  6  2  6  2       21 0.292326546377D-01 0.100000000000D+01
-.363492249094D-06 0.000000000000D+00 -.469844475914D-06 0.154976752674D-06 0.000000000000D+00  6 2 -1 25 23 2 -1 4 0.27635006D+00 0.53836460D-02 0.31238327D+05 0.31238327D+05 0.31238327D+05 0.12130590D+01  1  2  5  5  6  2       21 -.134905647812D-03 0.100000000000D+01
-.363492249094D-06 0.000000000000D+00 -.469844475914D-06 0.154976752674D-06 0.000000000000D+00  6 2 -3 25 23 2 -3 4 0.27635006D+00 0.53836460D-02 0.31238327D+05 0.31238327D+05 0.31238327D+05 0.12130590D+01  1  2  5  5  6  2       21 -.962170382487D-04 0.100000000000D+01
-.363492249094D-06 0.000000000000D+00 -.469844475914D-06 0.154976752674D-06 0.000000000000D+00  6 2 1 25 23 2 1 4 0.27635006D+00 0.53836460D-02 0.31238327D+05 0.31238327D+05 0.31238327D+05 0.12130590D+01  1  2  5  6  6  2       21 -.153258511178D-03 0.100000000000D+01
-.363492249094D-06 0.000000000000D+00 -.469844475914D-06 0.154976752674D-06 0.000000000000D+00  6 2 3 25 23 2 3 4 0.27635006D+00 0.53836460D-02 0.31238327D+05 0.31238327D+05 0.31238327D+05 0.12130590D+01  1  2  5  6  6  2       21 -.962075455828D-04 0.100000000000D+01
-.363492249094D-06 0.000000000000D+00 -.469844475914D-06 0.154976752674D-06 0.000000000000D+00  6 2 -2 25 23 2 -2 4 0.27635006D+00 0.53836460D-02 0.31238327D+05 0.31238327D+05 0.31238327D+05 0.12130590D+01  1  2  5  7  6  2       21 -.131680141466D-03 0.100000000000D+01
-.363492249094D-06 0.000000000000D+00 -.469844475914D-06 0.154976752674D-06 0.000000000000D+00  6 2 2 25 23 2 2 4 0.27635006D+00 0.53836460D-02 0.31238327D+05 0.31238327D+05 0.31238327D+05 0.12130590D+01  1  2  5  8  6  2       21 -.165605156423D-03 0.100000000000D+01
-.363492249094D-06 0.000000000000D+00 -.469844475914D-06 0.154976752674D-06 0.000000000000D+00  6 2 -4 25 23 2 -4 4 0.27635006D+00 0.53836460D-02 0.31238327D+05 0.31238327D+05 0.31238327D+05 0.12130590D+01  1  2  5  9  6  2       21 -.859550801658D-04 0.100000000000D+01
-.363492249094D-06 0.000000000000D+00 -.469844475914D-06 0.154976752674D-06 0.000000000000D+00  6 2 4 25 23 2 4 4 0.27635006D+00 0.53836460D-02 0.31238327D+05 0.31238327D+05 0.31238327D+05 0.12130590D+01  1  2  5 10  6  2       21 -.859550801658D-04 0.100000000000D+01
  </mgrwgt>
  </event>
  <event>
  6     66 -.49447450E-03 0.17142401E+02 0.75467711E-02 0.11714933E+00
        2 -1    0    0  502    0 0.00000000E+00 0.00000000E+00 0.11311176E+04 0.11311176E+04 0.32000000E+00 0.0000E+00 0.9000E+01
       21 -1    0    0  501  502 0.00000000E+00 0.00000000E+00 -.33295693E+02 0.33304139E+02 0.75000000E+00 0.0000E+00 0.9000E+01
       25  1    1    2    0    0 -.10232549E+03 0.65469786E+02 0.56302254E+03 0.58938628E+03 0.12500000E+03 0.0000E+00 0.9000E+01
       23  1    1    2    0    0 0.11349330E+03 -.44852062E+02 0.51081199E+03 0.53304463E+03 0.91188000E+02 0.0000E+00 0.9000E+01
        2  1    1    2  503    0 -.11456239E+02 -.15916558E+02 0.22564629E+01 0.19742752E+02 0.32000000E+00 0.0000E+00 0.9000E+01
       21  1    1    2  501  503 0.28843134E+00 -.47011659E+01 0.21730903E+02 0.22248119E+02 0.75000000E+00 0.0000E+00 0.9000E+01
#aMCatNLO 2  0  0  5  2 0.53100825D+01 0.00000000D+00  -5  6  0 0.00000000D+00 0.00000000D+00 0.00000000D+00 0.00000000D+00 0.00000000D+00
  <mgrwgt>
 -.3668014458D-01    1    2    0
 0.194078047210381D+03 0.000000000000000D+00 0.000000000000000D+00 0.194078047210381D+03
 0.194078047210381D+03 -.000000000000000D+00 -.000000000000000D+00 -.194078047210381D+03
 0.176065977096559D+03 -.101763023584527D+03 0.665081990908766D+02 0.243962041225567D+02
 0.154787873857114D+03 0.113987601603315D+03 -.439394929368186D+02 0.268362104326420D+02
 0.573022434670877D+02 -.122245780187885D+02 -.225687061540580D+02 -.512324145551987D+02
 0.000000000000000D+00 0.000000000000000D+00 0.000000000000000D+00 0.000000000000000D+00
 0.194078047210381D+03 0.000000000000000D+00 0.000000000000000D+00 0.194078047210381D+03
 0.194078047210381D+03 -.000000000000000D+00 -.000000000000000D+00 -.194078047210381D+03
 0.175686716303371D+03 -.102333122810632D+03 0.654556963465822D+02 0.220069551976031D+02
 0.154334610575330D+03 0.113486594809471D+03 -.448644389835525D+02 0.247365234154071D+02
 0.528178856335544D+02 -.114530129909869D+02 -.158216328074198D+02 -.490737554252239D+02
 0.531688190850561D+01 0.299540992148039D+00 -.476962455560986D+01 0.233027681221366D+01
-.234363810972D-05 0.000000000000D+00 0.000000000000D+00 0.682235093701D-06 0.000000000000D+00  6 2 21 25 23 2 21 4 0.17401874D+00 0.51230676D-02 0.31060220D+05 0.31060220D+05 0.31060220D+05 0.12133185D+01  1  2  8  3  6  5        2 -.366801445799D-01 0.100000000000D+01
  </mgrwgt>
  </event>
  <event>
  5     66 0.49447450E-03 0.13502590E+03 0.75467711E-02 0.11080185E+00
        2 -1    0    0  502    0 0.00000000E+00 0.00000000E+00 0.10259656E+04 0.10259657E+04 0.32000000E+00 0.0000E+00 0.9000E+01
       21 -1    0    0  501  502 0.00000000E+00 0.00000000E+00 -.77707868E+02 0.77711487E+02 0.75000000E+00 0.0000E+00 0.9000E+01
       25  1    1    2    0    0 0.17437626E+03 0.39880074E+02 0.69680825E+03 0.73018096E+03 0.12500000E+03 0.0000E+00 0.9000E+01
       23  1    1    2    0    0 -.26012459E+02 0.66933999E+01 0.17739595E+03 0.20126108E+03 0.91188000E+02 0.0000E+00 0.9000E+01
        2  1    1    2  501    0 -.14836380E+03 -.46573474E+02 0.74053567E+02 0.17223512E+03 0.32000000E+00 0.0000E+00 0.9000E+01
#aMCatNLO 1  0  0  2  5 0.47955160D+02 0.00000000D+00  -5  6  0 0.00000000D+00 0.00000000D+00 0.00000000D+00 0.00000000D+00 0.00000000D+00
  <mgrwgt>
 0.2804672660D-01   32    2    0
 0.282360808594621D+03 0.000000000000000D+00 0.000000000000000D+00 0.282360808594621D+03
 0.282360808594621D+03 0.000000000000000D+00 0.000000000000000D+00 -.282360808594621D+03
 0.256994371387934D+03 0.174376333941452D+03 0.398800984192281D+02 0.135733484580228D+03
 0.954632732231338D+02 -.260124308429552D+02 0.669340884734947D+01 0.874853759878719D+01
 0.212263972578174D+03 -.148363903098497D+03 -.465735072665775D+02 -.144482022179015D+03
 0.000000000000000D+00 -.000000000000000D+00 -.000000000000000D+00 -.000000000000000D+00
 0.290910178325273D+03 0.000000000000000D+00 0.000000000000000D+00 0.290910178325273D+03
 0.359696481969485D+03 0.000000000000000D+00 0.000000000000000D+00 -.359696481969485D+03
 0.268595236928240D+03 0.186105506905612D+03 0.588180479415222D+02 0.135733484580228D+03
 0.951269847390881D+02 -.217591768486752D+02 0.135607224844911D+02 0.874853759878719D+01
 0.203031871687316D+03 -.139096069960981D+03 -.316096426637081D+02 -.144482022179015D+03
 0.838525669401143D+02 -.252502600959564D+02 -.407691277623052D+02 -.687863036442120D+02
0.157256772529D-05 0.000000000000D+00 0.000000000000D+00 0.112288847490D-06 0.000000000000D+00  6 2 21 25 23 2 21 2 0.15784115D+00 0.11955339D-01 0.54940931D+05 0.54940931D+05 0.54940931D+05 0.11882498D+01  1  2  2  2  6  2       21 0.418469367888D-02 0.100000000000D+01
-.695364812791D-07 0.829866787938D-07 -.317456116051D-08 0.112288847490D-06 0.000000000000D+00  6 2 21 25 23 2 21 4 0.15784115D+00 0.11955339D-01 0.54940931D+05 0.54940931D+05 0.54940931D+05 0.11882498D+01  1  2  3  2  6  2       21 -.261265758433D-03 0.100000000000D+01
0.145108740896D-06 0.000000000000D+00 0.000000000000D+00 0.112288847490D-06 0.000000000000D+00  6 2 21 25 23 2 21 4 0.15784115D+00 0.11955339D-01 0.54940931D+05 0.54940931D+05 0.54940931D+05 0.11882498D+01  1  2 15  2  6  2       21 0.545209428894D-03 0.100000000000D+01
0.561150138984D-05 0.000000000000D+00 0.000000000000D+00 0.110733244213D-06 0.000000000000D+00  6 2 21 25 23 2 21 4 0.15784115D+00 0.15375674D-01 0.66847297D+05 0.66847297D+05 0.66847297D+05 0.11799903D+01  1  2 12  2  6  2       21 0.129119155937D-01 0.100000000000D+01
0.410059509731D-05 0.000000000000D+00 0.000000000000D+00 0.110733244213D-06 0.000000000000D+00  6 2 21 25 23 2 21 4 0.15784115D+00 0.16712106D-01 0.66847297D+05 0.66847297D+05 0.66847297D+05 0.11799903D+01  1  2 12  2  6  2       21 0.809165645736D-02 0.100000000000D+01
-.366243113088D-05 0.000000000000D+00 0.000000000000D+00 0.112288847490D-06 0.000000000000D+00  6 2 21 25 23 2 21 4 0.15784115D+00 0.11955339D-01 0.54940931D+05 0.54940931D+05 0.54940931D+05 0.11882498D+01  1  2  4  2  6  2       21 -.137606595778D-01 0.100000000000D+01
-.148040806608D-04 0.000000000000D+00 -.242354456745D-05 0.112288847490D-06 0.000000000000D+00  6 2 21 25 23 2 21 4 0.15784115D+00 0.15647563D-01 0.54940931D+05 0.54940931D+05 0.54940931D+05 0.11882498D+01  1  2  5  2  6  2       21 -.341195883279D-01 0.100000000000D+01
0.135163076432D-04 0.000000000000D+00 0.210549515379D-05 0.112288847490D-06 0.000000000000D+00  6 2 21 25 23 2 21 4 0.15784115D+00 0.11955339D-01 0.54940931D+05 0.54940931D+05 0.54940931D+05 0.11882498D+01  1  2  6  2  6  2       21 0.507841107669D-01 0.100000000000D+01
0.425628727077D-06 0.000000000000D+00 0.000000000000D+00 0.110733244213D-06 0.000000000000D+00  6 2 -1 25 23 2 -1 4 0.15784115D+00 0.15375674D-01 0.66847297D+05 0.66847297D+05 0.66847297D+05 0.11799903D+01  1  2 12  5  6  2       21 0.736871063465D-04 0.100000000000D+01
0.425628727077D-06 0.000000000000D+00 0.000000000000D+00 0.110733244213D-06 0.000000000000D+00  6 2 -3 25 23 2 -3 4 0.15784115D+00 0.15375674D-01 0.66847297D+05 0.66847297D+05 0.66847297D+05 0.11799903D+01  1  2 12  5  6  2       21 0.469364778304D-04 0.100000000000D+01
0.442080368415D-06 0.000000000000D+00 0.000000000000D+00 0.110733244213D-06 0.000000000000D+00  6 2 -1 25 23 2 -1 4 0.15784115D+00 0.16712106D-01 0.66847297D+05 0.66847297D+05 0.66847297D+05 0.11799903D+01  1  2 12  5  6  2       21 0.669821446754D-04 0.100000000000D+01
0.442080368415D-06 0.000000000000D+00 0.000000000000D+00 0.110733244213D-06 0.000000000000D+00  6 2 -3 25 23 2 -3 4 0.15784115D+00 0.16712106D-01 0.66847297D+05 0.66847297D+05 0.66847297D+05 0.11799903D+01  1  2 12  5  6  2       21 0.421538759643D-04 0.100000000000D+01
-.107237007638D-05 0.000000000000D+00 -.199656852808D-06 0.112288847490D-06 0.000000000000D+00  6 2 -1 25 23 2 -1 4 0.15784115D+00 0.15647563D-01 0.54940931D+05 0.54940931D+05 0.54940931D+05 0.11882498D+01  1  2  5  5  6  2       21 -.185922286550D-03 0.100000000000D+01
-.107237007638D-05 0.000000000000D+00 -.199656852808D-06 0.112288847490D-06 0.000000000000D+00  6 2 -3 25 23 2 -3 4 0.15784115D+00 0.15647563D-01 0.54940931D+05 0.54940931D+05 0.54940931D+05 0.11882498D+01  1  2  5  5  6  2       21 -.117678028905D-03 0.100000000000D+01
0.425628727077D-06 0.000000000000D+00 0.000000000000D+00 0.110733244213D-06 0.000000000000D+00  6 2 1 25 23 2 1 4 0.15784115D+00 0.15375674D-01 0.66847297D+05 0.66847297D+05 0.66847297D+05 0.11799903D+01  1  2 12  6  6  2       21 0.102161815272D-03 0.100000000000D+01
0.425628727077D-06 0.000000000000D+00 0.000000000000D+00 0.110733244213D-06 0.000000000000D+00  6 2 3 25 23 2 3 4 0.15784115D+00 0.15375674D-01 0.66847297D+05 0.66847297D+05 0.66847297D+05 0.11799903D+01  1  2 12  6  6  2       21 0.469315987323D-04 0.100000000000D+01
0.442080368415D-06 0.000000000000D+00 0.000000000000D+00 0.110733244213D-06 0.000000000000D+00  6 2 1 25 23 2 1 4 0.15784115D+00 0.16712106D-01 0.66847297D+05 0.66847297D+05 0.66847297D+05 0.11799903D+01  1  2 12  6  6  2       21 0.951204524317D-04 0.100000000000D+01
0.442080368415D-06 0.000000000000D+00 0.000000000000D+00 0.110733244213D-06 0.000000000000D+00  6 2 3 25 23 2 3 4 0.15784115D+00 0.16712106D-01 0.66847297D+05 0.66847297D+05 0.66847297D+05 0.11799903D+01  1  2 12  6  6  2       21 0.421497733386D-04 0.100000000000D+01
-.107237007638D-05 0.000000000000D+00 -.199656852808D-06 0.112288847490D-06 0.000000000000D+00  6 2 1 25 23 2 1 4 0.15784115D+00 0.15647563D-01 0.54940931D+05 0.54940931D+05 0.54940931D+05 0.11882498D+01  1  2  5  6  6  2       21 -.259078163450D-03 0.100000000000D+01
-.107237007638D-05 0.000000000000D+00 -.199656852808D-06 0.112288847490D-06 0.000000000000D+00  6 2 3 25 23 2 3 4 0.15784115D+00 0.15647563D-01 0.54940931D+05 0.54940931D+05 0.54940931D+05 0.11882498D+01  1  2  5  6  6  2       21 -.117665645234D-03 0.100000000000D+01
0.425628727077D-06 0.000000000000D+00 0.000000000000D+00 0.110733244213D-06 0.000000000000D+00  6 2 -2 25 23 2 -2 4 0.15784115D+00 0.15375674D-01 0.66847297D+05 0.66847297D+05 0.66847297D+05 0.11799903D+01  1  2 12  7  6  2       21 0.688281897249D-04 0.100000000000D+01
0.442080368415D-06 0.000000000000D+00 0.000000000000D+00 0.110733244213D-06 0.000000000000D+00  6 2 -2 25 23 2 -2 4 0.15784115D+00 0.16712106D-01 0.66847297D+05 0.66847297D+05 0.66847297D+05 0.11799903D+01  1  2 12  7  6  2       21 0.622010647917D-04 0.100000000000D+01
-.107237007638D-05 0.000000000000D+00 -.199656852808D-06 0.112288847490D-06 0.000000000000D+00  6 2 -2 25 23 2 -2 4 0.15784115D+00 0.15647563D-01 0.54940931D+05 0.54940931D+05 0.54940931D+05 0.11882498D+01  1  2  5  7  6  2       21 -.173433199534D-03 0.100000000000D+01
0.425628727077D-06 0.000000000000D+00 0.000000000000D+00 0.110733244213D-06 0.000000000000D+00  6 2 2 25 23 2 2 4 0.15784115D+00 0.15375674D-01 0.66847297D+05 0.66847297D+05 0.66847297D+05 0.11799903D+01  1  2 12  8  6  2       21 0.121976968604D-03 0.100000000000D+01
0.442080368415D-06 0.000000000000D+00 0.000000000000D+00 0.110733244213D-06 0.000000000000D+00  6 2 2 25 23 2 2 4 0.15784115D+00 0.16712106D-01 0.66847297D+05 0.66847297D+05 0.66847297D+05 0.11799903D+01  1  2 12  8  6  2       21 0.114806208107D-03 0.100000000000D+01
-.107237007638D-05 0.000000000000D+00 -.199656852808D-06 0.112288847490D-06 0.000000000000D+00  6 2 2 25 23 2 2 4 0.15784115D+00 0.15647563D-01 0.54940931D+05 0.54940931D+05 0.54940931D+05 0.11882498D+01  1  2  5  8  6  2       21 -.309971551492D-03 0.100000000000D+01
0.425628727077D-06 0.000000000000D+00 0.000000000000D+00 0.110733244213D-06 0.000000000000D+00  6 2 -4 25 23 2 -4 4 0.15784115D+00 0.15375674D-01 0.66847297D+05 0.66847297D+05 0.66847297D+05 0.11799903D+01  1  2 12  9  6  2       21 0.408686083994D-04 0.100000000000D+01
0.442080368415D-06 0.000000000000D+00 0.000000000000D+00 0.110733244213D-06 0.000000000000D+00  6 2 -4 25 23 2 -4 4 0.15784115D+00 0.16712106D-01 0.66847297D+05 0.66847297D+05 0.66847297D+05 0.11799903D+01  1  2 12  9  6  2       21 0.365957730128D-04 0.100000000000D+01
-.107237007638D-05 0.000000000000D+00 -.199656852808D-06 0.112288847490D-06 0.000000000000D+00  6 2 -4 25 23 2 -4 4 0.15784115D+00 0.15647563D-01 0.54940931D+05 0.54940931D+05 0.54940931D+05 0.11882498D+01  1  2  5  9  6  2       21 -.102230611973D-03 0.100000000000D+01
0.425628727077D-06 0.000000000000D+00 0.000000000000D+00 0.110733244213D-06 0.000000000000D+00  6 2 4 25 23 2 4 4 0.15784115D+00 0.15375674D-01 0.66847297D+05 0.66847297D+05 0.66847297D+05 0.11799903D+01  1  2 12 10  6  2       21 0.408686083994D-04 0.100000000000D+01
0.442080368415D-06 0.000000000000D+00 0.000000000000D+00 0.110733244213D-06 0.000000000000D+00  6 2 4 25 23 2 4 4 0.15784115D+00 0.16712106D-01 0.66847297D+05 0.66847297D+05 0.66847297D+05 0.11799903D+01  1  2 12 10  6  2       21 0.365957730128D-04 0.100000000000D+01
-.107237007638D-05 0.000000000000D+00 -.199656852808D-06 0.112288847490D-06 0.000000000000D+00  6 2 4 25 23 2 4 4 0.15784115D+00 0.15647563D-01 0.54940931D+05 0.54940931D+05 0.54940931D+05 0.11882498D+01  1  2  5 10  6  2       21 -.102230611973D-03 0.100000000000D+01
  </mgrwgt>
  </event>
  <event>
  6     66 0.49447450E-03 0.76388998E+02 0.75467711E-02 0.11087319E+00
        2 -1    0    0  503    0 0.00000000E+00 0.00000000E+00 0.43997972E+03 0.43997984E+03 0.32000000E+00 0.0000E+00 0.9000E+01
       21 -1    0    0  501  502 0.00000000E+00 0.00000000E+00 -.21867460E+03 0.21867589E+03 0.75000000E+00 0.0000E+00 0.9000E+01
       25  1    1    2    0    0 0.10093317E+02 -.63029514E+02 0.22552663E+03 0.26563482E+03 0.12500000E+03 0.0000E+00 0.9000E+01
       23  1    1    2    0    0 0.42987647E+02 0.32457049E+02 0.43641044E+02 0.11454776E+03 0.91188000E+02 0.0000E+00 0.9000E+01
        2  1    1    2  501    0 0.13882314E+02 0.13973201E+03 -.53545235E+02 0.15028289E+03 0.32000000E+00 0.0000E+00 0.9000E+01
       21  1    1    2  503  502 -.66963278E+02 -.10915954E+03 0.56826823E+01 0.12819025E+03 0.75000000E+00 0.0000E+00 0.9000E+01
#aMCatNLO 2  0  0  1  2 0.26423727D+02 0.00000000D+00  -5  6  0 0.00000000D+00 0.00000000D+00 0.00000000D+00 0.00000000D+00 0.00000000D+00
  <mgrwgt>
 0.3912835430D-02    1    2    0
 0.233720286709658D+03 0.000000000000000D+00 0.000000000000000D+00 0.233720286709658D+03
 0.233720286709658D+03 0.000000000000000D+00 0.000000000000000D+00 -.233720286709658D+03
 0.210691892884937D+03 -.181163324421158D+02 -.109015306944850D+03 0.128660542039915D+03
 0.961235590943502D+02 0.287749792601717D+02 0.928835884392171D+01 -.319597051429734D+01
 0.160625121440029D+03 -.106586468180559D+02 0.997269481009279D+02 -.125464571525617D+03
 0.000000000000000D+00 -.000000000000000D+00 -.000000000000000D+00 -.000000000000000D+00
 0.285814279733470D+03 0.000000000000000D+00 0.000000000000000D+00 0.285814279733470D+03
 0.336624888172181D+03 0.000000000000000D+00 0.000000000000000D+00 -.336624888172181D+03
 0.190402569520576D+03 0.100933416533941D+02 -.630295792172288D+02 0.128660542039915D+03
 0.105956881995639D+03 0.429876496372114D+02 0.324570061678197D+02 -.319597051429734D+01
 0.188305974923660D+03 0.138822866348147D+02 0.139732113709169D+03 -.125464571525617D+03
 0.137773741465777D+03 -.669632779254202D+02 -.109159540659759D+03 -.508106084387112D+02
0.268174718892D-05 0.000000000000D+00 0.000000000000D+00 0.226783376602D-06 0.166592053699D-09  6 2 21 25 23 2 21 4 0.67689067D-01 0.33642240D-01 0.66240862D+05 0.66240862D+05 0.66240862D+05 0.11803701D+01  1  2  1  1  6  1        2 0.391283543000D-02 0.100000000000D+01
  </mgrwgt>
  </event>
  <event>
  5     66 0.49447450E-03 0.92845635E+02 0.75467711E-02 0.11802987E+00
        2 -1    0    0  502    0 0.00000000E+00 0.00000000E+00 0.21676706E+04 0.21676706E+04 0.32000000E+00 0.0000E+00 0.9000E+01
       21 -1    0    0  501  502 0.00000000E+00 0.00000000E+00 -.20422235E+02 0.20436002E+02 0.75000000E+00 0.0000E+00 0.9000E+01
       25  1    1    2    0    0 -.57233733E+01 0.54796225E+02 0.29553270E+03 0.32557635E+03 0.12500000E+03 0.0000E+00 0.9000E+01
       23  1    1    2    0    0 -.50268147E+02 0.19265897E+02 0.11057341E+04 0.11107930E+04 0.91188000E+02 0.0000E+00 0.9000E+01
        2  1    1    2  501    0 0.55991520E+02 -.74062122E+02 0.74598161E+03 0.75173727E+03 0.32000000E+00 0.0000E+00 0.9000E+01
#aMCatNLO 1  0  0  5  2 0.10839429D+02 0.00000000D+00  -5  6  0 0.00000000D+00 0.00000000D+00 0.00000000D+00 0.00000000D+00 0.00000000D+00
  <mgrwgt>
 0.4789388262D-02    1    2    0
 0.210437082472332D+03 0.000000000000000D+00 0.000000000000000D+00 0.210437082472332D+03
 0.210437082472332D+03 -.000000000000000D+00 -.000000000000000D+00 -.210437082472332D+03
 0.184885929890682D+03 -.572349351157744D+01 0.547963840773483D+02 -.124588944074556D+03
 0.133645429765640D+03 -.502682338396518D+02 0.192660117259234D+02 0.815338887338346D+02
 0.102342805288342D+03 0.559917273512293D+02 -.740623958032717D+02 0.430550553407219D+02
 0.000000000000000D+00 -.000000000000000D+00 0.000000000000000D+00 0.000000000000000D+00
 0.210437082472332D+03 0.000000000000000D+00 0.000000000000000D+00 0.210437082472332D+03
 0.210437082472332D+03 -.000000000000000D+00 -.000000000000000D+00 -.210437082472332D+03
 0.180014277267745D+03 -.336946360381609D+00 0.476713924759579D+02 -.120446937805749D+03
 0.133454415078567D+03 -.463253862333589D+02 0.140506566400289D+02 0.845657566528952D+02
 0.118184722027579D+02 -.393943418201380D+00 0.100493773072414D+02 -.620734319393720D+01
 0.955870003955943D+02 0.470562760119419D+02 -.717714264232282D+02 0.420885243467912D+02
0.468574374498D-06 0.000000000000D+00 0.000000000000D+00 0.455227008145D-07 0.000000000000D+00  6 2 21 25 23 2 21 4 0.33348885D+00 0.31429431D-02 0.28113516D+05 0.28113516D+05 0.28113516D+05 0.12178699D+01  1  2 14  3  6  5        2 0.478938826165D-02 0.100000000000D+01
  </mgrwgt>
  </event>
  <event>
  5     66 -.49447450E-03 0.13337959E+03 0.75467711E-02 0.11420569E+00
        2 -1    0    0  502    0 0.00000000E+00 0.00000000E+00 0.60923383E+02 0.60924224E+02 0.32000000E+00 0.0000E+00 0.9000E+01
       21 -1    0    0  501  502 -.00000000E+00 -.00000000E+00 -.75959886E+03 0.75959923E+03 0.75000000E+00 0.0000E+00 0.9000E+01
       25  1    1    2    0    0 0.71673087E+01 0.95578697E+02 -.29723665E+03 0.33639454E+03 0.12500000E+03 0.0000E+00 0.9000E+01
       23  1    1    2    0    0 -.98104114E+02 0.19945842E+01 -.23867198E+03 0.27369319E+03 0.91188000E+02 0.0000E+00 0.9000E+01
        2  1    1    2  501    0 0.90936805E+02 -.97573281E+02 -.16276684E+03 0.21043573E+03 0.32000000E+00 0.0000E+00 0.9000E+01
#aMCatNLO 1  0  0  5  2 0.18203777D+02 0.00000000D+00  -5  6  0 0.00000000D+00 0.00000000D+00 0.00000000D+00 0.00000000D+00 0.00000000D+00
  <mgrwgt>
 -.9758199327D-02    7    2    0
 0.215122823162045D+03 0.000000000000000D+00 0.000000000000000D+00 0.215122823162045D+03
 0.215122823162045D+03 -.000000000000000D+00 -.000000000000000D+00 -.215122823162045D+03
 0.158857327789511D+03 0.716721711701027D+01 0.955787951168876D+02 -.205906657305125D+02
 0.134382407571641D+03 -.981041912582332D+02 0.199466730206963D+01 -.107223635767844D+02
 0.137005910962939D+03 0.909369741412229D+02 -.975734624189572D+02 0.313130293072969D+02
 0.000000000000000D+00 0.000000000000000D+00 -.000000000000000D+00 0.000000000000000D+00
 0.215122823162045D+03 0.000000000000000D+00 0.000000000000000D+00 0.215122823162045D+03
 0.215122823162045D+03 -.000000000000000D+00 -.000000000000000D+00 -.215122823162045D+03
 0.157777922019520D+03 0.886679179321755D+01 0.937551872020301D+02 -.200054380808287D+02
 0.133284130498812D+03 -.966674615509533D+02 0.453086515779500D+00 -.102276433614312D+02
 0.338124993590875D+02 0.196786688597718D+02 -.140921101762657D+02 0.236103268845590D+02
 0.105371094446671D+03 0.681220008979640D+02 -.801161635415439D+02 0.662275455770093D+01
0.119747723418D-04 0.000000000000D+00 0.000000000000D+00 0.813642768966D-07 0.000000000000D+00  6 2 21 25 23 2 21 2 0.93729213D-02 0.11686146D+00 0.45124543D+05 0.45124543D+05 0.45124543D+05 0.11967199D+01  1  2  2  3  6  5        2 0.807227881135D-02 0.100000000000D+01
-.123043514950D-05 0.631926097664D-06 -.241736152732D-07 0.813642768966D-07 0.000000000000D+00  6 2 21 25 23 2 21 4 0.93729213D-02 0.11686146D+00 0.45124543D+05 0.45124543D+05 0.45124543D+05 0.11967199D+01  1  2  3  3  6  5        2 -.118788017298D-02 0.100000000000D+01
0.128219419033D-05 0.000000000000D+00 0.000000000000D+00 0.813642768966D-07 0.000000000000D+00  6 2 21 25 23 2 21 4 0.93729213D-02 0.11686146D+00 0.45124543D+05 0.45124543D+05 0.45124543D+05 0.11967199D+01  1  2 15  3  6  5        2 0.123784911153D-02 0.100000000000D+01
0.643103535102D-05 0.000000000000D+00 0.000000000000D+00 0.815354286764D-07 0.000000000000D+00  6 2 21 25 23 2 21 4 0.93729213D-02 0.11686146D+00 0.43840502D+05 0.43840502D+05 0.43840502D+05 0.11979779D+01  1  2 12  3  6  5        2 0.624062451967D-02 0.100000000000D+01
-.302937424707D-04 0.000000000000D+00 0.000000000000D+00 0.813642768966D-07 0.000000000000D+00  6 2 21 25 23 2 21 4 0.93729213D-02 0.11686146D+00 0.45124543D+05 0.45124543D+05 0.45124543D+05 0.11967199D+01  1  2  4  3  6  5        2 -.292460241085D-01 0.100000000000D+01
-.590648348310D-05 0.000000000000D+00 0.000000000000D+00 0.813642768966D-07 0.000000000000D+00  6 2 21 25 23 2 21 4 0.93729213D-02 0.11686146D+00 0.45124543D+05 0.45124543D+05 0.45124543D+05 0.11967199D+01  1  2  5  3  6  5        2 -.570220594272D-02 0.100000000000D+01
0.112150338345D-04 0.000000000000D+00 -.000000000000D+00 0.813642768966D-07 0.000000000000D+00  6 2 21 25 23 2 21 4 0.93729213D-02 0.11686146D+00 0.45124543D+05 0.45124543D+05 0.45124543D+05 0.11967199D+01  1  2  6  3  6  5        2 0.108271584543D-01 0.100000000000D+01
  </mgrwgt>
  </event>
  <event>
  5     66 0.49447450E-03 0.45824297E+02 0.75467711E-02 0.10998660E+00
        2 -1    0    0  502    0 0.00000000E+00 0.00000000E+00 0.20644674E+04 0.20644674E+04 0.32000000E+00 0.0000E+00 0.9000E+01
       21 -1    0    0  501  502 0.00000000E+00 0.00000000E+00 -.34400488E+02 0.34408663E+02 0.75000000E+00 0.0000E+00 0.9000E+01
       25  1    1    2    0    0 -.15153716E+03 -.33735916E+02 0.12171511E+04 0.12333626E+04 0.12500000E+03 0.0000E+00 0.9000E+01
       23  1    1    2    0    0 0.18298463E+03 0.40562536E+00 0.78646023E+03 0.81259983E+03 0.91188000E+02 0.0000E+00 0.9000E+01
        2  1    1    2  501    0 -.31447466E+02 0.33330291E+02 0.26455615E+02 0.52913640E+02 0.32000000E+00 0.0000E+00 0.9000E+01
#aMCatNLO 1  0  0  2  1 0.93730197D+02 0.00000000D+00  -5  6  0 0.00000000D+00 0.00000000D+00 0.00000000D+00 0.00000000D+00 0.00000000D+00
  <mgrwgt>
 0.4062865218D-01   14    2    0
 0.266509457080731D+03 0.000000000000000D+00 0.000000000000000D+00 0.266509457080731D+03
 0.266509457080731D+03 0.000000000000000D+00 0.000000000000000D+00 -.266509457080731D+03
 0.220962552488013D+03 -.151537105291860D+03 -.337359770427363D+02 0.953825936675743D+02
 0.204457073887904D+03 0.182984682476546D+03 0.405568823342650D+00 0.197109403401409D+01
 0.107599287785545D+03 -.314475771846866D+02 0.333304082193937D+02 -.973536877015884D+02
 0.000000000000000D+00 -.000000000000000D+00 -.000000000000000D+00 -.000000000000000D+00
 0.282068368816326D+03 0.000000000000000D+00 0.000000000000000D+00 0.282068368816326D+03
 0.462088695363992D+03 0.000000000000000D+00 0.000000000000000D+00 -.462088695363992D+03
 0.197054785414816D+03 -.116026056198109D+03 -.254106978109396D+02 0.953825936675743D+02
 0.238938467423741D+03 0.220651638862763D+03 0.923628314268799D+01 0.197109403401409D+01
 0.105204042614269D+03 -.133696918245864D+02 0.375686227296411D+02 -.973536877015884D+02
 0.202959768727492D+03 -.912558908400684D+02 -.213942080613895D+02 -.180020326547667D+03
0.649550014177D-05 0.000000000000D+00 0.000000000000D+00 0.252740849241D-06 0.000000000000D+00  6 2 21 25 23 2 21 2 0.31761100D+00 0.52930135D-02 0.50532168D+05 0.50532168D+05 0.50532168D+05 0.11918267D+01  1  2  2  2  6  2       21 0.198832862387D-01 0.100000000000D+01
0.651061862219D-06 0.342776959746D-06 -.131125433497D-07 0.252740849241D-06 0.000000000000D+00  6 2 21 25 23 2 21 4 0.31761100D+00 0.52930135D-02 0.50532168D+05 0.50532168D+05 0.50532168D+05 0.11918267D+01  1  2  3  2  6  2       21 0.283089669387D-02 0.100000000000D+01
0.733692266097D-06 0.000000000000D+00 0.000000000000D+00 0.252740849241D-06 0.000000000000D+00  6 2 21 25 23 2 21 4 0.31761100D+00 0.52930135D-02 0.50532168D+05 0.50532168D+05 0.50532168D+05 0.11918267D+01  1  2 15  2  6  2       21 0.319018380732D-02 0.100000000000D+01
-.298796325188D-05 0.000000000000D+00 0.000000000000D+00 0.252740849241D-06 0.000000000000D+00  6 2 21 25 23 2 21 4 0.31761100D+00 0.52930135D-02 0.50532168D+05 0.50532168D+05 0.50532168D+05 0.11918267D+01  1  2  4  2  6  2       21 -.129920300697D-01 0.100000000000D+01
-.552037537633D-04 0.000000000000D+00 -.867447002043D-05 0.252740849241D-06 0.000000000000D+00  6 2 21 25 23 2 21 4 0.31761100D+00 0.97600889D-02 0.50532168D+05 0.50532168D+05 0.50532168D+05 0.11918267D+01  1  2  5  2  6  2       21 -.829484848896D-01 0.100000000000D+01
0.276478340295D-04 0.000000000000D+00 0.451385872948D-05 0.252740849241D-06 0.000000000000D+00  6 2 21 25 23 2 21 4 0.31761100D+00 0.52930135D-02 0.50532168D+05 0.50532168D+05 0.50532168D+05 0.11918267D+01  1  2  6  2  6  2       21 0.120216167601D+00 0.100000000000D+01
-.132297655251D-04 0.000000000000D+00 -.188801125902D-05 0.252740849241D-06 0.000000000000D+00  6 2 -1 25 23 2 -1 4 0.31761100D+00 0.97600889D-02 0.50532168D+05 0.50532168D+05 0.50532168D+05 0.11918267D+01  1  2  5  5  6  2       21 -.133604638709D-02 0.100000000000D+01
-.132297655251D-04 0.000000000000D+00 -.188801125902D-05 0.252740849241D-06 0.000000000000D+00  6 2 -3 25 23 2 -3 4 0.31761100D+00 0.97600889D-02 0.50532168D+05 0.50532168D+05 0.50532168D+05 0.11918267D+01  1  2  5  5  6  2       21 -.899336369707D-03 0.100000000000D+01
-.132297655251D-04 0.000000000000D+00 -.188801125902D-05 0.252740849241D-06 0.000000000000D+00  6 2 1 25 23 2 1 4 0.31761100D+00 0.97600889D-02 0.50532168D+05 0.50532168D+05 0.50532168D+05 0.11918267D+01  1  2  5  6  6  2       21 -.166412926566D-02 0.100000000000D+01
-.132297655251D-04 0.000000000000D+00 -.188801125902D-05 0.252740849241D-06 0.000000000000D+00  6 2 3 25 23 2 3 4 0.31761100D+00 0.97600889D-02 0.50532168D+05 0.50532168D+05 0.50532168D+05 0.11918267D+01  1  2  5  6  6  2       21 -.899232284526D-03 0.100000000000D+01
-.132297655251D-04 0.000000000000D+00 -.188801125902D-05 0.252740849241D-06 0.000000000000D+00  6 2 -2 25 23 2 -2 4 0.31761100D+00 0.97600889D-02 0.50532168D+05 0.50532168D+05 0.50532168D+05 0.11918267D+01  1  2  5  7  6  2       21 -.127924288932D-02 0.100000000000D+01
-.132297655251D-04 0.000000000000D+00 -.188801125902D-05 0.252740849241D-06 0.000000000000D+00  6 2 2 25 23 2 2 4 0.31761100D+00 0.97600889D-02 0.50532168D+05 0.50532168D+05 0.50532168D+05 0.11918267D+01  1  2  5  8  6  2       21 -.188712055975D-02 0.100000000000D+01
-.132297655251D-04 0.000000000000D+00 -.188801125902D-05 0.252740849241D-06 0.000000000000D+00  6 2 -4 25 23 2 -4 4 0.31761100D+00 0.97600889D-02 0.50532168D+05 0.50532168D+05 0.50532168D+05 0.11918267D+01  1  2  5  9  6  2       21 -.793129720321D-03 0.100000000000D+01
-.132297655251D-04 0.000000000000D+00 -.188801125902D-05 0.252740849241D-06 0.000000000000D+00  6 2 4 25 23 2 4 4 0.31761100D+00 0.97600889D-02 0.50532168D+05 0.50532168D+05 0.50532168D+05 0.11918267D+01  1  2  5 10  6  2       21 -.793129720321D-03 0.100000000000D+01
  </mgrwgt>
  </event>
  <event>
  6     66 0.49447450E-03 0.30061278E+02 0.75467711E-02 0.11482031E+00
        2 -1    0    0  502    0 0.00000000E+00 0.00000000E+00 0.37402059E+03 0.37402073E+03 0.32000000E+00 0.0000E+00 0.9000E+01
       21 -1    0    0  501  502 0.00000000E+00 0.00000000E+00 -.35224854E+03 0.35224934E+03 0.75000000E+00 0.0000E+00 0.9000E+01
       25  1    1    2    0    0 0.10828907E+02 0.11719485E+03 0.20725021E+03 0.26912738E+03 0.12500000E+03 0.0000E+00 0.9000E+01
       23  1    1    2    0    0 0.22740181E+02 -.14859592E+03 0.74481239E+02 0.19094651E+03 0.91188000E+02 0.0000E+00 0.9000E+01
        2  1    1    2  503    0 -.17113542E+02 -.36682727E+01 -.59276025E+02 0.61806788E+02 0.32000000E+00 0.0000E+00 0.9000E+01
       21  1    1    2  501  503 -.16455546E+02 0.35069342E+02 -.20068337E+03 0.20438939E+03 0.75000000E+00 0.0000E+00 0.9000E+01
#aMCatNLO 2  0  0  5  2 0.14285677D+02 0.00000000D+00  -5  6  0 0.00000000D+00 0.00000000D+00 0.00000000D+00 0.00000000D+00 0.00000000D+00
  <mgrwgt>
 0.9544419623D-01    1    2    0
 0.362971825529958D+03 0.000000000000000D+00 0.000000000000000D+00 0.362971825529958D+03
 0.362971825529958D+03 -.000000000000000D+00 -.000000000000000D+00 -.362971825529958D+03
 0.263577645502368D+03 0.109248512789863D+02 0.117105103864245D+03 0.200038040087501D+03
 0.189058485719202D+03 0.228090236342158D+02 -.148660317973337D+03 0.693377096489178D+02
 0.273307519838346D+03 -.337338749132019D+02 0.315552141090924D+02 -.269375749736419D+03
 0.000000000000000D+00 0.000000000000000D+00 0.000000000000000D+00 0.000000000000000D+00
 0.362971825529958D+03 0.000000000000000D+00 0.000000000000000D+00 0.362971825529958D+03
 0.362971825529958D+03 -.000000000000000D+00 -.000000000000000D+00 -.362971825529958D+03
 0.263038023349233D+03 0.108298501694064D+02 0.117193969444054D+03 0.199279425929337D+03
 0.188801122700797D+03 0.227408580170711D+02 -.148596554748703D+03 0.687933854563416D+02
 0.632481197903731D+02 -.170093661302018D+02 -.363938841971217D+01 -.608092178275350D+02
 0.210856385219512D+03 -.165613420562755D+02 0.350419737243603D+02 -.207263593558144D+03
0.133558890744D-03 0.000000000000D+00 0.000000000000D+00 0.149157187154D-05 0.211467584095D-07  6 2 21 25 23 2 21 4 0.57541701D-01 0.54192155D-01 0.40735859D+05 0.40735859D+05 0.40735859D+05 0.12011971D+01  1  2  1  3  6  5        2 0.954441962334D-01 0.100000000000D+01
  </mgrwgt>
  </event>
  <event>
  5     66 0.49447450E-03 0.33885422E+02 0.75467711E-02 0.11614896E+00
        2 -1    0    0  502    0 0.00000000E+00 0.00000000E+00 0.29364540E+03 0.29364558E+03 0.32000000E+00 0.0000E+00 0.9000E+01
       21 -1    0    0  501  502 0.00000000E+00 0.00000000E+00 -.13546033E+03 0.13546240E+03 0.75000000E+00 0.0000E+00 0.9000E+01
       25  1    1    2    0    0 -.12772727E+03 0.72444812E+02 0.12281493E+03 0.22862855E+03 0.12500000E+03 0.0000E+00 0.9000E+01
       23  1    1    2    0    0 0.98859524E+02 -.54700989E+02 0.61508757E+02 0.15768317E+03 0.91188000E+02 0.0000E+00 0.9000E+01
        2  1    1    2  501    0 0.28867748E+02 -.17743823E+02 -.26138615E+02 0.42796258E+02 0.32000000E+00 0.0000E+00 0.9000E+01
#aMCatNLO 1  0  0  2  2 0.15096718D+01 0.00000000D+00  -5  6  0 0.00000000D+00 0.00000000D+00 0.00000000D+00 0.00000000D+00 0.00000000D+00
  <mgrwgt>
 0.4552654407D-01   31    2    0
 0.199443689180371D+03 0.000000000000000D+00 0.000000000000000D+00 0.199443689180371D+03
 0.199443689180371D+03 0.000000000000000D+00 0.000000000000000D+00 -.199443689180371D+03
 0.197246041919902D+03 -.127727501742982D+03 0.724449528314597D+02 0.414537713701872D+02
 0.145237186368983D+03 0.988593551032946D+02 -.547008847261172D+02 0.363731757198672D+01
 0.564041500718570D+02 0.288681466396873D+02 -.177440681053425D+02 -.450910889421739D+02
 0.000000000000000D+00 0.000000000000000D+00 -.000000000000000D+00 -.000000000000000D+00
 0.200039641560641D+03 0.000000000000000D+00 0.000000000000000D+00 0.200039641560641D+03
 0.200403493162932D+03 0.000000000000000D+00 0.000000000000000D+00 -.200403493162932D+03
 0.197780154350647D+03 -.128455868494459D+03 0.726131127516790D+02 0.414537713701872D+02
 0.144827091013062D+03 0.983245217746925D+02 -.545774063689765D+02 0.363731757198672D+01
 0.562829898194797D+02 0.286603691130553D+02 -.176960979691015D+02 -.450910889421739D+02
 0.155289954038413D+01 0.147097760671139D+01 -.339608413601036D+00 -.363851602291746D+00
0.107671590936D-05 0.000000000000D+00 0.000000000000D+00 0.345175921549D-06 0.000000000000D+00  6 2 21 25 23 2 21 2 0.45176389D-01 0.20840224D-01 0.34580728D+05 0.34580728D+05 0.34580728D+05 0.12084743D+01  1  2  2  2  6  2       21 0.466522691038D-02 0.100000000000D+01
0.893606715640D-07 0.568198595743D-07 -.217357920539D-08 0.345175921549D-06 0.000000000000D+00  6 2 21 25 23 2 21 4 0.45176389D-01 0.20840224D-01 0.34580728D+05 0.34580728D+05 0.34580728D+05 0.12084743D+01  1  2  3  2  6  2       21 0.565448273736D-03 0.100000000000D+01
0.692458936439D-07 0.000000000000D+00 0.000000000000D+00 0.345175921549D-06 0.000000000000D+00  6 2 21 25 23 2 21 4 0.45176389D-01 0.20840224D-01 0.34580728D+05 0.34580728D+05 0.34580728D+05 0.12084743D+01  1  2 15  2  6  2       21 0.438167824155D-03 0.100000000000D+01
-.157272366915D-05 0.000000000000D+00 0.000000000000D+00 0.345175921549D-06 0.000000000000D+00  6 2 21 25 23 2 21 4 0.45176389D-01 0.20840224D-01 0.34580728D+05 0.34580728D+05 0.34580728D+05 0.12084743D+01  1  2  4  2  6  2       21 -.995173680122D-02 0.100000000000D+01
-.453334363559D-03 0.000000000000D+00 -.443474997452D-04 0.345175921549D-06 0.000000000000D+00  6 2 21 25 23 2 21 4 0.45176389D-01 0.20999871D-01 0.34580728D+05 0.34580728D+05 0.34580728D+05 0.12084743D+01  1  2  5  2  6  2       21 -.282783217650D+01 0.100000000000D+01
0.453621414156D-03 0.000000000000D+00 0.443423347830D-04 0.345175921549D-06 0.000000000000D+00  6 2 21 25 23 2 21 4 0.45176389D-01 0.20840224D-01 0.34580728D+05 0.34580728D+05 0.34580728D+05 0.12084743D+01  1  2  6  2  6  2       21 0.287038404116D+01 0.100000000000D+01
0.152977617537D-05 0.000000000000D+00 0.000000000000D+00 0.345175921549D-06 0.152457656893D-05  6 2 21 25 23 2 21 4 0.45311379D-01 0.20940515D-01 0.34849712D+05 0.34849712D+05 0.34849712D+05 0.12081270D+01  1  2 11  2  6  2       21 0.955127934300D-02 0.100000000000D+01
0.100621654787D-10 0.000000000000D+00 0.000000000000D+00 0.344977562167D-06 0.000000000000D+00  6 2 -1 25 23 2 -1 4 0.45176389D-01 0.20971530D-01 0.34849712D+05 0.34849712D+05 0.34849712D+05 0.12081270D+01  1  2 12  5  6  2       21 0.502770164511D-08 0.100000000000D+01
0.100621654787D-10 0.000000000000D+00 0.000000000000D+00 0.344977562167D-06 0.000000000000D+00  6 2 -3 25 23 2 -3 4 0.45176389D-01 0.20971530D-01 0.34849712D+05 0.34849712D+05 0.34849712D+05 0.12081270D+01  1  2 12  5  6  2       21 0.301626534586D-08 0.100000000000D+01
-.702040904789D-06 0.000000000000D+00 -.760686138969D-07 0.345175921549D-06 0.000000000000D+00  6 2 -1 25 23 2 -1 4 0.45176389D-01 0.20999871D-01 0.34580728D+05 0.34580728D+05 0.34580728D+05 0.12084743D+01  1  2  5  5  6  2       21 -.350375730275D-03 0.100000000000D+01
-.702040904789D-06 0.000000000000D+00 -.760686138969D-07 0.345175921549D-06 0.000000000000D+00  6 2 -3 25 23 2 -3 4 0.45176389D-01 0.20999871D-01 0.34580728D+05 0.34580728D+05 0.34580728D+05 0.12084743D+01  1  2  5  5  6  2       21 -.210120075069D-03 0.100000000000D+01
0.844712003017D-07 0.000000000000D+00 0.000000000000D+00 0.345175921549D-06 0.239108451357D-08  6 2 -1 25 23 2 -1 4 0.45311379D-01 0.20940515D-01 0.34849712D+05 0.34849712D+05 0.34849712D+05 0.12081270D+01  1  2 11  5  6  2       21 0.421739888476D-04 0.100000000000D+01
0.844712003017D-07 0.000000000000D+00 0.000000000000D+00 0.345175921549D-06 0.239108451357D-08  6 2 -3 25 23 2 -3 4 0.45311379D-01 0.20940515D-01 0.34849712D+05 0.34849712D+05 0.34849712D+05 0.12081270D+01  1  2 11  5  6  2       21 0.253072765185D-04 0.100000000000D+01
0.100621654787D-10 0.000000000000D+00 0.000000000000D+00 0.344977562167D-06 0.000000000000D+00  6 2 1 25 23 2 1 4 0.45176389D-01 0.20971530D-01 0.34849712D+05 0.34849712D+05 0.34849712D+05 0.12081270D+01  1  2 12  6  6  2       21 0.768267724285D-08 0.100000000000D+01
0.100621654787D-10 0.000000000000D+00 0.000000000000D+00 0.344977562167D-06 0.000000000000D+00  6 2 3 25 23 2 3 4 0.45176389D-01 0.20971530D-01 0.34849712D+05 0.34849712D+05 0.34849712D+05 0.12081270D+01  1  2 12  6  6  2       21 0.301603556921D-08 0.100000000000D+01
-.702040904789D-06 0.000000000000D+00 -.760686138969D-07 0.345175921549D-06 0.000000000000D+00  6 2 1 25 23 2 1 4 0.45176389D-01 0.20999871D-01 0.34580728D+05 0.34580728D+05 0.34580728D+05 0.12084743D+01  1  2  5  6  6  2       21 -.535651485556D-03 0.100000000000D+01
-.702040904789D-06 0.000000000000D+00 -.760686138969D-07 0.345175921549D-06 0.000000000000D+00  6 2 3 25 23 2 3 4 0.45176389D-01 0.20999871D-01 0.34580728D+05 0.34580728D+05 0.34580728D+05 0.12084743D+01  1  2  5  6  6  2       21 -.210104094315D-03 0.100000000000D+01
0.840790563952D-07 0.000000000000D+00 0.000000000000D+00 0.345175921549D-06 0.237998428984D-08  6 2 1 25 23 2 1 4 0.45311379D-01 0.20940515D-01 0.34849712D+05 0.34849712D+05 0.34849712D+05 0.12081270D+01  1  2 11  6  6  2       21 0.641127186652D-04 0.100000000000D+01
0.840790563952D-07 0.000000000000D+00 0.000000000000D+00 0.345175921549D-06 0.237998428984D-08  6 2 3 25 23 2 3 4 0.45311379D-01 0.20940515D-01 0.34849712D+05 0.34849712D+05 0.34849712D+05 0.12081270D+01  1  2 11  6  6  2       21 0.251878658059D-04 0.100000000000D+01
0.100621654787D-10 0.000000000000D+00 0.000000000000D+00 0.344977562167D-06 0.000000000000D+00  6 2 -2 25 23 2 -2 4 0.45176389D-01 0.20971530D-01 0.34849712D+05 0.34849712D+05 0.34849712D+05 0.12081270D+01  1  2 12  7  6  2       21 0.458143919077D-08 0.100000000000D+01
-.702040904789D-06 0.000000000000D+00 -.760686138969D-07 0.345175921549D-06 0.000000000000D+00  6 2 -2 25 23 2 -2 4 0.45176389D-01 0.20999871D-01 0.34580728D+05 0.34580728D+05 0.34580728D+05 0.12084743D+01  1  2  5  7  6  2       21 -.319235048973D-03 0.100000000000D+01
0.228695268112D-06 0.000000000000D+00 0.000000000000D+00 0.345175921549D-06 0.224534733854D-06  6 2 -2 25 23 2 -2 4 0.45311379D-01 0.20940515D-01 0.34849712D+05 0.34849712D+05 0.34849712D+05 0.12081270D+01  1  2 11  7  6  2       21 0.104059810700D-03 0.100000000000D+01
0.100621654787D-10 0.000000000000D+00 0.000000000000D+00 0.344977562167D-06 0.000000000000D+00  6 2 2 25 23 2 2 4 0.45176389D-01 0.20971530D-01 0.34849712D+05 0.34849712D+05 0.34849712D+05 0.12081270D+01  1  2 12  8  6  2       21 0.956166926865D-08 0.100000000000D+01
-.702040904789D-06 0.000000000000D+00 -.760686138969D-07 0.345175921549D-06 0.000000000000D+00  6 2 2 25 23 2 2 4 0.45176389D-01 0.20999871D-01 0.34580728D+05 0.34580728D+05 0.34580728D+05 0.12084743D+01  1  2  5  8  6  2       21 -.666781579466D-03 0.100000000000D+01
0.579529214158D-07 0.000000000000D+00 0.000000000000D+00 0.345175921549D-06 0.124993045939D-08  6 2 2 25 23 2 2 4 0.45311379D-01 0.20940515D-01 0.34849712D+05 0.34849712D+05 0.34849712D+05 0.12081270D+01  1  2 11  8  6  2       21 0.549870068170D-04 0.100000000000D+01
0.100621654787D-10 0.000000000000D+00 0.000000000000D+00 0.344977562167D-06 0.000000000000D+00  6 2 -4 25 23 2 -4 4 0.45176389D-01 0.20971530D-01 0.34849712D+05 0.34849712D+05 0.34849712D+05 0.12081270D+01  1  2 12  9  6  2       21 0.258133862085D-08 0.100000000000D+01
-.702040904789D-06 0.000000000000D+00 -.760686138969D-07 0.345175921549D-06 0.000000000000D+00  6 2 -4 25 23 2 -4 4 0.45176389D-01 0.20999871D-01 0.34580728D+05 0.34580728D+05 0.34580728D+05 0.12084743D+01  1  2  5  9  6  2       21 -.179798964954D-03 0.100000000000D+01
0.823577881872D-07 0.000000000000D+00 0.000000000000D+00 0.345175921549D-06 0.233126120148D-08  6 2 -4 25 23 2 -4 4 0.45311379D-01 0.20940515D-01 0.34849712D+05 0.34849712D+05 0.34849712D+05 0.12081270D+01  1  2 11  9  6  2       21 0.211174412147D-04 0.100000000000D+01
0.100621654787D-10 0.000000000000D+00 0.000000000000D+00 0.344977562167D-06 0.000000000000D+00  6 2 4 25 23 2 4 4 0.45176389D-01 0.20971530D-01 0.34849712D+05 0.34849712D+05 0.34849712D+05 0.12081270D+01  1  2 12 10  6  2       21 0.258133862085D-08 0.100000000000D+01
-.702040904789D-06 0.000000000000D+00 -.760686138969D-07 0.345175921549D-06 0.000000000000D+00  6 2 4 25 23 2 4 4 0.45176389D-01 0.20999871D-01 0.34580728D+05 0.34580728D+05 0.34580728D+05 0.12084743D+01  1  2  5 10  6  2       21 -.179798964954D-03 0.100000000000D+01
0.825847932499D-07 0.000000000000D+00 0.000000000000D+00 0.345175921549D-06 0.233768692159D-08  6 2 4 25 23 2 4 4 0.45311379D-01 0.20940515D-01 0.34849712D+05 0.34849712D+05 0.34849712D+05 0.12081270D+01  1  2 11 10  6  2       21 0.211756478054D-04 0.100000000000D+01
  </mgrwgt>
  </event>
  <event>
  5     66 -.49447450E-03 0.11107318E+03 0.75467711E-02 0.11148165E+00
        2 -1    0    0  502    0 0.00000000E+00 0.00000000E+00 0.53257392E+03 0.53257402E+03 0.32000000E+00 0.0000E+00 0.9000E+01
       21 -1    0    0  501  502 0.00000000E+00 0.00000000E+00 -.16547101E+03 0.16547271E+03 0.75000000E+00 0.0000E+00 0.9000E+01
       25  1    1    2    0    0 0.10390535E+03 -.11510207E+03 0.18742240E+03 0.27349034E+03 0.12500000E+03 0.0000E+00 0.9000E+01
       23  1    1    2    0    0 -.15105301E+03 0.38265862E+01 0.23314195E+03 0.29240737E+03 0.91188000E+02 0.0000E+00 0.9000E+01
        2  1    1    2  501    0 0.47147659E+02 0.11127549E+03 -.53461432E+02 0.13214902E+03 0.32000000E+00 0.0000E+00 0.9000E+01
#aMCatNLO 1  0  0  5  2 0.14088638D+02 0.00000000D+00  -5  6  0 0.00000000D+00 0.00000000D+00 0.00000000D+00 0.00000000D+00 0.00000000D+00
  <mgrwgt>
 -.8213784866D-01    7    2    0
 0.296860524790247D+03 0.000000000000000D+00 0.000000000000000D+00 0.296860524790247D+03
 0.296860524790247D+03 -.000000000000000D+00 -.000000000000000D+00 -.296860524790247D+03
 0.205661812958864D+03 0.103905323839126D+03 -.115102127859235D+03 0.512539281391137D+02
 0.199634073563454D+03 -.151053029556243D+03 0.382653222421151D+01 0.933105133227573D+02
 0.188425163058175D+03 0.471477057171171D+02 0.111275595635024D+03 -.144564441461871D+03
 0.000000000000000D+00 0.000000000000000D+00 0.000000000000000D+00 -.000000000000000D+00
 0.296860524790247D+03 0.000000000000000D+00 0.000000000000000D+00 0.296860524790247D+03
 0.296860524790247D+03 -.000000000000000D+00 -.000000000000000D+00 -.296860524790247D+03
 0.205359405194491D+03 0.104097510599960D+03 -.114648538528436D+03 0.506646444971272D+02
 0.199235092549770D+03 -.150866524895058D+03 0.426671095499946D+01 0.927386521523308D+02
 0.114760609047037D+03 0.335663662577640D+02 0.768260125933770D+02 -.783649171128179D+02
 0.743659427891946D+02 0.132026480373340D+02 0.335558149800597D+02 -.650383795366402D+02
0.178538600176D-05 0.000000000000D+00 0.000000000000D+00 0.104181292836D-06 0.000000000000D+00  6 2 21 25 23 2 21 2 0.81934588D-01 0.25457216D-01 0.61630429D+05 0.61630429D+05 0.61630429D+05 0.11833902D+01  1  2  2  3  6  5        2 0.262400967349D-02 0.100000000000D+01
-.232882792798D-07 0.942174077899D-07 -.360417994504D-08 0.104181292836D-06 0.000000000000D+00  6 2 21 25 23 2 21 4 0.81934588D-01 0.25457216D-01 0.61630429D+05 0.61630429D+05 0.61630429D+05 0.11833902D+01  1  2  3  3  6  5        2 -.479321200056D-04 0.100000000000D+01
0.928041165696D-07 0.000000000000D+00 0.000000000000D+00 0.104181292836D-06 0.000000000000D+00  6 2 21 25 23 2 21 4 0.81934588D-01 0.25457216D-01 0.61630429D+05 0.61630429D+05 0.61630429D+05 0.11833902D+01  1  2 15  3  6  5        2 0.191010164340D-03 0.100000000000D+01
0.117422989265D-04 0.000000000000D+00 0.000000000000D+00 0.104219038173D-06 0.000000000000D+00  6 2 21 25 23 2 21 4 0.81934588D-01 0.25457216D-01 0.61316988D+05 0.61316988D+05 0.61316988D+05 0.11836045D+01  1  2 12  3  6  5        2 0.241887355729D-01 0.100000000000D+01
-.585673412192D-04 0.000000000000D+00 0.000000000000D+00 0.104181292836D-06 0.000000000000D+00  6 2 21 25 23 2 21 4 0.81934588D-01 0.25457216D-01 0.61630429D+05 0.61630429D+05 0.61630429D+05 0.11833902D+01  1  2  4  3  6  5        2 -.120543763410D+00 0.100000000000D+01
-.119979129907D-04 0.000000000000D+00 0.000000000000D+00 0.104181292836D-06 0.000000000000D+00  6 2 21 25 23 2 21 4 0.81934588D-01 0.25457216D-01 0.61630429D+05 0.61630429D+05 0.61630429D+05 0.11833902D+01  1  2  5  3  6  5        2 -.246941991023D-01 0.100000000000D+01
0.175610495178D-04 0.000000000000D+00 -.000000000000D+00 0.104181292836D-06 0.000000000000D+00  6 2 21 25 23 2 21 4 0.81934588D-01 0.25457216D-01 0.61630429D+05 0.61630429D+05 0.61630429D+05 0.11833902D+01  1  2  6  3  6  5        2 0.361442905591D-01 0.100000000000D+01
  </mgrwgt>
  </event>
  <event>
  6     66 -.49447450E-03 0.78413751E+02 0.75467711E-02 0.11549416E+00
        2 -1    0    0  502    0 0.00000000E+00 0.00000000E+00 0.28308365E+04 0.28308365E+04 0.32000000E+00 0.0000E+00 0.9000E+01
       21 -1    0    0  503  502 0.00000000E+00 0.00000000E+00 -.29565192E+02 0.29574703E+02 0.75000000E+00 0.0000E+00 0.9000E+01
       25  1    1    2    0    0 0.97241740E+02 -.19168761E+02 0.23863238E+03 0.28704322E+03 0.12500000E+03 0.0000E+00 0.9000E+01
       23  1    1    2    0    0 -.57542287E+02 0.93385661E+02 0.18216034E+04 0.18271798E+04 0.91188000E+02 0.0000E+00 0.9000E+01
        2  1    1    2  501    0 -.27166265E+02 -.64149276E+02 0.65186291E+03 0.65557494E+03 0.32000000E+00 0.0000E+00 0.9000E+01
       21  1    1    2  503  501 -.12533189E+02 -.10067625E+02 0.89172651E+02 0.90613256E+02 0.75000000E+00 0.0000E+00 0.9000E+01
#aMCatNLO 2  0  0  2  1 0.16076004D+02 0.00000000D+00  -5  6  0 0.00000000D+00 0.00000000D+00 0.00000000D+00 0.00000000D+00 0.00000000D+00
  <mgrwgt>
 -.3325819112D-01    3    2    0
 0.281088602701027D+03 0.000000000000000D+00 0.000000000000000D+00 0.281088602701027D+03
 0.281088602701027D+03 0.000000000000000D+00 0.000000000000000D+00 -.281088602701027D+03
 0.261183625571423D+03 0.914010548452624D+02 -.238603168022122D+02 -.208969899080956D+03
 0.214046173635088D+03 -.623165515810923D+02 0.895507120555974D+02 0.159993220085099D+03
 0.869474061955426D+02 -.290845032641701D+02 -.656903952533852D+02 0.489766789958566D+02
 0.000000000000000D+00 -.000000000000000D+00 -.000000000000000D+00 0.000000000000000D+00
 0.290417240546208D+03 0.000000000000000D+00 0.000000000000000D+00 0.290417240546208D+03
 0.288215807384233D+03 0.000000000000000D+00 0.000000000000000D+00 -.288215807384233D+03
 0.262900792236811D+03 0.972418350031815D+02 -.191685513811623D+02 -.208969899080956D+03
 0.214348084250605D+03 -.575422125696607D+02 0.933858296386198D+02 0.159993220085099D+03
 0.851581364293521D+02 -.271664331894380D+02 -.641496533304800D+02 0.489766789958566D+02
 0.162260350136727D+02 -.125331892440828D+02 -.100676249269774D+02 0.220143316197453D+01
-.141408860414D-04 0.000000000000D+00 0.000000000000D+00 0.144983609437D-07 0.000000000000D+00  6 2 21 25 23 2 21 4 0.42151205D+00 0.46206018D-02 0.37618600D+05 0.37618600D+05 0.37618600D+05 0.12047168D+01  1  2 13  2  6  2       21 -.354181424094D-01 0.100000000000D+01
-.766294203947D-06 0.000000000000D+00 0.000000000000D+00 0.145959880575D-07 0.000000000000D+00  6 2 21 25 23 2 21 4 0.42151205D+00 0.44365948D-02 0.34356538D+05 0.34356538D+05 0.34356538D+05 0.12087660D+01  1  2  8  2  6  2       21 -.209185412726D-02 0.100000000000D+01
0.186074601583D-05 0.000000000000D+00 0.000000000000D+00 0.145959880575D-07 0.193583202361D-08  6 2 21 25 23 2 21 4 0.43550100D+00 0.45490878D-02 0.37618600D+05 0.37618600D+05 0.37618600D+05 0.12047168D+01  1  2  1  2  6  2       21 0.425180541672D-02 0.100000000000D+01
  </mgrwgt>
  </event>
  <event>
  6     66 0.49447450E-03 0.84575575E+02 0.75467711E-02 0.11561319E+00
        2 -1    0    0  502    0 0.00000000E+00 0.00000000E+00 0.27566824E+03 0.27566842E+03 0.32000000E+00 0.0000E+00 0.9000E+01
       21 -1    0    0  501  503 0.00000000E+00 0.00000000E+00 -.17548686E+03 0.17548846E+03 0.75000000E+00 0.0000E+00 0.9000E+01
       25  1    1    2    0    0 0.60071963E+02 0.11354873E+03 0.55204099E+02 0.18754852E+03 0.12500000E+03 0.0000E+00 0.9000E+01
       23  1    1    2    0    0 -.10631907E+02 -.48181466E+02 -.57682252E+02 0.11864647E+03 0.91188000E+02 0.0000E+00 0.9000E+01
        2  1    1    2  501    0 -.47490470E+02 -.77015150E+02 0.91934255E+02 0.12899104E+03 0.32000000E+00 0.0000E+00 0.9000E+01
       21  1    1    2  502  503 -.19495864E+01 0.11647886E+02 0.10725279E+02 0.15970856E+02 0.75000000E+00 0.0000E+00 0.9000E+01
#aMCatNLO 2  0  0  2  2 0.11809917D+02 0.00000000D+00  -5  6  0 0.00000000D+00 0.00000000D+00 0.00000000D+00 0.00000000D+00 0.00000000D+00
  <mgrwgt>
 0.8805648150D-02    2    2    0
 0.212864398815411D+03 0.000000000000000D+00 0.000000000000000D+00 0.212864398815411D+03
 0.212864398815411D+03 0.000000000000000D+00 0.000000000000000D+00 -.212864398815411D+03
 0.182946709507930D+03 0.592410639284511D+02 0.118513620609968D+03 0.170151871667781D+02
 0.132133034157821D+03 -.112396081124017D+02 -.445502600861805D+02 -.838619872617219D+02
 0.110649053965072D+03 -.480014558160494D+02 -.739633605237878D+02 0.668468000949438D+02
 0.000000000000000D+00 -.000000000000000D+00 0.000000000000000D+00 0.000000000000000D+00
 0.223771671296364D+03 0.000000000000000D+00 0.000000000000000D+00 0.223771671296364D+03
 0.216167283502519D+03 0.000000000000000D+00 0.000000000000000D+00 -.216167283502519D+03
 0.180045859139299D+03 0.600720498772593D+02 0.113548860066633D+03 0.170151871667781D+02
 0.133351283534724D+03 -.106318443268962D+02 -.481813704151502D+02 -.838619872617219D+02
 0.112495429784477D+03 -.474906191032181D+02 -.770153759755402D+02 0.668468000949438D+02
 0.140463823403832D+02 -.194958644714499D+01 0.116478863240572D+02 0.760438779384499D+01
-.770023918938D-06 0.000000000000D+00 0.000000000000D+00 0.567603890223D-07 0.000000000000D+00  6 2 21 25 23 2 21 4 0.40341568D-01 0.26584383D-01 0.34677400D+05 0.34677400D+05 0.34677400D+05 0.12083491D+01  1  2  8  2  6  2       21 -.346536172308D-02 0.100000000000D+01
0.299497819989D-05 0.000000000000D+00 0.000000000000D+00 0.567603890223D-07 0.448541276147D-08  6 2 21 25 23 2 21 4 0.42408689D-01 0.26996876D-01 0.37096958D+05 0.37096958D+05 0.37096958D+05 0.12053374D+01  1  2  1  2  6  2       21 0.122710098732D-01 0.100000000000D+01
  </mgrwgt>
  </event>
  <event>
  5     66 -.49447450E-03 0.92493757E+02 0.75467711E-02 0.11522660E+00
        2 -1    0    0  502    0 0.00000000E+00 0.00000000E+00 0.33615065E+04 0.33615066E+04 0.32000000E+00 0.0000E+00 0.9000E+01
       21 -1    0    0  501  502 0.00000000E+00 0.00000000E+00 -.45921232E+02 0.45927356E+02 0.75000000E+00 0.0000E+00 0.9000E+01
       25  1    1    2    0    0 0.18421618E+01 -.49787197E+01 0.14368593E+04 0.14422960E+04 0.12500000E+03 0.0000E+00 0.9000E+01
       23  1    1    2    0    0 0.10578709E+03 -.47503313E+02 0.18298767E+04 0.18358136E+04 0.91188000E+02 0.0000E+00 0.9000E+01
        2  1    1    2  501    0 -.10762925E+03 0.52482033E+02 0.48849303E+02 0.12932431E+03 0.32000000E+00 0.0000E+00 0.9000E+01
#aMCatNLO 1  0  0  5  2 0.10471110D+02 0.00000000D+00  -5  6  0 0.00000000D+00 0.00000000D+00 0.00000000D+00 0.00000000D+00 0.00000000D+00
  <mgrwgt>
 -.1150173730D+00    7    2    0
 0.392905815780853D+03 0.000000000000000D+00 0.000000000000000D+00 0.392905815780853D+03
 0.392905815780853D+03 -.000000000000000D+00 -.000000000000000D+00 -.392905815780853D+03
 0.191520234467307D+03 0.184217243567723D+01 -.497872494336949D+01 0.145006271964588D+03
 0.239626306034959D+03 0.105787105616422D+03 -.475033198079022D+02 0.188833360645009D+03
 0.354665091059440D+03 -.107629278052099D+03 0.524820447512717D+02 -.333839632609596D+03
 0.000000000000000D+00 0.000000000000000D+00 0.000000000000000D+00 -.000000000000000D+00
 0.392905815780853D+03 0.000000000000000D+00 0.000000000000000D+00 0.392905815780853D+03
 0.392905815780853D+03 -.000000000000000D+00 -.000000000000000D+00 -.392905815780853D+03
 0.191339261257419D+03 0.176580244194167D+01 -.494148550906850D+01 0.144769390967962D+03
 0.239341400591872D+03 0.105691564664289D+03 -.474567322564835D+02 0.188537016035657D+03
 0.289681689952713D+03 -.973974342153809D+02 0.393571916327564D+02 -.269963391534672D+03
 0.654492797597030D+02 -.100599328908501D+02 0.130410261327956D+02 -.633430154689466D+02
0.400077659503D-05 0.000000000000D+00 0.000000000000D+00 0.115792457950D-05 0.000000000000D+00  6 2 21 25 23 2 21 2 0.51715533D+00 0.70652771D-02 0.38490085D+05 0.38490085D+05 0.38490085D+05 0.12037010D+01  1  2  2  3  6  5        2 0.142490696720D-02 0.100000000000D+01
0.142655470607D-06 0.211126781301D-06 -.807641527054D-08 0.115792457950D-05 0.000000000000D+00  6 2 21 25 23 2 21 4 0.51715533D+00 0.70652771D-02 0.38490085D+05 0.38490085D+05 0.38490085D+05 0.12037010D+01  1  2  3  3  6  5        2 0.736152624758D-04 0.100000000000D+01
0.325761412073D-06 0.000000000000D+00 0.000000000000D+00 0.115792457950D-05 0.000000000000D+00  6 2 21 25 23 2 21 4 0.51715533D+00 0.70652771D-02 0.38490085D+05 0.38490085D+05 0.38490085D+05 0.12037010D+01  1  2 15  3  6  5        2 0.168104396924D-03 0.100000000000D+01
0.156016585676D-03 0.000000000000D+00 0.000000000000D+00 0.115719258532D-05 0.000000000000D+00  6 2 21 25 23 2 21 4 0.51715533D+00 0.70652771D-02 0.38822327D+05 0.38822327D+05 0.38822327D+05 0.12033204D+01  1  2 12  3  6  5        2 0.803599654141D-01 0.100000000000D+01
-.417467748795D-03 0.000000000000D+00 0.000000000000D+00 0.115792457950D-05 0.000000000000D+00  6 2 21 25 23 2 21 4 0.51715533D+00 0.70652771D-02 0.38490085D+05 0.38490085D+05 0.38490085D+05 0.12037010D+01  1  2  4  3  6  5        2 -.215428106416D+00 0.100000000000D+01
-.177051188702D-03 0.000000000000D+00 0.000000000000D+00 0.115792457950D-05 0.000000000000D+00  6 2 21 25 23 2 21 4 0.51715533D+00 0.70652771D-02 0.38490085D+05 0.38490085D+05 0.38490085D+05 0.12037010D+01  1  2  5  3  6  5        2 -.913646681232D-01 0.100000000000D+01
0.212676930496D-03 0.000000000000D+00 -.000000000000D+00 0.115792457950D-05 0.000000000000D+00  6 2 21 25 23 2 21 4 0.51715533D+00 0.70652771D-02 0.38490085D+05 0.38490085D+05 0.38490085D+05 0.12037010D+01  1  2  6  3  6  5        2 0.109748809453D+00 0.100000000000D+01
  </mgrwgt>
  </event>
  <event>
  5     66 0.49447450E-03 0.36654439E+02 0.75467711E-02 0.10581438E+00
        2 -1    0    0  502    0 0.00000000E+00 0.00000000E+00 0.51004195E+04 0.51004195E+04 0.32000000E+00 0.0000E+00 0.9000E+01
       21 -1    0    0  501  502 0.00000000E+00 0.00000000E+00 -.33118653E+02 0.33127144E+02 0.75000000E+00 0.0000E+00 0.9000E+01
       25  1    1    2    0    0 -.25296043E+03 0.20459287E+03 0.30179174E+04 0.30379759E+04 0.12500000E+03 0.0000E+00 0.9000E+01
       23  1    1    2    0    0 0.27177089E+03 -.17313327E+03 0.20226902E+04 0.20502257E+04 0.91188000E+02 0.0000E+00 0.9000E+01
        2  1    1    2  501    0 -.18810456E+02 -.31459597E+02 0.26693226E+02 0.45345013E+02 0.32000000E+00 0.0000E+00 0.9000E+01
#aMCatNLO 1  0  0  1  2 0.23754531D+01 0.00000000D+00  -5  6  0 0.00000000D+00 0.00000000D+00 0.00000000D+00 0.00000000D+00 0.00000000D+00
  <mgrwgt>
 0.1379346245D+00   10    2    0
 0.411024137019577D+03 0.000000000000000D+00 0.000000000000000D+00 0.411024137019577D+03
 0.411024137019577D+03 0.000000000000000D+00 0.000000000000000D+00 -.411024137019577D+03
 0.368464668488808D+03 -.252960399427067D+03 0.204592921361750D+03 0.119557453866042D+03
 0.334955436424852D+03 0.271770914422750D+03 -.173133226591262D+03 -.673416442360577D+01
 0.118628169125494D+03 -.188105149956828D+02 -.314596947704881D+02 -.112823289442436D+03
 0.000000000000000D+00 -.000000000000000D+00 -.000000000000000D+00 0.000000000000000D+00
 0.412618514712871D+03 0.000000000000000D+00 0.000000000000000D+00 0.412618514712871D+03
 0.411911599538325D+03 0.000000000000000D+00 0.000000000000000D+00 -.411911599538325D+03
 0.368699337402386D+03 -.252516892786335D+03 0.205561269415137D+03 0.119557453866042D+03
 0.334828990577604D+03 0.272173882878698D+03 -.172253389213292D+03 -.673416442360577D+01
 0.118523378196860D+03 -.186678353677345D+02 -.311481694689647D+02 -.112823289442436D+03
 0.247840807434520D+01 -.989154724629286D+00 -.215971073288066D+01 0.706915174545799D+00
0.415147290232D-03 0.000000000000D+00 0.000000000000D+00 0.224168259695D-06 0.000000000000D+00  6 2 21 25 23 2 21 2 0.78468057D+00 0.50958313D-02 0.12962550D+06 0.12962550D+06 0.12962550D+06 0.11533595D+01  1  2  2  1  6  1        2 0.651445400947D-02 0.100000000000D+01
0.922236477327D-04 0.219079243918D-04 -.838062769742D-06 0.224168259695D-06 0.000000000000D+00  6 2 21 25 23 2 21 4 0.78468057D+00 0.50958313D-02 0.12962550D+06 0.12962550D+06 0.12962550D+06 0.11533595D+01  1  2  3  1  6  1        2 0.192507424439D-02 0.100000000000D+01
0.445385169417D-04 0.000000000000D+00 0.000000000000D+00 0.224168259695D-06 0.000000000000D+00  6 2 21 25 23 2 21 4 0.78468057D+00 0.50958313D-02 0.12962550D+06 0.12962550D+06 0.12962550D+06 0.11533595D+01  1  2 15  1  6  1        2 0.929695950611D-03 0.100000000000D+01
-.344771284311D-02 0.000000000000D+00 0.000000000000D+00 0.224168259695D-06 0.000000000000D+00  6 2 21 25 23 2 21 4 0.78468057D+00 0.50958313D-02 0.12962550D+06 0.12962550D+06 0.12962550D+06 0.11533595D+01  1  2  4  1  6  1        2 -.719674764497D-01 0.100000000000D+01
-.999321009247D-01 0.000000000000D+00 -.874647738898D-02 0.224168259695D-06 0.000000000000D+00  6 2 21 25 23 2 21 4 0.78791663D+00 0.50958313D-02 0.12962550D+06 0.12962550D+06 0.12962550D+06 0.11533595D+01  1  2  5  1  6  1        2 -.195918102649D+01 0.100000000000D+01
0.100342359018D+00 0.000000000000D+00 0.888695790880D-02 0.224168259695D-06 0.000000000000D+00  6 2 21 25 23 2 21 4 0.78468057D+00 0.50958313D-02 0.12962550D+06 0.12962550D+06 0.12962550D+06 0.11533595D+01  1  2  6  1  6  1        2 0.209454403199D+01 0.100000000000D+01
0.332966591693D-02 0.000000000000D+00 0.000000000000D+00 0.224168259695D-06 0.278774130030D-06  6 2 21 25 23 2 21 4 0.78772438D+00 0.51068339D-02 0.13040308D+06 0.13040308D+06 0.13040308D+06 0.11531273D+01  1  2 11  1  6  1        2 0.651848877274D-01 0.100000000000D+01
0.498870622732D-07 0.000000000000D+00 0.000000000000D+00 0.224078033190D-06 0.000000000000D+00  6 21 21 25 23 2 -2 4 0.78856894D+00 0.50958313D-02 0.13040308D+06 0.13040308D+06 0.13040308D+06 0.11531273D+01  1  2 12  4  6  1        2 0.108740700997D-07 0.100000000000D+01
-.765853444044D-04 0.000000000000D+00 -.670790859351D-05 0.224168259695D-06 0.000000000000D+00  6 21 21 25 23 2 -2 4 0.78791663D+00 0.50958313D-02 0.12962550D+06 0.12962550D+06 0.12962550D+06 0.11533595D+01  1  2  5  4  6  1        2 -.170294843715D-04 0.100000000000D+01
0.900613259359D-05 0.000000000000D+00 0.000000000000D+00 0.224168259695D-06 0.212682516786D-09  6 21 21 25 23 2 -2 4 0.78772438D+00 0.51068339D-02 0.13040308D+06 0.13040308D+06 0.13040308D+06 0.11531273D+01  1  2 11  4  6  1        2 0.200215105219D-05 0.100000000000D+01
  </mgrwgt>
  </event>
  <event>
  5     66 0.49447450E-03 0.45879910E+02 0.75467711E-02 0.12145228E+00
        2 -1    0    0  502    0 0.00000000E+00 0.00000000E+00 0.37754183E+03 0.37754196E+03 0.32000000E+00 0.0000E+00 0.9000E+01
       21 -1    0    0  501  502 0.00000000E+00 0.00000000E+00 -.51442207E+02 0.51447674E+02 0.75000000E+00 0.0000E+00 0.9000E+01
       25  1    1    2    0    0 0.30315024E+02 0.17044715E+01 0.14838998E+03 0.19638353E+03 0.12500000E+03 0.0000E+00 0.9000E+01
       23  1    1    2    0    0 0.96370753E+01 0.24579944E+02 0.81305592E+02 0.12499159E+03 0.91188000E+02 0.0000E+00 0.9000E+01
        2  1    1    2  501    0 -.39952099E+02 -.26284415E+02 0.96404048E+02 0.10761451E+03 0.32000000E+00 0.0000E+00 0.9000E+01
#aMCatNLO 1  0  0  1  2 0.67993170D+01 0.00000000D+00  -5  6  0 0.00000000D+00 0.00000000D+00 0.00000000D+00 0.00000000D+00 0.00000000D+00
  <mgrwgt>
 0.1130750936D+00   11    2    0
 0.139365657567722D+03 0.000000000000000D+00 0.000000000000000D+00 0.139365657567722D+03
 0.139365657567722D+03 0.000000000000000D+00 0.000000000000000D+00 -.139365657567722D+03
 0.128642194117130D+03 0.303153617061808D+02 0.170469400809043D+01 -.137367035037708D+01
 0.972492149253773D+02 0.963733093791882D+01 0.245801118716280D+02 -.210973555777380D+02
 0.528399060929370D+02 -.399526926440997D+02 -.262848058797185D+02 0.224710259281151D+02
 0.000000000000000D+00 -.000000000000000D+00 0.000000000000000D+00 0.000000000000000D+00
 0.144349776196859D+03 0.000000000000000D+00 0.000000000000000D+00 0.144349776196859D+03
 0.141745468731324D+03 0.000000000000000D+00 0.000000000000000D+00 -.141745468731324D+03
 0.129235625160653D+03 0.327856910614882D+02 -.241458182571453D+00 -.137367035037708D+01
 0.970917557820422D+02 0.114990118154057D+02 0.231134595362824D+02 -.210973555777380D+02
 0.524868524611551D+02 -.389437195409292D+02 -.270796858056828D+02 0.224710259281151D+02
 0.728101152433229D+01 -.534098333596472D+01 0.420768445197184D+01 0.260430746553497D+01
0.551377540243D-06 0.000000000000D+00 0.000000000000D+00 0.205896388755D-06 0.000000000000D+00  6 2 21 25 23 2 21 2 0.58083789D-01 0.79146167D-02 0.18413374D+05 0.18413374D+05 0.18413374D+05 0.12377976D+01  1  2  2  1  6  1        2 0.108407149682D-01 0.100000000000D+01
-.408266213751D-07 0.290969921933D-07 -.111307239484D-08 0.205896388755D-06 0.000000000000D+00  6 2 21 25 23 2 21 4 0.58083789D-01 0.79146167D-02 0.18413374D+05 0.18413374D+05 0.18413374D+05 0.12377976D+01  1  2  3  1  6  1        2 -.122984842538D-02 0.100000000000D+01
0.487910724254D-07 0.000000000000D+00 0.000000000000D+00 0.205896388755D-06 0.000000000000D+00  6 2 21 25 23 2 21 4 0.58083789D-01 0.79146167D-02 0.18413374D+05 0.18413374D+05 0.18413374D+05 0.12377976D+01  1  2 15  1  6  1        2 0.146976706800D-02 0.100000000000D+01
0.380876506861D-05 0.000000000000D+00 0.000000000000D+00 0.205099675383D-06 0.000000000000D+00  6 2 21 25 23 2 21 4 0.60643683D-01 0.79146167D-02 0.19353384D+05 0.19353384D+05 0.19353384D+05 0.12354005D+01  1  2 12  1  6  1        2 0.108816284950D+00 0.100000000000D+01
-.163507562910D-05 0.000000000000D+00 0.000000000000D+00 0.205896388755D-06 0.000000000000D+00  6 2 21 25 23 2 21 4 0.58083789D-01 0.79146167D-02 0.18413374D+05 0.18413374D+05 0.18413374D+05 0.12377976D+01  1  2  4  1  6  1        2 -.492545089476D-01 0.100000000000D+01
-.295646213976D-04 0.000000000000D+00 -.434218445929D-05 0.205896388755D-06 0.000000000000D+00  6 2 21 25 23 2 21 4 0.61020330D-01 0.79146167D-02 0.18413374D+05 0.18413374D+05 0.18413374D+05 0.12377976D+01  1  2  5  1  6  1        2 -.844975998570D+00 0.100000000000D+01
0.297478675469D-04 0.000000000000D+00 0.433690860403D-05 0.205896388755D-06 0.000000000000D+00  6 2 21 25 23 2 21 4 0.58083789D-01 0.79146167D-02 0.18413374D+05 0.18413374D+05 0.18413374D+05 0.12377976D+01  1  2  6  1  6  1        2 0.896115495935D+00 0.100000000000D+01
0.179463424258D-06 0.000000000000D+00 0.000000000000D+00 0.205896388755D-06 0.670919982566D-07  6 2 21 25 23 2 21 4 0.60161033D-01 0.80497668D-02 0.19353384D+05 0.19353384D+05 0.19353384D+05 0.12354005D+01  1  2 11  1  6  1        2 0.502218402646D-02 0.100000000000D+01
0.561478715906D-07 0.000000000000D+00 0.000000000000D+00 0.205099675383D-06 0.000000000000D+00  6 21 21 25 23 2 -2 4 0.60643683D-01 0.79146167D-02 0.19353384D+05 0.19353384D+05 0.19353384D+05 0.12354005D+01  1  2 12  4  6  1        2 0.409775772356D-02 0.100000000000D+01
-.250549488870D-06 0.000000000000D+00 -.373449659067D-07 0.205896388755D-06 0.000000000000D+00  6 21 21 25 23 2 -2 4 0.61020330D-01 0.79146167D-02 0.18413374D+05 0.18413374D+05 0.18413374D+05 0.12377976D+01  1  2  5  4  6  1        2 -.181982156347D-01 0.100000000000D+01
0.515234724279D-08 0.000000000000D+00 0.000000000000D+00 0.205896388755D-06 0.425427650885D-09  6 21 21 25 23 2 -2 4 0.60161033D-01 0.80497668D-02 0.19353384D+05 0.19353384D+05 0.19353384D+05 0.12354005D+01  1  2 11  4  6  1        2 0.371460472678D-03 0.100000000000D+01
  </mgrwgt>
  </event>
  <event>
  5     66 0.49447450E-03 0.28152575E+02 0.75467711E-02 0.10553137E+00
        4 -1    0    0  502    0 0.00000000E+00 0.00000000E+00 0.30796426E+03 0.30796816E+03 0.15500000E+01 0.0000E+00 0.9000E+01
       21 -1    0    0  501  502 0.00000000E+00 0.00000000E+00 -.45707071E+03 0.45707132E+03 0.75000000E+00 0.0000E+00 0.9000E+01
       25  1    1    2    0    0 0.16882392E+03 0.26364384E+03 0.23971168E+02 0.33794853E+03 0.12500000E+03 0.0000E+00 0.9000E+01
       23  1    1    2    0    0 -.15246572E+03 -.28654627E+03 -.10454246E+03 0.35298575E+03 0.91188000E+02 0.0000E+00 0.9000E+01
        4  1    1    2  501    0 -.16358203E+02 0.22902429E+02 -.68535154E+02 0.74105209E+02 0.15500000E+01 0.0000E+00 0.9000E+01
#aMCatNLO 1  0  0  2  1 0.35316089D+02 0.00000000D+00  -5  6  0 0.00000000D+00 0.00000000D+00 0.00000000D+00 0.00000000D+00 0.00000000D+00
  <mgrwgt>
 0.2429538210D-01   14    2    0
 0.375184181717695D+03 0.000000000000000D+00 0.000000000000000D+00 0.375184181717695D+03
 0.375184181717695D+03 0.000000000000000D+00 0.000000000000000D+00 -.375184181717695D+03
 0.349320138439098D+03 0.168826307003466D+03 0.263640501309071D+03 0.916019827961385D+02
 0.339114409108351D+03 -.152463401718578D+03 -.286549513069644D+03 -.364365039055047D+02
 0.619338158879396D+02 -.163629052848871D+02 0.229090117605726D+02 -.551654788906338D+02
 0.000000000000000D+00 -.000000000000000D+00 0.000000000000000D+00 -.000000000000000D+00
 0.378874523602757D+03 0.000000000000000D+00 0.000000000000000D+00 0.378874523602757D+03
 0.470806610438569D+03 0.000000000000000D+00 0.000000000000000D+00 -.470806610438569D+03
 0.343885625595268D+03 0.177965729467134D+03 0.250139160017170D+03 0.916019827961385D+02
 0.346635562590015D+03 -.143422278547119D+03 -.299905640339746D+03 -.364365039055047D+02
 0.606777914418106D+02 -.147463588906184D+02 0.205209457016968D+02 -.551654788906338D+02
 0.984821544142325D+02 -.197970920293965D+02 0.292455346208789D+02 -.919320868358122D+02
0.549358920712D-04 0.000000000000D+00 0.000000000000D+00 0.220630838163D-06 0.000000000000D+00  6 4 21 25 23 4 21 2 0.47379465D-01 0.70318918D-01 0.12334134D+06 0.12334134D+06 0.12334134D+06 0.11552939D+01  1  2  2  2  6  2       21 0.240196135563D-02 0.100000000000D+01
0.117550777867D-04 0.289904667141D-05 -.110899738360D-06 0.220630838163D-06 0.000000000000D+00  6 4 21 25 23 4 21 4 0.47379465D-01 0.70318918D-01 0.12334134D+06 0.12334134D+06 0.12334134D+06 0.11552939D+01  1  2  3  2  6  2       21 0.685993938258D-03 0.100000000000D+01
0.628776965283D-05 0.000000000000D+00 0.000000000000D+00 0.220630838163D-06 0.000000000000D+00  6 4 21 25 23 4 21 4 0.47379465D-01 0.70318918D-01 0.12334134D+06 0.12334134D+06 0.12334134D+06 0.11552939D+01  1  2 15  2  6  2       21 0.366936905502D-03 0.100000000000D+01
-.647878934109D-05 0.000000000000D+00 0.000000000000D+00 0.220630838163D-06 0.000000000000D+00  6 4 21 25 23 4 21 4 0.47379465D-01 0.70318918D-01 0.12334134D+06 0.12334134D+06 0.12334134D+06 0.11552939D+01  1  2  4  2  6  2       21 -.378084287987D-03 0.100000000000D+01
-.122850514208D-02 0.000000000000D+00 -.877014826964D-04 0.220630838163D-06 0.000000000000D+00  6 4 21 25 23 4 21 4 0.47379465D-01 0.88655963D-01 0.12334134D+06 0.12334134D+06 0.12334134D+06 0.11552939D+01  1  2  5  2  6  2       21 -.421580997842D-01 0.100000000000D+01
0.114669699193D-02 0.000000000000D+00 0.789547879040D-04 0.220630838163D-06 0.000000000000D+00  6 4 21 25 23 4 21 4 0.47379465D-01 0.70318918D-01 0.12334134D+06 0.12334134D+06 0.12334134D+06 0.11552939D+01  1  2  6  2  6  2       21 0.669180757248D-01 0.100000000000D+01
-.712715543096D-04 0.000000000000D+00 -.601522249451D-05 0.220630838163D-06 0.000000000000D+00  6 4 -1 25 23 4 -1 4 0.47379465D-01 0.88655963D-01 0.12334134D+06 0.12334134D+06 0.12334134D+06 0.11552939D+01  1  2  5  5  6  2       21 -.286479831436D-03 0.100000000000D+01
-.712715543096D-04 0.000000000000D+00 -.601522249451D-05 0.220630838163D-06 0.000000000000D+00  6 4 -3 25 23 4 -3 4 0.47379465D-01 0.88655963D-01 0.12334134D+06 0.12334134D+06 0.12334134D+06 0.11552939D+01  1  2  5  5  6  2       21 -.140400036668D-03 0.100000000000D+01
-.712715543096D-04 0.000000000000D+00 -.601522249451D-05 0.220630838163D-06 0.000000000000D+00  6 4 1 25 23 4 1 4 0.47379465D-01 0.88655963D-01 0.12334134D+06 0.12334134D+06 0.12334134D+06 0.11552939D+01  1  2  5  6  6  2       21 -.965030039986D-03 0.100000000000D+01
-.712715543096D-04 0.000000000000D+00 -.601522249451D-05 0.220630838163D-06 0.000000000000D+00  6 4 3 25 23 4 3 4 0.47379465D-01 0.88655963D-01 0.12334134D+06 0.12334134D+06 0.12334134D+06 0.11552939D+01  1  2  5  6  6  2       21 -.140622716105D-03 0.100000000000D+01
-.712715543096D-04 0.000000000000D+00 -.601522249451D-05 0.220630838163D-06 0.000000000000D+00  6 4 -4 25 23 4 -4 4 0.47379465D-01 0.88655963D-01 0.12334134D+06 0.12334134D+06 0.12334134D+06 0.11552939D+01  1  2  5  7  6  2       21 -.114599900585D-03 0.100000000000D+01
-.712715543096D-04 0.000000000000D+00 -.601522249451D-05 0.220630838163D-06 0.000000000000D+00  6 4 4 25 23 4 4 4 0.47379465D-01 0.88655963D-01 0.12334134D+06 0.12334134D+06 0.12334134D+06 0.11552939D+01  1  2  5  8  6  2       21 -.114599900585D-03 0.100000000000D+01
-.712715543096D-04 0.000000000000D+00 -.601522249451D-05 0.220630838163D-06 0.000000000000D+00  6 4 -2 25 23 4 -2 4 0.47379465D-01 0.88655963D-01 0.12334134D+06 0.12334134D+06 0.12334134D+06 0.11552939D+01  1  2  5  9  6  2       21 -.217461611104D-03 0.100000000000D+01
-.712715543096D-04 0.000000000000D+00 -.601522249451D-05 0.220630838163D-06 0.000000000000D+00  6 4 2 25 23 4 2 4 0.47379465D-01 0.88655963D-01 0.12334134D+06 0.12334134D+06 0.12334134D+06 0.11552939D+01  1  2  5 10  6  2       21 -.156220771649D-02 0.100000000000D+01
  </mgrwgt>
  </event>
  <event>
  5     66 0.49447450E-03 0.38437147E+02 0.75467711E-02 0.12128404E+00
        2 -1    0    0  502    0 0.00000000E+00 0.00000000E+00 0.17720562E+04 0.17720562E+04 0.32000000E+00 0.0000E+00 0.9000E+01
       21 -1    0    0  501  502 0.00000000E+00 0.00000000E+00 -.14450045E+02 0.14469495E+02 0.75000000E+00 0.0000E+00 0.9000E+01
       25  1    1    2    0    0 -.86422345E+01 -.41641194E+02 0.73362649E+03 0.74541364E+03 0.12500000E+03 0.0000E+00 0.9000E+01
       23  1    1    2    0    0 -.29596194E+02 0.45541393E+02 0.96430998E+03 0.97013346E+03 0.91188000E+02 0.0000E+00 0.9000E+01
        2  1    1    2  501    0 0.38238428E+02 -.39001983E+01 0.59669659E+02 0.70978585E+02 0.32000000E+00 0.0000E+00 0.9000E+01
#aMCatNLO 1  0  0  5  2 0.10692326D+02 0.00000000D+00  -5  6  0 0.00000000D+00 0.00000000D+00 0.00000000D+00 0.00000000D+00 0.00000000D+00
  <mgrwgt>
 0.2759075567D-01    7    2    0
 0.160074016823309D+03 0.000000000000000D+00 0.000000000000000D+00 0.160074016823309D+03
 0.160074016823309D+03 -.000000000000000D+00 -.000000000000000D+00 -.160074016823309D+03
 0.132045858854944D+03 -.864240660135328D+01 -.416411768922552D+02 0.155885724316483D+01
 0.119604934369635D+03 -.295963498591621D+02 0.455414086613742D+02 0.551373299472907D+02
 0.684972404220391D+02 0.382387564605154D+02 -.390023176911896D+01 -.566961871904555D+02
 0.000000000000000D+00 0.000000000000000D+00 0.000000000000000D+00 -.000000000000000D+00
 0.160074016823309D+03 0.000000000000000D+00 0.000000000000000D+00 0.160074016823309D+03
 0.160074016823309D+03 -.000000000000000D+00 -.000000000000000D+00 -.160074016823309D+03
 0.132006277070781D+03 -.760642543819852D+01 -.417468436821498D+02 0.228192704692984D-01
 0.118706532634415D+03 -.286613595402449D+02 0.454460426169939D+02 0.537510299979884D+02
 0.188514862740535D+02 0.924962080281729D+01 -.115012687174181D+02 -.117279097726175D+02
 0.505837376673679D+02 0.270181641756261D+02 0.780206978257404D+01 -.420459394958402D+02
0.172947569939D-05 0.000000000000D+00 0.000000000000D+00 0.620673503734D-06 0.000000000000D+00  6 2 21 25 23 2 21 2 0.27262552D+00 0.22245822D-02 0.19128484D+05 0.19128484D+05 0.19128484D+05 0.12359620D+01  1  2  2  3  6  5        2 0.347150336314D-01 0.100000000000D+01
0.727757866625D-07 0.912669400745D-07 -.349131315303D-08 0.620673503734D-06 0.000000000000D+00  6 2 21 25 23 2 21 4 0.27262552D+00 0.22245822D-02 0.19128484D+05 0.19128484D+05 0.19128484D+05 0.12359620D+01  1  2  3  3  6  5        2 0.223151720587D-02 0.100000000000D+01
0.159295865293D-06 0.000000000000D+00 0.000000000000D+00 0.620673503734D-06 0.000000000000D+00  6 2 21 25 23 2 21 4 0.27262552D+00 0.22245822D-02 0.19128484D+05 0.19128484D+05 0.19128484D+05 0.12359620D+01  1  2 15  3  6  5        2 0.488447436335D-02 0.100000000000D+01
0.739705036357D-06 0.000000000000D+00 0.000000000000D+00 0.619250705777D-06 0.000000000000D+00  6 2 21 25 23 2 21 4 0.27262552D+00 0.22245822D-02 0.19701973D+05 0.19701973D+05 0.19701973D+05 0.12345445D+01  1  2 12  3  6  5        2 0.225758837080D-01 0.100000000000D+01
-.201881360576D-05 0.000000000000D+00 0.000000000000D+00 0.620673503734D-06 0.000000000000D+00  6 2 21 25 23 2 21 4 0.27262552D+00 0.22245822D-02 0.19128484D+05 0.19128484D+05 0.19128484D+05 0.12359620D+01  1  2  4  3  6  5        2 -.619026946089D-01 0.100000000000D+01
-.752516784892D-06 0.000000000000D+00 0.000000000000D+00 0.620673503734D-06 0.000000000000D+00  6 2 21 25 23 2 21 4 0.27262552D+00 0.22245822D-02 0.19128484D+05 0.19128484D+05 0.19128484D+05 0.12359620D+01  1  2  5  3  6  5        2 -.230743524763D-01 0.100000000000D+01
0.157065646957D-05 0.000000000000D+00 -.000000000000D+00 0.620673503734D-06 0.000000000000D+00  6 2 21 25 23 2 21 4 0.27262552D+00 0.22245822D-02 0.19128484D+05 0.19128484D+05 0.19128484D+05 0.12359620D+01  1  2  6  3  6  5        2 0.481608938508D-01 0.100000000000D+01
  </mgrwgt>
  </event>
  <event>
  5     66 0.49447450E-03 0.29795920E+02 0.75467711E-02 0.12111599E+00
        4 -1    0    0  502    0 0.00000000E+00 0.00000000E+00 0.37889821E+03 0.37890138E+03 0.15500000E+01 0.0000E+00 0.9000E+01
       21 -1    0    0  501  502 0.00000000E+00 0.00000000E+00 -.10008779E+03 0.10009060E+03 0.75000000E+00 0.0000E+00 0.9000E+01
       25  1    1    2    0    0 -.59192798E+02 0.13235599E+02 0.30174314E+03 0.33219405E+03 0.12500000E+03 0.0000E+00 0.9000E+01
       23  1    1    2    0    0 0.54573417E+02 -.42656419E+02 -.12448059E+02 0.11518695E+03 0.91188000E+02 0.0000E+00 0.9000E+01
        4  1    1    2  501    0 0.46193810E+01 0.29420819E+02 -.10484657E+02 0.31610976E+02 0.15500000E+01 0.0000E+00 0.9000E+01
#aMCatNLO 1  0  0  5  2 0.10692326D+02 0.00000000D+00  -5  6  0 0.00000000D+00 0.00000000D+00 0.00000000D+00 0.00000000D+00 0.00000000D+00
  <mgrwgt>
 0.2398900403D-03    1    2    0
 0.194742179190649D+03 0.000000000000000D+00 0.000000000000000D+00 0.194742179190649D+03
 0.194742179190649D+03 -.000000000000000D+00 -.000000000000000D+00 -.194742179190649D+03
 0.192541076560369D+03 -.591940747506034D+02 0.132274707512739D+02 0.133297268145188D+03
 0.150565464448557D+03 0.545724194322829D+02 -.426627753768934D+02 -.977570783885102D+02
 0.463778173723716D+02 0.462165531832057D+01 0.294353046256195D+02 -.355401897566779D+02
 0.000000000000000D+00 0.000000000000000D+00 -.000000000000000D+00 0.000000000000000D+00
 0.194742179190649D+03 0.000000000000000D+00 0.000000000000000D+00 0.194742179190649D+03
 0.194742179190649D+03 -.000000000000000D+00 -.000000000000000D+00 -.194742179190649D+03
 0.188912943311913D+03 -.584761358617277D+02 0.178000207233295D+02 0.127776370850403D+03
 0.152685983698859D+03 0.551431723838596D+02 -.390276520631673D+02 -.102146126642025D+03
 0.808099193679593D+01 -.320638691007652D+01 0.269169400512901D-01 0.741759995846287D+01
 0.398044394337297D+02 0.653935038794455D+01 0.212007143997865D+02 -.330478441668413D+02
0.237578336860D-06 0.000000000000D+00 0.000000000000D+00 0.248733083807D-06 0.000000000000D+00  6 4 21 25 23 4 21 4 0.58292492D-01 0.15398581D-01 0.20057451D+05 0.20057451D+05 0.20057451D+05 0.12336889D+01  1  2 14  3  6  5        4 0.239890040287D-03 0.100000000000D+01
  </mgrwgt>
  </event>
  <event>
  5     66 -.49447450E-03 0.41544774E+02 0.75467711E-02 0.11792305E+00
        2 -1    0    0  502    0 0.00000000E+00 0.00000000E+00 0.15960503E+04 0.15960504E+04 0.32000000E+00 0.0000E+00 0.9000E+01
       21 -1    0    0  501  502 0.00000000E+00 0.00000000E+00 -.15118416E+02 0.15137008E+02 0.75000000E+00 0.0000E+00 0.9000E+01
       25  1    1    2    0    0 -.17801738E+02 0.71541829E+02 0.10680192E+04 0.10778336E+04 0.12500000E+03 0.0000E+00 0.9000E+01
       23  1    1    2    0    0 0.30460698E+02 -.31973782E+02 0.30683853E+03 0.32313358E+03 0.91188000E+02 0.0000E+00 0.9000E+01
        2  1    1    2  501    0 -.12658961E+02 -.39568047E+02 0.20607414E+03 0.21022020E+03 0.32000000E+00 0.0000E+00 0.9000E+01
#aMCatNLO 1  0  0  2  1 0.45481752D+02 0.00000000D+00  -5  6  0 0.00000000D+00 0.00000000D+00 0.00000000D+00 0.00000000D+00 0.00000000D+00
  <mgrwgt>
 -.9511578367D+00   12    2    0
 0.155385830612606D+03 0.000000000000000D+00 0.000000000000000D+00 0.155385830612606D+03
 0.155385830612606D+03 0.000000000000000D+00 0.000000000000000D+00 -.155385830612606D+03
 0.154860431193456D+03 -.178015508644454D+02 0.715424135736027D+02 0.540512811717473D+02
 0.114353714431691D+03 0.304608365350760D+02 -.319733503928225D+02 -.530222874135575D+02
 0.415575156000644D+02 -.126592856706305D+02 -.395690631807802D+02 -.102899375818974D+01
 0.000000000000000D+00 -.000000000000000D+00 0.000000000000000D+00 -.000000000000000D+00
 0.157332223870252D+03 0.000000000000000D+00 0.000000000000000D+00 0.157332223870252D+03
 0.193335973793820D+04 0.000000000000000D+00 0.000000000000000D+00 -.193335973793820D+04
 0.152054179879349D+03 0.416971312365878D+01 0.675021934083668D+02 0.540512811717473D+02
 0.120802615197608D+03 0.472951012144247D+02 -.350689454237342D+02 -.530222874135575D+02
 0.412253838990328D+02 -.673306100430500D+01 -.406588162515899D+02 -.102899375818974D+01
 0.177660978283246D+04 -.447317533337785D+02 0.822556826695720D+01 -.177602751406795D+04
0.133971320601D-06 0.000000000000D+00 0.000000000000D+00 0.181768141451D-06 0.000000000000D+00  6 2 21 25 23 2 21 2 0.24554764D+00 0.23273428D-02 0.20733768D+05 0.20733768D+05 0.20733768D+05 0.12321070D+01  1  2  2  2  6  2       21 0.305796202845D-02 0.100000000000D+01
-.308129547713D-08 0.706986082157D-08 -.270449497445D-09 0.181768141451D-06 0.000000000000D+00  6 2 21 25 23 2 21 4 0.24554764D+00 0.23273428D-02 0.20733768D+05 0.20733768D+05 0.20733768D+05 0.12321070D+01  1  2  3  2  6  2       21 -.106770299800D-03 0.100000000000D+01
0.126929286651D-07 0.000000000000D+00 0.000000000000D+00 0.181768141451D-06 0.000000000000D+00  6 2 21 25 23 2 21 4 0.24554764D+00 0.23273428D-02 0.20733768D+05 0.20733768D+05 0.20733768D+05 0.12321070D+01  1  2 15  2  6  2       21 0.439824031474D-03 0.100000000000D+01
-.173999730887D-02 0.000000000000D+00 -.621125126066D-05 0.181768141451D-06 0.000000000000D+00  6 2 21 25 23 2 21 4 0.24554764D+00 0.29050811D-01 0.20733768D+05 0.20733768D+05 0.20733768D+05 0.12321070D+01  1  2  5  2  6  2       21 -.733937659588D+00 0.100000000000D+01
-.766293825880D-03 0.000000000000D+00 -.273193189157D-05 0.181768141451D-06 0.000000000000D+00  6 2 -1 25 23 2 -1 4 0.24554764D+00 0.29050811D-01 0.20733768D+05 0.20733768D+05 0.20733768D+05 0.12321070D+01  1  2  5  5  6  2       21 -.277582844608D-01 0.100000000000D+01
-.766293825880D-03 0.000000000000D+00 -.273193189157D-05 0.181768141451D-06 0.000000000000D+00  6 2 -3 25 23 2 -3 4 0.24554764D+00 0.29050811D-01 0.20733768D+05 0.20733768D+05 0.20733768D+05 0.12321070D+01  1  2  5  5  6  2       21 -.156042641333D-01 0.100000000000D+01
-.766293825880D-03 0.000000000000D+00 -.273193189157D-05 0.181768141451D-06 0.000000000000D+00  6 2 1 25 23 2 1 4 0.24554764D+00 0.29050811D-01 0.20733768D+05 0.20733768D+05 0.20733768D+05 0.12321070D+01  1  2  5  6  6  2       21 -.481072491114D-01 0.100000000000D+01
-.766293825880D-03 0.000000000000D+00 -.273193189157D-05 0.181768141451D-06 0.000000000000D+00  6 2 3 25 23 2 3 4 0.24554764D+00 0.29050811D-01 0.20733768D+05 0.20733768D+05 0.20733768D+05 0.12321070D+01  1  2  5  6  6  2       21 -.156043762296D-01 0.100000000000D+01
-.766293825880D-03 0.000000000000D+00 -.273193189157D-05 0.181768141451D-06 0.000000000000D+00  6 2 -2 25 23 2 -2 4 0.24554764D+00 0.29050811D-01 0.20733768D+05 0.20733768D+05 0.20733768D+05 0.12321070D+01  1  2  5  7  6  2       21 -.244501259402D-01 0.100000000000D+01
-.766293825880D-03 0.000000000000D+00 -.273193189157D-05 0.181768141451D-06 0.000000000000D+00  6 2 2 25 23 2 2 4 0.24554764D+00 0.29050811D-01 0.20733768D+05 0.20733768D+05 0.20733768D+05 0.12321070D+01  1  2  5  8  6  2       21 -.628610614021D-01 0.100000000000D+01
-.766293825880D-03 0.000000000000D+00 -.273193189157D-05 0.181768141451D-06 0.000000000000D+00  6 2 -4 25 23 2 -4 4 0.24554764D+00 0.29050811D-01 0.20733768D+05 0.20733768D+05 0.20733768D+05 0.12321070D+01  1  2  5  9  6  2       21 -.131129157914D-01 0.100000000000D+01
-.766293825880D-03 0.000000000000D+00 -.273193189157D-05 0.181768141451D-06 0.000000000000D+00  6 2 4 25 23 2 4 4 0.24554764D+00 0.29050811D-01 0.20733768D+05 0.20733768D+05 0.20733768D+05 0.12321070D+01  1  2  5 10  6  2       21 -.131129157914D-01 0.100000000000D+01
  </mgrwgt>
  </event>
  <event>
  5     66 0.49447450E-03 0.61532950E+02 0.75467711E-02 0.11878427E+00
        2 -1    0    0  502    0 0.00000000E+00 0.00000000E+00 0.18769482E+04 0.18769482E+04 0.32000000E+00 0.0000E+00 0.9000E+01
       21 -1    0    0  501  502 0.00000000E+00 0.00000000E+00 -.18687962E+02 0.18703006E+02 0.75000000E+00 0.0000E+00 0.9000E+01
       25  1    1    2    0    0 -.31261770E+02 -.21137712E+02 0.78458479E+03 0.79537563E+03 0.12500000E+03 0.0000E+00 0.9000E+01
       23  1    1    2    0    0 -.25960697E+02 -.14869343E+01 0.99910653E+03 0.10035962E+04 0.91188000E+02 0.0000E+00 0.9000E+01
        2  1    1    2  501    0 0.57222467E+02 0.22624647E+02 0.74568899E+02 0.96679410E+02 0.32000000E+00 0.0000E+00 0.9000E+01
#aMCatNLO 1  0  0  2  2 0.31913926D+02 0.00000000D+00  -5  6  0 0.00000000D+00 0.00000000D+00 0.00000000D+00 0.00000000D+00 0.00000000D+00
  <mgrwgt>
 0.8579140975D-02    4    2    0
 0.187324908376749D+03 0.000000000000000D+00 0.000000000000000D+00 0.187324908376749D+03
 0.187324908376749D+03 0.000000000000000D+00 0.000000000000000D+00 -.187324908376749D+03
 0.132903024413353D+03 -.312618431009526D+02 -.211377411600054D+02 0.247811816263948D+02
 0.122430111375560D+03 -.259607640579527D+02 -.148696090544042D+01 0.774448739699736D+02
 0.119316680964584D+03 0.572226071589053D+02 0.226247020654458D+02 -.102226055596368D+03
 0.000000000000000D+00 -.000000000000000D+00 0.000000000000000D+00 0.000000000000000D+00
 0.260992348271276D+03 0.000000000000000D+00 0.000000000000000D+00 0.260992348271276D+03
 0.191491846983252D+03 0.000000000000000D+00 0.000000000000000D+00 -.191491846983252D+03
 0.133304821247157D+03 -.246924773584060D+02 -.303537471630901D+02 0.247811816263948D+02
 0.121693021891503D+03 -.199363956000336D+02 -.993840325906013D+01 0.774448739699736D+02
 0.121008784316993D+03 0.631532583565253D+02 0.143047334137568D+02 -.102226055596368D+03
 0.764775677988750D+02 -.185243853980857D+02 0.259874170083935D+02 0.695005012880237D+02
0.658075523124D-06 0.000000000000D+00 0.000000000000D+00 0.650201626979D-06 0.000000000000D+00  6 2 21 25 23 2 21 2 0.28876242D+00 0.28762304D-02 0.20581962D+05 0.20581962D+05 0.20581962D+05 0.12324570D+01  1  2  2  2  6  2       21 0.762954198452D-02 0.100000000000D+01
0.921323269442D-08 0.347275994422D-07 -.132846488123D-08 0.650201626979D-06 0.000000000000D+00  6 2 21 25 23 2 21 4 0.28876242D+00 0.28762304D-02 0.20581962D+05 0.20581962D+05 0.20581962D+05 0.12324570D+01  1  2  3  2  6  2       21 0.162247619370D-03 0.100000000000D+01
0.770149813539D-07 0.000000000000D+00 0.000000000000D+00 0.650201626979D-06 0.000000000000D+00  6 2 21 25 23 2 21 4 0.28876242D+00 0.28762304D-02 0.20581962D+05 0.20581962D+05 0.20581962D+05 0.12324570D+01  1  2 15  2  6  2       21 0.135625548545D-02 0.100000000000D+01
-.323052258171D-07 0.000000000000D+00 0.000000000000D+00 0.650201626979D-06 0.000000000000D+00  6 2 21 25 23 2 21 4 0.28876242D+00 0.28762304D-02 0.20581962D+05 0.20581962D+05 0.20581962D+05 0.12324570D+01  1  2  4  2  6  2       21 -.568904113885D-03 0.100000000000D+01
  </mgrwgt>
  </event>
  <event>
  5     66 0.49447450E-03 0.76481350E+02 0.75467711E-02 0.11606300E+00
        2 -1    0    0  502    0 0.00000000E+00 0.00000000E+00 0.47719575E+03 0.47719586E+03 0.32000000E+00 0.0000E+00 0.9000E+01
       21 -1    0    0  501  502 0.00000000E+00 0.00000000E+00 -.78433424E+02 0.78437010E+02 0.75000000E+00 0.0000E+00 0.9000E+01
       25  1    1    2    0    0 -.98797879E+02 0.23012975E+02 0.12659476E+03 0.20479710E+03 0.12500000E+03 0.0000E+00 0.9000E+01
       23  1    1    2    0    0 0.30667846E+02 -.68767681E+02 0.22987677E+03 0.25851130E+03 0.91188000E+02 0.0000E+00 0.9000E+01
        2  1    1    2  501    0 0.68130034E+02 0.45754706E+02 0.42290801E+02 0.92324476E+02 0.32000000E+00 0.0000E+00 0.9000E+01
#aMCatNLO 1  0  0  2  5 0.13935787D+02 0.00000000D+00  -5  6  0 0.00000000D+00 0.00000000D+00 0.00000000D+00 0.00000000D+00 0.00000000D+00
  <mgrwgt>
 0.2888778314D-01   32    2    0
 0.193466076567564D+03 0.000000000000000D+00 0.000000000000000D+00 0.193466076567564D+03
 0.193466076567564D+03 0.000000000000000D+00 0.000000000000000D+00 -.193466076567564D+03
 0.163622504422330D+03 -.987980654563817D+02 0.230128500695443D+02 -.292690100138126D+02
 0.134316052017742D+03 0.306676927209841D+02 -.687677838164431D+02 0.636870082338551D+02
 0.889935966950553D+02 0.681303727353976D+02 0.457549337468988D+02 -.344179982200425D+02
 0.000000000000000D+00 0.000000000000000D+00 -.000000000000000D+00 -.000000000000000D+00
 0.195274678515197D+03 0.000000000000000D+00 0.000000000000000D+00 0.195274678515197D+03
 0.222436907760209D+03 0.000000000000000D+00 0.000000000000000D+00 -.222436907760209D+03
 0.165718343662268D+03 -.100814728151939D+03 0.285881980304362D+02 -.292690100138126D+02
 0.131698371880773D+03 0.290387986184872D+02 -.642644767275227D+02 0.636870082338551D+02
 0.897663126141888D+02 0.670357668197883D+02 0.487811259172684D+02 -.344179982200425D+02
 0.305285581181763D+02 0.474016271366366D+01 -.131048472201819D+02 -.271622292450114D+02
0.522607449267D-06 0.000000000000D+00 0.000000000000D+00 0.112725649587D-06 0.000000000000D+00  6 2 21 25 23 2 21 2 0.73415015D-01 0.12066965D-01 0.32636089D+05 0.32636089D+05 0.32636089D+05 0.12110782D+01  1  2  2  2  6  2       21 0.365720530197D-02 0.100000000000D+01
-.242192539999D-07 0.275787527812D-07 -.105499387019D-08 0.112725649587D-06 0.000000000000D+00  6 2 21 25 23 2 21 4 0.73415015D-01 0.12066965D-01 0.32636089D+05 0.32636089D+05 0.32636089D+05 0.12110782D+01  1  2  3  2  6  2       21 -.248587252991D-03 0.100000000000D+01
0.501296549285D-07 0.000000000000D+00 0.000000000000D+00 0.112725649587D-06 0.000000000000D+00  6 2 21 25 23 2 21 4 0.73415015D-01 0.12066965D-01 0.32636089D+05 0.32636089D+05 0.32636089D+05 0.12110782D+01  1  2 15  2  6  2       21 0.514532496009D-03 0.100000000000D+01
0.517591713037D-05 0.000000000000D+00 0.000000000000D+00 0.112093923941D-06 0.000000000000D+00  6 2 21 25 23 2 21 4 0.73415015D-01 0.13925050D-01 0.35199441D+05 0.35199441D+05 0.35199441D+05 0.12076799D+01  1  2 12  2  6  2       21 0.405948313239D-01 0.100000000000D+01
0.430613652325D-05 0.000000000000D+00 0.000000000000D+00 0.112093923941D-06 0.000000000000D+00  6 2 21 25 23 2 21 4 0.73415015D-01 0.14280397D-01 0.35199441D+05 0.35199441D+05 0.35199441D+05 0.12076799D+01  1  2 12  2  6  2       21 0.322666891803D-01 0.100000000000D+01
-.729803404899D-05 0.000000000000D+00 0.000000000000D+00 0.112725649587D-06 0.000000000000D+00  6 2 21 25 23 2 21 4 0.73415015D-01 0.12066965D-01 0.32636089D+05 0.32636089D+05 0.32636089D+05 0.12110782D+01  1  2  4  2  6  2       21 -.749072715649D-01 0.100000000000D+01
-.140185301944D-04 0.000000000000D+00 -.125866379321D-05 0.112725649587D-06 0.000000000000D+00  6 2 21 25 23 2 21 4 0.73415015D-01 0.13981287D-01 0.32636089D+05 0.32636089D+05 0.32636089D+05 0.12110782D+01  1  2  5  2  6  2       21 -.110428328318D+00 0.100000000000D+01
0.134666127289D-04 0.000000000000D+00 0.120571560154D-05 0.112725649587D-06 0.000000000000D+00  6 2 21 25 23 2 21 4 0.73415015D-01 0.12066965D-01 0.32636089D+05 0.32636089D+05 0.32636089D+05 0.12110782D+01  1  2  6  2  6  2       21 0.138221774518D+00 0.100000000000D+01
0.199728536316D-06 0.000000000000D+00 0.000000000000D+00 0.112093923941D-06 0.000000000000D+00  6 2 -1 25 23 2 -1 4 0.73415015D-01 0.13925050D-01 0.35199441D+05 0.35199441D+05 0.35199441D+05 0.12076799D+01  1  2 12  5  6  2       21 0.113438516056D-03 0.100000000000D+01
0.199728536316D-06 0.000000000000D+00 0.000000000000D+00 0.112093923941D-06 0.000000000000D+00  6 2 -3 25 23 2 -3 4 0.73415015D-01 0.13925050D-01 0.35199441D+05 0.35199441D+05 0.35199441D+05 0.12076799D+01  1  2 12  5  6  2       21 0.723252737809D-04 0.100000000000D+01
0.201115488559D-06 0.000000000000D+00 0.000000000000D+00 0.112093923941D-06 0.000000000000D+00  6 2 -1 25 23 2 -1 4 0.73415015D-01 0.14280397D-01 0.35199441D+05 0.35199441D+05 0.35199441D+05 0.12076799D+01  1  2 12  5  6  2       21 0.109788367329D-03 0.100000000000D+01
0.201115488559D-06 0.000000000000D+00 0.000000000000D+00 0.112093923941D-06 0.000000000000D+00  6 2 -3 25 23 2 -3 4 0.73415015D-01 0.14280397D-01 0.35199441D+05 0.35199441D+05 0.35199441D+05 0.12076799D+01  1  2 12  5  6  2       21 0.697515521814D-04 0.100000000000D+01
-.581134688983D-06 0.000000000000D+00 -.501724073966D-07 0.112725649587D-06 0.000000000000D+00  6 2 -1 25 23 2 -1 4 0.73415015D-01 0.13981287D-01 0.32636089D+05 0.32636089D+05 0.32636089D+05 0.12110782D+01  1  2  5  5  6  2       21 -.331320454904D-03 0.100000000000D+01
-.581134688983D-06 0.000000000000D+00 -.501724073966D-07 0.112725649587D-06 0.000000000000D+00  6 2 -3 25 23 2 -3 4 0.73415015D-01 0.13981287D-01 0.32636089D+05 0.32636089D+05 0.32636089D+05 0.12110782D+01  1  2  5  5  6  2       21 -.210774383757D-03 0.100000000000D+01
0.199728536316D-06 0.000000000000D+00 0.000000000000D+00 0.112093923941D-06 0.000000000000D+00  6 2 1 25 23 2 1 4 0.73415015D-01 0.13925050D-01 0.35199441D+05 0.35199441D+05 0.35199441D+05 0.12076799D+01  1  2 12  6  6  2       21 0.153226657656D-03 0.100000000000D+01
0.199728536316D-06 0.000000000000D+00 0.000000000000D+00 0.112093923941D-06 0.000000000000D+00  6 2 3 25 23 2 3 4 0.73415015D-01 0.13925050D-01 0.35199441D+05 0.35199441D+05 0.35199441D+05 0.12076799D+01  1  2 12  6  6  2       21 0.723167839219D-04 0.100000000000D+01
0.201115488559D-06 0.000000000000D+00 0.000000000000D+00 0.112093923941D-06 0.000000000000D+00  6 2 1 25 23 2 1 4 0.73415015D-01 0.14280397D-01 0.35199441D+05 0.35199441D+05 0.35199441D+05 0.12076799D+01  1  2 12  6  6  2       21 0.149276445122D-03 0.100000000000D+01
0.201115488559D-06 0.000000000000D+00 0.000000000000D+00 0.112093923941D-06 0.000000000000D+00  6 2 3 25 23 2 3 4 0.73415015D-01 0.14280397D-01 0.35199441D+05 0.35199441D+05 0.35199441D+05 0.12076799D+01  1  2 12  6  6  2       21 0.697434368473D-04 0.100000000000D+01
-.581134688983D-06 0.000000000000D+00 -.501724073966D-07 0.112725649587D-06 0.000000000000D+00  6 2 1 25 23 2 1 4 0.73415015D-01 0.13981287D-01 0.32636089D+05 0.32636089D+05 0.32636089D+05 0.12110782D+01  1  2  5  6  6  2       21 -.448036417245D-03 0.100000000000D+01
-.581134688983D-06 0.000000000000D+00 -.501724073966D-07 0.112725649587D-06 0.000000000000D+00  6 2 3 25 23 2 3 4 0.73415015D-01 0.13981287D-01 0.32636089D+05 0.32636089D+05 0.32636089D+05 0.12110782D+01  1  2  5  6  6  2       21 -.210749461292D-03 0.100000000000D+01
0.199728536316D-06 0.000000000000D+00 0.000000000000D+00 0.112093923941D-06 0.000000000000D+00  6 2 -2 25 23 2 -2 4 0.73415015D-01 0.13925050D-01 0.35199441D+05 0.35199441D+05 0.35199441D+05 0.12076799D+01  1  2 12  7  6  2       21 0.106595800094D-03 0.100000000000D+01
0.201115488559D-06 0.000000000000D+00 0.000000000000D+00 0.112093923941D-06 0.000000000000D+00  6 2 -2 25 23 2 -2 4 0.73415015D-01 0.14280397D-01 0.35199441D+05 0.35199441D+05 0.35199441D+05 0.12076799D+01  1  2 12  7  6  2       21 0.103002873655D-03 0.100000000000D+01
-.581134688983D-06 0.000000000000D+00 -.501724073966D-07 0.112725649587D-06 0.000000000000D+00  6 2 -2 25 23 2 -2 4 0.73415015D-01 0.13981287D-01 0.32636089D+05 0.32636089D+05 0.32636089D+05 0.12110782D+01  1  2  5  7  6  2       21 -.311241205545D-03 0.100000000000D+01
0.199728536316D-06 0.000000000000D+00 0.000000000000D+00 0.112093923941D-06 0.000000000000D+00  6 2 2 25 23 2 2 4 0.73415015D-01 0.13925050D-01 0.35199441D+05 0.35199441D+05 0.35199441D+05 0.12076799D+01  1  2 12  8  6  2       21 0.180631514347D-03 0.100000000000D+01
0.201115488559D-06 0.000000000000D+00 0.000000000000D+00 0.112093923941D-06 0.000000000000D+00  6 2 2 25 23 2 2 4 0.73415015D-01 0.14280397D-01 0.35199441D+05 0.35199441D+05 0.35199441D+05 0.12076799D+01  1  2 12  8  6  2       21 0.176512612553D-03 0.100000000000D+01
-.581134688983D-06 0.000000000000D+00 -.501724073966D-07 0.112725649587D-06 0.000000000000D+00  6 2 2 25 23 2 2 4 0.73415015D-01 0.13981287D-01 0.32636089D+05 0.32636089D+05 0.32636089D+05 0.12110782D+01  1  2  5  8  6  2       21 -.528400934369D-03 0.100000000000D+01
0.199728536316D-06 0.000000000000D+00 0.000000000000D+00 0.112093923941D-06 0.000000000000D+00  6 2 -4 25 23 2 -4 4 0.73415015D-01 0.13925050D-01 0.35199441D+05 0.35199441D+05 0.35199441D+05 0.12076799D+01  1  2 12  9  6  2       21 0.628328969111D-04 0.100000000000D+01
0.201115488559D-06 0.000000000000D+00 0.000000000000D+00 0.112093923941D-06 0.000000000000D+00  6 2 -4 25 23 2 -4 4 0.73415015D-01 0.14280397D-01 0.35199441D+05 0.35199441D+05 0.35199441D+05 0.12076799D+01  1  2 12  9  6  2       21 0.605437685407D-04 0.100000000000D+01
-.581134688983D-06 0.000000000000D+00 -.501724073966D-07 0.112725649587D-06 0.000000000000D+00  6 2 -4 25 23 2 -4 4 0.73415015D-01 0.13981287D-01 0.32636089D+05 0.32636089D+05 0.32636089D+05 0.12110782D+01  1  2  5  9  6  2       21 -.182951425657D-03 0.100000000000D+01
0.199728536316D-06 0.000000000000D+00 0.000000000000D+00 0.112093923941D-06 0.000000000000D+00  6 2 4 25 23 2 4 4 0.73415015D-01 0.13925050D-01 0.35199441D+05 0.35199441D+05 0.35199441D+05 0.12076799D+01  1  2 12 10  6  2       21 0.628328969111D-04 0.100000000000D+01
0.201115488559D-06 0.000000000000D+00 0.000000000000D+00 0.112093923941D-06 0.000000000000D+00  6 2 4 25 23 2 4 4 0.73415015D-01 0.14280397D-01 0.35199441D+05 0.35199441D+05 0.35199441D+05 0.12076799D+01  1  2 12 10  6  2       21 0.605437685407D-04 0.100000000000D+01
-.581134688983D-06 0.000000000000D+00 -.501724073966D-07 0.112725649587D-06 0.000000000000D+00  6 2 4 25 23 2 4 4 0.73415015D-01 0.13981287D-01 0.32636089D+05 0.32636089D+05 0.32636089D+05 0.12110782D+01  1  2  5 10  6  2       21 -.182951425657D-03 0.100000000000D+01
  </mgrwgt>
  </event>
  <event>
  6     66 0.49447450E-03 0.66679886E+02 0.75467711E-02 0.11474420E+00
        2 -1    0    0  502    0 0.00000000E+00 0.00000000E+00 0.54438545E+03 0.54438554E+03 0.32000000E+00 0.0000E+00 0.9000E+01
       21 -1    0    0  501  502 -.00000000E+00 -.00000000E+00 -.12004592E+04 0.12004594E+04 0.75000000E+00 0.0000E+00 0.9000E+01
       25  1    1    2    0    0 0.69664877E+02 0.11955050E+02 0.27694566E+03 0.31196156E+03 0.12500000E+03 0.0000E+00 0.9000E+01
       23  1    1    2    0    0 -.14061155E+03 -.50414378E+02 0.21740116E+03 0.27909091E+03 0.91188000E+02 0.0000E+00 0.9000E+01
        2  1    1    2  503    0 0.38356676E+02 0.38431960E+02 -.62104534E+03 0.62341452E+03 0.32000000E+00 0.0000E+00 0.9000E+01
       21  1    1    2  501  503 0.32590001E+02 0.27368330E-01 -.52937522E+03 0.53037798E+03 0.75000000E+00 0.0000E+00 0.9000E+01
#aMCatNLO 2  0  0  5  2 0.17656595D+02 0.00000000D+00  -5  6  0 0.00000000D+00 0.00000000D+00 0.00000000D+00 0.00000000D+00 0.00000000D+00
  <mgrwgt>
 0.4572126482D+00    2    2    0
 0.808401386407227D+03 0.000000000000000D+00 0.000000000000000D+00 0.808401386407227D+03
 0.808401386407227D+03 -.000000000000000D+00 -.000000000000000D+00 -.808401386407227D+03
 0.449255663277890D+03 0.696443910268169D+02 0.119439444819406D+02 0.425690793858609D+03
 0.389592136981233D+03 -.140629319343624D+03 -.504240085342682D+02 0.348062631947023D+03
 0.777954972555331D+03 0.709849283168067D+02 0.384800640523275D+02 -.773753425805632D+03
 0.000000000000000D+00 0.000000000000000D+00 0.000000000000000D+00 -.000000000000000D+00
 0.808401386407227D+03 0.000000000000000D+00 0.000000000000000D+00 0.808401386407227D+03
 0.808401386407227D+03 -.000000000000000D+00 -.000000000000000D+00 -.808401386407227D+03
 0.449047882819145D+03 0.696648445197505D+02 0.119550320710506D+02 0.425467845683520D+03
 0.389411766808135D+03 -.140611582186835D+03 -.504143934378592D+02 0.347869292513497D+03
 0.420411692598352D+03 0.383235204028009D+02 0.384113336644665D+02 -.416895512692886D+03
 0.357931430588821D+03 0.326232172642830D+02 0.480277023420577D-01 -.356441625504131D+03
-.120891880170D-01 0.000000000000D+00 0.000000000000D+00 0.681061191000D-05 0.000000000000D+00  6 2 21 25 23 2 21 4 0.83751632D-01 0.18468606D+00 0.41106244D+05 0.41106244D+05 0.41106244D+05 0.12007990D+01  1  2 13  3  6  5        2 -.298571417880D+00 0.100000000000D+01
0.306017760823D-01 0.000000000000D+00 0.000000000000D+00 0.682584823473D-05 0.170185821557D-06  6 2 21 25 23 2 21 4 0.83751632D-01 0.18468606D+00 0.41106244D+05 0.41106244D+05 0.41106244D+05 0.12007990D+01  1  2  1  3  6  5        2 0.755784066037D+00 0.100000000000D+01
  </mgrwgt>
  </event>
  <event>
  5     66 0.49447450E-03 0.51650352E+02 0.75467711E-02 0.12049101E+00
        2 -1    0    0  502    0 0.00000000E+00 0.00000000E+00 0.18166351E+04 0.18166351E+04 0.32000000E+00 0.0000E+00 0.9000E+01
       21 -1    0    0  501  502 0.00000000E+00 0.00000000E+00 -.34658488E+02 0.34666602E+02 0.75000000E+00 0.0000E+00 0.9000E+01
       25  1    1    2    0    0 -.32519576E+02 -.28724049E+01 0.15325566E+04 0.15379923E+04 0.12500000E+03 0.0000E+00 0.9000E+01
       23  1    1    2    0    0 0.36925492E+02 0.54333613E+02 0.84838804E+02 0.14081373E+03 0.91188000E+02 0.0000E+00 0.9000E+01
        2  1    1    2  501    0 -.44059156E+01 -.51461208E+02 0.16458124E+03 0.17249567E+03 0.32000000E+00 0.0000E+00 0.9000E+01
#aMCatNLO 1  0  0  5  5 0.13299227D+01 0.00000000D+00  -5  6  0 0.00000000D+00 0.00000000D+00 0.00000000D+00 0.00000000D+00 0.00000000D+00
  <mgrwgt>
 0.3562610849D-01    5    2    0
 0.250936968689000D+03 0.000000000000000D+00 0.000000000000000D+00 0.250936968689000D+03
 0.250936968689000D+03 -.000000000000000D+00 -.000000000000000D+00 -.250936968689000D+03
 0.231747269130142D+03 -.325195377752145D+02 -.287195368961678D+01 0.192395499672340D+03
 0.218198181561567D+03 0.369255284017507D+02 0.543340375197322D+02 -.187028107010231D+03
 0.519284866862902D+02 -.440599062653616D+01 -.514620838301155D+02 -.536739266210892D+01
 0.000000000000000D+00 0.000000000000000D+00 0.000000000000000D+00 0.000000000000000D+00
 0.250936968689000D+03 0.000000000000000D+00 0.000000000000000D+00 0.250936968689000D+03
 0.250936968689000D+03 -.000000000000000D+00 -.000000000000000D+00 -.250936968689000D+03
 0.231644527070657D+03 -.326703564924055D+02 -.463352018512559D+01 0.192211771801681D+03
 0.217915772625341D+03 0.367835877207572D+02 0.526761667153328D+02 -.187201019627210D+03
 0.214060368200036D+01 -.103141589863254D+01 0.182572534056298D+01 -.430223602639205D+00
 0.501730340000012D+02 -.308181532971914D+01 -.498683718707702D+02 -.458052857183115D+01
0.972571740153D-05 0.000000000000D+00 0.000000000000D+00 0.264954602887D-07 0.000000000000D+00  6 2 21 25 23 2 21 2 0.27948295D+00 0.53327014D-02 0.21496037D+05 0.21496037D+05 0.21496037D+05 0.12303919D+01  1  2  2  3  6  5        2 0.431434700229D-01 0.100000000000D+01
-.231913611689D-06 0.513240207757D-06 -.196334213303D-07 0.264954602887D-07 0.000000000000D+00  6 2 21 25 23 2 21 4 0.27948295D+00 0.53327014D-02 0.21496037D+05 0.21496037D+05 0.21496037D+05 0.12303919D+01  1  2  3  3  6  5        2 -.155742303113D-02 0.100000000000D+01
0.981738052310D-06 0.000000000000D+00 0.000000000000D+00 0.264954602887D-07 0.000000000000D+00  6 2 21 25 23 2 21 4 0.27948295D+00 0.53327014D-02 0.21496037D+05 0.21496037D+05 0.21496037D+05 0.12303919D+01  1  2 15  3  6  5        2 0.659289225014D-02 0.100000000000D+01
-.640224223994D-05 0.000000000000D+00 0.000000000000D+00 0.264954602887D-07 0.000000000000D+00  6 2 21 25 23 2 21 4 0.27948295D+00 0.53327014D-02 0.21496037D+05 0.21496037D+05 0.21496037D+05 0.12303919D+01  1  2  4  3  6  5        2 -.429944557491D-01 0.100000000000D+01
0.453117834994D-05 0.000000000000D+00 0.000000000000D+00 0.264954602887D-07 0.262485185432D-08  6 2 21 25 23 2 21 4 0.27948295D+00 0.53327014D-02 0.21446263D+05 0.21446263D+05 0.21446263D+05 0.12305018D+01  1  2 11  3  6  5        2 0.304416249951D-01 0.100000000000D+01
  </mgrwgt>
  </event>
  <event>
  5     66 -.49447450E-03 0.22607235E+02 0.75467711E-02 0.11335892E+00
        4 -1    0    0  502    0 0.00000000E+00 0.00000000E+00 0.12371458E+03 0.12372429E+03 0.15500000E+01 0.0000E+00 0.9000E+01
       21 -1    0    0  501  502 0.00000000E+00 0.00000000E+00 -.57265523E+03 0.57265573E+03 0.75000000E+00 0.0000E+00 0.9000E+01
       25  1    1    2    0    0 -.46559066E+02 0.91422969E+02 -.20546757E+03 0.26147242E+03 0.12500000E+03 0.0000E+00 0.9000E+01
       23  1    1    2    0    0 0.49289532E+02 -.68982264E+02 0.54612189E+02 0.13596232E+03 0.91188000E+02 0.0000E+00 0.9000E+01
        4  1    1    2  501    0 -.27304659E+01 -.22440705E+02 -.29808528E+03 0.29894527E+03 0.15500000E+01 0.0000E+00 0.9000E+01
#aMCatNLO 1  0  0  1  1 0.25474797D+03 0.00000000D+00  -5  6  0 0.00000000D+00 0.00000000D+00 0.00000000D+00 0.00000000D+00 0.00000000D+00
  <mgrwgt>
 -.1159636316D-01    5    2    0
 0.266175418462769D+03 0.000000000000000D+00 0.000000000000000D+00 0.266175418462769D+03
 0.266175418462769D+03 0.000000000000000D+00 0.000000000000000D+00 -.266175418462769D+03
 0.168763016694713D+03 -.465590125688490D+02 0.914234069706749D+02 -.482698126201886D+02
 0.223913555060061D+03 0.492896025050797D+02 -.689816830364149D+02 0.186102367760299D+03
 0.139674265170765D+03 -.273058993623077D+01 -.224417239342600D+02 -.137832555140111D+03
 0.000000000000000D+00 0.000000000000000D+00 -.000000000000000D+00 0.000000000000000D+00
 0.530906365293667D+03 0.000000000000000D+00 0.000000000000000D+00 0.530906365293667D+03
 0.285718245503190D+03 0.000000000000000D+00 0.000000000000000D+00 -.285718245503190D+03
 0.188087731336982D+03 -.837884636831132D+02 0.101987809186825D+03 -.482698126201886D+02
 0.214703108715678D+03 0.352969382614330D+01 -.559966385033960D+02 0.186102367760299D+03
 0.142230668409743D+03 -.321411096044514D+02 -.140960580739857D+02 -.137832555140111D+03
 0.271603102334455D+03 0.112399879461421D+03 -.318951126094431D+02 0.245188119790477D+03
0.274218665135D-04 0.000000000000D+00 0.000000000000D+00 0.132781280999D-05 0.000000000000D+00  6 4 21 25 23 4 21 2 0.19033797D-01 0.88101590D-01 0.23844253D+05 0.23844253D+05 0.23844253D+05 0.12255077D+01  1  2  2  1  6  1        4 0.471142192240D-02 0.100000000000D+01
0.668253250701D-05 0.144709165252D-05 -.553568479009D-07 0.132781280999D-05 0.000000000000D+00  6 4 21 25 23 4 21 4 0.19033797D-01 0.88101590D-01 0.23844253D+05 0.23844253D+05 0.23844253D+05 0.12255077D+01  1  2  3  1  6  1        4 0.172436081922D-02 0.100000000000D+01
0.355042011361D-05 0.000000000000D+00 0.000000000000D+00 0.132781280999D-05 0.000000000000D+00  6 4 21 25 23 4 21 4 0.19033797D-01 0.88101590D-01 0.23844253D+05 0.23844253D+05 0.23844253D+05 0.12255077D+01  1  2 15  1  6  1        4 0.916150475776D-03 0.100000000000D+01
-.114344807832D-03 0.000000000000D+00 -.265691213822D-04 0.132781280999D-05 0.000000000000D+00  6 4 21 25 23 4 21 4 0.40047214D-01 0.88101590D-01 0.23844253D+05 0.23844253D+05 0.23844253D+05 0.12255077D+01  1  2  5  1  6  1        4 -.730089007154D-02 0.100000000000D+01
-.755214781035D-05 0.000000000000D+00 -.213751685072D-05 0.132781280999D-05 0.000000000000D+00  6 21 21 25 23 4 -4 4 0.40047214D-01 0.88101590D-01 0.23844253D+05 0.23844253D+05 0.23844253D+05 0.12255077D+01  1  2  5  4  6  1        4 -.116474063025D-01 0.100000000000D+01
  </mgrwgt>
  </event>
  <event>
  5     66 -.49447450E-03 0.20225302E+02 0.75467711E-02 0.12079393E+00
        2 -1    0    0  502    0 0.00000000E+00 0.00000000E+00 0.26134949E+04 0.26134949E+04 0.32000000E+00 0.0000E+00 0.9000E+01
       21 -1    0    0  501  502 0.00000000E+00 0.00000000E+00 -.87838632E+01 0.88158240E+01 0.75000000E+00 0.0000E+00 0.9000E+01
       25  1    1    2    0    0 0.29928451E+02 -.69403089E+01 0.21369321E+04 0.21408053E+04 0.12500000E+03 0.0000E+00 0.9000E+01
       23  1    1    2    0    0 -.10079219E+02 0.30621280E+01 0.41384673E+03 0.42390487E+03 0.91188000E+02 0.0000E+00 0.9000E+01
        2  1    1    2  501    0 -.19849232E+02 0.38781809E+01 0.53932249E+02 0.57600540E+02 0.32000000E+00 0.0000E+00 0.9000E+01
#aMCatNLO 1  0  0  2  1 0.63859924D-01 0.00000000D+00  -5  6  0 0.00000000D+00 0.00000000D+00 0.00000000D+00 0.00000000D+00 0.00000000D+00
  <mgrwgt>
 -.1117968073D+00   12    2    0
 0.151652605652372D+03 0.000000000000000D+00 0.000000000000000D+00 0.151652605652372D+03
 0.151652605652372D+03 0.000000000000000D+00 0.000000000000000D+00 -.151652605652372D+03
 0.157486445463117D+03 0.299288853810350D+02 -.694039384741931D+01 0.907362841298830D+02
 0.110974199293948D+03 -.100789126563726D+02 0.306206820349965D+01 -.623623349700383D+02
 0.348445665476782D+02 -.198499727246624D+02 0.387832564391966D+01 -.283739491598447D+02
 0.000000000000000D+00 0.000000000000000D+00 -.000000000000000D+00 -.000000000000000D+00
 0.153944951079105D+03 0.000000000000000D+00 0.000000000000000D+00 0.153944951079105D+03
 0.722074391883919D+03 0.000000000000000D+00 0.000000000000000D+00 -.722074391883919D+03
 0.154793804321993D+03 0.996325372878977D+01 0.194478119913680D+01 0.907362841298830D+02
 0.113536718548053D+03 -.244330137902914D+02 0.944998036336841D+01 -.623623349700383D+02
 0.379600192575390D+02 -.245047324918315D+02 0.594980307330082D+01 -.283739491598447D+02
 0.569728800835437D+03 0.389744925533332D+02 -.173445646358060D+02 -.568129440804813D+03
0.161356013436D-06 0.000000000000D+00 0.000000000000D+00 0.802625303234D-06 0.000000000000D+00  6 2 21 25 23 2 21 2 0.40207860D+00 0.13538236D-02 0.14488933D+05 0.14488933D+05 0.14488933D+05 0.12495425D+01  1  2  2  2  6  2       21 0.269214706373D-02 0.100000000000D+01
0.121727198877D-07 0.851499076516D-08 -.325731302398D-09 0.802625303234D-06 0.000000000000D+00  6 2 21 25 23 2 21 4 0.40207860D+00 0.13538236D-02 0.14488933D+05 0.14488933D+05 0.14488933D+05 0.12495425D+01  1  2  3  2  6  2       21 0.317105146885D-03 0.100000000000D+01
0.901662195284D-08 0.000000000000D+00 0.000000000000D+00 0.802625303234D-06 0.000000000000D+00  6 2 21 25 23 2 21 4 0.40207860D+00 0.13538236D-02 0.14488933D+05 0.14488933D+05 0.14488933D+05 0.12495425D+01  1  2 15  2  6  2       21 0.234887293484D-03 0.100000000000D+01
-.501435792771D-04 0.000000000000D+00 -.105977044070D-05 0.802625303234D-06 0.000000000000D+00  6 2 21 25 23 2 21 4 0.40207860D+00 0.65414243D-02 0.14488933D+05 0.14488933D+05 0.14488933D+05 0.12495425D+01  1  2  5  2  6  2       21 -.987425341261D-01 0.100000000000D+01
-.196386351560D-04 0.000000000000D+00 -.435423165869D-06 0.802625303234D-06 0.000000000000D+00  6 2 -1 25 23 2 -1 4 0.40207860D+00 0.65414243D-02 0.14488933D+05 0.14488933D+05 0.14488933D+05 0.12495425D+01  1  2  5  5  6  2       21 -.232848711977D-02 0.100000000000D+01
-.196386351560D-04 0.000000000000D+00 -.435423165869D-06 0.802625303234D-06 0.000000000000D+00  6 2 -3 25 23 2 -3 4 0.40207860D+00 0.65414243D-02 0.14488933D+05 0.14488933D+05 0.14488933D+05 0.12495425D+01  1  2  5  5  6  2       21 -.159852151627D-02 0.100000000000D+01
-.196386351560D-04 0.000000000000D+00 -.435423165869D-06 0.802625303234D-06 0.000000000000D+00  6 2 1 25 23 2 1 4 0.40207860D+00 0.65414243D-02 0.14488933D+05 0.14488933D+05 0.14488933D+05 0.12495425D+01  1  2  5  6  6  2       21 -.271672208085D-02 0.100000000000D+01
-.196386351560D-04 0.000000000000D+00 -.435423165869D-06 0.802625303234D-06 0.000000000000D+00  6 2 3 25 23 2 3 4 0.40207860D+00 0.65414243D-02 0.14488933D+05 0.14488933D+05 0.14488933D+05 0.12495425D+01  1  2  5  6  6  2       21 -.159833789856D-02 0.100000000000D+01
-.196386351560D-04 0.000000000000D+00 -.435423165869D-06 0.802625303234D-06 0.000000000000D+00  6 2 -2 25 23 2 -2 4 0.40207860D+00 0.65414243D-02 0.14488933D+05 0.14488933D+05 0.14488933D+05 0.12495425D+01  1  2  5  7  6  2       21 -.226044882581D-02 0.100000000000D+01
-.196386351560D-04 0.000000000000D+00 -.435423165869D-06 0.802625303234D-06 0.000000000000D+00  6 2 2 25 23 2 2 4 0.40207860D+00 0.65414243D-02 0.14488933D+05 0.14488933D+05 0.14488933D+05 0.12495425D+01  1  2  5  8  6  2       21 -.297677790813D-02 0.100000000000D+01
-.196386351560D-04 0.000000000000D+00 -.435423165869D-06 0.802625303234D-06 0.000000000000D+00  6 2 -4 25 23 2 -4 4 0.40207860D+00 0.65414243D-02 0.14488933D+05 0.14488933D+05 0.14488933D+05 0.12495425D+01  1  2  5  9  6  2       21 -.140955866799D-02 0.100000000000D+01
-.196386351560D-04 0.000000000000D+00 -.435423165869D-06 0.802625303234D-06 0.000000000000D+00  6 2 4 25 23 2 4 4 0.40207860D+00 0.65414243D-02 0.14488933D+05 0.14488933D+05 0.14488933D+05 0.12495425D+01  1  2  5 10  6  2       21 -.140955866799D-02 0.100000000000D+01
  </mgrwgt>
  </event>
  <event>
  5     66 0.49447450E-03 0.20198428E+03 0.75467711E-02 0.10104699E+00
        2 -1    0    0  502    0 0.00000000E+00 0.00000000E+00 0.26286313E+03 0.26286332E+03 0.32000000E+00 0.0000E+00 0.9000E+01
       21 -1    0    0  501  502 0.00000000E+00 0.00000000E+00 -.11082969E+04 0.11082971E+04 0.75000000E+00 0.0000E+00 0.9000E+01
       25  1    1    2    0    0 0.42553966E+03 0.13313799E+03 -.44646391E+03 0.64324548E+03 0.12500000E+03 0.0000E+00 0.9000E+01
       23  1    1    2    0    0 -.33533111E+03 0.47582802E+02 -.95759582E+02 0.36358799E+03 0.91188000E+02 0.0000E+00 0.9000E+01
        2  1    1    2  501    0 -.90208546E+02 -.18072079E+03 -.30321023E+03 0.36432696E+03 0.32000000E+00 0.0000E+00 0.9000E+01
#aMCatNLO 1  0  0  1  2 0.10262483D+02 0.00000000D+00  -5  6  0 0.00000000D+00 0.00000000D+00 0.00000000D+00 0.00000000D+00 0.00000000D+00
  <mgrwgt>
 0.1045756605D+00    9    2    0
 0.539750574613367D+03 0.000000000000000D+00 0.000000000000000D+00 0.539750574613367D+03
 0.539750574613367D+03 0.000000000000000D+00 0.000000000000000D+00 -.539750574613367D+03
 0.467379914460764D+03 0.425539694815710D+03 0.133138068290735D+03 -.633183018511649D+02
 0.386825966222576D+03 -.335331076896494D+03 0.475828671633806D+02 0.163119638363931D+03
 0.225295268543394D+03 -.902086179192165D+02 -.180720935454116D+03 -.998013365127659D+02
 0.000000000000000D+00 -.000000000000000D+00 -.000000000000000D+00 0.000000000000000D+00
 0.554867972448879D+03 0.000000000000000D+00 0.000000000000000D+00 0.554867972448879D+03
 0.541519457198780D+03 0.000000000000000D+00 0.000000000000000D+00 -.541519457198780D+03
 0.470907821165019D+03 0.428312927111457D+03 0.136630908488110D+03 -.633183018511649D+02
 0.385215440273407D+03 -.333049207400757D+03 0.504568440430299D+02 0.163119638363931D+03
 0.223426667810854D+03 -.888823614645506D+02 -.179050537390459D+03 -.998013365127659D+02
 0.168375003983792D+02 -.638135824614916D+01 -.803721514068084D+01 0.133485152500994D+02
0.309495086813D-03 0.000000000000D+00 0.000000000000D+00 0.885432860543D-08 0.000000000000D+00  6 2 21 25 23 2 21 2 0.40440515D-01 0.17050724D+00 0.25796565D+06 0.25796565D+06 0.25796565D+06 0.11275573D+01  1  2  2  1  6  1        2 0.113184972203D-01 0.100000000000D+01
-.979111904488D-05 0.163325044413D-04 -.624781410788D-06 0.885432860543D-08 0.000000000000D+00  6 2 21 25 23 2 21 4 0.40440515D-01 0.17050724D+00 0.25796565D+06 0.25796565D+06 0.25796565D+06 0.11275573D+01  1  2  3  1  6  1        2 -.455244362596D-03 0.100000000000D+01
0.469647026567D-04 0.000000000000D+00 0.000000000000D+00 0.885432860543D-08 0.000000000000D+00  6 2 21 25 23 2 21 4 0.40440515D-01 0.17050724D+00 0.25796565D+06 0.25796565D+06 0.25796565D+06 0.11275573D+01  1  2 15  1  6  1        2 0.218365398556D-02 0.100000000000D+01
0.322646725706D-02 0.000000000000D+00 0.000000000000D+00 0.884324471523D-08 0.000000000000D+00  6 2 21 25 23 2 21 4 0.41638374D-01 0.17050724D+00 0.26304897D+06 0.26304897D+06 0.26304897D+06 0.11268513D+01  1  2 12  1  6  1        2 0.144707562279D+00 0.100000000000D+01
-.224337745693D-02 0.000000000000D+00 0.000000000000D+00 0.885432860543D-08 0.000000000000D+00  6 2 21 25 23 2 21 4 0.40440515D-01 0.17050724D+00 0.25796565D+06 0.25796565D+06 0.25796565D+06 0.11275573D+01  1  2  4  1  6  1        2 -.104307274354D+00 0.100000000000D+01
-.441016877452D-01 0.000000000000D+00 -.403893974163D-02 0.885432860543D-08 0.000000000000D+00  6 2 21 25 23 2 21 4 0.41672437D-01 0.17050724D+00 0.25796565D+06 0.25796565D+06 0.25796565D+06 0.11275573D+01  1  2  5  1  6  1        2 -.198381949374D+01 0.100000000000D+01
0.442048012026D-01 0.000000000000D+00 0.403712195663D-02 0.885432860543D-08 0.000000000000D+00  6 2 21 25 23 2 21 4 0.40440515D-01 0.17050724D+00 0.25796565D+06 0.25796565D+06 0.25796565D+06 0.11275573D+01  1  2  6  1  6  1        2 0.205533059653D+01 0.100000000000D+01
0.105362019183D-03 0.000000000000D+00 0.000000000000D+00 0.884324471523D-08 0.000000000000D+00  6 21 21 25 23 2 -2 4 0.41638374D-01 0.17050724D+00 0.26304897D+06 0.26304897D+06 0.26304897D+06 0.11268513D+01  1  2 12  4  6  1        2 0.163559802999D-01 0.100000000000D+01
-.236023936757D-03 0.000000000000D+00 -.217359166367D-04 0.885432860543D-08 0.000000000000D+00  6 21 21 25 23 2 -2 4 0.41672437D-01 0.17050724D+00 0.25796565D+06 0.25796565D+06 0.25796565D+06 0.11275573D+01  1  2  5  4  6  1        2 -.367386173172D-01 0.100000000000D+01
  </mgrwgt>
  </event>
  <event>
  6     66 0.49447450E-03 0.38087714E+02 0.75467711E-02 0.11805527E+00
        4 -1    0    0  502    0 0.00000000E+00 0.00000000E+00 0.34118817E+03 0.34119169E+03 0.15500000E+01 0.0000E+00 0.9000E+01
       21 -1    0    0  501  503 0.00000000E+00 0.00000000E+00 -.31400811E+03 0.31400900E+03 0.75000000E+00 0.0000E+00 0.9000E+01
       25  1    1    2    0    0 0.52598051E+02 0.98990600E+01 0.37281360E+02 0.14099449E+03 0.12500000E+03 0.0000E+00 0.9000E+01
       23  1    1    2    0    0 -.86716220E+02 -.69155692E+01 0.20951618E+03 0.24449910E+03 0.91188000E+02 0.0000E+00 0.9000E+01
        4  1    1    2  501    0 0.43341488E+02 -.24250100E+02 -.83176320E+00 0.49695536E+02 0.15500000E+01 0.0000E+00 0.9000E+01
       21  1    1    2  502  503 -.92233192E+01 0.21266610E+02 -.21878572E+03 0.22001157E+03 0.75000000E+00 0.0000E+00 0.9000E+01
#aMCatNLO 2  0  0  2  5 0.23180559D+02 0.00000000D+00  -5  6  0 0.00000000D+00 0.00000000D+00 0.00000000D+00 0.00000000D+00 0.00000000D+00
  <mgrwgt>
 0.4888722365D-02    3    2    0
 0.179131984303166D+03 0.000000000000000D+00 0.000000000000000D+00 0.179131984303166D+03
 0.179131984303166D+03 0.000000000000000D+00 0.000000000000000D+00 -.179131984303166D+03
 0.144902932973378D+03 0.488594982383723D+02 0.185084093732264D+02 -.514008579564081D+02
 0.154982653458204D+03 -.906806664945796D+02 0.221388358091750D+01 0.864666812855383D+02
 0.583783821747497D+02 0.418211682562074D+02 -.207222929541439D+02 -.350658233291302D+02
 0.000000000000000D+00 -.000000000000000D+00 0.000000000000000D+00 -.000000000000000D+00
 0.179829267678500D+03 0.000000000000000D+00 0.000000000000000D+00 0.179829267678500D+03
 0.595770074659389D+03 0.000000000000000D+00 0.000000000000000D+00 -.595770074659389D+03
 0.145365127595942D+03 0.525919958587578D+02 0.990222671533865D+01 -.514008579564081D+02
 0.152840781926127D+03 -.867224279001666D+02 -.691279989262785D+01 0.864666812855383D+02
 0.608071953923488D+02 0.433537512203162D+02 -.242560363798466D+02 -.350658233291302D+02
 0.416586237423471D+03 -.922331917890744D+01 0.212666095571358D+02 -.415940806980889D+03
-.616710286857D-04 0.000000000000D+00 0.000000000000D+00 0.198130549963D-06 0.000000000000D+00  6 4 21 25 23 4 21 4 0.52287197D-01 0.48251861D-01 0.28033430D+05 0.28033430D+05 0.28033430D+05 0.12180010D+01  1  2 13  2  6  2       21 -.828470808841D-02 0.100000000000D+01
-.615154715301D-04 0.000000000000D+00 0.000000000000D+00 0.198130549963D-06 0.000000000000D+00  6 4 21 25 23 4 21 4 0.52287197D-01 0.48868099D-01 0.28033430D+05 0.28033430D+05 0.28033430D+05 0.12180010D+01  1  2 13  2  6  2       21 -.804969371696D-02 0.100000000000D+01
0.159645782177D-03 0.000000000000D+00 0.000000000000D+00 0.200388333217D-06 0.504350289774D-07  6 4 21 25 23 4 21 4 0.52490729D-01 0.48309189D-01 0.28033430D+05 0.28033430D+05 0.28033430D+05 0.12180010D+01  1  2  1  2  6  2       21 0.212231241701D-01 0.100000000000D+01
  </mgrwgt>
  </event>
  <event>
  5     66 -.49447450E-03 0.26385379E+02 0.75467711E-02 0.10703392E+00
        2 -1    0    0  502    0 0.00000000E+00 0.00000000E+00 0.28505405E+04 0.28505406E+04 0.32000000E+00 0.0000E+00 0.9000E+01
       21 -1    0    0  501  502 0.00000000E+00 0.00000000E+00 -.53127040E+02 0.53132334E+02 0.75000000E+00 0.0000E+00 0.9000E+01
       25  1    1    2    0    0 0.71622028E+02 -.23205462E+03 0.22929060E+04 0.23091172E+04 0.12500000E+03 0.0000E+00 0.9000E+01
       23  1    1    2    0    0 -.45464696E+02 0.23551537E+03 0.50680584E+03 0.56806860E+03 0.91188000E+02 0.0000E+00 0.9000E+01
        2  1    1    2  501    0 -.26157333E+02 -.34607508E+01 -.22983616E+01 0.26487124E+02 0.32000000E+00 0.0000E+00 0.9000E+01
#aMCatNLO 1  0  0  2  1 0.10930639D+03 0.00000000D+00  -5  6  0 0.00000000D+00 0.00000000D+00 0.00000000D+00 0.00000000D+00 0.00000000D+00
  <mgrwgt>
 -.2384992563D+00   12    2    0
 0.389163838444407D+03 0.000000000000000D+00 0.000000000000000D+00 0.389163838444407D+03
 0.389163838444407D+03 0.000000000000000D+00 0.000000000000000D+00 -.389163838444407D+03
 0.373512069167294D+03 0.716220844881004D+02 -.232054608894734D+03 0.254768917487838D+03
 0.297740706375351D+03 -.454646510257757D+02 0.235515373060168D+03 -.150995865666340D+03
 0.107074901346170D+03 -.261574334623247D+02 -.346076416543325D+01 -.103773051821498D+03
 0.000000000000000D+00 -.000000000000000D+00 -.000000000000000D+00 -.000000000000000D+00
 0.394169233410739D+03 0.000000000000000D+00 0.000000000000000D+00 0.394169233410739D+03
 0.291054507910986D+04 0.000000000000000D+00 0.000000000000000D+00 -.291054507910986D+04
 0.375356653962470D+03 0.120727424491669D+03 -.213975010997979D+03 0.254768917487838D+03
 0.306098438326570D+03 -.586929126214757D+01 0.250093587630146D+03 -.150995865666340D+03
 0.104510466593031D+03 -.122832107694453D+02 0.164744539790700D+01 -.103773051821498D+03
 0.251874875363853D+04 -.102574922460076D+03 -.377660220300746D+02 -.251637584569912D+04
0.136817782436D-04 0.000000000000D+00 0.000000000000D+00 0.291904533817D-06 0.000000000000D+00  6 2 21 25 23 2 21 2 0.43854511D+00 0.81737994D-02 0.77321517D+05 0.77321517D+05 0.77321517D+05 0.11739743D+01  1  2  2  2  6  2       21 0.698190140980D-02 0.100000000000D+01
0.305964706448D-05 0.722007273942D-06 -.276195683787D-07 0.291904533817D-06 0.000000000000D+00  6 2 21 25 23 2 21 4 0.43854511D+00 0.81737994D-02 0.77321517D+05 0.77321517D+05 0.77321517D+05 0.11739743D+01  1  2  3  2  6  2       21 0.215188798734D-02 0.100000000000D+01
0.112491118934D-05 0.000000000000D+00 0.000000000000D+00 0.291904533817D-06 0.000000000000D+00  6 2 21 25 23 2 21 4 0.43854511D+00 0.81737994D-02 0.77321517D+05 0.77321517D+05 0.77321517D+05 0.11739743D+01  1  2 15  2  6  2       21 0.791164086623D-03 0.100000000000D+01
-.118187142223D-01 0.000000000000D+00 -.220165340987D-03 0.291904533817D-06 0.000000000000D+00  6 2 21 25 23 2 21 4 0.43854511D+00 0.61286398D-01 0.77321517D+05 0.77321517D+05 0.77321517D+05 0.11739743D+01  1  2  5  2  6  2       21 -.172185784330D+00 0.100000000000D+01
-.483808842929D-02 0.000000000000D+00 -.949190266661D-04 0.291904533817D-06 0.000000000000D+00  6 2 -1 25 23 2 -1 4 0.43854511D+00 0.61286398D-01 0.77321517D+05 0.77321517D+05 0.77321517D+05 0.11739743D+01  1  2  5  5  6  2       21 -.752951917558D-02 0.100000000000D+01
-.483808842929D-02 0.000000000000D+00 -.949190266661D-04 0.291904533817D-06 0.000000000000D+00  6 2 -3 25 23 2 -3 4 0.43854511D+00 0.61286398D-01 0.77321517D+05 0.77321517D+05 0.77321517D+05 0.11739743D+01  1  2  5  5  6  2       21 -.384022600849D-02 0.100000000000D+01
-.483808842929D-02 0.000000000000D+00 -.949190266661D-04 0.291904533817D-06 0.000000000000D+00  6 2 1 25 23 2 1 4 0.43854511D+00 0.61286398D-01 0.77321517D+05 0.77321517D+05 0.77321517D+05 0.11739743D+01  1  2  5  6  6  2       21 -.194997338344D-01 0.100000000000D+01
-.483808842929D-02 0.000000000000D+00 -.949190266661D-04 0.291904533817D-06 0.000000000000D+00  6 2 3 25 23 2 3 4 0.43854511D+00 0.61286398D-01 0.77321517D+05 0.77321517D+05 0.77321517D+05 0.11739743D+01  1  2  5  6  6  2       21 -.384303165000D-02 0.100000000000D+01
-.483808842929D-02 0.000000000000D+00 -.949190266661D-04 0.291904533817D-06 0.000000000000D+00  6 2 -2 25 23 2 -2 4 0.43854511D+00 0.61286398D-01 0.77321517D+05 0.77321517D+05 0.77321517D+05 0.11739743D+01  1  2  5  7  6  2       21 -.600161279518D-02 0.100000000000D+01
-.483808842929D-02 0.000000000000D+00 -.949190266661D-04 0.291904533817D-06 0.000000000000D+00  6 2 2 25 23 2 2 4 0.43854511D+00 0.61286398D-01 0.77321517D+05 0.77321517D+05 0.77321517D+05 0.11739743D+01  1  2  5  8  6  2       21 -.291827540460D-01 0.100000000000D+01
-.483808842929D-02 0.000000000000D+00 -.949190266661D-04 0.291904533817D-06 0.000000000000D+00  6 2 -4 25 23 2 -4 4 0.43854511D+00 0.61286398D-01 0.77321517D+05 0.77321517D+05 0.77321517D+05 0.11739743D+01  1  2  5  9  6  2       21 -.317077397178D-02 0.100000000000D+01
-.483808842929D-02 0.000000000000D+00 -.949190266661D-04 0.291904533817D-06 0.000000000000D+00  6 2 4 25 23 2 4 4 0.43854511D+00 0.61286398D-01 0.77321517D+05 0.77321517D+05 0.77321517D+05 0.11739743D+01  1  2  5 10  6  2       21 -.317077397178D-02 0.100000000000D+01
  </mgrwgt>
  </event>
  <event>
  5     66 0.49447450E-03 0.20218487E+02 0.75467711E-02 0.11985010E+00
        4 -1    0    0  502    0 0.00000000E+00 0.00000000E+00 0.26133537E+02 0.26179462E+02 0.15500000E+01 0.0000E+00 0.9000E+01
       21 -1    0    0  501  502 0.00000000E+00 0.00000000E+00 -.93946205E+03 0.93946235E+03 0.75000000E+00 0.0000E+00 0.9000E+01
       25  1    1    2    0    0 -.25303012E+02 -.78318863E+02 -.50300182E+03 0.52479512E+03 0.12500000E+03 0.0000E+00 0.9000E+01
       23  1    1    2    0    0 0.45185269E+02 0.81813071E+02 -.27992252E+03 0.30888017E+03 0.91188000E+02 0.0000E+00 0.9000E+01
        4  1    1    2  501    0 -.19882258E+02 -.34942079E+01 -.13040417E+03 0.13196652E+03 0.15500000E+01 0.0000E+00 0.9000E+01
#aMCatNLO 1  0  0  2  1 0.27938436D+01 0.00000000D+00  -5  6  0 0.00000000D+00 0.00000000D+00 0.00000000D+00 0.00000000D+00 0.00000000D+00
  <mgrwgt>
 0.2803544433D-01   32    2    0
 0.156760274837943D+03 0.000000000000000D+00 0.000000000000000D+00 0.156760274837943D+03
 0.156760274837943D+03 0.000000000000000D+00 0.000000000000000D+00 -.156760274837943D+03
 0.151046816601696D+03 -.252866706558928D+02 -.783159909290226D+02 -.204286724348933D+02
 0.135906587093011D+03 0.451999717417551D+02 0.818156545532923D+02 0.376631158539899D+02
 0.265671459811791D+02 -.199133010858623D+02 -.349966362426964D+01 -.172344434190966D+02
 0.000000000000000D+00 -.000000000000000D+00 0.000000000000000D+00 -.000000000000000D+00
 0.157358760721501D+03 0.000000000000000D+00 0.000000000000000D+00 0.157358760721501D+03
 0.160061309023165D+03 0.000000000000000D+00 0.000000000000000D+00 -.160061309023165D+03
 0.151477244954678D+03 -.244803121691166D+02 -.793960918289434D+02 -.204286724348933D+02
 0.135568719103820D+03 0.459235717621164D+02 0.808464069469335D+02 0.376631158539899D+02
 0.264870336164235D+02 -.197718885722348D+02 -.368908282892108D+01 -.172344434190966D+02
 0.388707206974390D+01 -.167137102076493D+01 0.223876771093107D+01 -.270254830166323D+01
0.381964449117D-05 0.000000000000D+00 0.000000000000D+00 0.647987455397D-06 0.000000000000D+00  6 4 21 25 23 4 21 2 0.40240999D-02 0.14453618D+00 0.22569221D+05 0.22569221D+05 0.22569221D+05 0.12280892D+01  1  2  2  2  6  2       21 0.269530242611D-02 0.100000000000D+01
0.407266853195D-06 0.201568177572D-06 -.771076173931D-08 0.647987455397D-06 0.000000000000D+00  6 4 21 25 23 4 21 4 0.40240999D-02 0.14453618D+00 0.22569221D+05 0.22569221D+05 0.22569221D+05 0.12280892D+01  1  2  3  2  6  2       21 0.433434501387D-03 0.100000000000D+01
0.336011338990D-06 0.000000000000D+00 0.000000000000D+00 0.647987455397D-06 0.000000000000D+00  6 4 21 25 23 4 21 4 0.40240999D-02 0.14453618D+00 0.22569221D+05 0.22569221D+05 0.22569221D+05 0.12280892D+01  1  2 15  2  6  2       21 0.357600688671D-03 0.100000000000D+01
0.770371853509D-07 0.000000000000D+00 0.000000000000D+00 0.647075586907D-06 0.000000000000D+00  6 4 21 25 23 4 21 4 0.40240999D-02 0.14785220D+00 0.22987458D+05 0.22987458D+05 0.22987458D+05 0.12272248D+01  1  2 12  2  6  2       21 0.771116695455D-04 0.100000000000D+01
-.104364337076D-04 0.000000000000D+00 0.000000000000D+00 0.647987455397D-06 0.000000000000D+00  6 4 21 25 23 4 21 4 0.40240999D-02 0.14453618D+00 0.22569221D+05 0.22569221D+05 0.22569221D+05 0.12280892D+01  1  2  4  2  6  2       21 -.111069938661D-01 0.100000000000D+01
-.462109220796D-03 0.000000000000D+00 -.461711177993D-04 0.647987455397D-06 0.000000000000D+00  6 4 21 25 23 4 21 4 0.40240999D-02 0.14788620D+00 0.22569221D+05 0.22569221D+05 0.22569221D+05 0.12280892D+01  1  2  5  2  6  2       21 -.463481316853D+00 0.100000000000D+01
0.462670196022D-03 0.000000000000D+00 0.461226727725D-04 0.647987455397D-06 0.000000000000D+00  6 4 21 25 23 4 21 4 0.40240999D-02 0.14453618D+00 0.22569221D+05 0.22569221D+05 0.22569221D+05 0.12280892D+01  1  2  6  2  6  2       21 0.492397611410D+00 0.100000000000D+01
0.982168230025D-05 0.000000000000D+00 0.000000000000D+00 0.647987455397D-06 0.133320924915D-05  6 4 21 25 23 4 21 4 0.40394632D-02 0.14757980D+00 0.22987458D+05 0.22987458D+05 0.22987458D+05 0.12272248D+01  1  2 11  2  6  2       21 0.981859671651D-02 0.100000000000D+01
0.427811058383D-08 0.000000000000D+00 0.000000000000D+00 0.647075586907D-06 0.000000000000D+00  6 4 -1 25 23 4 -1 4 0.40240999D-02 0.14785220D+00 0.22987458D+05 0.22987458D+05 0.22987458D+05 0.12272248D+01  1  2 12  5  6  2       21 0.503905642124D-06 0.100000000000D+01
0.427811058383D-08 0.000000000000D+00 0.000000000000D+00 0.647075586907D-06 0.000000000000D+00  6 4 -3 25 23 4 -3 4 0.40240999D-02 0.14785220D+00 0.22987458D+05 0.22987458D+05 0.22987458D+05 0.12272248D+01  1  2 12  5  6  2       21 0.235576626120D-06 0.100000000000D+01
-.220664904779D-05 0.000000000000D+00 -.243190576094D-06 0.647987455397D-06 0.000000000000D+00  6 4 -1 25 23 4 -1 4 0.40240999D-02 0.14788620D+00 0.22569221D+05 0.22569221D+05 0.22569221D+05 0.12280892D+01  1  2  5  5  6  2       21 -.260274386840D-03 0.100000000000D+01
-.220664904779D-05 0.000000000000D+00 -.243190576094D-06 0.647987455397D-06 0.000000000000D+00  6 4 -3 25 23 4 -3 4 0.40240999D-02 0.14788620D+00 0.22569221D+05 0.22569221D+05 0.22569221D+05 0.12280892D+01  1  2  5  5  6  2       21 -.121625707109D-03 0.100000000000D+01
0.678216148834D-06 0.000000000000D+00 0.000000000000D+00 0.647987455397D-06 0.584395504835D-08  6 4 -1 25 23 4 -1 4 0.40394632D-02 0.14757980D+00 0.22987458D+05 0.22987458D+05 0.22987458D+05 0.12272248D+01  1  2 11  5  6  2       21 0.797798587065D-04 0.100000000000D+01
0.678216148834D-06 0.000000000000D+00 0.000000000000D+00 0.647987455397D-06 0.584395504835D-08  6 4 -3 25 23 4 -3 4 0.40394632D-02 0.14757980D+00 0.22987458D+05 0.22987458D+05 0.22987458D+05 0.12272248D+01  1  2 11  5  6  2       21 0.372911252772D-04 0.100000000000D+01
0.427811058383D-08 0.000000000000D+00 0.000000000000D+00 0.647075586907D-06 0.000000000000D+00  6 4 1 25 23 4 1 4 0.40240999D-02 0.14785220D+00 0.22987458D+05 0.22987458D+05 0.22987458D+05 0.12272248D+01  1  2 12  6  6  2       21 0.260368866199D-05 0.100000000000D+01
0.427811058383D-08 0.000000000000D+00 0.000000000000D+00 0.647075586907D-06 0.000000000000D+00  6 4 3 25 23 4 3 4 0.40240999D-02 0.14785220D+00 0.22987458D+05 0.22987458D+05 0.22987458D+05 0.12272248D+01  1  2 12  6  6  2       21 0.236475488253D-06 0.100000000000D+01
-.220664904779D-05 0.000000000000D+00 -.243190576094D-06 0.647987455397D-06 0.000000000000D+00  6 4 1 25 23 4 1 4 0.40240999D-02 0.14788620D+00 0.22569221D+05 0.22569221D+05 0.22569221D+05 0.12280892D+01  1  2  5  6  6  2       21 -.134507207000D-02 0.100000000000D+01
-.220664904779D-05 0.000000000000D+00 -.243190576094D-06 0.647987455397D-06 0.000000000000D+00  6 4 3 25 23 4 3 4 0.40240999D-02 0.14788620D+00 0.22569221D+05 0.22569221D+05 0.22569221D+05 0.12280892D+01  1  2  5  6  6  2       21 -.122089913088D-03 0.100000000000D+01
0.670677252286D-06 0.000000000000D+00 0.000000000000D+00 0.647987455397D-06 0.577899497240D-08  6 4 1 25 23 4 1 4 0.40394632D-02 0.14757980D+00 0.22987458D+05 0.22987458D+05 0.22987458D+05 0.12272248D+01  1  2 11  6  6  2       21 0.406949224607D-03 0.100000000000D+01
0.670677252286D-06 0.000000000000D+00 0.000000000000D+00 0.647987455397D-06 0.577899497240D-08  6 4 3 25 23 4 3 4 0.40394632D-02 0.14757980D+00 0.22987458D+05 0.22987458D+05 0.22987458D+05 0.12272248D+01  1  2 11  6  6  2       21 0.370168898367D-04 0.100000000000D+01
0.427811058383D-08 0.000000000000D+00 0.000000000000D+00 0.647075586907D-06 0.000000000000D+00  6 4 -4 25 23 4 -4 4 0.40240999D-02 0.14785220D+00 0.22987458D+05 0.22987458D+05 0.22987458D+05 0.12272248D+01  1  2 12  7  6  2       21 0.185022953987D-06 0.100000000000D+01
-.220664904779D-05 0.000000000000D+00 -.243190576094D-06 0.647987455397D-06 0.000000000000D+00  6 4 -4 25 23 4 -4 4 0.40240999D-02 0.14788620D+00 0.22569221D+05 0.22569221D+05 0.22569221D+05 0.12280892D+01  1  2  5  7  6  2       21 -.955072844844D-04 0.100000000000D+01
0.390631344763D-05 0.000000000000D+00 0.000000000000D+00 0.647987455397D-06 0.526247459899D-06  6 4 -4 25 23 4 -4 4 0.40394632D-02 0.14757980D+00 0.22987458D+05 0.22987458D+05 0.22987458D+05 0.12272248D+01  1  2 11  7  6  2       21 0.168710751138D-03 0.100000000000D+01
0.427811058383D-08 0.000000000000D+00 0.000000000000D+00 0.647075586907D-06 0.000000000000D+00  6 4 4 25 23 4 4 4 0.40240999D-02 0.14785220D+00 0.22987458D+05 0.22987458D+05 0.22987458D+05 0.12272248D+01  1  2 12  8  6  2       21 0.185022953987D-06 0.100000000000D+01
-.220664904779D-05 0.000000000000D+00 -.243190576094D-06 0.647987455397D-06 0.000000000000D+00  6 4 4 25 23 4 4 4 0.40240999D-02 0.14788620D+00 0.22569221D+05 0.22569221D+05 0.22569221D+05 0.12280892D+01  1  2  5  8  6  2       21 -.955072844844D-04 0.100000000000D+01
0.603663669395D-06 0.000000000000D+00 0.000000000000D+00 0.647987455397D-06 0.292178303390D-08  6 4 4 25 23 4 4 4 0.40394632D-02 0.14757980D+00 0.22987458D+05 0.22987458D+05 0.22987458D+05 0.12272248D+01  1  2 11  8  6  2       21 0.260717816079D-04 0.100000000000D+01
0.427811058383D-08 0.000000000000D+00 0.000000000000D+00 0.647075586907D-06 0.000000000000D+00  6 4 -2 25 23 4 -2 4 0.40240999D-02 0.14785220D+00 0.22987458D+05 0.22987458D+05 0.22987458D+05 0.12272248D+01  1  2 12  9  6  2       21 0.367625857713D-06 0.100000000000D+01
-.220664904779D-05 0.000000000000D+00 -.243190576094D-06 0.647987455397D-06 0.000000000000D+00  6 4 -2 25 23 4 -2 4 0.40240999D-02 0.14788620D+00 0.22569221D+05 0.22569221D+05 0.22569221D+05 0.12280892D+01  1  2  5  9  6  2       21 -.189856408984D-03 0.100000000000D+01
0.640426430985D-06 0.000000000000D+00 0.000000000000D+00 0.647987455397D-06 0.551833406045D-08  6 4 -2 25 23 4 -2 4 0.40394632D-02 0.14757980D+00 0.22987458D+05 0.22987458D+05 0.22987458D+05 0.12272248D+01  1  2 11  9  6  2       21 0.549577247061D-04 0.100000000000D+01
0.427811058383D-08 0.000000000000D+00 0.000000000000D+00 0.647075586907D-06 0.000000000000D+00  6 4 2 25 23 4 2 4 0.40240999D-02 0.14785220D+00 0.22987458D+05 0.22987458D+05 0.22987458D+05 0.12272248D+01  1  2 12 10  6  2       21 0.476482428300D-05 0.100000000000D+01
-.220664904779D-05 0.000000000000D+00 -.243190576094D-06 0.647987455397D-06 0.000000000000D+00  6 4 2 25 23 4 2 4 0.40240999D-02 0.14788620D+00 0.22569221D+05 0.22569221D+05 0.22569221D+05 0.12280892D+01  1  2  5 10  6  2       21 -.246141584072D-02 0.100000000000D+01
0.644790562763D-06 0.000000000000D+00 0.000000000000D+00 0.647987455397D-06 0.555593828142D-08  6 4 2 25 23 4 2 4 0.40394632D-02 0.14757980D+00 0.22987458D+05 0.22987458D+05 0.22987458D+05 0.12272248D+01  1  2 11 10  6  2       21 0.715587032257D-03 0.100000000000D+01
  </mgrwgt>
  </event>
  <event>
  5     66 -.49447450E-03 0.92890434E+02 0.75467711E-02 0.11293820E+00
        2 -1    0    0  502    0 0.00000000E+00 0.00000000E+00 0.21982596E+04 0.21982596E+04 0.32000000E+00 0.0000E+00 0.9000E+01
       21 -1    0    0  501  502 0.00000000E+00 0.00000000E+00 -.30843893E+02 0.30853010E+02 0.75000000E+00 0.0000E+00 0.9000E+01
       25  1    1    2    0    0 0.38160646E+02 -.18150457E+03 0.13239932E+04 0.13427521E+04 0.12500000E+03 0.0000E+00 0.9000E+01
       23  1    1    2    0    0 0.71795175E+01 0.10043155E+03 0.23955598E+03 0.27539129E+03 0.91188000E+02 0.0000E+00 0.9000E+01
        2  1    1    2  501    0 -.45340164E+02 0.81073016E+02 0.60386644E+03 0.61096919E+03 0.32000000E+00 0.0000E+00 0.9000E+01
#aMCatNLO 1  0  0  5  2 0.23042037D+02 0.00000000D+00  -5  6  0 0.00000000D+00 0.00000000D+00 0.00000000D+00 0.00000000D+00 0.00000000D+00
  <mgrwgt>
 -.1341995347D-01    5    2    0
 0.260409427650725D+03 0.000000000000000D+00 0.000000000000000D+00 0.260409427650725D+03
 0.260409427650725D+03 -.000000000000000D+00 -.000000000000000D+00 -.260409427650725D+03
 0.237130475570070D+03 0.381607477891818D+02 -.181504749273724D+03 0.787759212154361D+02
 0.181753766123452D+03 0.717959550219619D+01 0.100431412179242D+03 -.120752494848622D+03
 0.101934613607929D+03 -.453403432913780D+02 0.810733370944820D+02 0.419765736331862D+02
 0.000000000000000D+00 0.000000000000000D+00 0.000000000000000D+00 -.000000000000000D+00
 0.260409427650725D+03 0.000000000000000D+00 0.000000000000000D+00 0.260409427650725D+03
 0.260409427650725D+03 -.000000000000000D+00 -.000000000000000D+00 -.260409427650725D+03
 0.231805007864079D+03 0.336763924850541D+02 -.173486246923917D+03 0.829275852072895D+02
 0.183081577978403D+03 0.369073324234942D+01 0.106669867504801D+03 -.117522468939790D+03
 0.823690028597715D+02 -.527143877383445D+02 0.495783616483315D+02 0.393424962826683D+02
 0.235632665991976D+02 0.153472620109410D+02 0.172380177707844D+02 -.474761255016786D+01
0.499234281728D-05 0.000000000000D+00 0.000000000000D+00 0.291358904591D-07 0.000000000000D+00  6 2 21 25 23 2 21 2 0.33819448D+00 0.47459174D-02 0.51165628D+05 0.51165628D+05 0.51165628D+05 0.11912918D+01  1  2  2  3  6  5        2 0.156252493248D-01 0.100000000000D+01
-.414904950996D-06 0.263453168435D-06 -.100781017904D-07 0.291358904591D-07 0.000000000000D+00  6 2 21 25 23 2 21 4 0.33819448D+00 0.47459174D-02 0.51165628D+05 0.51165628D+05 0.51165628D+05 0.11912918D+01  1  2  3  3  6  5        2 -.184292436778D-02 0.100000000000D+01
0.593910825561D-06 0.000000000000D+00 0.000000000000D+00 0.291358904591D-07 0.000000000000D+00  6 2 21 25 23 2 21 4 0.33819448D+00 0.47459174D-02 0.51165628D+05 0.51165628D+05 0.51165628D+05 0.11912918D+01  1  2 15  3  6  5        2 0.263803247006D-02 0.100000000000D+01
0.520653103072D-05 0.000000000000D+00 0.000000000000D+00 0.291368544142D-07 0.000000000000D+00  6 2 21 25 23 2 21 4 0.33819448D+00 0.47459174D-02 0.51142131D+05 0.51142131D+05 0.51142131D+05 0.11913116D+01  1  2 12  3  6  5        2 0.231282815715D-01 0.100000000000D+01
-.119250315675D-04 0.000000000000D+00 0.000000000000D+00 0.291358904591D-07 0.000000000000D+00  6 2 21 25 23 2 21 4 0.33819448D+00 0.47459174D-02 0.51165628D+05 0.51165628D+05 0.51165628D+05 0.11912918D+01  1  2  4  3  6  5        2 -.529685924680D-01 0.100000000000D+01
  </mgrwgt>
  </event>
  <event>
  6     66 0.49447450E-03 0.15184001E+03 0.75467711E-02 0.11353278E+00
        4 -1    0    0  502    0 0.00000000E+00 0.00000000E+00 0.58425458E+03 0.58425664E+03 0.15500000E+01 0.0000E+00 0.9000E+01
       21 -1    0    0  501  502 0.00000000E+00 0.00000000E+00 -.10189796E+03 0.10190072E+03 0.75000000E+00 0.0000E+00 0.9000E+01
       25  1    1    2    0    0 -.27115718E+02 0.79584624E+02 0.28688411E+03 0.32403158E+03 0.12500000E+03 0.0000E+00 0.9000E+01
       23  1    1    2    0    0 -.76110563E+02 0.40930221E+02 0.13981077E+03 0.18796384E+03 0.91188000E+02 0.0000E+00 0.9000E+01
        4  1    1    2  503    0 0.14718127E+02 -.94571531E+01 0.22112274E+02 0.28238558E+02 0.15500000E+01 0.0000E+00 0.9000E+01
       21  1    1    2  501  503 0.88508154E+02 -.11105769E+03 0.33549460E+02 0.14592338E+03 0.75000000E+00 0.0000E+00 0.9000E+01
#aMCatNLO 2  0  0  5  2 0.11457118D+02 0.00000000D+00  -5  6  0 0.00000000D+00 0.00000000D+00 0.00000000D+00 0.00000000D+00 0.00000000D+00
  <mgrwgt>
 0.2411892391D-03    2    2    0
 0.244000008936160D+03 0.000000000000000D+00 0.000000000000000D+00 0.244000008936160D+03
 0.244000008936160D+03 -.000000000000000D+00 -.000000000000000D+00 -.244000008936160D+03
 0.173291491925181D+03 -.282094753596280D+02 0.808615663362086D+02 0.840867038433809D+02
 0.126949596346946D+03 -.769120182336267D+02 0.418659055430182D+02 0.115211142232792D+02
 0.187758929600194D+03 0.105121493593255D+03 -.122727471879227D+03 -.956078180666601D+02
 0.000000000000000D+00 0.000000000000000D+00 0.000000000000000D+00 -.000000000000000D+00
 0.244000008936160D+03 0.000000000000000D+00 0.000000000000000D+00 0.244000008936160D+03
 0.244000008936160D+03 -.000000000000000D+00 -.000000000000000D+00 -.244000008936160D+03
 0.172158740052712D+03 -.272188713920977D+02 0.797050538437308D+02 0.831857512344863D+02
 0.126174718640293D+03 -.761861656288417D+02 0.410184855521370D+02 0.108609525245688D+02
 0.165841511667917D+02 0.137235271036774D+02 -.884813749615792D+01 0.289988561959275D+01
 0.173082408012524D+03 0.896815099172620D+02 -.111875401899710D+03 -.969465893786478D+02
-.110515685423D-05 0.000000000000D+00 0.000000000000D+00 0.179914101686D-06 0.000000000000D+00  6 4 21 25 23 4 21 4 0.89885690D-01 0.15676980D-01 0.47555870D+05 0.47555870D+05 0.47555870D+05 0.11944434D+01  1  2 13  3  6  5        4 -.375017244193D-03 0.100000000000D+01
0.181592934508D-05 0.000000000000D+00 0.000000000000D+00 0.179712160115D-06 0.720315362364D-09  6 4 21 25 23 4 21 4 0.89885690D-01 0.15676980D-01 0.47555870D+05 0.47555870D+05 0.47555870D+05 0.11944434D+01  1  2  1  3  6  5        4 0.616206483302D-03 0.100000000000D+01
  </mgrwgt>
  </event>
  <event>
  5     66 0.49447450E-03 0.62811820E+02 0.75467711E-02 0.92653169E-01
        2 -1    0    0  502    0 0.00000000E+00 0.00000000E+00 0.55175257E+03 0.55175266E+03 0.32000000E+00 0.0000E+00 0.9000E+01
       21 -1    0    0  501  502 0.00000000E+00 0.00000000E+00 -.20970941E+03 0.20971075E+03 0.75000000E+00 0.0000E+00 0.9000E+01
       25  1    1    2    0    0 -.18108766E+03 -.13404499E+03 0.25438757E+03 0.36207573E+03 0.12500000E+03 0.0000E+00 0.9000E+01
       23  1    1    2    0    0 0.22248279E+03 0.18128622E+03 0.12530140E+03 0.32615790E+03 0.91188000E+02 0.0000E+00 0.9000E+01
        2  1    1    2  501    0 -.41395134E+02 -.47241230E+02 -.37645807E+02 0.73229776E+02 0.32000000E+00 0.0000E+00 0.9000E+01
#aMCatNLO 1  0  0  2  1 0.11775895D+03 0.00000000D+00  -5  6  0 0.00000000D+00 0.00000000D+00 0.00000000D+00 0.00000000D+00 0.00000000D+00
  <mgrwgt>
 0.3024894864D-01   12    2    0
 0.340159154808557D+03 0.000000000000000D+00 0.000000000000000D+00 0.340159154808557D+03
 0.340159154808557D+03 0.000000000000000D+00 0.000000000000000D+00 -.340159154808557D+03
 0.277364083387844D+03 -.181087573421459D+03 -.134044893833558D+03 0.102689298094090D+03
 0.302062874023160D+03 0.222482884644837D+03 0.181286326081151D+03 -.237352593253668D+02
 0.100891352206110D+03 -.413953112233783D+02 -.472414322475931D+02 -.789540387687234D+02
 0.000000000000000D+00 0.000000000000000D+00 0.000000000000000D+00 -.000000000000000D+00
 0.641025820140130D+03 0.000000000000000D+00 0.000000000000000D+00 0.641025820140130D+03
 0.424744302948182D+04 0.000000000000000D+00 0.000000000000000D+00 -.424744302948182D+04
 0.783278252236767D+03 -.649213316591855D+03 -.407279754031342D+03 0.102689298094090D+03
 0.123379117066155D+03 0.347095499727927D+02 0.716870963944543D+02 -.237352593253668D+02
 0.254617864062489D+03 -.198303074076024D+03 -.138825095979977D+03 -.789540387687234D+02
 0.372719361625654D+04 0.812806840695087D+03 0.474417753616864D+03 -.360641720934169D+04
0.258046077403D-04 0.000000000000D+00 0.000000000000D+00 0.741903082984D-07 0.000000000000D+00  6 2 21 25 23 2 21 2 0.84885121D-01 0.32263096D-01 0.96595096D+05 0.96595096D+05 0.96595096D+05 0.11649562D+01  1  2  2  2  6  2       21 0.219248073618D-01 0.100000000000D+01
0.170096305323D-05 0.136174656233D-05 -.520920683906D-07 0.741903082984D-07 0.000000000000D+00  6 2 21 25 23 2 21 4 0.84885121D-01 0.32263096D-01 0.96595096D+05 0.96595096D+05 0.96595096D+05 0.11649562D+01  1  2  3  2  6  2       21 0.196133887161D-02 0.100000000000D+01
0.284341482146D-05 0.000000000000D+00 0.000000000000D+00 0.741903082984D-07 0.000000000000D+00  6 2 21 25 23 2 21 4 0.84885121D-01 0.32263096D-01 0.96595096D+05 0.96595096D+05 0.96595096D+05 0.11649562D+01  1  2 15  2  6  2       21 0.327867204807D-02 0.100000000000D+01
0.185429464828D-02 0.000000000000D+00 -.177567818929D-02 0.741903082984D-07 0.000000000000D+00  6 2 21 25 23 2 21 4 0.84885121D-01 0.49535273D+00 0.96595096D+05 0.96595096D+05 0.96595096D+05 0.11649562D+01  1  2  5  2  6  2       21 0.407687930448D-03 0.100000000000D+01
0.834510434097D-03 0.000000000000D+00 -.783851000261D-03 0.741903082984D-07 0.000000000000D+00  6 2 -1 25 23 2 -1 4 0.84885121D-01 0.49535273D+00 0.96595096D+05 0.96595096D+05 0.96595096D+05 0.11649562D+01  1  2  5  5  6  2       21 0.190098940009D-04 0.100000000000D+01
0.834510434097D-03 0.000000000000D+00 -.783851000261D-03 0.741903082984D-07 0.000000000000D+00  6 2 -3 25 23 2 -3 4 0.84885121D-01 0.49535273D+00 0.96595096D+05 0.96595096D+05 0.96595096D+05 0.11649562D+01  1  2  5  5  6  2       21 0.205039224552D-04 0.100000000000D+01
0.834510434097D-03 0.000000000000D+00 -.783851000261D-03 0.741903082984D-07 0.000000000000D+00  6 2 1 25 23 2 1 4 0.84885121D-01 0.49535273D+00 0.96595096D+05 0.96595096D+05 0.96595096D+05 0.11649562D+01  1  2  5  6  6  2       21 0.578830871186D-03 0.100000000000D+01
0.834510434097D-03 0.000000000000D+00 -.783851000261D-03 0.741903082984D-07 0.000000000000D+00  6 2 3 25 23 2 3 4 0.84885121D-01 0.49535273D+00 0.96595096D+05 0.96595096D+05 0.96595096D+05 0.11649562D+01  1  2  5  6  6  2       21 0.228512330815D-04 0.100000000000D+01
0.834510434097D-03 0.000000000000D+00 -.783851000261D-03 0.741903082984D-07 0.000000000000D+00  6 2 -2 25 23 2 -2 4 0.84885121D-01 0.49535273D+00 0.96595096D+05 0.96595096D+05 0.96595096D+05 0.11649562D+01  1  2  5  7  6  2       21 0.182107670804D-04 0.100000000000D+01
0.834510434097D-03 0.000000000000D+00 -.783851000261D-03 0.741903082984D-07 0.000000000000D+00  6 2 2 25 23 2 2 4 0.84885121D-01 0.49535273D+00 0.96595096D+05 0.96595096D+05 0.96595096D+05 0.11649562D+01  1  2  5  8  6  2       21 0.200184613531D-02 0.100000000000D+01
0.834510434097D-03 0.000000000000D+00 -.783851000261D-03 0.741903082984D-07 0.000000000000D+00  6 2 -4 25 23 2 -4 4 0.84885121D-01 0.49535273D+00 0.96595096D+05 0.96595096D+05 0.96595096D+05 0.11649562D+01  1  2  5  9  6  2       21 0.759480484762D-05 0.100000000000D+01
0.834510434097D-03 0.000000000000D+00 -.783851000261D-03 0.741903082984D-07 0.000000000000D+00  6 2 4 25 23 2 4 4 0.84885121D-01 0.49535273D+00 0.96595096D+05 0.96595096D+05 0.96595096D+05 0.11649562D+01  1  2  5 10  6  2       21 0.759480484762D-05 0.100000000000D+01
  </mgrwgt>
  </event>
  <event>
  5     66 0.49447450E-03 0.82290314E+02 0.75467711E-02 0.11652820E+00
        2 -1    0    0  502    0 0.00000000E+00 0.00000000E+00 0.82342370E+03 0.82342377E+03 0.32000000E+00 0.0000E+00 0.9000E+01
       21 -1    0    0  501  502 0.00000000E+00 0.00000000E+00 -.10088480E+03 0.10088759E+03 0.75000000E+00 0.0000E+00 0.9000E+01
       25  1    1    2    0    0 -.14645573E+02 -.75381845E+01 0.74955997E+02 0.14667896E+03 0.12500000E+03 0.0000E+00 0.9000E+01
       23  1    1    2    0    0 -.72902277E+02 0.41198762E+02 0.66987828E+03 0.68122260E+03 0.91188000E+02 0.0000E+00 0.9000E+01
        2  1    1    2  501    0 0.87547850E+02 -.33660578E+02 -.22295368E+02 0.96409783E+02 0.32000000E+00 0.0000E+00 0.9000E+01
#aMCatNLO 1  0  0  2  1 0.21170308D+02 0.00000000D+00  -5  6  0 0.00000000D+00 0.00000000D+00 0.00000000D+00 0.00000000D+00 0.00000000D+00
  <mgrwgt>
 0.3882702802D-01   23    2    0
 0.288222572602118D+03 0.000000000000000D+00 0.000000000000000D+00 0.288222572602118D+03
 0.288222572602118D+03 0.000000000000000D+00 0.000000000000000D+00 -.288222572602118D+03
 0.141242223122046D+03 -.146456057117945D+02 -.753817179584365D+01 -.636635515170866D+02
 0.252667119963242D+03 -.729023358194425D+02 0.411987850442396D+02 0.220257421462858D+03
 0.182535802118949D+03 0.875479415312370D+02 -.336606132483959D+02 -.156593869945771D+03
 0.000000000000000D+00 0.000000000000000D+00 -.000000000000000D+00 -.000000000000000D+00
 0.297128233810068D+03 0.000000000000000D+00 0.000000000000000D+00 0.297128233810068D+03
 0.301278886612810D+03 0.000000000000000D+00 0.000000000000000D+00 -.301278886612810D+03
 0.141671473956415D+03 -.191768475962136D+02 -.500072569594520D+01 -.636635515170866D+02
 0.255912772890297D+03 -.810479241591693D+02 0.457602257907796D+02 0.220257421462858D+03
 0.179249513750742D+03 0.817534650058325D+02 -.304157695090011D+02 -.156593869945771D+03
 0.215733598254236D+02 0.184713067495504D+02 -.103437305858333D+02 -.415065280274250D+01
0.200489676283D-05 0.000000000000D+00 0.000000000000D+00 0.103546065712D-06 0.000000000000D+00  6 2 21 25 23 2 21 2 0.12668079D+00 0.15520957D-01 0.29529018D+05 0.29529018D+05 0.29529018D+05 0.12156203D+01  1  2  2  2  6  2       21 0.474629079148D-02 0.100000000000D+01
-.315858789520D-07 0.105801308902D-06 -.404730892780D-08 0.103546065712D-06 0.000000000000D+00  6 2 21 25 23 2 21 4 0.12668079D+00 0.15520957D-01 0.29529018D+05 0.29529018D+05 0.29529018D+05 0.12156203D+01  1  2  3  2  6  2       21 -.110497182182D-03 0.100000000000D+01
0.257247034864D-06 0.000000000000D+00 0.000000000000D+00 0.103546065712D-06 0.000000000000D+00  6 2 21 25 23 2 21 4 0.12668079D+00 0.15520957D-01 0.29529018D+05 0.29529018D+05 0.29529018D+05 0.12156203D+01  1  2 15  2  6  2       21 0.899929760398D-03 0.100000000000D+01
0.582232336688D-05 0.000000000000D+00 0.000000000000D+00 0.102607376509D-06 0.000000000000D+00  6 2 21 25 23 2 21 4 0.12668079D+00 0.16454699D-01 0.33353616D+05 0.33353616D+05 0.33353616D+05 0.12100977D+01  1  2 12  2  6  2       21 0.179309419903D-01 0.100000000000D+01
-.891353165759D-06 0.000000000000D+00 0.000000000000D+00 0.103546065712D-06 0.000000000000D+00  6 2 21 25 23 2 21 4 0.12668079D+00 0.15520957D-01 0.29529018D+05 0.29529018D+05 0.29529018D+05 0.12156203D+01  1  2  4  2  6  2       21 -.311822929782D-02 0.100000000000D+01
-.417787923745D-04 0.000000000000D+00 -.890125285349D-05 0.103546065712D-06 0.000000000000D+00  6 2 21 25 23 2 21 4 0.12668079D+00 0.16719566D-01 0.29529018D+05 0.29529018D+05 0.29529018D+05 0.12156203D+01  1  2  5  2  6  2       21 -.127587774365D+00 0.100000000000D+01
0.420051733419D-04 0.000000000000D+00 0.880350714960D-05 0.103546065712D-06 0.000000000000D+00  6 2 21 25 23 2 21 4 0.12668079D+00 0.15520957D-01 0.29529018D+05 0.29529018D+05 0.29529018D+05 0.12156203D+01  1  2  6  2  6  2       21 0.146947099316D+00 0.100000000000D+01
0.946471317627D-07 0.000000000000D+00 0.000000000000D+00 0.102607376509D-06 0.000000000000D+00  6 2 -1 25 23 2 -1 4 0.12668079D+00 0.16454699D-01 0.33353616D+05 0.33353616D+05 0.33353616D+05 0.12100977D+01  1  2 12  5  6  2       21 0.219475648815D-04 0.100000000000D+01
0.946471317627D-07 0.000000000000D+00 0.000000000000D+00 0.102607376509D-06 0.000000000000D+00  6 2 -3 25 23 2 -3 4 0.12668079D+00 0.16454699D-01 0.33353616D+05 0.33353616D+05 0.33353616D+05 0.12100977D+01  1  2 12  5  6  2       21 0.136470325101D-04 0.100000000000D+01
-.614493130795D-06 0.000000000000D+00 -.163581784801D-06 0.103546065712D-06 0.000000000000D+00  6 2 -1 25 23 2 -1 4 0.12668079D+00 0.16719566D-01 0.29529018D+05 0.29529018D+05 0.29529018D+05 0.12156203D+01  1  2  5  5  6  2       21 -.141492015451D-03 0.100000000000D+01
-.614493130795D-06 0.000000000000D+00 -.163581784801D-06 0.103546065712D-06 0.000000000000D+00  6 2 -3 25 23 2 -3 4 0.12668079D+00 0.16719566D-01 0.29529018D+05 0.29529018D+05 0.29529018D+05 0.12156203D+01  1  2  5  5  6  2       21 -.875382408113D-04 0.100000000000D+01
0.946471317627D-07 0.000000000000D+00 0.000000000000D+00 0.102607376509D-06 0.000000000000D+00  6 2 1 25 23 2 1 4 0.12668079D+00 0.16454699D-01 0.33353616D+05 0.33353616D+05 0.33353616D+05 0.12100977D+01  1  2 12  6  6  2       21 0.310419212333D-04 0.100000000000D+01
0.946471317627D-07 0.000000000000D+00 0.000000000000D+00 0.102607376509D-06 0.000000000000D+00  6 2 3 25 23 2 3 4 0.12668079D+00 0.16454699D-01 0.33353616D+05 0.33353616D+05 0.33353616D+05 0.12100977D+01  1  2 12  6  6  2       21 0.136455555074D-04 0.100000000000D+01
-.614493130795D-06 0.000000000000D+00 -.163581784801D-06 0.103546065712D-06 0.000000000000D+00  6 2 1 25 23 2 1 4 0.12668079D+00 0.16719566D-01 0.29529018D+05 0.29529018D+05 0.29529018D+05 0.12156203D+01  1  2  5  6  6  2       21 -.201085232498D-03 0.100000000000D+01
-.614493130795D-06 0.000000000000D+00 -.163581784801D-06 0.103546065712D-06 0.000000000000D+00  6 2 3 25 23 2 3 4 0.12668079D+00 0.16719566D-01 0.29529018D+05 0.29529018D+05 0.29529018D+05 0.12156203D+01  1  2  5  6  6  2       21 -.875287292541D-04 0.100000000000D+01
0.946471317627D-07 0.000000000000D+00 0.000000000000D+00 0.102607376509D-06 0.000000000000D+00  6 2 -2 25 23 2 -2 4 0.12668079D+00 0.16454699D-01 0.33353616D+05 0.33353616D+05 0.33353616D+05 0.12100977D+01  1  2 12  7  6  2       21 0.203934491560D-04 0.100000000000D+01
-.614493130795D-06 0.000000000000D+00 -.163581784801D-06 0.103546065712D-06 0.000000000000D+00  6 2 -2 25 23 2 -2 4 0.12668079D+00 0.16719566D-01 0.29529018D+05 0.29529018D+05 0.29529018D+05 0.12156203D+01  1  2  5  7  6  2       21 -.131307557352D-03 0.100000000000D+01
0.946471317627D-07 0.000000000000D+00 0.000000000000D+00 0.102607376509D-06 0.000000000000D+00  6 2 2 25 23 2 2 4 0.12668079D+00 0.16454699D-01 0.33353616D+05 0.33353616D+05 0.33353616D+05 0.12100977D+01  1  2 12  8  6  2       21 0.373659242234D-04 0.100000000000D+01
-.614493130795D-06 0.000000000000D+00 -.163581784801D-06 0.103546065712D-06 0.000000000000D+00  6 2 2 25 23 2 2 4 0.12668079D+00 0.16719566D-01 0.29529018D+05 0.29529018D+05 0.29529018D+05 0.12156203D+01  1  2  5  8  6  2       21 -.242530032053D-03 0.100000000000D+01
0.946471317627D-07 0.000000000000D+00 0.000000000000D+00 0.102607376509D-06 0.000000000000D+00  6 2 -4 25 23 2 -4 4 0.12668079D+00 0.16454699D-01 0.33353616D+05 0.33353616D+05 0.33353616D+05 0.12100977D+01  1  2 12  9  6  2       21 0.117797494892D-04 0.100000000000D+01
-.614493130795D-06 0.000000000000D+00 -.163581784801D-06 0.103546065712D-06 0.000000000000D+00  6 2 -4 25 23 2 -4 4 0.12668079D+00 0.16719566D-01 0.29529018D+05 0.29529018D+05 0.29529018D+05 0.12156203D+01  1  2  5  9  6  2       21 -.754260687563D-04 0.100000000000D+01
0.946471317627D-07 0.000000000000D+00 0.000000000000D+00 0.102607376509D-06 0.000000000000D+00  6 2 4 25 23 2 4 4 0.12668079D+00 0.16454699D-01 0.33353616D+05 0.33353616D+05 0.33353616D+05 0.12100977D+01  1  2 12 10  6  2       21 0.117797494892D-04 0.100000000000D+01
-.614493130795D-06 0.000000000000D+00 -.163581784801D-06 0.103546065712D-06 0.000000000000D+00  6 2 4 25 23 2 4 4 0.12668079D+00 0.16719566D-01 0.29529018D+05 0.29529018D+05 0.29529018D+05 0.12156203D+01  1  2  5 10  6  2       21 -.754260687563D-04 0.100000000000D+01
  </mgrwgt>
  </event>
  <event>
  6     66 -.49447450E-03 0.65767243E+02 0.75467711E-02 0.11791717E+00
        2 -1    0    0  503    0 0.00000000E+00 0.00000000E+00 0.20320746E+04 0.20320746E+04 0.32000000E+00 0.0000E+00 0.9000E+01
       21 -1    0    0  501  502 0.00000000E+00 0.00000000E+00 -.14356830E+02 0.14376406E+02 0.75000000E+00 0.0000E+00 0.9000E+01
       25  1    1    2    0    0 0.37211511E+01 0.88653055E+02 0.95151832E+03 0.96378697E+03 0.12500000E+03 0.0000E+00 0.9000E+01
       23  1    1    2    0    0 -.53896444E+02 -.37664810E+02 0.64336836E+03 0.65311680E+03 0.91188000E+02 0.0000E+00 0.9000E+01
        2  1    1    2  501    0 0.39238824E+02 -.43024303E+02 0.27506422E+03 0.28116046E+03 0.32000000E+00 0.0000E+00 0.9000E+01
       21  1    1    2  503  502 0.10936468E+02 -.79639420E+01 0.14776684E+03 0.14838676E+03 0.75000000E+00 0.0000E+00 0.9000E+01
#aMCatNLO 2  0  0  1  2 0.13528884D+02 0.00000000D+00  -5  6  0 0.00000000D+00 0.00000000D+00 0.00000000D+00 0.00000000D+00 0.00000000D+00
  <mgrwgt>
 -.6727223162D-01    3    2    0
 0.162594927409839D+03 0.000000000000000D+00 0.000000000000000D+00 0.162594927409839D+03
 0.162594927409839D+03 0.000000000000000D+00 0.000000000000000D+00 -.162594927409839D+03
 0.151824404751700D+03 0.885684433174066D+01 0.849133309439964D+02 0.117018124530684D+02
 0.111629972673054D+03 -.501306991062069D+02 -.404069605980227D+02 -.435886842511448D+00
 0.617354773949250D+02 0.412738547744663D+02 -.445063703459737D+02 -.112659256105570D+02
 0.000000000000000D+00 0.000000000000000D+00 -.000000000000000D+00 0.000000000000000D+00
 0.175517101336847D+03 0.000000000000000D+00 0.000000000000000D+00 0.175517101336847D+03
 0.166315563275376D+03 0.000000000000000D+00 0.000000000000000D+00 -.166315563275376D+03
 0.153737411532911D+03 0.372088709016367D+01 0.886533377229248D+02 0.117018124530684D+02
 0.112422911257692D+03 -.538966344109261D+02 -.376646045179065D+02 -.435886842511448D+00
 0.593108316750780D+02 0.392392790045174D+02 -.430247911945250D+02 -.112659256105570D+02
 0.163615101465429D+02 0.109364683162450D+02 -.796394201049329D+01 0.920153806147073D+01
-.368784477420D-05 0.000000000000D+00 0.000000000000D+00 0.167868743448D-06 0.000000000000D+00  6 2 21 25 23 2 21 4 0.31574664D+00 0.21606952D-02 0.28472075D+05 0.28472075D+05 0.28472075D+05 0.12172883D+01  1  2 13  1  6  1        2 -.798348639730D-01 0.100000000000D+01
-.231913912786D-08 0.000000000000D+00 0.000000000000D+00 0.168929579963D-06 0.000000000000D+00  6 2 21 25 23 2 21 4 0.28959681D+00 0.21606952D-02 0.26195541D+05 0.26195541D+05 0.26195541D+05 0.12211285D+01  1  2  8  1  6  1        2 -.622765886341D-04 0.100000000000D+01
0.590570183287D-06 0.000000000000D+00 0.000000000000D+00 0.168929579963D-06 0.968958420414D-08  6 2 21 25 23 2 21 4 0.31261241D+00 0.22101380D-02 0.28472075D+05 0.28472075D+05 0.28472075D+05 0.12172883D+01  1  2  1  1  6  1        2 0.126249089390D-01 0.100000000000D+01
  </mgrwgt>
  </event>
  <event>
  6     66 -.49447450E-03 0.26107142E+02 0.75467711E-02 0.11664877E+00
        2 -1    0    0  502    0 0.00000000E+00 0.00000000E+00 0.11912054E+04 0.11912054E+04 0.32000000E+00 0.0000E+00 0.9000E+01
       21 -1    0    0  501  503 0.00000000E+00 0.00000000E+00 -.42575277E+02 0.42581882E+02 0.75000000E+00 0.0000E+00 0.9000E+01
       25  1    1    2    0    0 0.92429760E+02 -.93918821E+00 0.53156407E+03 0.55383166E+03 0.12500000E+03 0.0000E+00 0.9000E+01
       23  1    1    2    0    0 -.74119205E+02 -.31026058E+02 0.56659080E+03 0.57947964E+03 0.91188000E+02 0.0000E+00 0.9000E+01
        2  1    1    2  501    0 0.20340976E+02 0.41236955E+02 0.35114632E+02 0.57856560E+02 0.32000000E+00 0.0000E+00 0.9000E+01
       21  1    1    2  502  503 -.38651532E+02 -.92717084E+01 0.15360582E+02 0.42619426E+02 0.75000000E+00 0.0000E+00 0.9000E+01
#aMCatNLO 2  0  0  2  1 0.39748025D+02 0.00000000D+00  -5  6  0 0.00000000D+00 0.00000000D+00 0.00000000D+00 0.00000000D+00 0.00000000D+00
  <mgrwgt>
 -.7703882593D-02    2    2    0
 0.182346649580244D+03 0.000000000000000D+00 0.000000000000000D+00 0.182346649580244D+03
 0.182346649580244D+03 0.000000000000000D+00 0.000000000000000D+00 -.182346649580244D+03
 0.147349233509424D+03 0.763917658107429D+02 -.478650160419013D+01 0.151057649433770D+02
 0.140693534949510D+03 -.884886331035847D+02 -.344731107786107D+02 0.496063088456877D+02
 0.766505307015532D+02 0.120968672928418D+02 0.392596123828008D+02 -.647120737890647D+02
 0.000000000000000D+00 -.000000000000000D+00 -.000000000000000D+00 -.000000000000000D+00
 0.188000306548299D+03 0.000000000000000D+00 0.000000000000000D+00 0.188000306548299D+03
 0.269782449325897D+03 0.000000000000000D+00 0.000000000000000D+00 -.269782449325897D+03
 0.156196412399108D+03 0.924297180442734D+02 -.939326398974157D+00 0.151057649433770D+02
 0.131271938964640D+03 -.741192315371430D+02 -.310261865943231D+02 0.496063088456877D+02
 0.793846273047433D+02 0.203410455394652D+02 0.412372213490802D+02 -.647120737890647D+02
 0.909297772057050D+02 -.386515320465956D+02 -.927170835578298D+01 -.817821427775982D+02
-.201002285378D-05 0.000000000000D+00 0.000000000000D+00 0.449702328429D-06 0.000000000000D+00  6 2 21 25 23 2 21 4 0.17775025D+00 0.65930805D-02 0.32893561D+05 0.32893561D+05 0.32893561D+05 0.12107236D+01  1  2 13  2  6  2       21 -.196356183597D-01 0.100000000000D+01
0.126552298269D-05 0.000000000000D+00 0.000000000000D+00 0.458414226840D-06 0.432272121998D-08  6 2 21 25 23 2 21 4 0.18326140D+00 0.65505013D-02 0.32893561D+05 0.32893561D+05 0.32893561D+05 0.12107236D+01  1  2  1  2  6  2       21 0.119317357670D-01 0.100000000000D+01
  </mgrwgt>
  </event>
  <event>
  5     66 0.49447450E-03 0.32749441E+03 0.75467711E-02 0.97898268E-01
        2 -1    0    0  502    0 0.00000000E+00 0.00000000E+00 0.14178871E+04 0.14178871E+04 0.32000000E+00 0.0000E+00 0.9000E+01
       21 -1    0    0  501  502 0.00000000E+00 0.00000000E+00 -.27061900E+03 0.27062004E+03 0.75000000E+00 0.0000E+00 0.9000E+01
       25  1    1    2    0    0 -.67795915E+02 0.25761878E+02 0.10382942E+03 0.17794805E+03 0.12500000E+03 0.0000E+00 0.9000E+01
       23  1    1    2    0    0 0.56764751E+02 0.45719738E+03 0.88545674E+03 0.10022977E+04 0.91188000E+02 0.0000E+00 0.9000E+01
        2  1    1    2  501    0 0.11031164E+02 -.48295926E+03 0.15798195E+03 0.50826148E+03 0.32000000E+00 0.0000E+00 0.9000E+01
#aMCatNLO 1  0  0  2  1 0.20227224D+03 0.00000000D+00  -5  6  0 0.00000000D+00 0.00000000D+00 0.00000000D+00 0.00000000D+00 0.00000000D+00
  <mgrwgt>
 0.8836511591D-02   23    2    0
 0.619441760949552D+03 0.000000000000000D+00 0.000000000000000D+00 0.619441760949552D+03
 0.619441760949552D+03 0.000000000000000D+00 0.000000000000000D+00 -.619441760949552D+03
 0.146378878984141D+03 -.677959150768119D+02 0.257618873427214D+02 -.232769257440144D+02
 0.546080831965791D+03 0.567647503771974D+02 0.457197420558232D+03 0.278634716871326D+03
 0.546423810949173D+03 0.110311646996145D+02 -.482959307900953D+03 -.255357791127312D+03
 0.000000000000000D+00 -.000000000000000D+00 0.000000000000000D+00 -.000000000000000D+00
 0.719894390832522D+03 0.000000000000000D+00 0.000000000000000D+00 0.719894390832522D+03
 0.738521069341981D+03 0.000000000000000D+00 0.000000000000000D+00 -.738521069341981D+03
 0.136496498569822D+03 -.468701154993313D+02 0.163606577743219D+02 -.232769257440144D+02
 0.531174717761920D+03 0.136455085825465D+03 0.421395341160598D+03 0.278634716871326D+03
 0.587616176781444D+03 0.949221477229509D+02 -.520648591275808D+03 -.255357791127312D+03
 0.203128067061316D+03 -.184507118049085D+03 0.828925923408881D+02 -.186266785094589D+02
0.300044225363D-04 0.000000000000D+00 0.000000000000D+00 0.152187017239D-07 0.000000000000D+00  6 2 21 25 23 2 21 2 0.21813656D+00 0.41633775D-01 0.30098783D+06 0.30098783D+06 0.30098783D+06 0.11220140D+01  1  2  2  2  6  2       21 0.357686079054D-02 0.100000000000D+01
-.229215568880D-05 0.158337687806D-05 -.605702844435D-07 0.152187017239D-07 0.000000000000D+00  6 2 21 25 23 2 21 4 0.21813656D+00 0.41633775D-01 0.30098783D+06 0.30098783D+06 0.30098783D+06 0.11220140D+01  1  2  3  2  6  2       21 -.343999178323D-03 0.100000000000D+01
0.284515646379D-05 0.000000000000D+00 0.000000000000D+00 0.152187017239D-07 0.000000000000D+00  6 2 21 25 23 2 21 4 0.21813656D+00 0.41633775D-01 0.30098783D+06 0.30098783D+06 0.30098783D+06 0.11220140D+01  1  2 15  2  6  2       21 0.426991713751D-03 0.100000000000D+01
0.199578236089D-04 0.000000000000D+00 0.000000000000D+00 0.148718826080D-07 0.000000000000D+00  6 2 21 25 23 2 21 4 0.21813656D+00 0.52441429D-01 0.43443069D+06 0.43443069D+06 0.43443069D+06 0.11091555D+01  1  2 12  2  6  2       21 0.171388961566D-02 0.100000000000D+01
-.155701558614D-04 0.000000000000D+00 0.000000000000D+00 0.152187017239D-07 0.000000000000D+00  6 2 21 25 23 2 21 4 0.21813656D+00 0.41633775D-01 0.30098783D+06 0.30098783D+06 0.30098783D+06 0.11220140D+01  1  2  4  2  6  2       21 -.233671772334D-02 0.100000000000D+01
-.954203519576D-04 0.000000000000D+00 -.405227000433D-04 0.152187017239D-07 0.000000000000D+00  6 2 21 25 23 2 21 4 0.21813656D+00 0.57675065D-01 0.30098783D+06 0.30098783D+06 0.30098783D+06 0.11220140D+01  1  2  5  2  6  2       21 -.715057423984D-02 0.100000000000D+01
0.895590803520D-04 0.000000000000D+00 0.330579011359D-04 0.152187017239D-07 0.000000000000D+00  6 2 21 25 23 2 21 4 0.21813656D+00 0.41633775D-01 0.30098783D+06 0.30098783D+06 0.30098783D+06 0.11220140D+01  1  2  6  2  6  2       21 0.134407318853D-01 0.100000000000D+01
0.136210937600D-05 0.000000000000D+00 0.000000000000D+00 0.148718826080D-07 0.000000000000D+00  6 2 -1 25 23 2 -1 4 0.21813656D+00 0.52441429D-01 0.43443069D+06 0.43443069D+06 0.43443069D+06 0.11091555D+01  1  2 12  5  6  2       21 0.125778828248D-04 0.100000000000D+01
0.136210937600D-05 0.000000000000D+00 0.000000000000D+00 0.148718826080D-07 0.000000000000D+00  6 2 -3 25 23 2 -3 4 0.21813656D+00 0.52441429D-01 0.43443069D+06 0.43443069D+06 0.43443069D+06 0.11091555D+01  1  2 12  5  6  2       21 0.678477904679D-05 0.100000000000D+01
-.751100464406D-05 0.000000000000D+00 -.422433560080D-05 0.152187017239D-07 0.000000000000D+00  6 2 -1 25 23 2 -1 4 0.21813656D+00 0.57675065D-01 0.30098783D+06 0.30098783D+06 0.30098783D+06 0.11220140D+01  1  2  5  5  6  2       21 -.614136182772D-04 0.100000000000D+01
-.751100464406D-05 0.000000000000D+00 -.422433560080D-05 0.152187017239D-07 0.000000000000D+00  6 2 -3 25 23 2 -3 4 0.21813656D+00 0.57675065D-01 0.30098783D+06 0.30098783D+06 0.30098783D+06 0.11220140D+01  1  2  5  5  6  2       21 -.324251131952D-04 0.100000000000D+01
0.136210937600D-05 0.000000000000D+00 0.000000000000D+00 0.148718826080D-07 0.000000000000D+00  6 2 1 25 23 2 1 4 0.21813656D+00 0.52441429D-01 0.43443069D+06 0.43443069D+06 0.43443069D+06 0.11091555D+01  1  2 12  6  6  2       21 0.296515522585D-04 0.100000000000D+01
0.136210937600D-05 0.000000000000D+00 0.000000000000D+00 0.148718826080D-07 0.000000000000D+00  6 2 3 25 23 2 3 4 0.21813656D+00 0.52441429D-01 0.43443069D+06 0.43443069D+06 0.43443069D+06 0.11091555D+01  1  2 12  6  6  2       21 0.678835040850D-05 0.100000000000D+01
-.751100464406D-05 0.000000000000D+00 -.422433560080D-05 0.152187017239D-07 0.000000000000D+00  6 2 1 25 23 2 1 4 0.21813656D+00 0.57675065D-01 0.30098783D+06 0.30098783D+06 0.30098783D+06 0.11220140D+01  1  2  5  6  6  2       21 -.153431288417D-03 0.100000000000D+01
-.751100464406D-05 0.000000000000D+00 -.422433560080D-05 0.152187017239D-07 0.000000000000D+00  6 2 3 25 23 2 3 4 0.21813656D+00 0.57675065D-01 0.30098783D+06 0.30098783D+06 0.30098783D+06 0.11220140D+01  1  2  5  6  6  2       21 -.324463456981D-04 0.100000000000D+01
0.136210937600D-05 0.000000000000D+00 0.000000000000D+00 0.148718826080D-07 0.000000000000D+00  6 2 -2 25 23 2 -2 4 0.21813656D+00 0.52441429D-01 0.43443069D+06 0.43443069D+06 0.43443069D+06 0.11091555D+01  1  2 12  7  6  2       21 0.103052836649D-04 0.100000000000D+01
-.751100464406D-05 0.000000000000D+00 -.422433560080D-05 0.152187017239D-07 0.000000000000D+00  6 2 -2 25 23 2 -2 4 0.21813656D+00 0.57675065D-01 0.30098783D+06 0.30098783D+06 0.30098783D+06 0.11220140D+01  1  2  5  7  6  2       21 -.495853482416D-04 0.100000000000D+01
0.136210937600D-05 0.000000000000D+00 0.000000000000D+00 0.148718826080D-07 0.000000000000D+00  6 2 2 25 23 2 2 4 0.21813656D+00 0.52441429D-01 0.43443069D+06 0.43443069D+06 0.43443069D+06 0.11091555D+01  1  2 12  8  6  2       21 0.433057799871D-04 0.100000000000D+01
-.751100464406D-05 0.000000000000D+00 -.422433560080D-05 0.152187017239D-07 0.000000000000D+00  6 2 2 25 23 2 2 4 0.21813656D+00 0.57675065D-01 0.30098783D+06 0.30098783D+06 0.30098783D+06 0.11220140D+01  1  2  5  8  6  2       21 -.227961759972D-03 0.100000000000D+01
0.136210937600D-05 0.000000000000D+00 0.000000000000D+00 0.148718826080D-07 0.000000000000D+00  6 2 -4 25 23 2 -4 4 0.21813656D+00 0.52441429D-01 0.43443069D+06 0.43443069D+06 0.43443069D+06 0.11091555D+01  1  2 12  9  6  2       21 0.571143210715D-05 0.100000000000D+01
-.751100464406D-05 0.000000000000D+00 -.422433560080D-05 0.152187017239D-07 0.000000000000D+00  6 2 -4 25 23 2 -4 4 0.21813656D+00 0.57675065D-01 0.30098783D+06 0.30098783D+06 0.30098783D+06 0.11220140D+01  1  2  5  9  6  2       21 -.271221457384D-04 0.100000000000D+01
0.136210937600D-05 0.000000000000D+00 0.000000000000D+00 0.148718826080D-07 0.000000000000D+00  6 2 4 25 23 2 4 4 0.21813656D+00 0.52441429D-01 0.43443069D+06 0.43443069D+06 0.43443069D+06 0.11091555D+01  1  2 12 10  6  2       21 0.571143210715D-05 0.100000000000D+01
-.751100464406D-05 0.000000000000D+00 -.422433560080D-05 0.152187017239D-07 0.000000000000D+00  6 2 4 25 23 2 4 4 0.21813656D+00 0.57675065D-01 0.30098783D+06 0.30098783D+06 0.30098783D+06 0.11220140D+01  1  2  5 10  6  2       21 -.271221457384D-04 0.100000000000D+01
  </mgrwgt>
  </event>
  <event>
  6     66 0.49447450E-03 0.27297538E+03 0.75467711E-02 0.10491305E+00
        2 -1    0    0  502    0 0.00000000E+00 0.00000000E+00 0.62672702E+03 0.62672710E+03 0.32000000E+00 0.0000E+00 0.9000E+01
       21 -1    0    0  501  502 -.00000000E+00 -.00000000E+00 -.12854549E+04 0.12854551E+04 0.75000000E+00 0.0000E+00 0.9000E+01
       25  1    1    2    0    0 0.81804962E+02 0.97051602E+02 0.20867821E+03 0.27437686E+03 0.12500000E+03 0.0000E+00 0.9000E+01
       23  1    1    2    0    0 0.24244749E+03 -.34363081E+02 0.31225545E+03 0.40716130E+03 0.91188000E+02 0.0000E+00 0.9000E+01
        2  1    1    2  503    0 -.16053241E+03 -.35842084E+02 -.38194456E+03 0.41585702E+03 0.32000000E+00 0.0000E+00 0.9000E+01
       21  1    1    2  501  503 -.16372005E+03 -.26846437E+02 -.79771699E+03 0.81478706E+03 0.75000000E+00 0.0000E+00 0.9000E+01
#aMCatNLO 2  0  0  5  2 0.55775527D+02 0.00000000D+00  -5  6  0 0.00000000D+00 0.00000000D+00 0.00000000D+00 0.00000000D+00 0.00000000D+00
  <mgrwgt>
 0.1690759826D-01    2    2    0
 0.897568726213025D+03 0.000000000000000D+00 0.000000000000000D+00 0.897568726213025D+03
 0.897568726213025D+03 -.000000000000000D+00 -.000000000000000D+00 -.897568726213025D+03
 0.370328395836385D+03 0.824125875845460D+02 0.971690752076704D+02 0.324475664717181D+03
 0.550651596107977D+03 0.243350862324096D+03 -.341884293958118D+02 0.484265875376150D+03
 0.874157460481687D+03 -.325763449908642D+03 -.629806458118586D+02 -.808741540093331D+03
 0.000000000000000D+00 0.000000000000000D+00 0.000000000000000D+00 -.000000000000000D+00
 0.897568726213025D+03 0.000000000000000D+00 0.000000000000000D+00 0.897568726213025D+03
 0.897568726213025D+03 -.000000000000000D+00 -.000000000000000D+00 -.897568726213025D+03
 0.368842443560577D+03 0.818054547812885D+02 0.970516967354893D+02 0.322968394584557D+03
 0.548293062256413D+03 0.242448222074378D+03 -.343629390465383D+02 0.482024977368986D+03
 0.302483321592792D+03 -.160377530020041D+03 -.358091253703835D+02 -.253954551537646D+03
 0.575518625016268D+03 -.163876146835626D+03 -.268796323185674D+02 -.551038820415897D+03
-.419901046530D-03 0.000000000000D+00 0.000000000000D+00 0.526375238002D-06 0.000000000000D+00  6 2 21 25 23 2 21 4 0.96419565D-01 0.19776232D+00 0.14816269D+06 0.14816269D+06 0.14816269D+06 0.11482057D+01  1  2 13  3  6  5        2 -.534034113723D-02 0.100000000000D+01
0.174931391021D-02 0.000000000000D+00 0.000000000000D+00 0.526142085721D-06 0.107751466451D-08  6 2 21 25 23 2 21 4 0.96419565D-01 0.19776232D+00 0.14816269D+06 0.14816269D+06 0.14816269D+06 0.11482057D+01  1  2  1  3  6  5        2 0.222479393986D-01 0.100000000000D+01
  </mgrwgt>
  </event>
  <event>
  5     66 -.49447450E-03 0.19847013E+03 0.75467711E-02 0.11060503E+00
        2 -1    0    0  502    0 0.00000000E+00 0.00000000E+00 0.12184441E+04 0.12184442E+04 0.32000000E+00 0.0000E+00 0.9000E+01
       21 -1    0    0  501  502 0.00000000E+00 0.00000000E+00 -.57311076E+02 0.57315983E+02 0.75000000E+00 0.0000E+00 0.9000E+01
       25  1    1    2    0    0 -.30109623E+02 0.30722525E+02 0.23436122E+03 0.26907368E+03 0.12500000E+03 0.0000E+00 0.9000E+01
       23  1    1    2    0    0 0.38398807E+02 0.16757427E+03 0.46139093E+03 0.50075188E+03 0.91188000E+02 0.0000E+00 0.9000E+01
        2  1    1    2  501    0 -.82891838E+01 -.19829679E+03 0.46538089E+03 0.50593458E+03 0.32000000E+00 0.0000E+00 0.9000E+01
#aMCatNLO 1  0  0  5  2 0.12934319D+02 0.00000000D+00  -5  6  0 0.00000000D+00 0.00000000D+00 0.00000000D+00 0.00000000D+00 0.00000000D+00
  <mgrwgt>
 -.7444506998D-02    4    2    0
 0.264260288804899D+03 0.000000000000000D+00 0.000000000000000D+00 0.264260288804899D+03
 0.264260288804899D+03 -.000000000000000D+00 -.000000000000000D+00 -.264260288804899D+03
 0.134619027375090D+03 -.301096205863153D+02 0.307225905993783D+02 -.254325717619426D+02
 0.195078644666814D+03 0.383988110495139D+02 0.167574360005348D+03 0.135938015221315D+02
 0.198822905567893D+03 -.828919046319861D+01 -.198296950604726D+03 0.118387702398112D+02
 0.000000000000000D+00 0.000000000000000D+00 0.000000000000000D+00 -.000000000000000D+00
 0.264260288804899D+03 0.000000000000000D+00 0.000000000000000D+00 0.264260288804899D+03
 0.264260288804899D+03 -.000000000000000D+00 -.000000000000000D+00 -.264260288804899D+03
 0.133338610861470D+03 -.303667344192171D+02 0.245718224092789D+02 -.250653571820973D+02
 0.187551801939880D+03 0.380316650283763D+02 0.158791362830719D+03 0.141181660433722D+02
 0.192374417819827D+03 0.371367555270635D+01 -.191594056957199D+03 0.169068797857058D+02
 0.152557469886211D+02 -.113786061618656D+02 0.823087171720142D+01 -.595968864698071D+01
0.250754983399D-05 0.000000000000D+00 0.000000000000D+00 0.665125454838D-07 0.000000000000D+00  6 2 21 25 23 2 21 2 0.18745332D+00 0.88174693D-02 0.68976977D+05 0.68976977D+05 0.68976977D+05 0.11786861D+01  1  2  2  3  6  5        2 0.866824730591D-02 0.100000000000D+01
-.256928329539D-06 0.132327040220D-06 -.506202065769D-08 0.665125454838D-07 0.000000000000D+00  6 2 21 25 23 2 21 4 0.18745332D+00 0.88174693D-02 0.68976977D+05 0.68976977D+05 0.68976977D+05 0.11786861D+01  1  2  3  3  6  5        2 -.123392856989D-02 0.100000000000D+01
0.314455514658D-06 0.000000000000D+00 0.000000000000D+00 0.665125454838D-07 0.000000000000D+00  6 2 21 25 23 2 21 4 0.18745332D+00 0.88174693D-02 0.68976977D+05 0.68976977D+05 0.68976977D+05 0.11786861D+01  1  2 15  3  6  5        2 0.151020965338D-02 0.100000000000D+01
-.341252126556D-05 0.000000000000D+00 0.000000000000D+00 0.665125454838D-07 0.000000000000D+00  6 2 21 25 23 2 21 4 0.18745332D+00 0.88174693D-02 0.68976977D+05 0.68976977D+05 0.68976977D+05 0.11786861D+01  1  2  4  3  6  5        2 -.163890353878D-01 0.100000000000D+01
  </mgrwgt>
  </event>
  <event>
  5     66 0.49447450E-03 0.61254678E+02 0.75467711E-02 0.10376298E+00
        2 -1    0    0  502    0 0.00000000E+00 0.00000000E+00 0.75504206E+02 0.75504884E+02 0.32000000E+00 0.0000E+00 0.9000E+01
       21 -1    0    0  501  502 0.00000000E+00 0.00000000E+00 -.69295473E+03 0.69295513E+03 0.75000000E+00 0.0000E+00 0.9000E+01
       25  1    1    2    0    0 -.41158265E+02 0.49987905E+02 -.95371041E+02 0.17003949E+03 0.12500000E+03 0.0000E+00 0.9000E+01
       23  1    1    2    0    0 0.12185547E+02 -.10395739E+03 -.97966540E+02 0.16990680E+03 0.91188000E+02 0.0000E+00 0.9000E+01
        2  1    1    2  501    0 0.28972718E+02 0.53969484E+02 -.42411294E+03 0.42851372E+03 0.32000000E+00 0.0000E+00 0.9000E+01
#aMCatNLO 1  0  0  2  1 0.21502330D+02 0.00000000D+00  -5  6  0 0.00000000D+00 0.00000000D+00 0.00000000D+00 0.00000000D+00 0.00000000D+00
  <mgrwgt>
 0.1593791562D-01   12    2    0
 0.228738743487761D+03 0.000000000000000D+00 0.000000000000000D+00 0.228738743487761D+03
 0.228738743487761D+03 0.000000000000000D+00 0.000000000000000D+00 -.228738743487761D+03
 0.156907547201321D+03 -.411582882291052D+02 0.499878618717130D+02 0.692978163023854D+02
 0.153181579654581D+03 0.121855241189319D+02 -.103957432382664D+03 0.647588623728328D+02
 0.147388360119621D+03 0.289727641101733D+02 0.539695705109508D+02 -.134056678675218D+03
 0.000000000000000D+00 -.000000000000000D+00 0.000000000000000D+00 -.000000000000000D+00
 0.347870128494847D+03 0.000000000000000D+00 0.000000000000000D+00 0.347870128494847D+03
 0.869479061227078D+03 0.000000000000000D+00 0.000000000000000D+00 -.869479061227078D+03
 0.155880606279440D+03 -.242788310933533D+02 -.572897410581251D+02 0.692978163023854D+02
 0.277751256152849D+03 0.354406002765619D+02 -.251755362498397D+03 0.647588623728328D+02
 0.149252996769113D+03 0.449808673985308D+02 -.477701320409085D+02 -.134056678675218D+03
 0.634464330520524D+03 -.561426365817393D+02 0.356815235597430D+03 -.521608932732231D+03
0.195141716316D-04 0.000000000000D+00 0.000000000000D+00 0.548750822309D-06 0.000000000000D+00  6 2 21 25 23 2 21 2 0.11616115D-01 0.10660850D+00 0.29044676D+05 0.29044676D+05 0.29044676D+05 0.12163763D+01  1  2  2  2  6  2       21 0.132109765058D-01 0.100000000000D+01
0.101880896588D-05 0.102979112891D-05 -.393934902422D-07 0.548750822309D-06 0.000000000000D+00  6 2 21 25 23 2 21 4 0.11616115D-01 0.10660850D+00 0.29044676D+05 0.29044676D+05 0.29044676D+05 0.12163763D+01  1  2  3  2  6  2       21 0.102050099491D-02 0.100000000000D+01
0.118783485757D-05 0.000000000000D+00 0.000000000000D+00 0.548750822309D-06 0.000000000000D+00  6 2 21 25 23 2 21 4 0.11616115D-01 0.10660850D+00 0.29044676D+05 0.29044676D+05 0.29044676D+05 0.12163763D+01  1  2 15  2  6  2       21 0.118980760332D-02 0.100000000000D+01
0.136029117631D-04 0.000000000000D+00 -.926125608096D-04 0.548750822309D-06 0.000000000000D+00  6 2 21 25 23 2 21 4 0.11616115D-01 0.46336634D+00 0.29044676D+05 0.29044676D+05 0.29044676D+05 0.12163763D+01  1  2  5  2  6  2       21 0.675612404032D-04 0.100000000000D+01
0.853242645189D-05 0.000000000000D+00 -.372745060481D-04 0.548750822309D-06 0.000000000000D+00  6 2 -1 25 23 2 -1 4 0.11616115D-01 0.46336634D+00 0.29044676D+05 0.29044676D+05 0.29044676D+05 0.12163763D+01  1  2  5  5  6  2       21 0.389400129826D-05 0.100000000000D+01
0.853242645189D-05 0.000000000000D+00 -.372745060481D-04 0.548750822309D-06 0.000000000000D+00  6 2 -3 25 23 2 -3 4 0.11616115D-01 0.46336634D+00 0.29044676D+05 0.29044676D+05 0.29044676D+05 0.12163763D+01  1  2  5  5  6  2       21 0.369582621385D-05 0.100000000000D+01
0.853242645189D-05 0.000000000000D+00 -.372745060481D-04 0.548750822309D-06 0.000000000000D+00  6 2 1 25 23 2 1 4 0.11616115D-01 0.46336634D+00 0.29044676D+05 0.29044676D+05 0.29044676D+05 0.12163763D+01  1  2  5  6  6  2       21 0.100761496571D-03 0.100000000000D+01
0.853242645189D-05 0.000000000000D+00 -.372745060481D-04 0.548750822309D-06 0.000000000000D+00  6 2 3 25 23 2 3 4 0.11616115D-01 0.46336634D+00 0.29044676D+05 0.29044676D+05 0.29044676D+05 0.12163763D+01  1  2  5  6  6  2       21 0.400558068357D-05 0.100000000000D+01
0.853242645189D-05 0.000000000000D+00 -.372745060481D-04 0.548750822309D-06 0.000000000000D+00  6 2 -2 25 23 2 -2 4 0.11616115D-01 0.46336634D+00 0.29044676D+05 0.29044676D+05 0.29044676D+05 0.12163763D+01  1  2  5  7  6  2       21 0.364518645226D-05 0.100000000000D+01
0.853242645189D-05 0.000000000000D+00 -.372745060481D-04 0.548750822309D-06 0.000000000000D+00  6 2 2 25 23 2 2 4 0.11616115D-01 0.46336634D+00 0.29044676D+05 0.29044676D+05 0.29044676D+05 0.12163763D+01  1  2  5  8  6  2       21 0.329774021981D-03 0.100000000000D+01
0.853242645189D-05 0.000000000000D+00 -.372745060481D-04 0.548750822309D-06 0.000000000000D+00  6 2 -4 25 23 2 -4 4 0.11616115D-01 0.46336634D+00 0.29044676D+05 0.29044676D+05 0.29044676D+05 0.12163763D+01  1  2  5  9  6  2       21 0.164658223392D-05 0.100000000000D+01
0.853242645189D-05 0.000000000000D+00 -.372745060481D-04 0.548750822309D-06 0.000000000000D+00  6 2 4 25 23 2 4 4 0.11616115D-01 0.46336634D+00 0.29044676D+05 0.29044676D+05 0.29044676D+05 0.12163763D+01  1  2  5 10  6  2       21 0.164658223392D-05 0.100000000000D+01
  </mgrwgt>
  </event>
  <event>
  5     66 0.49447450E-03 0.72462818E+02 0.75467711E-02 0.10556563E+00
        2 -1    0    0  502    0 0.00000000E+00 0.00000000E+00 0.63634110E+03 0.63634118E+03 0.32000000E+00 0.0000E+00 0.9000E+01
       21 -1    0    0  501  502 0.00000000E+00 0.00000000E+00 -.47298395E+03 0.47298455E+03 0.75000000E+00 0.0000E+00 0.9000E+01
       25  1    1    2    0    0 0.62440813E+02 -.17927153E+03 0.32446960E+03 0.39615989E+03 0.12500000E+03 0.0000E+00 0.9000E+01
       23  1    1    2    0    0 -.13277776E+03 0.19669484E+03 0.21326661E+03 0.33183836E+03 0.91188000E+02 0.0000E+00 0.9000E+01
        2  1    1    2  501    0 0.70336949E+02 -.17423316E+02 -.37437907E+03 0.38132748E+03 0.32000000E+00 0.0000E+00 0.9000E+01
#aMCatNLO 1  0  0  5  2 0.16968548D+02 0.00000000D+00  -5  6  0 0.00000000D+00 0.00000000D+00 0.00000000D+00 0.00000000D+00 0.00000000D+00
  <mgrwgt>
 0.2636288801D-01    4    2    0
 0.548615988861746D+03 0.000000000000000D+00 0.000000000000000D+00 0.548615988861746D+03
 0.548615988861746D+03 -.000000000000000D+00 -.000000000000000D+00 -.548615988861746D+03
 0.352219009271598D+03 0.624408069708036D+02 -.179271527827538D+03 0.269065225228904D+03
 0.303744541175991D+03 -.132777766828572D+03 0.196694846192677D+03 0.166212806568777D+03
 0.441268427275903D+03 0.703369598577688D+02 -.174233183651382D+02 -.435278031797681D+03
 0.000000000000000D+00 0.000000000000000D+00 0.000000000000000D+00 0.000000000000000D+00
 0.548615988861746D+03 0.000000000000000D+00 0.000000000000000D+00 0.548615988861746D+03
 0.548615988861746D+03 -.000000000000000D+00 -.000000000000000D+00 -.548615988861746D+03
 0.325152553421898D+03 0.688410109442741D+02 -.180856936006355D+03 0.229457767154097D+03
 0.282938457635738D+03 -.127234441618356D+03 0.195321697280151D+03 0.131908115379443D+03
 0.335171517175843D+03 -.767050545890228D+02 -.740737769802759D+02 -.317756756167871D+03
 0.153969449490013D+03 0.135098485263105D+03 0.596090157064804D+02 -.436091263656688D+02
0.245885714794D-03 0.000000000000D+00 0.000000000000D+00 0.775742622845D-06 0.000000000000D+00  6 2 21 25 23 2 21 2 0.97898682D-01 0.72766814D-01 0.76725718D+05 0.76725718D+05 0.76725718D+05 0.11742916D+01  1  2  2  3  6  5        2 0.328128375962D-01 0.100000000000D+01
0.492174894544D-04 0.129757456582D-04 -.496372415355D-06 0.775742622845D-06 0.000000000000D+00  6 2 21 25 23 2 21 4 0.97898682D-01 0.72766814D-01 0.76725718D+05 0.76725718D+05 0.76725718D+05 0.11742916D+01  1  2  3  3  6  5        2 0.905694762753D-02 0.100000000000D+01
0.221694075955D-04 0.000000000000D+00 0.000000000000D+00 0.775742622845D-06 0.000000000000D+00  6 2 21 25 23 2 21 4 0.97898682D-01 0.72766814D-01 0.76725718D+05 0.76725718D+05 0.76725718D+05 0.11742916D+01  1  2 15  3  6  5        2 0.407958970990D-02 0.100000000000D+01
-.106437373061D-03 0.000000000000D+00 0.000000000000D+00 0.775742622845D-06 0.000000000000D+00  6 2 21 25 23 2 21 4 0.97898682D-01 0.72766814D-01 0.76725718D+05 0.76725718D+05 0.76725718D+05 0.11742916D+01  1  2  4  3  6  5        2 -.195864869198D-01 0.100000000000D+01
  </mgrwgt>
  </event>
  <event>
  6     66 -.49447450E-03 0.55947458E+02 0.75467711E-02 0.11620298E+00
        2 -1    0    0  502    0 0.00000000E+00 0.00000000E+00 0.37379015E+04 0.37379015E+04 0.32000000E+00 0.0000E+00 0.9000E+01
       21 -1    0    0  503  502 0.00000000E+00 0.00000000E+00 -.11555866E+02 0.11580179E+02 0.75000000E+00 0.0000E+00 0.9000E+01
       25  1    1    2    0    0 0.84778939E+02 0.80113743E+02 0.11438490E+04 0.11565558E+04 0.12500000E+03 0.0000E+00 0.9000E+01
       23  1    1    2    0    0 -.93131937E+02 -.15233589E+02 0.22036438E+04 0.22075477E+04 0.91188000E+02 0.0000E+00 0.9000E+01
        2  1    1    2  501    0 -.56441102E+01 -.46750637E+02 0.22995790E+03 0.23473009E+03 0.32000000E+00 0.0000E+00 0.9000E+01
       21  1    1    2  503  501 0.13997108E+02 -.18129517E+02 0.14889501E+03 0.15064821E+03 0.75000000E+00 0.0000E+00 0.9000E+01
#aMCatNLO 2  0  0  2  1 0.22904114D+02 0.00000000D+00  -5  6  0 0.00000000D+00 0.00000000D+00 0.00000000D+00 0.00000000D+00 0.00000000D+00
  <mgrwgt>
 -.1795582117D-01    2    2    0
 0.195528019598206D+03 0.000000000000000D+00 0.000000000000000D+00 0.195528019598206D+03
 0.195528019598206D+03 0.000000000000000D+00 0.000000000000000D+00 -.195528019598206D+03
 0.178804349303512D+03 0.911801046648802D+02 0.718231119179802D+02 -.536061977533495D+02
 0.153794607667493D+03 -.875896510461231D+02 -.224118223625486D+02 0.846362407695776D+02
 0.584570822254080D+02 -.359045361875710D+01 -.494112895554316D+02 -.310300430162281D+02
 0.000000000000000D+00 0.000000000000000D+00 -.000000000000000D+00 -.000000000000000D+00
 0.204032841765336D+03 0.000000000000000D+00 0.000000000000000D+00 0.204032841765336D+03
 0.211916206763477D+03 0.000000000000000D+00 0.000000000000000D+00 -.211916206763477D+03
 0.179176904950460D+03 0.847789601032750D+02 0.801140858642373D+02 -.536061977533495D+02
 0.156154256900575D+03 -.931319174783146D+02 -.152332957490219D+02 0.846362407695776D+02
 0.563950489347840D+02 -.564415080549093D+01 -.467512730998054D+02 -.310300430162281D+02
 0.242228377429941D+02 0.139971081805305D+02 -.181295170154099D+02 -.788336499814043D+01
-.516291455177D-05 0.000000000000D+00 0.000000000000D+00 0.140377427106D-06 0.000000000000D+00  6 2 21 25 23 2 21 4 0.55107745D+00 0.18130345D-02 0.34631929D+05 0.34631929D+05 0.34631929D+05 0.12084079D+01  1  2 13  2  6  2       21 -.189753151823D-01 0.100000000000D+01
0.343904404875D-06 0.000000000000D+00 0.000000000000D+00 0.141759497023D-06 0.400504706409D-08  6 2 21 25 23 2 21 4 0.57504750D+00 0.17796468D-02 0.34631929D+05 0.34631929D+05 0.34631929D+05 0.12084079D+01  1  2  1  2  6  2       21 0.101949400827D-02 0.100000000000D+01
  </mgrwgt>
  </event>
  <event>
  6     66 0.49447450E-03 0.50417648E+02 0.75467711E-02 0.10854138E+00
        2 -1    0    0  502    0 0.00000000E+00 0.00000000E+00 0.30621110E+04 0.30621110E+04 0.32000000E+00 0.0000E+00 0.9000E+01
        1 -1    0    0  501    0 0.00000000E+00 0.00000000E+00 -.18354332E+03 0.18354360E+03 0.32000000E+00 0.0000E+00 0.9000E+01
       25  1    1    2    0    0 0.19642640E+03 -.64511135E+02 0.16378970E+04 0.16556197E+04 0.12500000E+03 0.0000E+00 0.9000E+01
       23  1    1    2    0    0 -.15319134E+03 0.73710659E+02 0.13548319E+04 0.13684975E+04 0.91188000E+02 0.0000E+00 0.9000E+01
        2  1    1    2  501    0 -.59897647E+02 0.65208476E+02 -.53983332E+01 0.88708049E+02 0.32000000E+00 0.0000E+00 0.9000E+01
        1  1    1    2  502    0 0.16662592E+02 -.74408000E+02 -.10876281E+03 0.13282938E+03 0.32000000E+00 0.0000E+00 0.9000E+01
#aMCatNLO 2  0  0  2  2 0.11205045D+03 0.00000000D+00  -5  6  0 0.00000000D+00 0.00000000D+00 0.00000000D+00 0.00000000D+00 0.00000000D+00
  <mgrwgt>
 0.6120331363D-02    1    2    0
 0.435810539993898D+03 0.000000000000000D+00 0.000000000000000D+00 0.435810539993898D+03
 0.435810539993898D+03 0.000000000000000D+00 0.000000000000000D+00 -.435810539993898D+03
 0.308377456661934D+03 0.202211133245292D+03 -.903432614412419D+02 0.174414473255797D+03
 0.234650003949981D+03 -.148635012586238D+03 0.533640737692222D+02 0.147666115524069D+03
 0.328593619375881D+03 -.535761206590540D+02 0.369791876720197D+02 -.322080588779866D+03
 0.000000000000000D+00 0.000000000000000D+00 -.000000000000000D+00 -.000000000000000D+00
 0.439200912092647D+03 0.000000000000000D+00 0.000000000000000D+00 0.439200912092647D+03
 0.127966586733410D+04 0.000000000000000D+00 0.000000000000000D+00 -.127966586733410D+04
 0.297977226711801D+03 0.196426404052493D+03 -.645111381760184D+02 0.174414473255797D+03
 0.242943159596489D+03 -.153191334473746D+03 0.737106560743451D+02 0.147666115524069D+03
 0.334029612001086D+03 -.598976615912457D+02 0.652084822757858D+02 -.322080588779866D+03
 0.843916781117370D+03 0.166625920124985D+02 -.744080001741124D+02 -.840464955241453D+03
0.780394697353D-03 0.000000000000D+00 0.000000000000D+00 0.681929297067D-06 0.367996869957D-08  6 2 1 25 23 2 1 4 0.47109399D+00 0.28237454D-01 0.89792384D+05 0.89792384D+05 0.89792384D+05 0.11678918D+01  1  2  1  6  6  2       21 0.612033136306D-02 0.100000000000D+01
  </mgrwgt>
  </event>
  <event>
  5     66 0.49447450E-03 0.23715957E+02 0.75467711E-02 0.11808209E+00
        2 -1    0    0  502    0 0.00000000E+00 0.00000000E+00 0.65633981E+03 0.65633988E+03 0.32000000E+00 0.0000E+00 0.9000E+01
       21 -1    0    0  501  502 0.00000000E+00 0.00000000E+00 -.74259719E+02 0.74263507E+02 0.75000000E+00 0.0000E+00 0.9000E+01
       25  1    1    2    0    0 -.95707367E+02 -.25366840E+02 0.84418448E+02 0.18042963E+03 0.12500000E+03 0.0000E+00 0.9000E+01
       23  1    1    2    0    0 0.10695442E+03 0.44878572E+01 0.50588881E+03 0.52506964E+03 0.91188000E+02 0.0000E+00 0.9000E+01
        2  1    1    2  501    0 -.11247051E+02 0.20878983E+02 -.82271720E+01 0.25104120E+02 0.32000000E+00 0.0000E+00 0.9000E+01
#aMCatNLO 1  0  0  2  1 0.99094292D+01 0.00000000D+00  -5  6  0 0.00000000D+00 0.00000000D+00 0.00000000D+00 0.00000000D+00 0.00000000D+00
  <mgrwgt>
 0.6180242663D-01   41    2    0
 0.220773688981383D+03 0.000000000000000D+00 0.000000000000000D+00 0.220773688981383D+03
 0.220773688981383D+03 0.000000000000000D+00 0.000000000000000D+00 -.220773688981383D+03
 0.187259871309635D+03 -.957072776806254D+02 -.253670055538945D+02 -.981727631835508D+02
 0.201903598545514D+03 0.106954514107090D+03 0.448767909122901D+01 0.144880655748511D+03
 0.523839081076170D+02 -.112472364264645D+02 0.208793264626655D+02 -.467078925649607D+02
 0.000000000000000D+00 -.000000000000000D+00 -.000000000000000D+00 -.000000000000000D+00
 0.221220000078453D+03 0.000000000000000D+00 0.000000000000000D+00 0.221220000078453D+03
 0.283659944908768D+03 0.000000000000000D+00 0.000000000000000D+00 -.283659944908768D+03
 0.185093415409051D+03 -.917777175318834D+02 -.239485189799218D+02 -.981727631835508D+02
 0.204246367009722D+03 0.111240741128538D+03 0.603491472391685D+01 0.144880655748511D+03
 0.523187777533576D+02 -.101422763885090D+02 0.212781932363725D+02 -.467078925649607D+02
 0.632213848150907D+02 -.932074720814590D+01 -.336458898036753D+01 -.624399448303152D+02
0.358982939743D-06 0.000000000000D+00 0.000000000000D+00 0.391036848584D-06 0.000000000000D+00  6 2 21 25 23 2 21 2 0.10097565D+00 0.11424870D-01 0.26211788D+05 0.26211788D+05 0.26211788D+05 0.12210998D+01  1  2  2  2  6  2       21 0.196407415550D-02 0.100000000000D+01
0.364472141532D-07 0.189440501886D-07 -.724683127771D-09 0.391036848584D-06 0.000000000000D+00  6 2 21 25 23 2 21 4 0.10097565D+00 0.11424870D-01 0.26211788D+05 0.26211788D+05 0.26211788D+05 0.12210998D+01  1  2  3  2  6  2       21 0.297338231610D-03 0.100000000000D+01
0.539022277526D-07 0.000000000000D+00 0.000000000000D+00 0.391036848584D-06 0.000000000000D+00  6 2 21 25 23 2 21 4 0.10097565D+00 0.11424870D-01 0.26211788D+05 0.26211788D+05 0.26211788D+05 0.12210998D+01  1  2 15  2  6  2       21 0.439737122635D-03 0.100000000000D+01
0.189159318642D-04 0.000000000000D+00 0.000000000000D+00 0.389143022293D-06 0.000000000000D+00  6 2 21 25 23 2 21 4 0.10097565D+00 0.14688468D-01 0.27949157D+05 0.27949157D+05 0.27949157D+05 0.12181393D+01  1  2 12  2  6  2       21 0.973268874571D-01 0.100000000000D+01
0.150804696942D-04 0.000000000000D+00 0.000000000000D+00 0.389143022293D-06 0.000000000000D+00  6 2 21 25 23 2 21 4 0.10097565D+00 0.15624582D-01 0.27949157D+05 0.27949157D+05 0.27949157D+05 0.12181393D+01  1  2 12  2  6  2       21 0.693571815517D-01 0.100000000000D+01
-.216415083543D-04 0.000000000000D+00 0.000000000000D+00 0.391036848584D-06 0.000000000000D+00  6 2 21 25 23 2 21 4 0.10097565D+00 0.11424870D-01 0.26211788D+05 0.26211788D+05 0.26211788D+05 0.12210998D+01  1  2  4  2  6  2       21 -.176552528717D+00 0.100000000000D+01
-.386113484210D-04 0.000000000000D+00 -.576966160955D-06 0.391036848584D-06 0.000000000000D+00  6 2 21 25 23 2 21 4 0.10097565D+00 0.14694761D-01 0.26211788D+05 0.26211788D+05 0.26211788D+05 0.12210998D+01  1  2  5  2  6  2       21 -.200618720121D+00 0.100000000000D+01
0.330938498258D-04 0.000000000000D+00 0.509943883681D-06 0.391036848584D-06 0.000000000000D+00  6 2 21 25 23 2 21 4 0.10097565D+00 0.11424870D-01 0.26211788D+05 0.26211788D+05 0.26211788D+05 0.12210998D+01  1  2  6  2  6  2       21 0.269981314430D+00 0.100000000000D+01
0.186447343750D-12 0.000000000000D+00 0.000000000000D+00 0.391036848584D-06 0.716899456336D-07  6 2 21 25 23 2 21 4 0.10117978D+00 0.14679185D-01 0.27949157D+05 0.27949157D+05 0.27949157D+05 0.12181393D+01  1  2 11  2  6  2       21 0.958138135977D-09 0.100000000000D+01
0.166605095266D-05 0.000000000000D+00 0.000000000000D+00 0.389143022293D-06 0.000000000000D+00  6 2 -1 25 23 2 -1 4 0.10097565D+00 0.14688468D-01 0.27949157D+05 0.27949157D+05 0.27949157D+05 0.12181393D+01  1  2 12  5  6  2       21 0.625794128432D-03 0.100000000000D+01
0.166605095266D-05 0.000000000000D+00 0.000000000000D+00 0.389143022293D-06 0.000000000000D+00  6 2 -3 25 23 2 -3 4 0.10097565D+00 0.14688468D-01 0.27949157D+05 0.27949157D+05 0.27949157D+05 0.12181393D+01  1  2 12  5  6  2       21 0.394006516845D-03 0.100000000000D+01
0.176180566011D-05 0.000000000000D+00 0.000000000000D+00 0.389143022293D-06 0.000000000000D+00  6 2 -1 25 23 2 -1 4 0.10097565D+00 0.15624582D-01 0.27949157D+05 0.27949157D+05 0.27949157D+05 0.12181393D+01  1  2 12  5  6  2       21 0.600346954885D-03 0.100000000000D+01
0.176180566011D-05 0.000000000000D+00 0.000000000000D+00 0.389143022293D-06 0.000000000000D+00  6 2 -3 25 23 2 -3 4 0.10097565D+00 0.15624582D-01 0.27949157D+05 0.27949157D+05 0.27949157D+05 0.12181393D+01  1  2 12  5  6  2       21 0.374654789747D-03 0.100000000000D+01
-.338869576006D-05 0.000000000000D+00 -.437816493087D-07 0.391036848584D-06 0.000000000000D+00  6 2 -1 25 23 2 -1 4 0.10097565D+00 0.14694761D-01 0.26211788D+05 0.26211788D+05 0.26211788D+05 0.12210998D+01  1  2  5  5  6  2       21 -.128382183540D-02 0.100000000000D+01
-.338869576006D-05 0.000000000000D+00 -.437816493087D-07 0.391036848584D-06 0.000000000000D+00  6 2 -3 25 23 2 -3 4 0.10097565D+00 0.14694761D-01 0.26211788D+05 0.26211788D+05 0.26211788D+05 0.12210998D+01  1  2  5  5  6  2       21 -.807109954726D-03 0.100000000000D+01
0.219625401616D-13 0.000000000000D+00 0.000000000000D+00 0.391036848584D-06 0.556274232582D-08  6 2 -1 25 23 2 -1 4 0.10117978D+00 0.14679185D-01 0.27949157D+05 0.27949157D+05 0.27949157D+05 0.12181393D+01  1  2 11  5  6  2       21 0.823809991199D-11 0.100000000000D+01
0.219625401616D-13 0.000000000000D+00 0.000000000000D+00 0.391036848584D-06 0.556274232582D-08  6 2 -3 25 23 2 -3 4 0.10117978D+00 0.14679185D-01 0.27949157D+05 0.27949157D+05 0.27949157D+05 0.12181393D+01  1  2 11  5  6  2       21 0.518725905991D-11 0.100000000000D+01
0.166605095266D-05 0.000000000000D+00 0.000000000000D+00 0.389143022293D-06 0.000000000000D+00  6 2 1 25 23 2 1 4 0.10097565D+00 0.14688468D-01 0.27949157D+05 0.27949157D+05 0.27949157D+05 0.12181393D+01  1  2 12  6  6  2       21 0.857505511461D-03 0.100000000000D+01
0.166605095266D-05 0.000000000000D+00 0.000000000000D+00 0.389143022293D-06 0.000000000000D+00  6 2 3 25 23 2 3 4 0.10097565D+00 0.14688468D-01 0.27949157D+05 0.27949157D+05 0.27949157D+05 0.12181393D+01  1  2 12  6  6  2       21 0.393959946383D-03 0.100000000000D+01
0.176180566011D-05 0.000000000000D+00 0.000000000000D+00 0.389143022293D-06 0.000000000000D+00  6 2 1 25 23 2 1 4 0.10097565D+00 0.15624582D-01 0.27949157D+05 0.27949157D+05 0.27949157D+05 0.12181393D+01  1  2 12  6  6  2       21 0.836742586329D-03 0.100000000000D+01
0.176180566011D-05 0.000000000000D+00 0.000000000000D+00 0.389143022293D-06 0.000000000000D+00  6 2 3 25 23 2 3 4 0.10097565D+00 0.15624582D-01 0.27949157D+05 0.27949157D+05 0.27949157D+05 0.12181393D+01  1  2 12  6  6  2       21 0.374611840823D-03 0.100000000000D+01
-.338869576006D-05 0.000000000000D+00 -.437816493087D-07 0.391036848584D-06 0.000000000000D+00  6 2 1 25 23 2 1 4 0.10097565D+00 0.14694761D-01 0.26211788D+05 0.26211788D+05 0.26211788D+05 0.12210998D+01  1  2  5  6  6  2       21 -.175950499383D-02 0.100000000000D+01
-.338869576006D-05 0.000000000000D+00 -.437816493087D-07 0.391036848584D-06 0.000000000000D+00  6 2 3 25 23 2 3 4 0.10097565D+00 0.14694761D-01 0.26211788D+05 0.26211788D+05 0.26211788D+05 0.12210998D+01  1  2  5  6  6  2       21 -.807013847824D-03 0.100000000000D+01
0.219901359467D-13 0.000000000000D+00 0.000000000000D+00 0.391036848584D-06 0.556973187442D-08  6 2 1 25 23 2 1 4 0.10117978D+00 0.14679185D-01 0.27949157D+05 0.27949157D+05 0.27949157D+05 0.12181393D+01  1  2 11  6  6  2       21 0.113006643452D-10 0.100000000000D+01
0.219901359467D-13 0.000000000000D+00 0.000000000000D+00 0.391036848584D-06 0.556973187442D-08  6 2 3 25 23 2 3 4 0.10117978D+00 0.14679185D-01 0.27949157D+05 0.27949157D+05 0.27949157D+05 0.12181393D+01  1  2 11  6  6  2       21 0.519316276420D-11 0.100000000000D+01
0.166605095266D-05 0.000000000000D+00 0.000000000000D+00 0.389143022293D-06 0.000000000000D+00  6 2 -2 25 23 2 -2 4 0.10097565D+00 0.14688468D-01 0.27949157D+05 0.27949157D+05 0.27949157D+05 0.12181393D+01  1  2 12  7  6  2       21 0.585958994620D-03 0.100000000000D+01
0.176180566011D-05 0.000000000000D+00 0.000000000000D+00 0.389143022293D-06 0.000000000000D+00  6 2 -2 25 23 2 -2 4 0.10097565D+00 0.15624582D-01 0.27949157D+05 0.27949157D+05 0.27949157D+05 0.12181393D+01  1  2 12  7  6  2       21 0.559803696755D-03 0.100000000000D+01
-.338869576006D-05 0.000000000000D+00 -.437816493087D-07 0.391036848584D-06 0.000000000000D+00  6 2 -2 25 23 2 -2 4 0.10097565D+00 0.14694761D-01 0.26211788D+05 0.26211788D+05 0.26211788D+05 0.12210998D+01  1  2  5  7  6  2       21 -.120201149415D-02 0.100000000000D+01
0.356792470557D-13 0.000000000000D+00 0.000000000000D+00 0.391036848584D-06 0.132523912969D-07  6 2 -2 25 23 2 -2 4 0.10117978D+00 0.14679185D-01 0.27949157D+05 0.27949157D+05 0.27949157D+05 0.12181393D+01  1  2 11  7  6  2       21 0.125318107849D-10 0.100000000000D+01
0.166605095266D-05 0.000000000000D+00 0.000000000000D+00 0.389143022293D-06 0.000000000000D+00  6 2 2 25 23 2 2 4 0.10097565D+00 0.14688468D-01 0.27949157D+05 0.27949157D+05 0.27949157D+05 0.12181393D+01  1  2 12  8  6  2       21 0.101731211250D-02 0.100000000000D+01
0.176180566011D-05 0.000000000000D+00 0.000000000000D+00 0.389143022293D-06 0.000000000000D+00  6 2 2 25 23 2 2 4 0.10097565D+00 0.15624582D-01 0.27949157D+05 0.27949157D+05 0.27949157D+05 0.12181393D+01  1  2 12  8  6  2       21 0.100037785273D-02 0.100000000000D+01
-.338869576006D-05 0.000000000000D+00 -.437816493087D-07 0.391036848584D-06 0.000000000000D+00  6 2 2 25 23 2 2 4 0.10097565D+00 0.14694761D-01 0.26211788D+05 0.26211788D+05 0.26211788D+05 0.12210998D+01  1  2  5  8  6  2       21 -.208742768520D-02 0.100000000000D+01
0.217187013774D-13 0.000000000000D+00 0.000000000000D+00 0.391036848584D-06 0.289525951399D-08  6 2 2 25 23 2 2 4 0.10117978D+00 0.14679185D-01 0.27949157D+05 0.27949157D+05 0.27949157D+05 0.12181393D+01  1  2 11  8  6  2       21 0.132401649792D-10 0.100000000000D+01
0.166605095266D-05 0.000000000000D+00 0.000000000000D+00 0.389143022293D-06 0.000000000000D+00  6 2 -4 25 23 2 -4 4 0.10097565D+00 0.14688468D-01 0.27949157D+05 0.27949157D+05 0.27949157D+05 0.12181393D+01  1  2 12  9  6  2       21 0.340885465555D-03 0.100000000000D+01
0.176180566011D-05 0.000000000000D+00 0.000000000000D+00 0.389143022293D-06 0.000000000000D+00  6 2 -4 25 23 2 -4 4 0.10097565D+00 0.15624582D-01 0.27949157D+05 0.27949157D+05 0.27949157D+05 0.12181393D+01  1  2 12  9  6  2       21 0.323430261568D-03 0.100000000000D+01
-.338869576006D-05 0.000000000000D+00 -.437816493087D-07 0.391036848584D-06 0.000000000000D+00  6 2 -4 25 23 2 -4 4 0.10097565D+00 0.14694761D-01 0.26211788D+05 0.26211788D+05 0.26211788D+05 0.12210998D+01  1  2  5  9  6  2       21 -.697837536780D-03 0.100000000000D+01
0.219625588369D-13 0.000000000000D+00 0.000000000000D+00 0.391036848584D-06 0.556274705597D-08  6 2 -4 25 23 2 -4 4 0.10117978D+00 0.14679185D-01 0.27949157D+05 0.27949157D+05 0.27949157D+05 0.12181393D+01  1  2 11  9  6  2       21 0.448800253395D-11 0.100000000000D+01
0.166605095266D-05 0.000000000000D+00 0.000000000000D+00 0.389143022293D-06 0.000000000000D+00  6 2 4 25 23 2 4 4 0.10097565D+00 0.14688468D-01 0.27949157D+05 0.27949157D+05 0.27949157D+05 0.12181393D+01  1  2 12 10  6  2       21 0.340885465555D-03 0.100000000000D+01
0.176180566011D-05 0.000000000000D+00 0.000000000000D+00 0.389143022293D-06 0.000000000000D+00  6 2 4 25 23 2 4 4 0.10097565D+00 0.15624582D-01 0.27949157D+05 0.27949157D+05 0.27949157D+05 0.12181393D+01  1  2 12 10  6  2       21 0.323430261568D-03 0.100000000000D+01
-.338869576006D-05 0.000000000000D+00 -.437816493087D-07 0.391036848584D-06 0.000000000000D+00  6 2 4 25 23 2 4 4 0.10097565D+00 0.14694761D-01 0.26211788D+05 0.26211788D+05 0.26211788D+05 0.12210998D+01  1  2  5 10  6  2       21 -.697837536780D-03 0.100000000000D+01
0.219465841327D-13 0.000000000000D+00 0.000000000000D+00 0.391036848584D-06 0.555870093185D-08  6 2 4 25 23 2 4 4 0.10117978D+00 0.14679185D-01 0.27949157D+05 0.27949157D+05 0.27949157D+05 0.12181393D+01  1  2 11 10  6  2       21 0.448473813686D-11 0.100000000000D+01
  </mgrwgt>
  </event>
</LesHouchesEvents>
