<event>
 5    0  0.1943430E+001  0.1914159E+03  0.7546771E-02  0.1157190E+00
         21   -1    0    0  503  501  0.00000000000E+00  0.00000000000E+00  0.10377984331E+04  0.10377984331E+04  0.00000000000E+00 0.  1.
         21   -1    0    0  504  502 -0.00000000000E+00 -0.00000000000E+00 -0.13392357660E+03  0.13392357660E+03  0.00000000000E+00 0.  1.
         25    1    1    2    0    0 -0.13562973704E+03  0.15116915160E+03  0.50444681839E+03  0.55797771510E+03  0.12500000000E+03 0.  0.
         21    1    1    2  503  502  0.31402036466E+02 -0.12699106116E+03  0.46848011519E+03  0.48640151710E+03  0.00000000000E+00 0.  1.
         21    1    1    2  504  501  0.10422770057E+03 -0.24178090444E+02 -0.69052077103E+02  0.12734277748E+03  0.00000000000E+00 0.  1.
<mgrwt>
<rscale>  4 0.19141587E+03</rscale>
<asrwt>0</asrwt>
<pdfrwt beam="1">  1       21 0.15966129E+00 0.19141587E+03</pdfrwt>
<pdfrwt beam="2">  1       21 0.20603628E-01 0.19141587E+03</pdfrwt>
<totfact> 0.55330326E+03</totfact>
</mgrwt>
</event>
<event>
 5    0  0.1943430E+001  0.2701104E+03  0.7546771E-02  0.1101216E+00
         21   -1    0    0  504  501  0.00000000000E+00  0.00000000000E+00  0.16148179832E+03  0.16148179832E+03  0.00000000000E+00 0. -1.
         21   -1    0    0  501  502 -0.00000000000E+00 -0.00000000000E+00 -0.19291598166E+04  0.19291598166E+04  0.00000000000E+00 0. -1.
         25    1    1    2    0    0  0.20322270501E+03 -0.11943878121E+03  0.12654627454E+02  0.26711463809E+03  0.12500000000E+03 0.  0.
         21    1    1    2  503  502  0.70299877351E+02  0.55301438408E+02 -0.75923838805E+03  0.76448888268E+03  0.00000000000E+00 0. -1.
         21    1    1    2  504  503 -0.27352258236E+03  0.64137342799E+02 -0.10210942577E+04  0.10590380942E+04  0.00000000000E+00 0. -1.
<mgrwt>
<rscale>  4 0.27011036E+03</rscale>
<asrwt>0</asrwt>
<pdfrwt beam="1">  1       21 0.24843352E-01 0.27011036E+03</pdfrwt>
<pdfrwt beam="2">  1       21 0.29679383E+00 0.27011036E+03</pdfrwt>
<totfact> 0.49745386E+02</totfact>
</mgrwt>
</event>
<event>
 5    0  0.1943430E+001  0.2932716E+03  0.7546771E-02  0.1088653E+00
         21   -1    0    0  503  501  0.00000000000E+00  0.00000000000E+00  0.17625641930E+03  0.17625641930E+03  0.00000000000E+00 0.  1.
         21   -1    0    0  504  502 -0.00000000000E+00 -0.00000000000E+00 -0.72760271185E+03  0.72760271185E+03  0.00000000000E+00 0.  1.
         25    1    1    2    0    0 -0.85485332648E+02  0.24596464129E+03 -0.24636729631E+02  0.28989362758E+03  0.12500000000E+03 0.  0.
         21    1    1    2  503  502  0.70277139872E+02 -0.27202215356E+03 -0.43894612179E+03  0.52116084489E+03  0.00000000000E+00 0.  1.
         21    1    1    2  504  501  0.15208192776E+02  0.26057512269E+02 -0.87763441127E+02  0.92804658674E+02  0.00000000000E+00 0.  1.
<mgrwt>
<rscale>  4 0.29327163E+03</rscale>
<asrwt>0</asrwt>
<pdfrwt beam="1">  1       21 0.27116372E-01 0.29327163E+03</pdfrwt>
<pdfrwt beam="2">  1       21 0.11193888E+00 0.29327163E+03</pdfrwt>
<totfact> 0.76253151E+03</totfact>
</mgrwt>
</event>
<event>
 5    0  0.1943430E+001  0.3168623E+03  0.7546771E-02  0.1077103E+00
         21   -1    0    0  504  501  0.00000000000E+00  0.00000000000E+00  0.31642115538E+03  0.31642115538E+03  0.00000000000E+00 0.  1.
         21   -1    0    0  501  502 -0.00000000000E+00 -0.00000000000E+00 -0.62697769129E+03  0.62697769129E+03  0.00000000000E+00 0.  1.
         25    1    1    2    0    0 -0.21551458639E+03 -0.55049506761E+02 -0.63208661109E+02  0.26286369087E+03  0.12500000000E+03 0.  0.
         21    1    1    2  503  502 -0.17866219946E+03 -0.10642456895E+03 -0.76511742188E+02  0.22158613920E+03  0.00000000000E+00 0.  1.
         21    1    1    2  504  503  0.39417678585E+03  0.16147407571E+03 -0.17083613261E+03  0.45894901660E+03  0.00000000000E+00 0.  1.
<mgrwt>
<rscale>  4 0.31686225E+03</rscale>
<asrwt>0</asrwt>
<pdfrwt beam="1">  1       21 0.48680178E-01 0.31686225E+03</pdfrwt>
<pdfrwt beam="2">  1       21 0.96458106E-01 0.31686225E+03</pdfrwt>
<totfact> 0.33172206E+03</totfact>
</mgrwt>
</event>
<event>
 5    0  0.1943430E+001  0.2314896E+03  0.7546771E-02  0.1125596E+00
         21   -1    0    0  504  501  0.00000000000E+00  0.00000000000E+00  0.67659998947E+03  0.67659998947E+03  0.00000000000E+00 0.  1.
         21   -1    0    0  503  502 -0.00000000000E+00 -0.00000000000E+00 -0.31733591443E+03  0.31733591443E+03  0.00000000000E+00 0.  1.
         25    1    1    2    0    0  0.18759183587E+03 -0.79925587482E+02  0.51731114123E+03  0.56992509443E+03  0.12500000000E+03 0.  0.
         21    1    1    2  503  501  0.47374060069E+01  0.14972308898E+03 -0.16029686074E+03  0.21939582939E+03  0.00000000000E+00 0.  1.
         21    1    1    2  504  502 -0.19232924188E+03 -0.69797501494E+02  0.22497945621E+01  0.20461498008E+03  0.00000000000E+00 0.  1.
<mgrwt>
<rscale>  4 0.23148959E+03</rscale>
<asrwt>0</asrwt>
<pdfrwt beam="1">  1       21 0.10409231E+00 0.23148959E+03</pdfrwt>
<pdfrwt beam="2">  1       21 0.48820910E-01 0.23148959E+03</pdfrwt>
<totfact> 0.28945441E+03</totfact>
</mgrwt>
</event>
<event>
 5    0  0.1943430E+001  0.2633031E+03  0.7546771E-02  0.1105175E+00
         21   -1    0    0  503  501  0.00000000000E+00  0.00000000000E+00  0.15824387389E+03  0.15824387389E+03  0.00000000000E+00 0. -1.
         21   -1    0    0  504  502 -0.00000000000E+00 -0.00000000000E+00 -0.72315016375E+03  0.72315016375E+03  0.00000000000E+00 0. -1.
         25    1    1    2    0    0 -0.27919108580E+02 -0.22286586140E+03 -0.18367963211E+02  0.25770341649E+03  0.12500000000E+03 0.  0.
         21    1    1    2  503  502  0.55431632834E+02  0.25052451731E+03 -0.42931993958E+03  0.50015078748E+03  0.00000000000E+00 0. -1.
         21    1    1    2  504  501 -0.27512524254E+02 -0.27658655915E+02 -0.11721838707E+03  0.12353983367E+03  0.00000000000E+00 0. -1.
<mgrwt>
<rscale>  4 0.26330306E+03</rscale>
<asrwt>0</asrwt>
<pdfrwt beam="1">  1       21 0.24345211E-01 0.26330306E+03</pdfrwt>
<pdfrwt beam="2">  1       21 0.11125387E+00 0.26330306E+03</pdfrwt>
<totfact> 0.96826519E+03</totfact>
</mgrwt>
</event>
<event>
 5    0  0.1943430E+001  0.4087914E+03  0.7546771E-02  0.1040777E+00
         21   -1    0    0  503  501  0.00000000000E+00  0.00000000000E+00  0.61548241086E+03  0.61548241086E+03  0.00000000000E+00 0.  1.
         21   -1    0    0  504  502 -0.00000000000E+00 -0.00000000000E+00 -0.44005492185E+03  0.44005492185E+03  0.00000000000E+00 0. -1.
         25    1    1    2    0    0 -0.33909096223E+03 -0.15196902252E+03  0.32417239937E+03  0.50871407391E+03  0.12500000000E+03 0.  0.
         21    1    1    2  503  502 -0.61729247441E+02 -0.47033535813E+02 -0.96605004340E+01  0.78204723318E+02  0.00000000000E+00 0. -1.
         21    1    1    2  504  501  0.40082020967E+03  0.19900255834E+03 -0.13908440993E+03  0.46861853548E+03  0.00000000000E+00 0. -1.
<mgrwt>
<rscale>  4 0.40879144E+03</rscale>
<asrwt>0</asrwt>
<pdfrwt beam="1">  1       21 0.94689601E-01 0.40879144E+03</pdfrwt>
<pdfrwt beam="2">  1       21 0.67700757E-01 0.40879144E+03</pdfrwt>
<totfact> 0.16256740E+03</totfact>
</mgrwt>
</event>
<event>
 5    0  0.1943430E+001  0.2994212E+03  0.7546771E-02  0.1085530E+00
         21   -1    0    0  504  501  0.00000000000E+00  0.00000000000E+00  0.13782598369E+03  0.13782598369E+03  0.00000000000E+00 0. -1.
         21   -1    0    0  501  502 -0.00000000000E+00 -0.00000000000E+00 -0.82189694010E+03  0.82189694010E+03  0.00000000000E+00 0. -1.
         25    1    1    2    0    0 -0.10927979203E+03  0.22982509714E+03 -0.23933588131E+03  0.37103680721E+03  0.12500000000E+03 0.  0.
         21    1    1    2  503  502 -0.63021339661E+02  0.71392048727E+01 -0.19047954218E+03  0.20076133464E+03  0.00000000000E+00 0. -1.
         21    1    1    2  504  503  0.17230113169E+03 -0.23696430201E+03 -0.25425553293E+03  0.38792478193E+03  0.00000000000E+00 0. -1.
<mgrwt>
<rscale>  4 0.29942120E+03</rscale>
<asrwt>0</asrwt>
<pdfrwt beam="1">  1       21 0.21203997E-01 0.29942120E+03</pdfrwt>
<pdfrwt beam="2">  1       21 0.12644569E+00 0.29942120E+03</pdfrwt>
<totfact> 0.89888685E+03</totfact>
</mgrwt>
</event>
<event>
 5    0  0.1943430E+001  0.3352112E+03  0.7546771E-02  0.1068854E+00
         21   -1    0    0  504  501  0.00000000000E+00  0.00000000000E+00  0.21354829694E+04  0.21354829694E+04  0.00000000000E+00 0. -1.
         21   -1    0    0  503  502 -0.00000000000E+00 -0.00000000000E+00 -0.97412835392E+02  0.97412835392E+02  0.00000000000E+00 0.  1.
         25    1    1    2    0    0  0.26198959870E+03 -0.12642220412E+03  0.16536513924E+04  0.16836891195E+04  0.12500000000E+03 0.  0.
         21    1    1    2  503  501 -0.28961533435E+03  0.12328685062E+03  0.22384208512E+03  0.38624081672E+03  0.00000000000E+00 0.  1.
         21    1    1    2  504  502  0.27625735652E+02  0.31353535065E+01  0.16057665651E+03  0.16296586860E+03  0.00000000000E+00 0.  1.
<mgrwt>
<rscale>  4 0.33521119E+03</rscale>
<asrwt>0</asrwt>
<pdfrwt beam="1">  1       21 0.32853581E+00 0.33521119E+03</pdfrwt>
<pdfrwt beam="2">  1       21 0.14986592E-01 0.33521119E+03</pdfrwt>
<totfact> 0.78837281E+02</totfact>
</mgrwt>
</event>
<event>
 5    0  0.1943430E+001  0.2874339E+03  0.7546771E-02  0.1091697E+00
         21   -1    0    0  503  501  0.00000000000E+00  0.00000000000E+00  0.16202607051E+04  0.16202607051E+04  0.00000000000E+00 0.  1.
         21   -1    0    0  504  502 -0.00000000000E+00 -0.00000000000E+00 -0.76401539535E+02  0.76401539535E+02  0.00000000000E+00 0. -1.
         25    1    1    2    0    0  0.61531108385E+02 -0.24191270971E+03  0.11043998135E+04  0.11391364205E+04  0.12500000000E+03 0.  0.
         21    1    1    2  503  502 -0.86702564292E+02  0.26730921986E+03  0.43962533034E+03  0.52176813313E+03  0.00000000000E+00 0. -1.
         21    1    1    2  504  501  0.25171455907E+02 -0.25396510149E+02 -0.16597824414E+00  0.35757691047E+02  0.00000000000E+00 0.  1.
<mgrwt>
<rscale>  4 0.28743389E+03</rscale>
<asrwt>0</asrwt>
<pdfrwt beam="1">  1       21 0.24927085E+00 0.28743389E+03</pdfrwt>
<pdfrwt beam="2">  1       21 0.11754084E-01 0.28743389E+03</pdfrwt>
<totfact> 0.37628539E+03</totfact>
</mgrwt>
</event>
<event>
 5    0  0.1943430E+001  0.1961393E+03  0.7546771E-02  0.1153038E+00
         21   -1    0    0  504  501  0.00000000000E+00  0.00000000000E+00  0.22219427284E+03  0.22219427284E+03  0.00000000000E+00 0.  1.
         21   -1    0    0  501  502 -0.00000000000E+00 -0.00000000000E+00 -0.30296035351E+03  0.30296035351E+03  0.00000000000E+00 0.  1.
         25    1    1    2    0    0 -0.12819381955E+03  0.16773252615E+03 -0.12729561265E+03  0.27640012427E+03  0.12500000000E+03 0.  0.
         21    1    1    2  503  502  0.45640586361E+02 -0.10752308661E+03 -0.30581267227E+02  0.12074556382E+03  0.00000000000E+00 0.  1.
         21    1    1    2  504  503  0.82553233189E+02 -0.60209439544E+02  0.77110799209E+02  0.12800893826E+03  0.00000000000E+00 0.  1.
<mgrwt>
<rscale>  4 0.19613928E+03</rscale>
<asrwt>0</asrwt>
<pdfrwt beam="1">  1       21 0.34183734E-01 0.19613928E+03</pdfrwt>
<pdfrwt beam="2">  1       21 0.46609285E-01 0.19613928E+03</pdfrwt>
<totfact> 0.36283180E+04</totfact>
</mgrwt>
</event>
<event>
 5    0  0.1943430E+001  0.2669264E+03  0.7546771E-02  0.1103052E+00
         21   -1    0    0  504  501  0.00000000000E+00  0.00000000000E+00  0.27142564614E+03  0.27142564614E+03  0.00000000000E+00 0. -1.
         21   -1    0    0  503  502 -0.00000000000E+00 -0.00000000000E+00 -0.37165510702E+03  0.37165510702E+03  0.00000000000E+00 0. -1.
         25    1    1    2    0    0 -0.71272906848E+02 -0.22482187301E+03  0.13798310640E+03  0.30048134632E+03  0.12500000000E+03 0.  0.
         21    1    1    2  503  501  0.75708694992E+02  0.20150388583E+03 -0.18311684145E+03  0.28260820958E+03  0.00000000000E+00 0. -1.
         21    1    1    2  504  502 -0.44357881431E+01  0.23317987176E+02 -0.55095725840E+02  0.59991197256E+02  0.00000000000E+00 0. -1.
<mgrwt>
<rscale>  4 0.26692640E+03</rscale>
<asrwt>0</asrwt>
<pdfrwt beam="1">  1       21 0.41757792E-01 0.26692640E+03</pdfrwt>
<pdfrwt beam="2">  1       21 0.57177709E-01 0.26692640E+03</pdfrwt>
<totfact> 0.15217244E+04</totfact>
</mgrwt>
</event>
