<LesHouchesEvents version="3.0">
  <!--
  <scalesfunctionalform>
    muR  H_T/2 := sum_i mT(i)/2, i=final state
    muF1 H_T/2 := sum_i mT(i)/2, i=final state
    muF2 H_T/2 := sum_i mT(i)/2, i=final state
    QES  H_T/2 := sum_i mT(i)/2, i=final state
  </scalesfunctionalform>
HERWIG6   
  -->
  <header>
       51
  </header>
  <init>
   2212   2212 0.65000000D+04 0.65000000D+04 -1 -1   247000   247000 -3   1
 0.98694625D-02 0.22203316D-03 0.44923357D-03     66
  </init>
  <event>
  5     66 0.44923357E-03 0.16896286E+03 0.75467711E-02 0.10880078E+00
       21 -1    0    0  501  502 0.00000000E+00 0.00000000E+00 0.47861769E+03 0.47861827E+03 0.75000000E+00 0.0000E+00 0.9000E+01
        1 -1    0    0  502    0 0.00000000E+00 0.00000000E+00 -.37063531E+03 0.37063545E+03 0.32000000E+00 0.0000E+00 0.9000E+01
       25  1    1    2    0    0 0.10892425E+03 0.62002270E+02 -.18219804E+03 0.25402736E+03 0.12500000E+03 0.0000E+00 0.9000E+01
       23  1    1    2    0    0 0.91751185E+02 -.69393427E+02 -.85040319E+02 0.16964915E+03 0.91188000E+02 0.0000E+00 0.9000E+01
        1  1    1    2  501    0 -.20067544E+03 0.73911572E+01 0.37522073E+03 0.42557721E+03 0.32000000E+00 0.0000E+00 0.9000E+01
#aMCatNLO 1  0  0  1  2 0.66557790D+02 0.00000000D+00  -5  6  0 0.00000000D+00 0.00000000D+00 0.00000000D+00 0.00000000D+00 0.00000000D+00
  <mgrwgt>
 0.1714734352D-01   23    2    0
 0.421180390940393D+03 0.000000000000000D+00 0.000000000000000D+00 0.421180390940393D+03
 0.421180390940393D+03 0.000000000000000D+00 0.000000000000000D+00 -.421180390940393D+03
 0.279462070498308D+03 0.108924275317926D+03 0.620022690074543D+02 -.216252791268906D+03
 0.181938727191404D+03 0.917512003657126D+02 -.693934276099530D+02 -.107483573368312D+03
 0.380959984191075D+03 -.200675475683638D+03 0.739115860249861D+01 0.323736364637218D+03
 0.000000000000000D+00 -.000000000000000D+00 -.000000000000000D+00 0.000000000000000D+00
 0.466574764172901D+03 0.000000000000000D+00 0.000000000000000D+00 0.466574764172901D+03
 0.447616557190574D+03 0.000000000000000D+00 0.000000000000000D+00 -.447616557190574D+03
 0.290199179589541D+03 0.127419483899073D+03 0.747634217097061D+02 -.216252791268906D+03
 0.185358987182120D+03 0.103676266073919D+03 -.611654812302654D+02 -.107483573368312D+03
 0.369428002529797D+03 -.176312606822453D+03 0.242008251947122D+02 0.323736364637218D+03
 0.692051520620161D+02 -.547831431505394D+02 -.377987656741530D+02 0.189582069823270D+02
0.222780040227D-04 0.000000000000D+00 0.000000000000D+00 0.493389599088D-06 0.000000000000D+00  6 21 1 25 23 1 21 2 0.73633546D-01 0.57020872D-01 0.68806735D+05 0.68806735D+05 0.68806735D+05 0.11787887D+01  1  2  2  1  6  1       21 0.365306167738D-02 0.100000000000D+01
-.460500168004D-06 0.117564257123D-05 -.449728715443D-07 0.493389599088D-06 0.000000000000D+00  6 21 1 25 23 1 21 4 0.73633546D-01 0.57020872D-01 0.68806735D+05 0.68806735D+05 0.68806735D+05 0.11787887D+01  1  2  3  1  6  1       21 -.104925834718D-03 0.100000000000D+01
0.218087053863D-05 0.000000000000D+00 0.000000000000D+00 0.493389599088D-06 0.000000000000D+00  6 21 1 25 23 1 21 4 0.73633546D-01 0.57020872D-01 0.68806735D+05 0.68806735D+05 0.68806735D+05 0.11787887D+01  1  2 15  1  6  1       21 0.496915479247D-03 0.100000000000D+01
0.351802192625D-04 0.000000000000D+00 0.000000000000D+00 0.485467272239D-06 0.000000000000D+00  6 21 1 25 23 1 21 4 0.83680344D-01 0.57020872D-01 0.86747441D+05 0.86747441D+05 0.86747441D+05 0.11692865D+01  1  2 12  1  6  1       21 0.573429099482D-02 0.100000000000D+01
-.105989875924D-04 0.000000000000D+00 0.000000000000D+00 0.493389599088D-06 0.000000000000D+00  6 21 1 25 23 1 21 4 0.73633546D-01 0.57020872D-01 0.68806735D+05 0.68806735D+05 0.68806735D+05 0.11787887D+01  1  2  4  1  6  1       21 -.241499938017D-02 0.100000000000D+01
-.162130162822D-03 0.000000000000D+00 -.467241662512D-04 0.493389599088D-06 0.000000000000D+00  6 21 1 25 23 1 21 4 0.85699062D-01 0.57020872D-01 0.68806735D+05 0.68806735D+05 0.68806735D+05 0.11787887D+01  1  2  5  1  6  1       21 -.261519375371D-01 0.100000000000D+01
0.161707518172D-03 0.000000000000D+00 0.446407213249D-04 0.493389599088D-06 0.000000000000D+00  6 21 1 25 23 1 21 4 0.73633546D-01 0.57020872D-01 0.68806735D+05 0.68806735D+05 0.68806735D+05 0.11787887D+01  1  2  6  1  6  1       21 0.368453640265D-01 0.100000000000D+01
0.119038571518D-05 0.000000000000D+00 0.000000000000D+00 0.485467272239D-06 0.000000000000D+00  6 -1 1 25 23 1 -1 4 0.83680344D-01 0.57020872D-01 0.86747441D+05 0.86747441D+05 0.86747441D+05 0.11692865D+01  1  2 12  4  6  1       21 0.222454417274D-04 0.100000000000D+01
-.528421209912D-05 0.000000000000D+00 -.192936075610D-05 0.493389599088D-06 0.000000000000D+00  6 -1 1 25 23 1 -1 4 0.85699062D-01 0.57020872D-01 0.68806735D+05 0.68806735D+05 0.68806735D+05 0.11787887D+01  1  2  5  4  6  1       21 -.974996605838D-04 0.100000000000D+01
0.119038571518D-05 0.000000000000D+00 0.000000000000D+00 0.485467272239D-06 0.000000000000D+00  6 1 1 25 23 1 1 4 0.83680344D-01 0.57020872D-01 0.86747441D+05 0.86747441D+05 0.86747441D+05 0.11692865D+01  1  2 12  5  6  1       21 0.716602345719D-04 0.100000000000D+01
-.528421209912D-05 0.000000000000D+00 -.192936075610D-05 0.493389599088D-06 0.000000000000D+00  6 1 1 25 23 1 1 4 0.85699062D-01 0.57020872D-01 0.68806735D+05 0.68806735D+05 0.68806735D+05 0.11787887D+01  1  2  5  5  6  1       21 -.319555285691D-03 0.100000000000D+01
0.119038571518D-05 0.000000000000D+00 0.000000000000D+00 0.485467272239D-06 0.000000000000D+00  6 -2 1 25 23 1 -2 4 0.83680344D-01 0.57020872D-01 0.86747441D+05 0.86747441D+05 0.86747441D+05 0.11692865D+01  1  2 12  6  6  1       21 0.169763188273D-04 0.100000000000D+01
0.119038571518D-05 0.000000000000D+00 0.000000000000D+00 0.485467272239D-06 0.000000000000D+00  6 -4 1 25 23 1 -4 4 0.83680344D-01 0.57020872D-01 0.86747441D+05 0.86747441D+05 0.86747441D+05 0.11692865D+01  1  2 12  6  6  1       21 0.888785266065D-05 0.100000000000D+01
-.528421209912D-05 0.000000000000D+00 -.192936075610D-05 0.493389599088D-06 0.000000000000D+00  6 -2 1 25 23 1 -2 4 0.85699062D-01 0.57020872D-01 0.68806735D+05 0.68806735D+05 0.68806735D+05 0.11787887D+01  1  2  5  6  6  1       21 -.741029659665D-04 0.100000000000D+01
-.528421209912D-05 0.000000000000D+00 -.192936075610D-05 0.493389599088D-06 0.000000000000D+00  6 -4 1 25 23 1 -4 4 0.85699062D-01 0.57020872D-01 0.68806735D+05 0.68806735D+05 0.68806735D+05 0.11787887D+01  1  2  5  6  6  1       21 -.385512429556D-04 0.100000000000D+01
0.119038571518D-05 0.000000000000D+00 0.000000000000D+00 0.485467272239D-06 0.000000000000D+00  6 2 1 25 23 1 2 4 0.83680344D-01 0.57020872D-01 0.86747441D+05 0.86747441D+05 0.86747441D+05 0.11692865D+01  1  2 12  7  6  1       21 0.114363636995D-03 0.100000000000D+01
0.119038571518D-05 0.000000000000D+00 0.000000000000D+00 0.485467272239D-06 0.000000000000D+00  6 4 1 25 23 1 4 4 0.83680344D-01 0.57020872D-01 0.86747441D+05 0.86747441D+05 0.86747441D+05 0.11692865D+01  1  2 12  7  6  1       21 0.888785266065D-05 0.100000000000D+01
-.528421209912D-05 0.000000000000D+00 -.192936075610D-05 0.493389599088D-06 0.000000000000D+00  6 2 1 25 23 1 2 4 0.85699062D-01 0.57020872D-01 0.68806735D+05 0.68806735D+05 0.68806735D+05 0.11787887D+01  1  2  5  7  6  1       21 -.512140234407D-03 0.100000000000D+01
-.528421209912D-05 0.000000000000D+00 -.192936075610D-05 0.493389599088D-06 0.000000000000D+00  6 4 1 25 23 1 4 4 0.85699062D-01 0.57020872D-01 0.68806735D+05 0.68806735D+05 0.68806735D+05 0.11787887D+01  1  2  5  7  6  1       21 -.385512429556D-04 0.100000000000D+01
0.119038571518D-05 0.000000000000D+00 0.000000000000D+00 0.485467272239D-06 0.000000000000D+00  6 -3 1 25 23 1 -3 4 0.83680344D-01 0.57020872D-01 0.86747441D+05 0.86747441D+05 0.86747441D+05 0.11692865D+01  1  2 12  8  6  1       21 0.108930580988D-04 0.100000000000D+01
-.528421209912D-05 0.000000000000D+00 -.192936075610D-05 0.493389599088D-06 0.000000000000D+00  6 -3 1 25 23 1 -3 4 0.85699062D-01 0.57020872D-01 0.68806735D+05 0.68806735D+05 0.68806735D+05 0.11787887D+01  1  2  5  8  6  1       21 -.473890347914D-04 0.100000000000D+01
0.119038571518D-05 0.000000000000D+00 0.000000000000D+00 0.485467272239D-06 0.000000000000D+00  6 3 1 25 23 1 3 4 0.83680344D-01 0.57020872D-01 0.86747441D+05 0.86747441D+05 0.86747441D+05 0.11692865D+01  1  2 12  9  6  1       21 0.109084785340D-04 0.100000000000D+01
-.528421209912D-05 0.000000000000D+00 -.192936075610D-05 0.493389599088D-06 0.000000000000D+00  6 3 1 25 23 1 3 4 0.85699062D-01 0.57020872D-01 0.68806735D+05 0.68806735D+05 0.68806735D+05 0.11787887D+01  1  2  5  9  6  1       21 -.474591172909D-04 0.100000000000D+01
  </mgrwgt>
  </event>
  <event>
  5     66 0.44923357E-03 0.48165839E+02 0.75467711E-02 0.10417372E+00
       21 -1    0    0  501  502 0.00000000E+00 0.00000000E+00 0.22606180E+03 0.22606305E+03 0.75000000E+00 0.0000E+00 0.9000E+01
        1 -1    0    0  502    0 0.00000000E+00 0.00000000E+00 -.12488035E+03 0.12488076E+03 0.32000000E+00 0.0000E+00 0.9000E+01
       25  1    1    2    0    0 0.81892805E+02 -.64772774E+02 0.10560225E+03 0.19411022E+03 0.12500000E+03 0.0000E+00 0.9000E+01
       23  1    1    2    0    0 -.49515954E+02 0.29113012E+02 0.44239744E+01 0.10786204E+03 0.91188000E+02 0.0000E+00 0.9000E+01
        1  1    1    2  501    0 -.32376852E+02 0.35659762E+02 -.88447679E+01 0.48971537E+02 0.32000000E+00 0.0000E+00 0.9000E+01
#aMCatNLO 1  0  0  2  1 0.61237759D+02 0.00000000D+00  -5  6  0 0.00000000D+00 0.00000000D+00 0.00000000D+00 0.00000000D+00 0.00000000D+00
  <mgrwgt>
 0.1864035103D-01    5    2    0
 0.168020732254977D+03 0.000000000000000D+00 0.000000000000000D+00 0.168020732254977D+03
 0.168020732254977D+03 0.000000000000000D+00 0.000000000000000D+00 -.168020732254977D+03
 0.170922063499411D+03 0.818930966589315D+02 -.647730945223314D+02 0.518393550934872D+02
 0.111313145579161D+03 -.495157640128486D+02 0.291128030122841D+02 -.278567559080245D+02
 0.538062554313828D+02 -.323773326460829D+02 0.356602915100473D+02 -.239825991854627D+02
 0.000000000000000D+00 0.000000000000000D+00 0.000000000000000D+00 -.000000000000000D+00
 0.356596135416786D+03 0.000000000000000D+00 0.000000000000000D+00 0.356596135416786D+03
 0.494021447319810D+03 0.000000000000000D+00 0.000000000000000D+00 -.494021447319810D+03
 0.192447357571885D+03 -.593345622742593D+02 -.123300755957189D+03 0.518393550934872D+02
 0.194565304944773D+03 -.168398903266141D+03 -.201548275431530D+02 -.278567559080245D+02
 0.935725253351296D+02 -.896577722678821D+02 0.119220931829731D+02 -.239825991854627D+02
 0.370032394884808D+03 0.317391237808282D+03 0.131533490317369D+03 -.137425311903024D+03
0.340973730727D-05 0.000000000000D+00 0.000000000000D+00 0.126786816150D-06 0.000000000000D+00  6 21 1 25 23 1 21 2 0.34778866D-01 0.19212488D-01 0.25409666D+05 0.25409666D+05 0.25409666D+05 0.12225416D+01  1  2  2  2  6  2        1 0.117733498716D-01 0.100000000000D+01
-.207144413693D-06 0.179936781189D-06 -.688327723452D-08 0.126786816150D-06 0.000000000000D+00  6 21 1 25 23 1 21 4 0.34778866D-01 0.19212488D-01 0.25409666D+05 0.25409666D+05 0.25409666D+05 0.12225416D+01  1  2  3  2  6  2        1 -.106900470854D-02 0.100000000000D+01
0.318495113517D-06 0.000000000000D+00 0.000000000000D+00 0.126786816150D-06 0.000000000000D+00  6 21 1 25 23 1 21 4 0.34778866D-01 0.19212488D-01 0.25409666D+05 0.25409666D+05 0.25409666D+05 0.12225416D+01  1  2 15  2  6  2        1 0.164364932622D-02 0.100000000000D+01
0.815790403906D-05 0.000000000000D+00 -.535924756125D-05 0.126786816150D-06 0.000000000000D+00  6 21 1 25 23 1 21 4 0.34778866D-01 0.10931588D+00 0.25409666D+05 0.25409666D+05 0.25409666D+05 0.12225416D+01  1  2  5  2  6  2        1 0.453128191201D-02 0.100000000000D+01
0.145071931497D-05 0.000000000000D+00 -.114131828644D-05 0.126786816150D-06 0.000000000000D+00  6 21 21 25 23 1 -1 4 0.34778866D-01 0.10931588D+00 0.25409666D+05 0.25409666D+05 0.25409666D+05 0.12225416D+01  1  2  5 10  6  2        1 0.176107462701D-02 0.100000000000D+01
  </mgrwgt>
  </event>
  <event>
  6     66 -.44923357E-03 0.14422246E+03 0.75467711E-02 0.11182426E+00
       21 -1    0    0  501  503 0.00000000E+00 0.00000000E+00 0.12183527E+03 0.12183758E+03 0.75000000E+00 0.0000E+00 0.9000E+01
        1 -1    0    0  502    0 0.00000000E+00 0.00000000E+00 -.58367752E+03 0.58367761E+03 0.32000000E+00 0.0000E+00 0.9000E+01
       25  1    1    2    0    0 0.73910936E+01 0.32578293E+02 -.19740509E+03 0.23602912E+03 0.12500000E+03 0.0000E+00 0.9000E+01
       23  1    1    2    0    0 0.11383930E+03 -.97679179E+02 -.19287406E+03 0.26079927E+03 0.91188000E+02 0.0000E+00 0.9000E+01
        1  1    1    2  501    0 -.14425714E+03 0.59550631E+02 -.88635864E+02 0.17947930E+03 0.32000000E+00 0.0000E+00 0.9000E+01
       21  1    1    2  502  503 0.23026744E+02 0.55502551E+01 0.17072764E+02 0.29207500E+02 0.75000000E+00 0.0000E+00 0.9000E+01
#aMCatNLO 2  0  0  1  5 0.23686204D+02 0.00000000D+00  -5  6  0 0.00000000D+00 0.00000000D+00 0.00000000D+00 0.00000000D+00 0.00000000D+00
  <mgrwgt>
 -.4568156187D-02    3    2    0
 0.238469842403320D+03 0.000000000000000D+00 0.000000000000000D+00 0.238469842403320D+03
 0.238469842403320D+03 0.000000000000000D+00 0.000000000000000D+00 -.238469842403320D+03
 0.137206151990320D+03 0.139896256331083D+02 0.341687164569403D+02 -.428639397900094D+02
 0.180504005712485D+03 0.122438397873185D+03 -.956065664899952D+02 -.116046501237505D+02
 0.159229527103836D+03 -.136428023506293D+03 0.614378500330549D+02 0.544685899137598D+02
 0.000000000000000D+00 0.000000000000000D+00 0.000000000000000D+00 0.000000000000000D+00
 0.294740869718908D+03 0.000000000000000D+00 0.000000000000000D+00 0.294740869718908D+03
 0.241269392331048D+03 0.000000000000000D+00 0.000000000000000D+00 -.241269392331048D+03
 0.136302199579728D+03 0.739117253216143D+01 0.325782572362368D+02 -.428639397900094D+02
 0.175927711124514D+03 0.113839399145219D+03 -.976792275525930D+02 -.116046501237505D+02
 0.165297574604023D+03 -.144257315914781D+03 0.595507152588642D+02 0.544685899137598D+02
 0.584827767416906D+02 0.230267442374011D+02 0.555025505749203D+01 0.534714773878609D+02
-.672109896907D-05 0.000000000000D+00 0.000000000000D+00 0.100473780078D-06 0.000000000000D+00  6 21 1 25 23 1 21 4 0.18818775D-01 0.88753901D-01 0.58729460D+05 0.58729460D+05 0.58729460D+05 0.11854219D+01  1  2 13  1  6  1       21 -.139788069320D-01 0.100000000000D+01
-.613667243283D-05 0.000000000000D+00 0.000000000000D+00 0.100473780078D-06 0.000000000000D+00  6 21 1 25 23 1 21 4 0.19158877D-01 0.88753901D-01 0.58729460D+05 0.58729460D+05 0.58729460D+05 0.11854219D+01  1  2 13  1  6  1       21 -.123430952794D-01 0.100000000000D+01
0.105499502955D-04 0.000000000000D+00 0.000000000000D+00 0.101225316445D-06 0.271890825915D-08  6 21 1 25 23 1 21 4 0.18743887D-01 0.89795839D-01 0.58729460D+05 0.58729460D+05 0.58729460D+05 0.11854219D+01  1  2  1  1  6  1       21 0.217537460244D-01 0.100000000000D+01
  </mgrwgt>
  </event>
  <event>
  5     66 0.44923357E-03 0.21307704E+02 0.75467711E-02 0.11443700E+00
       21 -1    0    0  501  502 0.00000000E+00 0.00000000E+00 0.29509634E+03 0.29509729E+03 0.75000000E+00 0.0000E+00 0.9000E+01
        1 -1    0    0  502    0 0.00000000E+00 0.00000000E+00 -.44448782E+03 0.44448794E+03 0.32000000E+00 0.0000E+00 0.9000E+01
       25  1    1    2    0    0 0.13878798E+03 0.60864985E+02 -.27759046E+03 0.34007075E+03 0.12500000E+03 0.0000E+00 0.9000E+01
       23  1    1    2    0    0 -.15359702E+03 -.45544727E+02 -.72207176E+02 0.19797852E+03 0.91188000E+02 0.0000E+00 0.9000E+01
        1  1    1    2  501    0 0.14809032E+02 -.15320258E+02 0.20040615E+03 0.20153597E+03 0.32000000E+00 0.0000E+00 0.9000E+01
#aMCatNLO 1  0  0  1  2 0.80633162D+01 0.00000000D+00  -5  6  0 0.00000000D+00 0.00000000D+00 0.00000000D+00 0.00000000D+00 0.00000000D+00
  <mgrwgt>
 0.3709092742D+00   32    2    0
 0.362170020209573D+03 0.000000000000000D+00 0.000000000000000D+00 0.362170020209573D+03
 0.362170020209573D+03 0.000000000000000D+00 0.000000000000000D+00 -.362170020209573D+03
 0.289976643409430D+03 0.138787977701031D+03 0.608649903255803D+02 -.213295109932986D+03
 0.187253015713610D+03 -.153597018381049D+03 -.455447238882542D+02 -.328949026482196D+02
 0.247110381296107D+03 0.148090406800175D+02 -.153202664373261D+02 0.246190012581206D+03
 0.000000000000000D+00 -.000000000000000D+00 0.000000000000000D+00 0.000000000000000D+00
 0.410177676697798D+03 0.000000000000000D+00 0.000000000000000D+00 0.410177676697798D+03
 0.362531194506299D+03 0.000000000000000D+00 0.000000000000000D+00 -.362531194506299D+03
 0.290619980594157D+03 0.141090392723031D+03 0.585975279383351D+02 -.213295109932986D+03
 0.186402122412774D+03 -.152115250889641D+03 -.470039968782694D+02 -.328949026482196D+02
 0.247362816233247D+03 0.167699244862604D+02 -.172513823455917D+02 0.246190012581206D+03
 0.483239519639194D+02 -.574506631965065D+01 0.565785128552603D+01 0.476464821914995D+02
0.158396887515D-04 0.000000000000D+00 0.000000000000D+00 0.501017320839D-05 0.000000000000D+00  6 21 1 25 23 1 21 2 0.45399519D-01 0.68382824D-01 0.40420362D+05 0.40420362D+05 0.40420362D+05 0.12015395D+01  1  2  2  1  6  1       21 0.617246475775D-02 0.100000000000D+01
0.700370710112D-05 0.835883340017D-06 -.319757679727D-07 0.501017320839D-05 0.000000000000D+00  6 21 1 25 23 1 21 4 0.45399519D-01 0.68382824D-01 0.40420362D+05 0.40420362D+05 0.40420362D+05 0.12015395D+01  1  2  3  1  6  1       21 0.394017979929D-02 0.100000000000D+01
0.154525127158D-05 0.000000000000D+00 0.000000000000D+00 0.501017320839D-05 0.000000000000D+00  6 21 1 25 23 1 21 4 0.45399519D-01 0.68382824D-01 0.40420362D+05 0.40420362D+05 0.40420362D+05 0.12015395D+01  1  2 15  1  6  1       21 0.869335018896D-03 0.100000000000D+01
0.125894442128D-02 0.000000000000D+00 0.000000000000D+00 0.499060232792D-05 0.000000000000D+00  6 21 1 25 23 1 21 4 0.51438327D-01 0.68382824D-01 0.42641224D+05 0.42641224D+05 0.42641224D+05 0.11991904D+01  1  2 12  1  6  1       21 0.540953226435D+00 0.100000000000D+01
-.851415330028D-03 0.000000000000D+00 0.000000000000D+00 0.501017320839D-05 0.000000000000D+00  6 21 1 25 23 1 21 4 0.45399519D-01 0.68382824D-01 0.40420362D+05 0.40420362D+05 0.40420362D+05 0.12015395D+01  1  2  4  1  6  1       21 -.478993401029D+00 0.100000000000D+01
-.261132416978D-02 0.000000000000D+00 -.404409947967D-04 0.501017320839D-05 0.000000000000D+00  6 21 1 25 23 1 21 4 0.51441412D-01 0.68382824D-01 0.40420362D+05 0.40420362D+05 0.40420362D+05 0.12015395D+01  1  2  5  1  6  1       21 -.113330038669D+01 0.100000000000D+01
0.256858834178D-02 0.000000000000D+00 0.392057785964D-04 0.501017320839D-05 0.000000000000D+00  6 21 1 25 23 1 21 4 0.45399519D-01 0.68382824D-01 0.40420362D+05 0.40420362D+05 0.40420362D+05 0.12015395D+01  1  2  6  1  6  1       21 0.144504899346D+01 0.100000000000D+01
0.267096428719D-05 0.000000000000D+00 0.000000000000D+00 0.501017320839D-05 0.657181445165D-06  6 21 1 25 23 1 21 4 0.51417478D-01 0.68451019D-01 0.42641224D+05 0.42641224D+05 0.42641224D+05 0.11991904D+01  1  2 11  1  6  1       21 0.114717424180D-02 0.100000000000D+01
0.348665679098D-04 0.000000000000D+00 0.000000000000D+00 0.499060232792D-05 0.000000000000D+00  6 -1 1 25 23 1 -1 4 0.51438327D-01 0.68382824D-01 0.42641224D+05 0.42641224D+05 0.42641224D+05 0.11991904D+01  1  2 12  4  6  1       21 0.150980243902D-02 0.100000000000D+01
-.713426890569D-04 0.000000000000D+00 -.133189837444D-05 0.501017320839D-05 0.000000000000D+00  6 -1 1 25 23 1 -1 4 0.51441412D-01 0.68382824D-01 0.40420362D+05 0.40420362D+05 0.40420362D+05 0.12015395D+01  1  2  5  4  6  1       21 -.311573485815D-02 0.100000000000D+01
0.407957100390D-06 0.000000000000D+00 0.000000000000D+00 0.501017320839D-05 0.781194479612D-07  6 -1 1 25 23 1 -1 4 0.51417478D-01 0.68451019D-01 0.42641224D+05 0.42641224D+05 0.42641224D+05 0.11991904D+01  1  2 11  4  6  1       21 0.176559357631D-04 0.100000000000D+01
0.348665679098D-04 0.000000000000D+00 0.000000000000D+00 0.499060232792D-05 0.000000000000D+00  6 1 1 25 23 1 1 4 0.51438327D-01 0.68382824D-01 0.42641224D+05 0.42641224D+05 0.42641224D+05 0.11991904D+01  1  2 12  5  6  1       21 0.350202625010D-02 0.100000000000D+01
-.713426890569D-04 0.000000000000D+00 -.133189837444D-05 0.501017320839D-05 0.000000000000D+00  6 1 1 25 23 1 1 4 0.51441412D-01 0.68382824D-01 0.40420362D+05 0.40420362D+05 0.40420362D+05 0.12015395D+01  1  2  5  5  6  1       21 -.722662174131D-02 0.100000000000D+01
0.607340867396D-06 0.000000000000D+00 0.000000000000D+00 0.501017320839D-05 0.542521113296D-07  6 1 1 25 23 1 1 4 0.51417478D-01 0.68451019D-01 0.42641224D+05 0.42641224D+05 0.42641224D+05 0.11991904D+01  1  2 11  5  6  1       21 0.609541750070D-04 0.100000000000D+01
0.348665679098D-04 0.000000000000D+00 0.000000000000D+00 0.499060232792D-05 0.000000000000D+00  6 -2 1 25 23 1 -2 4 0.51438327D-01 0.68382824D-01 0.42641224D+05 0.42641224D+05 0.42641224D+05 0.11991904D+01  1  2 12  6  6  1       21 0.123313597022D-02 0.100000000000D+01
0.348665679098D-04 0.000000000000D+00 0.000000000000D+00 0.499060232792D-05 0.000000000000D+00  6 -4 1 25 23 1 -4 4 0.51438327D-01 0.68382824D-01 0.42641224D+05 0.42641224D+05 0.42641224D+05 0.11991904D+01  1  2 12  6  6  1       21 0.647097451028D-03 0.100000000000D+01
-.713426890569D-04 0.000000000000D+00 -.133189837444D-05 0.501017320839D-05 0.000000000000D+00  6 -2 1 25 23 1 -2 4 0.51441412D-01 0.68382824D-01 0.40420362D+05 0.40420362D+05 0.40420362D+05 0.12015395D+01  1  2  5  6  6  1       21 -.254436407205D-02 0.100000000000D+01
-.713426890569D-04 0.000000000000D+00 -.133189837444D-05 0.501017320839D-05 0.000000000000D+00  6 -4 1 25 23 1 -4 4 0.51441412D-01 0.68382824D-01 0.40420362D+05 0.40420362D+05 0.40420362D+05 0.12015395D+01  1  2  5  6  6  1       21 -.133312546826D-02 0.100000000000D+01
0.179173769405D-06 0.000000000000D+00 0.000000000000D+00 0.501017320839D-05 0.222336436135D-07  6 -2 1 25 23 1 -2 4 0.51417478D-01 0.68451019D-01 0.42641224D+05 0.42641224D+05 0.42641224D+05 0.11991904D+01  1  2 11  6  6  1       21 0.633385278517D-05 0.100000000000D+01
0.179173769405D-06 0.000000000000D+00 0.000000000000D+00 0.501017320839D-05 0.222336436135D-07  6 -4 1 25 23 1 -4 4 0.51417478D-01 0.68451019D-01 0.42641224D+05 0.42641224D+05 0.42641224D+05 0.11991904D+01  1  2 11  6  6  1       21 0.332381733555D-05 0.100000000000D+01
0.348665679098D-04 0.000000000000D+00 0.000000000000D+00 0.499060232792D-05 0.000000000000D+00  6 2 1 25 23 1 2 4 0.51438327D-01 0.68382824D-01 0.42641224D+05 0.42641224D+05 0.42641224D+05 0.11991904D+01  1  2 12  7  6  1       21 0.505934308313D-02 0.100000000000D+01
0.348665679098D-04 0.000000000000D+00 0.000000000000D+00 0.499060232792D-05 0.000000000000D+00  6 4 1 25 23 1 4 4 0.51438327D-01 0.68382824D-01 0.42641224D+05 0.42641224D+05 0.42641224D+05 0.11991904D+01  1  2 12  7  6  1       21 0.647097451028D-03 0.100000000000D+01
-.713426890569D-04 0.000000000000D+00 -.133189837444D-05 0.501017320839D-05 0.000000000000D+00  6 2 1 25 23 1 2 4 0.51441412D-01 0.68382824D-01 0.40420362D+05 0.40420362D+05 0.40420362D+05 0.12015395D+01  1  2  5  7  6  1       21 -.104385299065D-01 0.100000000000D+01
-.713426890569D-04 0.000000000000D+00 -.133189837444D-05 0.501017320839D-05 0.000000000000D+00  6 4 1 25 23 1 4 4 0.51441412D-01 0.68382824D-01 0.40420362D+05 0.40420362D+05 0.40420362D+05 0.12015395D+01  1  2  5  7  6  1       21 -.133312546826D-02 0.100000000000D+01
0.179076107103D-06 0.000000000000D+00 0.000000000000D+00 0.501017320839D-05 0.222215247145D-07  6 2 1 25 23 1 2 4 0.51417478D-01 0.68451019D-01 0.42641224D+05 0.42641224D+05 0.42641224D+05 0.11991904D+01  1  2 11  7  6  1       21 0.259627551967D-04 0.100000000000D+01
0.179076107103D-06 0.000000000000D+00 0.000000000000D+00 0.501017320839D-05 0.222215247145D-07  6 4 1 25 23 1 4 4 0.51417478D-01 0.68451019D-01 0.42641224D+05 0.42641224D+05 0.42641224D+05 0.11991904D+01  1  2 11  7  6  1       21 0.332200562140D-05 0.100000000000D+01
0.348665679098D-04 0.000000000000D+00 0.000000000000D+00 0.499060232792D-05 0.000000000000D+00  6 -3 1 25 23 1 -3 4 0.51438327D-01 0.68382824D-01 0.42641224D+05 0.42641224D+05 0.42641224D+05 0.11991904D+01  1  2 12  8  6  1       21 0.782375485179D-03 0.100000000000D+01
-.713426890569D-04 0.000000000000D+00 -.133189837444D-05 0.501017320839D-05 0.000000000000D+00  6 -3 1 25 23 1 -3 4 0.51441412D-01 0.68382824D-01 0.40420362D+05 0.40420362D+05 0.40420362D+05 0.12015395D+01  1  2  5  8  6  1       21 -.161265876323D-02 0.100000000000D+01
0.180089436355D-06 0.000000000000D+00 0.000000000000D+00 0.501017320839D-05 0.223472685749D-07  6 -3 1 25 23 1 -3 4 0.51417478D-01 0.68451019D-01 0.42641224D+05 0.42641224D+05 0.42641224D+05 0.11991904D+01  1  2 11  8  6  1       21 0.403914314985D-05 0.100000000000D+01
0.348665679098D-04 0.000000000000D+00 0.000000000000D+00 0.499060232792D-05 0.000000000000D+00  6 3 1 25 23 1 3 4 0.51438327D-01 0.68382824D-01 0.42641224D+05 0.42641224D+05 0.42641224D+05 0.11991904D+01  1  2 12  9  6  1       21 0.782737587018D-03 0.100000000000D+01
-.713426890569D-04 0.000000000000D+00 -.133189837444D-05 0.501017320839D-05 0.000000000000D+00  6 3 1 25 23 1 3 4 0.51441412D-01 0.68382824D-01 0.40420362D+05 0.40420362D+05 0.40420362D+05 0.12015395D+01  1  2  5  9  6  1       21 -.161340371071D-02 0.100000000000D+01
0.180258144824D-06 0.000000000000D+00 0.000000000000D+00 0.501017320839D-05 0.223682035811D-07  6 3 1 25 23 1 3 4 0.51417478D-01 0.68451019D-01 0.42641224D+05 0.42641224D+05 0.42641224D+05 0.11991904D+01  1  2 11  9  6  1       21 0.404479613363D-05 0.100000000000D+01
  </mgrwgt>
  </event>
  <event>
  5     66 0.44923357E-03 0.47901125E+02 0.75467711E-02 0.11210399E+00
       21 -1    0    0  501  502 0.00000000E+00 0.00000000E+00 0.36185799E+03 0.36185876E+03 0.75000000E+00 0.0000E+00 0.9000E+01
        3 -1    0    0  502    0 0.00000000E+00 0.00000000E+00 -.26297822E+03 0.26297870E+03 0.50000000E+00 0.0000E+00 0.9000E+01
       25  1    1    2    0    0 0.90134151E+02 0.12297408E+03 -.12680774E+03 0.23441841E+03 0.12500000E+03 0.0000E+00 0.9000E+01
       23  1    1    2    0    0 -.85310199E+02 -.17063147E+03 0.62708702E+02 0.22054605E+03 0.91188000E+02 0.0000E+00 0.9000E+01
        3  1    1    2  501    0 -.48239515E+01 0.47657389E+02 0.16297880E+03 0.16987300E+03 0.50000000E+00 0.0000E+00 0.9000E+01
#aMCatNLO 1  0  0  1  2 0.17498340D+02 0.00000000D+00  -5  6  0 0.00000000D+00 0.00000000D+00 0.00000000D+00 0.00000000D+00 0.00000000D+00
  <mgrwgt>
 0.6916140015D-02   23    2    0
 0.308482028921483D+03 0.000000000000000D+00 0.000000000000000D+00 0.308482028921483D+03
 0.308482028921483D+03 0.000000000000000D+00 0.000000000000000D+00 -.308482028921483D+03
 0.257733372910465D+03 0.901341623640872D+02 0.122973964618567D+03 -.165996169572435D+03
 0.213310379187715D+03 -.853101892186340D+02 -.170631566928364D+03 0.281621467267499D+02
 0.145920305744785D+03 -.482397314545324D+01 0.476576023097963D+02 0.137834022845685D+03
 0.000000000000000D+00 -.000000000000000D+00 -.000000000000000D+00 0.000000000000000D+00
 0.358712240606766D+03 0.000000000000000D+00 0.000000000000000D+00 0.358712240606766D+03
 0.310133791758316D+03 0.000000000000000D+00 0.000000000000000D+00 -.310133791758316D+03
 0.261544492122377D+03 0.969222261539593D+02 0.125824779452190D+03 -.165996169572435D+03
 0.209291439124069D+03 -.797858865406546D+02 -.168311499747601D+03 0.281621467267499D+02
 0.146376220755513D+03 -.100303718601931D+01 0.492622986191811D+02 0.137834022845685D+03
 0.516338803631233D+02 -.161333024272853D+02 -.677557832376979D+01 0.485784488484507D+02
0.407555057447D-05 0.000000000000D+00 0.000000000000D+00 0.335162524520D-06 0.000000000000D+00  6 21 3 25 23 3 21 2 0.55670556D-01 0.40458285D-01 0.52098866D+05 0.52098866D+05 0.52098866D+05 0.11905172D+01  1  2  2  1  6  1       21 0.524018274925D-03 0.100000000000D+01
0.484123607528D-06 0.215072712604D-06 -.822736239168D-08 0.335162524520D-06 0.000000000000D+00  6 21 3 25 23 3 21 4 0.55670556D-01 0.40458285D-01 0.52098866D+05 0.52098866D+05 0.52098866D+05 0.11905172D+01  1  2  3  1  6  1       21 0.882242037900D-04 0.100000000000D+01
0.583510300749D-06 0.000000000000D+00 0.000000000000D+00 0.335162524520D-06 0.000000000000D+00  6 21 3 25 23 3 21 4 0.55670556D-01 0.40458285D-01 0.52098866D+05 0.52098866D+05 0.52098866D+05 0.11905172D+01  1  2 15  1  6  1       21 0.106335925136D-03 0.100000000000D+01
0.644497904804D-04 0.000000000000D+00 0.000000000000D+00 0.333130999429D-06 0.000000000000D+00  6 21 3 25 23 3 21 4 0.64869288D-01 0.40458285D-01 0.56709393D+05 0.56709393D+05 0.56709393D+05 0.11869037D+01  1  2 12  1  6  1       21 0.832939697238D-02 0.100000000000D+01
-.426214884762D-04 0.000000000000D+00 0.000000000000D+00 0.335162524520D-06 0.000000000000D+00  6 21 3 25 23 3 21 4 0.55670556D-01 0.40458285D-01 0.52098866D+05 0.52098866D+05 0.52098866D+05 0.11905172D+01  1  2  4  1  6  1       21 -.776712150924D-02 0.100000000000D+01
-.150301440501D-03 0.000000000000D+00 -.862638173329D-05 0.335162524520D-06 0.000000000000D+00  6 21 3 25 23 3 21 4 0.64911924D-01 0.40458285D-01 0.52098866D+05 0.52098866D+05 0.52098866D+05 0.11905172D+01  1  2  5  1  6  1       21 -.196657868695D-01 0.100000000000D+01
0.142271154937D-03 0.000000000000D+00 0.823265557530D-05 0.335162524520D-06 0.000000000000D+00  6 21 3 25 23 3 21 4 0.55670556D-01 0.40458285D-01 0.52098866D+05 0.52098866D+05 0.52098866D+05 0.11905172D+01  1  2  6  1  6  1       21 0.259267657503D-01 0.100000000000D+01
0.277842674186D-05 0.000000000000D+00 0.000000000000D+00 0.333130999429D-06 0.000000000000D+00  6 -3 3 25 23 3 -3 4 0.64869288D-01 0.40458285D-01 0.56709393D+05 0.56709393D+05 0.56709393D+05 0.11869037D+01  1  2 12  4  6  1       21 0.193532144486D-04 0.100000000000D+01
-.706134585366D-05 0.000000000000D+00 -.361286391159D-06 0.335162524520D-06 0.000000000000D+00  6 -3 3 25 23 3 -3 4 0.64911924D-01 0.40458285D-01 0.52098866D+05 0.52098866D+05 0.52098866D+05 0.11905172D+01  1  2  5  4  6  1       21 -.495882517473D-04 0.100000000000D+01
0.277842674186D-05 0.000000000000D+00 0.000000000000D+00 0.333130999429D-06 0.000000000000D+00  6 3 3 25 23 3 3 4 0.64869288D-01 0.40458285D-01 0.56709393D+05 0.56709393D+05 0.56709393D+05 0.11869037D+01  1  2 12  5  6  1       21 0.193692135608D-04 0.100000000000D+01
-.706134585366D-05 0.000000000000D+00 -.361286391159D-06 0.335162524520D-06 0.000000000000D+00  6 3 3 25 23 3 3 4 0.64911924D-01 0.40458285D-01 0.52098866D+05 0.52098866D+05 0.52098866D+05 0.11905172D+01  1  2  5  5  6  1       21 -.496292376721D-04 0.100000000000D+01
0.277842674186D-05 0.000000000000D+00 0.000000000000D+00 0.333130999429D-06 0.000000000000D+00  6 -2 3 25 23 3 -2 4 0.64869288D-01 0.40458285D-01 0.56709393D+05 0.56709393D+05 0.56709393D+05 0.11869037D+01  1  2 12  6  6  1       21 0.304187146588D-04 0.100000000000D+01
0.277842674186D-05 0.000000000000D+00 0.000000000000D+00 0.333130999429D-06 0.000000000000D+00  6 -4 3 25 23 3 -4 4 0.64869288D-01 0.40458285D-01 0.56709393D+05 0.56709393D+05 0.56709393D+05 0.11869037D+01  1  2 12  6  6  1       21 0.158980422286D-04 0.100000000000D+01
-.706134585366D-05 0.000000000000D+00 -.361286391159D-06 0.335162524520D-06 0.000000000000D+00  6 -2 3 25 23 3 -2 4 0.64911924D-01 0.40458285D-01 0.52098866D+05 0.52098866D+05 0.52098866D+05 0.11905172D+01  1  2  5  6  6  1       21 -.780587532124D-04 0.100000000000D+01
-.706134585366D-05 0.000000000000D+00 -.361286391159D-06 0.335162524520D-06 0.000000000000D+00  6 -4 3 25 23 3 -4 4 0.64911924D-01 0.40458285D-01 0.52098866D+05 0.52098866D+05 0.52098866D+05 0.11905172D+01  1  2  5  6  6  1       21 -.407020952811D-04 0.100000000000D+01
0.277842674186D-05 0.000000000000D+00 0.000000000000D+00 0.333130999429D-06 0.000000000000D+00  6 2 3 25 23 3 2 4 0.64869288D-01 0.40458285D-01 0.56709393D+05 0.56709393D+05 0.56709393D+05 0.11869037D+01  1  2 12  7  6  1       21 0.156483696040D-03 0.100000000000D+01
0.277842674186D-05 0.000000000000D+00 0.000000000000D+00 0.333130999429D-06 0.000000000000D+00  6 4 3 25 23 3 4 4 0.64869288D-01 0.40458285D-01 0.56709393D+05 0.56709393D+05 0.56709393D+05 0.11869037D+01  1  2 12  7  6  1       21 0.158980422286D-04 0.100000000000D+01
-.706134585366D-05 0.000000000000D+00 -.361286391159D-06 0.335162524520D-06 0.000000000000D+00  6 2 3 25 23 3 2 4 0.64911924D-01 0.40458285D-01 0.52098866D+05 0.52098866D+05 0.52098866D+05 0.11905172D+01  1  2  5  7  6  1       21 -.401751017137D-03 0.100000000000D+01
-.706134585366D-05 0.000000000000D+00 -.361286391159D-06 0.335162524520D-06 0.000000000000D+00  6 4 3 25 23 3 4 4 0.64911924D-01 0.40458285D-01 0.52098866D+05 0.52098866D+05 0.52098866D+05 0.11905172D+01  1  2  5  7  6  1       21 -.407020952811D-04 0.100000000000D+01
0.277842674186D-05 0.000000000000D+00 0.000000000000D+00 0.333130999429D-06 0.000000000000D+00  6 -1 3 25 23 3 -1 4 0.64869288D-01 0.40458285D-01 0.56709393D+05 0.56709393D+05 0.56709393D+05 0.11869037D+01  1  2 12  8  6  1       21 0.385272592610D-04 0.100000000000D+01
-.706134585366D-05 0.000000000000D+00 -.361286391159D-06 0.335162524520D-06 0.000000000000D+00  6 -1 3 25 23 3 -1 4 0.64911924D-01 0.40458285D-01 0.52098866D+05 0.52098866D+05 0.52098866D+05 0.11905172D+01  1  2  5  8  6  1       21 -.989076606258D-04 0.100000000000D+01
0.277842674186D-05 0.000000000000D+00 0.000000000000D+00 0.333130999429D-06 0.000000000000D+00  6 1 3 25 23 3 1 4 0.64869288D-01 0.40458285D-01 0.56709393D+05 0.56709393D+05 0.56709393D+05 0.11869037D+01  1  2 12  9  6  1       21 0.103518753438D-03 0.100000000000D+01
-.706134585366D-05 0.000000000000D+00 -.361286391159D-06 0.335162524520D-06 0.000000000000D+00  6 1 3 25 23 3 1 4 0.64911924D-01 0.40458285D-01 0.52098866D+05 0.52098866D+05 0.52098866D+05 0.11905172D+01  1  2  5  9  6  1       21 -.265820558224D-03 0.100000000000D+01
  </mgrwgt>
  </event>
  <event>
  5     66 0.44923357E-03 0.48341025E+02 0.75467711E-02 0.11451637E+00
       21 -1    0    0  501  502 0.00000000E+00 0.00000000E+00 0.51508968E+02 0.51514428E+02 0.75000000E+00 0.0000E+00 0.9000E+01
        1 -1    0    0  502    0 0.00000000E+00 0.00000000E+00 -.26234569E+04 0.26234570E+04 0.32000000E+00 0.0000E+00 0.9000E+01
       25  1    1    2    0    0 -.10982094E+03 -.87492941E+02 -.19533388E+04 0.19623642E+04 0.12500000E+03 0.0000E+00 0.9000E+01
       23  1    1    2    0    0 0.11869988E+03 0.39974344E+02 -.64090962E+03 0.65936940E+03 0.91188000E+02 0.0000E+00 0.9000E+01
        1  1    1    2  501    0 -.88789422E+01 0.47518597E+02 0.22300454E+02 0.53237818E+02 0.32000000E+00 0.0000E+00 0.9000E+01
#aMCatNLO 1  0  0  2  1 0.26245012D+02 0.00000000D+00  -5  6  0 0.00000000D+00 0.00000000D+00 0.00000000D+00 0.00000000D+00 0.00000000D+00
  <mgrwgt>
 0.9159042385D-01    6    2    0
 0.367612414571568D+03 0.000000000000000D+00 0.000000000000000D+00 0.367612414571568D+03
 0.367612414571568D+03 0.000000000000000D+00 0.000000000000000D+00 -.367612414571568D+03
 0.306548783485533D+03 -.109820932753851D+03 -.874929547852651D+02 -.242139427290307D+03
 0.156969775709670D+03 0.118699878801063D+03 0.399743373615810D+02 -.252319295231168D+02
 0.271706269947933D+03 -.887894604721142D+01 0.475186174236841D+02 0.267371356813424D+03
 0.000000000000000D+00 -.000000000000000D+00 0.000000000000000D+00 0.000000000000000D+00
 0.383639709816452D+03 0.000000000000000D+00 0.000000000000000D+00 0.383639709816452D+03
 0.378750022519697D+03 0.000000000000000D+00 0.000000000000000D+00 -.378750022519697D+03
 0.307519250183904D+03 -.104401289461029D+03 -.970152449054635D+02 -.242139427290307D+03
 0.157925512856335D+03 0.121479082480531D+03 0.350912883657050D+02 -.252319295231168D+02
 0.270248345575548D+03 -.409576155300413D+01 0.391145826945726D+02 0.267371356813424D+03
 0.266966237203631D+02 -.129820314664984D+02 0.228093738451859D+02 0.488968729675534D+01
0.603351767799D-04 0.000000000000D+00 0.000000000000D+00 0.132199481484D-05 0.000000000000D+00  6 21 1 25 23 1 21 2 0.79248780D-02 0.40360918D+00 0.38271232D+05 0.38271232D+05 0.38271232D+05 0.12039536D+01  1  2  2  2  6  2        1 0.161339847192D-01 0.100000000000D+01
0.113875985180D-04 0.318397475344D-05 -.121799338584D-06 0.132199481484D-05 0.000000000000D+00  6 21 1 25 23 1 21 4 0.79248780D-02 0.40360918D+00 0.38271232D+05 0.38271232D+05 0.38271232D+05 0.12039536D+01  1  2  3  2  6  2        1 0.441390239638D-02 0.100000000000D+01
0.544199295106D-05 0.000000000000D+00 0.000000000000D+00 0.132199481484D-05 0.000000000000D+00  6 21 1 25 23 1 21 4 0.79248780D-02 0.40360918D+00 0.38271232D+05 0.38271232D+05 0.38271232D+05 0.12039536D+01  1  2 15  2  6  2        1 0.210934954283D-02 0.100000000000D+01
0.335832531129D-03 0.000000000000D+00 0.000000000000D+00 0.131246476927D-05 0.000000000000D+00  6 21 1 25 23 1 21 4 0.79248780D-02 0.42432102D+00 0.42238417D+05 0.42238417D+05 0.42238417D+05 0.11996062D+01  1  2 12  2  6  2        1 0.103569958866D+00 0.100000000000D+01
-.907159281850D-04 0.000000000000D+00 0.000000000000D+00 0.132199481484D-05 0.000000000000D+00  6 21 1 25 23 1 21 4 0.79248780D-02 0.40360918D+00 0.38271232D+05 0.38271232D+05 0.38271232D+05 0.12039536D+01  1  2  4  2  6  2        1 -.351620451119D-01 0.100000000000D+01
0.346766039998D-05 0.000000000000D+00 0.000000000000D+00 0.131246476927D-05 0.000000000000D+00  6 21 21 25 23 1 -1 4 0.79248780D-02 0.42432102D+00 0.42238417D+05 0.42238417D+05 0.42238417D+05 0.11996062D+01  1  2 12 10  6  2        1 0.525273441361D-03 0.100000000000D+01
  </mgrwgt>
  </event>
  <event>
  6     66 0.44923357E-03 0.35610346E+02 0.75467711E-02 0.11694676E+00
       21 -1    0    0  501  502 0.00000000E+00 0.00000000E+00 0.29934094E+03 0.29934188E+03 0.75000000E+00 0.0000E+00 0.9000E+01
        1 -1    0    0  502    0 0.00000000E+00 0.00000000E+00 -.11070561E+03 0.11070607E+03 0.32000000E+00 0.0000E+00 0.9000E+01
       25  1    1    2    0    0 -.19545903E+02 0.70865410E+02 0.75274282E+02 0.16338655E+03 0.12500000E+03 0.0000E+00 0.9000E+01
       23  1    1    2    0    0 -.21712013E+02 -.13569704E+02 0.51880701E+02 0.10799262E+03 0.91188000E+02 0.0000E+00 0.9000E+01
        1  1    1    2  503    0 -.20598363E+02 -.50586244E+02 0.52572998E+02 0.75810838E+02 0.32000000E+00 0.0000E+00 0.9000E+01
       21  1    1    2  501  503 0.61856279E+02 -.67094623E+01 0.89073550E+01 0.62857932E+02 0.75000000E+00 0.0000E+00 0.9000E+01
#aMCatNLO 2  0  0  5  2 0.50704881D+02 0.00000000D+00  -5  6  0 0.00000000D+00 0.00000000D+00 0.00000000D+00 0.00000000D+00 0.00000000D+00
  <mgrwgt>
 0.3181960068D-01    1    2    0
 0.182041224612703D+03 0.000000000000000D+00 0.000000000000000D+00 0.182041224612703D+03
 0.182041224612703D+03 -.000000000000000D+00 -.000000000000000D+00 -.182041224612703D+03
 0.157894093980546D+03 -.336205470044449D+02 0.904111538099252D+02 0.101340999475752D+01
 0.962369215958017D+02 -.305860902319074D+02 -.124609299382126D+01 0.303843229525602D+01
 0.109951433649058D+03 0.642066372363524D+02 -.891650608161040D+02 -.405184229001354D+01
 0.000000000000000D+00 0.000000000000000D+00 0.000000000000000D+00 0.000000000000000D+00
 0.182041224612703D+03 0.000000000000000D+00 0.000000000000000D+00 0.182041224612703D+03
 0.182041224612703D+03 -.000000000000000D+00 -.000000000000000D+00 -.182041224612703D+03
 0.145032762315922D+03 -.195693682608592D+02 0.708979965860422D+02 0.126692317140769D+00
 0.947472200479508D+02 -.217273434564142D+02 -.135484145136921D+02 0.247938970454482D+01
 0.576949145202100D+02 -.209478605164338D+02 -.499330105964297D+02 0.199144358206605D+02
 0.666075523413228D+02 0.622445722337072D+02 -.741657147592034D+01 -.225205178423460D+02
0.962976837100D-05 0.000000000000D+00 0.000000000000D+00 0.172211984550D-06 0.769568042357D-09  6 21 1 25 23 1 21 4 0.46052560D-01 0.17031739D-01 0.31787571D+05 0.31787571D+05 0.31787571D+05 0.12122691D+01  1  2  1  3  6  5        1 0.318196006758D-01 0.100000000000D+01
  </mgrwgt>
  </event>
  <event>
  5     66 0.44923357E-03 0.77870975E+02 0.75467711E-02 0.10161491E+00
       21 -1    0    0  501  502 0.00000000E+00 0.00000000E+00 0.42895384E+03 0.42895450E+03 0.75000000E+00 0.0000E+00 0.9000E+01
        3 -1    0    0  502    0 0.00000000E+00 0.00000000E+00 -.90950714E+02 0.90952088E+02 0.50000000E+00 0.0000E+00 0.9000E+01
       25  1    1    2    0    0 0.23601771E+02 0.53183714E+02 0.18054822E+03 0.22717441E+03 0.12500000E+03 0.0000E+00 0.9000E+01
       23  1    1    2    0    0 -.86344988E+01 -.12960152E+03 0.64088353E+02 0.17115396E+03 0.91188000E+02 0.0000E+00 0.9000E+01
        3  1    1    2  501    0 -.14967272E+02 0.76417807E+02 0.93366551E+02 0.12157822E+03 0.50000000E+00 0.0000E+00 0.9000E+01
#aMCatNLO 1  0  0  1  2 0.65596939D+01 0.00000000D+00  -5  6  0 0.00000000D+00 0.00000000D+00 0.00000000D+00 0.00000000D+00 0.00000000D+00
  <mgrwgt>
 0.5940077960D-02   12    2    0
 0.197520089639904D+03 0.000000000000000D+00 0.000000000000000D+00 0.197520089639904D+03
 0.197520089639904D+03 0.000000000000000D+00 0.000000000000000D+00 -.197520089639904D+03
 0.144500538808099D+03 0.236018776774176D+02 0.531831694849004D+02 0.432424278859477D+02
 0.170418662440659D+03 -.863437303154072D+01 -.129602163064643D+03 -.620966673452051D+02
 0.801209780310506D+02 -.149675046458769D+02 0.764189935797425D+02 0.188542394592574D+02
 0.000000000000000D+00 -.000000000000000D+00 -.000000000000000D+00 0.000000000000000D+00
 0.890162500956542D+03 0.000000000000000D+00 0.000000000000000D+00 0.890162500956542D+03
 0.364350741123934D+03 0.000000000000000D+00 0.000000000000000D+00 -.364350741123934D+03
 0.273877487483126D+03 0.115921952858547D+03 0.209943019474474D+03 0.432424278859477D+02
 0.125426746745387D+03 0.566474264457485D+02 -.187534113383114D+02 -.620966673452051D+02
 0.179957172614887D+03 0.424218248881004D+02 0.173866300366462D+03 0.188542394592574D+02
 0.675251835237075D+03 -.214991204192396D+03 -.365055908502624D+03 0.525811759832609D+03
0.891916258617D-05 0.000000000000D+00 0.000000000000D+00 0.113387888540D-06 0.000000000000D+00  6 21 3 25 23 3 21 2 0.65993055D-01 0.13992574D-01 0.35053606D+05 0.35053606D+05 0.35053606D+05 0.12078657D+01  1  2  2  1  6  1       21 0.565153572706D-02 0.100000000000D+01
-.425224789610D-06 0.470677140796D-06 -.180052195368D-07 0.113387888540D-06 0.000000000000D+00  6 21 3 25 23 3 21 4 0.65993055D-01 0.13992574D-01 0.35053606D+05 0.35053606D+05 0.35053606D+05 0.12078657D+01  1  2  3  1  6  1       21 -.393095695377D-03 0.100000000000D+01
0.955838073939D-06 0.000000000000D+00 0.000000000000D+00 0.113387888540D-06 0.000000000000D+00  6 21 3 25 23 3 21 4 0.65993055D-01 0.13992574D-01 0.35053606D+05 0.35053606D+05 0.35053606D+05 0.12078657D+01  1  2 15  1  6  1       21 0.883616951607D-03 0.100000000000D+01
-.123020605569D-04 0.000000000000D+00 -.810549118716D-04 0.113387888540D-06 0.000000000000D+00  6 21 3 25 23 3 21 4 0.39545410D+00 0.13992574D-01 0.35053606D+05 0.35053606D+05 0.35053606D+05 0.12078657D+01  1  2  5  1  6  1       21 -.504950275569D-04 0.100000000000D+01
-.504334558527D-05 0.000000000000D+00 -.342953985638D-04 0.113387888540D-06 0.000000000000D+00  6 -3 3 25 23 3 -3 4 0.39545410D+00 0.13992574D-01 0.35053606D+05 0.35053606D+05 0.35053606D+05 0.12078657D+01  1  2  5  4  6  1       21 -.152838049795D-05 0.100000000000D+01
-.504334558527D-05 0.000000000000D+00 -.342953985638D-04 0.113387888540D-06 0.000000000000D+00  6 3 3 25 23 3 3 4 0.39545410D+00 0.13992574D-01 0.35053606D+05 0.35053606D+05 0.35053606D+05 0.12078657D+01  1  2  5  5  6  1       21 -.159467848071D-05 0.100000000000D+01
-.504334558527D-05 0.000000000000D+00 -.342953985638D-04 0.113387888540D-06 0.000000000000D+00  6 -2 3 25 23 3 -2 4 0.39545410D+00 0.13992574D-01 0.35053606D+05 0.35053606D+05 0.35053606D+05 0.12078657D+01  1  2  5  6  6  1       21 -.182057401593D-05 0.100000000000D+01
-.504334558527D-05 0.000000000000D+00 -.342953985638D-04 0.113387888540D-06 0.000000000000D+00  6 -4 3 25 23 3 -4 4 0.39545410D+00 0.13992574D-01 0.35053606D+05 0.35053606D+05 0.35053606D+05 0.12078657D+01  1  2  5  6  6  1       21 -.888699653846D-06 0.100000000000D+01
-.504334558527D-05 0.000000000000D+00 -.342953985638D-04 0.113387888540D-06 0.000000000000D+00  6 2 3 25 23 3 2 4 0.39545410D+00 0.13992574D-01 0.35053606D+05 0.35053606D+05 0.35053606D+05 0.12078657D+01  1  2  5  7  6  1       21 -.106332528396D-03 0.100000000000D+01
-.504334558527D-05 0.000000000000D+00 -.342953985638D-04 0.113387888540D-06 0.000000000000D+00  6 4 3 25 23 3 4 4 0.39545410D+00 0.13992574D-01 0.35053606D+05 0.35053606D+05 0.35053606D+05 0.12078657D+01  1  2  5  7  6  1       21 -.888699653846D-06 0.100000000000D+01
-.504334558527D-05 0.000000000000D+00 -.342953985638D-04 0.113387888540D-06 0.000000000000D+00  6 -1 3 25 23 3 -1 4 0.39545410D+00 0.13992574D-01 0.35053606D+05 0.35053606D+05 0.35053606D+05 0.12078657D+01  1  2  5  8  6  1       21 -.203407480224D-05 0.100000000000D+01
-.504334558527D-05 0.000000000000D+00 -.342953985638D-04 0.113387888540D-06 0.000000000000D+00  6 1 3 25 23 3 1 4 0.39545410D+00 0.13992574D-01 0.35053606D+05 0.35053606D+05 0.35053606D+05 0.12078657D+01  1  2  5  9  6  1       21 -.363963602072D-04 0.100000000000D+01
  </mgrwgt>
  </event>
  <event>
  5     66 0.44923357E-03 0.43820441E+02 0.75467711E-02 0.11983425E+00
       21 -1    0    0  501  502 0.00000000E+00 0.00000000E+00 0.95204351E+02 0.95207305E+02 0.75000000E+00 0.0000E+00 0.9000E+01
        1 -1    0    0  502    0 -.00000000E+00 -.00000000E+00 -.25502345E+03 0.25502365E+03 0.32000000E+00 0.0000E+00 0.9000E+01
       25  1    1    2    0    0 -.37207798E+01 -.48304417E+02 -.39712926E+02 0.13981873E+03 0.12500000E+03 0.0000E+00 0.9000E+01
       23  1    1    2    0    0 0.47064763E+02 0.54745123E+02 -.47554374E+02 0.12565345E+03 0.91188000E+02 0.0000E+00 0.9000E+01
        1  1    1    2  501    0 -.43343984E+02 -.64407053E+01 -.72551798E+02 0.84758772E+02 0.32000000E+00 0.0000E+00 0.9000E+01
#aMCatNLO 1  0  0  5  1 0.25101327D+02 0.00000000D+00  -5  6  0 0.00000000D+00 0.00000000D+00 0.00000000D+00 0.00000000D+00 0.00000000D+00
  <mgrwgt>
 0.3297040244D-01    5    2    0
 0.155820070803144D+03 0.000000000000000D+00 0.000000000000000D+00 0.155820070803144D+03
 0.155820070803144D+03 -.000000000000000D+00 -.000000000000000D+00 -.155820070803144D+03
 0.136766630295759D+03 -.372049071323934D+01 -.483043742837257D+02 0.270731700465114D+02
 0.116826010213554D+03 0.470650101807577D+02 0.547451592252161D+02 0.109962573864145D+02
 0.580475010969759D+02 -.433445194675183D+02 -.644078494149042D+01 -.380694274329260D+02
 0.000000000000000D+00 0.000000000000000D+00 0.000000000000000D+00 0.000000000000000D+00
 0.155820070803144D+03 0.000000000000000D+00 0.000000000000000D+00 0.155820070803144D+03
 0.155820070803144D+03 -.000000000000000D+00 -.000000000000000D+00 -.155820070803144D+03
 0.136629554885286D+03 -.164409278782117D+02 -.501945694259911D+02 0.159008288712930D+02
 0.111677842052919D+03 0.364333004047599D+02 0.531653388218810D+02 0.165844239209714D+01
 0.251778355270364D+02 0.179303436654171D+02 0.123152845192665D+01 -.176326264503796D+02
 0.381549091410473D+02 -.379227161919654D+02 -.420229784781658D+01 0.733551869894455D-01
0.382348668578D-05 0.000000000000D+00 0.000000000000D+00 0.168929878994D-06 0.000000000000D+00  6 21 1 25 23 1 21 2 0.14647066D-01 0.39234619D-01 0.21636653D+05 0.21636653D+05 0.21636653D+05 0.12300830D+01  1  2  2  3  6  5        1 0.277578056808D-01 0.100000000000D+01
-.322996495666D-06 0.201770935752D-06 -.771851802324D-08 0.168929878994D-06 0.000000000000D+00  6 21 1 25 23 1 21 4 0.14647066D-01 0.39234619D-01 0.21636653D+05 0.21636653D+05 0.21636653D+05 0.12300830D+01  1  2  3  3  6  5        1 -.354806983476D-02 0.100000000000D+01
0.392998566303D-06 0.000000000000D+00 0.000000000000D+00 0.168929878994D-06 0.000000000000D+00  6 21 1 25 23 1 21 4 0.14647066D-01 0.39234619D-01 0.21636653D+05 0.21636653D+05 0.21636653D+05 0.12300830D+01  1  2 15  3  6  5        1 0.431703246603D-02 0.100000000000D+01
0.782266928648D-06 0.000000000000D+00 0.000000000000D+00 0.168123531572D-06 0.000000000000D+00  6 21 1 25 23 1 21 4 0.14647066D-01 0.39234619D-01 0.23027166D+05 0.23027166D+05 0.23027166D+05 0.12271437D+01  1  2 12  3  6  5        1 0.851488899520D-02 0.100000000000D+01
-.370624343613D-06 0.000000000000D+00 0.000000000000D+00 0.168929878994D-06 0.000000000000D+00  6 21 1 25 23 1 21 4 0.14647066D-01 0.39234619D-01 0.21636653D+05 0.21636653D+05 0.21636653D+05 0.12300830D+01  1  2  4  3  6  5        1 -.407125486266D-02 0.100000000000D+01
  </mgrwgt>
  </event>
  <event>
  6     66 -.44923357E-03 0.64119798E+02 0.75467711E-02 0.11918113E+00
       21 -1    0    0  501  502 0.00000000E+00 0.00000000E+00 0.17179293E+02 0.17195656E+02 0.75000000E+00 0.0000E+00 0.9000E+01
        1 -1    0    0  503    0 0.00000000E+00 0.00000000E+00 -.16066684E+04 0.16066684E+04 0.32000000E+00 0.0000E+00 0.9000E+01
       25  1    1    2    0    0 0.67073102E+02 0.56946327E+02 -.92913382E+03 0.94162431E+03 0.12500000E+03 0.0000E+00 0.9000E+01
       23  1    1    2    0    0 -.11933105E+02 -.18956376E+02 -.26574624E+03 0.28184758E+03 0.91188000E+02 0.0000E+00 0.9000E+01
        1  1    1    2  501    0 -.40760194E+02 -.33374386E+02 -.30498989E+03 0.30950635E+03 0.32000000E+00 0.0000E+00 0.9000E+01
       21  1    1    2  503  502 -.14379804E+02 -.46155645E+01 -.89619149E+02 0.90885844E+02 0.75000000E+00 0.0000E+00 0.9000E+01
#aMCatNLO 2  0  0  2  1 0.15102390D+02 0.00000000D+00  -5  6  0 0.00000000D+00 0.00000000D+00 0.00000000D+00 0.00000000D+00 0.00000000D+00
  <mgrwgt>
 -.3223061207D-01    3    2    0
 0.158259537460824D+03 0.000000000000000D+00 0.000000000000000D+00 0.158259537460824D+03
 0.158259537460824D+03 0.000000000000000D+00 0.000000000000000D+00 -.158259537460824D+03
 0.153805600231968D+03 0.600059070990575D+02 0.546780905584653D+02 -.379573469675584D+02
 0.106598575496446D+03 -.167516927154365D+02 -.205029137053537D+02 0.484460140221032D+02
 0.561148991932338D+02 -.432542143836209D+02 -.341751768531116D+02 -.104886670545448D+02
 0.000000000000000D+00 -.000000000000000D+00 -.000000000000000D+00 -.000000000000000D+00
 0.164492335319850D+03 0.000000000000000D+00 0.000000000000000D+00 0.164492335319850D+03
 0.167860183484211D+03 0.000000000000000D+00 0.000000000000000D+00 -.167860183484211D+03
 0.157504043112844D+03 0.670734536452401D+02 0.569465997595703D+02 -.379573469675584D+02
 0.105659822636024D+03 -.119328695896852D+02 -.189561896013337D+02 0.484460140221032D+02
 0.537153020416125D+02 -.407607803509844D+02 -.333748456478733D+02 -.104886670545448D+02
 0.154733510135813D+02 -.143798037045704D+02 -.461556451036335D+01 -.336784816436162D+01
-.271064525795D-05 0.000000000000D+00 0.000000000000D+00 0.179290001792D-06 0.000000000000D+00  6 21 1 25 23 1 21 4 0.25438972D-02 0.25152597D+00 0.24734546D+05 0.24734546D+05 0.24734546D+05 0.12237950D+01  1  2 13  2  6  2        1 -.336970136938D-01 0.100000000000D+01
-.842100665406D-09 0.000000000000D+00 0.000000000000D+00 0.180673763207D-06 0.000000000000D+00  6 21 1 25 23 1 21 4 0.25438972D-02 0.23303090D+00 0.22369413D+05 0.22369413D+05 0.22369413D+05 0.12285086D+01  1  2  8  2  6  2        1 -.127235259595D-04 0.100000000000D+01
0.121532332140D-06 0.000000000000D+00 0.000000000000D+00 0.180673763207D-06 0.458863847219D-07  6 21 1 25 23 1 21 4 0.26440845D-02 0.24716747D+00 0.24734546D+05 0.24734546D+05 0.24734546D+05 0.12237950D+01  1  2  1  2  6  2        1 0.147912514762D-02 0.100000000000D+01
  </mgrwgt>
  </event>
  <event>
  5     66 0.44923357E-03 0.96590174E+02 0.75467711E-02 0.11533930E+00
       21 -1    0    0  501  502 0.00000000E+00 0.00000000E+00 0.39985797E+02 0.39992830E+02 0.75000000E+00 0.0000E+00 0.9000E+01
        1 -1    0    0  502    0 -.00000000E+00 -.00000000E+00 -.14696256E+04 0.14696257E+04 0.32000000E+00 0.0000E+00 0.9000E+01
       25  1    1    2    0    0 0.15561112E+02 -.67403690E+02 -.83315126E+03 0.84531144E+03 0.12500000E+03 0.0000E+00 0.9000E+01
       23  1    1    2    0    0 -.11064653E+03 0.50421402E+02 -.51803109E+03 0.53986706E+03 0.91188000E+02 0.0000E+00 0.9000E+01
        1  1    1    2  501    0 0.95085420E+02 0.16982288E+02 -.78457477E+02 0.12444000E+03 0.32000000E+00 0.0000E+00 0.9000E+01
#aMCatNLO 1  0  0  5  5 0.10325795D+01 0.00000000D+00  -5  6  0 0.00000000D+00 0.00000000D+00 0.00000000D+00 0.00000000D+00 0.00000000D+00
  <mgrwgt>
 0.6861500111D-02    7    2    0
 0.242424188799964D+03 0.000000000000000D+00 0.000000000000000D+00 0.242424188799964D+03
 0.242424188799964D+03 -.000000000000000D+00 -.000000000000000D+00 -.242424188799964D+03
 0.175295169976120D+03 0.155610394993632D+02 -.674037030125133D+02 -.101577514671589D+03
 0.153440613032731D+03 -.110646595036985D+03 0.504213909828756D+02 -.210661985638963D+02
 0.156112594591078D+03 0.950855555376223D+02 0.169823120296377D+02 0.122643713235486D+03
 0.000000000000000D+00 0.000000000000000D+00 0.000000000000000D+00 0.000000000000000D+00
 0.242424188799964D+03 0.000000000000000D+00 0.000000000000000D+00 0.242424188799964D+03
 0.242424188799964D+03 -.000000000000000D+00 -.000000000000000D+00 -.242424188799964D+03
 0.175187653872227D+03 0.157090521769266D+02 -.673772678987832D+02 -.101386604240666D+03
 0.153331962251230D+03 -.110517041668942D+03 0.504445292577498D+02 -.208990974092663D+02
 0.155196999745978D+03 0.942131403797820D+02 0.159699216346417D+02 0.122290451438025D+03
 0.113176173049333D+01 0.594849112233795D+00 0.962817006391658D+00 -.474978809291204D-02
0.163984555842D-05 0.000000000000D+00 0.000000000000D+00 0.256168194175D-06 0.000000000000D+00  6 21 1 25 23 1 21 2 0.61522048D-02 0.22609679D+00 0.38306863D+05 0.38306863D+05 0.38306863D+05 0.12039124D+01  1  2  2  3  6  5        1 0.381793196586D-02 0.100000000000D+01
-.200186841973D-07 0.865370275885D-07 -.331037572200D-08 0.256168194175D-06 0.000000000000D+00  6 21 1 25 23 1 21 4 0.61522048D-02 0.22609679D+00 0.38306863D+05 0.38306863D+05 0.38306863D+05 0.12039124D+01  1  2  3  3  6  5        1 -.675539169355D-04 0.100000000000D+01
0.165190861456D-06 0.000000000000D+00 0.000000000000D+00 0.256168194175D-06 0.000000000000D+00  6 21 1 25 23 1 21 4 0.61522048D-02 0.22609679D+00 0.38306863D+05 0.38306863D+05 0.38306863D+05 0.12039124D+01  1  2 15  3  6  5        1 0.557443717245D-03 0.100000000000D+01
-.670081157487D-04 0.000000000000D+00 0.000000000000D+00 0.256168194175D-06 0.000000000000D+00  6 21 1 25 23 1 21 4 0.61522048D-02 0.22609679D+00 0.38306863D+05 0.38306863D+05 0.38306863D+05 0.12039124D+01  1  2  4  3  6  5        1 -.226121789059D+00 0.100000000000D+01
-.724308807847D-04 0.000000000000D+00 0.000000000000D+00 0.256168194175D-06 0.000000000000D+00  6 21 1 25 23 1 21 4 0.61522048D-02 0.22609679D+00 0.38306863D+05 0.38306863D+05 0.38306863D+05 0.12039124D+01  1  2  5  3  6  5        1 -.244421144561D+00 0.100000000000D+01
0.729578826871D-04 0.000000000000D+00 -.000000000000D+00 0.256168194175D-06 0.000000000000D+00  6 21 1 25 23 1 21 4 0.61522048D-02 0.22609679D+00 0.38306863D+05 0.38306863D+05 0.38306863D+05 0.12039124D+01  1  2  6  3  6  5        1 0.246199535308D+00 0.100000000000D+01
0.672388170435D-04 0.000000000000D+00 0.000000000000D+00 0.256168194175D-06 0.176737945281D-05  6 21 1 25 23 1 21 4 0.61522048D-02 0.22609679D+00 0.38309951D+05 0.38309951D+05 0.38309951D+05 0.12039088D+01  1  2 11  3  6  5        1 0.226897076657D+00 0.100000000000D+01
  </mgrwgt>
  </event>
  <event>
  5     66 0.44923357E-03 0.34830769E+02 0.75467711E-02 0.12074407E+00
       21 -1    0    0  501  502 0.00000000E+00 0.00000000E+00 0.14556915E+02 0.14576223E+02 0.75000000E+00 0.0000E+00 0.9000E+01
        1 -1    0    0  502    0 0.00000000E+00 0.00000000E+00 -.12885802E+04 0.12885803E+04 0.32000000E+00 0.0000E+00 0.9000E+01
       25  1    1    2    0    0 -.54428913E+02 -.29817591E+02 -.76323127E+03 0.77588567E+03 0.12500000E+03 0.0000E+00 0.9000E+01
       23  1    1    2    0    0 0.20854862E+02 0.20550617E+02 -.36180081E+03 0.37426238E+03 0.91188000E+02 0.0000E+00 0.9000E+01
        1  1    1    2  501    0 0.33574051E+02 0.92669746E+01 -.14899125E+03 0.15300846E+03 0.32000000E+00 0.0000E+00 0.9000E+01
#aMCatNLO 1  0  0  2  1 0.18153287D+02 0.00000000D+00  -5  6  0 0.00000000D+00 0.00000000D+00 0.00000000D+00 0.00000000D+00 0.00000000D+00
  <mgrwgt>
 0.3914287644D-01    9    2    0
 0.137004961556253D+03 0.000000000000000D+00 0.000000000000000D+00 0.137004961556253D+03
 0.137004961556253D+03 0.000000000000000D+00 0.000000000000000D+00 -.137004961556253D+03
 0.141331018810336D+03 -.544296386919856D+02 -.298177916828254D+02 -.223107733838849D+02
 0.977327608197972D+02 0.208543596493600D+02 0.205504781360930D+02 0.194734364058530D+02
 0.349461434823720D+02 0.335752790426256D+02 0.926731354673240D+01 0.283733697803188D+01
 0.000000000000000D+00 0.000000000000000D+00 -.000000000000000D+00 -.000000000000000D+00
 0.138838414893270D+03 0.000000000000000D+00 0.000000000000000D+00 0.138838414893270D+03
 0.191042543980276D+03 0.000000000000000D+00 0.000000000000000D+00 -.191042543980276D+03
 0.144229690320476D+03 -.631742709251132D+02 -.262382250549389D+02 -.223107733838849D+02
 0.971841485206475D+02 0.148854828616950D+02 0.229938046918000D+02 0.194734364058530D+02
 0.331967578365251D+02 0.314885612545033D+02 0.101214998815084D+02 0.283733697803188D+01
 0.552703621958982D+02 0.168002268089149D+02 -.687707951836960D+01 -.522041290870062D+02
0.305662454250D-06 0.000000000000D+00 0.000000000000D+00 0.405590122341D-06 0.000000000000D+00  6 21 1 25 23 1 21 2 0.22410137D-02 0.19824460D+00 0.18246974D+05 0.18246974D+05 0.18246974D+05 0.12382362D+01  1  2  2  2  6  2        1 0.538475238378D-02 0.100000000000D+01
-.183761305824D-08 0.161302508644D-07 -.617044429874D-09 0.405590122341D-06 0.000000000000D+00  6 21 1 25 23 1 21 4 0.22410137D-02 0.19824460D+00 0.18246974D+05 0.18246974D+05 0.18246974D+05 0.12382362D+01  1  2  3  2  6  2        1 -.496346237530D-04 0.100000000000D+01
0.445887266367D-07 0.000000000000D+00 0.000000000000D+00 0.405590122341D-06 0.000000000000D+00  6 21 1 25 23 1 21 4 0.22410137D-02 0.19824460D+00 0.18246974D+05 0.18246974D+05 0.18246974D+05 0.12382362D+01  1  2 15  2  6  2        1 0.120435837148D-02 0.100000000000D+01
0.546452708060D-05 0.000000000000D+00 0.000000000000D+00 0.401380268727D-06 0.000000000000D+00  6 21 1 25 23 1 21 4 0.22410137D-02 0.27736981D+00 0.20870908D+05 0.20870908D+05 0.20870908D+05 0.12317933D+01  1  2 12  2  6  2        1 0.670399377952D-01 0.100000000000D+01
-.429945491878D-05 0.000000000000D+00 0.000000000000D+00 0.405590122341D-06 0.000000000000D+00  6 21 1 25 23 1 21 4 0.22410137D-02 0.19824460D+00 0.18246974D+05 0.18246974D+05 0.18246974D+05 0.12382362D+01  1  2  4  2  6  2        1 -.116129903561D+00 0.100000000000D+01
-.597020105974D-05 0.000000000000D+00 -.408128471836D-06 0.405590122341D-06 0.000000000000D+00  6 21 1 25 23 1 21 4 0.22410137D-02 0.27762275D+00 0.18246974D+05 0.18246974D+05 0.18246974D+05 0.12382362D+01  1  2  5  2  6  2        1 -.747116987495D-01 0.100000000000D+01
0.579785868414D-05 0.000000000000D+00 0.386031234169D-06 0.405590122341D-06 0.000000000000D+00  6 21 1 25 23 1 21 4 0.22410137D-02 0.19824460D+00 0.18246974D+05 0.18246974D+05 0.18246974D+05 0.12382362D+01  1  2  6  2  6  2        1 0.156602356013D+00 0.100000000000D+01
0.229141088809D-06 0.000000000000D+00 0.000000000000D+00 0.401380268727D-06 0.000000000000D+00  6 21 21 25 23 1 -1 4 0.22410137D-02 0.27736981D+00 0.20870908D+05 0.20870908D+05 0.20870908D+05 0.12317933D+01  1  2 12 10  6  2        1 0.259835440957D-02 0.100000000000D+01
-.239928590512D-06 0.000000000000D+00 -.171472833808D-07 0.405590122341D-06 0.000000000000D+00  6 21 21 25 23 1 -1 4 0.22410137D-02 0.27762275D+00 0.18246974D+05 0.18246974D+05 0.18246974D+05 0.12382362D+01  1  2  5 10  6  2        1 -.279564559652D-02 0.100000000000D+01
  </mgrwgt>
  </event>
  <event>
  5     66 0.44923357E-03 0.27034591E+02 0.75467711E-02 0.11831847E+00
       21 -1    0    0  501  502 0.00000000E+00 0.00000000E+00 0.19534636E+03 0.19534780E+03 0.75000000E+00 0.0000E+00 0.9000E+01
        3 -1    0    0  502    0 0.00000000E+00 0.00000000E+00 -.16451055E+03 0.16451131E+03 0.50000000E+00 0.0000E+00 0.9000E+01
       25  1    1    2    0    0 -.73317310E+02 -.26700954E+02 -.11204588E+02 0.14777994E+03 0.12500000E+03 0.0000E+00 0.9000E+01
       23  1    1    2    0    0 0.60836479E+02 0.50681673E+02 -.38791090E+02 0.12684522E+03 0.91188000E+02 0.0000E+00 0.9000E+01
        3  1    1    2  501    0 0.12480830E+02 -.23980719E+02 0.80831488E+02 0.85233946E+02 0.50000000E+00 0.0000E+00 0.9000E+01
#aMCatNLO 1  0  0  1  1 0.38196408D+02 0.00000000D+00  -5  6  0 0.00000000D+00 0.00000000D+00 0.00000000D+00 0.00000000D+00 0.00000000D+00
  <mgrwgt>
 0.6785275819D-02   14    2    0
 0.179267767223458D+03 0.000000000000000D+00 0.000000000000000D+00 0.179267767223458D+03
 0.179267767223458D+03 0.000000000000000D+00 0.000000000000000D+00 -.179267767223458D+03
 0.149289253497279D+03 -.733174148658439D+02 -.267007520600904D+02 -.239563713151679D+02
 0.130649937053344D+03 0.608363873035946D+02 0.506818500871156D+02 -.498441446875863D+02
 0.785963438962920D+02 0.124810275622493D+02 -.239810980270252D+02 0.738005160027542D+02
 0.000000000000000D+00 0.000000000000000D+00 -.000000000000000D+00 0.000000000000000D+00
 0.210309107718347D+03 0.000000000000000D+00 0.000000000000000D+00 0.210309107718347D+03
 0.192429360043046D+03 0.000000000000000D+00 0.000000000000000D+00 -.192429360043046D+03
 0.150162589316715D+03 -.788116292827329D+02 -.117738096430674D+02 -.239563713151679D+02
 0.134217570106832D+03 0.559767114948576D+02 0.638848479059544D+02 -.498441446875863D+02
 0.761842524059482D+02 0.964117933935274D+01 -.162656636300790D+02 0.738005160027542D+02
 0.421740559318974D+02 0.131937384485225D+02 -.358453746328080D+02 0.178797476753010D+02
0.153208045985D-05 0.000000000000D+00 0.000000000000D+00 0.153778546639D-05 0.000000000000D+00  6 21 3 25 23 3 21 2 0.30053455D-01 0.25309484D-01 0.21779475D+05 0.21779475D+05 0.21779475D+05 0.12297715D+01  1  2  2  1  6  1       21 0.176532657227D-02 0.100000000000D+01
0.213325044268D-06 0.808501070978D-07 -.309282903650D-08 0.153778546639D-05 0.000000000000D+00  6 21 3 25 23 3 21 4 0.30053455D-01 0.25309484D-01 0.21779475D+05 0.21779475D+05 0.21779475D+05 0.12297715D+01  1  2  3  1  6  1       21 0.371735589762D-03 0.100000000000D+01
0.150161676885D-06 0.000000000000D+00 0.000000000000D+00 0.153778546639D-05 0.000000000000D+00  6 21 3 25 23 3 21 4 0.30053455D-01 0.25309484D-01 0.21779475D+05 0.21779475D+05 0.21779475D+05 0.12297715D+01  1  2 15  1  6  1       21 0.261668477360D-03 0.100000000000D+01
-.238245549193D-06 0.000000000000D+00 0.000000000000D+00 0.153778546639D-05 0.000000000000D+00  6 21 3 25 23 3 21 4 0.30053455D-01 0.25309484D-01 0.21779475D+05 0.21779475D+05 0.21779475D+05 0.12297715D+01  1  2  4  1  6  1       21 -.415161520492D-03 0.100000000000D+01
-.862953378937D-05 0.000000000000D+00 -.249353730567D-05 0.153778546639D-05 0.000000000000D+00  6 21 3 25 23 3 21 4 0.37572438D-01 0.25309484D-01 0.21779475D+05 0.21779475D+05 0.21779475D+05 0.12297715D+01  1  2  5  1  6  1       21 -.970328040730D-02 0.100000000000D+01
0.851737776097D-05 0.000000000000D+00 0.226142181642D-05 0.153778546639D-05 0.000000000000D+00  6 21 3 25 23 3 21 4 0.30053455D-01 0.25309484D-01 0.21779475D+05 0.21779475D+05 0.21779475D+05 0.12297715D+01  1  2  6  1  6  1       21 0.148421975304D-01 0.100000000000D+01
-.387413028592D-06 0.000000000000D+00 -.163479032354D-06 0.153778546639D-05 0.000000000000D+00  6 -3 3 25 23 3 -3 4 0.37572438D-01 0.25309484D-01 0.21779475D+05 0.21779475D+05 0.21779475D+05 0.12297715D+01  1  2  5  4  6  1       21 -.215165969390D-04 0.100000000000D+01
-.387413028592D-06 0.000000000000D+00 -.163479032354D-06 0.153778546639D-05 0.000000000000D+00  6 3 3 25 23 3 3 4 0.37572438D-01 0.25309484D-01 0.21779475D+05 0.21779475D+05 0.21779475D+05 0.12297715D+01  1  2  5  5  6  1       21 -.215197819464D-04 0.100000000000D+01
-.387413028592D-06 0.000000000000D+00 -.163479032354D-06 0.153778546639D-05 0.000000000000D+00  6 -2 3 25 23 3 -2 4 0.37572438D-01 0.25309484D-01 0.21779475D+05 0.21779475D+05 0.21779475D+05 0.12297715D+01  1  2  5  6  6  1       21 -.340775321478D-04 0.100000000000D+01
-.387413028592D-06 0.000000000000D+00 -.163479032354D-06 0.153778546639D-05 0.000000000000D+00  6 -4 3 25 23 3 -4 4 0.37572438D-01 0.25309484D-01 0.21779475D+05 0.21779475D+05 0.21779475D+05 0.12297715D+01  1  2  5  6  6  1       21 -.179021302721D-04 0.100000000000D+01
-.387413028592D-06 0.000000000000D+00 -.163479032354D-06 0.153778546639D-05 0.000000000000D+00  6 2 3 25 23 3 2 4 0.37572438D-01 0.25309484D-01 0.21779475D+05 0.21779475D+05 0.21779475D+05 0.12297715D+01  1  2  5  7  6  1       21 -.106345416728D-03 0.100000000000D+01
-.387413028592D-06 0.000000000000D+00 -.163479032354D-06 0.153778546639D-05 0.000000000000D+00  6 4 3 25 23 3 4 4 0.37572438D-01 0.25309484D-01 0.21779475D+05 0.21779475D+05 0.21779475D+05 0.12297715D+01  1  2  5  7  6  1       21 -.179021302721D-04 0.100000000000D+01
-.387413028592D-06 0.000000000000D+00 -.163479032354D-06 0.153778546639D-05 0.000000000000D+00  6 -1 3 25 23 3 -1 4 0.37572438D-01 0.25309484D-01 0.21779475D+05 0.21779475D+05 0.21779475D+05 0.12297715D+01  1  2  5  8  6  1       21 -.399545952714D-04 0.100000000000D+01
-.387413028592D-06 0.000000000000D+00 -.163479032354D-06 0.153778546639D-05 0.000000000000D+00  6 1 3 25 23 3 1 4 0.37572438D-01 0.25309484D-01 0.21779475D+05 0.21779475D+05 0.21779475D+05 0.12297715D+01  1  2  5  9  6  1       21 -.779922390609D-04 0.100000000000D+01
  </mgrwgt>
  </event>
  <event>
  5     66 0.44923357E-03 0.44999744E+02 0.75467711E-02 0.11340280E+00
       21 -1    0    0  501  502 0.00000000E+00 0.00000000E+00 0.51751319E+02 0.51756753E+02 0.75000000E+00 0.0000E+00 0.9000E+01
        1 -1    0    0  502    0 0.00000000E+00 0.00000000E+00 -.11762662E+04 0.11762662E+04 0.32000000E+00 0.0000E+00 0.9000E+01
       25  1    1    2    0    0 -.61202383E+02 -.15375148E+03 -.63964090E+03 0.67242154E+03 0.12500000E+03 0.0000E+00 0.9000E+01
       23  1    1    2    0    0 0.61390541E+02 0.10875226E+03 -.48658877E+03 0.51056805E+03 0.91188000E+02 0.0000E+00 0.9000E+01
        1  1    1    2  501    0 -.18815782E+00 0.44999219E+02 0.17147832E+01 0.45033410E+02 0.32000000E+00 0.0000E+00 0.9000E+01
#aMCatNLO 1  0  0  1  2 0.35007216D+02 0.00000000D+00  -5  6  0 0.00000000D+00 0.00000000D+00 0.00000000D+00 0.00000000D+00 0.00000000D+00
  <mgrwgt>
 0.4380191562D-01   23    2    0
 0.246732021989332D+03 0.000000000000000D+00 0.000000000000000D+00 0.246732021989332D+03
 0.246732021989332D+03 0.000000000000000D+00 0.000000000000000D+00 -.246732021989332D+03
 0.215747139082582D+03 -.612023828599075D+02 -.153751550935711D+03 -.594689577801060D+02
 0.161740244968440D+03 0.613905412321091D+02 0.108752200433338D+03 -.474216811868466D+02
 0.115976659927642D+03 -.188158372201538D+00 0.449993505023729D+02 0.106890638966953D+03
 0.000000000000000D+00 -.000000000000000D+00 0.000000000000000D+00 0.000000000000000D+00
 0.295610785419913D+03 0.000000000000000D+00 0.000000000000000D+00 0.295610785419913D+03
 0.253700737780135D+03 0.000000000000000D+00 0.000000000000000D+00 -.253700737780135D+03
 0.221913618784368D+03 -.513048408001564D+02 -.165686180995859D+03 -.594689577801060D+02
 0.158988261826547D+03 0.686437021077515D+02 0.100006211651987D+03 -.474216811868466D+02
 0.113802342013809D+03 0.500821186498229D+01 0.387334759991921D+02 0.106890638966953D+03
 0.546073005753247D+02 -.223470731725773D+02 0.269464933446799D+02 0.419100476397779D+02
0.240520757610D-05 0.000000000000D+00 0.000000000000D+00 0.469647525333D-06 0.000000000000D+00  6 21 1 25 23 1 21 2 0.79621627D-02 0.18096445D+00 0.41416531D+05 0.41416531D+05 0.41416531D+05 0.12004685D+01  1  2  2  1  6  1       21 0.561719186803D-02 0.100000000000D+01
0.253960899137D-06 0.126926290894D-06 -.485542112514D-08 0.469647525333D-06 0.000000000000D+00  6 21 1 25 23 1 21 4 0.79621627D-02 0.18096445D+00 0.41416531D+05 0.41416531D+05 0.41416531D+05 0.12004685D+01  1  2  3  1  6  1       21 0.854742069430D-03 0.100000000000D+01
0.220753660900D-06 0.000000000000D+00 0.000000000000D+00 0.469647525333D-06 0.000000000000D+00  6 21 1 25 23 1 21 4 0.79621627D-02 0.18096445D+00 0.41416531D+05 0.41416531D+05 0.41416531D+05 0.12004685D+01  1  2 15  1  6  1       21 0.742978315137D-03 0.100000000000D+01
0.820182246096D-05 0.000000000000D+00 0.000000000000D+00 0.464412777405D-06 0.000000000000D+00  6 21 1 25 23 1 21 4 0.96367760D-02 0.18096445D+00 0.48314517D+05 0.48314517D+05 0.48314517D+05 0.11937595D+01  1  2 12  1  6  1       21 0.192257459909D-01 0.100000000000D+01
-.987395595321D-06 0.000000000000D+00 0.000000000000D+00 0.469647525333D-06 0.000000000000D+00  6 21 1 25 23 1 21 4 0.79621627D-02 0.18096445D+00 0.41416531D+05 0.41416531D+05 0.41416531D+05 0.12004685D+01  1  2  4  1  6  1       21 -.332322242265D-02 0.100000000000D+01
-.243718460081D-04 0.000000000000D+00 -.421351102615D-05 0.469647525333D-06 0.000000000000D+00  6 21 1 25 23 1 21 4 0.98025926D-02 0.18096445D+00 0.41416531D+05 0.41416531D+05 0.41416531D+05 0.12004685D+01  1  2  5  1  6  1       21 -.569554221716D-01 0.100000000000D+01
0.233334499987D-04 0.000000000000D+00 0.387029791834D-05 0.469647525333D-06 0.000000000000D+00  6 21 1 25 23 1 21 4 0.79621627D-02 0.18096445D+00 0.41416531D+05 0.41416531D+05 0.41416531D+05 0.12004685D+01  1  2  6  1  6  1       21 0.785320945334D-01 0.100000000000D+01
0.444860007077D-06 0.000000000000D+00 0.000000000000D+00 0.464412777405D-06 0.000000000000D+00  6 -1 1 25 23 1 -1 4 0.96367760D-02 0.18096445D+00 0.48314517D+05 0.48314517D+05 0.48314517D+05 0.11937595D+01  1  2 12  4  6  1       21 0.698149575493D-04 0.100000000000D+01
-.124472221788D-05 0.000000000000D+00 -.253381664601D-06 0.469647525333D-06 0.000000000000D+00  6 -1 1 25 23 1 -1 4 0.98025926D-02 0.18096445D+00 0.41416531D+05 0.41416531D+05 0.41416531D+05 0.12004685D+01  1  2  5  4  6  1       21 -.194841963903D-03 0.100000000000D+01
0.444860007077D-06 0.000000000000D+00 0.000000000000D+00 0.464412777405D-06 0.000000000000D+00  6 1 1 25 23 1 1 4 0.96367760D-02 0.18096445D+00 0.48314517D+05 0.48314517D+05 0.48314517D+05 0.11937595D+01  1  2 12  5  6  1       21 0.867472944375D-04 0.100000000000D+01
-.124472221788D-05 0.000000000000D+00 -.253381664601D-06 0.469647525333D-06 0.000000000000D+00  6 1 1 25 23 1 1 4 0.98025926D-02 0.18096445D+00 0.41416531D+05 0.41416531D+05 0.41416531D+05 0.12004685D+01  1  2  5  5  6  1       21 -.242958340166D-03 0.100000000000D+01
0.444860007077D-06 0.000000000000D+00 0.000000000000D+00 0.464412777405D-06 0.000000000000D+00  6 -2 1 25 23 1 -2 4 0.96367760D-02 0.18096445D+00 0.48314517D+05 0.48314517D+05 0.48314517D+05 0.11937595D+01  1  2 12  6  6  1       21 0.668821429862D-04 0.100000000000D+01
0.444860007077D-06 0.000000000000D+00 0.000000000000D+00 0.464412777405D-06 0.000000000000D+00  6 -4 1 25 23 1 -4 4 0.96367760D-02 0.18096445D+00 0.48314517D+05 0.48314517D+05 0.48314517D+05 0.11937595D+01  1  2 12  6  6  1       21 0.414733584986D-04 0.100000000000D+01
-.124472221788D-05 0.000000000000D+00 -.253381664601D-06 0.469647525333D-06 0.000000000000D+00  6 -2 1 25 23 1 -2 4 0.98025926D-02 0.18096445D+00 0.41416531D+05 0.41416531D+05 0.41416531D+05 0.12004685D+01  1  2  5  6  6  1       21 -.186504910076D-03 0.100000000000D+01
-.124472221788D-05 0.000000000000D+00 -.253381664601D-06 0.469647525333D-06 0.000000000000D+00  6 -4 1 25 23 1 -4 4 0.98025926D-02 0.18096445D+00 0.41416531D+05 0.41416531D+05 0.41416531D+05 0.12004685D+01  1  2  5  6  6  1       21 -.114923374263D-03 0.100000000000D+01
0.444860007077D-06 0.000000000000D+00 0.000000000000D+00 0.464412777405D-06 0.000000000000D+00  6 2 1 25 23 1 2 4 0.96367760D-02 0.18096445D+00 0.48314517D+05 0.48314517D+05 0.48314517D+05 0.11937595D+01  1  2 12  7  6  1       21 0.982478348005D-04 0.100000000000D+01
0.444860007077D-06 0.000000000000D+00 0.000000000000D+00 0.464412777405D-06 0.000000000000D+00  6 4 1 25 23 1 4 4 0.96367760D-02 0.18096445D+00 0.48314517D+05 0.48314517D+05 0.48314517D+05 0.11937595D+01  1  2 12  7  6  1       21 0.414733584986D-04 0.100000000000D+01
-.124472221788D-05 0.000000000000D+00 -.253381664601D-06 0.469647525333D-06 0.000000000000D+00  6 2 1 25 23 1 2 4 0.98025926D-02 0.18096445D+00 0.41416531D+05 0.41416531D+05 0.41416531D+05 0.12004685D+01  1  2  5  7  6  1       21 -.275625968299D-03 0.100000000000D+01
-.124472221788D-05 0.000000000000D+00 -.253381664601D-06 0.469647525333D-06 0.000000000000D+00  6 4 1 25 23 1 4 4 0.98025926D-02 0.18096445D+00 0.41416531D+05 0.41416531D+05 0.41416531D+05 0.12004685D+01  1  2  5  7  6  1       21 -.114923374263D-03 0.100000000000D+01
0.444860007077D-06 0.000000000000D+00 0.000000000000D+00 0.464412777405D-06 0.000000000000D+00  6 -3 1 25 23 1 -3 4 0.96367760D-02 0.18096445D+00 0.48314517D+05 0.48314517D+05 0.48314517D+05 0.11937595D+01  1  2 12  8  6  1       21 0.470266315253D-04 0.100000000000D+01
-.124472221788D-05 0.000000000000D+00 -.253381664601D-06 0.469647525333D-06 0.000000000000D+00  6 -3 1 25 23 1 -3 4 0.98025926D-02 0.18096445D+00 0.41416531D+05 0.41416531D+05 0.41416531D+05 0.12004685D+01  1  2  5  8  6  1       21 -.130558388806D-03 0.100000000000D+01
0.444860007077D-06 0.000000000000D+00 0.000000000000D+00 0.464412777405D-06 0.000000000000D+00  6 3 1 25 23 1 3 4 0.96367760D-02 0.18096445D+00 0.48314517D+05 0.48314517D+05 0.48314517D+05 0.11937595D+01  1  2 12  9  6  1       21 0.470211769274D-04 0.100000000000D+01
-.124472221788D-05 0.000000000000D+00 -.253381664601D-06 0.469647525333D-06 0.000000000000D+00  6 3 1 25 23 1 3 4 0.98025926D-02 0.18096445D+00 0.41416531D+05 0.41416531D+05 0.41416531D+05 0.12004685D+01  1  2  5  9  6  1       21 -.130542995331D-03 0.100000000000D+01
  </mgrwgt>
  </event>
  <event>
  5     66 0.44923357E-03 0.71127121E+02 0.75467711E-02 0.11425950E+00
       21 -1    0    0  501  502 0.00000000E+00 0.00000000E+00 0.15581663E+03 0.15581843E+03 0.75000000E+00 0.0000E+00 0.9000E+01
        1 -1    0    0  502    0 0.00000000E+00 0.00000000E+00 -.21355117E+03 0.21355141E+03 0.32000000E+00 0.0000E+00 0.9000E+01
       25  1    1    2    0    0 0.46065688E+02 -.51596952E+02 -.18471649E+02 0.14405032E+03 0.12500000E+03 0.0000E+00 0.9000E+01
       23  1    1    2    0    0 -.11360425E+03 0.29291528E+02 -.11742834E+02 0.14905390E+03 0.91188000E+02 0.0000E+00 0.9000E+01
        1  1    1    2  501    0 0.67538561E+02 0.22305423E+02 -.27520060E+02 0.76265623E+02 0.32000000E+00 0.0000E+00 0.9000E+01
#aMCatNLO 1  0  0  2  1 0.51233676D+02 0.00000000D+00  -5  6  0 0.00000000D+00 0.00000000D+00 0.00000000D+00 0.00000000D+00 0.00000000D+00
  <mgrwgt>
 0.2352871577D-01    9    2    0
 0.182414913799967D+03 0.000000000000000D+00 0.000000000000000D+00 0.182414913799967D+03
 0.182414913799967D+03 0.000000000000000D+00 0.000000000000000D+00 -.182414913799967D+03
 0.142919711643928D+03 0.460654329757054D+02 -.515970360808897D+02 0.409459751521938D+01
 0.149050634659400D+03 -.113604515752080D+03 0.292914405585046D+02 0.116989682926743D+02
 0.728594812966057D+02 0.675390827763742D+02 0.223055955223851D+02 -.157935658078937D+02
 0.000000000000000D+00 -.000000000000000D+00 0.000000000000000D+00 -.000000000000000D+00
 0.205079859652144D+03 0.000000000000000D+00 0.000000000000000D+00 0.205079859652144D+03
 0.215640613776387D+03 0.000000000000000D+00 0.000000000000000D+00 -.215640613776387D+03
 0.153620021724678D+03 0.548021168465337D+02 -.703851783759750D+02 0.409459751521938D+01
 0.140056379643116D+03 -.105086815408495D+03 0.109742199232817D+02 0.116989682926743D+02
 0.747332790723367D+02 0.718874757364620D+02 0.129544244262365D+02 -.157935658078937D+02
 0.523107929883994D+02 -.216027771745003D+02 0.464565340264568D+02 -.105607541242435D+02
0.159735284691D-05 0.000000000000D+00 0.000000000000D+00 0.114150572802D-06 0.000000000000D+00  6 21 1 25 23 1 21 2 0.23971946D-01 0.32854184D-01 0.32865877D+05 0.32865877D+05 0.32865877D+05 0.12107616D+01  1  2  2  2  6  2        1 0.563357439891D-02 0.100000000000D+01
-.108164659439D-06 0.842946255953D-07 -.322459518015D-08 0.114150572802D-06 0.000000000000D+00  6 21 1 25 23 1 21 4 0.23971946D-01 0.32854184D-01 0.32865877D+05 0.32865877D+05 0.32865877D+05 0.12107616D+01  1  2  3  2  6  2        1 -.559224034010D-03 0.100000000000D+01
0.188352726251D-06 0.000000000000D+00 0.000000000000D+00 0.114150572802D-06 0.000000000000D+00  6 21 1 25 23 1 21 4 0.23971946D-01 0.32854184D-01 0.32865877D+05 0.32865877D+05 0.32865877D+05 0.12107616D+01  1  2 15  2  6  2        1 0.973805787748D-03 0.100000000000D+01
0.397529886233D-05 0.000000000000D+00 0.000000000000D+00 0.111805462484D-06 0.000000000000D+00  6 21 1 25 23 1 21 4 0.23971946D-01 0.40567828D-01 0.43558070D+05 0.43558070D+05 0.43558070D+05 0.11982601D+01  1  2 12  2  6  2        1 0.151012810015D-01 0.100000000000D+01
-.225450617675D-05 0.000000000000D+00 0.000000000000D+00 0.114150572802D-06 0.000000000000D+00  6 21 1 25 23 1 21 4 0.23971946D-01 0.32854184D-01 0.32865877D+05 0.32865877D+05 0.32865877D+05 0.12107616D+01  1  2  4  2  6  2        1 -.116560625754D-01 0.100000000000D+01
-.920164922401D-05 0.000000000000D+00 -.301122114996D-05 0.114150572802D-06 0.000000000000D+00  6 21 1 25 23 1 21 4 0.23971946D-01 0.43218093D-01 0.32865877D+05 0.32865877D+05 0.32865877D+05 0.12107616D+01  1  2  5  2  6  2        1 -.337877513046D-01 0.100000000000D+01
0.976756717012D-05 0.000000000000D+00 0.290147731081D-05 0.114150572802D-06 0.000000000000D+00  6 21 1 25 23 1 21 4 0.23971946D-01 0.32854184D-01 0.32865877D+05 0.32865877D+05 0.32865877D+05 0.12107616D+01  1  2  6  2  6  2        1 0.504994731522D-01 0.100000000000D+01
0.118460578227D-06 0.000000000000D+00 0.000000000000D+00 0.111805462484D-06 0.000000000000D+00  6 21 21 25 23 1 -1 4 0.23971946D-01 0.40567828D-01 0.43558070D+05 0.43558070D+05 0.43558070D+05 0.11982601D+01  1  2 12 10  6  2        1 0.233064221021D-02 0.100000000000D+01
-.274619934299D-06 0.000000000000D+00 -.109044221362D-06 0.114150572802D-06 0.000000000000D+00  6 21 21 25 23 1 -1 4 0.23971946D-01 0.43218093D-01 0.32865877D+05 0.32865877D+05 0.32865877D+05 0.12107616D+01  1  2  5 10  6  2        1 -.500702287080D-02 0.100000000000D+01
  </mgrwgt>
  </event>
  <event>
  5     66 0.44923357E-03 0.28312256E+02 0.75467711E-02 0.11253440E+00
       21 -1    0    0  501  502 0.00000000E+00 0.00000000E+00 0.75971354E+02 0.75975056E+02 0.75000000E+00 0.0000E+00 0.9000E+01
        1 -1    0    0  502    0 0.00000000E+00 0.00000000E+00 -.11898765E+04 0.11898765E+04 0.32000000E+00 0.0000E+00 0.9000E+01
       25  1    1    2    0    0 0.72298351E+02 -.17079200E+03 -.42169571E+03 0.47733556E+03 0.12500000E+03 0.0000E+00 0.9000E+01
       23  1    1    2    0    0 -.79586979E+02 0.14343406E+03 -.72283822E+03 0.74680504E+03 0.91188000E+02 0.0000E+00 0.9000E+01
        1  1    1    2  501    0 0.72886286E+01 0.27357937E+02 0.30628803E+02 0.41710992E+02 0.32000000E+00 0.0000E+00 0.9000E+01
#aMCatNLO 1  0  0  2  1 0.19362371D+02 0.00000000D+00  -5  6  0 0.00000000D+00 0.00000000D+00 0.00000000D+00 0.00000000D+00 0.00000000D+00
  <mgrwgt>
 0.1606361372D+00    9    2    0
 0.300664095971404D+03 0.000000000000000D+00 0.000000000000000D+00 0.300664095971404D+03
 0.300664095971404D+03 0.000000000000000D+00 0.000000000000000D+00 -.300664095971404D+03
 0.223683115666878D+03 0.722983440260706D+02 -.170792025537939D+03 -.348850944929532D+01
 0.233102618213429D+03 -.795869862110466D+02 0.143434037122880D+03 -.138253997752075D+03
 0.144542458062501D+03 0.728864218497593D+01 0.273579884150589D+02 0.141742507201371D+03
 0.000000000000000D+00 -.000000000000000D+00 -.000000000000000D+00 -.000000000000000D+00
 0.309482216920123D+03 0.000000000000000D+00 0.000000000000000D+00 0.309482216920123D+03
 0.311639838019359D+03 0.000000000000000D+00 0.000000000000000D+00 -.311639838019359D+03
 0.219848131609874D+03 0.753868824998645D+02 -.164355861535651D+03 -.348850944929532D+01
 0.236278603157476D+03 -.763184409394756D+02 0.150245314882645D+03 -.138253997752075D+03
 0.145513104202354D+03 0.930844973876918D+01 0.315670383522945D+02 0.141742507201371D+03
 0.194822159697783D+02 -.837689129915814D+01 -.174564916992878D+02 -.215762109923599D+01
0.118474947061D-04 0.000000000000D+00 0.000000000000D+00 0.107300225823D-05 0.000000000000D+00  6 21 1 25 23 1 21 2 0.11688189D-01 0.18305821D+00 0.48321972D+05 0.48321972D+05 0.48321972D+05 0.11937528D+01  1  2  2  2  6  2        1 0.135243823914D-01 0.100000000000D+01
0.304538773407D-05 0.625209472302D-06 -.239166783971D-07 0.107300225823D-05 0.000000000000D+00  6 21 1 25 23 1 21 4 0.11688189D-01 0.18305821D+00 0.48321972D+05 0.48321972D+05 0.48321972D+05 0.11937528D+01  1  2  3  2  6  2        1 0.495407202350D-02 0.100000000000D+01
0.925024224061D-06 0.000000000000D+00 0.000000000000D+00 0.107300225823D-05 0.000000000000D+00  6 21 1 25 23 1 21 4 0.11688189D-01 0.18305821D+00 0.48321972D+05 0.48321972D+05 0.48321972D+05 0.11937528D+01  1  2 15  2  6  2        1 0.150477936790D-02 0.100000000000D+01
0.854681091855D-04 0.000000000000D+00 0.000000000000D+00 0.106479740932D-05 0.000000000000D+00  6 21 1 25 23 1 21 4 0.11688189D-01 0.19233743D+00 0.53754684D+05 0.53754684D+05 0.53754684D+05 0.11891799D+01  1  2 12  2  6  2        1 0.123877184316D+00 0.100000000000D+01
-.364361763367D-04 0.000000000000D+00 0.000000000000D+00 0.107300225823D-05 0.000000000000D+00  6 21 1 25 23 1 21 4 0.11688189D-01 0.18305821D+00 0.48321972D+05 0.48321972D+05 0.48321972D+05 0.11937528D+01  1  2  4  2  6  2        1 -.592724006252D-01 0.100000000000D+01
-.458030385651D-03 0.000000000000D+00 -.817362974863D-04 0.107300225823D-05 0.000000000000D+00  6 21 1 25 23 1 21 4 0.11688189D-01 0.19338747D+00 0.48321972D+05 0.48321972D+05 0.48321972D+05 0.11937528D+01  1  2  5  2  6  2        1 -.669488640442D+00 0.100000000000D+01
0.461943894472D-03 0.000000000000D+00 0.816133124810D-04 0.107300225823D-05 0.000000000000D+00  6 21 1 25 23 1 21 4 0.11688189D-01 0.18305821D+00 0.48321972D+05 0.48321972D+05 0.48321972D+05 0.11937528D+01  1  2  6  2  6  2        1 0.751465338362D+00 0.100000000000D+01
0.997384545735D-06 0.000000000000D+00 0.000000000000D+00 0.106479740932D-05 0.000000000000D+00  6 21 21 25 23 1 -1 4 0.11688189D-01 0.19233743D+00 0.53754684D+05 0.53754684D+05 0.53754684D+05 0.11891799D+01  1  2 12 10  6  2        1 0.179079215283D-02 0.100000000000D+01
-.426320265984D-05 0.000000000000D+00 -.776148314501D-06 0.107300225823D-05 0.000000000000D+00  6 21 21 25 23 1 -1 4 0.11688189D-01 0.19338747D+00 0.48321972D+05 0.48321972D+05 0.48321972D+05 0.11937528D+01  1  2  5 10  6  2        1 -.771937031961D-02 0.100000000000D+01
  </mgrwgt>
  </event>
  <event>
  6     66 -.44923357E-03 0.15737389E+03 0.75467711E-02 0.10692318E+00
       21 -1    0    0  501  502 0.00000000E+00 0.00000000E+00 0.31153950E+03 0.31154040E+03 0.75000000E+00 0.0000E+00 0.9000E+01
        1 -1    0    0  503    0 0.00000000E+00 0.00000000E+00 -.41062366E+03 0.41062378E+03 0.32000000E+00 0.0000E+00 0.9000E+01
       25  1    1    2    0    0 0.70309009E+01 0.24549086E+03 -.15732897E+03 0.31732098E+03 0.12500000E+03 0.0000E+00 0.9000E+01
       23  1    1    2    0    0 -.22739029E+02 -.73031208E+02 0.41353664E+02 0.12599999E+03 0.91188000E+02 0.0000E+00 0.9000E+01
        1  1    1    2  501    0 0.93519115E+02 -.17256802E+03 0.33915188E+02 0.19918807E+03 0.32000000E+00 0.0000E+00 0.9000E+01
       21  1    1    2  503  502 -.77810986E+02 0.10836360E+00 -.17024043E+02 0.79655143E+02 0.75000000E+00 0.0000E+00 0.9000E+01
#aMCatNLO 2  0  0  2  1 0.77811062D+02 0.00000000D+00  -5  6  0 0.00000000D+00 0.00000000D+00 0.00000000D+00 0.00000000D+00 0.00000000D+00
  <mgrwgt>
 -.5707315131D-02    2    2    0
 0.316239402488761D+03 0.000000000000000D+00 0.000000000000000D+00 0.316239402488761D+03
 0.316239402488761D+03 0.000000000000000D+00 0.000000000000000D+00 -.316239402488761D+03
 0.301117996653782D+03 -.297871558242554D+02 0.245542245874704D+03 -.117765779186888D+03
 0.136148489257477D+03 -.391940556589223D+02 -.730082417779214D+02 0.579204835666556D+02
 0.195212319066263D+03 0.689812114831777D+02 -.172534004096783D+03 0.598452956202325D+02
 0.000000000000000D+00 -.000000000000000D+00 0.000000000000000D+00 -.000000000000000D+00
 0.354228536771819D+03 0.000000000000000D+00 0.000000000000000D+00 0.354228536771819D+03
 0.361135696868510D+03 0.000000000000000D+00 0.000000000000000D+00 -.361135696868510D+03
 0.299681545669636D+03 0.703086994063674D+01 0.245490971189014D+03 -.117765779186888D+03
 0.132365585806751D+03 -.227390528875835D+02 -.730311578652890D+02 0.579204835666556D+02
 0.205200073361790D+03 0.935191692252662D+02 -.172568176925026D+03 0.598452956202325D+02
 0.781170288021518D+02 -.778109862783194D+02 0.108363601300277D+00 -.690716009669048D+01
-.221964410932D-04 0.000000000000D+00 0.000000000000D+00 0.332606043723D-07 0.000000000000D+00  6 21 1 25 23 1 21 4 0.42788860D-01 0.66074551D-01 0.11178441D+06 0.11178441D+06 0.11178441D+06 0.11591532D+01  1  2 13  2  6  2        1 -.122923146335D-01 0.100000000000D+01
0.142027498781D-04 0.000000000000D+00 0.000000000000D+00 0.338678134542D-07 0.519827313021D-10  6 21 1 25 23 1 21 4 0.47928991D-01 0.63172631D-01 0.11178441D+06 0.11178441D+06 0.11178441D+06 0.11591532D+01  1  2  1  2  6  2        1 0.658499950219D-02 0.100000000000D+01
  </mgrwgt>
  </event>
  <event>
  5     66 -.44923357E-03 0.11530711E+03 0.75467711E-02 0.11624132E+00
       21 -1    0    0  501  502 0.00000000E+00 0.00000000E+00 0.20693985E+03 0.20694121E+03 0.75000000E+00 0.0000E+00 0.9000E+01
        1 -1    0    0  502    0 0.00000000E+00 0.00000000E+00 -.18235187E+03 0.18235215E+03 0.32000000E+00 0.0000E+00 0.9000E+01
       25  1    1    2    0    0 -.24670164E+02 -.73816946E+00 0.63001608E+02 0.14213854E+03 0.12500000E+03 0.0000E+00 0.9000E+01
       23  1    1    2    0    0 -.89846980E+02 -.12733444E+02 -.25221609E+02 0.13109539E+03 0.91188000E+02 0.0000E+00 0.9000E+01
        1  1    1    2  501    0 0.11451714E+03 0.13471613E+02 -.13192022E+02 0.11605943E+03 0.32000000E+00 0.0000E+00 0.9000E+01
#aMCatNLO 1  0  0  5  1 0.14640032D+02 0.00000000D+00  -5  6  0 0.00000000D+00 0.00000000D+00 0.00000000D+00 0.00000000D+00 0.00000000D+00
  <mgrwgt>
 -.1938959100D-02    1    2    0
 0.194258046660294D+03 0.000000000000000D+00 0.000000000000000D+00 0.194258046660294D+03
 0.194258046660294D+03 -.000000000000000D+00 -.000000000000000D+00 -.194258046660294D+03
 0.138435765924040D+03 -.246703161326891D+02 -.738187372077203D+00 0.541321703637730D+02
 0.132953952330100D+03 -.898471258846631D+02 -.127334611151902D+02 -.335686614938391D+02
 0.117126375066447D+03 0.114517442017352D+03 0.134716484872674D+02 -.205635088699339D+02
 0.000000000000000D+00 0.000000000000000D+00 -.000000000000000D+00 0.000000000000000D+00
 0.194258046660294D+03 0.000000000000000D+00 0.000000000000000D+00 0.194258046660294D+03
 0.194258046660294D+03 -.000000000000000D+00 -.000000000000000D+00 -.194258046660294D+03
 0.135491651655538D+03 -.946910324610283D+01 0.105005896822421D+01 0.514025400950520D+02
 0.124313607129640D+03 -.755704281567918D+02 -.110539732576138D+02 -.361322797094465D+02
 0.862050270023619D+02 0.732749288212482D+02 0.450500234229802D+02 0.570849159655087D+01
 0.425058075330473D+02 0.117646025816466D+02 -.350461091335906D+02 -.209787519821564D+02
-.535710391638D-06 0.000000000000D+00 0.000000000000D+00 0.129151104471D-06 0.000000000000D+00  6 21 1 25 23 1 21 4 0.31837026D-01 0.28054261D-01 0.34478344D+05 0.34478344D+05 0.34478344D+05 0.12086073D+01  1  2 14  3  6  5        1 -.193895909970D-02 0.100000000000D+01
  </mgrwgt>
  </event>
  <event>
  5     66 0.44923357E-03 0.26746424E+02 0.75467711E-02 0.11017127E+00
       21 -1    0    0  501  502 0.00000000E+00 0.00000000E+00 0.19581475E+03 0.19581618E+03 0.75000000E+00 0.0000E+00 0.9000E+01
        1 -1    0    0  502    0 0.00000000E+00 0.00000000E+00 -.66477641E+03 0.66477649E+03 0.32000000E+00 0.0000E+00 0.9000E+01
       25  1    1    2    0    0 0.77929260E+01 0.20766368E+03 -.38720315E+03 0.45687659E+03 0.12500000E+03 0.0000E+00 0.9000E+01
       23  1    1    2    0    0 -.32776902E+02 -.19811534E+03 -.19068858E+03 0.29154999E+03 0.91188000E+02 0.0000E+00 0.9000E+01
        1  1    1    2  501    0 0.24983976E+02 -.95483438E+01 0.10893007E+03 0.11216609E+03 0.32000000E+00 0.0000E+00 0.9000E+01
#aMCatNLO 1  0  0  1  1 0.58432095D+02 0.00000000D+00  -5  6  0 0.00000000D+00 0.00000000D+00 0.00000000D+00 0.00000000D+00 0.00000000D+00
  <mgrwgt>
 0.1881970088D+00    4    2    0
 0.360795892977093D+03 0.000000000000000D+00 0.000000000000000D+00 0.360795892977093D+03
 0.360795892977093D+03 0.000000000000000D+00 0.000000000000000D+00 -.360795892977093D+03
 0.293242321802391D+03 0.779291361561360D+01 0.207663684962668D+03 -.164866988027206D+03
 0.223783258410638D+03 -.327769118010553D+02 -.198115332801668D+03 -.379431728055614D+02
 0.204566205741157D+03 0.249839981854417D+02 -.954835216099981D+01 0.202810160832767D+03
 0.000000000000000D+00 0.000000000000000D+00 0.000000000000000D+00 -.000000000000000D+00
 0.372713805695758D+03 0.000000000000000D+00 0.000000000000000D+00 0.372713805695758D+03
 0.441476028624028D+03 0.000000000000000D+00 0.000000000000000D+00 -.441476028624028D+03
 0.292812918095650D+03 -.158725800846685D+02 0.206594633192596D+03 -.164866988027206D+03
 0.227891185079143D+03 -.510159752361770D+02 -.198939254047373D+03 -.379431728055614D+02
 0.203249635174865D+03 0.851598876067755D+01 -.102922688038585D+02 0.202810160832767D+03
 0.902360959701279D+02 0.583725665601680D+02 0.263688965863612D+01 -.687622229282697D+02
0.259059394533D-03 0.000000000000D+00 0.000000000000D+00 0.169231087445D-05 0.000000000000D+00  6 21 1 25 23 1 21 2 0.30125462D-01 0.10227341D+00 0.59975307D+05 0.59975307D+05 0.59975307D+05 0.11845360D+01  1  2  2  1  6  1       21 0.127556044935D+00 0.100000000000D+01
0.932645663181D-04 0.136709398373D-04 -.522966279241D-06 0.169231087445D-05 0.000000000000D+00  6 21 1 25 23 1 21 4 0.30125462D-01 0.10227341D+00 0.59975307D+05 0.59975307D+05 0.59975307D+05 0.11845360D+01  1  2  3  1  6  1       21 0.644339753724D-01 0.100000000000D+01
0.293080107463D-04 0.000000000000D+00 0.000000000000D+00 0.169231087445D-05 0.000000000000D+00  6 21 1 25 23 1 21 4 0.30125462D-01 0.10227341D+00 0.59975307D+05 0.59975307D+05 0.59975307D+05 0.11845360D+01  1  2 15  1  6  1       21 0.202481147684D-01 0.100000000000D+01
-.347981821660D-04 0.000000000000D+00 0.000000000000D+00 0.169231087445D-05 0.000000000000D+00  6 21 1 25 23 1 21 4 0.30125462D-01 0.10227341D+00 0.59975307D+05 0.59975307D+05 0.59975307D+05 0.11845360D+01  1  2  4  1  6  1       21 -.240411262412D-01 0.100000000000D+01
  </mgrwgt>
  </event>
  <event>
  5     66 -.44923357E-03 0.68072866E+02 0.75467711E-02 0.11650006E+00
       21 -1    0    0  501  502 0.00000000E+00 0.00000000E+00 0.30421696E+03 0.30421789E+03 0.75000000E+00 0.0000E+00 0.9000E+01
        3 -1    0    0  502    0 0.00000000E+00 0.00000000E+00 -.12169221E+03 0.12169324E+03 0.50000000E+00 0.0000E+00 0.9000E+01
       25  1    1    2    0    0 -.88748847E+02 0.30286311E+02 0.17127832E+02 0.15720045E+03 0.12500000E+03 0.0000E+00 0.9000E+01
       23  1    1    2    0    0 -.16289502E+02 -.49050679E+02 0.75343016E+02 0.12908578E+03 0.91188000E+02 0.0000E+00 0.9000E+01
        3  1    1    2  501    0 0.10503835E+03 0.18764368E+02 0.90053907E+02 0.13962490E+03 0.50000000E+00 0.0000E+00 0.9000E+01
#aMCatNLO 1  0  0  5  1 0.70960092D+01 0.00000000D+00  -5  6  0 0.00000000D+00 0.00000000D+00 0.00000000D+00 0.00000000D+00 0.00000000D+00
  <mgrwgt>
 -.2545056893D-01    8    2    0
 0.192409070339091D+03 0.000000000000000D+00 0.000000000000000D+00 0.192409070339091D+03
 0.192409070339091D+03 -.000000000000000D+00 -.000000000000000D+00 -.192409070339091D+03
 0.165863472072627D+03 -.887492993017696D+02 0.302862303412908D+02 -.556057325565114D+02
 0.107134042236946D+03 -.162897942145025D+02 -.490507309330094D+02 0.221612287884564D+02
 0.111820626368610D+03 0.105039093516272D+03 0.187645005917186D+02 0.334445037680549D+02
 0.000000000000000D+00 0.000000000000000D+00 0.000000000000000D+00 0.000000000000000D+00
 0.192409070339091D+03 0.000000000000000D+00 0.000000000000000D+00 0.192409070339091D+03
 0.192409070339091D+03 -.000000000000000D+00 -.000000000000000D+00 -.192409070339091D+03
 0.165304430236833D+03 -.878284223460544D+02 0.304507385791475D+02 -.553125248394193D+02
 0.107035835001973D+03 -.156942530911561D+02 -.489443416698567D+02 0.223508494018589D+02
 0.989865582845738D+02 0.950991522164935D+02 0.149716126681110D+02 0.230291290075328D+02
 0.134913171548030D+02 0.842352322071687D+01 0.352199042259827D+01 0.993254643002753D+01
0.144884981897D-05 0.000000000000D+00 0.000000000000D+00 0.166370879397D-06 0.000000000000D+00  6 21 3 25 23 3 21 2 0.46802760D-01 0.18722029D-01 0.33816217D+05 0.33816217D+05 0.33816217D+05 0.12094780D+01  1  2  2  3  6  5        3 0.115015730626D-02 0.100000000000D+01
-.981533715280D-07 0.764579055092D-07 -.292481035236D-08 0.166370879397D-06 0.000000000000D+00  6 21 3 25 23 3 21 4 0.46802760D-01 0.18722029D-01 0.33816217D+05 0.33816217D+05 0.33816217D+05 0.12094780D+01  1  2  3  3  6  5        3 -.113981677675D-03 0.100000000000D+01
0.145772459930D-06 0.000000000000D+00 0.000000000000D+00 0.166370879397D-06 0.000000000000D+00  6 21 3 25 23 3 21 4 0.46802760D-01 0.18722029D-01 0.33816217D+05 0.33816217D+05 0.33816217D+05 0.12094780D+01  1  2 15  3  6  5        3 0.169279865611D-03 0.100000000000D+01
0.902721293126D-05 0.000000000000D+00 0.000000000000D+00 0.166501207078D-06 0.000000000000D+00  6 21 3 25 23 3 21 4 0.46802760D-01 0.18722029D-01 0.33462025D+05 0.33462025D+05 0.33462025D+05 0.12099516D+01  1  2 12  3  6  5        3 0.104982650679D-01 0.100000000000D+01
-.346754651632D-04 0.000000000000D+00 0.000000000000D+00 0.166370879397D-06 0.000000000000D+00  6 21 3 25 23 3 21 4 0.46802760D-01 0.18722029D-01 0.33816217D+05 0.33816217D+05 0.33816217D+05 0.12094780D+01  1  2  4  3  6  5        3 -.402672636908D-01 0.100000000000D+01
-.108198204996D-04 0.000000000000D+00 0.000000000000D+00 0.166370879397D-06 0.000000000000D+00  6 21 3 25 23 3 21 4 0.46802760D-01 0.18722029D-01 0.33816217D+05 0.33816217D+05 0.33816217D+05 0.12094780D+01  1  2  5  3  6  5        3 -.125646350552D-01 0.100000000000D+01
0.122033515074D-04 0.000000000000D+00 -.000000000000D+00 0.166370879397D-06 0.000000000000D+00  6 21 3 25 23 3 21 4 0.46802760D-01 0.18722029D-01 0.33816217D+05 0.33816217D+05 0.33816217D+05 0.12094780D+01  1  2  6  3  6  5        3 0.141712755906D-01 0.100000000000D+01
0.129526113334D-05 0.000000000000D+00 0.000000000000D+00 0.166370879397D-06 0.769117669522D-07  6 21 3 25 23 3 21 4 0.46802760D-01 0.18722029D-01 0.33462025D+05 0.33462025D+05 0.33462025D+05 0.12099516D+01  1  2 11  3  6  5        3 0.150633366173D-02 0.100000000000D+01
  </mgrwgt>
  </event>
  <event>
  5     66 0.44923357E-03 0.11724275E+03 0.75467711E-02 0.10330217E+00
       21 -1    0    0  501  502 0.00000000E+00 0.00000000E+00 0.97061522E+02 0.97064420E+02 0.75000000E+00 0.0000E+00 0.9000E+01
        1 -1    0    0  502    0 0.00000000E+00 0.00000000E+00 -.10623442E+04 0.10623443E+04 0.32000000E+00 0.0000E+00 0.9000E+01
       25  1    1    2    0    0 -.12969713E+03 0.24232656E+02 -.53688513E+03 0.56681497E+03 0.12500000E+03 0.0000E+00 0.9000E+01
       23  1    1    2    0    0 0.14144618E+03 0.92419832E+02 -.43466691E+03 0.47518314E+03 0.91188000E+02 0.0000E+00 0.9000E+01
        1  1    1    2  501    0 -.11749046E+02 -.11665249E+03 0.62693128E+01 0.11741060E+03 0.32000000E+00 0.0000E+00 0.9000E+01
#aMCatNLO 1  0  0  1  2 0.53595764D+02 0.00000000D+00  -5  6  0 0.00000000D+00 0.00000000D+00 0.00000000D+00 0.00000000D+00 0.00000000D+00
  <mgrwgt>
 0.2331100088D-01   12    2    0
 0.321114399430409D+03 0.000000000000000D+00 0.000000000000000D+00 0.321114399430409D+03
 0.321114399430409D+03 0.000000000000000D+00 0.000000000000000D+00 -.321114399430409D+03
 0.216315898495313D+03 -.129697126728208D+03 0.242326969442194D+02 -.117298762393690D+03
 0.204529983297300D+03 0.141446180770372D+03 0.924198709100554D+02 -.704897732301482D+02
 0.221382917068205D+03 -.117490540421643D+02 -.116652567854275D+03 0.187788535623839D+03
 0.000000000000000D+00 0.000000000000000D+00 0.000000000000000D+00 0.000000000000000D+00
 0.793996809252238D+03 0.000000000000000D+00 0.000000000000000D+00 0.793996809252238D+03
 0.394361918531269D+03 0.000000000000000D+00 0.000000000000000D+00 -.394361918531269D+03
 0.229609367392149D+03 -.136581241940205D+03 -.684253336506492D+02 -.117298762393690D+03
 0.178378930719274D+03 0.135534900828554D+03 0.128558977869231D+02 -.704897732301482D+02
 0.292535125993559D+03 -.196828296960737D+02 -.223438698625545D+03 0.187788535623839D+03
 0.487835303678526D+03 0.207291708077243D+02 0.279008134489271D+03 0.399634890720969D+03
0.206969351113D-04 0.000000000000D+00 0.000000000000D+00 0.193650222715D-06 0.000000000000D+00  6 21 1 25 23 1 21 2 0.14932768D-01 0.16343780D+00 0.60268623D+05 0.60268623D+05 0.60268623D+05 0.11843304D+01  1  2  2  1  6  1       21 0.182571949382D-01 0.100000000000D+01
0.119990747647D-06 0.109220727252D-05 -.417811489383D-07 0.193650222715D-06 0.000000000000D+00  6 21 1 25 23 1 21 4 0.14932768D-01 0.16343780D+00 0.60268623D+05 0.60268623D+05 0.60268623D+05 0.11843304D+01  1  2  3  1  6  1       21 0.148464134707D-03 0.100000000000D+01
0.216049508496D-05 0.000000000000D+00 0.000000000000D+00 0.193650222715D-06 0.000000000000D+00  6 21 1 25 23 1 21 4 0.14932768D-01 0.16343780D+00 0.60268623D+05 0.60268623D+05 0.60268623D+05 0.11843304D+01  1  2 15  1  6  1       21 0.267317305390D-02 0.100000000000D+01
0.548990036105D-05 0.000000000000D+00 -.500754173904D-04 0.193650222715D-06 0.000000000000D+00  6 21 1 25 23 1 21 4 0.44484887D-01 0.16343780D+00 0.60268623D+05 0.60268623D+05 0.60268623D+05 0.11843304D+01  1  2  5  1  6  1       21 0.823236561906D-03 0.100000000000D+01
0.107077081961D-04 0.000000000000D+00 -.176484121880D-04 0.193650222715D-06 0.000000000000D+00  6 -1 1 25 23 1 -1 4 0.44484887D-01 0.16343780D+00 0.60268623D+05 0.60268623D+05 0.60268623D+05 0.11843304D+01  1  2  5  4  6  1       21 0.157561294466D-03 0.100000000000D+01
0.107077081961D-04 0.000000000000D+00 -.176484121880D-04 0.193650222715D-06 0.000000000000D+00  6 1 1 25 23 1 1 4 0.44484887D-01 0.16343780D+00 0.60268623D+05 0.60268623D+05 0.60268623D+05 0.11843304D+01  1  2  5  5  6  1       21 0.336472640944D-03 0.100000000000D+01
0.107077081961D-04 0.000000000000D+00 -.176484121880D-04 0.193650222715D-06 0.000000000000D+00  6 -2 1 25 23 1 -2 4 0.44484887D-01 0.16343780D+00 0.60268623D+05 0.60268623D+05 0.60268623D+05 0.11843304D+01  1  2  5  6  6  1       21 0.131575178402D-03 0.100000000000D+01
0.107077081961D-04 0.000000000000D+00 -.176484121880D-04 0.193650222715D-06 0.000000000000D+00  6 -4 1 25 23 1 -4 4 0.44484887D-01 0.16343780D+00 0.60268623D+05 0.60268623D+05 0.60268623D+05 0.11843304D+01  1  2  5  6  6  1       21 0.703832412424D-04 0.100000000000D+01
0.107077081961D-04 0.000000000000D+00 -.176484121880D-04 0.193650222715D-06 0.000000000000D+00  6 2 1 25 23 1 2 4 0.44484887D-01 0.16343780D+00 0.60268623D+05 0.60268623D+05 0.60268623D+05 0.11843304D+01  1  2  5  7  6  1       21 0.473902719946D-03 0.100000000000D+01
0.107077081961D-04 0.000000000000D+00 -.176484121880D-04 0.193650222715D-06 0.000000000000D+00  6 4 1 25 23 1 4 4 0.44484887D-01 0.16343780D+00 0.60268623D+05 0.60268623D+05 0.60268623D+05 0.11843304D+01  1  2  5  7  6  1       21 0.703832412424D-04 0.100000000000D+01
0.107077081961D-04 0.000000000000D+00 -.176484121880D-04 0.193650222715D-06 0.000000000000D+00  6 -3 1 25 23 1 -3 4 0.44484887D-01 0.16343780D+00 0.60268623D+05 0.60268623D+05 0.60268623D+05 0.11843304D+01  1  2  5  8  6  1       21 0.843139676764D-04 0.100000000000D+01
0.107077081961D-04 0.000000000000D+00 -.176484121880D-04 0.193650222715D-06 0.000000000000D+00  6 3 1 25 23 1 3 4 0.44484887D-01 0.16343780D+00 0.60268623D+05 0.60268623D+05 0.60268623D+05 0.11843304D+01  1  2  5  9  6  1       21 0.843399095857D-04 0.100000000000D+01
  </mgrwgt>
  </event>
  <event>
  5     66 -.44923357E-03 0.29603920E+02 0.75467711E-02 0.10966100E+00
       21 -1    0    0  501  502 0.00000000E+00 0.00000000E+00 0.84126526E+02 0.84129869E+02 0.75000000E+00 0.0000E+00 0.9000E+01
        1 -1    0    0  502    0 -.00000000E+00 -.00000000E+00 -.20150848E+04 0.20150848E+04 0.32000000E+00 0.0000E+00 0.9000E+01
       25  1    1    2    0    0 -.21862091E+03 0.32340067E+02 -.12812506E+04 0.13061658E+04 0.12500000E+03 0.0000E+00 0.9000E+01
       23  1    1    2    0    0 0.24811940E+03 -.34836100E+02 -.69190512E+03 0.74150167E+03 0.91188000E+02 0.0000E+00 0.9000E+01
        1  1    1    2  501    0 -.29498486E+02 0.24960325E+01 0.42197438E+02 0.51547231E+02 0.32000000E+00 0.0000E+00 0.9000E+01
#aMCatNLO 1  0  0  5  2 0.35127634D+01 0.00000000D+00  -5  6  0 0.00000000D+00 0.00000000D+00 0.00000000D+00 0.00000000D+00 0.00000000D+00
  <mgrwgt>
 -.2711549555D+00    5    2    0
 0.411734886078065D+03 0.000000000000000D+00 0.000000000000000D+00 0.411734886078065D+03
 0.411734886078065D+03 -.000000000000000D+00 -.000000000000000D+00 -.411734886078065D+03
 0.325307648396614D+03 -.218620901819941D+03 0.323400663122715D+02 -.203369337668411D+03
 0.267807413918567D+03 0.248119408284781D+03 -.348361005027143D+02 -.250751857406040D+02
 0.230354709840950D+03 -.294985064648393D+02 0.249603419044284D+01 0.228444523409015D+03
 0.000000000000000D+00 0.000000000000000D+00 -.000000000000000D+00 0.000000000000000D+00
 0.411734886078065D+03 0.000000000000000D+00 0.000000000000000D+00 0.411734886078065D+03
 0.411734886078065D+03 -.000000000000000D+00 -.000000000000000D+00 -.411734886078065D+03
 0.324368897077192D+03 -.218847340861162D+03 0.323592265904236D+02 -.201615731637048D+03
 0.267500999237019D+03 0.247932831249367D+03 -.348203131725964D+02 -.236302820135276D+02
 0.227989662963454D+03 -.322288527516383D+02 0.418746765997465D+01 0.225661367059360D+03
 0.361021287846521D+01 0.314336236343419D+01 -.172638107780183D+01 -.415353408784952D+00
0.207806875016D-03 0.000000000000D+00 0.000000000000D+00 0.124868282416D-05 0.000000000000D+00  6 21 1 25 23 1 21 2 0.12942802D-01 0.31001330D+00 0.75662501D+05 0.75662501D+05 0.75662501D+05 0.11748647D+01  1  2  2  3  6  5        1 0.532830482386D-01 0.100000000000D+01
0.750678286786D-04 0.109662700759D-04 -.419502208843D-06 0.124868282416D-05 0.000000000000D+00  6 21 1 25 23 1 21 4 0.12942802D-01 0.31001330D+00 0.75662501D+05 0.75662501D+05 0.75662501D+05 0.11748647D+01  1  2  3  3  6  5        1 0.265679913791D-01 0.100000000000D+01
0.246012763563D-04 0.000000000000D+00 0.000000000000D+00 0.124868282416D-05 0.000000000000D+00  6 21 1 25 23 1 21 4 0.12942802D-01 0.31001330D+00 0.75662501D+05 0.75662501D+05 0.75662501D+05 0.11748647D+01  1  2 15  3  6  5        1 0.870687896072D-02 0.100000000000D+01
-.228796839251D-02 0.000000000000D+00 0.000000000000D+00 0.124868282416D-05 0.000000000000D+00  6 21 1 25 23 1 21 4 0.12942802D-01 0.31001330D+00 0.75662501D+05 0.75662501D+05 0.75662501D+05 0.11748647D+01  1  2  4  3  6  5        1 -.809757330110D+00 0.100000000000D+01
0.127752198545D-02 0.000000000000D+00 0.000000000000D+00 0.124868282416D-05 0.607091563354D-06  6 21 1 25 23 1 21 4 0.12942802D-01 0.31001330D+00 0.77462074D+05 0.77462074D+05 0.77462074D+05 0.11738998D+01  1  2 11  3  6  5        1 0.450044456067D+00 0.100000000000D+01
  </mgrwgt>
  </event>
  <event>
  5     66 0.44923357E-03 0.20574118E+02 0.75467711E-02 0.11506693E+00
       21 -1    0    0  501  502 0.00000000E+00 0.00000000E+00 0.16201060E+03 0.16201234E+03 0.75000000E+00 0.0000E+00 0.9000E+01
        3 -1    0    0  502    0 -.00000000E+00 -.00000000E+00 -.60453281E+03 0.60453302E+03 0.50000000E+00 0.0000E+00 0.9000E+01
       25  1    1    2    0    0 0.76889752E+02 0.12293295E+03 0.72524680E+02 0.20471779E+03 0.12500000E+03 0.0000E+00 0.9000E+01
       23  1    1    2    0    0 -.75461432E+02 -.14345191E+03 -.50646984E+03 0.53953668E+03 0.91188000E+02 0.0000E+00 0.9000E+01
        3  1    1    2  501    0 -.14283203E+01 0.20518955E+02 -.85770532E+01 0.22290883E+02 0.50000000E+00 0.0000E+00 0.9000E+01
#aMCatNLO 1  0  0  5  1 0.11771874D+01 0.00000000D+00  -5  6  0 0.00000000D+00 0.00000000D+00 0.00000000D+00 0.00000000D+00 0.00000000D+00
  <mgrwgt>
 0.2131625997D-02    8    2    0
 0.312956015872700D+03 0.000000000000000D+00 0.000000000000000D+00 0.312956015872700D+03
 0.312956015872700D+03 -.000000000000000D+00 -.000000000000000D+00 -.312956015872700D+03
 0.301988515419125D+03 0.768899432638520D+02 0.122930209221495D+03 0.233555483195510D+03
 0.302688405830229D+03 -.754612403117110D+02 -.143454661522897D+03 -.238812438909732D+03
 0.212351104960454D+02 -.142870295214103D+01 0.205244523014015D+02 0.525695571422246D+01
 0.000000000000000D+00 0.000000000000000D+00 0.000000000000000D+00 0.000000000000000D+00
 0.312956015872700D+03 0.000000000000000D+00 0.000000000000000D+00 0.312956015872700D+03
 0.312956015872700D+03 -.000000000000000D+00 -.000000000000000D+00 -.312956015872700D+03
 0.302046699388051D+03 0.768830499895086D+02 0.123029236580716D+03 0.233580847206898D+03
 0.302623052875701D+03 -.754681481506014D+02 -.143355424932393D+03 -.238787021307652D+03
 0.171229331745834D+02 -.149218777862114D+01 0.162089756712264D+02 0.531388029825406D+01
 0.411934630706410D+01 0.772859397139587D-01 0.411721268045084D+01 -.107706197500342D+00
0.356182813671D-05 0.000000000000D+00 0.000000000000D+00 0.814985526350D-07 0.000000000000D+00  6 21 3 25 23 3 21 2 0.24924857D-01 0.93005197D-01 0.39599812D+05 0.39599812D+05 0.39599812D+05 0.12024440D+01  1  2  2  3  6  5        3 0.414122469843D-03 0.100000000000D+01
0.496343890806D-06 0.187962834762D-06 -.719030479985D-08 0.814985526350D-07 0.000000000000D+00  6 21 3 25 23 3 21 4 0.24924857D-01 0.93005197D-01 0.39599812D+05 0.39599812D+05 0.39599812D+05 0.12024440D+01  1  2  3  3  6  5        3 0.834388311128D-04 0.100000000000D+01
0.681474710330D-06 0.000000000000D+00 0.000000000000D+00 0.814985526350D-07 0.000000000000D+00  6 21 3 25 23 3 21 4 0.24924857D-01 0.93005197D-01 0.39599812D+05 0.39599812D+05 0.39599812D+05 0.12024440D+01  1  2 15  3  6  5        3 0.114560598642D-03 0.100000000000D+01
0.366914992676D-10 0.000000000000D+00 0.000000000000D+00 0.815043158164D-07 0.000000000000D+00  6 21 3 25 23 3 21 4 0.24924857D-01 0.93005197D-01 0.39561701D+05 0.39561701D+05 0.39561701D+05 0.12024865D+01  1  2 12  3  6  5        3 0.616903630780D-08 0.100000000000D+01
-.576208874383D-04 0.000000000000D+00 0.000000000000D+00 0.814985526350D-07 0.000000000000D+00  6 21 3 25 23 3 21 4 0.24924857D-01 0.93005197D-01 0.39599812D+05 0.39599812D+05 0.39599812D+05 0.12024440D+01  1  2  4  3  6  5        3 -.968646856462D-02 0.100000000000D+01
-.458181509694D-04 0.000000000000D+00 0.000000000000D+00 0.814985526350D-07 0.000000000000D+00  6 21 3 25 23 3 21 4 0.24924857D-01 0.93005197D-01 0.39599812D+05 0.39599812D+05 0.39599812D+05 0.12024440D+01  1  2  5  3  6  5        3 -.770234716584D-02 0.100000000000D+01
0.770708985338D-04 0.000000000000D+00 -.000000000000D+00 0.814985526350D-07 0.000000000000D+00  6 21 3 25 23 3 21 4 0.24924857D-01 0.93005197D-01 0.39599812D+05 0.39599812D+05 0.39599812D+05 0.12024440D+01  1  2  6  3  6  5        3 0.129561495680D-01 0.100000000000D+01
0.354016111239D-04 0.000000000000D+00 0.000000000000D+00 0.814985526350D-07 0.230112572530D-06  6 21 3 25 23 3 21 4 0.24924857D-01 0.93005197D-01 0.39561701D+05 0.39561701D+05 0.39561701D+05 0.12024865D+01  1  2 11  3  6  5        3 0.595216409078D-02 0.100000000000D+01
  </mgrwgt>
  </event>
  <event>
  5     66 -.44923357E-03 0.38092768E+02 0.75467711E-02 0.11656156E+00
       21 -1    0    0  501  502 0.00000000E+00 0.00000000E+00 0.27653000E+03 0.27653102E+03 0.75000000E+00 0.0000E+00 0.9000E+01
        1 -1    0    0  502    0 0.00000000E+00 0.00000000E+00 -.35147531E+03 0.35147546E+03 0.32000000E+00 0.0000E+00 0.9000E+01
       25  1    1    2    0    0 -.49580341E+02 -.57445514E+02 -.19005358E+03 0.23979900E+03 0.12500000E+03 0.0000E+00 0.9000E+01
       23  1    1    2    0    0 0.87327155E+02 0.62567577E+02 -.98052798E+02 0.17166926E+03 0.91188000E+02 0.0000E+00 0.9000E+01
        1  1    1    2  501    0 -.37746814E+02 -.51220634E+01 0.21316107E+03 0.21653822E+03 0.32000000E+00 0.0000E+00 0.9000E+01
#aMCatNLO 1  0  0  2  2 0.54976981D+02 0.00000000D+00  -5  6  0 0.00000000D+00 0.00000000D+00 0.00000000D+00 0.00000000D+00 0.00000000D+00
  <mgrwgt>
 -.1296640114D+00    7    2    0
 0.311759257348402D+03 0.000000000000000D+00 0.000000000000000D+00 0.311759257348402D+03
 0.311759257348402D+03 0.000000000000000D+00 0.000000000000000D+00 -.311759257348402D+03
 0.218681127472326D+03 -.495803297801198D+02 -.574455124069928D+02 -.162598399487081D+03
 0.161119244820225D+03 0.873271632366200D+02 0.625675784962453D+02 -.781244160912604D+02
 0.243718142404253D+03 -.377468334565002D+02 -.512206608925248D+01 0.240722815578341D+03
 0.000000000000000D+00 -.000000000000000D+00 -.000000000000000D+00 -.000000000000000D+00
 0.322828767193998D+03 0.000000000000000D+00 0.000000000000000D+00 0.322828767193998D+03
 0.389603397317916D+03 0.000000000000000D+00 0.000000000000000D+00 -.389603397317916D+03
 0.213342285744689D+03 -.326178208782351D+02 -.488648046365009D+02 -.162598399487081D+03
 0.171105288653283D+03 0.100371274814985D+03 0.691661135494652D+02 -.781244160912604D+02
 0.241489967728356D+03 -.186961370460797D+02 0.451497874106827D+01 0.240722815578341D+03
 0.864946223855879D+02 -.490573168906703D+02 -.248162876540325D+02 -.667746301239184D+02
0.333894071275D-04 0.000000000000D+00 0.000000000000D+00 0.421684821260D-05 0.000000000000D+00  6 21 1 25 23 1 21 2 0.42543167D-01 0.54073214D-01 0.26444286D+05 0.26444286D+05 0.26444286D+05 0.12206911D+01  1  2  2  2  6  2        1 0.209727907994D-01 0.100000000000D+01
0.738291624199D-05 0.176200742254D-05 -.674035930758D-07 0.421684821260D-05 0.000000000000D+00  6 21 1 25 23 1 21 4 0.42543167D-01 0.54073214D-01 0.26444286D+05 0.26444286D+05 0.26444286D+05 0.12206911D+01  1  2  3  2  6  2        1 0.691014319075D-02 0.100000000000D+01
0.339546955991D-05 0.000000000000D+00 0.000000000000D+00 0.421684821260D-05 0.000000000000D+00  6 21 1 25 23 1 21 4 0.42543167D-01 0.54073214D-01 0.26444286D+05 0.26444286D+05 0.26444286D+05 0.12206911D+01  1  2 15  2  6  2        1 0.317803698291D-02 0.100000000000D+01
-.239682363229D-03 0.000000000000D+00 0.000000000000D+00 0.421684821260D-05 0.000000000000D+00  6 21 1 25 23 1 21 4 0.42543167D-01 0.54073214D-01 0.26444286D+05 0.26444286D+05 0.26444286D+05 0.12206911D+01  1  2  4  2  6  2        1 -.224334043070D+00 0.100000000000D+01
-.300958980806D-03 0.000000000000D+00 -.670413088957D-04 0.421684821260D-05 0.000000000000D+00  6 21 1 25 23 1 21 4 0.42543167D-01 0.69207050D-01 0.26444286D+05 0.26444286D+05 0.26444286D+05 0.12206911D+01  1  2  5  2  6  2        1 -.205948855996D+00 0.100000000000D+01
0.310006458630D-03 0.000000000000D+00 0.650506930520D-04 0.421684821260D-05 0.000000000000D+00  6 21 1 25 23 1 21 4 0.42543167D-01 0.54073214D-01 0.26444286D+05 0.26444286D+05 0.26444286D+05 0.12206911D+01  1  2  6  2  6  2        1 0.290154858728D+00 0.100000000000D+01
-.898813216756D-05 0.000000000000D+00 -.224716945417D-05 0.421684821260D-05 0.000000000000D+00  6 21 21 25 23 1 -1 4 0.42543167D-01 0.69207050D-01 0.26444286D+05 0.26444286D+05 0.26444286D+05 0.12206911D+01  1  2  5 10  6  2        1 -.205969420006D-01 0.100000000000D+01
  </mgrwgt>
  </event>
  <event>
  5     66 0.44923357E-03 0.20973862E+02 0.75467711E-02 0.11156432E+00
       21 -1    0    0  501  502 0.00000000E+00 0.00000000E+00 0.26364034E+02 0.26374700E+02 0.75000000E+00 0.0000E+00 0.9000E+01
        1 -1    0    0  502    0 0.00000000E+00 0.00000000E+00 -.24228240E+04 0.24228240E+04 0.32000000E+00 0.0000E+00 0.9000E+01
       25  1    1    2    0    0 -.13423174E+03 -.27761244E+02 -.50908015E+03 0.54182695E+03 0.12500000E+03 0.0000E+00 0.9000E+01
       23  1    1    2    0    0 0.14532534E+03 0.45560762E+02 -.18742241E+04 0.18826116E+04 0.91188000E+02 0.0000E+00 0.9000E+01
        1  1    1    2  501    0 -.11093602E+02 -.17799518E+02 -.13155738E+02 0.24760184E+02 0.32000000E+00 0.0000E+00 0.9000E+01
#aMCatNLO 1  0  0  1  2 0.42039605D+02 0.00000000D+00  -5  6  0 0.00000000D+00 0.00000000D+00 0.00000000D+00 0.00000000D+00 0.00000000D+00
  <mgrwgt>
 0.5037165604D-01   14    2    0
 0.252761749790146D+03 0.000000000000000D+00 0.000000000000000D+00 0.252761749790146D+03
 0.252761749790146D+03 0.000000000000000D+00 0.000000000000000D+00 -.252761749790146D+03
 0.211763773944621D+03 -.134231668146606D+03 -.277611288645752D+02 0.102127738377055D+03
 0.236165254246784D+03 0.145325421431433D+03 0.455608905212085D+02 -.155767464863940D+03
 0.575944713888875D+02 -.110937532848273D+02 -.177997616566333D+02 0.536397264868849D+02
 0.000000000000000D+00 0.000000000000000D+00 0.000000000000000D+00 0.000000000000000D+00
 0.315371472461852D+03 0.000000000000000D+00 0.000000000000000D+00 0.315371472461852D+03
 0.300332399739492D+03 0.000000000000000D+00 0.000000000000000D+00 -.300332399739492D+03
 0.241809925949804D+03 -.173591439448158D+03 -.477805137284449D+02 0.102127738377055D+03
 0.211161508059323D+03 0.106507740720382D+03 0.258172267757154D+02 -.155767464863940D+03
 0.622267982961437D+02 -.214914852806686D+02 -.230883136896557D+02 0.536397264868849D+02
 0.100505639896073D+03 0.885751840084442D+02 0.450516006423852D+02 0.150390727223600D+02
0.188915696241D-04 0.000000000000D+00 0.000000000000D+00 0.613149652597D-06 0.000000000000D+00  6 21 1 25 23 1 21 2 0.40568273D-02 0.37274298D+00 0.36863141D+05 0.36863141D+05 0.36863141D+05 0.12056187D+01  1  2  2  1  6  1       21 0.216065103779D-01 0.100000000000D+01
0.305494160830D-05 0.996935518320D-06 -.381366361686D-07 0.613149652597D-06 0.000000000000D+00  6 21 1 25 23 1 21 4 0.40568273D-02 0.37274298D+00 0.36863141D+05 0.36863141D+05 0.36863141D+05 0.12056187D+01  1  2  3  1  6  1       21 0.507854702294D-02 0.100000000000D+01
0.213133663631D-05 0.000000000000D+00 0.000000000000D+00 0.613149652597D-06 0.000000000000D+00  6 21 1 25 23 1 21 4 0.40568273D-02 0.37274298D+00 0.36863141D+05 0.36863141D+05 0.36863141D+05 0.12056187D+01  1  2 15  1  6  1       21 0.354314246132D-02 0.100000000000D+01
-.203563872883D-05 0.000000000000D+00 0.000000000000D+00 0.613149652597D-06 0.000000000000D+00  6 21 1 25 23 1 21 4 0.40568273D-02 0.37274298D+00 0.36863141D+05 0.36863141D+05 0.36863141D+05 0.12056187D+01  1  2  4  1  6  1       21 -.338405388110D-02 0.100000000000D+01
-.326856537207D-04 0.000000000000D+00 -.229715587435D-04 0.613149652597D-06 0.000000000000D+00  6 21 1 25 23 1 21 4 0.63960355D-02 0.37274298D+00 0.36863141D+05 0.36863141D+05 0.36863141D+05 0.12056187D+01  1  2  5  1  6  1       21 -.250912851787D-01 0.100000000000D+01
0.299614160270D-04 0.000000000000D+00 0.156670247390D-04 0.613149652597D-06 0.000000000000D+00  6 21 1 25 23 1 21 4 0.40568273D-02 0.37274298D+00 0.36863141D+05 0.36863141D+05 0.36863141D+05 0.12056187D+01  1  2  6  1  6  1       21 0.498079766087D-01 0.100000000000D+01
-.360586076263D-05 0.000000000000D+00 -.358839808798D-05 0.613149652597D-06 0.000000000000D+00  6 -1 1 25 23 1 -1 4 0.63960355D-02 0.37274298D+00 0.36863141D+05 0.36863141D+05 0.36863141D+05 0.12056187D+01  1  2  5  4  6  1       21 -.168444023959D-03 0.100000000000D+01
-.360586076263D-05 0.000000000000D+00 -.358839808798D-05 0.613149652597D-06 0.000000000000D+00  6 1 1 25 23 1 1 4 0.63960355D-02 0.37274298D+00 0.36863141D+05 0.36863141D+05 0.36863141D+05 0.12056187D+01  1  2  5  5  6  1       21 -.195620932669D-03 0.100000000000D+01
-.360586076263D-05 0.000000000000D+00 -.358839808798D-05 0.613149652597D-06 0.000000000000D+00  6 -2 1 25 23 1 -2 4 0.63960355D-02 0.37274298D+00 0.36863141D+05 0.36863141D+05 0.36863141D+05 0.12056187D+01  1  2  5  6  6  1       21 -.163692993891D-03 0.100000000000D+01
-.360586076263D-05 0.000000000000D+00 -.358839808798D-05 0.613149652597D-06 0.000000000000D+00  6 -4 1 25 23 1 -4 4 0.63960355D-02 0.37274298D+00 0.36863141D+05 0.36863141D+05 0.36863141D+05 0.12056187D+01  1  2  5  6  6  1       21 -.105403005910D-03 0.100000000000D+01
-.360586076263D-05 0.000000000000D+00 -.358839808798D-05 0.613149652597D-06 0.000000000000D+00  6 2 1 25 23 1 2 4 0.63960355D-02 0.37274298D+00 0.36863141D+05 0.36863141D+05 0.36863141D+05 0.12056187D+01  1  2  5  7  6  1       21 -.213913721010D-03 0.100000000000D+01
-.360586076263D-05 0.000000000000D+00 -.358839808798D-05 0.613149652597D-06 0.000000000000D+00  6 4 1 25 23 1 4 4 0.63960355D-02 0.37274298D+00 0.36863141D+05 0.36863141D+05 0.36863141D+05 0.12056187D+01  1  2  5  7  6  1       21 -.105403005910D-03 0.100000000000D+01
-.360586076263D-05 0.000000000000D+00 -.358839808798D-05 0.613149652597D-06 0.000000000000D+00  6 -3 1 25 23 1 -3 4 0.63960355D-02 0.37274298D+00 0.36863141D+05 0.36863141D+05 0.36863141D+05 0.12056187D+01  1  2  5  8  6  1       21 -.118358060246D-03 0.100000000000D+01
-.360586076263D-05 0.000000000000D+00 -.358839808798D-05 0.613149652597D-06 0.000000000000D+00  6 3 1 25 23 1 3 4 0.63960355D-02 0.37274298D+00 0.36863141D+05 0.36863141D+05 0.36863141D+05 0.12056187D+01  1  2  5  9  6  1       21 -.118345624321D-03 0.100000000000D+01
  </mgrwgt>
  </event>
  <event>
  5     66 0.44923357E-03 0.20354848E+02 0.75467711E-02 0.12165556E+00
       21 -1    0    0  501  502 0.00000000E+00 0.00000000E+00 0.50448575E+03 0.50448631E+03 0.75000000E+00 0.0000E+00 0.9000E+01
        3 -1    0    0  502    0 0.00000000E+00 0.00000000E+00 -.12707991E+03 0.12708090E+03 0.50000000E+00 0.0000E+00 0.9000E+01
       25  1    1    2    0    0 -.19391508E+02 -.47728627E+02 0.10515540E+03 0.17127963E+03 0.12500000E+03 0.0000E+00 0.9000E+01
       23  1    1    2    0    0 0.12318391E+02 0.66814968E+02 -.59206763E+02 0.12820560E+03 0.91188000E+02 0.0000E+00 0.9000E+01
        3  1    1    2  501    0 0.70731163E+01 -.19086340E+02 0.33145720E+03 0.33208198E+03 0.50000000E+00 0.0000E+00 0.9000E+01
#aMCatNLO 1  0  0  1  2 0.52496588D+01 0.00000000D+00  -5  6  0 0.00000000D+00 0.00000000D+00 0.00000000D+00 0.00000000D+00 0.00000000D+00
  <mgrwgt>
 0.2585656153D-01   32    2    0
 0.253200498278530D+03 0.000000000000000D+00 0.000000000000000D+00 0.253200498278530D+03
 0.253200498278530D+03 0.000000000000000D+00 0.000000000000000D+00 -.253200498278530D+03
 0.135245246316431D+03 -.193915159638657D+02 -.477286046258073D+02 0.349657836873055D+01
 0.204019265274310D+03 0.123183784693920D+02 0.668150021223173D+02 -.169388967475301D+03
 0.167136484966318D+03 0.707313749447368D+01 -.190863974965100D+02 0.165892389106571D+03
 0.000000000000000D+00 0.000000000000000D+00 0.000000000000000D+00 0.000000000000000D+00
 0.288983730982889D+03 0.000000000000000D+00 0.000000000000000D+00 0.288983730982889D+03
 0.253406717150159D+03 0.000000000000000D+00 0.000000000000000D+00 -.253406717150159D+03
 0.135781791512188D+03 -.197417551641161D+02 -.490890206564639D+02 0.349657836873055D+01
 0.203327617719236D+03 0.117919776804996D+02 0.647703307341703D+02 -.169388967475301D+03
 0.167318797162744D+03 0.664093208991000D+01 -.207651906198508D+02 0.165892389106571D+03
 0.359622417388801D+02 0.130884539370653D+01 0.508388054214436D+01 0.355770138327295D+02
0.239712976054D-05 0.000000000000D+00 0.000000000000D+00 0.509254279347D-05 0.000000000000D+00  6 21 3 25 23 3 21 2 0.77613311D-01 0.19550874D-01 0.18126649D+05 0.18126649D+05 0.18126649D+05 0.12385562D+01  1  2  2  1  6  1       21 0.624484791512D-03 0.100000000000D+01
0.730636503642D-06 0.126500012855D-06 -.483911434284D-08 0.509254279347D-05 0.000000000000D+00  6 21 3 25 23 3 21 4 0.77613311D-01 0.19550874D-01 0.18126649D+05 0.18126649D+05 0.18126649D+05 0.12385562D+01  1  2  3  1  6  1       21 0.291986741597D-03 0.100000000000D+01
0.240137538583D-06 0.000000000000D+00 0.000000000000D+00 0.509254279347D-05 0.000000000000D+00  6 21 3 25 23 3 21 4 0.77613311D-01 0.19550874D-01 0.18126649D+05 0.18126649D+05 0.18126649D+05 0.12385562D+01  1  2 15  1  6  1       21 0.959669782122D-04 0.100000000000D+01
0.114731583394D-03 0.000000000000D+00 0.000000000000D+00 0.507510541538D-05 0.000000000000D+00  6 21 3 25 23 3 21 4 0.88610832D-01 0.19550874D-01 0.18941697D+05 0.18941697D+05 0.18941697D+05 0.12364339D+01  1  2 12  1  6  1       21 0.337788853100D-01 0.100000000000D+01
-.189568127752D-03 0.000000000000D+00 0.000000000000D+00 0.509254279347D-05 0.000000000000D+00  6 21 3 25 23 3 21 4 0.77613311D-01 0.19550874D-01 0.18126649D+05 0.18126649D+05 0.18126649D+05 0.12385562D+01  1  2  4  1  6  1       21 -.757577532153D-01 0.100000000000D+01
-.469497835953D-03 0.000000000000D+00 -.561696456143D-05 0.509254279347D-05 0.000000000000D+00  6 21 3 25 23 3 21 4 0.88613301D-01 0.19550874D-01 0.18126649D+05 0.18126649D+05 0.18126649D+05 0.12385562D+01  1  2  5  1  6  1       21 -.139192108476D+00 0.100000000000D+01
0.456401489935D-03 0.000000000000D+00 0.542441780132D-05 0.509254279347D-05 0.000000000000D+00  6 21 3 25 23 3 21 4 0.77613311D-01 0.19550874D-01 0.18126649D+05 0.18126649D+05 0.18126649D+05 0.12385562D+01  1  2  6  1  6  1       21 0.182393273867D+00 0.100000000000D+01
0.869066132859D-04 0.000000000000D+00 0.000000000000D+00 0.509254279347D-05 0.199720176167D-05  6 21 3 25 23 3 21 4 0.88581912D-01 0.19566798D-01 0.18941697D+05 0.18941697D+05 0.18941697D+05 0.12364339D+01  1  2 11  1  6  1       21 0.255692310516D-01 0.100000000000D+01
0.380732774059D-05 0.000000000000D+00 0.000000000000D+00 0.507510541538D-05 0.000000000000D+00  6 -3 3 25 23 3 -3 4 0.88610832D-01 0.19550874D-01 0.18941697D+05 0.18941697D+05 0.18941697D+05 0.12364339D+01  1  2 12  4  6  1       21 0.584132397236D-04 0.100000000000D+01
-.154399299374D-04 0.000000000000D+00 -.198061738436D-06 0.509254279347D-05 0.000000000000D+00  6 -3 3 25 23 3 -3 4 0.88613301D-01 0.19550874D-01 0.18126649D+05 0.18126649D+05 0.18126649D+05 0.12385562D+01  1  2  5  4  6  1       21 -.238002467893D-03 0.100000000000D+01
0.115720078804D-04 0.000000000000D+00 0.000000000000D+00 0.509254279347D-05 0.241323822410D-06  6 -3 3 25 23 3 -3 4 0.88581912D-01 0.19566798D-01 0.18941697D+05 0.18941697D+05 0.18941697D+05 0.12364339D+01  1  2 11  4  6  1       21 0.177415803425D-03 0.100000000000D+01
0.380732774059D-05 0.000000000000D+00 0.000000000000D+00 0.507510541538D-05 0.000000000000D+00  6 3 3 25 23 3 3 4 0.88610832D-01 0.19550874D-01 0.18941697D+05 0.18941697D+05 0.18941697D+05 0.12364339D+01  1  2 12  5  6  1       21 0.585043803335D-04 0.100000000000D+01
-.154399299374D-04 0.000000000000D+00 -.198061738436D-06 0.509254279347D-05 0.000000000000D+00  6 3 3 25 23 3 3 4 0.88613301D-01 0.19550874D-01 0.18126649D+05 0.18126649D+05 0.18126649D+05 0.12385562D+01  1  2  5  5  6  1       21 -.238373718790D-03 0.100000000000D+01
0.100165598063D-04 0.000000000000D+00 0.000000000000D+00 0.509254279347D-05 0.863231216439D-07  6 3 3 25 23 3 3 4 0.88581912D-01 0.19566798D-01 0.18941697D+05 0.18941697D+05 0.18941697D+05 0.12364339D+01  1  2 11  5  6  1       21 0.153807968039D-03 0.100000000000D+01
0.380732774059D-05 0.000000000000D+00 0.000000000000D+00 0.507510541538D-05 0.000000000000D+00  6 -2 3 25 23 3 -2 4 0.88610832D-01 0.19550874D-01 0.18941697D+05 0.18941697D+05 0.18941697D+05 0.12364339D+01  1  2 12  6  6  1       21 0.934123377624D-04 0.100000000000D+01
0.380732774059D-05 0.000000000000D+00 0.000000000000D+00 0.507510541538D-05 0.000000000000D+00  6 -4 3 25 23 3 -4 4 0.88610832D-01 0.19550874D-01 0.18941697D+05 0.18941697D+05 0.18941697D+05 0.12364339D+01  1  2 12  6  6  1       21 0.468551493987D-04 0.100000000000D+01
-.154399299374D-04 0.000000000000D+00 -.198061738436D-06 0.509254279347D-05 0.000000000000D+00  6 -2 3 25 23 3 -2 4 0.88613301D-01 0.19550874D-01 0.18126649D+05 0.18126649D+05 0.18126649D+05 0.12385562D+01  1  2  5  6  6  1       21 -.380929225976D-03 0.100000000000D+01
-.154399299374D-04 0.000000000000D+00 -.198061738436D-06 0.509254279347D-05 0.000000000000D+00  6 -4 3 25 23 3 -4 4 0.88613301D-01 0.19550874D-01 0.18126649D+05 0.18126649D+05 0.18126649D+05 0.12385562D+01  1  2  5  6  6  1       21 -.190816693100D-03 0.100000000000D+01
0.648196959102D-05 0.000000000000D+00 0.000000000000D+00 0.509254279347D-05 0.979325098568D-07  6 -2 3 25 23 3 -2 4 0.88581912D-01 0.19566798D-01 0.18941697D+05 0.18941697D+05 0.18941697D+05 0.12364339D+01  1  2 11  6  6  1       21 0.158923025799D-03 0.100000000000D+01
0.648196959102D-05 0.000000000000D+00 0.000000000000D+00 0.509254279347D-05 0.979325098568D-07  6 -4 3 25 23 3 -4 4 0.88581912D-01 0.19566798D-01 0.18941697D+05 0.18941697D+05 0.18941697D+05 0.12364339D+01  1  2 11  6  6  1       21 0.797154086984D-04 0.100000000000D+01
0.380732774059D-05 0.000000000000D+00 0.000000000000D+00 0.507510541538D-05 0.000000000000D+00  6 2 3 25 23 3 2 4 0.88610832D-01 0.19550874D-01 0.18941697D+05 0.18941697D+05 0.18941697D+05 0.12364339D+01  1  2 12  7  6  1       21 0.668391503065D-03 0.100000000000D+01
0.380732774059D-05 0.000000000000D+00 0.000000000000D+00 0.507510541538D-05 0.000000000000D+00  6 4 3 25 23 3 4 4 0.88610832D-01 0.19550874D-01 0.18941697D+05 0.18941697D+05 0.18941697D+05 0.12364339D+01  1  2 12  7  6  1       21 0.468551493987D-04 0.100000000000D+01
-.154399299374D-04 0.000000000000D+00 -.198061738436D-06 0.509254279347D-05 0.000000000000D+00  6 2 3 25 23 3 2 4 0.88613301D-01 0.19550874D-01 0.18126649D+05 0.18126649D+05 0.18126649D+05 0.12385562D+01  1  2  5  7  6  1       21 -.272558420335D-02 0.100000000000D+01
-.154399299374D-04 0.000000000000D+00 -.198061738436D-06 0.509254279347D-05 0.000000000000D+00  6 4 3 25 23 3 4 4 0.88613301D-01 0.19550874D-01 0.18126649D+05 0.18126649D+05 0.18126649D+05 0.12385562D+01  1  2  5  7  6  1       21 -.190816693100D-03 0.100000000000D+01
0.647997871329D-05 0.000000000000D+00 0.000000000000D+00 0.509254279347D-05 0.979024307813D-07  6 2 3 25 23 3 2 4 0.88581912D-01 0.19566798D-01 0.18941697D+05 0.18941697D+05 0.18941697D+05 0.12364339D+01  1  2 11  7  6  1       21 0.113637809508D-02 0.100000000000D+01
0.647997871329D-05 0.000000000000D+00 0.000000000000D+00 0.509254279347D-05 0.979024307813D-07  6 4 3 25 23 3 4 4 0.88581912D-01 0.19566798D-01 0.18941697D+05 0.18941697D+05 0.18941697D+05 0.12364339D+01  1  2 11  7  6  1       21 0.796909248390D-04 0.100000000000D+01
0.380732774059D-05 0.000000000000D+00 0.000000000000D+00 0.507510541538D-05 0.000000000000D+00  6 -1 3 25 23 3 -1 4 0.88610832D-01 0.19550874D-01 0.18941697D+05 0.18941697D+05 0.18941697D+05 0.12364339D+01  1  2 12  8  6  1       21 0.124284917285D-03 0.100000000000D+01
-.154399299374D-04 0.000000000000D+00 -.198061738436D-06 0.509254279347D-05 0.000000000000D+00  6 -1 3 25 23 3 -1 4 0.88613301D-01 0.19550874D-01 0.18126649D+05 0.18126649D+05 0.18126649D+05 0.12385562D+01  1  2  5  8  6  1       21 -.506958756087D-03 0.100000000000D+01
0.650592846685D-05 0.000000000000D+00 0.000000000000D+00 0.509254279347D-05 0.982944913210D-07  6 -1 3 25 23 3 -1 4 0.88581912D-01 0.19566798D-01 0.18941697D+05 0.18941697D+05 0.18941697D+05 0.12364339D+01  1  2 11  8  6  1       21 0.212219633538D-03 0.100000000000D+01
0.380732774059D-05 0.000000000000D+00 0.000000000000D+00 0.507510541538D-05 0.000000000000D+00  6 1 3 25 23 3 1 4 0.88610832D-01 0.19550874D-01 0.18941697D+05 0.18941697D+05 0.18941697D+05 0.12364339D+01  1  2 12  9  6  1       21 0.416438580851D-03 0.100000000000D+01
-.154399299374D-04 0.000000000000D+00 -.198061738436D-06 0.509254279347D-05 0.000000000000D+00  6 1 3 25 23 3 1 4 0.88613301D-01 0.19550874D-01 0.18126649D+05 0.18126649D+05 0.18126649D+05 0.12385562D+01  1  2  5  9  6  1       21 -.169850760159D-02 0.100000000000D+01
0.650936764376D-05 0.000000000000D+00 0.000000000000D+00 0.509254279347D-05 0.983464519515D-07  6 1 3 25 23 3 1 4 0.88581912D-01 0.19566798D-01 0.18941697D+05 0.18941697D+05 0.18941697D+05 0.12364339D+01  1  2 11  9  6  1       21 0.711277724618D-03 0.100000000000D+01
  </mgrwgt>
  </event>
  <event>
  5     66 -.44923357E-03 0.68092384E+02 0.75467711E-02 0.11595119E+00
       21 -1    0    0  501  502 0.00000000E+00 0.00000000E+00 0.22360819E+03 0.22360945E+03 0.75000000E+00 0.0000E+00 0.9000E+01
        1 -1    0    0  502    0 -.00000000E+00 -.00000000E+00 -.52654423E+03 0.52654432E+03 0.32000000E+00 0.0000E+00 0.9000E+01
       25  1    1    2    0    0 0.18141144E+01 0.11547514E+03 -.26935520E+03 0.31861422E+03 0.12500000E+03 0.0000E+00 0.9000E+01
       23  1    1    2    0    0 0.52782289E+02 -.74783594E+02 -.20768382E+03 0.24459431E+03 0.91188000E+02 0.0000E+00 0.9000E+01
        1  1    1    2  501    0 -.54596403E+02 -.40691547E+02 0.17410299E+03 0.18694524E+03 0.32000000E+00 0.0000E+00 0.9000E+01
#aMCatNLO 1  0  0  5  1 0.19116345D+02 0.00000000D+00  -5  6  0 0.00000000D+00 0.00000000D+00 0.00000000D+00 0.00000000D+00 0.00000000D+00
  <mgrwgt>
 -.7976112155D-02    4    2    0
 0.343132788345462D+03 0.000000000000000D+00 0.000000000000000D+00 0.343132788345462D+03
 0.343132788345462D+03 -.000000000000000D+00 -.000000000000000D+00 -.343132788345462D+03
 0.229375187443566D+03 0.181412616785771D+01 0.115475149791817D+03 -.153786135075876D+03
 0.175687747177826D+03 0.527822976591638D+02 -.747835867703455D+02 -.119047794469287D+03
 0.281202642069532D+03 -.545964238270215D+02 -.406915630214717D+02 0.272833929545163D+03
 0.000000000000000D+00 0.000000000000000D+00 -.000000000000000D+00 0.000000000000000D+00
 0.343132788345462D+03 0.000000000000000D+00 0.000000000000000D+00 0.343132788345462D+03
 0.343132788345462D+03 -.000000000000000D+00 -.000000000000000D+00 -.343132788345462D+03
 0.228686532751812D+03 0.162942626151328D+01 0.115337490081670D+03 -.152863136870092D+03
 0.175211879148481D+03 0.526408077130248D+02 -.748890414257358D+02 -.118340728780909D+03
 0.100324803315567D+03 -.247782283413482D+02 0.394008112107732D+01 0.971369204851101D+02
 0.182042361475064D+03 -.294920056331898D+02 -.443885297770120D+02 0.174066945165891D+03
0.339900921594D-05 0.000000000000D+00 0.000000000000D+00 0.176061986308D-05 0.000000000000D+00  6 21 1 25 23 1 21 2 0.34401364D-01 0.81006908D-01 0.33760665D+05 0.33760665D+05 0.33760665D+05 0.12095519D+01  1  2  2  3  6  5        1 0.189279984621D-02 0.100000000000D+01
0.377952511384D-06 0.179370644255D-06 -.686162030902D-08 0.176061986308D-05 0.000000000000D+00  6 21 1 25 23 1 21 4 0.34401364D-01 0.81006908D-01 0.33760665D+05 0.33760665D+05 0.33760665D+05 0.12095519D+01  1  2  3  3  6  5        1 0.307920511743D-03 0.100000000000D+01
0.490952533641D-06 0.000000000000D+00 0.000000000000D+00 0.176061986308D-05 0.000000000000D+00  6 21 1 25 23 1 21 4 0.34401364D-01 0.81006908D-01 0.33760665D+05 0.33760665D+05 0.33760665D+05 0.12095519D+01  1  2 15  3  6  5        1 0.399982407438D-03 0.100000000000D+01
-.129823561895D-04 0.000000000000D+00 0.000000000000D+00 0.176061986308D-05 0.000000000000D+00  6 21 1 25 23 1 21 4 0.34401364D-01 0.81006908D-01 0.33760665D+05 0.33760665D+05 0.33760665D+05 0.12095519D+01  1  2  5  3  6  5        1 -.105768149201D-01 0.100000000000D+01
  </mgrwgt>
  </event>
  <event>
  5     66 0.44923357E-03 0.61084694E+02 0.75467711E-02 0.10076569E+00
       21 -1    0    0  501  502 0.00000000E+00 0.00000000E+00 0.61086155E+02 0.61090759E+02 0.75000000E+00 0.0000E+00 0.9000E+01
        1 -1    0    0  502    0 0.00000000E+00 0.00000000E+00 -.51238452E+03 0.51238462E+03 0.32000000E+00 0.0000E+00 0.9000E+01
       25  1    1    2    0    0 -.16758488E+02 -.42942925E+02 -.27228541E+03 0.30313246E+03 0.12500000E+03 0.0000E+00 0.9000E+01
       23  1    1    2    0    0 0.61895892E+02 0.17860233E+01 -.37870850E+02 0.11654932E+03 0.91188000E+02 0.0000E+00 0.9000E+01
        1  1    1    2  501    0 -.45137404E+02 0.41156901E+02 -.14114210E+03 0.15379360E+03 0.32000000E+00 0.0000E+00 0.9000E+01
#aMCatNLO 1  0  0  1  2 0.65773184D+02 0.00000000D+00  -5  6  0 0.00000000D+00 0.00000000D+00 0.00000000D+00 0.00000000D+00 0.00000000D+00
  <mgrwgt>
 0.2088252639D-01   12    2    0
 0.176920741322577D+03 0.000000000000000D+00 0.000000000000000D+00 0.176920741322577D+03
 0.176920741322577D+03 0.000000000000000D+00 0.000000000000000D+00 -.176920741322577D+03
 0.144010904111759D+03 -.167582915417556D+02 -.429431036931221D+02 -.546734854649825D+02
 0.140591689528962D+03 0.618960833808767D+02 0.178584869540962D+01 0.872723176451316D+02
 0.692388890044322D+02 -.451377918391212D+02 0.411572549977124D+02 -.325988321801491D+02
 0.000000000000000D+00 -.000000000000000D+00 -.000000000000000D+00 0.000000000000000D+00
 0.805692124334594D+03 0.000000000000000D+00 0.000000000000000D+00 0.805692124334594D+03
 0.410713824084158D+03 0.000000000000000D+00 0.000000000000000D+00 -.410713824084158D+03
 0.189997457680363D+03 0.119999972836492D+03 0.555414298641384D+02 -.546734854649825D+02
 0.306036241363453D+03 0.244765938267052D+03 0.133476993227173D+03 0.872723176451316D+02
 0.995073579543499D+02 0.239546216879057D+02 0.909131812628671D+02 -.325988321801491D+02
 0.620864891420586D+03 -.388720532791449D+03 -.279931604354178D+03 0.394978300250436D+03
0.164377302814D-05 0.000000000000D+00 0.000000000000D+00 0.966199157393D-07 0.000000000000D+00  6 21 1 25 23 1 21 2 0.93982318D-02 0.78828749D-01 0.23185955D+05 0.23185955D+05 0.23185955D+05 0.12268207D+01  1  2  2  1  6  1       21 0.108303564960D-01 0.100000000000D+01
-.140523135196D-06 0.867442858599D-07 -.331830415182D-08 0.966199157393D-07 0.000000000000D+00  6 21 1 25 23 1 21 4 0.93982318D-02 0.78828749D-01 0.23185955D+05 0.23185955D+05 0.23185955D+05 0.12268207D+01  1  2  3  1  6  1       21 -.139351271829D-02 0.100000000000D+01
0.184900795572D-06 0.000000000000D+00 0.000000000000D+00 0.966199157393D-07 0.000000000000D+00  6 21 1 25 23 1 21 4 0.93982318D-02 0.78828749D-01 0.23185955D+05 0.23185955D+05 0.23185955D+05 0.12268207D+01  1  2 15  1  6  1       21 0.183358853965D-02 0.100000000000D+01
0.546186297745D-04 0.000000000000D+00 -.450208048556D-04 0.966199157393D-07 0.000000000000D+00  6 21 1 25 23 1 21 4 0.93375374D-01 0.78828749D-01 0.23185955D+05 0.23185955D+05 0.23185955D+05 0.12268207D+01  1  2  5  1  6  1       21 0.593126588129D-02 0.100000000000D+01
0.239085325815D-04 0.000000000000D+00 -.196761725945D-04 0.966199157393D-07 0.000000000000D+00  6 -1 1 25 23 1 -1 4 0.93375374D-01 0.78828749D-01 0.23185955D+05 0.23185955D+05 0.23185955D+05 0.12268207D+01  1  2  5  4  6  1       21 0.291950631056D-03 0.100000000000D+01
0.239085325815D-04 0.000000000000D+00 -.196761725945D-04 0.966199157393D-07 0.000000000000D+00  6 1 1 25 23 1 1 4 0.93375374D-01 0.78828749D-01 0.23185955D+05 0.23185955D+05 0.23185955D+05 0.12268207D+01  1  2  5  5  6  1       21 0.101915877386D-02 0.100000000000D+01
0.239085325815D-04 0.000000000000D+00 -.196761725945D-04 0.966199157393D-07 0.000000000000D+00  6 -2 1 25 23 1 -2 4 0.93375374D-01 0.78828749D-01 0.23185955D+05 0.23185955D+05 0.23185955D+05 0.12268207D+01  1  2  5  6  6  1       21 0.218316469123D-03 0.100000000000D+01
0.239085325815D-04 0.000000000000D+00 -.196761725945D-04 0.966199157393D-07 0.000000000000D+00  6 -4 1 25 23 1 -4 4 0.93375374D-01 0.78828749D-01 0.23185955D+05 0.23185955D+05 0.23185955D+05 0.12268207D+01  1  2  5  6  6  1       21 0.110088182966D-03 0.100000000000D+01
0.239085325815D-04 0.000000000000D+00 -.196761725945D-04 0.966199157393D-07 0.000000000000D+00  6 2 1 25 23 1 2 4 0.93375374D-01 0.78828749D-01 0.23185955D+05 0.23185955D+05 0.23185955D+05 0.12268207D+01  1  2  5  7  6  1       21 0.165652920200D-02 0.100000000000D+01
0.239085325815D-04 0.000000000000D+00 -.196761725945D-04 0.966199157393D-07 0.000000000000D+00  6 4 1 25 23 1 4 4 0.93375374D-01 0.78828749D-01 0.23185955D+05 0.23185955D+05 0.23185955D+05 0.12268207D+01  1  2  5  7  6  1       21 0.110088182966D-03 0.100000000000D+01
0.239085325815D-04 0.000000000000D+00 -.196761725945D-04 0.966199157393D-07 0.000000000000D+00  6 -3 1 25 23 1 -3 4 0.93375374D-01 0.78828749D-01 0.23185955D+05 0.23185955D+05 0.23185955D+05 0.12268207D+01  1  2  5  8  6  1       21 0.137229960713D-03 0.100000000000D+01
0.239085325815D-04 0.000000000000D+00 -.196761725945D-04 0.966199157393D-07 0.000000000000D+00  6 3 1 25 23 1 3 4 0.93375374D-01 0.78828749D-01 0.23185955D+05 0.23185955D+05 0.23185955D+05 0.12268207D+01  1  2  5  9  6  1       21 0.137466792505D-03 0.100000000000D+01
  </mgrwgt>
  </event>
  <event>
  5     66 -.44923357E-03 0.23046171E+03 0.75467711E-02 0.10076172E+00
       21 -1    0    0  501  502 0.00000000E+00 0.00000000E+00 0.46627367E+03 0.46627428E+03 0.75000000E+00 0.0000E+00 0.9000E+01
        1 -1    0    0  502    0 0.00000000E+00 0.00000000E+00 -.32525264E+03 0.32525280E+03 0.32000000E+00 0.0000E+00 0.9000E+01
       25  1    1    2    0    0 0.29279656E+03 -.60401996E+02 0.18564651E+03 0.37345395E+03 0.12500000E+03 0.0000E+00 0.9000E+01
       23  1    1    2    0    0 -.12502132E+03 -.97598021E+02 0.19067270E+01 0.18296063E+03 0.91188000E+02 0.0000E+00 0.9000E+01
        1  1    1    2  501    0 -.16777525E+03 0.15800002E+03 -.46532200E+02 0.23511250E+03 0.32000000E+00 0.0000E+00 0.9000E+01
#aMCatNLO 1  0  0  1  1 0.26404371D+03 0.00000000D+00  -5  6  0 0.00000000D+00 0.00000000D+00 0.00000000D+00 0.00000000D+00 0.00000000D+00
  <mgrwgt>
 -.7582054333D-02   12    2    0
 0.389431695123948D+03 0.000000000000000D+00 0.000000000000000D+00 0.389431695123948D+03
 0.389431695123948D+03 0.000000000000000D+00 0.000000000000000D+00 -.389431695123948D+03
 0.345912921753683D+03 0.292796626359462D+03 -.604020549874406D+02 0.121047415428753D+03
 0.185590176429691D+03 -.125021285101724D+03 -.975980526900889D+02 -.311891106929920D+02
 0.247360292064523D+03 -.167775341257738D+03 0.158000107677529D+03 -.898583047357614D+02
 0.000000000000000D+00 -.000000000000000D+00 -.000000000000000D+00 0.000000000000000D+00
 0.853657716723177D+03 0.000000000000000D+00 0.000000000000000D+00 0.853657716723177D+03
 0.450594897443360D+03 0.000000000000000D+00 0.000000000000000D+00 -.450594897443360D+03
 0.437308852141434D+03 0.401075654782042D+03 0.999372405228937D+01 0.121047415428753D+03
 0.142396317203362D+03 -.796777310152526D+02 -.681187078820626D+02 -.311891106929920D+02
 0.242698175928077D+03 -.100025622655555D+03 0.202046441397020D+03 -.898583047357614D+02
 0.481849268893664D+03 -.221372301111234D+03 -.143921457567247D+03 0.403062819279817D+03
0.429561715523D-04 0.000000000000D+00 0.000000000000D+00 0.149477586017D-07 0.000000000000D+00  6 21 1 25 23 1 21 2 0.71734470D-01 0.50038926D-01 0.13595978D+06 0.13595978D+06 0.13595978D+06 0.11515117D+01  1  2  2  1  6  1       21 0.815966958300D-02 0.100000000000D+01
-.474779441986D-05 0.226685945126D-05 -.867161341424D-07 0.149477586017D-07 0.000000000000D+00  6 21 1 25 23 1 21 4 0.71734470D-01 0.50038926D-01 0.13595978D+06 0.13595978D+06 0.13595978D+06 0.11515117D+01  1  2  3  1  6  1       21 -.119584696185D-02 0.100000000000D+01
0.423347211978D-05 0.000000000000D+00 0.000000000000D+00 0.149477586017D-07 0.000000000000D+00  6 21 1 25 23 1 21 4 0.71734470D-01 0.50038926D-01 0.13595978D+06 0.13595978D+06 0.13595978D+06 0.11515117D+01  1  2 15  1  6  1       21 0.106630243958D-02 0.100000000000D+01
-.282352917177D-03 0.000000000000D+00 -.673439230515D-04 0.149477586017D-07 0.000000000000D+00  6 21 1 25 23 1 21 4 0.16981646D+00 0.50038926D-01 0.13595978D+06 0.13595978D+06 0.13595978D+06 0.11515117D+01  1  2  5  1  6  1       21 -.830164005187D-02 0.100000000000D+01
-.944988079254D-04 0.000000000000D+00 -.201676274018D-04 0.149477586017D-07 0.000000000000D+00  6 -1 1 25 23 1 -1 4 0.16981646D+00 0.50038926D-01 0.13595978D+06 0.13595978D+06 0.13595978D+06 0.11515117D+01  1  2  5  4  6  1       21 -.350471615177D-03 0.100000000000D+01
-.944988079254D-04 0.000000000000D+00 -.201676274018D-04 0.149477586017D-07 0.000000000000D+00  6 1 1 25 23 1 1 4 0.16981646D+00 0.50038926D-01 0.13595978D+06 0.13595978D+06 0.13595978D+06 0.11515117D+01  1  2  5  5  6  1       21 -.207302312833D-02 0.100000000000D+01
-.944988079254D-04 0.000000000000D+00 -.201676274018D-04 0.149477586017D-07 0.000000000000D+00  6 -2 1 25 23 1 -2 4 0.16981646D+00 0.50038926D-01 0.13595978D+06 0.13595978D+06 0.13595978D+06 0.11515117D+01  1  2  5  6  6  1       21 -.261158221186D-03 0.100000000000D+01
-.944988079254D-04 0.000000000000D+00 -.201676274018D-04 0.149477586017D-07 0.000000000000D+00  6 -4 1 25 23 1 -4 4 0.16981646D+00 0.50038926D-01 0.13595978D+06 0.13595978D+06 0.13595978D+06 0.11515117D+01  1  2  5  6  6  1       21 -.136433126291D-03 0.100000000000D+01
-.944988079254D-04 0.000000000000D+00 -.201676274018D-04 0.149477586017D-07 0.000000000000D+00  6 2 1 25 23 1 2 4 0.16981646D+00 0.50038926D-01 0.13595978D+06 0.13595978D+06 0.13595978D+06 0.11515117D+01  1  2  5  7  6  1       21 -.400615542529D-02 0.100000000000D+01
-.944988079254D-04 0.000000000000D+00 -.201676274018D-04 0.149477586017D-07 0.000000000000D+00  6 4 1 25 23 1 4 4 0.16981646D+00 0.50038926D-01 0.13595978D+06 0.13595978D+06 0.13595978D+06 0.11515117D+01  1  2  5  7  6  1       21 -.136433126291D-03 0.100000000000D+01
-.944988079254D-04 0.000000000000D+00 -.201676274018D-04 0.149477586017D-07 0.000000000000D+00  6 -3 1 25 23 1 -3 4 0.16981646D+00 0.50038926D-01 0.13595978D+06 0.13595978D+06 0.13595978D+06 0.11515117D+01  1  2  5  8  6  1       21 -.173010903454D-03 0.100000000000D+01
-.944988079254D-04 0.000000000000D+00 -.201676274018D-04 0.149477586017D-07 0.000000000000D+00  6 3 1 25 23 1 3 4 0.16981646D+00 0.50038926D-01 0.13595978D+06 0.13595978D+06 0.13595978D+06 0.11515117D+01  1  2  5  9  6  1       21 -.173853795485D-03 0.100000000000D+01
  </mgrwgt>
  </event>
  <event>
  6     66 -.44923357E-03 0.12301319E+03 0.75467711E-02 0.10870327E+00
       21 -1    0    0  503  502 0.00000000E+00 0.00000000E+00 0.75858544E+02 0.75862251E+02 0.75000000E+00 0.0000E+00 0.9000E+01
        1 -1    0    0  502    0 0.00000000E+00 0.00000000E+00 -.20922701E+04 0.20922701E+04 0.32000000E+00 0.0000E+00 0.9000E+01
       25  1    1    2    0    0 -.20480564E+03 -.51657500E+02 -.10308482E+04 0.10596636E+04 0.12500000E+03 0.0000E+00 0.9000E+01
       23  1    1    2    0    0 0.82321993E+02 0.11983434E+03 -.89315937E+03 0.90949771E+03 0.91188000E+02 0.0000E+00 0.9000E+01
        1  1    1    2  501    0 0.13601971E+03 -.35670476E+02 -.68591284E+02 0.15645642E+03 0.32000000E+00 0.0000E+00 0.9000E+01
       21  1    1    2  503  501 -.13536069E+02 -.32506360E+02 -.23812642E+02 0.42514622E+02 0.75000000E+00 0.0000E+00 0.9000E+01
#aMCatNLO 2  0  0  1  2 0.35212053D+02 0.00000000D+00  -5  6  0 0.00000000D+00 0.00000000D+00 0.00000000D+00 0.00000000D+00 0.00000000D+00
  <mgrwgt>
 -.5561272575D-02    2    2    0
 0.369648651715704D+03 0.000000000000000D+00 0.000000000000000D+00 0.369648651715704D+03
 0.369648651715704D+03 0.000000000000000D+00 0.000000000000000D+00 -.369648651715704D+03
 0.274347228443785D+03 -.209768081678134D+03 -.635745235068608D+02 -.107689524210749D+03
 0.200902147945315D+03 0.785858110228347D+02 0.110862108164911D+03 -.116534479808150D+03
 0.264047927042308D+03 0.131182270655300D+03 -.472875846580501D+02 0.224224004018900D+03
 0.000000000000000D+00 -.000000000000000D+00 -.000000000000000D+00 0.000000000000000D+00
 0.422095218263897D+03 0.000000000000000D+00 0.000000000000000D+00 0.422095218263897D+03
 0.376025543124399D+03 0.000000000000000D+00 0.000000000000000D+00 -.376025543124399D+03
 0.268022187487940D+03 -.204805672674044D+03 -.516574854364319D+02 -.107689524210749D+03
 0.207443277560579D+03 0.823219675183638D+02 0.119834347083065D+03 -.116534479808150D+03
 0.264669922231392D+03 0.136019774649421D+03 -.356705012583786D+02 0.224224004018900D+03
 0.579853741083856D+02 -.135360694937413D+02 -.325063603882547D+02 0.460696751394988D+02
-.404448789666D-04 0.000000000000D+00 0.000000000000D+00 0.142989997042D-06 0.000000000000D+00  6 21 1 25 23 1 21 4 0.11750848D-01 0.31642718D+00 0.87877986D+05 0.87877986D+05 0.87877986D+05 0.11687624D+01  1  2 13  1  6  1       21 -.155520791418D-01 0.100000000000D+01
0.270687903187D-04 0.000000000000D+00 0.000000000000D+00 0.144293928637D-06 0.124546268629D-08  6 21 1 25 23 1 21 4 0.11670758D-01 0.32188594D+00 0.87877986D+05 0.87877986D+05 0.87877986D+05 0.11687624D+01  1  2  1  1  6  1       21 0.999080656664D-02 0.100000000000D+01
  </mgrwgt>
  </event>
  <event>
  5     66 0.44923357E-03 0.86752478E+02 0.75467711E-02 0.10574967E+00
       21 -1    0    0  501  502 0.00000000E+00 0.00000000E+00 0.10132900E+03 0.10133178E+03 0.75000000E+00 0.0000E+00 0.9000E+01
        1 -1    0    0  502    0 0.00000000E+00 0.00000000E+00 -.19432838E+04 0.19432838E+04 0.32000000E+00 0.0000E+00 0.9000E+01
       25  1    1    2    0    0 -.15906449E+03 -.17726184E+03 -.55500191E+03 0.61674581E+03 0.12500000E+03 0.0000E+00 0.9000E+01
       23  1    1    2    0    0 0.10538859E+03 0.24541521E+03 -.13084106E+04 0.13385025E+04 0.91188000E+02 0.0000E+00 0.9000E+01
        1  1    1    2  501    0 0.53675900E+02 -.68153367E+02 0.21457691E+02 0.89367323E+02 0.32000000E+00 0.0000E+00 0.9000E+01
#aMCatNLO 1  0  0  1  2 0.82248892D+02 0.00000000D+00  -5  6  0 0.00000000D+00 0.00000000D+00 0.00000000D+00 0.00000000D+00 0.00000000D+00
  <mgrwgt>
 0.4357169063D-01   23    2    0
 0.443749787594733D+03 0.000000000000000D+00 0.000000000000000D+00 0.443749787594733D+03
 0.443749787594733D+03 0.000000000000000D+00 0.000000000000000D+00 -.443749787594733D+03
 0.268980037197771D+03 -.159064501523329D+03 -.177261822671157D+03 0.141102421953173D+01
 0.368101536450573D+03 0.105388570308395D+03 0.245415229184571D+03 -.236322035210240D+03
 0.250418001541122D+03 0.536759312149341D+02 -.681534065134132D+02 0.234911010990708D+03
 0.000000000000000D+00 0.000000000000000D+00 0.000000000000000D+00 0.000000000000000D+00
 0.635007721983164D+03 0.000000000000000D+00 0.000000000000000D+00 0.635007721983164D+03
 0.454582726339262D+03 0.000000000000000D+00 0.000000000000000D+00 -.454582726339262D+03
 0.290376969803212D+03 -.167237806774938D+03 -.201800172417805D+03 0.141102421953173D+01
 0.345014130534251D+03 0.949685488319113D+02 0.214131663541749D+03 -.236322035210240D+03
 0.255911528542175D+03 0.462774616231025D+02 -.903655017240449D+02 0.234911010990708D+03
 0.198287819442787D+03 0.259917963199246D+02 0.780340106001014D+02 0.180424995643903D+03
0.534397315366D-04 0.000000000000D+00 0.000000000000D+00 0.129521503357D-06 0.000000000000D+00  6 21 1 25 23 1 21 2 0.15589293D-01 0.29896696D+00 0.10174609D+06 0.10174609D+06 0.10174609D+06 0.11628817D+01  1  2  2  1  6  1       21 0.104532451259D-01 0.100000000000D+01
0.484420146456D-05 0.282009211084D-05 -.107879421303D-06 0.129521503357D-06 0.000000000000D+00  6 21 1 25 23 1 21 4 0.15589293D-01 0.29896696D+00 0.10174609D+06 0.10174609D+06 0.10174609D+06 0.11628817D+01  1  2  3  1  6  1       21 0.128138645593D-02 0.100000000000D+01
0.854431973719D-05 0.000000000000D+00 0.000000000000D+00 0.129521503357D-06 0.000000000000D+00  6 21 1 25 23 1 21 4 0.15589293D-01 0.29896696D+00 0.10174609D+06 0.10174609D+06 0.10174609D+06 0.11628817D+01  1  2 15  1  6  1       21 0.226014043109D-02 0.100000000000D+01
0.258484374699D-03 0.000000000000D+00 0.000000000000D+00 0.127279864214D-06 0.000000000000D+00  6 21 1 25 23 1 21 4 0.22435431D-01 0.29896696D+00 0.13159408D+06 0.13159408D+06 0.13159408D+06 0.11527747D+01  1  2 12  1  6  1       21 0.327639409554D-01 0.100000000000D+01
-.146187865049D-03 0.000000000000D+00 0.000000000000D+00 0.129521503357D-06 0.000000000000D+00  6 21 1 25 23 1 21 4 0.15589293D-01 0.29896696D+00 0.10174609D+06 0.10174609D+06 0.10174609D+06 0.11628817D+01  1  2  4  1  6  1       21 -.386695622935D-01 0.100000000000D+01
-.625191343575D-03 0.000000000000D+00 -.666671558090D-04 0.129521503357D-06 0.000000000000D+00  6 21 1 25 23 1 21 4 0.22755557D-01 0.29896696D+00 0.10174609D+06 0.10174609D+06 0.10174609D+06 0.11628817D+01  1  2  5  1  6  1       21 -.812436152366D-01 0.100000000000D+01
0.460189119667D-03 0.000000000000D+00 0.508718071878D-04 0.129521503357D-06 0.000000000000D+00  6 21 1 25 23 1 21 4 0.15589293D-01 0.29896696D+00 0.10174609D+06 0.10174609D+06 0.10174609D+06 0.11628817D+01  1  2  6  1  6  1       21 0.121729062968D+00 0.100000000000D+01
0.308590795280D-04 0.000000000000D+00 0.000000000000D+00 0.127279864214D-06 0.000000000000D+00  6 -1 1 25 23 1 -1 4 0.22435431D-01 0.29896696D+00 0.13159408D+06 0.13159408D+06 0.13159408D+06 0.11527747D+01  1  2 12  4  6  1       21 0.328322165026D-03 0.100000000000D+01
-.897482091338D-04 0.000000000000D+00 -.833795885262D-05 0.129521503357D-06 0.000000000000D+00  6 -1 1 25 23 1 -1 4 0.22755557D-01 0.29896696D+00 0.10174609D+06 0.10174609D+06 0.10174609D+06 0.11628817D+01  1  2  5  4  6  1       21 -.976667937576D-03 0.100000000000D+01
0.308590795280D-04 0.000000000000D+00 0.000000000000D+00 0.127279864214D-06 0.000000000000D+00  6 1 1 25 23 1 1 4 0.22435431D-01 0.29896696D+00 0.13159408D+06 0.13159408D+06 0.13159408D+06 0.11527747D+01  1  2 12  5  6  1       21 0.513761599298D-03 0.100000000000D+01
-.897482091338D-04 0.000000000000D+00 -.833795885262D-05 0.129521503357D-06 0.000000000000D+00  6 1 1 25 23 1 1 4 0.22755557D-01 0.29896696D+00 0.10174609D+06 0.10174609D+06 0.10174609D+06 0.11628817D+01  1  2  5  5  6  1       21 -.153623709545D-02 0.100000000000D+01
0.308590795280D-04 0.000000000000D+00 0.000000000000D+00 0.127279864214D-06 0.000000000000D+00  6 -2 1 25 23 1 -2 4 0.22435431D-01 0.29896696D+00 0.13159408D+06 0.13159408D+06 0.13159408D+06 0.11527747D+01  1  2 12  6  6  1       21 0.297716947235D-03 0.100000000000D+01
0.308590795280D-04 0.000000000000D+00 0.000000000000D+00 0.127279864214D-06 0.000000000000D+00  6 -4 1 25 23 1 -4 4 0.22435431D-01 0.29896696D+00 0.13159408D+06 0.13159408D+06 0.13159408D+06 0.11527747D+01  1  2 12  6  6  1       21 0.172741763005D-03 0.100000000000D+01
-.897482091338D-04 0.000000000000D+00 -.833795885262D-05 0.129521503357D-06 0.000000000000D+00  6 -2 1 25 23 1 -2 4 0.22755557D-01 0.29896696D+00 0.10174609D+06 0.10174609D+06 0.10174609D+06 0.11628817D+01  1  2  5  6  6  1       21 -.884248485072D-03 0.100000000000D+01
-.897482091338D-04 0.000000000000D+00 -.833795885262D-05 0.129521503357D-06 0.000000000000D+00  6 -4 1 25 23 1 -4 4 0.22755557D-01 0.29896696D+00 0.10174609D+06 0.10174609D+06 0.10174609D+06 0.11628817D+01  1  2  5  6  6  1       21 -.509025137109D-03 0.100000000000D+01
0.308590795280D-04 0.000000000000D+00 0.000000000000D+00 0.127279864214D-06 0.000000000000D+00  6 2 1 25 23 1 2 4 0.22435431D-01 0.29896696D+00 0.13159408D+06 0.13159408D+06 0.13159408D+06 0.11527747D+01  1  2 12  7  6  1       21 0.647033183447D-03 0.100000000000D+01
0.308590795280D-04 0.000000000000D+00 0.000000000000D+00 0.127279864214D-06 0.000000000000D+00  6 4 1 25 23 1 4 4 0.22435431D-01 0.29896696D+00 0.13159408D+06 0.13159408D+06 0.13159408D+06 0.11527747D+01  1  2 12  7  6  1       21 0.172741763005D-03 0.100000000000D+01
-.897482091338D-04 0.000000000000D+00 -.833795885262D-05 0.129521503357D-06 0.000000000000D+00  6 2 1 25 23 1 2 4 0.22755557D-01 0.29896696D+00 0.10174609D+06 0.10174609D+06 0.10174609D+06 0.11628817D+01  1  2  5  7  6  1       21 -.193812021042D-02 0.100000000000D+01
-.897482091338D-04 0.000000000000D+00 -.833795885262D-05 0.129521503357D-06 0.000000000000D+00  6 4 1 25 23 1 4 4 0.22755557D-01 0.29896696D+00 0.10174609D+06 0.10174609D+06 0.10174609D+06 0.11628817D+01  1  2  5  7  6  1       21 -.509025137109D-03 0.100000000000D+01
0.308590795280D-04 0.000000000000D+00 0.000000000000D+00 0.127279864214D-06 0.000000000000D+00  6 -3 1 25 23 1 -3 4 0.22435431D-01 0.29896696D+00 0.13159408D+06 0.13159408D+06 0.13159408D+06 0.11527747D+01  1  2 12  8  6  1       21 0.200055630476D-03 0.100000000000D+01
-.897482091338D-04 0.000000000000D+00 -.833795885262D-05 0.129521503357D-06 0.000000000000D+00  6 -3 1 25 23 1 -3 4 0.22755557D-01 0.29896696D+00 0.10174609D+06 0.10174609D+06 0.10174609D+06 0.11628817D+01  1  2  5  8  6  1       21 -.591014677099D-03 0.100000000000D+01
0.308590795280D-04 0.000000000000D+00 0.000000000000D+00 0.127279864214D-06 0.000000000000D+00  6 3 1 25 23 1 3 4 0.22435431D-01 0.29896696D+00 0.13159408D+06 0.13159408D+06 0.13159408D+06 0.11527747D+01  1  2 12  9  6  1       21 0.200047071274D-03 0.100000000000D+01
-.897482091338D-04 0.000000000000D+00 -.833795885262D-05 0.129521503357D-06 0.000000000000D+00  6 3 1 25 23 1 3 4 0.22755557D-01 0.29896696D+00 0.10174609D+06 0.10174609D+06 0.10174609D+06 0.11628817D+01  1  2  5  9  6  1       21 -.590989221673D-03 0.100000000000D+01
  </mgrwgt>
  </event>
  <event>
  5     66 0.44923357E-03 0.87053943E+02 0.75467711E-02 0.11588868E+00
       21 -1    0    0  501  502 0.00000000E+00 0.00000000E+00 0.84674046E+02 0.84677367E+02 0.75000000E+00 0.0000E+00 0.9000E+01
        1 -1    0    0  502    0 0.00000000E+00 0.00000000E+00 -.50803944E+03 0.50803954E+03 0.32000000E+00 0.0000E+00 0.9000E+01
       25  1    1    2    0    0 0.14415008E+02 0.11406173E+03 -.57981085E+02 0.17945661E+03 0.12500000E+03 0.0000E+00 0.9000E+01
       23  1    1    2    0    0 -.29784526E+02 -.23906652E+02 -.22436730E+03 0.24518275E+03 0.91188000E+02 0.0000E+00 0.9000E+01
        1  1    1    2  501    0 0.15369518E+02 -.90155076E+02 -.14101701E+03 0.16807754E+03 0.32000000E+00 0.0000E+00 0.9000E+01
#aMCatNLO 1  0  0  1  2 0.18455901D+02 0.00000000D+00  -5  6  0 0.00000000D+00 0.00000000D+00 0.00000000D+00 0.00000000D+00 0.00000000D+00
  <mgrwgt>
 0.2578932319D-01   23    2    0
 0.207409663942733D+03 0.000000000000000D+00 0.000000000000000D+00 0.207409663942733D+03
 0.207409663942733D+03 0.000000000000000D+00 0.000000000000000D+00 -.207409663942733D+03
 0.197242151747817D+03 0.144149676517794D+02 0.114061965569616D+03 0.100307243726976D+03
 0.121340999125725D+03 -.297845504912162D+02 -.239065064333713D+02 -.703544328881738D+02
 0.962361770119242D+02 0.153695828394368D+02 -.901554591362444D+02 -.299528108388022D+02
 0.000000000000000D+00 -.000000000000000D+00 -.000000000000000D+00 0.000000000000000D+00
 0.217279860121817D+03 0.000000000000000D+00 0.000000000000000D+00 0.217279860121817D+03
 0.216425494635674D+03 0.000000000000000D+00 0.000000000000000D+00 -.216425494635674D+03
 0.199967564169272D+03 0.225777683009940D+02 0.117433930166011D+03 0.100307243726976D+03
 0.119830172896887D+03 -.248283973039438D+02 -.218591731956790D+02 -.703544328881738D+02
 0.954319524469919D+02 0.193084309312281D+02 -.885283636224789D+02 -.299528108388022D+02
 0.184756652443410D+02 -.170578019282783D+02 -.704639334785291D+01 0.854365486142406D+00
0.114529453857D-05 0.000000000000D+00 0.000000000000D+00 0.573867637966D-07 0.000000000000D+00  6 21 1 25 23 1 21 2 0.13027039D-01 0.78160177D-01 0.32427223D+05 0.32427223D+05 0.32427223D+05 0.12113681D+01  1  2  2  1  6  1       21 0.416421820229D-02 0.100000000000D+01
-.105842086512D-06 0.604388532641D-07 -.231201969939D-08 0.573867637966D-07 0.000000000000D+00  6 21 1 25 23 1 21 4 0.13027039D-01 0.78160177D-01 0.32427223D+05 0.32427223D+05 0.32427223D+05 0.12113681D+01  1  2  3  1  6  1       21 -.564711896316D-03 0.100000000000D+01
0.141236257783D-06 0.000000000000D+00 0.000000000000D+00 0.573867637966D-07 0.000000000000D+00  6 21 1 25 23 1 21 4 0.13027039D-01 0.78160177D-01 0.32427223D+05 0.32427223D+05 0.32427223D+05 0.12113681D+01  1  2 15  1  6  1       21 0.753554635868D-03 0.100000000000D+01
0.266609218738D-05 0.000000000000D+00 0.000000000000D+00 0.569521821088D-07 0.000000000000D+00  6 21 1 25 23 1 21 4 0.13917427D-01 0.78160177D-01 0.35921236D+05 0.35921236D+05 0.35921236D+05 0.12067726D+01  1  2 12  1  6  1       21 0.124221388737D-01 0.100000000000D+01
-.119656677608D-05 0.000000000000D+00 0.000000000000D+00 0.573867637966D-07 0.000000000000D+00  6 21 1 25 23 1 21 4 0.13027039D-01 0.78160177D-01 0.32427223D+05 0.32427223D+05 0.32427223D+05 0.12113681D+01  1  2  4  1  6  1       21 -.638418530337D-02 0.100000000000D+01
-.203654265660D-04 0.000000000000D+00 -.413505816732D-05 0.573867637966D-07 0.000000000000D+00  6 21 1 25 23 1 21 4 0.14230283D-01 0.78160177D-01 0.32427223D+05 0.32427223D+05 0.32427223D+05 0.12113681D+01  1  2  5  1  6  1       21 -.926492634960D-01 0.100000000000D+01
0.204018722622D-04 0.000000000000D+00 0.407121788297D-05 0.573867637966D-07 0.000000000000D+00  6 21 1 25 23 1 21 4 0.13027039D-01 0.78160177D-01 0.32427223D+05 0.32427223D+05 0.32427223D+05 0.12113681D+01  1  2  6  1  6  1       21 0.108852540168D+00 0.100000000000D+01
0.443629779516D-07 0.000000000000D+00 0.000000000000D+00 0.569521821088D-07 0.000000000000D+00  6 -1 1 25 23 1 -1 4 0.13917427D-01 0.78160177D-01 0.35921236D+05 0.35921236D+05 0.35921236D+05 0.12067726D+01  1  2 12  4  6  1       21 0.149726685380D-04 0.100000000000D+01
-.380065704002D-06 0.000000000000D+00 -.919351213889D-07 0.573867637966D-07 0.000000000000D+00  6 -1 1 25 23 1 -1 4 0.14230283D-01 0.78160177D-01 0.32427223D+05 0.32427223D+05 0.32427223D+05 0.12113681D+01  1  2  5  4  6  1       21 -.125651940026D-03 0.100000000000D+01
0.443629779516D-07 0.000000000000D+00 0.000000000000D+00 0.569521821088D-07 0.000000000000D+00  6 1 1 25 23 1 1 4 0.13917427D-01 0.78160177D-01 0.35921236D+05 0.35921236D+05 0.35921236D+05 0.12067726D+01  1  2 12  5  6  1       21 0.202209427520D-04 0.100000000000D+01
-.380065704002D-06 0.000000000000D+00 -.919351213889D-07 0.573867637966D-07 0.000000000000D+00  6 1 1 25 23 1 1 4 0.14230283D-01 0.78160177D-01 0.32427223D+05 0.32427223D+05 0.32427223D+05 0.12113681D+01  1  2  5  5  6  1       21 -.170703120595D-03 0.100000000000D+01
0.443629779516D-07 0.000000000000D+00 0.000000000000D+00 0.569521821088D-07 0.000000000000D+00  6 -2 1 25 23 1 -2 4 0.13917427D-01 0.78160177D-01 0.35921236D+05 0.35921236D+05 0.35921236D+05 0.12067726D+01  1  2 12  6  6  1       21 0.140701709634D-04 0.100000000000D+01
0.443629779516D-07 0.000000000000D+00 0.000000000000D+00 0.569521821088D-07 0.000000000000D+00  6 -4 1 25 23 1 -4 4 0.13917427D-01 0.78160177D-01 0.35921236D+05 0.35921236D+05 0.35921236D+05 0.12067726D+01  1  2 12  6  6  1       21 0.829934241370D-05 0.100000000000D+01
-.380065704002D-06 0.000000000000D+00 -.919351213889D-07 0.573867637966D-07 0.000000000000D+00  6 -2 1 25 23 1 -2 4 0.14230283D-01 0.78160177D-01 0.32427223D+05 0.32427223D+05 0.32427223D+05 0.12113681D+01  1  2  5  6  6  1       21 -.117905676049D-03 0.100000000000D+01
-.380065704002D-06 0.000000000000D+00 -.919351213889D-07 0.573867637966D-07 0.000000000000D+00  6 -4 1 25 23 1 -4 4 0.14230283D-01 0.78160177D-01 0.32427223D+05 0.32427223D+05 0.32427223D+05 0.12113681D+01  1  2  5  6  6  1       21 -.691555543676D-04 0.100000000000D+01
0.443629779516D-07 0.000000000000D+00 0.000000000000D+00 0.569521821088D-07 0.000000000000D+00  6 2 1 25 23 1 2 4 0.13917427D-01 0.78160177D-01 0.35921236D+05 0.35921236D+05 0.35921236D+05 0.12067726D+01  1  2 12  7  6  1       21 0.238362105088D-04 0.100000000000D+01
0.443629779516D-07 0.000000000000D+00 0.000000000000D+00 0.569521821088D-07 0.000000000000D+00  6 4 1 25 23 1 4 4 0.13917427D-01 0.78160177D-01 0.35921236D+05 0.35921236D+05 0.35921236D+05 0.12067726D+01  1  2 12  7  6  1       21 0.829934241370D-05 0.100000000000D+01
-.380065704002D-06 0.000000000000D+00 -.919351213889D-07 0.573867637966D-07 0.000000000000D+00  6 2 1 25 23 1 2 4 0.14230283D-01 0.78160177D-01 0.32427223D+05 0.32427223D+05 0.32427223D+05 0.12113681D+01  1  2  5  7  6  1       21 -.201751848041D-03 0.100000000000D+01
-.380065704002D-06 0.000000000000D+00 -.919351213889D-07 0.573867637966D-07 0.000000000000D+00  6 4 1 25 23 1 4 4 0.14230283D-01 0.78160177D-01 0.32427223D+05 0.32427223D+05 0.32427223D+05 0.12113681D+01  1  2  5  7  6  1       21 -.691555543676D-04 0.100000000000D+01
0.443629779516D-07 0.000000000000D+00 0.000000000000D+00 0.569521821088D-07 0.000000000000D+00  6 -3 1 25 23 1 -3 4 0.13917427D-01 0.78160177D-01 0.35921236D+05 0.35921236D+05 0.35921236D+05 0.12067726D+01  1  2 12  8  6  1       21 0.955110076319D-05 0.100000000000D+01
-.380065704002D-06 0.000000000000D+00 -.919351213889D-07 0.573867637966D-07 0.000000000000D+00  6 -3 1 25 23 1 -3 4 0.14230283D-01 0.78160177D-01 0.32427223D+05 0.32427223D+05 0.32427223D+05 0.12113681D+01  1  2  5  8  6  1       21 -.797267178231D-04 0.100000000000D+01
0.443629779516D-07 0.000000000000D+00 0.000000000000D+00 0.569521821088D-07 0.000000000000D+00  6 3 1 25 23 1 3 4 0.13917427D-01 0.78160177D-01 0.35921236D+05 0.35921236D+05 0.35921236D+05 0.12067726D+01  1  2 12  9  6  1       21 0.954998199664D-05 0.100000000000D+01
-.380065704002D-06 0.000000000000D+00 -.919351213889D-07 0.573867637966D-07 0.000000000000D+00  6 3 1 25 23 1 3 4 0.14230283D-01 0.78160177D-01 0.32427223D+05 0.32427223D+05 0.32427223D+05 0.12113681D+01  1  2  5  9  6  1       21 -.797173411328D-04 0.100000000000D+01
  </mgrwgt>
  </event>
  <event>
  5     66 0.44923357E-03 0.16281623E+03 0.75467711E-02 0.11296460E+00
       21 -1    0    0  501  502 0.00000000E+00 0.00000000E+00 0.52380049E+03 0.52380102E+03 0.75000000E+00 0.0000E+00 0.9000E+01
        1 -1    0    0  502    0 0.00000000E+00 0.00000000E+00 -.37025550E+03 0.37025563E+03 0.32000000E+00 0.0000E+00 0.9000E+01
       25  1    1    2    0    0 0.63763425E+01 0.11231959E+03 0.28373350E+03 0.32982730E+03 0.12500000E+03 0.0000E+00 0.9000E+01
       23  1    1    2    0    0 -.59974751E+02 0.41421511E+02 0.17963178E+03 0.21423245E+03 0.91188000E+02 0.0000E+00 0.9000E+01
        1  1    1    2  501    0 0.53598408E+02 -.15374110E+03 -.30982030E+03 0.34999691E+03 0.32000000E+00 0.0000E+00 0.9000E+01
#aMCatNLO 1  0  0  2  2 0.33218361D+01 0.00000000D+00  -5  6  0 0.00000000D+00 0.00000000D+00 0.00000000D+00 0.00000000D+00 0.00000000D+00
  <mgrwgt>
 0.1560768793D-01    6    2    0
 0.440386546528160D+03 0.000000000000000D+00 0.000000000000000D+00 0.440386546528160D+03
 0.440386546528160D+03 0.000000000000000D+00 0.000000000000000D+00 -.440386546528160D+03
 0.285338495867645D+03 0.637633720361881D+01 0.112319607783145D+03 0.230514002297726D+03
 0.186148288670872D+03 -.599747540537646D+02 0.414215205630454D+02 0.144993863806472D+03
 0.409286308517803D+03 0.535984168501458D+02 -.153741128346190D+03 -.375507866104198D+03
 0.000000000000000D+00 -.000000000000000D+00 0.000000000000000D+00 0.000000000000000D+00
 0.444283033394980D+03 0.000000000000000D+00 0.000000000000000D+00 0.444283033394980D+03
 0.441098231747485D+03 0.000000000000000D+00 0.000000000000000D+00 -.441098231747485D+03
 0.285014620649583D+03 0.701709700325245D+01 0.111455771848551D+03 0.230514002297726D+03
 0.185889384054557D+03 -.595567905540868D+02 0.408580459340554D+02 0.144993863806472D+03
 0.409875352483170D+03 0.545186991219000D+02 -.154981800586810D+03 -.375507866104198D+03
 0.460190795515570D+01 -.197900557106565D+01 0.266798280420384D+01 0.318480164749535D+01
0.850025542066D-04 0.000000000000D+00 0.000000000000D+00 0.114568237294D-06 0.000000000000D+00  6 21 1 25 23 1 21 2 0.80584742D-01 0.56962436D-01 0.50114578D+05 0.50114578D+05 0.50114578D+05 0.11921833D+01  1  2  2  2  6  2        1 0.118310598869D-01 0.100000000000D+01
-.722546190712D-05 0.448570802335D-05 -.171595666622D-06 0.114568237294D-06 0.000000000000D+00  6 21 1 25 23 1 21 4 0.80584742D-01 0.56962436D-01 0.50114578D+05 0.50114578D+05 0.50114578D+05 0.11921833D+01  1  2  3  2  6  2        1 -.142936576789D-02 0.100000000000D+01
0.912677074870D-05 0.000000000000D+00 0.000000000000D+00 0.114568237294D-06 0.000000000000D+00  6 21 1 25 23 1 21 4 0.80584742D-01 0.56962436D-01 0.50114578D+05 0.50114578D+05 0.50114578D+05 0.11921833D+01  1  2 15  2  6  2        1 0.180548923339D-02 0.100000000000D+01
-.187847057225D-02 0.000000000000D+00 0.000000000000D+00 0.114568237294D-06 0.000000000000D+00  6 21 1 25 23 1 21 4 0.80584742D-01 0.56962436D-01 0.50114578D+05 0.50114578D+05 0.50114578D+05 0.11921833D+01  1  2  4  2  6  2        1 -.371605520377D+00 0.100000000000D+01
0.187711333988D-02 0.000000000000D+00 0.000000000000D+00 0.114568237294D-06 0.163231868080D-06  6 21 1 25 23 1 21 4 0.81297746D-01 0.57054490D-01 0.50976442D+05 0.50976442D+05 0.50976442D+05 0.11914508D+01  1  2 11  2  6  2        1 0.362009339557D+00 0.100000000000D+01
0.172949909227D-04 0.000000000000D+00 0.000000000000D+00 0.114427490481D-06 0.141963167541D-08  6 21 21 25 23 1 -1 4 0.81297746D-01 0.57054490D-01 0.50976442D+05 0.50976442D+05 0.50976442D+05 0.11914508D+01  1  2 11 10  6  2        1 0.129966854024D-01 0.100000000000D+01
  </mgrwgt>
  </event>
  <event>
  5     66 -.44923357E-03 0.58346736E+02 0.75467711E-02 0.10877046E+00
       21 -1    0    0  501  502 0.00000000E+00 0.00000000E+00 0.58438588E+02 0.58443401E+02 0.75000000E+00 0.0000E+00 0.9000E+01
        1 -1    0    0  502    0 0.00000000E+00 0.00000000E+00 -.23025856E+04 0.23025856E+04 0.32000000E+00 0.0000E+00 0.9000E+01
       25  1    1    2    0    0 -.11672982E+02 0.47092109E+02 -.93642439E+03 0.94597545E+03 0.12500000E+03 0.0000E+00 0.9000E+01
       23  1    1    2    0    0 0.41450267E+02 -.97268328E+02 -.13407544E+04 0.13480047E+04 0.91188000E+02 0.0000E+00 0.9000E+01
        1  1    1    2  501    0 -.29777284E+02 0.50176219E+02 0.33031781E+02 0.67048792E+02 0.32000000E+00 0.0000E+00 0.9000E+01
#aMCatNLO 1  0  0  1  2 0.33450529D+02 0.00000000D+00  -5  6  0 0.00000000D+00 0.00000000D+00 0.00000000D+00 0.00000000D+00 0.00000000D+00
  <mgrwgt>
 -.2659502890D+00   12    2    0
 0.366831782790977D+03 0.000000000000000D+00 0.000000000000000D+00 0.366831782790977D+03
 0.366831782790977D+03 0.000000000000000D+00 0.000000000000000D+00 -.366831782790977D+03
 0.179921061275677D+03 -.116729787516495D+02 0.470921030833420D+02 -.119969428125741D+03
 0.236932085318951D+03 0.414502716543735D+02 -.972683365904489D+02 -.191421804887250D+03
 0.316810418987326D+03 -.297772929027239D+02 0.501762335071069D+02 0.311391233012991D+03
 0.000000000000000D+00 -.000000000000000D+00 -.000000000000000D+00 0.000000000000000D+00
 0.320989451295225D+04 0.000000000000000D+00 0.000000000000000D+00 0.320989451295225D+04
 0.383034634248780D+03 0.000000000000000D+00 0.000000000000000D+00 -.383034634248780D+03
 0.188449440030684D+03 0.324675894667974D+02 0.666437048585716D+02 -.119969428125741D+03
 0.244814781945380D+03 0.991763392496157D+02 -.716991803420141D+02 -.191421804887250D+03
 0.326041776960249D+03 0.472534712571976D+02 0.842962026439566D+02 0.311391233012991D+03
 0.283362314826472D+04 -.178897399973611D+03 -.792407271605141D+02 0.282685987870347D+04
0.170944329281D-04 0.000000000000D+00 0.000000000000D+00 0.366208932073D-05 0.000000000000D+00  6 21 1 25 23 1 21 2 0.89909240D-02 0.35424430D+00 0.27565126D+05 0.27565126D+05 0.27565126D+05 0.12187757D+01  1  2  2  1  6  1       21 0.621812535374D-02 0.100000000000D+01
0.259132142236D-05 0.902098009361D-06 -.345087349574D-07 0.366208932073D-05 0.000000000000D+00  6 21 1 25 23 1 21 4 0.89909240D-02 0.35424430D+00 0.27565126D+05 0.27565126D+05 0.27565126D+05 0.12187757D+01  1  2  3  1  6  1       21 0.140014690646D-02 0.100000000000D+01
0.163248686280D-05 0.000000000000D+00 0.000000000000D+00 0.366208932073D-05 0.000000000000D+00  6 21 1 25 23 1 21 4 0.89909240D-02 0.35424430D+00 0.27565126D+05 0.27565126D+05 0.27565126D+05 0.12187757D+01  1  2 15  1  6  1       21 0.882067894422D-03 0.100000000000D+01
-.227591256815D-01 0.000000000000D+00 -.370356982381D-03 0.366208932073D-05 0.000000000000D+00  6 21 1 25 23 1 21 4 0.79731149D-01 0.35424430D+00 0.27565126D+05 0.27565126D+05 0.27565126D+05 0.12187757D+01  1  2  5  1  6  1       21 -.176960877596D+00 0.100000000000D+01
-.995355240227D-02 0.000000000000D+00 -.161130837895D-03 0.366208932073D-05 0.000000000000D+00  6 -1 1 25 23 1 -1 4 0.79731149D-01 0.35424430D+00 0.27565126D+05 0.27565126D+05 0.27565126D+05 0.12187757D+01  1  2  5  4  6  1       21 -.849856307081D-02 0.100000000000D+01
-.995355240227D-02 0.000000000000D+00 -.161130837895D-03 0.366208932073D-05 0.000000000000D+00  6 1 1 25 23 1 1 4 0.79731149D-01 0.35424430D+00 0.27565126D+05 0.27565126D+05 0.27565126D+05 0.12187757D+01  1  2  5  5  6  1       21 -.263373457870D-01 0.100000000000D+01
-.995355240227D-02 0.000000000000D+00 -.161130837895D-03 0.366208932073D-05 0.000000000000D+00  6 -2 1 25 23 1 -2 4 0.79731149D-01 0.35424430D+00 0.27565126D+05 0.27565126D+05 0.27565126D+05 0.12187757D+01  1  2  5  6  6  1       21 -.649103271933D-02 0.100000000000D+01
-.995355240227D-02 0.000000000000D+00 -.161130837895D-03 0.366208932073D-05 0.000000000000D+00  6 -4 1 25 23 1 -4 4 0.79731149D-01 0.35424430D+00 0.27565126D+05 0.27565126D+05 0.27565126D+05 0.12187757D+01  1  2  5  6  6  1       21 -.330043766491D-02 0.100000000000D+01
-.995355240227D-02 0.000000000000D+00 -.161130837895D-03 0.366208932073D-05 0.000000000000D+00  6 2 1 25 23 1 2 4 0.79731149D-01 0.35424430D+00 0.27565126D+05 0.27565126D+05 0.27565126D+05 0.12187757D+01  1  2  5  7  6  1       21 -.413958352665D-01 0.100000000000D+01
-.995355240227D-02 0.000000000000D+00 -.161130837895D-03 0.366208932073D-05 0.000000000000D+00  6 4 1 25 23 1 4 4 0.79731149D-01 0.35424430D+00 0.27565126D+05 0.27565126D+05 0.27565126D+05 0.12187757D+01  1  2  5  7  6  1       21 -.330043766491D-02 0.100000000000D+01
-.995355240227D-02 0.000000000000D+00 -.161130837895D-03 0.366208932073D-05 0.000000000000D+00  6 -3 1 25 23 1 -3 4 0.79731149D-01 0.35424430D+00 0.27565126D+05 0.27565126D+05 0.27565126D+05 0.12187757D+01  1  2  5  8  6  1       21 -.408045676506D-02 0.100000000000D+01
-.995355240227D-02 0.000000000000D+00 -.161130837895D-03 0.366208932073D-05 0.000000000000D+00  6 3 1 25 23 1 3 4 0.79731149D-01 0.35424430D+00 0.27565126D+05 0.27565126D+05 0.27565126D+05 0.12187757D+01  1  2  5  9  6  1       21 -.408564258986D-02 0.100000000000D+01
  </mgrwgt>
  </event>
  <event>
  5     66 0.44923357E-03 0.95763730E+02 0.75467711E-02 0.10849532E+00
       21 -1    0    0  501  502 0.00000000E+00 0.00000000E+00 0.75625127E+03 0.75625165E+03 0.75000000E+00 0.0000E+00 0.9000E+01
        1 -1    0    0  502    0 0.00000000E+00 0.00000000E+00 -.81403580E+02 0.81404209E+02 0.32000000E+00 0.0000E+00 0.9000E+01
       25  1    1    2    0    0 0.75043524E+02 -.42210262E+02 0.19447988E+03 0.24669953E+03 0.12500000E+03 0.0000E+00 0.9000E+01
       23  1    1    2    0    0 -.13184199E+03 0.11931139E+03 0.15824644E+03 0.25490137E+03 0.91188000E+02 0.0000E+00 0.9000E+01
        1  1    1    2  501    0 0.56798469E+02 -.77101130E+02 0.32212137E+03 0.33605495E+03 0.32000000E+00 0.0000E+00 0.9000E+01
#aMCatNLO 1  0  0  1  1 0.37930302D+00 0.00000000D+00  -5  6  0 0.00000000D+00 0.00000000D+00 0.00000000D+00 0.00000000D+00 0.00000000D+00
  <mgrwgt>
 0.2203211822D-01    3    2    0
 0.248116867891656D+03 0.000000000000000D+00 0.000000000000000D+00 0.248116867891656D+03
 0.248116867891656D+03 0.000000000000000D+00 0.000000000000000D+00 -.248116867891656D+03
 0.151954582160477D+03 0.750434708238512D+02 -.422101896635163D+02 -.720918961084050D+01
 0.215074955199157D+03 -.131842068365477D+03 0.119311495064607D+03 -.795262294119383D+02
 0.129204198423677D+03 0.567985975416260D+02 -.771013054010910D+02 0.867354190227789D+02
 0.000000000000000D+00 -.000000000000000D+00 0.000000000000000D+00 -.000000000000000D+00
 0.280454263549973D+03 0.000000000000000D+00 0.000000000000000D+00 0.280454263549973D+03
 0.440354582102550D+03 0.000000000000000D+00 0.000000000000000D+00 -.440354582102550D+03
 0.171206231596462D+03 0.810967222697876D+02 -.840114454090233D+02 -.720918961084050D+01
 0.186123112828955D+03 -.124327070624369D+03 0.674160228033568D+02 -.795262294119383D+02
 0.156152978309573D+03 0.621437342944010D+02 -.114012613380449D+03 0.867354190227789D+02
 0.207326522917534D+03 -.189133859398195D+02 0.130608035986116D+03 -.159900318552577D+03
0.497119306179D-04 0.000000000000D+00 0.000000000000D+00 0.107994780950D-06 0.000000000000D+00  6 21 1 25 23 1 21 2 0.11634643D+00 0.12523705D-01 0.50037030D+05 0.50037030D+05 0.50037030D+05 0.11922499D+01  1  2  2  1  6  1       21 0.201316980502D-01 0.100000000000D+01
-.868606919776D-06 0.262337065175D-05 -.100354065276D-06 0.107994780950D-06 0.000000000000D+00  6 21 1 25 23 1 21 4 0.11634643D+00 0.12523705D-01 0.50037030D+05 0.50037030D+05 0.50037030D+05 0.11922499D+01  1  2  3  1  6  1       21 -.500008819689D-03 0.100000000000D+01
0.416998491175D-05 0.000000000000D+00 0.000000000000D+00 0.107994780950D-06 0.000000000000D+00  6 21 1 25 23 1 21 4 0.11634643D+00 0.12523705D-01 0.50037030D+05 0.50037030D+05 0.50037030D+05 0.11922499D+01  1  2 15  1  6  1       21 0.240042899311D-02 0.100000000000D+01
  </mgrwgt>
  </event>
  <event>
  5     66 -.44923357E-03 0.28467482E+02 0.75467711E-02 0.11830367E+00
       21 -1    0    0  501  502 0.00000000E+00 0.00000000E+00 0.33745140E+02 0.33753474E+02 0.75000000E+00 0.0000E+00 0.9000E+01
        1 -1    0    0  502    0 -.00000000E+00 -.00000000E+00 -.11572656E+04 0.11572657E+04 0.32000000E+00 0.0000E+00 0.9000E+01
       25  1    1    2    0    0 -.34695290E+01 -.11285280E+03 -.78011994E+03 0.79809768E+03 0.12500000E+03 0.0000E+00 0.9000E+01
       23  1    1    2    0    0 -.19011387E+02 0.95389923E+02 -.16438395E+03 0.21165539E+03 0.91188000E+02 0.0000E+00 0.9000E+01
        1  1    1    2  501    0 0.22480916E+02 0.17462877E+02 -.17901662E+03 0.18126609E+03 0.32000000E+00 0.0000E+00 0.9000E+01
#aMCatNLO 1  0  0  5  1 0.30186242D+01 0.00000000D+00  -5  6  0 0.00000000D+00 0.00000000D+00 0.00000000D+00 0.00000000D+00 0.00000000D+00
  <mgrwgt>
 -.2673802677D-01    4    2    0
 0.197628642705029D+03 0.000000000000000D+00 0.000000000000000D+00 0.197628642705029D+03
 0.197628642705029D+03 -.000000000000000D+00 -.000000000000000D+00 -.197628642705029D+03
 0.187394113901810D+03 -.346992025276551D+01 -.112853104219102D+03 -.821199759291026D+02
 0.170514093358916D+03 -.190117427959362D+02 0.953896466118071D+02 0.106297571210019D+03
 0.373490781493320D+02 0.224816630487017D+02 0.174634576072948D+02 -.241775952809159D+02
 0.000000000000000D+00 0.000000000000000D+00 -.000000000000000D+00 0.000000000000000D+00
 0.197628642705029D+03 0.000000000000000D+00 0.000000000000000D+00 0.197628642705029D+03
 0.197628642705029D+03 -.000000000000000D+00 -.000000000000000D+00 -.197628642705029D+03
 0.187630647305884D+03 0.331152169245248D+01 -.107585370080836D+03 -.894129843874772D+02
 0.168678107901890D+03 -.128782485335481D+02 0.100154063585932D+03 0.997013891743482D+02
 0.116429776139715D+02 -.668738098505787D+01 -.284802073380531D+01 0.909541869184393D+01
 0.273055525883121D+02 0.162541078261535D+02 0.102793272287085D+02 -.193838234787150D+02
0.693230111422D-05 0.000000000000D+00 0.000000000000D+00 0.886344104986D-07 0.000000000000D+00  6 21 1 25 23 1 21 2 0.51922045D-02 0.17804151D+00 0.27263982D+05 0.27263982D+05 0.27263982D+05 0.12192816D+01  1  2  2  3  6  5        1 0.361635317330D-01 0.100000000000D+01
-.121099094029D-06 0.365827580342D-06 -.139943186651D-07 0.886344104986D-07 0.000000000000D+00  6 21 1 25 23 1 21 4 0.51922045D-02 0.17804151D+00 0.27263982D+05 0.27263982D+05 0.27263982D+05 0.12192816D+01  1  2  3  3  6  5        1 -.939166045114D-03 0.100000000000D+01
0.769526437742D-06 0.000000000000D+00 0.000000000000D+00 0.886344104986D-07 0.000000000000D+00  6 21 1 25 23 1 21 4 0.51922045D-02 0.17804151D+00 0.27263982D+05 0.27263982D+05 0.27263982D+05 0.12192816D+01  1  2 15  3  6  5        1 0.596794804236D-02 0.100000000000D+01
-.875915684374D-05 0.000000000000D+00 0.000000000000D+00 0.886344104986D-07 0.000000000000D+00  6 21 1 25 23 1 21 4 0.51922045D-02 0.17804151D+00 0.27263982D+05 0.27263982D+05 0.27263982D+05 0.12192816D+01  1  2  4  3  6  5        1 -.679303404984D-01 0.100000000000D+01
  </mgrwgt>
  </event>
  <event>
  5     66 0.44923357E-03 0.17711050E+03 0.75467711E-02 0.11143517E+00
       21 -1    0    0  501  502 0.00000000E+00 0.00000000E+00 0.90571256E+02 0.90574361E+02 0.75000000E+00 0.0000E+00 0.9000E+01
        1 -1    0    0  502    0 0.00000000E+00 0.00000000E+00 -.94428470E+03 0.94428476E+03 0.32000000E+00 0.0000E+00 0.9000E+01
       25  1    1    2    0    0 0.38358976E+02 -.49554327E+02 -.49543245E+03 0.51478671E+03 0.12500000E+03 0.0000E+00 0.9000E+01
       23  1    1    2    0    0 0.13737291E+03 0.71607989E+02 -.96553372E+02 0.20405103E+03 0.91188000E+02 0.0000E+00 0.9000E+01
        1  1    1    2  501    0 -.17573188E+03 -.22053662E+02 -.26172762E+03 0.31602137E+03 0.32000000E+00 0.0000E+00 0.9000E+01
#aMCatNLO 1  0  0  1  2 0.70219941D+02 0.00000000D+00  -5  6  0 0.00000000D+00 0.00000000D+00 0.00000000D+00 0.00000000D+00 0.00000000D+00
  <mgrwgt>
 0.2201876912D-02    1    2    0
 0.292449459175907D+03 0.000000000000000D+00 0.000000000000000D+00 0.292449459175907D+03
 0.292449459175907D+03 0.000000000000000D+00 0.000000000000000D+00 -.292449459175907D+03
 0.187680948415671D+03 0.383590680273037D+02 -.495543155531238D+02 -.125188218728217D+03
 0.220098205717426D+03 0.137373013276148D+03 0.716080022095812D+02 0.126999677397284D+03
 0.177119764218717D+03 -.175732081303452D+03 -.220536866564574D+02 -.181145866906634D+01
 0.000000000000000D+00 -.000000000000000D+00 0.000000000000000D+00 0.000000000000000D+00
 0.378134828103796D+03 0.000000000000000D+00 0.000000000000000D+00 0.378134828103796D+03
 0.313166473083712D+03 0.000000000000000D+00 0.000000000000000D+00 -.313166473083712D+03
 0.196608472372485D+03 0.617000427887921D+02 -.595894791062946D+02 -.125188218728217D+03
 0.235035252583467D+03 0.165016913911046D+03 0.597228488707191D+02 0.126999677397284D+03
 0.158390855593300D+03 -.155353833853438D+03 -.308150622278536D+02 -.181145866906634D+01
 0.101266720638255D+03 -.713631228463999D+02 0.306816924634291D+02 0.649683550200833D+02
0.128509576738D-05 0.000000000000D+00 0.000000000000D+00 0.301804197271D-07 0.000000000000D+00  6 21 1 25 23 1 21 4 0.13934282D-01 0.14527481D+00 0.61677954D+05 0.61677954D+05 0.61677954D+05 0.11833578D+01  1  2 14  1  6  1       21 0.220187691247D-02 0.100000000000D+01
  </mgrwgt>
  </event>
  <event>
  6     66 -.44923357E-03 0.44427209E+02 0.75467711E-02 0.11387558E+00
       21 -1    0    0  503  502 0.00000000E+00 0.00000000E+00 0.85339791E+03 0.85339824E+03 0.75000000E+00 0.0000E+00 0.9000E+01
        3 -1    0    0  502    0 0.00000000E+00 0.00000000E+00 -.81726509E+02 0.81728039E+02 0.50000000E+00 0.0000E+00 0.9000E+01
       25  1    1    2    0    0 0.35861007E+02 0.16914796E+03 0.11972475E+03 0.24465498E+03 0.12500000E+03 0.0000E+00 0.9000E+01
       23  1    1    2    0    0 -.63575623E+01 -.10008797E+03 0.34689795E+03 0.37243987E+03 0.91188000E+02 0.0000E+00 0.9000E+01
        3  1    1    2  501    0 -.12441566E+02 -.54299038E+02 0.12864147E+03 0.14018579E+03 0.50000000E+00 0.0000E+00 0.9000E+01
       21  1    1    2  503  501 -.17061879E+02 -.14760952E+02 0.17640723E+03 0.17784563E+03 0.75000000E+00 0.0000E+00 0.9000E+01
#aMCatNLO 2  0  0  1  2 0.22560882D+02 0.00000000D+00  -5  6  0 0.00000000D+00 0.00000000D+00 0.00000000D+00 0.00000000D+00 0.00000000D+00
  <mgrwgt>
 -.7245930248D-02    3    2    0
 0.233787060477495D+03 0.000000000000000D+00 0.000000000000000D+00 0.233787060477495D+03
 0.233787060477495D+03 0.000000000000000D+00 0.000000000000000D+00 -.233787060477495D+03
 0.237173885357175D+03 0.270956974895358D+02 0.161565369510231D+03 -.117426174458664D+03
 0.164960372787847D+03 -.123081000660077D+02 -.105235587954702D+03 0.875822753009927D+02
 0.654398628099667D+02 -.147875974235280D+02 -.563297815555295D+02 0.298438991576713D+02
 0.000000000000000D+00 -.000000000000000D+00 -.000000000000000D+00 0.000000000000000D+00
 0.295360059018049D+03 0.000000000000000D+00 0.000000000000000D+00 0.295360059018049D+03
 0.236134843396335D+03 0.000000000000000D+00 0.000000000000000D+00 -.236134843396335D+03
 0.243539034131848D+03 0.358612567001783D+02 0.169148824902099D+03 -.117426174458664D+03
 0.161380956587455D+03 -.635742944837659D+01 -.100087411541072D+03 0.875822753009927D+02
 0.631981054782657D+02 -.124419485298685D+02 -.543004616544726D+02 0.298438991576713D+02
 0.633768062168154D+02 -.170618787219332D+02 -.147609517065536D+02 0.592252156217148D+02
-.552820948402D-04 0.000000000000D+00 0.000000000000D+00 0.100253490640D-06 0.000000000000D+00  6 21 3 25 23 3 21 4 0.13171864D+00 0.12448324D-01 0.45619799D+05 0.45619799D+05 0.45619799D+05 0.11962453D+01  1  2 13  1  6  1       21 -.118519910184D-01 0.100000000000D+01
-.446729915304D-04 0.000000000000D+00 0.000000000000D+00 0.100253490640D-06 0.000000000000D+00  6 21 3 25 23 3 21 4 0.13839327D+00 0.12448324D-01 0.45619799D+05 0.45619799D+05 0.45619799D+05 0.11962453D+01  1  2 13  1  6  1       21 -.843993425815D-02 0.100000000000D+01
0.613841538051D-04 0.000000000000D+00 0.000000000000D+00 0.101069420474D-06 0.419733556951D-08  6 21 3 25 23 3 21 4 0.13129091D+00 0.12573335D-01 0.45619799D+05 0.45619799D+05 0.45619799D+05 0.11962453D+01  1  2  1  1  6  1       21 0.130459950284D-01 0.100000000000D+01
  </mgrwgt>
  </event>
  <event>
  5     66 -.44923357E-03 0.35722188E+02 0.75467711E-02 0.11643207E+00
       21 -1    0    0  501  502 0.00000000E+00 0.00000000E+00 0.47400294E+02 0.47406228E+02 0.75000000E+00 0.0000E+00 0.9000E+01
        1 -1    0    0  502    0 -.00000000E+00 -.00000000E+00 -.15940773E+04 0.15940773E+04 0.32000000E+00 0.0000E+00 0.9000E+01
       25  1    1    2    0    0 0.52657246E+02 -.12882887E+03 -.37718134E+03 0.42102307E+03 0.12500000E+03 0.0000E+00 0.9000E+01
       23  1    1    2    0    0 -.22404972E+02 0.10983234E+03 -.11754029E+04 0.11842518E+04 0.91188000E+02 0.0000E+00 0.9000E+01
        1  1    1    2  501    0 -.30252274E+02 0.18996530E+02 0.59072606E+01 0.36208650E+02 0.32000000E+00 0.0000E+00 0.9000E+01
#aMCatNLO 1  0  0  5  1 0.30186242D+01 0.00000000D+00  -5  6  0 0.00000000D+00 0.00000000D+00 0.00000000D+00 0.00000000D+00 0.00000000D+00
  <mgrwgt>
 -.1902658776D-02    1    2    0
 0.274890211986179D+03 0.000000000000000D+00 0.000000000000000D+00 0.274890211986179D+03
 0.274890211986179D+03 -.000000000000000D+00 -.000000000000000D+00 -.274890211986179D+03
 0.195941378062647D+03 0.526572812410705D+02 -.128828892048066D+03 0.582953766867978D+02
 0.229112021076030D+03 -.224049302539468D+02 0.109832313784695D+03 -.177797493814057D+03
 0.124727024833681D+03 -.302523509871238D+02 0.189965782633712D+02 0.119502117127259D+03
 0.000000000000000D+00 0.000000000000000D+00 0.000000000000000D+00 0.000000000000000D+00
 0.274890211986179D+03 0.000000000000000D+00 0.000000000000000D+00 0.274890211986179D+03
 0.274890211986179D+03 -.000000000000000D+00 -.000000000000000D+00 -.274890211986179D+03
 0.196859943025104D+03 0.510259425936149D+02 -.127804513734339D+03 0.647394518003463D+02
 0.224170186607964D+03 -.242874513756965D+02 0.111014418932060D+03 -.170361203666503D+03
 0.113798397575596D+03 -.388817252587389D+02 0.812622093554475D+01 0.106640757991418D+03
 0.149518967636937D+02 0.121432340408204D+02 0.866387386673503D+01 -.101900612526063D+01
-.891042798633D-06 0.000000000000D+00 0.000000000000D+00 0.508278573631D-06 0.000000000000D+00  6 21 1 25 23 1 21 4 0.72928119D-02 0.24524312D+00 0.33725712D+05 0.33725712D+05 0.33725712D+05 0.12095985D+01  1  2 14  3  6  5        1 -.190265877632D-02 0.100000000000D+01
  </mgrwgt>
  </event>
  <event>
  5     66 0.44923357E-03 0.61123322E+02 0.75467711E-02 0.11574967E+00
       21 -1    0    0  501  502 0.00000000E+00 0.00000000E+00 0.92473744E+02 0.92476786E+02 0.75000000E+00 0.0000E+00 0.9000E+01
        3 -1    0    0  502    0 0.00000000E+00 0.00000000E+00 -.37170693E+03 0.37170726E+03 0.50000000E+00 0.0000E+00 0.9000E+01
       25  1    1    2    0    0 0.67889129E+02 -.52820233E+01 -.51254689E+02 0.15129070E+03 0.12500000E+03 0.0000E+00 0.9000E+01
       23  1    1    2    0    0 -.12007880E+03 -.26531593E+02 -.15880520E+03 0.22058374E+03 0.91188000E+02 0.0000E+00 0.9000E+01
        3  1    1    2  501    0 0.52189675E+02 0.31813616E+02 -.69173297E+02 0.92309606E+02 0.50000000E+00 0.0000E+00 0.9000E+01
#aMCatNLO 1  0  0  1  2 0.24657087D+02 0.00000000D+00  -5  6  0 0.00000000D+00 0.00000000D+00 0.00000000D+00 0.00000000D+00 0.00000000D+00
  <mgrwgt>
 0.4987371036D-02   23    2    0
 0.185402036840999D+03 0.000000000000000D+00 0.000000000000000D+00 0.185402036840999D+03
 0.185402036840999D+03 0.000000000000000D+00 0.000000000000000D+00 -.185402036840999D+03
 0.150792956920303D+03 0.678884706606448D+02 -.528242483143686D+01 0.497671316837464D+02
 0.156546221329370D+03 -.120079488084968D+03 -.265320096481950D+02 -.326869557130089D+02
 0.634648954323262D+02 0.521910174243227D+02 0.318144344796318D+02 -.170801759707375D+02
 0.000000000000000D+00 -.000000000000000D+00 -.000000000000000D+00 0.000000000000000D+00
 0.198658611321063D+03 0.000000000000000D+00 0.000000000000000D+00 0.198658611321063D+03
 0.197642380347278D+03 0.000000000000000D+00 0.000000000000000D+00 -.197642380347278D+03
 0.152109219421358D+03 0.708281468266227D+02 0.433830082565149D+01 0.497671316837464D+02
 0.152871347998195D+03 -.117076579803249D+03 -.167043432248746D+02 -.326869557130089D+02
 0.666424041646165D+02 0.534537132961855D+02 0.359468796489755D+02 -.170801759707375D+02
 0.246780200841725D+02 -.720528031955948D+01 -.235808372497524D+02 0.101623097378534D+01
0.106128538651D-05 0.000000000000D+00 0.000000000000D+00 0.108960803426D-06 0.000000000000D+00  6 21 3 25 23 3 21 2 0.14226990D-01 0.57185941D-01 0.31784250D+05 0.31784250D+05 0.31784250D+05 0.12122738D+01  1  2  2  1  6  1       21 0.100903946849D-02 0.100000000000D+01
-.624150112902D-07 0.560055685123D-07 -.214242942549D-08 0.108960803426D-06 0.000000000000D+00  6 21 3 25 23 3 21 4 0.14226990D-01 0.57185941D-01 0.31784250D+05 0.31784250D+05 0.31784250D+05 0.12122738D+01  1  2  3  1  6  1       21 -.872100387460D-04 0.100000000000D+01
0.807468108260D-07 0.000000000000D+00 0.000000000000D+00 0.108960803426D-06 0.000000000000D+00  6 21 3 25 23 3 21 4 0.14226990D-01 0.57185941D-01 0.31784250D+05 0.31784250D+05 0.31784250D+05 0.12122738D+01  1  2 15  1  6  1       21 0.112824340734D-03 0.100000000000D+01
0.172930195225D-05 0.000000000000D+00 0.000000000000D+00 0.107844615839D-06 0.000000000000D+00  6 21 3 25 23 3 21 4 0.15682405D-01 0.57185941D-01 0.36509055D+05 0.36509055D+05 0.36509055D+05 0.12060486D+01  1  2 12  1  6  1       21 0.198714371327D-02 0.100000000000D+01
-.889037903762D-06 0.000000000000D+00 0.000000000000D+00 0.108960803426D-06 0.000000000000D+00  6 21 3 25 23 3 21 4 0.14226990D-01 0.57185941D-01 0.31784250D+05 0.31784250D+05 0.31784250D+05 0.12122738D+01  1  2  4  1  6  1       21 -.124221767218D-02 0.100000000000D+01
-.115764000479D-04 0.000000000000D+00 -.267777682806D-05 0.108960803426D-06 0.000000000000D+00  6 21 3 25 23 3 21 4 0.16224755D-01 0.57185941D-01 0.31784250D+05 0.31784250D+05 0.31784250D+05 0.12122738D+01  1  2  5  1  6  1       21 -.127358560432D-01 0.100000000000D+01
0.115344523492D-04 0.000000000000D+00 0.258752607700D-05 0.108960803426D-06 0.000000000000D+00  6 21 3 25 23 3 21 4 0.14226990D-01 0.57185941D-01 0.31784250D+05 0.31784250D+05 0.31784250D+05 0.12122738D+01  1  2  6  1  6  1       21 0.161166362945D-01 0.100000000000D+01
0.428893092773D-07 0.000000000000D+00 0.000000000000D+00 0.107844615839D-06 0.000000000000D+00  6 -3 3 25 23 3 -3 4 0.15682405D-01 0.57185941D-01 0.36509055D+05 0.36509055D+05 0.36509055D+05 0.12060486D+01  1  2 12  4  6  1       21 0.230559737780D-05 0.100000000000D+01
-.329826388129D-06 0.000000000000D+00 -.934767866398D-07 0.108960803426D-06 0.000000000000D+00  6 -3 3 25 23 3 -3 4 0.16224755D-01 0.57185941D-01 0.31784250D+05 0.31784250D+05 0.31784250D+05 0.12122738D+01  1  2  5  4  6  1       21 -.169311702626D-04 0.100000000000D+01
0.428893092773D-07 0.000000000000D+00 0.000000000000D+00 0.107844615839D-06 0.000000000000D+00  6 3 3 25 23 3 3 4 0.15682405D-01 0.57185941D-01 0.36509055D+05 0.36509055D+05 0.36509055D+05 0.12060486D+01  1  2 12  5  6  1       21 0.230534242482D-05 0.100000000000D+01
-.329826388129D-06 0.000000000000D+00 -.934767866398D-07 0.108960803426D-06 0.000000000000D+00  6 3 3 25 23 3 3 4 0.16224755D-01 0.57185941D-01 0.31784250D+05 0.31784250D+05 0.31784250D+05 0.12122738D+01  1  2  5  5  6  1       21 -.169293067875D-04 0.100000000000D+01
0.428893092773D-07 0.000000000000D+00 0.000000000000D+00 0.107844615839D-06 0.000000000000D+00  6 -2 3 25 23 3 -2 4 0.15682405D-01 0.57185941D-01 0.36509055D+05 0.36509055D+05 0.36509055D+05 0.12060486D+01  1  2 12  6  6  1       21 0.342644817231D-05 0.100000000000D+01
0.428893092773D-07 0.000000000000D+00 0.000000000000D+00 0.107844615839D-06 0.000000000000D+00  6 -4 3 25 23 3 -4 4 0.15682405D-01 0.57185941D-01 0.36509055D+05 0.36509055D+05 0.36509055D+05 0.12060486D+01  1  2 12  6  6  1       21 0.199533198301D-05 0.100000000000D+01
-.329826388129D-06 0.000000000000D+00 -.934767866398D-07 0.108960803426D-06 0.000000000000D+00  6 -2 3 25 23 3 -2 4 0.16224755D-01 0.57185941D-01 0.31784250D+05 0.31784250D+05 0.31784250D+05 0.12122738D+01  1  2  5  6  6  1       21 -.253004667824D-04 0.100000000000D+01
-.329826388129D-06 0.000000000000D+00 -.934767866398D-07 0.108960803426D-06 0.000000000000D+00  6 -4 3 25 23 3 -4 4 0.16224755D-01 0.57185941D-01 0.31784250D+05 0.31784250D+05 0.31784250D+05 0.12122738D+01  1  2  5  6  6  1       21 -.146150350444D-04 0.100000000000D+01
0.428893092773D-07 0.000000000000D+00 0.000000000000D+00 0.107844615839D-06 0.000000000000D+00  6 2 3 25 23 3 2 4 0.15682405D-01 0.57185941D-01 0.36509055D+05 0.36509055D+05 0.36509055D+05 0.12060486D+01  1  2 12  7  6  1       21 0.613238808685D-05 0.100000000000D+01
0.428893092773D-07 0.000000000000D+00 0.000000000000D+00 0.107844615839D-06 0.000000000000D+00  6 4 3 25 23 3 4 4 0.15682405D-01 0.57185941D-01 0.36509055D+05 0.36509055D+05 0.36509055D+05 0.12060486D+01  1  2 12  7  6  1       21 0.199533198301D-05 0.100000000000D+01
-.329826388129D-06 0.000000000000D+00 -.934767866398D-07 0.108960803426D-06 0.000000000000D+00  6 2 3 25 23 3 2 4 0.16224755D-01 0.57185941D-01 0.31784250D+05 0.31784250D+05 0.31784250D+05 0.12122738D+01  1  2  5  7  6  1       21 -.460386377887D-04 0.100000000000D+01
-.329826388129D-06 0.000000000000D+00 -.934767866398D-07 0.108960803426D-06 0.000000000000D+00  6 4 3 25 23 3 4 4 0.16224755D-01 0.57185941D-01 0.31784250D+05 0.31784250D+05 0.31784250D+05 0.12122738D+01  1  2  5  7  6  1       21 -.146150350444D-04 0.100000000000D+01
0.428893092773D-07 0.000000000000D+00 0.000000000000D+00 0.107844615839D-06 0.000000000000D+00  6 -1 3 25 23 3 -1 4 0.15682405D-01 0.57185941D-01 0.36509055D+05 0.36509055D+05 0.36509055D+05 0.12060486D+01  1  2 12  8  6  1       21 0.367480991208D-05 0.100000000000D+01
-.329826388129D-06 0.000000000000D+00 -.934767866398D-07 0.108960803426D-06 0.000000000000D+00  6 -1 3 25 23 3 -1 4 0.16224755D-01 0.57185941D-01 0.31784250D+05 0.31784250D+05 0.31784250D+05 0.12122738D+01  1  2  5  8  6  1       21 -.272020601385D-04 0.100000000000D+01
0.428893092773D-07 0.000000000000D+00 0.000000000000D+00 0.107844615839D-06 0.000000000000D+00  6 1 3 25 23 3 1 4 0.15682405D-01 0.57185941D-01 0.36509055D+05 0.36509055D+05 0.36509055D+05 0.12060486D+01  1  2 12  9  6  1       21 0.512579138189D-05 0.100000000000D+01
-.329826388129D-06 0.000000000000D+00 -.934767866398D-07 0.108960803426D-06 0.000000000000D+00  6 1 3 25 23 3 1 4 0.16224755D-01 0.57185941D-01 0.31784250D+05 0.31784250D+05 0.31784250D+05 0.12122738D+01  1  2  5  9  6  1       21 -.383183567378D-04 0.100000000000D+01
  </mgrwgt>
  </event>
  <event>
  5     66 0.44923357E-03 0.21751093E+02 0.75467711E-02 0.11391840E+00
       21 -1    0    0  501  502 0.00000000E+00 0.00000000E+00 0.33107162E+02 0.33115656E+02 0.75000000E+00 0.0000E+00 0.9000E+01
        1 -1    0    0  502    0 -.00000000E+00 -.00000000E+00 -.17917035E+04 0.17917035E+04 0.32000000E+00 0.0000E+00 0.9000E+01
       25  1    1    2    0    0 -.61624842E+02 0.13583207E+03 -.58078304E+03 0.61252094E+03 0.12500000E+03 0.0000E+00 0.9000E+01
       23  1    1    2    0    0 0.83369484E+02 -.13635502E+03 -.11761771E+04 0.11904835E+04 0.91188000E+02 0.0000E+00 0.9000E+01
        1  1    1    2  501    0 -.21744642E+02 0.52295346E+00 -.16362020E+01 0.21814731E+02 0.32000000E+00 0.0000E+00 0.9000E+01
#aMCatNLO 1  0  0  5  1 0.18897200D+02 0.00000000D+00  -5  6  0 0.00000000D+00 0.00000000D+00 0.00000000D+00 0.00000000D+00 0.00000000D+00
  <mgrwgt>
 0.2771697032D-01    4    2    0
 0.243569277676728D+03 0.000000000000000D+00 0.000000000000000D+00 0.243569277676728D+03
 0.243569277676728D+03 -.000000000000000D+00 -.000000000000000D+00 -.243569277676728D+03
 0.197843123127644D+03 -.616247634815254D+02 0.135832067531345D+03 0.356221746234863D+02
 0.213484416283567D+03 0.833695687849386D+02 -.136355024923048D+03 -.108245862880683D+03
 0.758110159422451D+02 -.217448053034132D+02 0.522957391702836D+00 0.726236882571964D+02
 0.000000000000000D+00 0.000000000000000D+00 0.000000000000000D+00 -.000000000000000D+00
 0.243569277676728D+03 0.000000000000000D+00 0.000000000000000D+00 0.243569277676728D+03
 0.243569277676728D+03 -.000000000000000D+00 -.000000000000000D+00 -.243569277676728D+03
 0.200372959060017D+03 -.641530662847019D+02 0.135892872611958D+03 0.440662453813361D+02
 0.208000001250233D+03 0.806935336321349D+02 -.136290666914591D+03 -.993083929888734D+02
 0.189177010378279D+02 0.646032822684502D+01 -.175289769156721D+02 0.297968791115755D+01
 0.598478940053774D+02 -.230007955742781D+02 0.179267712183050D+02 0.522624596963797D+02
0.174186909560D-04 0.000000000000D+00 0.000000000000D+00 0.100925855996D-05 0.000000000000D+00  6 21 1 25 23 1 21 2 0.50940651D-02 0.27564734D+00 0.40073526D+05 0.40073526D+05 0.40073526D+05 0.12019193D+01  1  2  2  3  6  5        1 0.343906760754D-01 0.100000000000D+01
0.373618082448D-05 0.919209575606D-06 -.351633184929D-07 0.100925855996D-05 0.000000000000D+00  6 21 1 25 23 1 21 4 0.50940651D-02 0.27564734D+00 0.40073526D+05 0.40073526D+05 0.40073526D+05 0.12019193D+01  1  2  3  3  6  5        1 0.106562325028D-01 0.100000000000D+01
0.214303725265D-05 0.000000000000D+00 0.000000000000D+00 0.100925855996D-05 0.000000000000D+00  6 21 1 25 23 1 21 4 0.50940651D-02 0.27564734D+00 0.40073526D+05 0.40073526D+05 0.40073526D+05 0.12019193D+01  1  2 15  3  6  5        1 0.611231209069D-02 0.100000000000D+01
-.821908551762D-05 0.000000000000D+00 0.000000000000D+00 0.100925855996D-05 0.000000000000D+00  6 21 1 25 23 1 21 4 0.50940651D-02 0.27564734D+00 0.40073526D+05 0.40073526D+05 0.40073526D+05 0.12019193D+01  1  2  4  3  6  5        1 -.234422503489D-01 0.100000000000D+01
  </mgrwgt>
  </event>
  <event>
  5     66 -.44923357E-03 0.14402228E+03 0.75467711E-02 0.10792417E+00
       21 -1    0    0  501  502 0.00000000E+00 0.00000000E+00 0.10950325E+03 0.10950582E+03 0.75000000E+00 0.0000E+00 0.9000E+01
        1 -1    0    0  502    0 0.00000000E+00 0.00000000E+00 -.10680085E+04 0.10680085E+04 0.32000000E+00 0.0000E+00 0.9000E+01
       25  1    1    2    0    0 0.11845120E+03 0.18319222E+02 -.18253197E+03 0.25161320E+03 0.12500000E+03 0.0000E+00 0.9000E+01
       23  1    1    2    0    0 -.14668142E+01 0.14592652E+03 -.68210237E+03 0.70347395E+03 0.91188000E+02 0.0000E+00 0.9000E+01
        1  1    1    2  501    0 -.11698439E+03 -.16424574E+03 -.93870866E+02 0.22242718E+03 0.32000000E+00 0.0000E+00 0.9000E+01
#aMCatNLO 1  0  0  1  2 0.69627377D+02 0.00000000D+00  -5  6  0 0.00000000D+00 0.00000000D+00 0.00000000D+00 0.00000000D+00 0.00000000D+00
  <mgrwgt>
 -.4906183244D-02   30    2    0
 0.341982371463133D+03 0.000000000000000D+00 0.000000000000000D+00 0.341982371463133D+03
 0.341982371463133D+03 0.000000000000000D+00 0.000000000000000D+00 -.341982371463133D+03
 0.177378021981476D+03 0.118451229177686D+03 0.183192567107420D+02 0.383624011490701D+02
 0.255206172513599D+03 -.146677887409132D+01 0.145926566537045D+03 -.188462794427666D+03
 0.251380548431192D+03 -.116984450303595D+03 -.164245823247787D+03 0.150100393278595D+03
 0.000000000000000D+00 0.000000000000000D+00 -.000000000000000D+00 0.000000000000000D+00
 0.696156160563169D+03 0.000000000000000D+00 0.000000000000000D+00 0.696156160563169D+03
 0.347189006412575D+03 0.000000000000000D+00 0.000000000000000D+00 -.347189006412575D+03
 0.171992516278349D+03 0.107076231523054D+03 0.319285526865412D+02 0.383624011490701D+02
 0.268019050890159D+03 -.185022327469540D+02 0.166308156131786D+03 -.188462794427666D+03
 0.247488062747939D+03 -.133226888233242D+03 -.144813015271507D+03 0.150100393278595D+03
 0.355845537059298D+03 0.446528894571422D+02 -.534236935468197D+02 0.348967154150594D+03
0.467278631845D-05 0.000000000000D+00 0.000000000000D+00 0.701020986168D-07 0.000000000000D+00  6 21 1 25 23 1 21 2 0.16846856D-01 0.16430920D+00 0.74777513D+05 0.74777513D+05 0.74777513D+05 0.11753486D+01  1  2  2  1  6  1       21 0.319422890564D-02 0.100000000000D+01
-.289774556077D-06 0.246589708694D-06 -.943300928753D-08 0.701020986168D-07 0.000000000000D+00  6 21 1 25 23 1 21 4 0.16846856D-01 0.16430920D+00 0.74777513D+05 0.74777513D+05 0.74777513D+05 0.11753486D+01  1  2  3  1  6  1       21 -.273642623911D-03 0.100000000000D+01
0.686248530052D-06 0.000000000000D+00 0.000000000000D+00 0.701020986168D-07 0.000000000000D+00  6 21 1 25 23 1 21 4 0.16846856D-01 0.16430920D+00 0.74777513D+05 0.74777513D+05 0.74777513D+05 0.11753486D+01  1  2 15  1  6  1       21 0.648044641877D-03 0.100000000000D+01
0.912659334232D-04 0.000000000000D+00 0.000000000000D+00 0.688218320230D-07 0.000000000000D+00  6 21 1 25 23 1 21 4 0.34289540D-01 0.16430920D+00 0.97540369D+05 0.97540369D+05 0.97540369D+05 0.11645665D+01  1  2 12  1  6  1       21 0.209197275316D-01 0.100000000000D+01
0.897022377655D-04 0.000000000000D+00 0.000000000000D+00 0.688218320230D-07 0.000000000000D+00  6 21 1 25 23 1 21 4 0.35245251D-01 0.16430920D+00 0.97540369D+05 0.97540369D+05 0.97540369D+05 0.11645665D+01  1  2 12  1  6  1       21 0.194581417131D-01 0.100000000000D+01
-.198936776936D-03 0.000000000000D+00 -.646250875868D-05 0.701020986168D-07 0.000000000000D+00  6 21 1 25 23 1 21 4 0.34550422D-01 0.16430920D+00 0.74777513D+05 0.74777513D+05 0.74777513D+05 0.11753486D+01  1  2  5  1  6  1       21 -.472779741194D-01 0.100000000000D+01
0.252720082321D-04 0.000000000000D+00 0.000000000000D+00 0.688218320230D-07 0.000000000000D+00  6 -1 1 25 23 1 -1 4 0.34289540D-01 0.16430920D+00 0.97540369D+05 0.97540369D+05 0.97540369D+05 0.11645665D+01  1  2 12  4  6  1       21 0.538444835021D-03 0.100000000000D+01
0.256509316723D-04 0.000000000000D+00 0.000000000000D+00 0.688218320230D-07 0.000000000000D+00  6 -1 1 25 23 1 -1 4 0.35245251D-01 0.16430920D+00 0.97540369D+05 0.97540369D+05 0.97540369D+05 0.11645665D+01  1  2 12  4  6  1       21 0.520875589470D-03 0.100000000000D+01
-.569270940175D-04 0.000000000000D+00 -.165099091932D-05 0.701020986168D-07 0.000000000000D+00  6 -1 1 25 23 1 -1 4 0.34550422D-01 0.16430920D+00 0.74777513D+05 0.74777513D+05 0.74777513D+05 0.11753486D+01  1  2  5  4  6  1       21 -.125170841839D-02 0.100000000000D+01
0.252720082321D-04 0.000000000000D+00 0.000000000000D+00 0.688218320230D-07 0.000000000000D+00  6 1 1 25 23 1 1 4 0.34289540D-01 0.16430920D+00 0.97540369D+05 0.97540369D+05 0.97540369D+05 0.11645665D+01  1  2 12  5  6  1       21 0.100654479099D-02 0.100000000000D+01
0.256509316723D-04 0.000000000000D+00 0.000000000000D+00 0.688218320230D-07 0.000000000000D+00  6 1 1 25 23 1 1 4 0.35245251D-01 0.16430920D+00 0.97540369D+05 0.97540369D+05 0.97540369D+05 0.11645665D+01  1  2 12  5  6  1       21 0.986634717006D-03 0.100000000000D+01
-.569270940175D-04 0.000000000000D+00 -.165099091932D-05 0.701020986168D-07 0.000000000000D+00  6 1 1 25 23 1 1 4 0.34550422D-01 0.16430920D+00 0.74777513D+05 0.74777513D+05 0.74777513D+05 0.11753486D+01  1  2  5  5  6  1       21 -.234778580242D-02 0.100000000000D+01
0.252720082321D-04 0.000000000000D+00 0.000000000000D+00 0.688218320230D-07 0.000000000000D+00  6 -2 1 25 23 1 -2 4 0.34289540D-01 0.16430920D+00 0.97540369D+05 0.97540369D+05 0.97540369D+05 0.11645665D+01  1  2 12  6  6  1       21 0.466040539794D-03 0.100000000000D+01
0.252720082321D-04 0.000000000000D+00 0.000000000000D+00 0.688218320230D-07 0.000000000000D+00  6 -4 1 25 23 1 -4 4 0.34289540D-01 0.16430920D+00 0.97540369D+05 0.97540369D+05 0.97540369D+05 0.11645665D+01  1  2 12  6  6  1       21 0.257727822929D-03 0.100000000000D+01
0.256509316723D-04 0.000000000000D+00 0.000000000000D+00 0.688218320230D-07 0.000000000000D+00  6 -2 1 25 23 1 -2 4 0.35245251D-01 0.16430920D+00 0.97540369D+05 0.97540369D+05 0.97540369D+05 0.11645665D+01  1  2 12  6  6  1       21 0.449273687263D-03 0.100000000000D+01
0.256509316723D-04 0.000000000000D+00 0.000000000000D+00 0.688218320230D-07 0.000000000000D+00  6 -4 1 25 23 1 -4 4 0.35245251D-01 0.16430920D+00 0.97540369D+05 0.97540369D+05 0.97540369D+05 0.11645665D+01  1  2 12  6  6  1       21 0.247872833569D-03 0.100000000000D+01
-.569270940175D-04 0.000000000000D+00 -.165099091932D-05 0.701020986168D-07 0.000000000000D+00  6 -2 1 25 23 1 -2 4 0.34550422D-01 0.16430920D+00 0.74777513D+05 0.74777513D+05 0.74777513D+05 0.11753486D+01  1  2  5  6  6  1       21 -.108189997928D-02 0.100000000000D+01
-.569270940175D-04 0.000000000000D+00 -.165099091932D-05 0.701020986168D-07 0.000000000000D+00  6 -4 1 25 23 1 -4 4 0.34550422D-01 0.16430920D+00 0.74777513D+05 0.74777513D+05 0.74777513D+05 0.11753486D+01  1  2  5  6  6  1       21 -.593780684965D-03 0.100000000000D+01
0.252720082321D-04 0.000000000000D+00 0.000000000000D+00 0.688218320230D-07 0.000000000000D+00  6 2 1 25 23 1 2 4 0.34289540D-01 0.16430920D+00 0.97540369D+05 0.97540369D+05 0.97540369D+05 0.11645665D+01  1  2 12  7  6  1       21 0.135626418336D-02 0.100000000000D+01
0.252720082321D-04 0.000000000000D+00 0.000000000000D+00 0.688218320230D-07 0.000000000000D+00  6 4 1 25 23 1 4 4 0.34289540D-01 0.16430920D+00 0.97540369D+05 0.97540369D+05 0.97540369D+05 0.11645665D+01  1  2 12  7  6  1       21 0.257727822929D-03 0.100000000000D+01
0.256509316723D-04 0.000000000000D+00 0.000000000000D+00 0.688218320230D-07 0.000000000000D+00  6 2 1 25 23 1 2 4 0.35245251D-01 0.16430920D+00 0.97540369D+05 0.97540369D+05 0.97540369D+05 0.11645665D+01  1  2 12  7  6  1       21 0.133568325187D-02 0.100000000000D+01
0.256509316723D-04 0.000000000000D+00 0.000000000000D+00 0.688218320230D-07 0.000000000000D+00  6 4 1 25 23 1 4 4 0.35245251D-01 0.16430920D+00 0.97540369D+05 0.97540369D+05 0.97540369D+05 0.11645665D+01  1  2 12  7  6  1       21 0.247872833569D-03 0.100000000000D+01
-.569270940175D-04 0.000000000000D+00 -.165099091932D-05 0.701020986168D-07 0.000000000000D+00  6 2 1 25 23 1 2 4 0.34550422D-01 0.16430920D+00 0.74777513D+05 0.74777513D+05 0.74777513D+05 0.11753486D+01  1  2  5  7  6  1       21 -.316562505251D-02 0.100000000000D+01
-.569270940175D-04 0.000000000000D+00 -.165099091932D-05 0.701020986168D-07 0.000000000000D+00  6 4 1 25 23 1 4 4 0.34550422D-01 0.16430920D+00 0.74777513D+05 0.74777513D+05 0.74777513D+05 0.11753486D+01  1  2  5  7  6  1       21 -.593780684965D-03 0.100000000000D+01
0.252720082321D-04 0.000000000000D+00 0.000000000000D+00 0.688218320230D-07 0.000000000000D+00  6 -3 1 25 23 1 -3 4 0.34289540D-01 0.16430920D+00 0.97540369D+05 0.97540369D+05 0.97540369D+05 0.11645665D+01  1  2 12  8  6  1       21 0.304204140076D-03 0.100000000000D+01
0.256509316723D-04 0.000000000000D+00 0.000000000000D+00 0.688218320230D-07 0.000000000000D+00  6 -3 1 25 23 1 -3 4 0.35245251D-01 0.16430920D+00 0.97540369D+05 0.97540369D+05 0.97540369D+05 0.11645665D+01  1  2 12  8  6  1       21 0.292897275487D-03 0.100000000000D+01
-.569270940175D-04 0.000000000000D+00 -.165099091932D-05 0.701020986168D-07 0.000000000000D+00  6 -3 1 25 23 1 -3 4 0.34550422D-01 0.16430920D+00 0.74777513D+05 0.74777513D+05 0.74777513D+05 0.11753486D+01  1  2  5  8  6  1       21 -.702643457755D-03 0.100000000000D+01
0.252720082321D-04 0.000000000000D+00 0.000000000000D+00 0.688218320230D-07 0.000000000000D+00  6 3 1 25 23 1 3 4 0.34289540D-01 0.16430920D+00 0.97540369D+05 0.97540369D+05 0.97540369D+05 0.11645665D+01  1  2 12  9  6  1       21 0.304239598229D-03 0.100000000000D+01
0.256509316723D-04 0.000000000000D+00 0.000000000000D+00 0.688218320230D-07 0.000000000000D+00  6 3 1 25 23 1 3 4 0.35245251D-01 0.16430920D+00 0.97540369D+05 0.97540369D+05 0.97540369D+05 0.11645665D+01  1  2 12  9  6  1       21 0.292936270468D-03 0.100000000000D+01
-.569270940175D-04 0.000000000000D+00 -.165099091932D-05 0.701020986168D-07 0.000000000000D+00  6 3 1 25 23 1 3 4 0.34550422D-01 0.16430920D+00 0.74777513D+05 0.74777513D+05 0.74777513D+05 0.11753486D+01  1  2  5  9  6  1       21 -.702725404648D-03 0.100000000000D+01
  </mgrwgt>
  </event>
  <event>
  5     66 0.44923357E-03 0.46623241E+02 0.75467711E-02 0.10304112E+00
       21 -1    0    0  501  502 0.00000000E+00 0.00000000E+00 0.33091235E+03 0.33091320E+03 0.75000000E+00 0.0000E+00 0.9000E+01
        1 -1    0    0  502    0 0.00000000E+00 0.00000000E+00 -.75535319E+03 0.75535325E+03 0.32000000E+00 0.0000E+00 0.9000E+01
       25  1    1    2    0    0 -.29240478E+02 0.37236431E+03 -.14777410E+03 0.42068084E+03 0.12500000E+03 0.0000E+00 0.9000E+01
       23  1    1    2    0    0 0.25703518E+02 -.41885311E+03 -.36637413E+03 0.56448548E+03 0.91188000E+02 0.0000E+00 0.9000E+01
        1  1    1    2  501    0 0.35369604E+01 0.46488792E+02 0.89707399E+02 0.10110014E+03 0.32000000E+00 0.0000E+00 0.9000E+01
#aMCatNLO 1  0  0  1  2 0.11593903D+02 0.00000000D+00  -5  6  0 0.00000000D+00 0.00000000D+00 0.00000000D+00 0.00000000D+00 0.00000000D+00
  <mgrwgt>
 0.8351316861D-01    6    2    0
 0.499956197030088D+03 0.000000000000000D+00 0.000000000000000D+00 0.499956197030088D+03
 0.499956197030088D+03 0.000000000000000D+00 0.000000000000000D+00 -.499956197030088D+03
 0.394284624326945D+03 -.292404815940645D+02 0.372364271908484D+03 0.180335305154684D+02
 0.457717692193513D+03 0.257035140971855D+02 -.418853156866210D+03 -.158403272533180D+03
 0.147910077539719D+03 0.353696749687898D+01 0.464888849577260D+02 0.140369742017712D+03
 0.000000000000000D+00 -.000000000000000D+00 -.000000000000000D+00 -.000000000000000D+00
 0.500730619458894D+03 0.000000000000000D+00 0.000000000000000D+00 0.500730619458894D+03
 0.545351467141201D+03 0.000000000000000D+00 0.000000000000000D+00 -.545351467141201D+03
 0.396571072589585D+03 -.255287140004302D+02 0.375055585418330D+03 0.180335305154684D+02
 0.455138895200232D+03 0.299878753427759D+02 -.415746669455443D+03 -.158403272533180D+03
 0.148269639189471D+03 0.492704444610426D+01 0.474967963581035D+02 0.140369742017712D+03
 0.461024796208059D+02 -.938620578844992D+01 -.680571232099057D+01 -.446208476823067D+02
0.521737054922D-03 0.000000000000D+00 0.000000000000D+00 0.169439536014D-06 0.000000000000D+00  6 21 1 25 23 1 21 2 0.50909663D-01 0.11620825D+00 0.18919439D+06 0.18919439D+06 0.18919439D+06 0.11389601D+01  1  2  2  1  6  1       21 0.638658477986D-01 0.100000000000D+01
0.110577196668D-03 0.275328208098D-04 -.105323679478D-05 0.169439536014D-06 0.000000000000D+00  6 21 1 25 23 1 21 4 0.50909663D-01 0.11620825D+00 0.18919439D+06 0.18919439D+06 0.18919439D+06 0.11389601D+01  1  2  3  1  6  1       21 0.175589936257D-01 0.100000000000D+01
0.658184363092D-04 0.000000000000D+00 0.000000000000D+00 0.169439536014D-06 0.000000000000D+00  6 21 1 25 23 1 21 4 0.50909663D-01 0.11620825D+00 0.18919439D+06 0.18919439D+06 0.18919439D+06 0.11389601D+01  1  2 15  1  6  1       21 0.104515717384D-01 0.100000000000D+01
-.491341595468D-04 0.000000000000D+00 0.000000000000D+00 0.169439536014D-06 0.000000000000D+00  6 21 1 25 23 1 21 4 0.50909663D-01 0.11620825D+00 0.18919439D+06 0.18919439D+06 0.18919439D+06 0.11389601D+01  1  2  4  1  6  1       21 -.780220895699D-02 0.100000000000D+01
0.214215302372D-04 0.000000000000D+00 0.000000000000D+00 0.169439536014D-06 0.000000000000D+00  6 21 1 25 23 1 21 4 0.55947940D-01 0.11620825D+00 0.18919439D+06 0.18919439D+06 0.18919439D+06 0.11389601D+01  1  2  5  1  6  1       21 0.277774434830D-02 0.100000000000D+01
-.210258591175D-04 0.000000000000D+00 0.000000000000D+00 0.169439536014D-06 0.000000000000D+00  6 21 1 25 23 1 21 4 0.50909663D-01 0.11620825D+00 0.18919439D+06 0.18919439D+06 0.18919439D+06 0.11389601D+01  1  2  6  1  6  1       21 -.333877994146D-02 0.100000000000D+01
  </mgrwgt>
  </event>
  <event>
  5     66 0.44923357E-03 0.54216873E+02 0.75467711E-02 0.10659872E+00
       21 -1    0    0  501  502 0.00000000E+00 0.00000000E+00 0.22779597E+03 0.22779721E+03 0.75000000E+00 0.0000E+00 0.9000E+01
        1 -1    0    0  502    0 0.00000000E+00 0.00000000E+00 -.54068198E+03 0.54068208E+03 0.32000000E+00 0.0000E+00 0.9000E+01
       25  1    1    2    0    0 -.88320041E+02 0.24402364E+03 -.19402404E+03 0.34730145E+03 0.12500000E+03 0.0000E+00 0.9000E+01
       23  1    1    2    0    0 0.10253675E+03 -.29634299E+03 -.14921188E+03 0.35904372E+03 0.91188000E+02 0.0000E+00 0.9000E+01
        1  1    1    2  501    0 -.14216708E+02 0.52319352E+02 0.30349910E+02 0.62134119E+02 0.32000000E+00 0.0000E+00 0.9000E+01
#aMCatNLO 1  0  0  1  2 0.15469414D+02 0.00000000D+00  -5  6  0 0.00000000D+00 0.00000000D+00 0.00000000D+00 0.00000000D+00 0.00000000D+00
  <mgrwgt>
 0.1987861106D+00   23    2    0
 0.350949694751582D+03 0.000000000000000D+00 0.000000000000000D+00 0.350949694751582D+03
 0.350949694751582D+03 0.000000000000000D+00 0.000000000000000D+00 -.350949694751582D+03
 0.293755032858293D+03 -.883199949176560D+02 0.244023472323523D+03 -.576120020698199D+02
 0.326587376597335D+03 0.102536799493359D+03 -.296343179864571D+03 -.331477090355889D+01
 0.815569800475357D+02 -.142168045757026D+02 0.523197075410479D+02 0.609267729733787D+02
 0.000000000000000D+00 0.000000000000000D+00 0.000000000000000D+00 0.000000000000000D+00
 0.372626383485375D+03 0.000000000000000D+00 0.000000000000000D+00 0.372626383485375D+03
 0.353805721405745D+03 0.000000000000000D+00 0.000000000000000D+00 -.353805721405745D+03
 0.288699286213435D+03 -.890367441514296D+02 0.237645940989041D+03 -.576120020698199D+02
 0.332904650772657D+03 0.101725250175550D+03 -.303564228677628D+03 -.331477090355889D+01
 0.804658998317788D+02 -.144161846321376D+02 0.505456525473789D+02 0.609267729733787D+02
 0.243622680732501D+02 0.172767860801694D+01 0.153726351412075D+02 0.188206620796297D+02
0.260520263073D-04 0.000000000000D+00 0.000000000000D+00 0.101854571814D-06 0.000000000000D+00  6 21 1 25 23 1 21 2 0.35045636D-01 0.83181945D-01 0.11183592D+06 0.11183592D+06 0.11183592D+06 0.11591351D+01  1  2  2  1  6  1       21 0.118590036072D-01 0.100000000000D+01
0.234841363641D-05 0.137480319882D-05 -.525915351930D-07 0.101854571814D-06 0.000000000000D+00  6 21 1 25 23 1 21 4 0.35045636D-01 0.83181945D-01 0.11183592D+06 0.11183592D+06 0.11183592D+06 0.11591351D+01  1  2  3  1  6  1       21 0.143631397425D-02 0.100000000000D+01
0.302970740369D-05 0.000000000000D+00 0.000000000000D+00 0.101854571814D-06 0.000000000000D+00  6 21 1 25 23 1 21 4 0.35045636D-01 0.83181945D-01 0.11183592D+06 0.11183592D+06 0.11183592D+06 0.11591351D+01  1  2 15  1  6  1       21 0.185300026125D-02 0.100000000000D+01
0.210930786395D-03 0.000000000000D+00 0.000000000000D+00 0.101548676350D-06 0.000000000000D+00  6 21 1 25 23 1 21 4 0.37347539D-01 0.83181945D-01 0.11689947D+06 0.11689947D+06 0.11689947D+06 0.11573932D+01  1  2 12  1  6  1       21 0.112582716634D+00 0.100000000000D+01
-.865402760305D-05 0.000000000000D+00 0.000000000000D+00 0.101854571814D-06 0.000000000000D+00  6 21 1 25 23 1 21 4 0.35045636D-01 0.83181945D-01 0.11183592D+06 0.11183592D+06 0.11183592D+06 0.11591351D+01  1  2  4  1  6  1       21 -.529289243899D-02 0.100000000000D+01
-.106575059472D-02 0.000000000000D+00 -.120637623923D-03 0.101854571814D-06 0.000000000000D+00  6 21 1 25 23 1 21 4 0.37442641D-01 0.83181945D-01 0.11183592D+06 0.11183592D+06 0.11183592D+06 0.11591351D+01  1  2  5  1  6  1       21 -.570305532935D+00 0.100000000000D+01
0.106516981826D-02 0.000000000000D+00 0.119588069777D-03 0.101854571814D-06 0.000000000000D+00  6 21 1 25 23 1 21 4 0.35045636D-01 0.83181945D-01 0.11183592D+06 0.11183592D+06 0.11183592D+06 0.11591351D+01  1  2  6  1  6  1       21 0.651468834618D+00 0.100000000000D+01
0.415146962494D-05 0.000000000000D+00 0.000000000000D+00 0.101548676350D-06 0.000000000000D+00  6 -1 1 25 23 1 -1 4 0.37347539D-01 0.83181945D-01 0.11689947D+06 0.11689947D+06 0.11689947D+06 0.11573932D+01  1  2 12  4  6  1       21 0.211499687428D-03 0.100000000000D+01
-.151882382427D-04 0.000000000000D+00 -.194992978971D-05 0.101854571814D-06 0.000000000000D+00  6 -1 1 25 23 1 -1 4 0.37442641D-01 0.83181945D-01 0.11183592D+06 0.11183592D+06 0.11183592D+06 0.11591351D+01  1  2  5  4  6  1       21 -.775428749537D-03 0.100000000000D+01
0.415146962494D-05 0.000000000000D+00 0.000000000000D+00 0.101548676350D-06 0.000000000000D+00  6 1 1 25 23 1 1 4 0.37347539D-01 0.83181945D-01 0.11689947D+06 0.11689947D+06 0.11689947D+06 0.11573932D+01  1  2 12  5  6  1       21 0.412286129923D-03 0.100000000000D+01
-.151882382427D-04 0.000000000000D+00 -.194992978971D-05 0.101854571814D-06 0.000000000000D+00  6 1 1 25 23 1 1 4 0.37442641D-01 0.83181945D-01 0.11183592D+06 0.11183592D+06 0.11183592D+06 0.11591351D+01  1  2  5  5  6  1       21 -.151342614344D-02 0.100000000000D+01
0.415146962494D-05 0.000000000000D+00 0.000000000000D+00 0.101548676350D-06 0.000000000000D+00  6 -2 1 25 23 1 -2 4 0.37347539D-01 0.83181945D-01 0.11689947D+06 0.11689947D+06 0.11689947D+06 0.11573932D+01  1  2 12  6  6  1       21 0.181123828391D-03 0.100000000000D+01
0.415146962494D-05 0.000000000000D+00 0.000000000000D+00 0.101548676350D-06 0.000000000000D+00  6 -4 1 25 23 1 -4 4 0.37347539D-01 0.83181945D-01 0.11689947D+06 0.11689947D+06 0.11689947D+06 0.11573932D+01  1  2 12  6  6  1       21 0.999099381278D-04 0.100000000000D+01
-.151882382427D-04 0.000000000000D+00 -.194992978971D-05 0.101854571814D-06 0.000000000000D+00  6 -2 1 25 23 1 -2 4 0.37442641D-01 0.83181945D-01 0.11183592D+06 0.11183592D+06 0.11183592D+06 0.11591351D+01  1  2  5  6  6  1       21 -.663788874613D-03 0.100000000000D+01
-.151882382427D-04 0.000000000000D+00 -.194992978971D-05 0.101854571814D-06 0.000000000000D+00  6 -4 1 25 23 1 -4 4 0.37442641D-01 0.83181945D-01 0.11183592D+06 0.11183592D+06 0.11183592D+06 0.11591351D+01  1  2  5  6  6  1       21 -.365669945404D-03 0.100000000000D+01
0.415146962494D-05 0.000000000000D+00 0.000000000000D+00 0.101548676350D-06 0.000000000000D+00  6 2 1 25 23 1 2 4 0.37347539D-01 0.83181945D-01 0.11689947D+06 0.11689947D+06 0.11689947D+06 0.11573932D+01  1  2 12  7  6  1       21 0.563995925204D-03 0.100000000000D+01
0.415146962494D-05 0.000000000000D+00 0.000000000000D+00 0.101548676350D-06 0.000000000000D+00  6 4 1 25 23 1 4 4 0.37347539D-01 0.83181945D-01 0.11689947D+06 0.11689947D+06 0.11689947D+06 0.11573932D+01  1  2 12  7  6  1       21 0.999099381278D-04 0.100000000000D+01
-.151882382427D-04 0.000000000000D+00 -.194992978971D-05 0.101854571814D-06 0.000000000000D+00  6 2 1 25 23 1 2 4 0.37442641D-01 0.83181945D-01 0.11183592D+06 0.11183592D+06 0.11183592D+06 0.11591351D+01  1  2  5  7  6  1       21 -.207101228058D-02 0.100000000000D+01
-.151882382427D-04 0.000000000000D+00 -.194992978971D-05 0.101854571814D-06 0.000000000000D+00  6 4 1 25 23 1 4 4 0.37442641D-01 0.83181945D-01 0.11183592D+06 0.11183592D+06 0.11183592D+06 0.11591351D+01  1  2  5  7  6  1       21 -.365669945404D-03 0.100000000000D+01
0.415146962494D-05 0.000000000000D+00 0.000000000000D+00 0.101548676350D-06 0.000000000000D+00  6 -3 1 25 23 1 -3 4 0.37347539D-01 0.83181945D-01 0.11689947D+06 0.11689947D+06 0.11689947D+06 0.11573932D+01  1  2 12  8  6  1       21 0.118159497427D-03 0.100000000000D+01
-.151882382427D-04 0.000000000000D+00 -.194992978971D-05 0.101854571814D-06 0.000000000000D+00  6 -3 1 25 23 1 -3 4 0.37442641D-01 0.83181945D-01 0.11183592D+06 0.11183592D+06 0.11183592D+06 0.11591351D+01  1  2  5  8  6  1       21 -.432663221355D-03 0.100000000000D+01
0.415146962494D-05 0.000000000000D+00 0.000000000000D+00 0.101548676350D-06 0.000000000000D+00  6 3 1 25 23 1 3 4 0.37347539D-01 0.83181945D-01 0.11689947D+06 0.11689947D+06 0.11689947D+06 0.11573932D+01  1  2 12  9  6  1       21 0.118180072961D-03 0.100000000000D+01
-.151882382427D-04 0.000000000000D+00 -.194992978971D-05 0.101854571814D-06 0.000000000000D+00  6 3 1 25 23 1 3 4 0.37442641D-01 0.83181945D-01 0.11183592D+06 0.11183592D+06 0.11183592D+06 0.11591351D+01  1  2  5  9  6  1       21 -.432739012629D-03 0.100000000000D+01
  </mgrwgt>
  </event>
  <event>
  5     66 -.44923357E-03 0.35575954E+02 0.75467711E-02 0.11622218E+00
       21 -1    0    0  501  502 0.00000000E+00 0.00000000E+00 0.70993409E+02 0.70997371E+02 0.75000000E+00 0.0000E+00 0.9000E+01
        1 -1    0    0  502    0 -.00000000E+00 -.00000000E+00 -.15299966E+04 0.15299966E+04 0.32000000E+00 0.0000E+00 0.9000E+01
       25  1    1    2    0    0 -.13169431E+03 -.54530578E+02 -.26827483E+03 0.32850169E+03 0.12500000E+03 0.0000E+00 0.9000E+01
       23  1    1    2    0    0 0.96842664E+02 0.61672671E+02 -.91797492E+02 0.17298570E+03 0.91188000E+02 0.0000E+00 0.9000E+01
        1  1    1    2  501    0 0.34851651E+02 -.71420931E+01 -.10989308E+04 0.10995066E+04 0.32000000E+00 0.0000E+00 0.9000E+01
#aMCatNLO 1  0  0  5  1 0.95573368D+01 0.00000000D+00  -5  6  0 0.00000000D+00 0.00000000D+00 0.00000000D+00 0.00000000D+00 0.00000000D+00
  <mgrwgt>
 -.3398348634D-01    1    2    0
 0.329579838877614D+03 0.000000000000000D+00 0.000000000000000D+00 0.329579838877614D+03
 0.329579838877614D+03 -.000000000000000D+00 -.000000000000000D+00 -.329579838877614D+03
 0.204071072092128D+03 -.131694323887849D+03 -.545305762641347D+02 0.755183671225379D+02
 0.216967542133659D+03 0.968426532710232D+02 0.616726734449906D+02 0.159930124908027D+03
 0.238121063529440D+03 0.348516706168256D+02 -.714209718085586D+01 -.235448492030565D+03
 0.000000000000000D+00 0.000000000000000D+00 0.000000000000000D+00 -.000000000000000D+00
 0.329579838877614D+03 0.000000000000000D+00 0.000000000000000D+00 0.329579838877614D+03
 0.329579838877614D+03 -.000000000000000D+00 -.000000000000000D+00 -.329579838877614D+03
 0.202783002221620D+03 -.131272276451861D+03 -.546170657709333D+02 0.726671284125995D+02
 0.214922349942453D+03 0.972906714502371D+02 0.615808617952733D+02 0.156903434857557D+03
 0.213030272204491D+03 0.375430079686468D+02 -.253189504734185D+02 -.208161884539678D+03
 0.284240533866641D+02 -.356140296702301D+01 0.183551544490786D+02 -.214086787304794D+02
-.294648399133D-04 0.000000000000D+00 0.000000000000D+00 0.386785309203D-07 0.000000000000D+00  6 21 1 25 23 1 21 4 0.10922370D-01 0.23538439D+00 0.34554929D+05 0.34554929D+05 0.34554929D+05 0.12085077D+01  1  2 14  3  6  5        1 -.339834863446D-01 0.100000000000D+01
  </mgrwgt>
  </event>
  <event>
  5     66 0.44923357E-03 0.38232354E+02 0.75467711E-02 0.12013139E+00
       21 -1    0    0  501  502 0.00000000E+00 0.00000000E+00 0.17356161E+02 0.17372358E+02 0.75000000E+00 0.0000E+00 0.9000E+01
        1 -1    0    0  502    0 0.00000000E+00 0.00000000E+00 -.13555248E+04 0.13555248E+04 0.32000000E+00 0.0000E+00 0.9000E+01
       25  1    1    2    0    0 -.50645251E+02 -.10733477E+02 -.79203268E+03 0.80350540E+03 0.12500000E+03 0.0000E+00 0.9000E+01
       23  1    1    2    0    0 0.80891146E+02 -.12650703E+02 -.43015319E+03 0.44726998E+03 0.91188000E+02 0.0000E+00 0.9000E+01
        1  1    1    2  501    0 -.30245895E+02 0.23384181E+02 -.11598275E+03 0.12212181E+03 0.32000000E+00 0.0000E+00 0.9000E+01
#aMCatNLO 1  0  0  1  2 0.25369800D+01 0.00000000D+00  -5  6  0 0.00000000D+00 0.00000000D+00 0.00000000D+00 0.00000000D+00 0.00000000D+00
  <mgrwgt>
 0.1246615924D-01   41    2    0
 0.153420501334600D+03 0.000000000000000D+00 0.000000000000000D+00 0.153420501334600D+03
 0.153420501334600D+03 0.000000000000000D+00 0.000000000000000D+00 -.153420501334600D+03
 0.140975234987954D+03 -.506448188233951D+02 -.107338112192197D+02 -.396093991744967D+02
 0.125270962070749D+03 0.808915295714164D+02 -.126510000756830D+02 0.259629588994176D+02
 0.405948056104962D+02 -.302467107480213D+02 0.233848112949027D+02 0.136464402750790D+02
 0.000000000000000D+00 0.000000000000000D+00 0.000000000000000D+00 0.000000000000000D+00
 0.160765162611728D+03 0.000000000000000D+00 0.000000000000000D+00 0.160765162611728D+03
 0.153644981551130D+03 0.000000000000000D+00 0.000000000000000D+00 -.153644981551130D+03
 0.141328501249821D+03 -.514336803046559D+02 -.115938471990355D+02 -.396093991744967D+02
 0.124900237784433D+03 0.801924583302185D+02 -.134131445511920D+02 0.259629588994176D+02
 0.406227514082219D+02 -.304736627649801D+02 0.231373826842873D+02 0.136464402750790D+02
 0.755865372038133D+01 0.171488473941760D+01 0.186960906594022D+01 0.712018106059819D+01
0.171076000099D-06 0.000000000000D+00 0.000000000000D+00 0.334383070378D-06 0.000000000000D+00  6 21 1 25 23 1 21 2 0.26714274D-02 0.20854352D+00 0.21915798D+05 0.21915798D+05 0.21915798D+05 0.12294762D+01  1  2  2  1  6  1       21 0.201395162922D-02 0.100000000000D+01
0.101199646973D-08 0.902792855356D-08 -.345353155020D-09 0.334383070378D-06 0.000000000000D+00  6 21 1 25 23 1 21 4 0.26714274D-02 0.20854352D+00 0.21915798D+05 0.21915798D+05 0.21915798D+05 0.12294762D+01  1  2  3  1  6  1       21 0.180085700949D-04 0.100000000000D+01
0.218852336561D-07 0.000000000000D+00 0.000000000000D+00 0.334383070378D-06 0.000000000000D+00  6 21 1 25 23 1 21 4 0.26714274D-02 0.20854352D+00 0.21915798D+05 0.21915798D+05 0.21915798D+05 0.12294762D+01  1  2 15  1  6  1       21 0.389449742298D-03 0.100000000000D+01
0.226597090221D-07 0.000000000000D+00 0.000000000000D+00 0.333941470271D-06 0.000000000000D+00  6 21 1 25 23 1 21 4 0.28012189D-02 0.20854352D+00 0.22295781D+05 0.22295781D+05 0.22295781D+05 0.12286641D+01  1  2 12  1  6  1       21 0.372068354984D-03 0.100000000000D+01
0.194461665867D-07 0.000000000000D+00 0.000000000000D+00 0.333941470271D-06 0.000000000000D+00  6 21 1 25 23 1 21 4 0.28218116D-02 0.20854352D+00 0.22295781D+05 0.22295781D+05 0.22295781D+05 0.12286641D+01  1  2 12  1  6  1       21 0.315488197425D-03 0.100000000000D+01
-.149726712909D-04 0.000000000000D+00 0.000000000000D+00 0.334383070378D-06 0.000000000000D+00  6 21 1 25 23 1 21 4 0.26714274D-02 0.20854352D+00 0.21915798D+05 0.21915798D+05 0.21915798D+05 0.12294762D+01  1  2  4  1  6  1       21 -.266440060333D+00 0.100000000000D+01
-.242009076899D-04 0.000000000000D+00 -.111017236391D-05 0.334383070378D-06 0.000000000000D+00  6 21 1 25 23 1 21 4 0.28032384D-02 0.20854352D+00 0.21915798D+05 0.21915798D+05 0.21915798D+05 0.12294762D+01  1  2  5  1  6  1       21 -.397975678661D+00 0.100000000000D+01
0.241251457025D-04 0.000000000000D+00 0.110503889242D-05 0.334383070378D-06 0.000000000000D+00  6 21 1 25 23 1 21 4 0.26714274D-02 0.20854352D+00 0.21915798D+05 0.21915798D+05 0.21915798D+05 0.12294762D+01  1  2  6  1  6  1       21 0.429309182819D+00 0.100000000000D+01
0.149174375356D-04 0.000000000000D+00 0.000000000000D+00 0.334383070378D-06 0.892691450054D-06  6 21 1 25 23 1 21 4 0.27993160D-02 0.20884866D+00 0.22295781D+05 0.22295781D+05 0.22295781D+05 0.12286641D+01  1  2 11  1  6  1       21 0.244472705390D+00 0.100000000000D+01
0.585294925360D-09 0.000000000000D+00 0.000000000000D+00 0.333941470271D-06 0.000000000000D+00  6 -1 1 25 23 1 -1 4 0.28012189D-02 0.20854352D+00 0.22295781D+05 0.22295781D+05 0.22295781D+05 0.12286641D+01  1  2 12  4  6  1       21 0.492639631847D-06 0.100000000000D+01
0.586656796062D-09 0.000000000000D+00 0.000000000000D+00 0.333941470271D-06 0.000000000000D+00  6 -1 1 25 23 1 -1 4 0.28218116D-02 0.20854352D+00 0.22295781D+05 0.22295781D+05 0.22295781D+05 0.12286641D+01  1  2 12  4  6  1       21 0.488543800488D-06 0.100000000000D+01
-.273854207731D-06 0.000000000000D+00 -.127423415492D-07 0.334383070378D-06 0.000000000000D+00  6 -1 1 25 23 1 -1 4 0.28032384D-02 0.20854352D+00 0.21915798D+05 0.21915798D+05 0.21915798D+05 0.12294762D+01  1  2  5  4  6  1       21 -.230823550580D-03 0.100000000000D+01
0.635935805464D-06 0.000000000000D+00 0.000000000000D+00 0.334383070378D-06 0.378377056206D-07  6 -1 1 25 23 1 -1 4 0.27993160D-02 0.20884866D+00 0.22295781D+05 0.22295781D+05 0.22295781D+05 0.12286641D+01  1  2 11  4  6  1       21 0.534172411350D-03 0.100000000000D+01
0.585294925360D-09 0.000000000000D+00 0.000000000000D+00 0.333941470271D-06 0.000000000000D+00  6 1 1 25 23 1 1 4 0.28012189D-02 0.20854352D+00 0.22295781D+05 0.22295781D+05 0.22295781D+05 0.12286641D+01  1  2 12  5  6  1       21 0.527680307121D-06 0.100000000000D+01
0.586656796062D-09 0.000000000000D+00 0.000000000000D+00 0.333941470271D-06 0.000000000000D+00  6 1 1 25 23 1 1 4 0.28218116D-02 0.20854352D+00 0.22295781D+05 0.22295781D+05 0.22295781D+05 0.12286641D+01  1  2 12  5  6  1       21 0.523548040496D-06 0.100000000000D+01
-.273854207731D-06 0.000000000000D+00 -.127423415492D-07 0.334383070378D-06 0.000000000000D+00  6 1 1 25 23 1 1 4 0.28032384D-02 0.20854352D+00 0.21915798D+05 0.21915798D+05 0.21915798D+05 0.12294762D+01  1  2  5  5  6  1       21 -.247258988555D-03 0.100000000000D+01
0.213360618798D-06 0.000000000000D+00 0.000000000000D+00 0.334383070378D-06 0.540802190409D-08  6 1 1 25 23 1 1 4 0.27993160D-02 0.20884866D+00 0.22295781D+05 0.22295781D+05 0.22295781D+05 0.12286641D+01  1  2 11  5  6  1       21 0.191957209894D-03 0.100000000000D+01
0.585294925360D-09 0.000000000000D+00 0.000000000000D+00 0.333941470271D-06 0.000000000000D+00  6 -2 1 25 23 1 -2 4 0.28012189D-02 0.20854352D+00 0.22295781D+05 0.22295781D+05 0.22295781D+05 0.12286641D+01  1  2 12  6  6  1       21 0.486358139244D-06 0.100000000000D+01
0.585294925360D-09 0.000000000000D+00 0.000000000000D+00 0.333941470271D-06 0.000000000000D+00  6 -4 1 25 23 1 -4 4 0.28012189D-02 0.20854352D+00 0.22295781D+05 0.22295781D+05 0.22295781D+05 0.12286641D+01  1  2 12  6  6  1       21 0.335709394411D-06 0.100000000000D+01
0.586656796062D-09 0.000000000000D+00 0.000000000000D+00 0.333941470271D-06 0.000000000000D+00  6 -2 1 25 23 1 -2 4 0.28218116D-02 0.20854352D+00 0.22295781D+05 0.22295781D+05 0.22295781D+05 0.12286641D+01  1  2 12  6  6  1       21 0.482269507617D-06 0.100000000000D+01
0.586656796062D-09 0.000000000000D+00 0.000000000000D+00 0.333941470271D-06 0.000000000000D+00  6 -4 1 25 23 1 -4 4 0.28218116D-02 0.20854352D+00 0.22295781D+05 0.22295781D+05 0.22295781D+05 0.12286641D+01  1  2 12  6  6  1       21 0.332655788831D-06 0.100000000000D+01
-.273854207731D-06 0.000000000000D+00 -.127423415492D-07 0.334383070378D-06 0.000000000000D+00  6 -2 1 25 23 1 -2 4 0.28032384D-02 0.20854352D+00 0.21915798D+05 0.21915798D+05 0.21915798D+05 0.12294762D+01  1  2  5  6  6  1       21 -.227877185480D-03 0.100000000000D+01
-.273854207731D-06 0.000000000000D+00 -.127423415492D-07 0.334383070378D-06 0.000000000000D+00  6 -4 1 25 23 1 -4 4 0.28032384D-02 0.20854352D+00 0.21915798D+05 0.21915798D+05 0.21915798D+05 0.12294762D+01  1  2  5  6  6  1       21 -.157200408273D-03 0.100000000000D+01
0.210539433770D-06 0.000000000000D+00 0.000000000000D+00 0.334383070378D-06 0.105926080305D-07  6 -2 1 25 23 1 -2 4 0.27993160D-02 0.20884866D+00 0.22295781D+05 0.22295781D+05 0.22295781D+05 0.12286641D+01  1  2 11  6  6  1       21 0.174595166160D-03 0.100000000000D+01
0.210539433770D-06 0.000000000000D+00 0.000000000000D+00 0.334383070378D-06 0.105926080305D-07  6 -4 1 25 23 1 -4 4 0.27993160D-02 0.20884866D+00 0.22295781D+05 0.22295781D+05 0.22295781D+05 0.12286641D+01  1  2 11  6  6  1       21 0.120522330585D-03 0.100000000000D+01
0.585294925360D-09 0.000000000000D+00 0.000000000000D+00 0.333941470271D-06 0.000000000000D+00  6 2 1 25 23 1 2 4 0.28012189D-02 0.20854352D+00 0.22295781D+05 0.22295781D+05 0.22295781D+05 0.12286641D+01  1  2 12  7  6  1       21 0.551555360538D-06 0.100000000000D+01
0.585294925360D-09 0.000000000000D+00 0.000000000000D+00 0.333941470271D-06 0.000000000000D+00  6 4 1 25 23 1 4 4 0.28012189D-02 0.20854352D+00 0.22295781D+05 0.22295781D+05 0.22295781D+05 0.12286641D+01  1  2 12  7  6  1       21 0.335709394411D-06 0.100000000000D+01
0.586656796062D-09 0.000000000000D+00 0.000000000000D+00 0.333941470271D-06 0.000000000000D+00  6 2 1 25 23 1 2 4 0.28218116D-02 0.20854352D+00 0.22295781D+05 0.22295781D+05 0.22295781D+05 0.12286641D+01  1  2 12  7  6  1       21 0.547393315041D-06 0.100000000000D+01
0.586656796062D-09 0.000000000000D+00 0.000000000000D+00 0.333941470271D-06 0.000000000000D+00  6 4 1 25 23 1 4 4 0.28218116D-02 0.20854352D+00 0.22295781D+05 0.22295781D+05 0.22295781D+05 0.12286641D+01  1  2 12  7  6  1       21 0.332655788831D-06 0.100000000000D+01
-.273854207731D-06 0.000000000000D+00 -.127423415492D-07 0.334383070378D-06 0.000000000000D+00  6 2 1 25 23 1 2 4 0.28032384D-02 0.20854352D+00 0.21915798D+05 0.21915798D+05 0.21915798D+05 0.12294762D+01  1  2  5  7  6  1       21 -.258456648065D-03 0.100000000000D+01
-.273854207731D-06 0.000000000000D+00 -.127423415492D-07 0.334383070378D-06 0.000000000000D+00  6 4 1 25 23 1 4 4 0.28032384D-02 0.20854352D+00 0.21915798D+05 0.21915798D+05 0.21915798D+05 0.12294762D+01  1  2  5  7  6  1       21 -.157200408273D-03 0.100000000000D+01
0.211372256384D-06 0.000000000000D+00 0.000000000000D+00 0.334383070378D-06 0.106345087963D-07  6 2 1 25 23 1 2 4 0.27993160D-02 0.20884866D+00 0.22295781D+05 0.22295781D+05 0.22295781D+05 0.12286641D+01  1  2 11  7  6  1       21 0.198767254100D-03 0.100000000000D+01
0.211372256384D-06 0.000000000000D+00 0.000000000000D+00 0.334383070378D-06 0.106345087963D-07  6 4 1 25 23 1 4 4 0.27993160D-02 0.20884866D+00 0.22295781D+05 0.22295781D+05 0.22295781D+05 0.12286641D+01  1  2 11  7  6  1       21 0.120999076060D-03 0.100000000000D+01
0.585294925360D-09 0.000000000000D+00 0.000000000000D+00 0.333941470271D-06 0.000000000000D+00  6 -3 1 25 23 1 -3 4 0.28012189D-02 0.20854352D+00 0.22295781D+05 0.22295781D+05 0.22295781D+05 0.12286641D+01  1  2 12  8  6  1       21 0.371290627813D-06 0.100000000000D+01
0.586656796062D-09 0.000000000000D+00 0.000000000000D+00 0.333941470271D-06 0.000000000000D+00  6 -3 1 25 23 1 -3 4 0.28218116D-02 0.20854352D+00 0.22295781D+05 0.22295781D+05 0.22295781D+05 0.12286641D+01  1  2 12  8  6  1       21 0.367968181188D-06 0.100000000000D+01
-.273854207731D-06 0.000000000000D+00 -.127423415492D-07 0.334383070378D-06 0.000000000000D+00  6 -3 1 25 23 1 -3 4 0.28032384D-02 0.20854352D+00 0.21915798D+05 0.21915798D+05 0.21915798D+05 0.12294762D+01  1  2  5  8  6  1       21 -.173892810929D-03 0.100000000000D+01
0.213727569849D-06 0.000000000000D+00 0.000000000000D+00 0.334383070378D-06 0.107530087461D-07  6 -3 1 25 23 1 -3 4 0.27993160D-02 0.20884866D+00 0.22295781D+05 0.22295781D+05 0.22295781D+05 0.12286641D+01  1  2 11  8  6  1       21 0.135312874142D-03 0.100000000000D+01
0.585294925360D-09 0.000000000000D+00 0.000000000000D+00 0.333941470271D-06 0.000000000000D+00  6 3 1 25 23 1 3 4 0.28012189D-02 0.20854352D+00 0.22295781D+05 0.22295781D+05 0.22295781D+05 0.12286641D+01  1  2 12  9  6  1       21 0.371264516104D-06 0.100000000000D+01
0.586656796062D-09 0.000000000000D+00 0.000000000000D+00 0.333941470271D-06 0.000000000000D+00  6 3 1 25 23 1 3 4 0.28218116D-02 0.20854352D+00 0.22295781D+05 0.22295781D+05 0.22295781D+05 0.12286641D+01  1  2 12  9  6  1       21 0.367942184811D-06 0.100000000000D+01
-.273854207731D-06 0.000000000000D+00 -.127423415492D-07 0.334383070378D-06 0.000000000000D+00  6 3 1 25 23 1 3 4 0.28032384D-02 0.20854352D+00 0.21915798D+05 0.21915798D+05 0.21915798D+05 0.12294762D+01  1  2  5  9  6  1       21 -.173880558928D-03 0.100000000000D+01
0.212288895709D-06 0.000000000000D+00 0.000000000000D+00 0.334383070378D-06 0.106806265279D-07  6 3 1 25 23 1 3 4 0.27993160D-02 0.20884866D+00 0.22295781D+05 0.22295781D+05 0.22295781D+05 0.12286641D+01  1  2 11  9  6  1       21 0.134392588349D-03 0.100000000000D+01
  </mgrwgt>
  </event>
  <event>
  6     66 -.44923357E-03 0.55699564E+02 0.75467711E-02 0.11863730E+00
       21 -1    0    0  501  503 0.00000000E+00 0.00000000E+00 0.11979361E+03 0.11979596E+03 0.75000000E+00 0.0000E+00 0.9000E+01
        1 -1    0    0  502    0 0.00000000E+00 0.00000000E+00 -.74383447E+03 0.74383454E+03 0.32000000E+00 0.0000E+00 0.9000E+01
       25  1    1    2    0    0 0.26862134E+01 -.31368062E+02 -.47659314E+03 0.49371772E+03 0.12500000E+03 0.0000E+00 0.9000E+01
       23  1    1    2    0    0 0.40590151E+02 0.77835173E+02 -.22948484E+03 0.26207713E+03 0.91188000E+02 0.0000E+00 0.9000E+01
        1  1    1    2  501    0 -.34948080E+02 -.48800823E+02 0.77540348E+02 0.98058638E+02 0.32000000E+00 0.0000E+00 0.9000E+01
       21  1    1    2  502  503 -.83282847E+01 0.23337115E+01 0.44967777E+01 0.97770162E+01 0.75000000E+00 0.0000E+00 0.9000E+01
#aMCatNLO 2  0  0  1  2 0.86490771D+01 0.00000000D+00  -5  6  0 0.00000000D+00 0.00000000D+00 0.00000000D+00 0.00000000D+00 0.00000000D+00
  <mgrwgt>
 -.3691661688D-01    3    2    0
 0.288933993720137D+03 0.000000000000000D+00 0.000000000000000D+00 0.288933993720137D+03
 0.288933993720137D+03 0.000000000000000D+00 0.000000000000000D+00 -.288933993720137D+03
 0.210965716814321D+03 -.355079905629644D+00 -.305158251035628D+02 -.167183109217079D+03
 0.137365666586157D+03 0.386087061840141D+02 0.783904179033593D+02 -.540220806744106D+02
 0.229536604039797D+03 -.382536262783844D+02 -.478745927997965D+02 0.221205189891489D+03
 0.000000000000000D+00 -.000000000000000D+00 0.000000000000000D+00 0.000000000000000D+00
 0.307264733243702D+03 0.000000000000000D+00 0.000000000000000D+00 0.307264733243702D+03
 0.289988392850982D+03 0.000000000000000D+00 0.000000000000000D+00 -.289988392850982D+03
 0.211107465787974D+03 0.268622785808416D+01 -.313680455850468D+02 -.167183109217079D+03
 0.137620905428771D+03 0.405901606588748D+02 0.778351843598318D+02 -.540220806744106D+02
 0.229204338918069D+03 -.349481038029947D+02 -.488008502437629D+02 0.221205189891489D+03
 0.193204159598699D+02 -.832828471396427D+01 0.233371146897793D+01 0.172763403927193D+02
-.350949908862D-04 0.000000000000D+00 0.000000000000D+00 0.193665822836D-05 0.000000000000D+00  6 21 1 25 23 1 21 4 0.18459986D-01 0.11401732D+00 0.26268549D+05 0.26268549D+05 0.26268549D+05 0.12209997D+01  1  2 13  1  6  1       21 -.609318109213D-01 0.100000000000D+01
-.543398471986D-05 0.000000000000D+00 0.000000000000D+00 0.194393479367D-05 0.000000000000D+00  6 21 1 25 23 1 21 4 0.17330048D-01 0.11401732D+00 0.25003377D+05 0.25003377D+05 0.25003377D+05 0.12232914D+01  1  2  8  1  6  1       21 -.106892977316D-01 0.100000000000D+01
0.200349755262D-04 0.000000000000D+00 0.000000000000D+00 0.194393479367D-05 0.280174046479D-06  6 21 1 25 23 1 21 4 0.18429512D-01 0.11443340D+00 0.26268549D+05 0.26268549D+05 0.26268549D+05 0.12209997D+01  1  2  1  1  6  1       21 0.347044917752D-01 0.100000000000D+01
  </mgrwgt>
  </event>
  <event>
  5     66 0.44923357E-03 0.27705769E+02 0.75467711E-02 0.11020006E+00
       21 -1    0    0  501  502 0.00000000E+00 0.00000000E+00 0.17600512E+03 0.17600672E+03 0.75000000E+00 0.0000E+00 0.9000E+01
        1 -1    0    0  502    0 0.00000000E+00 0.00000000E+00 -.48324859E+03 0.48324870E+03 0.32000000E+00 0.0000E+00 0.9000E+01
       25  1    1    2    0    0 0.10394926E+03 -.20908981E+03 -.12850333E+03 0.29438428E+03 0.12500000E+03 0.0000E+00 0.9000E+01
       23  1    1    2    0    0 -.11195928E+03 0.18256744E+03 -.21659915E+03 0.31795628E+03 0.91188000E+02 0.0000E+00 0.9000E+01
        1  1    1    2  501    0 0.80100262E+01 0.26522372E+02 0.37859015E+02 0.46914861E+02 0.32000000E+00 0.0000E+00 0.9000E+01
#aMCatNLO 1  0  0  2  1 0.13113889D+02 0.00000000D+00  -5  6  0 0.00000000D+00 0.00000000D+00 0.00000000D+00 0.00000000D+00 0.00000000D+00
  <mgrwgt>
 0.1901390282D+00    9    2    0
 0.291641542835860D+03 0.000000000000000D+00 0.000000000000000D+00 0.291641542835860D+03
 0.291641542835860D+03 0.000000000000000D+00 0.000000000000000D+00 -.291641542835860D+03
 0.265038819537088D+03 0.103949220795205D+03 -.209089927967848D+03 0.982534376411514D+01
 0.245276676988519D+03 -.111959314425988D+03 0.182567332907105D+03 -.773283764149958D+02
 0.729675891461127D+02 0.801009363078301D+01 0.265225950607429D+02 0.675030326508806D+02
 0.000000000000000D+00 0.000000000000000D+00 0.000000000000000D+00 -.000000000000000D+00
 0.296585813244829D+03 0.000000000000000D+00 0.000000000000000D+00 0.296585813244829D+03
 0.300542447306666D+03 0.000000000000000D+00 0.000000000000000D+00 -.300542447306666D+03
 0.267872415005925D+03 0.100796048423990D+03 -.214182748985842D+03 0.982534376411514D+01
 0.243173839819128D+03 -.114849418020115D+03 0.177899405310530D+03 -.773283764149958D+02
 0.723842312679681D+02 0.715006420275167D+01 0.251335254408402D+02 0.675030326508806D+02
 0.136977744584741D+02 0.690330539337384D+01 0.111498182344712D+02 -.395663406183777D+01
0.159679162573D-04 0.000000000000D+00 0.000000000000D+00 0.480300525838D-06 0.000000000000D+00  6 21 1 25 23 1 21 2 0.27077842D-01 0.74346069D-01 0.68993025D+05 0.68993025D+05 0.68993025D+05 0.11786764D+01  1  2  2  2  6  2        1 0.147845056549D-01 0.100000000000D+01
0.306662900793D-05 0.842650091404D-06 -.322346223630D-07 0.480300525838D-06 0.000000000000D+00  6 21 1 25 23 1 21 4 0.27077842D-01 0.74346069D-01 0.68993025D+05 0.68993025D+05 0.68993025D+05 0.11786764D+01  1  2  3  2  6  2        1 0.394465467641D-02 0.100000000000D+01
0.205783632464D-05 0.000000000000D+00 0.000000000000D+00 0.480300525838D-06 0.000000000000D+00  6 21 1 25 23 1 21 4 0.27077842D-01 0.74346069D-01 0.68993025D+05 0.68993025D+05 0.68993025D+05 0.11786764D+01  1  2 15  2  6  2        1 0.264702827120D-02 0.100000000000D+01
0.108997502138D-03 0.000000000000D+00 0.000000000000D+00 0.478757469961D-06 0.000000000000D+00  6 21 1 25 23 1 21 4 0.27077842D-01 0.77230256D-01 0.72223335D+05 0.72223335D+05 0.72223335D+05 0.11767815D+01  1  2 12  2  6  2        1 0.132251829345D+00 0.100000000000D+01
-.198484974678D-04 0.000000000000D+00 0.000000000000D+00 0.480300525838D-06 0.000000000000D+00  6 21 1 25 23 1 21 4 0.27077842D-01 0.74346069D-01 0.68993025D+05 0.68993025D+05 0.68993025D+05 0.11786764D+01  1  2  4  2  6  2        1 -.255314445124D-01 0.100000000000D+01
-.105060449986D-02 0.000000000000D+00 -.155662945903D-03 0.480300525838D-06 0.000000000000D+00  6 21 1 25 23 1 21 4 0.27077842D-01 0.77670902D-01 0.68993025D+05 0.68993025D+05 0.68993025D+05 0.11786764D+01  1  2  5  2  6  2        1 -.127500373532D+01 0.100000000000D+01
0.105655228288D-02 0.000000000000D+00 0.155514090996D-03 0.480300525838D-06 0.000000000000D+00  6 21 1 25 23 1 21 4 0.27077842D-01 0.74346069D-01 0.68993025D+05 0.68993025D+05 0.68993025D+05 0.11786764D+01  1  2  6  2  6  2        1 0.135906035349D+01 0.100000000000D+01
0.176562253790D-05 0.000000000000D+00 0.000000000000D+00 0.478757469961D-06 0.000000000000D+00  6 21 21 25 23 1 -1 4 0.27077842D-01 0.77230256D-01 0.72223335D+05 0.72223335D+05 0.72223335D+05 0.11767815D+01  1  2 12 10  6  2        1 0.628978592149D-02 0.100000000000D+01
-.797414436793D-05 0.000000000000D+00 -.119715371954D-05 0.480300525838D-06 0.000000000000D+00  6 21 21 25 23 1 -1 4 0.27077842D-01 0.77670902D-01 0.68993025D+05 0.68993025D+05 0.68993025D+05 0.11786764D+01  1  2  5 10  6  2        1 -.283039492990D-01 0.100000000000D+01
  </mgrwgt>
  </event>
  <event>
  5     66 0.44923357E-03 0.30482032E+02 0.75467711E-02 0.11237744E+00
       21 -1    0    0  501  502 0.00000000E+00 0.00000000E+00 0.37194118E+03 0.37194194E+03 0.75000000E+00 0.0000E+00 0.9000E+01
        1 -1    0    0  502    0 0.00000000E+00 0.00000000E+00 -.12018744E+03 0.12018787E+03 0.32000000E+00 0.0000E+00 0.9000E+01
       25  1    1    2    0    0 -.82763037E+00 -.15641795E+03 0.91599287E+02 0.22018785E+03 0.12500000E+03 0.0000E+00 0.9000E+01
       23  1    1    2    0    0 -.28928484E+02 0.16302388E+03 0.13304851E+03 0.23115103E+03 0.91188000E+02 0.0000E+00 0.9000E+01
        1  1    1    2  501    0 0.29756115E+02 -.66059205E+01 0.27105946E+02 0.40790921E+02 0.32000000E+00 0.0000E+00 0.9000E+01
#aMCatNLO 1  0  0  1  5 0.46101364D+02 0.00000000D+00  -5  6  0 0.00000000D+00 0.00000000D+00 0.00000000D+00 0.00000000D+00 0.00000000D+00
  <mgrwgt>
 0.2866811052D-01   14    2    0
 0.211430719901481D+03 0.000000000000000D+00 0.000000000000000D+00 0.211430719901481D+03
 0.211430719901481D+03 0.000000000000000D+00 0.000000000000000D+00 -.211430719901481D+03
 0.201722102459310D+03 -.828370615285575D+00 -.156417790327683D+03 -.244866349614036D+02
 0.189804360377073D+03 -.289291807558909D+02 0.163024029838105D+03 0.172253322257504D+02
 0.313349769665795D+02 0.297575513711764D+02 -.660623951042169D+01 0.726130273565318D+01
 0.000000000000000D+00 0.000000000000000D+00 -.000000000000000D+00 0.000000000000000D+00
 0.288307970320865D+03 0.000000000000000D+00 0.000000000000000D+00 0.288307970320865D+03
 0.219709483514003D+03 0.000000000000000D+00 0.000000000000000D+00 -.219709483514003D+03
 0.189861307128301D+03 -.144332341298331D+02 -.140051427715990D+03 -.244866349614036D+02
 0.206612828668076D+03 -.427019852714335D+02 0.179592421916446D+03 0.172253322257504D+02
 0.288929210030035D+02 0.276650410360037D+02 -.408899390354491D+01 0.726130273565318D+01
 0.826503970354875D+02 0.294701783652630D+02 -.354520002969103D+02 0.685984868068617D+02
0.635998153020D-05 0.000000000000D+00 0.000000000000D+00 0.203809862821D-06 0.000000000000D+00  6 21 1 25 23 1 21 2 0.57221812D-01 0.18490466D-01 0.44044062D+05 0.44044062D+05 0.44044062D+05 0.11977757D+01  1  2  2  1  6  1       21 0.792422946277D-02 0.100000000000D+01
0.510938432016D-06 0.335625446137D-06 -.128389703176D-07 0.203809862821D-06 0.000000000000D+00  6 21 1 25 23 1 21 4 0.57221812D-01 0.18490466D-01 0.44044062D+05 0.44044062D+05 0.44044062D+05 0.11977757D+01  1  2  3  1  6  1       21 0.913315415751D-03 0.100000000000D+01
0.798779031535D-06 0.000000000000D+00 0.000000000000D+00 0.203809862821D-06 0.000000000000D+00  6 21 1 25 23 1 21 4 0.57221812D-01 0.18490466D-01 0.44044062D+05 0.44044062D+05 0.44044062D+05 0.11977757D+01  1  2 15  1  6  1       21 0.142783779329D-02 0.100000000000D+01
-.493010480939D-05 0.000000000000D+00 0.000000000000D+00 0.203809862821D-06 0.000000000000D+00  6 21 1 25 23 1 21 4 0.57221812D-01 0.18490466D-01 0.44044062D+05 0.44044062D+05 0.44044062D+05 0.11977757D+01  1  2  4  1  6  1       21 -.881268748158D-02 0.100000000000D+01
-.481662572699D-04 0.000000000000D+00 -.796145001972D-05 0.203809862821D-06 0.000000000000D+00  6 21 1 25 23 1 21 4 0.79906321D-01 0.18490466D-01 0.44044062D+05 0.44044062D+05 0.44044062D+05 0.11977757D+01  1  2  5  1  6  1       21 -.413339960739D-01 0.100000000000D+01
0.412408087263D-04 0.000000000000D+00 0.643219287422D-05 0.203809862821D-06 0.000000000000D+00  6 21 1 25 23 1 21 4 0.57221812D-01 0.18490466D-01 0.44044062D+05 0.44044062D+05 0.44044062D+05 0.11977757D+01  1  2  6  1  6  1       21 0.737189923630D-01 0.100000000000D+01
-.469274926154D-05 0.000000000000D+00 -.855058731360D-06 0.203809862821D-06 0.000000000000D+00  6 -1 1 25 23 1 -1 4 0.79906321D-01 0.18490466D-01 0.44044062D+05 0.44044062D+05 0.44044062D+05 0.11977757D+01  1  2  5  4  6  1       21 -.448385179866D-03 0.100000000000D+01
-.469274926154D-05 0.000000000000D+00 -.855058731360D-06 0.203809862821D-06 0.000000000000D+00  6 1 1 25 23 1 1 4 0.79906321D-01 0.18490466D-01 0.44044062D+05 0.44044062D+05 0.44044062D+05 0.11977757D+01  1  2  5  5  6  1       21 -.139340963793D-02 0.100000000000D+01
-.469274926154D-05 0.000000000000D+00 -.855058731360D-06 0.203809862821D-06 0.000000000000D+00  6 -2 1 25 23 1 -2 4 0.79906321D-01 0.18490466D-01 0.44044062D+05 0.44044062D+05 0.44044062D+05 0.11977757D+01  1  2  5  6  6  1       21 -.343166443519D-03 0.100000000000D+01
-.469274926154D-05 0.000000000000D+00 -.855058731360D-06 0.203809862821D-06 0.000000000000D+00  6 -4 1 25 23 1 -4 4 0.79906321D-01 0.18490466D-01 0.44044062D+05 0.44044062D+05 0.44044062D+05 0.11977757D+01  1  2  5  6  6  1       21 -.176802099233D-03 0.100000000000D+01
-.469274926154D-05 0.000000000000D+00 -.855058731360D-06 0.203809862821D-06 0.000000000000D+00  6 2 1 25 23 1 2 4 0.79906321D-01 0.18490466D-01 0.44044062D+05 0.44044062D+05 0.44044062D+05 0.11977757D+01  1  2  5  7  6  1       21 -.219556134716D-02 0.100000000000D+01
-.469274926154D-05 0.000000000000D+00 -.855058731360D-06 0.203809862821D-06 0.000000000000D+00  6 4 1 25 23 1 4 4 0.79906321D-01 0.18490466D-01 0.44044062D+05 0.44044062D+05 0.44044062D+05 0.11977757D+01  1  2  5  7  6  1       21 -.176802099233D-03 0.100000000000D+01
-.469274926154D-05 0.000000000000D+00 -.855058731360D-06 0.203809862821D-06 0.000000000000D+00  6 -3 1 25 23 1 -3 4 0.79906321D-01 0.18490466D-01 0.44044062D+05 0.44044062D+05 0.44044062D+05 0.11977757D+01  1  2  5  8  6  1       21 -.217587486101D-03 0.100000000000D+01
-.469274926154D-05 0.000000000000D+00 -.855058731360D-06 0.203809862821D-06 0.000000000000D+00  6 3 1 25 23 1 3 4 0.79906321D-01 0.18490466D-01 0.44044062D+05 0.44044062D+05 0.44044062D+05 0.11977757D+01  1  2  5  9  6  1       21 -.217866664276D-03 0.100000000000D+01
  </mgrwgt>
  </event>
  <event>
  5     66 -.44923357E-03 0.44396560E+02 0.75467711E-02 0.11556690E+00
       21 -1    0    0  501  502 0.00000000E+00 0.00000000E+00 0.42567389E+03 0.42567455E+03 0.75000000E+00 0.0000E+00 0.9000E+01
        1 -1    0    0  502    0 0.00000000E+00 0.00000000E+00 -.19417373E+03 0.19417400E+03 0.32000000E+00 0.0000E+00 0.9000E+01
       25  1    1    2    0    0 -.24911439E+02 -.13310343E+03 0.27124337E+02 0.18627355E+03 0.12500000E+03 0.0000E+00 0.9000E+01
       23  1    1    2    0    0 -.18630094E+02 0.12443249E+03 -.59201448E+02 0.16628466E+03 0.91188000E+02 0.0000E+00 0.9000E+01
        1  1    1    2  501    0 0.43541533E+02 0.86709440E+01 0.26357726E+03 0.26729034E+03 0.32000000E+00 0.0000E+00 0.9000E+01
#aMCatNLO 1  0  0  2  1 0.20294838D+01 0.00000000D+00  -5  6  0 0.00000000D+00 0.00000000D+00 0.00000000D+00 0.00000000D+00 0.00000000D+00
  <mgrwgt>
 -.6122785852D-01   11    2    0
 0.287497782444828D+03 0.000000000000000D+00 0.000000000000000D+00 0.287497782444828D+03
 0.287497782444828D+03 0.000000000000000D+00 0.000000000000000D+00 -.287497782444828D+03
 0.189883401888998D+03 -.249114609976115D+02 -.133103438601801D+03 -.457558745548582D+02
 0.203091103746604D+03 -.186301176906333D+02 0.124432485458436D+03 -.130767810849930D+03
 0.182021059254054D+03 0.435415786882448D+02 0.867095314336536D+01 0.176523685404788D+03
 0.000000000000000D+00 -.000000000000000D+00 0.000000000000000D+00 -.000000000000000D+00
 0.287506161773754D+03 0.000000000000000D+00 0.000000000000000D+00 0.287506161773754D+03
 0.443786355805093D+03 0.000000000000000D+00 0.000000000000000D+00 -.443786355805093D+03
 0.190170595784978D+03 -.244570996679667D+02 -.133596802808917D+03 -.457558745548582D+02
 0.202724760189105D+03 -.181449575906020D+02 0.123905678680528D+03 -.130767810849930D+03
 0.182103790501142D+03 0.439768964375753D+02 0.819826723849401D+01 0.176523685404788D+03
 0.156293371103623D+03 -.137483917900651D+01 0.149285688989431D+01 -.156280194031339D+03
0.624424483022D-06 0.000000000000D+00 0.000000000000D+00 0.101755870695D-05 0.000000000000D+00  6 21 1 25 23 1 21 2 0.65488362D-01 0.29872953D-01 0.36878167D+05 0.36878167D+05 0.36878167D+05 0.12056006D+01  1  2  2  2  6  2        1 0.321345180297D-03 0.100000000000D+01
0.979296854370D-07 0.329517852682D-07 -.126053312655D-08 0.101755870695D-05 0.000000000000D+00  6 21 1 25 23 1 21 4 0.65488362D-01 0.29872953D-01 0.36878167D+05 0.36878167D+05 0.36878167D+05 0.12056006D+01  1  2  3  2  6  2        1 0.732509286721D-04 0.100000000000D+01
0.552435754213D-07 0.000000000000D+00 0.000000000000D+00 0.101755870695D-05 0.000000000000D+00  6 21 1 25 23 1 21 4 0.65488362D-01 0.29872953D-01 0.36878167D+05 0.36878167D+05 0.36878167D+05 0.12056006D+01  1  2 15  2  6  2        1 0.413219258769D-04 0.100000000000D+01
0.883266401112D-05 0.000000000000D+00 0.000000000000D+00 0.101670722761D-05 0.000000000000D+00  6 21 1 25 23 1 21 4 0.65488362D-01 0.46112628D-01 0.37298816D+05 0.37298816D+05 0.37298816D+05 0.12050961D+01  1  2 12  2  6  2        1 0.382982582090D-02 0.100000000000D+01
-.595415601526D-02 0.000000000000D+00 0.000000000000D+00 0.101755870695D-05 0.000000000000D+00  6 21 1 25 23 1 21 4 0.65488362D-01 0.29872953D-01 0.36878167D+05 0.36878167D+05 0.36878167D+05 0.12056006D+01  1  2  4  2  6  2        1 -.445367975635D+01 0.100000000000D+01
-.652292054854D-02 0.000000000000D+00 -.848855158538D-06 0.101755870695D-05 0.000000000000D+00  6 21 1 25 23 1 21 4 0.65488362D-01 0.46112892D-01 0.36878167D+05 0.36878167D+05 0.36878167D+05 0.12056006D+01  1  2  5  2  6  2        1 -.283429046598D+01 0.100000000000D+01
0.595345213902D-02 0.000000000000D+00 0.774695257865D-06 0.101755870695D-05 0.000000000000D+00  6 21 1 25 23 1 21 4 0.65488362D-01 0.29872953D-01 0.36878167D+05 0.36878167D+05 0.36878167D+05 0.12056006D+01  1  2  6  2  6  2        1 0.445315326034D+01 0.100000000000D+01
0.641574308338D-02 0.000000000000D+00 0.000000000000D+00 0.101755870695D-05 0.206364289087D-05  6 21 1 25 23 1 21 4 0.65490270D-01 0.46112387D-01 0.37298816D+05 0.37298816D+05 0.37298816D+05 0.12050961D+01  1  2 11  2  6  2        1 0.278169515012D+01 0.100000000000D+01
0.446738911966D-06 0.000000000000D+00 0.000000000000D+00 0.101670722761D-05 0.000000000000D+00  6 21 21 25 23 1 -1 4 0.65488362D-01 0.46112628D-01 0.37298816D+05 0.37298816D+05 0.37298816D+05 0.12050961D+01  1  2 12 10  6  2        1 0.910202620477D-03 0.100000000000D+01
-.329887564954D-03 0.000000000000D+00 -.429338608359D-07 0.101755870695D-05 0.000000000000D+00  6 21 21 25 23 1 -1 4 0.65488362D-01 0.46112892D-01 0.36878167D+05 0.36878167D+05 0.36878167D+05 0.12056006D+01  1  2  5 10  6  2        1 -.673739675958D+00 0.100000000000D+01
0.324178047751D-03 0.000000000000D+00 0.000000000000D+00 0.101755870695D-05 0.104272747836D-06  6 21 21 25 23 1 -1 4 0.65490270D-01 0.46112387D-01 0.37298816D+05 0.37298816D+05 0.37298816D+05 0.12050961D+01  1  2 11 10  6  2        1 0.660457682822D+00 0.100000000000D+01
  </mgrwgt>
  </event>
  <event>
  5     66 0.44923357E-03 0.32319057E+02 0.75467711E-02 0.12141945E+00
       21 -1    0    0  501  502 0.00000000E+00 0.00000000E+00 0.12314769E+04 0.12314771E+04 0.75000000E+00 0.0000E+00 0.9000E+01
        3 -1    0    0  502    0 0.00000000E+00 0.00000000E+00 -.17789872E+02 0.17796897E+02 0.50000000E+00 0.0000E+00 0.9000E+01
       25  1    1    2    0    0 -.32224047E+01 -.55851549E+02 0.80002918E+03 0.81166586E+03 0.12500000E+03 0.0000E+00 0.9000E+01
       23  1    1    2    0    0 -.20630136E+02 0.34048268E+02 0.22245796E+03 0.24369588E+03 0.91188000E+02 0.0000E+00 0.9000E+01
        3  1    1    2  501    0 0.23852541E+02 0.21803280E+02 0.19119989E+03 0.19391229E+03 0.50000000E+00 0.0000E+00 0.9000E+01
#aMCatNLO 1  0  0  2  1 0.97611953D+01 0.00000000D+00  -5  6  0 0.00000000D+00 0.00000000D+00 0.00000000D+00 0.00000000D+00 0.00000000D+00
  <mgrwgt>
 0.4583803337D-01   11    2    0
 0.148028196612760D+03 0.000000000000000D+00 0.000000000000000D+00 0.148028196612760D+03
 0.148028196612760D+03 0.000000000000000D+00 0.000000000000000D+00 -.148028196612760D+03
 0.145270006022210D+03 -.322363920633789D+01 -.558526769913331D+02 0.484609252167372D+02
 0.116358382376645D+03 -.206311252511886D+02 0.340473643743660D+02 -.603254130142385D+02
 0.344280048266639D+02 0.238547644575264D+02 0.218053126169671D+02 0.118644877975013D+02
 0.000000000000000D+00 0.000000000000000D+00 0.000000000000000D+00 -.000000000000000D+00
 0.150296494954146D+03 0.000000000000000D+00 0.000000000000000D+00 0.150296494954146D+03
 0.158996082288578D+03 0.000000000000000D+00 0.000000000000000D+00 -.158996082288578D+03
 0.146186400493411D+03 -.762205077623476D+01 -.577832740360234D+02 0.484609252167372D+02
 0.116593294226608D+03 -.241466333226974D+02 0.325043006147372D+02 -.603254130142385D+02
 0.334375716639106D+02 0.228305950443286D+02 0.213557734115152D+02 0.118644877975013D+02
 0.130753108587939D+02 0.893808905460358D+01 0.392320000977100D+01 -.869958733443162D+01
0.446258201660D-05 0.000000000000D+00 0.000000000000D+00 0.387172989015D-06 0.000000000000D+00  6 21 3 25 23 3 21 2 0.18945854D+00 0.27374613D-02 0.18058921D+05 0.18058921D+05 0.18058921D+05 0.12387374D+01  1  2  2  2  6  2        3 0.313286235079D-02 0.100000000000D+01
0.536172381771D-07 0.235496922928D-06 -.900866736464D-08 0.387172989015D-06 0.000000000000D+00  6 21 3 25 23 3 21 4 0.18945854D+00 0.27374613D-02 0.18058921D+05 0.18058921D+05 0.18058921D+05 0.12387374D+01  1  2  3  2  6  2        3 0.577587804645D-04 0.100000000000D+01
0.349712003724D-06 0.000000000000D+00 0.000000000000D+00 0.387172989015D-06 0.000000000000D+00  6 21 3 25 23 3 21 4 0.18945854D+00 0.27374613D-02 0.18058921D+05 0.18058921D+05 0.18058921D+05 0.12387374D+01  1  2 15  2  6  2        3 0.376724716446D-03 0.100000000000D+01
0.717006416533D-04 0.000000000000D+00 0.000000000000D+00 0.384985806289D-06 0.000000000000D+00  6 21 3 25 23 3 21 4 0.18945854D+00 0.29602622D-02 0.19420833D+05 0.19420833D+05 0.19420833D+05 0.12352335D+01  1  2 12  2  6  2        3 0.676612151504D-01 0.100000000000D+01
-.155922418593D-04 0.000000000000D+00 0.000000000000D+00 0.387172989015D-06 0.000000000000D+00  6 21 3 25 23 3 21 4 0.18945854D+00 0.27374613D-02 0.18058921D+05 0.18058921D+05 0.18058921D+05 0.12387374D+01  1  2  4  2  6  2        3 -.167966293140D-01 0.100000000000D+01
-.164911458133D-03 0.000000000000D+00 -.241057878840D-04 0.387172989015D-06 0.000000000000D+00  6 21 3 25 23 3 21 4 0.18945854D+00 0.29867515D-02 0.18058921D+05 0.18058921D+05 0.18058921D+05 0.12387374D+01  1  2  5  2  6  2        3 -.155306995532D+00 0.100000000000D+01
0.166471010748D-03 0.000000000000D+00 0.240145222330D-04 0.387172989015D-06 0.000000000000D+00  6 21 3 25 23 3 21 4 0.18945854D+00 0.27374613D-02 0.18058921D+05 0.18058921D+05 0.18058921D+05 0.12387374D+01  1  2  6  2  6  2        3 0.179329687436D+00 0.100000000000D+01
0.683896640823D-11 0.000000000000D+00 0.000000000000D+00 0.387172989015D-06 0.353331593651D-07  6 21 3 25 23 3 21 4 0.19236170D+00 0.29402886D-02 0.19420833D+05 0.19420833D+05 0.19420833D+05 0.12352335D+01  1  2 11  2  6  2        3 0.624559006055D-08 0.100000000000D+01
0.978212779789D-06 0.000000000000D+00 0.000000000000D+00 0.384985806289D-06 0.000000000000D+00  6 21 21 25 23 3 -3 4 0.18945854D+00 0.29602622D-02 0.19420833D+05 0.19420833D+05 0.19420833D+05 0.12352335D+01  1  2 12 10  6  2        3 0.238855722774D-01 0.100000000000D+01
-.231457940901D-05 0.000000000000D+00 -.347309802333D-06 0.387172989015D-06 0.000000000000D+00  6 21 21 25 23 3 -3 4 0.18945854D+00 0.29867515D-02 0.18058921D+05 0.18058921D+05 0.18058921D+05 0.12387374D+01  1  2  5 10  6  2        3 -.565021787813D-01 0.100000000000D+01
0.424795309569D-12 0.000000000000D+00 0.000000000000D+00 0.387172989015D-06 0.466952238155D-09  6 21 21 25 23 3 -3 4 0.19236170D+00 0.29402886D-02 0.19420833D+05 0.19420833D+05 0.19420833D+05 0.12352335D+01  1  2 11 10  6  2        3 0.100445863547D-07 0.100000000000D+01
  </mgrwgt>
  </event>
</LesHouchesEvents>
