<event>
 5    0  0.5719562E-003  0.5008652E+03  0.7546771E-02  0.1013553E+00
         -2   -1    0    0    0  501 -0.00000000000E+00  0.00000000000E+00  0.53226393167E+02  0.53226393167E+02  0.00000000000E+00 0. -1.
          2   -1    0    0  502    0  0.00000000000E+00 -0.00000000000E+00 -0.11782969479E+04  0.11782969479E+04  0.00000000000E+00 0.  1.
         25    1    1    2    0    0 -0.20660408339E+02  0.22327431735E+03 -0.63908124798E+03  0.68871482835E+03  0.12500000000E+03 0.  0.
          4    1    1    2  502    0  0.21843236966E+02 -0.11080658505E+03 -0.34157736065E+03  0.35976425559E+03  0.00000000000E+00 0.  1.
         -4    1    1    2    0  501 -0.11828286264E+01 -0.11246773230E+03 -0.14441194610E+03  0.18304425713E+03  0.00000000000E+00 0. -1.
<mgrwt>
<rscale>  4 0.50086524E+03</rscale>
<asrwt>0</asrwt>
<pdfrwt beam="1">  1        2 0.18127645E+00 0.50086524E+03</pdfrwt>
<pdfrwt beam="2">  1       -2 0.81886758E-02 0.50086524E+03</pdfrwt>
<totfact> 0.18694649E+03</totfact>
</mgrwt>
</event>
<event>
 5    0  0.5719562E-003  0.6921546E+03  0.7546771E-02  0.9730744E-01
         -1   -1    0    0    0  501 -0.00000000000E+00  0.00000000000E+00  0.40650034602E+03  0.40650034602E+03  0.00000000000E+00 0. -1.
          1   -1    0    0  502    0  0.00000000000E+00 -0.00000000000E+00 -0.29463566572E+03  0.29463566572E+03  0.00000000000E+00 0.  1.
         25    1    1    2    0    0 -0.24530654437E+03 -0.64781470241E+02  0.27121036099E+03  0.39185711619E+03  0.12500000000E+03 0.  0.
          1    1    1    2  502    0  0.20497976547E+03  0.43631404721E+02 -0.94135510360E+02  0.22974311315E+03  0.00000000000E+00 0.  1.
         -1    1    1    2    0  501  0.40326778905E+02  0.21150065520E+02 -0.65210170328E+02  0.79535782404E+02  0.00000000000E+00 0. -1.
<mgrwt>
<rscale>  4 0.69215461E+03</rscale>
<asrwt>0</asrwt>
<pdfrwt beam="1">  1        1 0.45328564E-01 0.69215461E+03</pdfrwt>
<pdfrwt beam="2">  1       -1 0.62538515E-01 0.69215461E+03</pdfrwt>
<totfact> 0.23615764E+02</totfact>
</mgrwt>
</event>
<event>
 5    0  0.5719562E-003  0.4622945E+03  0.7546771E-02  0.1024118E+00
         -4   -1    0    0    0  501 -0.00000000000E+00  0.00000000000E+00  0.25486142435E+03  0.25486142435E+03  0.00000000000E+00 0. -1.
          4   -1    0    0  502    0  0.00000000000E+00 -0.00000000000E+00 -0.20963960429E+03  0.20963960429E+03  0.00000000000E+00 0.  1.
         25    1    1    2    0    0 -0.20086345394E+03 -0.44151055239E+02  0.75910449208E+02  0.25235459002E+03  0.12500000000E+03 0.  0.
          1    1    1    2  502    0  0.14663200382E+03  0.47209144999E+02 -0.11247023416E+02  0.15445434099E+03  0.00000000000E+00 0. -1.
         -1    1    1    2    0  501  0.54231450119E+02 -0.30580897600E+01 -0.19441605738E+02  0.57692097628E+02  0.00000000000E+00 0.  1.
<mgrwt>
<rscale>  4 0.46229449E+03</rscale>
<asrwt>0</asrwt>
<pdfrwt beam="1">  1        4 0.32252247E-01 0.46229449E+03</pdfrwt>
<pdfrwt beam="2">  1       -4 0.39209450E-01 0.46229449E+03</pdfrwt>
<totfact> 0.11458099E+02</totfact>
</mgrwt>
</event>
<event>
 5    0  0.5719562E-003  0.4526298E+03  0.7546771E-02  0.1026941E+00
         -2   -1    0    0    0  501 -0.00000000000E+00  0.00000000000E+00  0.17850402021E+02  0.17850402021E+02  0.00000000000E+00 0.  1.
          2   -1    0    0  502    0  0.00000000000E+00 -0.00000000000E+00 -0.28693151484E+04  0.28693151484E+04  0.00000000000E+00 0. -1.
         25    1    1    2    0    0  0.13657252081E+03  0.14881354982E+03 -0.14737054943E+04  0.14927258322E+04  0.12500000000E+03 0.  0.
          3    1    1    2  502    0 -0.13012363263E+03 -0.11596303177E+03 -0.12605552680E+04  0.12725482970E+04  0.00000000000E+00 0. -1.
         -3    1    1    2    0  501 -0.64488881788E+01 -0.32850518051E+02 -0.11720398400E+03  0.12189142119E+03  0.00000000000E+00 0.  1.
<mgrwt>
<rscale>  4 0.45262978E+03</rscale>
<asrwt>0</asrwt>
<pdfrwt beam="1">  1        2 0.44143269E+00 0.45262978E+03</pdfrwt>
<pdfrwt beam="2">  1       -2 0.27462182E-02 0.45262978E+03</pdfrwt>
<totfact> 0.11727224E+03</totfact>
</mgrwt>
</event>
<event>
 5    0  0.5719562E-003  0.6537063E+03  0.7546771E-02  0.9799849E-01
          2   -1    0    0  502    0  0.00000000000E+00  0.00000000000E+00  0.15013165201E+04  0.15013165201E+04  0.00000000000E+00 0. -1.
         -2   -1    0    0    0  501 -0.00000000000E+00 -0.00000000000E+00 -0.71159523669E+02  0.71159523669E+02  0.00000000000E+00 0.  1.
         25    1    1    2    0    0  0.24915486313E+02 -0.22964073299E+03  0.23694963215E+03  0.35373121983E+03  0.12500000000E+03 0.  0.
          1    1    1    2  502    0  0.30621247016E+02  0.87344613842E+02  0.36382795664E+03  0.37541646790E+03  0.00000000000E+00 0.  1.
         -1    1    1    2    0  501 -0.55536733329E+02  0.14229611915E+03  0.82937940759E+03  0.84332835599E+03  0.00000000000E+00 0. -1.
<mgrwt>
<rscale>  4 0.65370626E+03</rscale>
<asrwt>0</asrwt>
<pdfrwt beam="1">  1        2 0.23097175E+00 0.65370626E+03</pdfrwt>
<pdfrwt beam="2">  1       -2 0.10947620E-01 0.65370626E+03</pdfrwt>
<totfact> 0.76291764E+02</totfact>
</mgrwt>
</event>
<event>
 5    0  0.5719562E-003  0.9888764E+03  0.7546771E-02  0.9320830E-01
          2   -1    0    0  502    0  0.00000000000E+00  0.00000000000E+00  0.86407111444E+03  0.86407111444E+03  0.00000000000E+00 0. -1.
         -2   -1    0    0    0  501 -0.00000000000E+00 -0.00000000000E+00 -0.28292708020E+03  0.28292708020E+03  0.00000000000E+00 0.  1.
         25    1    1    2    0    0  0.22215580605E+03 -0.37317560935E+03  0.46965728424E+02  0.45436110883E+03  0.12500000000E+03 0.  0.
          3    1    1    2  502    0 -0.18363352393E+03  0.35055378955E+03  0.48944611117E+03  0.62941776763E+03  0.00000000000E+00 0. -1.
         -3    1    1    2    0  501 -0.38522282125E+02  0.22621819800E+02  0.44732194654E+02  0.63219318169E+02  0.00000000000E+00 0.  1.
<mgrwt>
<rscale>  4 0.98887637E+03</rscale>
<asrwt>0</asrwt>
<pdfrwt beam="1">  1        2 0.13293402E+00 0.98887637E+03</pdfrwt>
<pdfrwt beam="2">  1       -2 0.43527244E-01 0.98887637E+03</pdfrwt>
<totfact> 0.15506682E+02</totfact>
</mgrwt>
</event>
<event>
 5    0  0.5719562E-003  0.5225662E+03  0.7546771E-02  0.1008051E+00
         -1   -1    0    0    0  501 -0.00000000000E+00  0.00000000000E+00  0.16466892675E+03  0.16466892675E+03  0.00000000000E+00 0.  1.
          1   -1    0    0  502    0  0.00000000000E+00 -0.00000000000E+00 -0.41458251055E+03  0.41458251055E+03  0.00000000000E+00 0. -1.
         25    1    1    2    0    0  0.16257259119E+03  0.15214860600E+03 -0.91029838598E+02  0.27109127103E+03  0.12500000000E+03 0.  0.
          3    1    1    2  502    0 -0.18856498434E+03 -0.12515657332E+03 -0.14089285329E+03  0.26659279299E+03  0.00000000000E+00 0. -1.
         -3    1    1    2    0  501  0.25992393150E+02 -0.26992032678E+02 -0.17990891911E+02  0.41567373282E+02  0.00000000000E+00 0.  1.
<mgrwt>
<rscale>  4 0.52256620E+03</rscale>
<asrwt>0</asrwt>
<pdfrwt beam="1">  1        1 0.63781925E-01 0.52256620E+03</pdfrwt>
<pdfrwt beam="2">  1       -1 0.25333681E-01 0.52256620E+03</pdfrwt>
<totfact> 0.78771903E+02</totfact>
</mgrwt>
</event>
<event>
 5    0  0.5719562E-003  0.6007976E+03  0.7546771E-02  0.9903753E-01
         -2   -1    0    0    0  501 -0.00000000000E+00  0.00000000000E+00  0.52782209939E+02  0.52782209939E+02  0.00000000000E+00 0.  1.
          2   -1    0    0  502    0  0.00000000000E+00 -0.00000000000E+00 -0.17096565888E+04  0.17096565888E+04  0.00000000000E+00 0. -1.
         25    1    1    2    0    0 -0.19268773367E+03 -0.77640535972E+02 -0.67097272377E+03  0.71343255573E+03  0.12500000000E+03 0.  0.
          4    1    1    2  502    0 -0.14697324479E+02 -0.86839254270E+02 -0.17355315207E+03  0.19462210569E+03  0.00000000000E+00 0.  1.
         -4    1    1    2    0  501  0.20738505815E+03  0.16447979024E+03 -0.81234850298E+03  0.85438413728E+03  0.00000000000E+00 0. -1.
<mgrwt>
<rscale>  4 0.60079765E+03</rscale>
<asrwt>0</asrwt>
<pdfrwt beam="1">  1        2 0.26302407E+00 0.60079765E+03</pdfrwt>
<pdfrwt beam="2">  1       -2 0.81203406E-02 0.60079765E+03</pdfrwt>
<totfact> 0.95321222E+02</totfact>
</mgrwt>
</event>
<event>
 5    0  0.5719562E-003  0.6013748E+03  0.7546771E-02  0.9902558E-01
          2   -1    0    0  502    0  0.00000000000E+00  0.00000000000E+00  0.46645130970E+03  0.46645130970E+03  0.00000000000E+00 0.  1.
         -2   -1    0    0    0  501 -0.00000000000E+00 -0.00000000000E+00 -0.19383142048E+03  0.19383142048E+03  0.00000000000E+00 0. -1.
         25    1    1    2    0    0  0.37654519349E+02  0.21443054015E+03 -0.10338641354E+02  0.25125725239E+03  0.12500000000E+03 0.  0.
          3    1    1    2  502    0  0.25263787605E+02 -0.38449236887E+02 -0.22279361431E+02  0.51117244909E+02  0.00000000000E+00 0. -1.
         -3    1    1    2    0  501 -0.62918306953E+02 -0.17598130326E+03  0.30523789200E+03  0.35790823288E+03  0.00000000000E+00 0.  1.
<mgrwt>
<rscale>  4 0.60137482E+03</rscale>
<asrwt>0</asrwt>
<pdfrwt beam="1">  1        2 0.71761740E-01 0.60137482E+03</pdfrwt>
<pdfrwt beam="2">  1       -2 0.29820219E-01 0.60137482E+03</pdfrwt>
<totfact> 0.69575244E+02</totfact>
</mgrwt>
</event>
<event>
 5    0  0.5719562E-003  0.6174897E+03  0.7546771E-02  0.9869770E-01
          2   -1    0    0  502    0  0.00000000000E+00  0.00000000000E+00  0.10278475941E+03  0.10278475941E+03  0.00000000000E+00 0. -1.
         -2   -1    0    0    0  501 -0.00000000000E+00 -0.00000000000E+00 -0.92740783916E+03  0.92740783916E+03  0.00000000000E+00 0.  1.
         25    1    1    2    0    0  0.82496367363E+02  0.21483874830E+03 -0.22998322773E+03  0.34853783645E+03  0.12500000000E+03 0.  0.
          1    1    1    2  502    0  0.21353127284E+02 -0.76887121237E+02 -0.20891572899E+02  0.82486624826E+02  0.00000000000E+00 0. -1.
         -1    1    1    2    0  501 -0.10384949465E+03 -0.13795162706E+03 -0.57374827912E+03  0.59916813729E+03  0.00000000000E+00 0.  1.
<mgrwt>
<rscale>  4 0.61748973E+03</rscale>
<asrwt>0</asrwt>
<pdfrwt beam="1">  1        2 0.15813039E-01 0.61748973E+03</pdfrwt>
<pdfrwt beam="2">  1       -2 0.14267813E+00 0.61748973E+03</pdfrwt>
<totfact> 0.13054214E+02</totfact>
</mgrwt>
</event>
<event>
 5    0  0.5719562E-003  0.4558951E+03  0.7546771E-02  0.1025979E+00
         -4   -1    0    0    0  501 -0.00000000000E+00  0.00000000000E+00  0.97413523948E+03  0.97413523948E+03  0.00000000000E+00 0.  1.
          4   -1    0    0  502    0  0.00000000000E+00 -0.00000000000E+00 -0.53339713101E+02  0.53339713101E+02  0.00000000000E+00 0. -1.
         25    1    1    2    0    0 -0.47889396057E+01 -0.20482210997E+03  0.51869213339E+03  0.57152564239E+03  0.12500000000E+03 0.  0.
          3    1    1    2  502    0  0.27710544729E+01  0.22296881056E+02  0.12515901586E+02  0.25719203725E+02  0.00000000000E+00 0. -1.
         -3    1    1    2    0  501  0.20178851327E+01  0.18252522891E+03  0.38958749141E+03  0.43023010647E+03  0.00000000000E+00 0.  1.
<mgrwt>
<rscale>  4 0.45589514E+03</rscale>
<asrwt>0</asrwt>
<pdfrwt beam="1">  1        4 0.82061104E-02 0.45589514E+03</pdfrwt>
<pdfrwt beam="2">  1       -4 0.14986695E+00 0.45589514E+03</pdfrwt>
<totfact> 0.64833408E+01</totfact>
</mgrwt>
</event>
<event>
 5    0  0.5719562E-003  0.5719618E+03  0.7546771E-02  0.9965347E-01
         -2   -1    0    0    0  501 -0.00000000000E+00  0.00000000000E+00  0.21707516945E+02  0.21707516945E+02  0.00000000000E+00 0. -1.
          2   -1    0    0  502    0  0.00000000000E+00 -0.00000000000E+00 -0.37675920374E+04  0.37675920374E+04  0.00000000000E+00 0.  1.
         25    1    1    2    0    0  0.13725990486E+03  0.15703048644E+03 -0.82180617264E+03  0.85702347724E+03  0.12500000000E+03 0.  0.
          3    1    1    2  502    0 -0.22031497095E+02 -0.72883598937E+02 -0.94726369876E+03  0.95031885220E+03  0.00000000000E+00 0. -1.
         -3    1    1    2    0  501 -0.11522840776E+03 -0.84146887501E+02 -0.19768146490E+04  0.19819572249E+04  0.00000000000E+00 0.  1.
<mgrwt>
<rscale>  4 0.57196177E+03</rscale>
<asrwt>0</asrwt>
<pdfrwt beam="1">  1        2 0.57962950E+00 0.57196177E+03</pdfrwt>
<pdfrwt beam="2">  1       -2 0.33396182E-02 0.57196177E+03</pdfrwt>
<totfact> 0.22352747E+02</totfact>
</mgrwt>
</event>
<event>
 5    0  0.5719562E-003  0.5073711E+03  0.7546771E-02  0.1011873E+00
         -1   -1    0    0    0  501 -0.00000000000E+00  0.00000000000E+00  0.72392202394E+02  0.72392202394E+02  0.00000000000E+00 0.  1.
          1   -1    0    0  502    0  0.00000000000E+00 -0.00000000000E+00 -0.88899578911E+03  0.88899578911E+03  0.00000000000E+00 0. -1.
         25    1    1    2    0    0  0.11756921303E+03  0.17022817135E+03 -0.49646810545E+03  0.55218269613E+03  0.12500000000E+03 0.  0.
          3    1    1    2  502    0 -0.12843069355E+03 -0.56822642938E+02 -0.16378249736E+03  0.21574976764E+03  0.00000000000E+00 0. -1.
         -3    1    1    2    0  501  0.10861480526E+02 -0.11340552841E+03 -0.15635298390E+03  0.19345552773E+03  0.00000000000E+00 0.  1.
<mgrwt>
<rscale>  4 0.50737112E+03</rscale>
<asrwt>0</asrwt>
<pdfrwt beam="1">  1        1 0.13676858E+00 0.50737112E+03</pdfrwt>
<pdfrwt beam="2">  1       -1 0.11137262E-01 0.50737112E+03</pdfrwt>
<totfact> 0.99922437E+02</totfact>
</mgrwt>
</event>
<event>
 5    0  0.5719562E-003  0.8343044E+03  0.7546771E-02  0.9511649E-01
          1   -1    0    0  502    0  0.00000000000E+00  0.00000000000E+00  0.16175865788E+04  0.16175865788E+04  0.00000000000E+00 0.  1.
         -1   -1    0    0    0  501 -0.00000000000E+00 -0.00000000000E+00 -0.10757752390E+03  0.10757752390E+03  0.00000000000E+00 0. -1.
         25    1    1    2    0    0 -0.30434714499E+03 -0.12408036874E+02  0.67125965373E+03  0.74766012784E+03  0.12500000000E+03 0.  0.
          1    1    1    2  502    0  0.49038203035E+02  0.17345479904E+03  0.45399308138E+03  0.48846804461E+03  0.00000000000E+00 0.  1.
         -1    1    1    2    0  501  0.25530894196E+03 -0.16104676216E+03  0.38475631977E+03  0.48903593023E+03  0.00000000000E+00 0. -1.
<mgrwt>
<rscale>  4 0.83430440E+03</rscale>
<asrwt>0</asrwt>
<pdfrwt beam="1">  1        1 0.24885946E+00 0.83430440E+03</pdfrwt>
<pdfrwt beam="2">  1       -1 0.16550389E-01 0.83430440E+03</pdfrwt>
<totfact> 0.15422367E+02</totfact>
</mgrwt>
</event>
<event>
 5    0  0.5719562E-003  0.1231012E+04  0.7546771E-02  0.9086137E-01
          2   -1    0    0  502    0  0.00000000000E+00  0.00000000000E+00  0.12862648158E+04  0.12862648158E+04  0.00000000000E+00 0.  1.
         -2   -1    0    0    0  501 -0.00000000000E+00 -0.00000000000E+00 -0.29453312972E+03  0.29453312972E+03  0.00000000000E+00 0. -1.
         25    1    1    2    0    0 -0.36407290836E+03 -0.38903330886E+03  0.19713081018E+03  0.58170572829E+03  0.12500000000E+03 0.  0.
          2    1    1    2  502    0  0.16236925539E+03  0.25230185261E+03  0.21139690357E+03  0.36702677118E+03  0.00000000000E+00 0. -1.
         -2    1    1    2    0  501  0.20170365297E+03  0.13673145624E+03  0.58320397233E+03  0.63206544605E+03  0.00000000000E+00 0.  1.
<mgrwt>
<rscale>  4 0.12310119E+04</rscale>
<asrwt>0</asrwt>
<pdfrwt beam="1">  1        2 0.19788689E+00 0.12310119E+04</pdfrwt>
<pdfrwt beam="2">  1       -2 0.45312790E-01 0.12310119E+04</pdfrwt>
<totfact> 0.76557247E+01</totfact>
</mgrwt>
</event>
<event>
 5    0  0.5719562E-003  0.4859983E+03  0.7546771E-02  0.1017500E+00
          2   -1    0    0  502    0  0.00000000000E+00  0.00000000000E+00  0.41195506436E+03  0.41195506436E+03  0.00000000000E+00 0. -1.
         -2   -1    0    0    0  501 -0.00000000000E+00 -0.00000000000E+00 -0.14333746531E+03  0.14333746531E+03  0.00000000000E+00 0.  1.
         25    1    1    2    0    0  0.13185152840E+03  0.16243631189E+03  0.52485220161E+02  0.24929917629E+03  0.12500000000E+03 0.  0.
          3    1    1    2  502    0 -0.19981632665E+02 -0.49317438304E+01  0.81709714567E+01  0.22143904708E+02  0.00000000000E+00 0.  1.
         -3    1    1    2    0  501 -0.11186989574E+03 -0.15750456806E+03  0.20796140744E+03  0.28384944868E+03  0.00000000000E+00 0. -1.
<mgrwt>
<rscale>  4 0.48599833E+03</rscale>
<asrwt>0</asrwt>
<pdfrwt beam="1">  1        2 0.63377701E-01 0.48599833E+03</pdfrwt>
<pdfrwt beam="2">  1       -2 0.22051918E-01 0.48599833E+03</pdfrwt>
<totfact> 0.13789573E+03</totfact>
</mgrwt>
</event>
<event>
 5    0  0.5719562E-003  0.5551442E+03  0.7546771E-02  0.1000310E+00
         -1   -1    0    0    0  501 -0.00000000000E+00  0.00000000000E+00  0.25469523913E+03  0.25469523913E+03  0.00000000000E+00 0.  1.
          1   -1    0    0  502    0  0.00000000000E+00 -0.00000000000E+00 -0.30250375861E+03  0.30250375861E+03  0.00000000000E+00 0. -1.
         25    1    1    2    0    0 -0.16899483249E+03  0.11932717106E+03  0.34287583373E+02  0.24412878883E+03  0.12500000000E+03 0.  0.
          2    1    1    2  502    0  0.20413186431E+03 -0.73865642711E+02 -0.52884546288E+01  0.21714953132E+03  0.00000000000E+00 0.  1.
         -2    1    1    2    0  501 -0.35137031819E+02 -0.45461528350E+02 -0.76807648220E+02  0.95920677594E+02  0.00000000000E+00 0. -1.
<mgrwt>
<rscale>  4 0.55514419E+03</rscale>
<asrwt>0</asrwt>
<pdfrwt beam="1">  1        1 0.46539040E-01 0.55514419E+03</pdfrwt>
<pdfrwt beam="2">  1       -1 0.39183883E-01 0.55514419E+03</pdfrwt>
<totfact> 0.55412912E+02</totfact>
</mgrwt>
</event>
<event>
 5    0  0.5719562E-003  0.5170347E+03  0.7546771E-02  0.1009426E+00
          2   -1    0    0  502    0  0.00000000000E+00  0.00000000000E+00  0.12324071275E+03  0.12324071275E+03  0.00000000000E+00 0. -1.
         -2   -1    0    0    0  501 -0.00000000000E+00 -0.00000000000E+00 -0.54228201877E+03  0.54228201877E+03  0.00000000000E+00 0.  1.
         25    1    1    2    0    0  0.21535493185E+03  0.43404139482E+02 -0.10240050480E+03  0.27271327320E+03  0.12500000000E+03 0.  0.
          2    1    1    2  502    0 -0.15086039318E+03 -0.19320648587E+02 -0.15518667569E+03  0.21729024369E+03  0.00000000000E+00 0. -1.
         -2    1    1    2    0  501 -0.64494538678E+02 -0.24083490895E+02 -0.16145412553E+03  0.17551921463E+03  0.00000000000E+00 0.  1.
<mgrwt>
<rscale>  4 0.51703471E+03</rscale>
<asrwt>0</asrwt>
<pdfrwt beam="1">  1        2 0.18960109E-01 0.51703471E+03</pdfrwt>
<pdfrwt beam="2">  1       -2 0.83428004E-01 0.51703471E+03</pdfrwt>
<totfact> 0.38442735E+02</totfact>
</mgrwt>
</event>
<event>
 5    0  0.5719562E-003  0.5050089E+03  0.7546771E-02  0.1012480E+00
          2   -1    0    0  502    0  0.00000000000E+00  0.00000000000E+00  0.16140102198E+04  0.16140102198E+04  0.00000000000E+00 0.  1.
         -2   -1    0    0    0  501 -0.00000000000E+00 -0.00000000000E+00 -0.39503159065E+02  0.39503159065E+02  0.00000000000E+00 0. -1.
         25    1    1    2    0    0 -0.12594698604E+03  0.18866161446E+03  0.67788952207E+03  0.72568247340E+03  0.12500000000E+03 0.  0.
          2    1    1    2  502    0  0.10381537308E+03 -0.17138386633E+03  0.66541111042E+03  0.69492590051E+03  0.00000000000E+00 0.  1.
         -2    1    1    2    0  501  0.22131612955E+02 -0.17277748131E+02  0.23120642821E+03  0.23290500492E+03  0.00000000000E+00 0. -1.
<mgrwt>
<rscale>  4 0.50500892E+03</rscale>
<asrwt>0</asrwt>
<pdfrwt beam="1">  1        2 0.24830921E+00 0.50500892E+03</pdfrwt>
<pdfrwt beam="2">  1       -2 0.60774103E-02 0.50500892E+03</pdfrwt>
<totfact> 0.17050322E+03</totfact>
</mgrwt>
</event>
<event>
 5    0  0.5719562E-003  0.5263515E+03  0.7546771E-02  0.1007121E+00
         -2   -1    0    0    0  501 -0.00000000000E+00  0.00000000000E+00  0.20563225418E+02  0.20563225418E+02  0.00000000000E+00 0.  1.
          2   -1    0    0  502    0  0.00000000000E+00 -0.00000000000E+00 -0.33682200100E+04  0.33682200100E+04  0.00000000000E+00 0. -1.
         25    1    1    2    0    0  0.20376654082E+03 -0.83681959347E+02 -0.11627739186E+04  0.11900385117E+04  0.12500000000E+03 0.  0.
          4    1    1    2  502    0 -0.39053836430E+02  0.59181032500E+02 -0.95670462931E+03  0.95932859047E+03  0.00000000000E+00 0. -1.
         -4    1    1    2    0  501 -0.16471270439E+03  0.24500926847E+02 -0.12281782366E+04  0.12394161332E+04  0.00000000000E+00 0.  1.
<mgrwt>
<rscale>  4 0.52635147E+03</rscale>
<asrwt>0</asrwt>
<pdfrwt beam="1">  1        2 0.51818763E+00 0.52635147E+03</pdfrwt>
<pdfrwt beam="2">  1       -2 0.31635735E-02 0.52635147E+03</pdfrwt>
<totfact> 0.46066517E+02</totfact>
</mgrwt>
</event>
<event>
 5    0  0.5719562E-003  0.1193079E+04  0.7546771E-02  0.9118936E-01
         -2   -1    0    0    0  501 -0.00000000000E+00  0.00000000000E+00  0.23040615509E+03  0.23040615509E+03  0.00000000000E+00 0.  1.
          2   -1    0    0  502    0  0.00000000000E+00 -0.00000000000E+00 -0.15444867329E+04  0.15444867329E+04  0.00000000000E+00 0. -1.
         25    1    1    2    0    0 -0.14267924284E+03  0.43191347073E+03 -0.48236720296E+03  0.67469232323E+03  0.12500000000E+03 0.  0.
          1    1    1    2  502    0  0.86414592279E+02  0.80768086900E+02  0.37716041871E+01  0.11834352800E+03  0.00000000000E+00 0.  1.
         -1    1    1    2    0  501  0.56264650557E+02 -0.51268155763E+03 -0.83548497903E+03  0.98185703676E+03  0.00000000000E+00 0. -1.
<mgrwt>
<rscale>  4 0.11930788E+04</rscale>
<asrwt>0</asrwt>
<pdfrwt beam="1">  1        2 0.23761334E+00 0.11930788E+04</pdfrwt>
<pdfrwt beam="2">  1       -2 0.35447101E-01 0.11930788E+04</pdfrwt>
<totfact> 0.88384983E+01</totfact>
</mgrwt>
</event>
<event>
 5    0  0.5719562E-003  0.5079265E+03  0.7546771E-02  0.1011730E+00
         -1   -1    0    0    0  501 -0.00000000000E+00  0.00000000000E+00  0.19090794206E+03  0.19090794206E+03  0.00000000000E+00 0. -1.
          1   -1    0    0  502    0  0.00000000000E+00 -0.00000000000E+00 -0.33784520829E+03  0.33784520829E+03  0.00000000000E+00 0.  1.
         25    1    1    2    0    0  0.20924665057E+03 -0.44862171684E+02 -0.15832528262E+03  0.29408956176E+03  0.12500000000E+03 0.  0.
          4    1    1    2  502    0 -0.63100781222E+02 -0.20773642904E+02 -0.23925877653E+02  0.70609492646E+02  0.00000000000E+00 0.  1.
         -4    1    1    2    0  501 -0.14614586935E+03  0.65635814588E+02  0.35313894039E+02  0.16405409594E+03  0.00000000000E+00 0. -1.
<mgrwt>
<rscale>  4 0.50792650E+03</rscale>
<asrwt>0</asrwt>
<pdfrwt beam="1">  1        1 0.51976186E-01 0.50792650E+03</pdfrwt>
<pdfrwt beam="2">  1       -1 0.29370453E-01 0.50792650E+03</pdfrwt>
<totfact> 0.79911079E+02</totfact>
</mgrwt>
</event>
<event>
 5    0  0.5719562E-003  0.4980108E+03  0.7546771E-02  0.1014299E+00
          2   -1    0    0  502    0  0.00000000000E+00  0.00000000000E+00  0.11470621253E+04  0.11470621253E+04  0.00000000000E+00 0.  1.
         -2   -1    0    0    0  501 -0.00000000000E+00 -0.00000000000E+00 -0.54054342576E+02  0.54054342576E+02  0.00000000000E+00 0. -1.
         25    1    1    2    0    0 -0.97865010313E+02  0.17635476737E+03  0.61316354741E+03  0.65747479046E+03  0.12500000000E+03 0.  0.
          1    1    1    2  502    0  0.11349197750E+03 -0.15480759153E+03  0.26533935546E+03  0.32749166846E+03  0.00000000000E+00 0. -1.
         -1    1    1    2    0  501 -0.15626967189E+02 -0.21547175841E+02  0.21450487982E+03  0.21615000892E+03  0.00000000000E+00 0.  1.
<mgrwt>
<rscale>  4 0.49801080E+03</rscale>
<asrwt>0</asrwt>
<pdfrwt beam="1">  1        2 0.17647108E+00 0.49801080E+03</pdfrwt>
<pdfrwt beam="2">  1       -2 0.83160536E-02 0.49801080E+03</pdfrwt>
<totfact> 0.19032435E+03</totfact>
</mgrwt>
</event>
<event>
 5    0  0.5719562E-003  0.5385948E+03  0.7546771E-02  0.1004169E+00
         -2   -1    0    0    0  501 -0.00000000000E+00  0.00000000000E+00  0.18556078994E+03  0.18556078994E+03  0.00000000000E+00 0. -1.
          2   -1    0    0  502    0  0.00000000000E+00 -0.00000000000E+00 -0.39082123056E+03  0.39082123056E+03  0.00000000000E+00 0.  1.
         25    1    1    2    0    0 -0.21181530348E+03  0.10352726777E+03 -0.11488287400E+02  0.26709660931E+03  0.12500000000E+03 0.  0.
          4    1    1    2  502    0  0.15572643577E+03 -0.81596151738E+02 -0.11480251342E+03  0.20997207401E+03  0.00000000000E+00 0.  1.
         -4    1    1    2    0  501  0.56088867708E+02 -0.21931116034E+02 -0.78969639795E+02  0.99313337174E+02  0.00000000000E+00 0. -1.
<mgrwt>
<rscale>  4 0.53859482E+03</rscale>
<asrwt>0</asrwt>
<pdfrwt beam="1">  1        2 0.60126343E-01 0.53859482E+03</pdfrwt>
<pdfrwt beam="2">  1       -2 0.28547814E-01 0.53859482E+03</pdfrwt>
<totfact> 0.92050581E+02</totfact>
</mgrwt>
</event>
<event>
 5    0  0.5719562E-003  0.5503739E+03  0.7546771E-02  0.1001407E+00
         -1   -1    0    0    0  501 -0.00000000000E+00  0.00000000000E+00  0.39579133048E+02  0.39579133048E+02  0.00000000000E+00 0.  1.
          1   -1    0    0  502    0  0.00000000000E+00 -0.00000000000E+00 -0.19133275409E+04  0.19133275409E+04  0.00000000000E+00 0. -1.
         25    1    1    2    0    0 -0.10373138057E+03 -0.21756396502E+03 -0.90860037848E+03  0.94830054622E+03  0.12500000000E+03 0.  0.
          1    1    1    2  502    0  0.45972057878E+02  0.19901698719E+03 -0.58467262632E+03  0.61932485116E+03  0.00000000000E+00 0.  1.
         -1    1    1    2    0  501  0.57759322691E+02  0.18546977828E+02 -0.38047540310E+03  0.38528127662E+03  0.00000000000E+00 0. -1.
<mgrwt>
<rscale>  4 0.55037386E+03</rscale>
<asrwt>0</asrwt>
<pdfrwt beam="1">  1        1 0.29435812E+00 0.55037386E+03</pdfrwt>
<pdfrwt beam="2">  1       -1 0.60890966E-02 0.55037386E+03</pdfrwt>
<totfact> 0.48729635E+02</totfact>
</mgrwt>
</event>
<event>
 5    0  0.5719562E-003  0.4773013E+03  0.7546771E-02  0.1019880E+00
          2   -1    0    0  502    0  0.00000000000E+00  0.00000000000E+00  0.76690906492E+03  0.76690906492E+03  0.00000000000E+00 0. -1.
         -2   -1    0    0    0  501 -0.00000000000E+00 -0.00000000000E+00 -0.74264504485E+02  0.74264504485E+02  0.00000000000E+00 0.  1.
         25    1    1    2    0    0 -0.12174798067E+03 -0.16630594761E+03  0.27081356588E+03  0.36255375667E+03  0.12500000000E+03 0.  0.
          3    1    1    2  502    0  0.25766080957E+02  0.36493557241E+02  0.27346780156E+02  0.52378593269E+02  0.00000000000E+00 0.  1.
         -3    1    1    2    0  501  0.95981899717E+02  0.12981239037E+03  0.39448421440E+03  0.42624121947E+03  0.00000000000E+00 0. -1.
<mgrwt>
<rscale>  4 0.47730125E+03</rscale>
<asrwt>0</asrwt>
<pdfrwt beam="1">  1        2 0.11798600E+00 0.47730125E+03</pdfrwt>
<pdfrwt beam="2">  1       -2 0.11425309E-01 0.47730125E+03</pdfrwt>
<totfact> 0.20111715E+03</totfact>
</mgrwt>
</event>
<event>
 5    0  0.5719562E-003  0.5309714E+03  0.7546771E-02  0.1005997E+00
          2   -1    0    0  502    0  0.00000000000E+00  0.00000000000E+00  0.78400873166E+03  0.78400873166E+03  0.00000000000E+00 0. -1.
         -2   -1    0    0    0  501 -0.00000000000E+00 -0.00000000000E+00 -0.89900339198E+02  0.89900339198E+02  0.00000000000E+00 0.  1.
         25    1    1    2    0    0 -0.64766372871E+02 -0.20717342096E+03  0.30062262225E+03  0.39129844163E+03  0.12500000000E+03 0.  0.
          1    1    1    2  502    0  0.75275467293E+02  0.29597761869E+02  0.21889323222E+03  0.23335953076E+03  0.00000000000E+00 0. -1.
         -1    1    1    2    0  501 -0.10509094423E+02  0.17757565909E+03  0.17459253799E+03  0.24925109847E+03  0.00000000000E+00 0.  1.
<mgrwt>
<rscale>  4 0.53097138E+03</rscale>
<asrwt>0</asrwt>
<pdfrwt beam="1">  1        2 0.12061672E+00 0.53097138E+03</pdfrwt>
<pdfrwt beam="2">  1       -2 0.13830822E-01 0.53097138E+03</pdfrwt>
<totfact> 0.14263357E+03</totfact>
</mgrwt>
</event>
<event>
 5    0  0.5719562E-003  0.6463367E+03  0.7546771E-02  0.9813677E-01
         -2   -1    0    0    0  501 -0.00000000000E+00  0.00000000000E+00  0.81655797195E+03  0.81655797195E+03  0.00000000000E+00 0. -1.
          2   -1    0    0  502    0  0.00000000000E+00 -0.00000000000E+00 -0.12790003122E+03  0.12790003122E+03  0.00000000000E+00 0.  1.
         25    1    1    2    0    0  0.94604004511E+02  0.18644737177E+03  0.68693062290E+03  0.72884238405E+03  0.12500000000E+03 0.  0.
          3    1    1    2  502    0 -0.23853355737E+02 -0.21247254816E+02 -0.14678967433E+02  0.35155376574E+02  0.00000000000E+00 0.  1.
         -3    1    1    2    0  501 -0.70750648774E+02 -0.16520011696E+03  0.16406285255E+02  0.18046024255E+03  0.00000000000E+00 0. -1.
<mgrwt>
<rscale>  4 0.64633672E+03</rscale>
<asrwt>0</asrwt>
<pdfrwt beam="1">  1        2 0.19676928E-01 0.64633672E+03</pdfrwt>
<pdfrwt beam="2">  1       -2 0.12562430E+00 0.64633672E+03</pdfrwt>
<totfact> 0.13893369E+02</totfact>
</mgrwt>
</event>
<event>
 5    0  0.5719562E-003  0.6764907E+03  0.7546771E-02  0.9758303E-01
         -1   -1    0    0    0  501 -0.00000000000E+00  0.00000000000E+00  0.87876645900E+02  0.87876645900E+02  0.00000000000E+00 0. -1.
          1   -1    0    0  502    0  0.00000000000E+00 -0.00000000000E+00 -0.13019375597E+04  0.13019375597E+04  0.00000000000E+00 0.  1.
         25    1    1    2    0    0  0.87878524106E+02 -0.18670862920E+03 -0.16625417698E+03  0.29299863239E+03  0.12500000000E+03 0.  0.
          2    1    1    2  502    0 -0.16345323796E+03  0.13025158153E+03 -0.51624615356E+03  0.55694930340E+03  0.00000000000E+00 0. -1.
         -2    1    1    2    0  501  0.75574713851E+02  0.56457047669E+02 -0.53156058324E+03  0.53986626980E+03  0.00000000000E+00 0.  1.
<mgrwt>
<rscale>  4 0.67649067E+03</rscale>
<asrwt>0</asrwt>
<pdfrwt beam="1">  1        1 0.20029809E+00 0.67649067E+03</pdfrwt>
<pdfrwt beam="2">  1       -1 0.13519484E-01 0.67649067E+03</pdfrwt>
<totfact> 0.35761349E+02</totfact>
</mgrwt>
</event>
<event>
 5    0  0.5719562E-003  0.7408566E+03  0.7546771E-02  0.9649805E-01
          1   -1    0    0  502    0  0.00000000000E+00  0.00000000000E+00  0.62832763752E+03  0.62832763752E+03  0.00000000000E+00 0.  1.
         -1   -1    0    0    0  501 -0.00000000000E+00 -0.00000000000E+00 -0.21838465981E+03  0.21838465981E+03  0.00000000000E+00 0. -1.
         25    1    1    2    0    0 -0.10926258802E+03  0.21047605669E+03 -0.60895481475E+02  0.27490315248E+03  0.12500000000E+03 0.  0.
          2    1    1    2  502    0  0.11436472262E+03 -0.18648311885E+03  0.49261789067E+03  0.53900614987E+03  0.00000000000E+00 0.  1.
         -2    1    1    2    0  501 -0.51021346030E+01 -0.23992937835E+02 -0.21779431489E+02  0.32802994977E+02  0.00000000000E+00 0. -1.
<mgrwt>
<rscale>  4 0.74085658E+03</rscale>
<asrwt>0</asrwt>
<pdfrwt beam="1">  1        1 0.96665789E-01 0.74085658E+03</pdfrwt>
<pdfrwt beam="2">  1       -1 0.33597640E-01 0.74085658E+03</pdfrwt>
<totfact> 0.27037069E+02</totfact>
</mgrwt>
</event>
<event>
 5    0  0.5719562E-003  0.5233245E+03  0.7546771E-02  0.1007864E+00
         -1   -1    0    0    0  501 -0.00000000000E+00  0.00000000000E+00  0.61494888359E+02  0.61494888359E+02  0.00000000000E+00 0.  1.
          1   -1    0    0  502    0  0.00000000000E+00 -0.00000000000E+00 -0.11133791317E+04  0.11133791317E+04  0.00000000000E+00 0. -1.
         25    1    1    2    0    0 -0.68188303377E+02 -0.19005797987E+03 -0.85026397844E+03  0.88280547883E+03  0.12500000000E+03 0.  0.
          3    1    1    2  502    0  0.19751642213E+02  0.73196460198E+02 -0.36731443044E+02  0.84243979392E+02  0.00000000000E+00 0.  1.
         -3    1    1    2    0  501  0.48436661163E+02  0.11686151967E+03 -0.16488882183E+03  0.20782456181E+03  0.00000000000E+00 0. -1.
<mgrwt>
<rscale>  4 0.52332447E+03</rscale>
<asrwt>0</asrwt>
<pdfrwt beam="1">  1        1 0.17128911E+00 0.52332447E+03</pdfrwt>
<pdfrwt beam="2">  1       -1 0.94607514E-02 0.52332447E+03</pdfrwt>
<totfact> 0.86834470E+02</totfact>
</mgrwt>
</event>
<event>
 5    0  0.5719562E-003  0.6433966E+03  0.7546771E-02  0.9819249E-01
         -1   -1    0    0    0  501 -0.00000000000E+00  0.00000000000E+00  0.24891294327E+03  0.24891294327E+03  0.00000000000E+00 0. -1.
          1   -1    0    0  502    0  0.00000000000E+00 -0.00000000000E+00 -0.41576704811E+03  0.41576704811E+03  0.00000000000E+00 0.  1.
         25    1    1    2    0    0 -0.22308775535E+03  0.32260398705E+02 -0.29515684568E+03  0.39185640669E+03  0.12500000000E+03 0.  0.
          3    1    1    2  502    0  0.11496403871E+03  0.86067715853E+01  0.10278222036E+03  0.15445061196E+03  0.00000000000E+00 0.  1.
         -3    1    1    2    0  501  0.10812371664E+03 -0.40867170290E+02  0.25520520484E+02  0.11837297273E+03  0.00000000000E+00 0. -1.
<mgrwt>
<rscale>  4 0.64339661E+03</rscale>
<asrwt>0</asrwt>
<pdfrwt beam="1">  1        1 0.63964161E-01 0.64339661E+03</pdfrwt>
<pdfrwt beam="2">  1       -1 0.38294299E-01 0.64339661E+03</pdfrwt>
<totfact> 0.38042553E+02</totfact>
</mgrwt>
</event>
<event>
 5    0  0.5719562E-003  0.4799117E+03  0.7546771E-02  0.1019159E+00
         -2   -1    0    0    0  501 -0.00000000000E+00  0.00000000000E+00  0.45074884974E+02  0.45074884974E+02  0.00000000000E+00 0. -1.
          2   -1    0    0  502    0  0.00000000000E+00 -0.00000000000E+00 -0.12774034577E+04  0.12774034577E+04  0.00000000000E+00 0.  1.
         25    1    1    2    0    0  0.15356611268E+03  0.13878982003E+03 -0.87073806488E+03  0.90368962744E+03  0.12500000000E+03 0.  0.
          1    1    1    2  502    0 -0.11478004564E+03 -0.84100998280E+02 -0.21819031005E+03  0.26048886384E+03  0.00000000000E+00 0.  1.
         -1    1    1    2    0  501 -0.38786067038E+02 -0.54688821752E+02 -0.14340019777E+03  0.15829985136E+03  0.00000000000E+00 0. -1.
<mgrwt>
<rscale>  4 0.47991172E+03</rscale>
<asrwt>0</asrwt>
<pdfrwt beam="1">  1        2 0.19652362E+00 0.47991172E+03</pdfrwt>
<pdfrwt beam="2">  1       -2 0.69345971E-02 0.47991172E+03</pdfrwt>
<totfact> 0.21316407E+03</totfact>
</mgrwt>
</event>
<event>
 5    0  0.5719562E-003  0.4948110E+03  0.7546771E-02  0.1015142E+00
         -1   -1    0    0    0  501 -0.00000000000E+00  0.00000000000E+00  0.69248580186E+02  0.69248580186E+02  0.00000000000E+00 0.  1.
          1   -1    0    0  502    0  0.00000000000E+00 -0.00000000000E+00 -0.88390958366E+03  0.88390958366E+03  0.00000000000E+00 0. -1.
         25    1    1    2    0    0  0.63425163389E+02 -0.20435611609E+03 -0.56409265781E+03  0.61612474397E+03  0.12500000000E+03 0.  0.
          1    1    1    2  502    0 -0.47217536485E+02  0.19058899534E+03 -0.24689447524E+03  0.31545291693E+03  0.00000000000E+00 0. -1.
         -1    1    1    2    0  501 -0.16207626904E+02  0.13767120751E+02 -0.36738704277E+01  0.21580502950E+02  0.00000000000E+00 0.  1.
<mgrwt>
<rscale>  4 0.49481101E+03</rscale>
<asrwt>0</asrwt>
<pdfrwt beam="1">  1        1 0.13598609E+00 0.49481101E+03</pdfrwt>
<pdfrwt beam="2">  1       -1 0.10653628E-01 0.49481101E+03</pdfrwt>
<totfact> 0.10823608E+03</totfact>
</mgrwt>
</event>
<event>
 5    0  0.5719562E-003  0.6184453E+03  0.7546771E-02  0.9867860E-01
          1   -1    0    0  502    0  0.00000000000E+00  0.00000000000E+00  0.31498525602E+03  0.31498525602E+03  0.00000000000E+00 0.  1.
         -1   -1    0    0    0  501 -0.00000000000E+00 -0.00000000000E+00 -0.30356542924E+03  0.30356542924E+03  0.00000000000E+00 0. -1.
         25    1    1    2    0    0  0.10618741107E+03  0.23332018706E+03  0.43969521092E+02  0.28856956656E+03  0.12500000000E+03 0.  0.
          1    1    1    2  502    0 -0.16141187995E+03 -0.20153467747E+03 -0.51939660823E+02  0.26337757987E+03  0.00000000000E+00 0. -1.
         -1    1    1    2    0  501  0.55224468886E+02 -0.31785509592E+02  0.19389966515E+02  0.66603538835E+02  0.00000000000E+00 0.  1.
<mgrwt>
<rscale>  4 0.61844526E+03</rscale>
<asrwt>0</asrwt>
<pdfrwt beam="1">  1        1 0.48459270E-01 0.61844526E+03</pdfrwt>
<pdfrwt beam="2">  1       -1 0.46702374E-01 0.61844526E+03</pdfrwt>
<totfact> 0.38065088E+02</totfact>
</mgrwt>
</event>
<event>
 5    0  0.5719562E-003  0.1749639E+04  0.7546771E-02  0.8733549E-01
          2   -1    0    0  502    0  0.00000000000E+00  0.00000000000E+00  0.24765253909E+04  0.24765253909E+04  0.00000000000E+00 0.  1.
         -2   -1    0    0    0  501 -0.00000000000E+00 -0.00000000000E+00 -0.30902548255E+03  0.30902548255E+03  0.00000000000E+00 0. -1.
         25    1    1    2    0    0  0.48209575075E+03  0.43964427692E+03  0.27831446926E+03  0.72026894069E+03  0.12500000000E+03 0.  0.
          3    1    1    2  502    0 -0.63057736676E+02  0.11977446932E+03  0.32209045854E+03  0.34937725332E+03  0.00000000000E+00 0. -1.
         -3    1    1    2    0  501 -0.41903801408E+03 -0.55941874623E+03  0.15670949805E+04  0.17159046794E+04  0.00000000000E+00 0.  1.
<mgrwt>
<rscale>  4 0.17496393E+04</rscale>
<asrwt>0</asrwt>
<pdfrwt beam="1">  1        2 0.38100389E+00 0.17496393E+04</pdfrwt>
<pdfrwt beam="2">  1       -2 0.47542384E-01 0.17496393E+04</pdfrwt>
<totfact> 0.14292571E+01</totfact>
</mgrwt>
</event>
<event>
 5    0  0.5719562E-003  0.4582813E+03  0.7546771E-02  0.1025281E+00
          2   -1    0    0  502    0  0.00000000000E+00  0.00000000000E+00  0.23979031522E+04  0.23979031522E+04  0.00000000000E+00 0. -1.
         -2   -1    0    0    0  501 -0.00000000000E+00 -0.00000000000E+00 -0.21896394593E+02  0.21896394593E+02  0.00000000000E+00 0.  1.
         25    1    1    2    0    0  0.20271873001E+03  0.20684473767E+02  0.12217530699E+04  0.12449209994E+04  0.12500000000E+03 0.  0.
          1    1    1    2  502    0 -0.15080488173E+03 -0.39624476121E+02  0.97214434506E+03  0.98456936733E+03  0.00000000000E+00 0. -1.
         -1    1    1    2    0  501 -0.51913848281E+02  0.18940002354E+02  0.18210934260E+03  0.19030918001E+03  0.00000000000E+00 0.  1.
<mgrwt>
<rscale>  4 0.45828128E+03</rscale>
<asrwt>0</asrwt>
<pdfrwt beam="1">  1        2 0.36890797E+00 0.45828128E+03</pdfrwt>
<pdfrwt beam="2">  1       -2 0.33686780E-02 0.45828128E+03</pdfrwt>
<totfact> 0.15955955E+03</totfact>
</mgrwt>
</event>
<event>
 5    0  0.5719562E-003  0.4501587E+03  0.7546771E-02  0.1027675E+00
          1   -1    0    0  502    0  0.00000000000E+00  0.00000000000E+00  0.38312678363E+03  0.38312678363E+03  0.00000000000E+00 0.  1.
         -1   -1    0    0    0  501 -0.00000000000E+00 -0.00000000000E+00 -0.13222963594E+03  0.13222963594E+03  0.00000000000E+00 0. -1.
         25    1    1    2    0    0 -0.33006898013E+02  0.19892799052E+03  0.93869275696E+02  0.25514357066E+03  0.12500000000E+03 0.  0.
          4    1    1    2  502    0 -0.43770215200E+01 -0.26854946650E+02  0.51860385482E+01  0.27699124044E+02  0.00000000000E+00 0. -1.
         -4    1    1    2    0  501  0.37383919533E+02 -0.17207304387E+03  0.15184183344E+03  0.23251372486E+03  0.00000000000E+00 0.  1.
<mgrwt>
<rscale>  4 0.45015871E+03</rscale>
<asrwt>0</asrwt>
<pdfrwt beam="1">  1        1 0.58942582E-01 0.45015871E+03</pdfrwt>
<pdfrwt beam="2">  1       -1 0.20343021E-01 0.45015871E+03</pdfrwt>
<totfact> 0.12613006E+03</totfact>
</mgrwt>
</event>
<event>
 5    0  0.5719562E-003  0.1126964E+04  0.7546771E-02  0.9179302E-01
         -2   -1    0    0    0  501 -0.00000000000E+00  0.00000000000E+00  0.14551549697E+03  0.14551549697E+03  0.00000000000E+00 0. -1.
          2   -1    0    0  502    0  0.00000000000E+00 -0.00000000000E+00 -0.21819816327E+04  0.21819816327E+04  0.00000000000E+00 0.  1.
         25    1    1    2    0    0 -0.14125067537E+03  0.50573173168E+03 -0.86314571926E+03  0.10180186002E+04  0.12500000000E+03 0.  0.
          3    1    1    2  502    0  0.29409747634E+02 -0.23109700705E+03 -0.79709125741E+03  0.83043677217E+03  0.00000000000E+00 0.  1.
         -3    1    1    2    0  501  0.11184092773E+03 -0.27463472462E+03 -0.37622915905E+03  0.47904175727E+03  0.00000000000E+00 0. -1.
<mgrwt>
<rscale>  4 0.11269643E+04</rscale>
<asrwt>0</asrwt>
<pdfrwt beam="1">  1        2 0.33568949E+00 0.11269643E+04</pdfrwt>
<pdfrwt beam="2">  1       -2 0.22386999E-01 0.11269643E+04</pdfrwt>
<totfact> 0.92048764E+01</totfact>
</mgrwt>
</event>
<event>
 5    0  0.5719562E-003  0.8164456E+03  0.7546771E-02  0.9536513E-01
          1   -1    0    0  502    0  0.00000000000E+00  0.00000000000E+00  0.11940872931E+04  0.11940872931E+04  0.00000000000E+00 0. -1.
         -1   -1    0    0    0  501 -0.00000000000E+00 -0.00000000000E+00 -0.13955919617E+03  0.13955919617E+03  0.00000000000E+00 0.  1.
         25    1    1    2    0    0  0.16475755219E+03 -0.17244466141E+03  0.40774109012E+02  0.27234122019E+03  0.12500000000E+03 0.  0.
          3    1    1    2  502    0 -0.13849735826E+03  0.97408125391E+02  0.93205663171E+03  0.94731168358E+03  0.00000000000E+00 0. -1.
         -3    1    1    2    0  501 -0.26260193929E+02  0.75036536018E+02  0.81697356187E+02  0.11399358548E+03  0.00000000000E+00 0.  1.
<mgrwt>
<rscale>  4 0.81644562E+03</rscale>
<asrwt>0</asrwt>
<pdfrwt beam="1">  1        1 0.18370573E+00 0.81644562E+03</pdfrwt>
<pdfrwt beam="2">  1       -1 0.21470646E-01 0.81644562E+03</pdfrwt>
<totfact> 0.19793981E+02</totfact>
</mgrwt>
</event>
<event>
 5    0  0.5719562E-003  0.4594226E+03  0.7546771E-02  0.1024949E+00
          1   -1    0    0  502    0  0.00000000000E+00  0.00000000000E+00  0.27783101728E+03  0.27783101728E+03  0.00000000000E+00 0.  1.
         -1   -1    0    0    0  501 -0.00000000000E+00 -0.00000000000E+00 -0.18992578232E+03  0.18992578232E+03  0.00000000000E+00 0. -1.
         25    1    1    2    0    0 -0.16888000792E+03 -0.10773484482E+03  0.10239463359E+03  0.25736533343E+03  0.12500000000E+03 0.  0.
          2    1    1    2  502    0  0.22637498404E+02 -0.96268073596E-01 -0.17586773191E+02  0.28666359950E+02  0.00000000000E+00 0.  1.
         -2    1    1    2    0  501  0.14624250952E+03  0.10783111289E+03  0.30973745551E+01  0.18172510621E+03  0.00000000000E+00 0. -1.
<mgrwt>
<rscale>  4 0.45942257E+03</rscale>
<asrwt>0</asrwt>
<pdfrwt beam="1">  1        1 0.42743234E-01 0.45942257E+03</pdfrwt>
<pdfrwt beam="2">  1       -1 0.29219351E-01 0.45942257E+03</pdfrwt>
<totfact> 0.10367412E+03</totfact>
</mgrwt>
</event>
<event>
 5    0  0.5719562E-003  0.6943201E+03  0.7546771E-02  0.9726995E-01
         -1   -1    0    0    0  501 -0.00000000000E+00  0.00000000000E+00  0.16000807449E+03  0.16000807449E+03  0.00000000000E+00 0. -1.
          1   -1    0    0  502    0  0.00000000000E+00 -0.00000000000E+00 -0.75321254799E+03  0.75321254799E+03  0.00000000000E+00 0.  1.
         25    1    1    2    0    0  0.15919035392E+03  0.27260562469E+03 -0.38518850055E+03  0.51346915813E+03  0.12500000000E+03 0.  0.
          1    1    1    2  502    0 -0.38423594929E+02 -0.72943228494E+02 -0.12956648516E+03  0.15357265807E+03  0.00000000000E+00 0.  1.
         -1    1    1    2    0  501 -0.12076675899E+03 -0.19966239619E+03 -0.78449487787E+02  0.24617880629E+03  0.00000000000E+00 0. -1.
<mgrwt>
<rscale>  4 0.69432007E+03</rscale>
<asrwt>0</asrwt>
<pdfrwt beam="1">  1        1 0.11587885E+00 0.69432007E+03</pdfrwt>
<pdfrwt beam="2">  1       -1 0.24616627E-01 0.69432007E+03</pdfrwt>
<totfact> 0.35381556E+02</totfact>
</mgrwt>
</event>
<event>
 5    0  0.5719562E-003  0.9830046E+03  0.7546771E-02  0.9327384E-01
         -1   -1    0    0    0  501 -0.00000000000E+00  0.00000000000E+00  0.30535429814E+03  0.30535429814E+03  0.00000000000E+00 0. -1.
          1   -1    0    0  502    0  0.00000000000E+00 -0.00000000000E+00 -0.79112851892E+03  0.79112851892E+03  0.00000000000E+00 0.  1.
         25    1    1    2    0    0  0.19052784259E+03  0.19024906925E+03  0.31542910187E+02  0.29852223089E+03  0.12500000000E+03 0.  0.
          3    1    1    2  502    0 -0.32826788059E+03 -0.12004048382E+03 -0.53842236072E+03  0.64192535213E+03  0.00000000000E+00 0.  1.
         -3    1    1    2    0  501  0.13774003801E+03 -0.70208585430E+02  0.21105229755E+02  0.15603523404E+03  0.00000000000E+00 0. -1.
<mgrwt>
<rscale>  4 0.98300456E+03</rscale>
<asrwt>0</asrwt>
<pdfrwt beam="1">  1        1 0.12171208E+00 0.98300456E+03</pdfrwt>
<pdfrwt beam="2">  1       -1 0.46977585E-01 0.98300456E+03</pdfrwt>
<totfact> 0.10199288E+02</totfact>
</mgrwt>
</event>
<event>
 5    0  0.5719562E-003  0.1416258E+04  0.7546771E-02  0.8942134E-01
         -1   -1    0    0    0  501 -0.00000000000E+00  0.00000000000E+00  0.53380600624E+03  0.53380600624E+03  0.00000000000E+00 0.  1.
          1   -1    0    0  502    0  0.00000000000E+00 -0.00000000000E+00 -0.93937966548E+03  0.93937966548E+03  0.00000000000E+00 0. -1.
         25    1    1    2    0    0  0.14978813819E+02 -0.22089507733E+03 -0.84794024902E+03  0.88523819730E+03  0.12500000000E+03 0.  0.
          4    1    1    2  502    0  0.14313646772E+02  0.30133911487E+03  0.34496306660E+03  0.45826810925E+03  0.00000000000E+00 0. -1.
         -4    1    1    2    0  501 -0.29292460590E+02 -0.80444037541E+02  0.97403523173E+02  0.12967936517E+03  0.00000000000E+00 0.  1.
<mgrwt>
<rscale>  4 0.14162578E+04</rscale>
<asrwt>0</asrwt>
<pdfrwt beam="1">  1        1 0.14451995E+00 0.14162578E+04</pdfrwt>
<pdfrwt beam="2">  1       -1 0.82124001E-01 0.14162578E+04</pdfrwt>
<totfact> 0.24283385E+01</totfact>
</mgrwt>
</event>
<event>
 5    0  0.5719562E-003  0.4532197E+03  0.7546771E-02  0.1026766E+00
          1   -1    0    0  502    0  0.00000000000E+00  0.00000000000E+00  0.92501801479E+03  0.92501801479E+03  0.00000000000E+00 0.  1.
         -1   -1    0    0    0  501 -0.00000000000E+00 -0.00000000000E+00 -0.55514631435E+02  0.55514631435E+02  0.00000000000E+00 0. -1.
         25    1    1    2    0    0 -0.15605327095E+03 -0.12995678885E+03  0.38655881529E+03  0.45419611185E+03  0.12500000000E+03 0.  0.
          4    1    1    2  502    0  0.14443200150E+02  0.27255901237E+02  0.11272629809E+03  0.11687047730E+03  0.00000000000E+00 0. -1.
         -4    1    1    2    0  501  0.14161007080E+03  0.10270088762E+03  0.37021826997E+03  0.40946605707E+03  0.00000000000E+00 0.  1.
<mgrwt>
<rscale>  4 0.45321974E+03</rscale>
<asrwt>0</asrwt>
<pdfrwt beam="1">  1        1 0.14231045E+00 0.45321974E+03</pdfrwt>
<pdfrwt beam="2">  1       -1 0.85407132E-02 0.45321974E+03</pdfrwt>
<totfact> 0.14194459E+03</totfact>
</mgrwt>
</event>
<event>
 5    0  0.5719562E-003  0.5545469E+03  0.7546771E-02  0.1000447E+00
          2   -1    0    0  502    0  0.00000000000E+00  0.00000000000E+00  0.56502075950E+03  0.56502075950E+03  0.00000000000E+00 0.  1.
         -2   -1    0    0    0  501 -0.00000000000E+00 -0.00000000000E+00 -0.13606681815E+03  0.13606681815E+03  0.00000000000E+00 0. -1.
         25    1    1    2    0    0 -0.13019844605E+03  0.16823344796E+03  0.20318178259E+03  0.31962785414E+03  0.12500000000E+03 0.  0.
          2    1    1    2  502    0  0.56937420142E+02 -0.67060872982E+02 -0.33126916209E+02  0.94002250372E+02  0.00000000000E+00 0. -1.
         -2    1    1    2    0  501  0.73261025906E+02 -0.10117257498E+03  0.25889907497E+03  0.28745747314E+03  0.00000000000E+00 0.  1.
<mgrwt>
<rscale>  4 0.55454694E+03</rscale>
<asrwt>0</asrwt>
<pdfrwt beam="1">  1        2 0.86926269E-01 0.55454694E+03</pdfrwt>
<pdfrwt beam="2">  1       -2 0.20933357E-01 0.55454694E+03</pdfrwt>
<totfact> 0.10528710E+03</totfact>
</mgrwt>
</event>
<event>
 5    0  0.5719562E-003  0.4682917E+03  0.7546771E-02  0.1022403E+00
         -2   -1    0    0    0  501 -0.00000000000E+00  0.00000000000E+00  0.14551946347E+03  0.14551946347E+03  0.00000000000E+00 0. -1.
          2   -1    0    0  502    0  0.00000000000E+00 -0.00000000000E+00 -0.37674877485E+03  0.37674877485E+03  0.00000000000E+00 0.  1.
         25    1    1    2    0    0 -0.21054325833E+03  0.35160688010E+01 -0.15887103990E+03  0.29190038316E+03  0.12500000000E+03 0.  0.
          4    1    1    2  502    0  0.79457147711E+02 -0.94144564663E+01 -0.57029114001E+02  0.98256756290E+02  0.00000000000E+00 0.  1.
         -4    1    1    2    0  501  0.13108611062E+03  0.58983876653E+01 -0.15329157468E+02  0.13211109887E+03  0.00000000000E+00 0. -1.
<mgrwt>
<rscale>  4 0.46829170E+03</rscale>
<asrwt>0</asrwt>
<pdfrwt beam="1">  1        2 0.57961350E-01 0.46829170E+03</pdfrwt>
<pdfrwt beam="2">  1       -2 0.22387610E-01 0.46829170E+03</pdfrwt>
<totfact> 0.14824071E+03</totfact>
</mgrwt>
</event>
<event>
 5    0  0.5719562E-003  0.5916518E+03  0.7546771E-02  0.9922879E-01
         -1   -1    0    0    0  501 -0.00000000000E+00  0.00000000000E+00  0.71341832336E+02  0.71341832336E+02  0.00000000000E+00 0.  1.
          1   -1    0    0  502    0  0.00000000000E+00 -0.00000000000E+00 -0.12266711049E+04  0.12266711049E+04  0.00000000000E+00 0. -1.
         25    1    1    2    0    0 -0.24847838662E+03  0.82180805716E+02 -0.67182484329E+03  0.73175734606E+03  0.12500000000E+03 0.  0.
          3    1    1    2  502    0  0.14684510402E+03 -0.29173151991E+02 -0.14323358431E+03  0.20719656620E+03  0.00000000000E+00 0.  1.
         -3    1    1    2    0  501  0.10163328260E+03 -0.53007653725E+02 -0.34027084495E+03  0.35905902496E+03  0.00000000000E+00 0. -1.
<mgrwt>
<rscale>  4 0.59165180E+03</rscale>
<asrwt>0</asrwt>
<pdfrwt beam="1">  1        1 0.18871864E+00 0.59165180E+03</pdfrwt>
<pdfrwt beam="2">  1       -1 0.10975666E-01 0.59165180E+03</pdfrwt>
<totfact> 0.56700524E+02</totfact>
</mgrwt>
</event>
<event>
 5    0  0.5719562E-003  0.6511070E+03  0.7546771E-02  0.9804704E-01
         -1   -1    0    0    0  501 -0.00000000000E+00  0.00000000000E+00  0.61784741051E+03  0.61784741051E+03  0.00000000000E+00 0. -1.
          1   -1    0    0  502    0  0.00000000000E+00 -0.00000000000E+00 -0.17153924292E+03  0.17153924292E+03  0.00000000000E+00 0.  1.
         25    1    1    2    0    0  0.24559430147E+03  0.42013657124E+02  0.32506657747E+03  0.42822305880E+03  0.12500000000E+03 0.  0.
          2    1    1    2  502    0 -0.16651884087E+03  0.86332392580E+02  0.86026110698E+02  0.20635478695E+03  0.00000000000E+00 0. -1.
         -2    1    1    2    0  501 -0.79075460599E+02 -0.12834604970E+03  0.35215479420E+02  0.15480880768E+03  0.00000000000E+00 0.  1.
<mgrwt>
<rscale>  4 0.65110699E+03</rscale>
<asrwt>0</asrwt>
<pdfrwt beam="1">  1        1 0.26390653E-01 0.65110699E+03</pdfrwt>
<pdfrwt beam="2">  1       -1 0.95053447E-01 0.65110699E+03</pdfrwt>
<totfact> 0.19770645E+02</totfact>
</mgrwt>
</event>
<event>
 5    0  0.5719562E-003  0.9218656E+03  0.7546771E-02  0.9398654E-01
         -2   -1    0    0    0  501 -0.00000000000E+00  0.00000000000E+00  0.38294857269E+03  0.38294857269E+03  0.00000000000E+00 0. -1.
          2   -1    0    0  502    0  0.00000000000E+00 -0.00000000000E+00 -0.55479785261E+03  0.55479785261E+03  0.00000000000E+00 0.  1.
         25    1    1    2    0    0 -0.22678215225E+03  0.62870716784E+02  0.29720625930E+03  0.39917343621E+03  0.12500000000E+03 0.  0.
          4    1    1    2  502    0  0.12431289098E+03  0.27248137691E+02 -0.24908392897E+03  0.27971227993E+03  0.00000000000E+00 0.  1.
         -4    1    1    2    0  501  0.10246926126E+03 -0.90118854475E+02 -0.21997161024E+03  0.25886070916E+03  0.00000000000E+00 0. -1.
<mgrwt>
<rscale>  4 0.92186560E+03</rscale>
<asrwt>0</asrwt>
<pdfrwt beam="1">  1        2 0.85353515E-01 0.92186560E+03</pdfrwt>
<pdfrwt beam="2">  1       -2 0.58915165E-01 0.92186560E+03</pdfrwt>
<totfact> 0.14708117E+02</totfact>
</mgrwt>
</event>
<event>
 5    0  0.5719562E-003  0.8684509E+03  0.7546771E-02  0.9465902E-01
         -1   -1    0    0    0  501 -0.00000000000E+00  0.00000000000E+00  0.12605565274E+03  0.12605565274E+03  0.00000000000E+00 0. -1.
          1   -1    0    0  502    0  0.00000000000E+00 -0.00000000000E+00 -0.14957815637E+04  0.14957815637E+04  0.00000000000E+00 0.  1.
         25    1    1    2    0    0 -0.27004695015E+03 -0.44102559992E+02 -0.34070758404E+03  0.45450747949E+03  0.12500000000E+03 0.  0.
          4    1    1    2  502    0 -0.80845443131E+02  0.73858427764E+02 -0.38499990752E+02  0.11607455498E+03  0.00000000000E+00 0.  1.
         -4    1    1    2    0  501  0.35089239328E+03 -0.29755867772E+02 -0.99051833621E+03  0.10512551820E+04  0.00000000000E+00 0. -1.
<mgrwt>
<rscale>  4 0.86845085E+03</rscale>
<asrwt>0</asrwt>
<pdfrwt beam="1">  1        1 0.23012025E+00 0.86845085E+03</pdfrwt>
<pdfrwt beam="2">  1       -1 0.19393177E-01 0.86845085E+03</pdfrwt>
<totfact> 0.14334951E+02</totfact>
</mgrwt>
</event>
<event>
 5    0  0.5719562E-003  0.6613309E+03  0.7546771E-02  0.9785747E-01
         -2   -1    0    0    0  501 -0.00000000000E+00  0.00000000000E+00  0.30354903532E+02  0.30354903532E+02  0.00000000000E+00 0.  1.
          2   -1    0    0  502    0  0.00000000000E+00 -0.00000000000E+00 -0.36020417446E+04  0.36020417446E+04  0.00000000000E+00 0. -1.
         25    1    1    2    0    0  0.21637069962E+03 -0.20470731045E+02 -0.15862704997E+04  0.16059621505E+04  0.12500000000E+03 0.  0.
          1    1    1    2  502    0 -0.10821043254E+03  0.17547281003E+03 -0.80481863830E+03  0.83080277161E+03  0.00000000000E+00 0.  1.
         -1    1    1    2    0  501 -0.10816026709E+03 -0.15500207898E+03 -0.11805977030E+04  0.11956317260E+04  0.00000000000E+00 0. -1.
<mgrwt>
<rscale>  4 0.66133087E+03</rscale>
<asrwt>0</asrwt>
<pdfrwt beam="1">  1        2 0.55416020E+00 0.66133087E+03</pdfrwt>
<pdfrwt beam="2">  1       -2 0.46699858E-02 0.66133087E+03</pdfrwt>
<totfact> 0.17290370E+02</totfact>
</mgrwt>
</event>
<event>
 5    0  0.5719562E-003  0.5238144E+03  0.7546771E-02  0.1007743E+00
         -2   -1    0    0    0  501 -0.00000000000E+00  0.00000000000E+00  0.56679799797E+02  0.56679799797E+02  0.00000000000E+00 0.  1.
          2   -1    0    0  502    0  0.00000000000E+00 -0.00000000000E+00 -0.12102260326E+04  0.12102260326E+04  0.00000000000E+00 0. -1.
         25    1    1    2    0    0 -0.60209807578E+02 -0.22297635205E+03 -0.80212058857E+03  0.84401783933E+03  0.12500000000E+03 0.  0.
          3    1    1    2  502    0  0.23582791254E+02  0.50239945906E+02 -0.56888771558E+02  0.79476616293E+02  0.00000000000E+00 0. -1.
         -3    1    1    2    0  501  0.36627016324E+02  0.17273640615E+03 -0.29453687270E+03  0.34341137679E+03  0.00000000000E+00 0.  1.
<mgrwt>
<rscale>  4 0.52381435E+03</rscale>
<asrwt>0</asrwt>
<pdfrwt beam="1">  1        2 0.18618863E+00 0.52381435E+03</pdfrwt>
<pdfrwt beam="2">  1       -2 0.87199690E-02 0.52381435E+03</pdfrwt>
<totfact> 0.16191634E+03</totfact>
</mgrwt>
</event>
<event>
 5    0  0.5719562E-003  0.5166946E+03  0.7546771E-02  0.1009511E+00
          1   -1    0    0  502    0  0.00000000000E+00  0.00000000000E+00  0.39342326042E+03  0.39342326042E+03  0.00000000000E+00 0. -1.
         -1   -1    0    0    0  501 -0.00000000000E+00 -0.00000000000E+00 -0.16964760839E+03  0.16964760839E+03  0.00000000000E+00 0.  1.
         25    1    1    2    0    0  0.21501384833E+03 -0.29095500377E+02  0.14658854375E+03  0.29015634453E+03  0.12500000000E+03 0.  0.
          2    1    1    2  502    0 -0.16003397864E+03  0.74563237754E+02  0.13142066452E+02  0.17704029105E+03  0.00000000000E+00 0.  1.
         -2    1    1    2    0  501 -0.54979869685E+02 -0.45467737377E+02  0.64045041833E+02  0.95874233223E+02  0.00000000000E+00 0. -1.
<mgrwt>
<rscale>  4 0.51669455E+03</rscale>
<asrwt>0</asrwt>
<pdfrwt beam="1">  1        1 0.60526655E-01 0.51669455E+03</pdfrwt>
<pdfrwt beam="2">  1       -1 0.26099632E-01 0.51669455E+03</pdfrwt>
<totfact> 0.80231979E+02</totfact>
</mgrwt>
</event>
<event>
 5    0  0.5719562E-003  0.4964931E+03  0.7546771E-02  0.1014698E+00
         -2   -1    0    0    0  501 -0.00000000000E+00  0.00000000000E+00  0.17979983703E+03  0.17979983703E+03  0.00000000000E+00 0. -1.
          2   -1    0    0  502    0  0.00000000000E+00 -0.00000000000E+00 -0.34274968397E+03  0.34274968397E+03  0.00000000000E+00 0.  1.
         25    1    1    2    0    0 -0.18075232739E+03  0.10372038872E+03 -0.53533358214E+02  0.24883758424E+03  0.12500000000E+03 0.  0.
          2    1    1    2  502    0  0.13017477019E+03 -0.13448925391E+03 -0.10435116254E+03  0.21429417942E+03  0.00000000000E+00 0.  1.
         -2    1    1    2    0  501  0.50577557200E+02  0.30768865194E+02 -0.50653261784E+01  0.59417757337E+02  0.00000000000E+00 0. -1.
<mgrwt>
<rscale>  4 0.49649305E+03</rscale>
<asrwt>0</asrwt>
<pdfrwt beam="1">  1        2 0.52730720E-01 0.49649305E+03</pdfrwt>
<pdfrwt beam="2">  1       -2 0.27661514E-01 0.49649305E+03</pdfrwt>
<totfact> 0.11276387E+03</totfact>
</mgrwt>
</event>
<event>
 5    0  0.5719562E-003  0.6367095E+03  0.7546771E-02  0.9832043E-01
         -2   -1    0    0    0  501 -0.00000000000E+00  0.00000000000E+00  0.40013242176E+02  0.40013242176E+02  0.00000000000E+00 0. -1.
          2   -1    0    0  502    0  0.00000000000E+00 -0.00000000000E+00 -0.25329048474E+04  0.25329048474E+04  0.00000000000E+00 0.  1.
         25    1    1    2    0    0 -0.24771348825E+03  0.26626622031E+02 -0.84435886707E+03  0.88917818555E+03  0.12500000000E+03 0.  0.
          2    1    1    2  502    0  0.11593661664E+03  0.79976133664E+02 -0.40680191883E+03  0.43049423015E+03  0.00000000000E+00 0. -1.
         -2    1    1    2    0  501  0.13177687161E+03 -0.10660275569E+03 -0.12417308194E+04  0.12532456739E+04  0.00000000000E+00 0.  1.
<mgrwt>
<rscale>  4 0.63670946E+03</rscale>
<asrwt>0</asrwt>
<pdfrwt beam="1">  1        2 0.38967777E+00 0.63670946E+03</pdfrwt>
<pdfrwt beam="2">  1       -2 0.61558818E-02 0.63670946E+03</pdfrwt>
<totfact> 0.52130863E+02</totfact>
</mgrwt>
</event>
<event>
 5    0  0.5719562E-003  0.1003900E+04  0.7546771E-02  0.9304278E-01
         -2   -1    0    0    0  501 -0.00000000000E+00  0.00000000000E+00  0.18841926654E+03  0.18841926654E+03  0.00000000000E+00 0.  1.
          2   -1    0    0  502    0  0.00000000000E+00 -0.00000000000E+00 -0.13371972048E+04  0.13371972048E+04  0.00000000000E+00 0. -1.
         25    1    1    2    0    0 -0.19766038565E+03  0.26240288054E+03 -0.10314915825E+04  0.10897361077E+04  0.12500000000E+03 0.  0.
          2    1    1    2  502    0  0.30113550093E+02  0.18754987124E+01 -0.11920154228E+03  0.12296077048E+03  0.00000000000E+00 0. -1.
         -2    1    1    2    0  501  0.16754683555E+03 -0.26427837925E+03  0.19151864689E+01  0.31291959316E+03  0.00000000000E+00 0.  1.
<mgrwt>
<rscale>  4 0.10038998E+04</rscale>
<asrwt>0</asrwt>
<pdfrwt beam="1">  1        2 0.20572265E+00 0.10038998E+04</pdfrwt>
<pdfrwt beam="2">  1       -2 0.28987580E-01 0.10038998E+04</pdfrwt>
<totfact> 0.17139463E+02</totfact>
</mgrwt>
</event>
<event>
 5    0  0.5719562E-003  0.6190323E+03  0.7546771E-02  0.9866688E-01
         -2   -1    0    0    0  501 -0.00000000000E+00  0.00000000000E+00  0.47269455773E+03  0.47269455773E+03  0.00000000000E+00 0.  1.
          2   -1    0    0  502    0  0.00000000000E+00 -0.00000000000E+00 -0.20266840390E+03  0.20266840390E+03  0.00000000000E+00 0. -1.
         25    1    1    2    0    0  0.11222821990E+03  0.24813346378E+03  0.21220835085E+03  0.36718220730E+03  0.12500000000E+03 0.  0.
          2    1    1    2  502    0 -0.59340378923E+02 -0.18352199380E+02  0.34985556382E+02  0.71288659324E+02  0.00000000000E+00 0.  1.
         -2    1    1    2    0  501 -0.52887840973E+02 -0.22978126440E+03  0.22832246594E+02  0.23689209500E+03  0.00000000000E+00 0. -1.
<mgrwt>
<rscale>  4 0.61903231E+03</rscale>
<asrwt>0</asrwt>
<pdfrwt beam="1">  1        2 0.31179754E-01 0.61903231E+03</pdfrwt>
<pdfrwt beam="2">  1       -2 0.72722240E-01 0.61903231E+03</pdfrwt>
<totfact> 0.29433894E+02</totfact>
</mgrwt>
</event>
<event>
 5    0  0.5719562E-003  0.5555009E+03  0.7546771E-02  0.1000229E+00
         -1   -1    0    0    0  501 -0.00000000000E+00  0.00000000000E+00  0.21057948502E+03  0.21057948502E+03  0.00000000000E+00 0.  1.
          1   -1    0    0  502    0  0.00000000000E+00 -0.00000000000E+00 -0.36634773497E+03  0.36634773497E+03  0.00000000000E+00 0. -1.
         25    1    1    2    0    0 -0.20387781926E+03 -0.67513209285E+02  0.40459837012E+02  0.25176615544E+03  0.12500000000E+03 0.  0.
          3    1    1    2  502    0  0.10833097690E+03  0.11018172792E+03 -0.12178712448E+03  0.19674276966E+03  0.00000000000E+00 0. -1.
         -3    1    1    2    0  501  0.95546842361E+02 -0.42668518638E+02 -0.74440962476E+02  0.12841829489E+03  0.00000000000E+00 0.  1.
<mgrwt>
<rscale>  4 0.55550092E+03</rscale>
<asrwt>0</asrwt>
<pdfrwt beam="1">  1        1 0.56361189E-01 0.55550092E+03</pdfrwt>
<pdfrwt beam="2">  1       -1 0.32396844E-01 0.55550092E+03</pdfrwt>
<totfact> 0.60611560E+02</totfact>
</mgrwt>
</event>
<event>
 5    0  0.5719562E-003  0.5935864E+03  0.7546771E-02  0.9918802E-01
          2   -1    0    0  502    0  0.00000000000E+00  0.00000000000E+00  0.18061330179E+03  0.18061330179E+03  0.00000000000E+00 0.  1.
         -2   -1    0    0    0  501 -0.00000000000E+00 -0.00000000000E+00 -0.48770612083E+03  0.48770612083E+03  0.00000000000E+00 0. -1.
         25    1    1    2    0    0  0.85651249847E+02  0.20285420515E+03 -0.25621671691E+03  0.36021933759E+03  0.12500000000E+03 0.  0.
          2    1    1    2  502    0  0.68889470670E+02 -0.47197948649E+02 -0.25384943746E+02  0.87280014292E+02  0.00000000000E+00 0. -1.
         -2    1    1    2    0  501 -0.15454072052E+03 -0.15565625650E+03 -0.25491158385E+02  0.22082007074E+03  0.00000000000E+00 0.  1.
<mgrwt>
<rscale>  4 0.59358643E+03</rscale>
<asrwt>0</asrwt>
<pdfrwt beam="1">  1        2 0.27786663E-01 0.59358643E+03</pdfrwt>
<pdfrwt beam="2">  1       -2 0.75031709E-01 0.59358643E+03</pdfrwt>
<totfact> 0.31306218E+02</totfact>
</mgrwt>
</event>
<event>
 5    0  0.5719562E-003  0.1073890E+04  0.7546771E-02  0.9231021E-01
          1   -1    0    0  502    0  0.00000000000E+00  0.00000000000E+00  0.40767162634E+04  0.40767162634E+04  0.00000000000E+00 0. -1.
         -1   -1    0    0    0  501 -0.00000000000E+00 -0.00000000000E+00 -0.70721060577E+02  0.70721060577E+02  0.00000000000E+00 0.  1.
         25    1    1    2    0    0 -0.48217916973E+03  0.77004728091E+02  0.19086255225E+04  0.19740574625E+04  0.12500000000E+03 0.  0.
          2    1    1    2  502    0  0.30866598579E+03 -0.80244243061E+02  0.18083666872E+04  0.18362744634E+04  0.00000000000E+00 0. -1.
         -2    1    1    2    0  501  0.17351318394E+03  0.32395149703E+01  0.28900299305E+03  0.33710539813E+03  0.00000000000E+00 0.  1.
<mgrwt>
<rscale>  4 0.10738896E+04</rscale>
<asrwt>0</asrwt>
<pdfrwt beam="1">  1        1 0.62718694E+00 0.10738896E+04</pdfrwt>
<pdfrwt beam="2">  1       -1 0.10880166E-01 0.10738896E+04</pdfrwt>
<totfact> 0.47310326E+00</totfact>
</mgrwt>
</event>
<event>
 5    0  0.5719562E-003  0.5222317E+03  0.7546771E-02  0.1008134E+00
         -2   -1    0    0    0  501 -0.00000000000E+00  0.00000000000E+00  0.37711080287E+02  0.37711080287E+02  0.00000000000E+00 0.  1.
          2   -1    0    0  502    0  0.00000000000E+00 -0.00000000000E+00 -0.18079959386E+04  0.18079959386E+04  0.00000000000E+00 0. -1.
         25    1    1    2    0    0  0.11127564568E+03 -0.19947929157E+03 -0.11658659008E+04  0.11945888647E+04  0.12500000000E+03 0.  0.
          4    1    1    2  502    0 -0.67682350965E+02  0.14651531584E+03 -0.50627617116E+03  0.53137858433E+03  0.00000000000E+00 0. -1.
         -4    1    1    2    0  501 -0.43593294711E+02  0.52963975735E+02 -0.98142786391E+02  0.11973956986E+03  0.00000000000E+00 0.  1.
<mgrwt>
<rscale>  4 0.52223167E+03</rscale>
<asrwt>0</asrwt>
<pdfrwt beam="1">  1        2 0.27815321E+00 0.52223167E+03</pdfrwt>
<pdfrwt beam="2">  1       -2 0.58017048E-02 0.52223167E+03</pdfrwt>
<totfact> 0.14390878E+03</totfact>
</mgrwt>
</event>
<event>
 5    0  0.5719562E-003  0.6910682E+03  0.7546771E-02  0.9732630E-01
          1   -1    0    0  502    0  0.00000000000E+00  0.00000000000E+00  0.94064206797E+03  0.94064206797E+03  0.00000000000E+00 0. -1.
         -1   -1    0    0    0  501 -0.00000000000E+00 -0.00000000000E+00 -0.12692798019E+03  0.12692798019E+03  0.00000000000E+00 0.  1.
         25    1    1    2    0    0 -0.27905039668E+03  0.14594738331E+03  0.40161505935E+03  0.52544211715E+03  0.12500000000E+03 0.  0.
          1    1    1    2  502    0  0.89258709333E+02 -0.99841224599E+02  0.77594978485E+02  0.15477844814E+03  0.00000000000E+00 0.  1.
         -1    1    1    2    0  501  0.18979168734E+03 -0.46106158710E+02  0.33450404994E+03  0.38734948287E+03  0.00000000000E+00 0. -1.
<mgrwt>
<rscale>  4 0.69106815E+03</rscale>
<asrwt>0</asrwt>
<pdfrwt beam="1">  1        1 0.14471416E+00 0.69106815E+03</pdfrwt>
<pdfrwt beam="2">  1       -1 0.19527382E-01 0.69106815E+03</pdfrwt>
<totfact> 0.36334801E+02</totfact>
</mgrwt>
</event>
<event>
 5    0  0.5719562E-003  0.4513204E+03  0.7546771E-02  0.1027329E+00
          4   -1    0    0  502    0  0.00000000000E+00  0.00000000000E+00  0.12503096154E+03  0.12503096154E+03  0.00000000000E+00 0.  1.
         -4   -1    0    0    0  501 -0.00000000000E+00 -0.00000000000E+00 -0.40727926430E+03  0.40727926430E+03  0.00000000000E+00 0. -1.
         25    1    1    2    0    0  0.21961802730E+02  0.20453486180E+03 -0.12370113458E+03  0.27063591995E+03  0.12500000000E+03 0.  0.
          1    1    1    2  502    0  0.64557110209E+01 -0.32178142238E+02 -0.17745731976E+02  0.37309784856E+02  0.00000000000E+00 0.  1.
         -1    1    1    2    0  501 -0.28417513751E+02 -0.17235671956E+03 -0.14080143620E+03  0.22436452104E+03  0.00000000000E+00 0. -1.
<mgrwt>
<rscale>  4 0.45132037E+03</rscale>
<asrwt>0</asrwt>
<pdfrwt beam="1">  1        4 0.19235533E-01 0.45132037E+03</pdfrwt>
<pdfrwt beam="2">  1       -4 0.62658348E-01 0.45132037E+03</pdfrwt>
<totfact> 0.11430122E+02</totfact>
</mgrwt>
</event>
<event>
 5    0  0.5719562E-003  0.7101220E+03  0.7546771E-02  0.9700077E-01
          1   -1    0    0  502    0  0.00000000000E+00  0.00000000000E+00  0.66749359961E+03  0.66749359961E+03  0.00000000000E+00 0.  1.
         -1   -1    0    0    0  501 -0.00000000000E+00 -0.00000000000E+00 -0.18886819455E+03  0.18886819455E+03  0.00000000000E+00 0. -1.
         25    1    1    2    0    0  0.12804406909E+03  0.29936644516E+03  0.13065229555E+03  0.37243868549E+03  0.12500000000E+03 0.  0.
          1    1    1    2  502    0 -0.21775500629E+02 -0.11876792178E+03  0.17277580448E+03  0.21078773751E+03  0.00000000000E+00 0.  1.
         -1    1    1    2    0  501 -0.10626856846E+03 -0.18059852338E+03  0.17519730504E+03  0.27313537116E+03  0.00000000000E+00 0. -1.
<mgrwt>
<rscale>  4 0.71012199E+03</rscale>
<asrwt>0</asrwt>
<pdfrwt beam="1">  1        1 0.10269132E+00 0.71012199E+03</pdfrwt>
<pdfrwt beam="2">  1       -1 0.29056646E-01 0.71012199E+03</pdfrwt>
<totfact> 0.31946842E+02</totfact>
</mgrwt>
</event>
<event>
 5    0  0.5719562E-003  0.4448816E+03  0.7546771E-02  0.1029259E+00
          1   -1    0    0  502    0  0.00000000000E+00  0.00000000000E+00  0.52429666090E+03  0.52429666090E+03  0.00000000000E+00 0.  1.
         -1   -1    0    0    0  501 -0.00000000000E+00 -0.00000000000E+00 -0.94373882965E+02  0.94373882965E+02  0.00000000000E+00 0. -1.
         25    1    1    2    0    0  0.58832910057E+02  0.19281288898E+03  0.23612717705E+03  0.33469264289E+03  0.12500000000E+03 0.  0.
          3    1    1    2  502    0 -0.27244606373E+01 -0.74677592588E+02  0.90219528914E+02  0.11714832017E+03  0.00000000000E+00 0.  1.
         -3    1    1    2    0  501 -0.56108449420E+02 -0.11813529639E+03  0.10357607197E+03  0.16682958081E+03  0.00000000000E+00 0. -1.
<mgrwt>
<rscale>  4 0.44488161E+03</rscale>
<asrwt>0</asrwt>
<pdfrwt beam="1">  1        1 0.80661023E-01 0.44488161E+03</pdfrwt>
<pdfrwt beam="2">  1       -1 0.14519059E-01 0.44488161E+03</pdfrwt>
<totfact> 0.14388261E+03</totfact>
</mgrwt>
</event>
<event>
 5    0  0.5719562E-003  0.7330121E+03  0.7546771E-02  0.9662385E-01
          2   -1    0    0  502    0  0.00000000000E+00  0.00000000000E+00  0.18211421935E+04  0.18211421935E+04  0.00000000000E+00 0. -1.
         -2   -1    0    0    0  501 -0.00000000000E+00 -0.00000000000E+00 -0.73759585536E+02  0.73759585536E+02  0.00000000000E+00 0.  1.
         25    1    1    2    0    0  0.59021050045E+02  0.25349608639E+03  0.27987068852E+03  0.40211484983E+03  0.12500000000E+03 0.  0.
          2    1    1    2  502    0  0.30554987874E+01 -0.30577846345E+02  0.72967471295E+02  0.79174444280E+02  0.00000000000E+00 0.  1.
         -2    1    1    2    0  501 -0.62076548832E+02 -0.22291824005E+03  0.13945444481E+04  0.14136124849E+04  0.00000000000E+00 0. -1.
<mgrwt>
<rscale>  4 0.73301212E+03</rscale>
<asrwt>0</asrwt>
<pdfrwt beam="1">  1        2 0.28017569E+00 0.73301212E+03</pdfrwt>
<pdfrwt beam="2">  1       -2 0.11347630E-01 0.73301212E+03</pdfrwt>
<totfact> 0.47825290E+02</totfact>
</mgrwt>
</event>
<event>
 5    0  0.5719562E-003  0.1594842E+04  0.7546771E-02  0.8823723E-01
         -2   -1    0    0    0  501 -0.00000000000E+00  0.00000000000E+00  0.27602990807E+03  0.27602990807E+03  0.00000000000E+00 0. -1.
          2   -1    0    0  502    0  0.00000000000E+00 -0.00000000000E+00 -0.23036631129E+04  0.23036631129E+04  0.00000000000E+00 0.  1.
         25    1    1    2    0    0 -0.47878618673E+03  0.35481925227E+03 -0.16181240527E+04  0.17288965742E+04  0.12500000000E+03 0.  0.
          2    1    1    2  502    0  0.12447273220E+03 -0.33521583456E+03 -0.33121179721E+03  0.48740575644E+03  0.00000000000E+00 0.  1.
         -2    1    1    2    0  501  0.35431345453E+03 -0.19603417705E+02 -0.78297354958E+02  0.36339069036E+03  0.00000000000E+00 0. -1.
<mgrwt>
<rscale>  4 0.15948416E+04</rscale>
<asrwt>0</asrwt>
<pdfrwt beam="1">  1        2 0.35440972E+00 0.15948416E+04</pdfrwt>
<pdfrwt beam="2">  1       -2 0.42466139E-01 0.15948416E+04</pdfrwt>
<totfact> 0.22778470E+01</totfact>
</mgrwt>
</event>
<event>
 5    0  0.5719562E-003  0.5822860E+03  0.7546771E-02  0.9942854E-01
         -1   -1    0    0    0  501 -0.00000000000E+00  0.00000000000E+00  0.84155297680E+02  0.84155297680E+02  0.00000000000E+00 0. -1.
          1   -1    0    0  502    0  0.00000000000E+00 -0.00000000000E+00 -0.10072358988E+04  0.10072358988E+04  0.00000000000E+00 0.  1.
         25    1    1    2    0    0 -0.21193815296E+03 -0.10541204422E+03 -0.22506508938E+03  0.34972671360E+03  0.12500000000E+03 0.  0.
          2    1    1    2  502    0  0.15994439478E+03  0.81116039031E+02 -0.40275609737E+03  0.44087922969E+03  0.00000000000E+00 0.  1.
         -2    1    1    2    0  501  0.51993758180E+02  0.24296005188E+02 -0.29525941442E+03  0.30078525323E+03  0.00000000000E+00 0. -1.
<mgrwt>
<rscale>  4 0.58228597E+03</rscale>
<asrwt>0</asrwt>
<pdfrwt beam="1">  1        1 0.15495937E+00 0.58228597E+03</pdfrwt>
<pdfrwt beam="2">  1       -1 0.12946969E-01 0.58228597E+03</pdfrwt>
<totfact> 0.63299532E+02</totfact>
</mgrwt>
</event>
<event>
 5    0  0.5719562E-003  0.6000905E+03  0.7546771E-02  0.9905218E-01
         -2   -1    0    0    0  501 -0.00000000000E+00  0.00000000000E+00  0.60077803791E+02  0.60077803791E+02  0.00000000000E+00 0. -1.
          2   -1    0    0  502    0  0.00000000000E+00 -0.00000000000E+00 -0.14985095006E+04  0.14985095006E+04  0.00000000000E+00 0.  1.
         25    1    1    2    0    0 -0.21417848159E+03  0.73532693341E+02 -0.73940942089E+03  0.78334588189E+03  0.12500000000E+03 0.  0.
          1    1    1    2  502    0  0.14320555049E+03 -0.26879079978E+02 -0.66973279104E+03  0.68539939161E+03  0.00000000000E+00 0.  1.
         -1    1    1    2    0  501  0.70972931104E+02 -0.46653613363E+02 -0.29289484874E+02  0.89842030885E+02  0.00000000000E+00 0. -1.
<mgrwt>
<rscale>  4 0.60009053E+03</rscale>
<asrwt>0</asrwt>
<pdfrwt beam="1">  1        2 0.23053993E+00 0.60009053E+03</pdfrwt>
<pdfrwt beam="2">  1       -2 0.92427390E-02 0.60009053E+03</pdfrwt>
<totfact> 0.10105191E+03</totfact>
</mgrwt>
</event>
<event>
 5    0  0.5719562E-003  0.6976902E+03  0.7546771E-02  0.9721190E-01
         -1   -1    0    0    0  501 -0.00000000000E+00  0.00000000000E+00  0.37639729439E+03  0.37639729439E+03  0.00000000000E+00 0. -1.
          1   -1    0    0  502    0  0.00000000000E+00 -0.00000000000E+00 -0.32330969798E+03  0.32330969798E+03  0.00000000000E+00 0.  1.
         25    1    1    2    0    0  0.19906282612E+03  0.49536445126E+02 -0.48086584529E+02  0.24498405612E+03  0.12500000000E+03 0.  0.
          3    1    1    2  502    0 -0.17573195370E+02 -0.11346516080E+03  0.20582628794E+03  0.23568542746E+03  0.00000000000E+00 0. -1.
         -3    1    1    2    0  501 -0.18148963075E+03  0.63928715669E+02 -0.10465210701E+03  0.21903750879E+03  0.00000000000E+00 0.  1.
<mgrwt>
<rscale>  4 0.69769018E+03</rscale>
<asrwt>0</asrwt>
<pdfrwt beam="1">  1        1 0.49739954E-01 0.69769018E+03</pdfrwt>
<pdfrwt beam="2">  1       -1 0.57907276E-01 0.69769018E+03</pdfrwt>
<totfact> 0.24355744E+02</totfact>
</mgrwt>
</event>
<event>
 5    0  0.5719562E-003  0.4931507E+03  0.7546771E-02  0.1015582E+00
         -4   -1    0    0    0  501 -0.00000000000E+00  0.00000000000E+00  0.20177698923E+04  0.20177698923E+04  0.00000000000E+00 0.  1.
          4   -1    0    0  502    0  0.00000000000E+00 -0.00000000000E+00 -0.30131978687E+02  0.30131978687E+02  0.00000000000E+00 0. -1.
         25    1    1    2    0    0  0.20562639809E+03  0.97051085835E+02  0.10321722663E+04  0.10642864822E+04  0.12500000000E+03 0.  0.
          2    1    1    2  502    0 -0.15425834692E+03 -0.58327389465E+02  0.59393266725E+03  0.61640387344E+03  0.00000000000E+00 0.  1.
         -2    1    1    2    0  501 -0.51368051170E+02 -0.38723696371E+02  0.36153298005E+03  0.36721151535E+03  0.00000000000E+00 0. -1.
<mgrwt>
<rscale>  4 0.49315068E+03</rscale>
<asrwt>0</asrwt>
<pdfrwt beam="1">  1        4 0.46356906E-02 0.49315068E+03</pdfrwt>
<pdfrwt beam="2">  1       -4 0.31042603E+00 0.49315068E+03</pdfrwt>
<totfact> 0.15897183E+01</totfact>
</mgrwt>
</event>
<event>
 5    0  0.5719562E-003  0.7441368E+03  0.7546771E-02  0.9644594E-01
         -2   -1    0    0    0  501 -0.00000000000E+00  0.00000000000E+00  0.19761729443E+03  0.19761729443E+03  0.00000000000E+00 0.  1.
          2   -1    0    0  502    0  0.00000000000E+00 -0.00000000000E+00 -0.70052014515E+03  0.70052014515E+03  0.00000000000E+00 0. -1.
         25    1    1    2    0    0  0.10491574817E+03 -0.19792183450E+03  0.82494845938E+02  0.26946384988E+03  0.12500000000E+03 0.  0.
          2    1    1    2  502    0  0.30634437681E+01  0.25495964811E+02 -0.60198938278E+02  0.65447238896E+02  0.00000000000E+00 0.  1.
         -2    1    1    2    0  501 -0.10797919194E+03  0.17242586969E+03 -0.52519875839E+03  0.56322635080E+03  0.00000000000E+00 0. -1.
<mgrwt>
<rscale>  4 0.74413680E+03</rscale>
<asrwt>0</asrwt>
<pdfrwt beam="1">  1        2 0.10777233E+00 0.74413680E+03</pdfrwt>
<pdfrwt beam="2">  1       -2 0.30402661E-01 0.74413680E+03</pdfrwt>
<totfact> 0.41169710E+02</totfact>
</mgrwt>
</event>
<event>
 5    0  0.5719562E-003  0.5709778E+03  0.7546771E-02  0.9967517E-01
         -1   -1    0    0    0  501 -0.00000000000E+00  0.00000000000E+00  0.12608514514E+03  0.12608514514E+03  0.00000000000E+00 0.  1.
          1   -1    0    0  502    0  0.00000000000E+00 -0.00000000000E+00 -0.64641959921E+03  0.64641959921E+03  0.00000000000E+00 0. -1.
         25    1    1    2    0    0  0.13002642564E+03  0.16920003457E+03 -0.50470234288E+02  0.25240397702E+03  0.12500000000E+03 0.  0.
          4    1    1    2  502    0 -0.97368914103E+02 -0.11105924785E+03 -0.25025011703E+03  0.29058558643E+03  0.00000000000E+00 0. -1.
         -4    1    1    2    0  501 -0.32657511539E+02 -0.58140786724E+02 -0.21961410275E+03  0.22951518091E+03  0.00000000000E+00 0.  1.
<mgrwt>
<rscale>  4 0.57097779E+03</rscale>
<asrwt>0</asrwt>
<pdfrwt beam="1">  1        1 0.99449170E-01 0.57097779E+03</pdfrwt>
<pdfrwt beam="2">  1       -1 0.19397714E-01 0.57097779E+03</pdfrwt>
<totfact> 0.66691441E+02</totfact>
</mgrwt>
</event>
<event>
 5    0  0.5719562E-003  0.4552201E+03  0.7546771E-02  0.1026177E+00
         -2   -1    0    0    0  501 -0.00000000000E+00  0.00000000000E+00  0.23996003779E+03  0.23996003779E+03  0.00000000000E+00 0.  1.
          2   -1    0    0  502    0  0.00000000000E+00 -0.00000000000E+00 -0.21589568584E+03  0.21589568584E+03  0.00000000000E+00 0. -1.
         25    1    1    2    0    0 -0.65069529404E+02  0.19731556822E+03  0.51624699875E+01  0.24252655157E+03  0.12500000000E+03 0.  0.
          1    1    1    2  502    0 -0.28610688926E+01 -0.38206268864E+02 -0.51632208186E+01  0.38659585421E+02  0.00000000000E+00 0. -1.
         -1    1    1    2    0  501  0.67930598296E+02 -0.15910929936E+03  0.24065102776E+02  0.17466958664E+03  0.00000000000E+00 0.  1.
<mgrwt>
<rscale>  4 0.45522011E+03</rscale>
<asrwt>0</asrwt>
<pdfrwt beam="1">  1        2 0.33214721E-01 0.45522011E+03</pdfrwt>
<pdfrwt beam="2">  1       -2 0.36916929E-01 0.45522011E+03</pdfrwt>
<totfact> 0.10961261E+03</totfact>
</mgrwt>
</event>
<event>
 5    0  0.5719562E-003  0.4989030E+03  0.7546771E-02  0.1014066E+00
         -1   -1    0    0    0  501 -0.00000000000E+00  0.00000000000E+00  0.17344261197E+03  0.17344261197E+03  0.00000000000E+00 0.  1.
          1   -1    0    0  502    0  0.00000000000E+00 -0.00000000000E+00 -0.35877030413E+03  0.35877030413E+03  0.00000000000E+00 0. -1.
         25    1    1    2    0    0  0.21110382436E+03 -0.17346171374E+02 -0.13980403867E+03  0.28290613911E+03  0.12500000000E+03 0.  0.
          3    1    1    2  502    0 -0.35370722438E+02 -0.16583521301E+02 -0.57960577844E+02  0.69896564784E+02  0.00000000000E+00 0. -1.
         -3    1    1    2    0  501 -0.17573310192E+03  0.33929692676E+02  0.12436924355E+02  0.17941021220E+03  0.00000000000E+00 0.  1.
<mgrwt>
<rscale>  4 0.49890303E+03</rscale>
<asrwt>0</asrwt>
<pdfrwt beam="1">  1        1 0.55195431E-01 0.49890303E+03</pdfrwt>
<pdfrwt beam="2">  1       -1 0.26683479E-01 0.49890303E+03</pdfrwt>
<totfact> 0.87154449E+02</totfact>
</mgrwt>
</event>
<event>
 5    0  0.5719562E-003  0.5211507E+03  0.7546771E-02  0.1008401E+00
          2   -1    0    0  502    0  0.00000000000E+00  0.00000000000E+00  0.20010278589E+03  0.20010278589E+03  0.00000000000E+00 0. -1.
         -2   -1    0    0    0  501 -0.00000000000E+00 -0.00000000000E+00 -0.33932313035E+03  0.33932313035E+03  0.00000000000E+00 0.  1.
         25    1    1    2    0    0 -0.18032505700E+03 -0.12705029834E+03 -0.52736702282E+02  0.25896923419E+03  0.12500000000E+03 0.  0.
          3    1    1    2  502    0  0.24487501410E+02 -0.13688204848E+02  0.29385827245E+02  0.40626734057E+02  0.00000000000E+00 0. -1.
         -3    1    1    2    0  501  0.15583755559E+03  0.14073850318E+03 -0.11586946942E+03  0.23982994799E+03  0.00000000000E+00 0.  1.
<mgrwt>
<rscale>  4 0.52115066E+03</rscale>
<asrwt>0</asrwt>
<pdfrwt beam="1">  1        2 0.30785044E-01 0.52115066E+03</pdfrwt>
<pdfrwt beam="2">  1       -2 0.52203558E-01 0.52115066E+03</pdfrwt>
<totfact> 0.60285308E+02</totfact>
</mgrwt>
</event>
<event>
 5    0  0.5719562E-003  0.5953081E+03  0.7546771E-02  0.9915188E-01
         -1   -1    0    0    0  501 -0.00000000000E+00  0.00000000000E+00  0.22046772775E+02  0.22046772775E+02  0.00000000000E+00 0.  1.
          1   -1    0    0  502    0  0.00000000000E+00 -0.00000000000E+00 -0.40186355724E+04  0.40186355724E+04  0.00000000000E+00 0. -1.
         25    1    1    2    0    0  0.26917416799E+03  0.72629569664E+02 -0.20305139024E+04  0.20533731991E+04  0.12500000000E+03 0.  0.
          4    1    1    2  502    0 -0.24798012501E+03 -0.87650003892E+02 -0.17442621950E+04  0.17639805188E+04  0.00000000000E+00 0.  1.
         -4    1    1    2    0  501 -0.21194042980E+02  0.15020434227E+02 -0.22181270218E+03  0.22332862725E+03  0.00000000000E+00 0. -1.
<mgrwt>
<rscale>  4 0.59530814E+03</rscale>
<asrwt>0</asrwt>
<pdfrwt beam="1">  1        1 0.61825224E+00 0.59530814E+03</pdfrwt>
<pdfrwt beam="2">  1       -1 0.33918078E-02 0.59530814E+03</pdfrwt>
<totfact> 0.34906253E+01</totfact>
</mgrwt>
</event>
<event>
 5    0  0.5719562E-003  0.8433289E+03  0.7546771E-02  0.9499335E-01
         -1   -1    0    0    0  501 -0.00000000000E+00  0.00000000000E+00  0.37014319619E+03  0.37014319619E+03  0.00000000000E+00 0. -1.
          1   -1    0    0  502    0  0.00000000000E+00 -0.00000000000E+00 -0.48035705616E+03  0.48035705616E+03  0.00000000000E+00 0.  1.
         25    1    1    2    0    0  0.14164993198E+03  0.28366585303E+03  0.79524393623E+02  0.34997163968E+03  0.12500000000E+03 0.  0.
          3    1    1    2  502    0 -0.18912353812E+03 -0.31257089316E+03 -0.74878575227E+02  0.37292771009E+03  0.00000000000E+00 0.  1.
         -3    1    1    2    0  501  0.47473606146E+02  0.28905040132E+02 -0.11485967836E+03  0.12760090258E+03  0.00000000000E+00 0. -1.
<mgrwt>
<rscale>  4 0.84332887E+03</rscale>
<asrwt>0</asrwt>
<pdfrwt beam="1">  1        1 0.73901085E-01 0.84332887E+03</pdfrwt>
<pdfrwt beam="2">  1       -1 0.56945107E-01 0.84332887E+03</pdfrwt>
<totfact> 0.14775767E+02</totfact>
</mgrwt>
</event>
<event>
 5    0  0.5719562E-003  0.8491811E+03  0.7546771E-02  0.9491437E-01
          2   -1    0    0  502    0  0.00000000000E+00  0.00000000000E+00  0.71339610253E+03  0.71339610253E+03  0.00000000000E+00 0. -1.
         -2   -1    0    0    0  501 -0.00000000000E+00 -0.00000000000E+00 -0.25270271495E+03  0.25270271495E+03  0.00000000000E+00 0.  1.
         25    1    1    2    0    0 -0.27626261735E+03  0.20037872628E+03  0.15532274353E+02  0.36378416573E+03  0.12500000000E+03 0.  0.
          1    1    1    2  502    0  0.23889434859E+03 -0.70418019992E+02  0.18899536996E+03  0.31264749671E+03  0.00000000000E+00 0. -1.
         -1    1    1    2    0  501  0.37368268757E+02 -0.12996070629E+03  0.25616574326E+03  0.28966715504E+03  0.00000000000E+00 0.  1.
<mgrwt>
<rscale>  4 0.84918109E+03</rscale>
<asrwt>0</asrwt>
<pdfrwt beam="1">  1        2 0.10975325E+00 0.84918109E+03</pdfrwt>
<pdfrwt beam="2">  1       -2 0.38877341E-01 0.84918109E+03</pdfrwt>
<totfact> 0.25112680E+02</totfact>
</mgrwt>
</event>
<event>
 5    0  0.5719562E-003  0.6907543E+03  0.7546771E-02  0.9733175E-01
          1   -1    0    0  502    0  0.00000000000E+00  0.00000000000E+00  0.52233095390E+03  0.52233095390E+03  0.00000000000E+00 0. -1.
         -1   -1    0    0    0  501 -0.00000000000E+00 -0.00000000000E+00 -0.22837128412E+03  0.22837128412E+03  0.00000000000E+00 0.  1.
         25    1    1    2    0    0  0.32517951213E+03 -0.36976005373E+02  0.16043830688E+03  0.38532374751E+03  0.12500000000E+03 0.  0.
          4    1    1    2  502    0 -0.24275349368E+03  0.54755394189E+02  0.13052001519E+03  0.28100335630E+03  0.00000000000E+00 0. -1.
         -4    1    1    2    0  501 -0.82426018448E+02 -0.17779388816E+02  0.30013476996E+01  0.84375134203E+02  0.00000000000E+00 0.  1.
<mgrwt>
<rscale>  4 0.69075434E+03</rscale>
<asrwt>0</asrwt>
<pdfrwt beam="1">  1        1 0.80358608E-01 0.69075434E+03</pdfrwt>
<pdfrwt beam="2">  1       -1 0.35134044E-01 0.69075434E+03</pdfrwt>
<totfact> 0.32533293E+02</totfact>
</mgrwt>
</event>
<event>
 5    0  0.5719562E-003  0.6649250E+03  0.7546771E-02  0.9779170E-01
          2   -1    0    0  502    0  0.00000000000E+00  0.00000000000E+00  0.77589627362E+03  0.77589627362E+03  0.00000000000E+00 0.  1.
         -2   -1    0    0    0  501 -0.00000000000E+00 -0.00000000000E+00 -0.14245632023E+03  0.14245632023E+03  0.00000000000E+00 0. -1.
         25    1    1    2    0    0  0.16194273065E+03 -0.14009572318E+03  0.65522535536E+03  0.70056942980E+03  0.12500000000E+03 0.  0.
          2    1    1    2  502    0 -0.29576224716E+02  0.13338725230E+02 -0.10753238773E+02  0.34180503263E+02  0.00000000000E+00 0.  1.
         -2    1    1    2    0  501 -0.13236650594E+03  0.12675699795E+03 -0.11032163196E+02  0.18360266079E+03  0.00000000000E+00 0. -1.
<mgrwt>
<rscale>  4 0.66492504E+03</rscale>
<asrwt>0</asrwt>
<pdfrwt beam="1">  1        2 0.11936866E+00 0.66492504E+03</pdfrwt>
<pdfrwt beam="2">  1       -2 0.21916357E-01 0.66492504E+03</pdfrwt>
<totfact> 0.65503102E+02</totfact>
</mgrwt>
</event>
<event>
 5    0  0.5719562E-003  0.6936733E+03  0.7546771E-02  0.9728113E-01
         -2   -1    0    0    0  501 -0.00000000000E+00  0.00000000000E+00  0.85662149893E+03  0.85662149893E+03  0.00000000000E+00 0. -1.
          2   -1    0    0  502    0  0.00000000000E+00 -0.00000000000E+00 -0.14043037152E+03  0.14043037152E+03  0.00000000000E+00 0.  1.
         25    1    1    2    0    0  0.24338308763E+03 -0.80070622952E+02  0.57189136944E+03  0.63900811453E+03  0.12500000000E+03 0.  0.
          3    1    1    2  502    0 -0.12806008659E+03  0.72905832248E+02 -0.28581068015E+02  0.15010504189E+03  0.00000000000E+00 0.  1.
         -3    1    1    2    0  501 -0.11532300104E+03  0.71647907033E+01  0.17288082598E+03  0.20793871402E+03  0.00000000000E+00 0. -1.
<mgrwt>
<rscale>  4 0.69367334E+03</rscale>
<asrwt>0</asrwt>
<pdfrwt beam="1">  1        2 0.21604673E-01 0.69367334E+03</pdfrwt>
<pdfrwt beam="2">  1       -2 0.13178792E+00 0.69367334E+03</pdfrwt>
<totfact> 0.11018187E+02</totfact>
</mgrwt>
</event>
<event>
 5    0  0.5719562E-003  0.1240071E+04  0.7546771E-02  0.9078488E-01
         -2   -1    0    0    0  501 -0.00000000000E+00  0.00000000000E+00  0.49341546663E+03  0.49341546663E+03  0.00000000000E+00 0. -1.
          2   -1    0    0  502    0  0.00000000000E+00 -0.00000000000E+00 -0.77914907679E+03  0.77914907679E+03  0.00000000000E+00 0.  1.
         25    1    1    2    0    0  0.24571961786E+03 -0.46783866176E+03 -0.23434675416E+03  0.59143431184E+03  0.12500000000E+03 0.  0.
          3    1    1    2  502    0 -0.27715363165E+03  0.45740308402E+03  0.84332894056E+02  0.54142751484E+03  0.00000000000E+00 0. -1.
         -3    1    1    2    0  501  0.31434013790E+02  0.10435577734E+02 -0.13571975006E+03  0.13970271673E+03  0.00000000000E+00 0.  1.
<mgrwt>
<rscale>  4 0.12400713E+04</rscale>
<asrwt>0</asrwt>
<pdfrwt beam="1">  1        2 0.11986909E+00 0.12400713E+04</pdfrwt>
<pdfrwt beam="2">  1       -2 0.75910072E-01 0.12400713E+04</pdfrwt>
<totfact> 0.54604083E+01</totfact>
</mgrwt>
</event>
<event>
 5    0  0.5719562E-003  0.4841579E+03  0.7546771E-02  0.1017999E+00
         -2   -1    0    0    0  501 -0.00000000000E+00  0.00000000000E+00  0.40930349012E+02  0.40930349012E+02  0.00000000000E+00 0. -1.
          2   -1    0    0  502    0  0.00000000000E+00 -0.00000000000E+00 -0.14317544400E+04  0.14317544400E+04  0.00000000000E+00 0.  1.
         25    1    1    2    0    0 -0.41326255476E+02 -0.20691225009E+03 -0.96200832325E+03  0.99277668820E+03  0.12500000000E+03 0.  0.
          2    1    1    2  502    0  0.32719188499E+02  0.96931229401E+02 -0.24542284813E+03  0.26589205124E+03  0.00000000000E+00 0.  1.
         -2    1    1    2    0  501  0.86070669764E+01  0.10998102069E+03 -0.18339291963E+03  0.21401604959E+03  0.00000000000E+00 0. -1.
<mgrwt>
<rscale>  4 0.48415786E+03</rscale>
<asrwt>0</asrwt>
<pdfrwt beam="1">  1        2 0.22026987E+00 0.48415786E+03</pdfrwt>
<pdfrwt beam="2">  1       -2 0.62969779E-02 0.48415786E+03</pdfrwt>
<totfact> 0.20310429E+03</totfact>
</mgrwt>
</event>
<event>
 5    0  0.5719562E-003  0.6318913E+03  0.7546771E-02  0.9841365E-01
          1   -1    0    0  502    0  0.00000000000E+00  0.00000000000E+00  0.61638554696E+03  0.61638554696E+03  0.00000000000E+00 0.  1.
         -1   -1    0    0    0  501 -0.00000000000E+00 -0.00000000000E+00 -0.16194676154E+03  0.16194676154E+03  0.00000000000E+00 0. -1.
         25    1    1    2    0    0 -0.10979725996E+03  0.19216980587E+03  0.15859503515E+03  0.29960316713E+03  0.12500000000E+03 0.  0.
          4    1    1    2  502    0 -0.18309852376E+02 -0.14468762015E+03 -0.75038325480E+01  0.14603446724E+03  0.00000000000E+00 0. -1.
         -4    1    1    2    0  501  0.12810711233E+03 -0.47482185720E+02  0.30334758282E+03  0.33269467413E+03  0.00000000000E+00 0.  1.
<mgrwt>
<rscale>  4 0.63189127E+03</rscale>
<asrwt>0</asrwt>
<pdfrwt beam="1">  1        1 0.94828545E-01 0.63189127E+03</pdfrwt>
<pdfrwt beam="2">  1       -1 0.24914887E-01 0.63189127E+03</pdfrwt>
<totfact> 0.46888459E+02</totfact>
</mgrwt>
</event>
<event>
 5    0  0.5719562E-003  0.7768873E+03  0.7546771E-02  0.9594088E-01
          2   -1    0    0  502    0  0.00000000000E+00  0.00000000000E+00  0.32092974732E+03  0.32092974732E+03  0.00000000000E+00 0. -1.
         -2   -1    0    0    0  501 -0.00000000000E+00 -0.00000000000E+00 -0.47016045693E+03  0.47016045693E+03  0.00000000000E+00 0.  1.
         25    1    1    2    0    0 -0.99036924113E+01 -0.31339658109E+03 -0.49283510314E+02  0.34112954218E+03  0.12500000000E+03 0.  0.
          3    1    1    2  502    0 -0.21688853148E+02  0.33507731765E+03  0.75245379211E+01  0.33586281995E+03  0.00000000000E+00 0. -1.
         -3    1    1    2    0  501  0.31592545559E+02 -0.21680736561E+02 -0.10747173722E+03  0.11409784211E+03  0.00000000000E+00 0.  1.
<mgrwt>
<rscale>  4 0.77688732E+03</rscale>
<asrwt>0</asrwt>
<pdfrwt beam="1">  1        2 0.49373808E-01 0.77688732E+03</pdfrwt>
<pdfrwt beam="2">  1       -2 0.72332377E-01 0.77688732E+03</pdfrwt>
<totfact> 0.17762530E+02</totfact>
</mgrwt>
</event>
<event>
 5    0  0.5719562E-003  0.7427100E+03  0.7546771E-02  0.9646857E-01
          1   -1    0    0  502    0  0.00000000000E+00  0.00000000000E+00  0.63591369500E+02  0.63591369500E+02  0.00000000000E+00 0.  1.
         -1   -1    0    0    0  501 -0.00000000000E+00 -0.00000000000E+00 -0.21686043480E+04  0.21686043480E+04  0.00000000000E+00 0. -1.
         25    1    1    2    0    0 -0.19832665793E+03 -0.62456539246E+02 -0.21021593936E+03  0.32101405530E+03  0.12500000000E+03 0.  0.
          2    1    1    2  502    0 -0.13023400725E+02  0.30453408205E+02 -0.17067630515E+03  0.17386034676E+03  0.00000000000E+00 0. -1.
         -2    1    1    2    0  501  0.21135005865E+03  0.32003131041E+02 -0.17241207340E+04  0.17373213154E+04  0.00000000000E+00 0.  1.
<mgrwt>
<rscale>  4 0.74270996E+03</rscale>
<asrwt>0</asrwt>
<pdfrwt beam="1">  1        1 0.97832866E-02 0.74270996E+03</pdfrwt>
<pdfrwt beam="2">  1       -1 0.33363147E+00 0.74270996E+03</pdfrwt>
<totfact> 0.14476527E+01</totfact>
</mgrwt>
</event>
<event>
 5    0  0.5719562E-003  0.8451662E+03  0.7546771E-02  0.9496848E-01
         -3   -1    0    0    0  501 -0.00000000000E+00  0.00000000000E+00  0.22239580844E+03  0.22239580844E+03  0.00000000000E+00 0.  1.
          3   -1    0    0  502    0  0.00000000000E+00 -0.00000000000E+00 -0.80296690292E+03  0.80296690292E+03  0.00000000000E+00 0. -1.
         25    1    1    2    0    0  0.19665304096E+03  0.26069948307E+03 -0.29100000588E+02  0.35086813623E+03  0.12500000000E+03 0.  0.
          2    1    1    2  502    0  0.31965139728E+02  0.97897001954E+01 -0.36525321697E+02  0.49514720163E+02  0.00000000000E+00 0.  1.
         -2    1    1    2    0  501 -0.22861818069E+03 -0.27048918326E+03 -0.51494577220E+03  0.62497985496E+03  0.00000000000E+00 0. -1.
<mgrwt>
<rscale>  4 0.84516619E+03</rscale>
<asrwt>0</asrwt>
<pdfrwt beam="1">  1        3 0.12353337E+00 0.84516619E+03</pdfrwt>
<pdfrwt beam="2">  1       -3 0.34214740E-01 0.84516619E+03</pdfrwt>
<totfact> 0.11717347E+01</totfact>
</mgrwt>
</event>
<event>
 5    0  0.5719562E-003  0.5419436E+03  0.7546771E-02  0.1003376E+00
          1   -1    0    0  502    0  0.00000000000E+00  0.00000000000E+00  0.71564732683E+02  0.71564732683E+02  0.00000000000E+00 0. -1.
         -1   -1    0    0    0  501 -0.00000000000E+00 -0.00000000000E+00 -0.10260041216E+04  0.10260041216E+04  0.00000000000E+00 0.  1.
         25    1    1    2    0    0  0.11197560062E+03  0.18923477474E+03 -0.38171407592E+03  0.45790716402E+03  0.12500000000E+03 0.  0.
          4    1    1    2  502    0 -0.40613614378E+02 -0.74330366332E+02 -0.47110659848E+02  0.96922047560E+02  0.00000000000E+00 0. -1.
         -4    1    1    2    0  501 -0.71361986244E+02 -0.11490440841E+03 -0.52561465312E+03  0.54273964267E+03  0.00000000000E+00 0.  1.
<mgrwt>
<rscale>  4 0.54194358E+03</rscale>
<asrwt>0</asrwt>
<pdfrwt beam="1">  1        1 0.11009959E-01 0.54194358E+03</pdfrwt>
<pdfrwt beam="2">  1       -1 0.15784679E+00 0.54194358E+03</pdfrwt>
<totfact> 0.18311442E+02</totfact>
</mgrwt>
</event>
<event>
 5    0  0.5719562E-003  0.4724162E+03  0.7546771E-02  0.1021240E+00
         -2   -1    0    0    0  501 -0.00000000000E+00  0.00000000000E+00  0.40124884689E+02  0.40124884689E+02  0.00000000000E+00 0.  1.
          2   -1    0    0  502    0  0.00000000000E+00 -0.00000000000E+00 -0.13905152654E+04  0.13905152654E+04  0.00000000000E+00 0. -1.
         25    1    1    2    0    0 -0.17472639801E+03  0.10315314286E+03 -0.59360838726E+03  0.63966069324E+03  0.12500000000E+03 0.  0.
          1    1    1    2  502    0 -0.53450035498E+01 -0.27803332308E+02 -0.17622305360E+03  0.17848293747E+03  0.00000000000E+00 0. -1.
         -1    1    1    2    0  501  0.18007140156E+03 -0.75349810551E+02 -0.58055893984E+03  0.61249651936E+03  0.00000000000E+00 0.  1.
<mgrwt>
<rscale>  4 0.47241619E+03</rscale>
<asrwt>0</asrwt>
<pdfrwt beam="1">  1        2 0.21392542E+00 0.47241619E+03</pdfrwt>
<pdfrwt beam="2">  1       -2 0.61730594E-02 0.47241619E+03</pdfrwt>
<totfact> 0.22090718E+03</totfact>
</mgrwt>
</event>
<event>
 5    0  0.5719562E-003  0.6057150E+03  0.7546771E-02  0.9893620E-01
          2   -1    0    0  502    0  0.00000000000E+00  0.00000000000E+00  0.23252881140E+04  0.23252881140E+04  0.00000000000E+00 0. -1.
         -2   -1    0    0    0  501 -0.00000000000E+00 -0.00000000000E+00 -0.39445717474E+02  0.39445717474E+02  0.00000000000E+00 0.  1.
         25    1    1    2    0    0  0.22005655158E+03  0.14178790436E+03  0.16217240910E+04  0.16474655454E+04  0.12500000000E+03 0.  0.
          2    1    1    2  502    0 -0.10138601463E+03 -0.25950745213E+02  0.27786988256E+03  0.29692463147E+03  0.00000000000E+00 0.  1.
         -2    1    1    2    0  501 -0.11867053695E+03 -0.11583715915E+03  0.38624842293E+03  0.42034365464E+03  0.00000000000E+00 0. -1.
<mgrwt>
<rscale>  4 0.60571498E+03</rscale>
<asrwt>0</asrwt>
<pdfrwt beam="1">  1        2 0.35773652E+00 0.60571498E+03</pdfrwt>
<pdfrwt beam="2">  1       -2 0.60685738E-02 0.60571498E+03</pdfrwt>
<totfact> 0.69841829E+02</totfact>
</mgrwt>
</event>
<event>
 5    0  0.5719562E-003  0.4787707E+03  0.7546771E-02  0.1019474E+00
         -2   -1    0    0    0  501 -0.00000000000E+00  0.00000000000E+00  0.32837542089E+02  0.32837542089E+02  0.00000000000E+00 0.  1.
          2   -1    0    0  502    0  0.00000000000E+00 -0.00000000000E+00 -0.17451167753E+04  0.17451167753E+04  0.00000000000E+00 0. -1.
         25    1    1    2    0    0  0.16466230387E+03  0.14650589299E+03 -0.85023407330E+03  0.88718691965E+03  0.12500000000E+03 0.  0.
          4    1    1    2  502    0 -0.14921908157E+02 -0.24630178980E+02 -0.16422967701E+03  0.16673540677E+03  0.00000000000E+00 0. -1.
         -4    1    1    2    0  501 -0.14974039571E+03 -0.12187571401E+03 -0.69781548288E+03  0.72403199095E+03  0.00000000000E+00 0.  1.
<mgrwt>
<rscale>  4 0.47877070E+03</rscale>
<asrwt>0</asrwt>
<pdfrwt beam="1">  1        2 0.26847950E+00 0.47877070E+03</pdfrwt>
<pdfrwt beam="2">  1       -2 0.50519296E-02 0.47877070E+03</pdfrwt>
<totfact> 0.19320692E+03</totfact>
</mgrwt>
</event>
<event>
 5    0  0.5719562E-003  0.5760399E+03  0.7546771E-02  0.9956402E-01
          1   -1    0    0  502    0  0.00000000000E+00  0.00000000000E+00  0.20004670159E+04  0.20004670159E+04  0.00000000000E+00 0.  1.
         -1   -1    0    0    0  501 -0.00000000000E+00 -0.00000000000E+00 -0.41468056153E+02  0.41468056153E+02  0.00000000000E+00 0. -1.
         25    1    1    2    0    0  0.20286554263E+03 -0.12327051577E+03  0.10476343908E+04  0.10814401811E+04  0.12500000000E+03 0.  0.
          3    1    1    2  502    0 -0.12214719610E+03  0.73471764341E+02  0.21665081411E+03  0.25933687151E+03  0.00000000000E+00 0. -1.
         -3    1    1    2    0  501 -0.80718346535E+02  0.49798751427E+02  0.69471375483E+03  0.70115801946E+03  0.00000000000E+00 0.  1.
<mgrwt>
<rscale>  4 0.57603985E+03</rscale>
<asrwt>0</asrwt>
<pdfrwt beam="1">  1        1 0.30776408E+00 0.57603985E+03</pdfrwt>
<pdfrwt beam="2">  1       -1 0.63797025E-02 0.57603985E+03</pdfrwt>
<totfact> 0.39617104E+02</totfact>
</mgrwt>
</event>
<event>
 5    0  0.5719562E-003  0.6335098E+03  0.7546771E-02  0.9838224E-01
         -2   -1    0    0    0  501 -0.00000000000E+00  0.00000000000E+00  0.36492657459E+03  0.36492657459E+03  0.00000000000E+00 0.  1.
          2   -1    0    0  502    0  0.00000000000E+00 -0.00000000000E+00 -0.27494203194E+03  0.27494203194E+03  0.00000000000E+00 0. -1.
         25    1    1    2    0    0  0.25648469574E+03 -0.59622609220E+02  0.19137427842E+03  0.34869523817E+03  0.12500000000E+03 0.  0.
          4    1    1    2  502    0 -0.14681203053E+03  0.46035752580E+02 -0.94247255604E+02  0.18043172674E+03  0.00000000000E+00 0. -1.
         -4    1    1    2    0  501 -0.10967266521E+03  0.13586856640E+02 -0.71424801646E+01  0.11074164163E+03  0.00000000000E+00 0.  1.
<mgrwt>
<rscale>  4 0.63350976E+03</rscale>
<asrwt>0</asrwt>
<pdfrwt beam="1">  1        2 0.42298774E-01 0.63350976E+03</pdfrwt>
<pdfrwt beam="2">  1       -2 0.56142550E-01 0.63350976E+03</pdfrwt>
<totfact> 0.36393141E+02</totfact>
</mgrwt>
</event>
<event>
 5    0  0.5719562E-003  0.7031315E+03  0.7546771E-02  0.9711892E-01
         -1   -1    0    0    0  501 -0.00000000000E+00  0.00000000000E+00  0.40946661119E+02  0.40946661119E+02  0.00000000000E+00 0. -1.
          1   -1    0    0  502    0  0.00000000000E+00 -0.00000000000E+00 -0.30185240843E+04  0.30185240843E+04  0.00000000000E+00 0.  1.
         25    1    1    2    0    0  0.14067454443E+03  0.15105211377E+03 -0.79789759856E+03  0.83358961504E+03  0.12500000000E+03 0.  0.
          4    1    1    2  502    0 -0.23741583481E+03  0.13057919215E+01 -0.80120079910E+03  0.83563790256E+03  0.00000000000E+00 0. -1.
         -4    1    1    2    0  501  0.96741290379E+02 -0.15235790569E+03 -0.13784790255E+04  0.13902432278E+04  0.00000000000E+00 0.  1.
<mgrwt>
<rscale>  4 0.70313152E+03</rscale>
<asrwt>0</asrwt>
<pdfrwt beam="1">  1        1 0.46438834E+00 0.70313152E+03</pdfrwt>
<pdfrwt beam="2">  1       -1 0.62994861E-02 0.70313152E+03</pdfrwt>
<totfact> 0.80215544E+01</totfact>
</mgrwt>
</event>
<event>
 5    0  0.5719562E-003  0.8460833E+03  0.7546771E-02  0.9495609E-01
          2   -1    0    0  502    0  0.00000000000E+00  0.00000000000E+00  0.11260125232E+04  0.11260125232E+04  0.00000000000E+00 0. -1.
         -2   -1    0    0    0  501 -0.00000000000E+00 -0.00000000000E+00 -0.15893627944E+03  0.15893627944E+03  0.00000000000E+00 0.  1.
         25    1    1    2    0    0 -0.88736034503E+02 -0.38855995688E+03  0.65048090298E+03  0.77304807681E+03  0.12500000000E+03 0.  0.
          3    1    1    2  502    0 -0.38495793486E+01  0.42967065180E+02  0.21901000933E+02  0.48380179756E+02  0.00000000000E+00 0.  1.
         -3    1    1    2    0  501  0.92585613851E+02  0.34559289170E+03  0.29469433984E+03  0.46352054606E+03  0.00000000000E+00 0. -1.
<mgrwt>
<rscale>  4 0.84608331E+03</rscale>
<asrwt>0</asrwt>
<pdfrwt beam="1">  1        2 0.17323269E+00 0.84608331E+03</pdfrwt>
<pdfrwt beam="2">  1       -2 0.24451736E-01 0.84608331E+03</pdfrwt>
<totfact> 0.31445907E+02</totfact>
</mgrwt>
</event>
<event>
 5    0  0.5719562E-003  0.6642660E+03  0.7546771E-02  0.9780372E-01
          2   -1    0    0  502    0  0.00000000000E+00  0.00000000000E+00  0.15546932833E+04  0.15546932833E+04  0.00000000000E+00 0.  1.
         -2   -1    0    0    0  501 -0.00000000000E+00 -0.00000000000E+00 -0.70954410751E+02  0.70954410751E+02  0.00000000000E+00 0. -1.
         25    1    1    2    0    0 -0.19823304969E+03 -0.47025795450E+02  0.24773362944E+03  0.34424514315E+03  0.12500000000E+03 0.  0.
          1    1    1    2  502    0  0.26494779042E+03  0.24813960858E+02  0.92287281378E+03  0.96047243309E+03  0.00000000000E+00 0.  1.
         -1    1    1    2    0  501 -0.66714740728E+02  0.22211834593E+02  0.31313242934E+03  0.32093011783E+03  0.00000000000E+00 0. -1.
<mgrwt>
<rscale>  4 0.66426605E+03</rscale>
<asrwt>0</asrwt>
<pdfrwt beam="1">  1        2 0.23918356E+00 0.66426605E+03</pdfrwt>
<pdfrwt beam="2">  1       -2 0.10916064E-01 0.66426605E+03</pdfrwt>
<totfact> 0.71580661E+02</totfact>
</mgrwt>
</event>
<event>
 5    0  0.5719562E-003  0.6353656E+03  0.7546771E-02  0.9834634E-01
         -1   -1    0    0    0  501 -0.00000000000E+00  0.00000000000E+00  0.63947122924E+02  0.63947122924E+02  0.00000000000E+00 0. -1.
          1   -1    0    0  502    0  0.00000000000E+00 -0.00000000000E+00 -0.15782156842E+04  0.15782156842E+04  0.00000000000E+00 0.  1.
         25    1    1    2    0    0 -0.19153827771E+03  0.16796108135E+03 -0.12060101715E+04  0.12389444582E+04  0.12500000000E+03 0.  0.
          2    1    1    2  502    0  0.13180550781E+03 -0.10193697983E+03 -0.23410448919E+03  0.28734778859E+03  0.00000000000E+00 0. -1.
         -2    1    1    2    0  501  0.59732769902E+02 -0.66024101519E+02 -0.74153900521E+02  0.11587056030E+03  0.00000000000E+00 0.  1.
<mgrwt>
<rscale>  4 0.63536557E+03</rscale>
<asrwt>0</asrwt>
<pdfrwt beam="1">  1        1 0.24280243E+00 0.63536557E+03</pdfrwt>
<pdfrwt beam="2">  1       -1 0.98380182E-02 0.63536557E+03</pdfrwt>
<totfact> 0.38409321E+02</totfact>
</mgrwt>
</event>
<event>
 5    0  0.5719562E-003  0.5194823E+03  0.7546771E-02  0.1008815E+00
          2   -1    0    0  502    0  0.00000000000E+00  0.00000000000E+00  0.48861027530E+03  0.48861027530E+03  0.00000000000E+00 0.  1.
         -2   -1    0    0    0  501 -0.00000000000E+00 -0.00000000000E+00 -0.13807621494E+03  0.13807621494E+03  0.00000000000E+00 0. -1.
         25    1    1    2    0    0 -0.18834448273E+03 -0.11532234981E+03  0.14425222454E+03  0.29190168349E+03  0.12500000000E+03 0.  0.
          1    1    1    2  502    0  0.14210974905E+03  0.14139445560E+03  0.12046431778E+03  0.23387865380E+03  0.00000000000E+00 0. -1.
         -1    1    1    2    0  501  0.46234733681E+02 -0.26072105784E+02  0.85817518050E+02  0.10090615295E+03  0.00000000000E+00 0.  1.
<mgrwt>
<rscale>  4 0.51948227E+03</rscale>
<asrwt>0</asrwt>
<pdfrwt beam="1">  1        2 0.75170811E-01 0.51948227E+03</pdfrwt>
<pdfrwt beam="2">  1       -2 0.21242495E-01 0.51948227E+03</pdfrwt>
<totfact> 0.12147811E+03</totfact>
</mgrwt>
</event>
<event>
 5    0  0.5719562E-003  0.7773797E+03  0.7546771E-02  0.9593349E-01
         -1   -1    0    0    0  501 -0.00000000000E+00  0.00000000000E+00  0.25193256846E+03  0.25193256846E+03  0.00000000000E+00 0. -1.
          1   -1    0    0  502    0  0.00000000000E+00 -0.00000000000E+00 -0.59968345939E+03  0.59968345939E+03  0.00000000000E+00 0.  1.
         25    1    1    2    0    0  0.17113100109E+03 -0.19467673457E+03  0.11807088873E+03  0.31104756113E+03  0.12500000000E+03 0.  0.
          4    1    1    2  502    0 -0.55177959133E+02  0.14715198607E+02 -0.13423629284E+03  0.14587846503E+03  0.00000000000E+00 0. -1.
         -4    1    1    2    0  501 -0.11595304196E+03  0.17996153596E+03 -0.33158548682E+03  0.39469000169E+03  0.00000000000E+00 0.  1.
<mgrwt>
<rscale>  4 0.77737969E+03</rscale>
<asrwt>0</asrwt>
<pdfrwt beam="1">  1        1 0.92258992E-01 0.77737969E+03</pdfrwt>
<pdfrwt beam="2">  1       -1 0.38758857E-01 0.77737969E+03</pdfrwt>
<totfact> 0.22360769E+02</totfact>
</mgrwt>
</event>
<event>
 5    0  0.6635680E-003  0.6387916E+03  0.7546771E-02  0.9828041E-01
         -1   -1    0    0    0  501 -0.00000000000E+00  0.00000000000E+00  0.56382109249E+03  0.56382109249E+03  0.00000000000E+00 0.  1.
          1   -1    0    0  502    0  0.00000000000E+00 -0.00000000000E+00 -0.18093272483E+03  0.18093272483E+03  0.00000000000E+00 0. -1.
         25    1    1    2    0    0 -0.19733225485E+03  0.47475198339E+02  0.20042587675E+03  0.31143128509E+03  0.12500000000E+03 0.  0.
          1    1    1    2  502    0  0.99700855143E+02 -0.42645940299E+02  0.27691759192E+03  0.29739248386E+03  0.00000000000E+00 0.  1.
         -1    1    1    2    0  501  0.97631399707E+02 -0.48292580400E+01 -0.94455101013E+02  0.13593004837E+03  0.00000000000E+00 0. -1.
<mgrwt>
<rscale>  4 0.63879163E+03</rscale>
<asrwt>0</asrwt>
<pdfrwt beam="1">  1        1 0.27835804E-01 0.63879163E+03</pdfrwt>
<pdfrwt beam="2">  1       -1 0.86741706E-01 0.63879163E+03</pdfrwt>
<totfact> 0.22571673E+02</totfact>
</mgrwt>
</event>
<event>
 5    0  0.5719562E-003  0.1096563E+04  0.7546771E-02  0.9208548E-01
          2   -1    0    0  502    0  0.00000000000E+00  0.00000000000E+00  0.13524457076E+04  0.13524457076E+04  0.00000000000E+00 0.  1.
         -2   -1    0    0    0  501 -0.00000000000E+00 -0.00000000000E+00 -0.22227333198E+03  0.22227333198E+03  0.00000000000E+00 0. -1.
         25    1    1    2    0    0  0.26595554870E+02 -0.25882719858E+03  0.12409568340E+04  0.12740870088E+04  0.12500000000E+03 0.  0.
          2    1    1    2  502    0  0.64017942186E+01  0.20214699267E+03 -0.43901819834E+02  0.20695835185E+03  0.00000000000E+00 0.  1.
         -2    1    1    2    0  501 -0.32997349088E+02  0.56680205904E+02 -0.66882638511E+02  0.93673678919E+02  0.00000000000E+00 0. -1.
<mgrwt>
<rscale>  4 0.10965630E+04</rscale>
<asrwt>0</asrwt>
<pdfrwt beam="1">  1        2 0.20806857E+00 0.10965630E+04</pdfrwt>
<pdfrwt beam="2">  1       -2 0.34195898E-01 0.10965630E+04</pdfrwt>
<totfact> 0.12245686E+02</totfact>
</mgrwt>
</event>
<event>
 5    0  0.5719562E-003  0.9395097E+03  0.7546771E-02  0.9377497E-01
         -3   -1    0    0    0  501 -0.00000000000E+00  0.00000000000E+00  0.39244157615E+03  0.39244157615E+03  0.00000000000E+00 0. -1.
          3   -1    0    0  502    0  0.00000000000E+00 -0.00000000000E+00 -0.56229931776E+03  0.56229931776E+03  0.00000000000E+00 0.  1.
         25    1    1    2    0    0 -0.31236774760E+03  0.14250138415E+03 -0.27719608465E+03  0.45863157716E+03  0.12500000000E+03 0.  0.
          3    1    1    2  502    0  0.96102765698E+02 -0.11999354335E+03 -0.10972409229E+03  0.18887447802E+03  0.00000000000E+00 0.  1.
         -3    1    1    2    0  501  0.21626498190E+03 -0.22507840806E+02  0.21706243534E+03  0.30723483873E+03  0.00000000000E+00 0. -1.
<mgrwt>
<rscale>  4 0.93950972E+03</rscale>
<asrwt>0</asrwt>
<pdfrwt beam="1">  1        3 0.86507587E-01 0.93950972E+03</pdfrwt>
<pdfrwt beam="2">  1       -3 0.60375627E-01 0.93950972E+03</pdfrwt>
<totfact> 0.85826948E+00</totfact>
</mgrwt>
</event>
<event>
 5    0  0.5719562E-003  0.6263697E+03  0.7546771E-02  0.9852159E-01
         -1   -1    0    0    0  501 -0.00000000000E+00  0.00000000000E+00  0.10521310292E+03  0.10521310292E+03  0.00000000000E+00 0.  1.
          1   -1    0    0  502    0  0.00000000000E+00 -0.00000000000E+00 -0.93224840862E+03  0.93224840862E+03  0.00000000000E+00 0. -1.
         25    1    1    2    0    0  0.94090679149E+02  0.22031952061E+03 -0.28671972274E+03  0.39398851059E+03  0.12500000000E+03 0.  0.
          4    1    1    2  502    0 -0.12651767303E+03 -0.25739173119E+03 -0.51147004788E+03  0.58639477722E+03  0.00000000000E+00 0. -1.
         -4    1    1    2    0  501  0.32426993878E+02  0.37072210587E+02 -0.28845535082E+02  0.57078223728E+02  0.00000000000E+00 0.  1.
<mgrwt>
<rscale>  4 0.62636969E+03</rscale>
<asrwt>0</asrwt>
<pdfrwt beam="1">  1        1 0.14342284E+00 0.62636969E+03</pdfrwt>
<pdfrwt beam="2">  1       -1 0.16186631E-01 0.62636969E+03</pdfrwt>
<totfact> 0.50395898E+02</totfact>
</mgrwt>
</event>
<event>
 5    0  0.5719562E-003  0.5339769E+03  0.7546771E-02  0.1005272E+00
          2   -1    0    0  502    0  0.00000000000E+00  0.00000000000E+00  0.44529949843E+03  0.44529949843E+03  0.00000000000E+00 0.  1.
         -2   -1    0    0    0  501 -0.00000000000E+00 -0.00000000000E+00 -0.16007837599E+03  0.16007837599E+03  0.00000000000E+00 0. -1.
         25    1    1    2    0    0 -0.11419565452E+03  0.21096028420E+03  0.13341429379E+03  0.30161111188E+03  0.12500000000E+03 0.  0.
          1    1    1    2  502    0  0.21910399505E+02 -0.37744415803E+01  0.50859983911E+02  0.55507206551E+02  0.00000000000E+00 0.  1.
         -1    1    1    2    0  501  0.92285255017E+02 -0.20718584262E+03  0.10094684473E+03  0.24825955599E+03  0.00000000000E+00 0. -1.
<mgrwt>
<rscale>  4 0.53397686E+03</rscale>
<asrwt>0</asrwt>
<pdfrwt beam="1">  1        2 0.68507615E-01 0.53397686E+03</pdfrwt>
<pdfrwt beam="2">  1       -2 0.24627443E-01 0.53397686E+03</pdfrwt>
<totfact> 0.10389756E+03</totfact>
</mgrwt>
</event>
<event>
 5    0  0.5719562E-003  0.8297572E+03  0.7546771E-02  0.9517916E-01
         -2   -1    0    0    0  501 -0.00000000000E+00  0.00000000000E+00  0.29966599385E+03  0.29966599385E+03  0.00000000000E+00 0. -1.
          2   -1    0    0  502    0  0.00000000000E+00 -0.00000000000E+00 -0.57438703555E+03  0.57438703555E+03  0.00000000000E+00 0.  1.
         25    1    1    2    0    0 -0.22181669125E+03 -0.47933217892E+02  0.48415959743E+02  0.26357037590E+03  0.12500000000E+03 0.  0.
          2    1    1    2  502    0  0.36820664841E+02  0.17110971099E+03  0.44764222121E+02  0.18066026165E+03  0.00000000000E+00 0. -1.
         -2    1    1    2    0  501  0.18499602641E+03 -0.12317649310E+03 -0.36790122356E+03  0.42982239185E+03  0.00000000000E+00 0.  1.
<mgrwt>
<rscale>  4 0.82975722E+03</rscale>
<asrwt>0</asrwt>
<pdfrwt beam="1">  1        2 0.88367235E-01 0.82975722E+03</pdfrwt>
<pdfrwt beam="2">  1       -2 0.46102461E-01 0.82975722E+03</pdfrwt>
<totfact> 0.23453900E+02</totfact>
</mgrwt>
</event>
<event>
 5    0  0.5719562E-003  0.6920953E+03  0.7546771E-02  0.9730847E-01
         -1   -1    0    0    0  501 -0.00000000000E+00  0.00000000000E+00  0.22016754667E+03  0.22016754667E+03  0.00000000000E+00 0.  1.
          1   -1    0    0  502    0  0.00000000000E+00 -0.00000000000E+00 -0.54389935527E+03  0.54389935527E+03  0.00000000000E+00 0. -1.
         25    1    1    2    0    0 -0.88468272242E+02 -0.21703953429E+03  0.78766426208E+02  0.27705946029E+03  0.12500000000E+03 0.  0.
          3    1    1    2  502    0  0.20970680715E+02  0.65013115845E+01 -0.14912838805E+03  0.15073590357E+03  0.00000000000E+00 0. -1.
         -3    1    1    2    0  501  0.67497591527E+02  0.21053822270E+03 -0.25336984676E+03  0.33627153809E+03  0.00000000000E+00 0.  1.
<mgrwt>
<rscale>  4 0.69209533E+03</rscale>
<asrwt>0</asrwt>
<pdfrwt beam="1">  1        1 0.83676824E-01 0.69209533E+03</pdfrwt>
<pdfrwt beam="2">  1       -1 0.33871930E-01 0.69209533E+03</pdfrwt>
<totfact> 0.32813296E+02</totfact>
</mgrwt>
</event>
