<event>
 5    0  0.1911311E+001  0.3432959E+03  0.7546771E-02  0.1065401E+00
         21   -1    0    0  502  501  0.00000000000E+00  0.00000000000E+00  0.40149689582E+03  0.40149689582E+03  0.00000000000E+00 0.  1.
         21   -1    0    0  504  502 -0.00000000000E+00 -0.00000000000E+00 -0.14246025688E+04  0.14246025688E+04  0.00000000000E+00 0.  1.
         25    1    1    2    0    0  0.31472619569E+03  0.11800089684E+03 -0.12363695543E+04  0.12873272563E+04  0.12500000000E+03 0.  0.
         21    1    1    2  503  501 -0.30222103877E+03 -0.10165389750E+03  0.30710449036E+03  0.44270107200E+03  0.00000000000E+00 0.  1.
         21    1    1    2  504  503 -0.12505156920E+02 -0.16346999340E+02 -0.93840609052E+02  0.96071136375E+02  0.00000000000E+00 0.  1.
<mgrwt>
<rscale>  4 0.34329586E+03</rscale>
<asrwt>0</asrwt>
<pdfrwt beam="1">  1       21 0.61768754E-01 0.34329586E+03</pdfrwt>
<pdfrwt beam="2">  1       21 0.21916962E+00 0.34329586E+03</pdfrwt>
<totfact> 0.21314380E+02</totfact>
</mgrwt>
</event>
<event>
 5    0  0.1911311E+001  0.3187791E+03  0.7546771E-02  0.1076213E+00
         21   -1    0    0  502  501  0.00000000000E+00  0.00000000000E+00  0.11374411310E+04  0.11374411310E+04  0.00000000000E+00 0. -1.
         21   -1    0    0  504  502 -0.00000000000E+00 -0.00000000000E+00 -0.14268424507E+03  0.14268424507E+03  0.00000000000E+00 0. -1.
         25    1    1    2    0    0 -0.30807353344E+03 -0.12044881229E+02  0.15273363630E+03  0.36606959015E+03  0.12500000000E+03 0.  0.
         21    1    1    2  503  501  0.28831531174E+03  0.30595779548E+02  0.83789682366E+03  0.88664136369E+03  0.00000000000E+00 0. -1.
         21    1    1    2  504  503  0.19758221706E+02 -0.18550898319E+02  0.41264259395E+01  0.27414422198E+02  0.00000000000E+00 0. -1.
<mgrwt>
<rscale>  4 0.31877912E+03</rscale>
<asrwt>0</asrwt>
<pdfrwt beam="1">  1       21 0.17499094E+00 0.31877912E+03</pdfrwt>
<pdfrwt beam="2">  1       21 0.21951423E-01 0.31877912E+03</pdfrwt>
<totfact> 0.34861261E+03</totfact>
</mgrwt>
</event>
<event>
 5    0  0.1911311E+001  0.2468835E+03  0.7546771E-02  0.1115290E+00
         21   -1    0    0  503  501  0.00000000000E+00  0.00000000000E+00  0.96989665543E+03  0.96989665543E+03  0.00000000000E+00 0.  1.
         21   -1    0    0  504  502 -0.00000000000E+00 -0.00000000000E+00 -0.14503806829E+03  0.14503806829E+03  0.00000000000E+00 0.  1.
         25    1    1    2    0    0 -0.84745482283E+02 -0.29029576095E+03  0.48955109966E+03  0.58884522990E+03  0.12500000000E+03 0.  0.
         21    1    1    2  503  502  0.10229324728E+03  0.11326929606E+03  0.71203260689E+01  0.15278920417E+03  0.00000000000E+00 0.  1.
         21    1    1    2  504  501 -0.17547765000E+02  0.17702646490E+03  0.32818716141E+03  0.37330028964E+03  0.00000000000E+00 0.  1.
<mgrwt>
<rscale>  4 0.24688355E+03</rscale>
<asrwt>0</asrwt>
<pdfrwt beam="1">  1       21 0.14921487E+00 0.24688355E+03</pdfrwt>
<pdfrwt beam="2">  1       21 0.22313550E-01 0.24688355E+03</pdfrwt>
<totfact> 0.54682739E+03</totfact>
</mgrwt>
</event>
