<event>
 5    0  0.1141006E+000  0.2459433E+03  0.7546771E-02  0.1115896E+00
          2   -1    0    0  503    0 -0.00000000000E+00  0.00000000000E+00  0.53471658568E+03  0.53471658568E+03  0.00000000000E+00 0. -1.
         21   -1    0    0  501  502  0.00000000000E+00 -0.00000000000E+00 -0.33909464185E+03  0.33909464185E+03  0.00000000000E+00 0. -1.
         25    1    1    2    0    0 -0.16544041583E+03 -0.12720235186E+03 -0.23463320803E+03  0.33797738359E+03  0.12500000000E+03 0.  0.
         21    1    1    2  503  502  0.25465974662E+02 -0.71688745890E+02  0.10786366266E+03  0.13199379484E+03  0.00000000000E+00 0. -1.
          2    1    1    2  501    0  0.13997444117E+03  0.19889109775E+03  0.32239148920E+03  0.40384004910E+03  0.00000000000E+00 0. -1.
<mgrwt>
<rscale>  4 0.24594326E+03</rscale>
<asrwt>0</asrwt>
<pdfrwt beam="1">  1       21 0.52168407E-01 0.24594326E+03</pdfrwt>
<pdfrwt beam="2">  1        2 0.82264090E-01 0.24594326E+03</pdfrwt>
<totfact> 0.24696171E+03</totfact>
</mgrwt>
</event>
<event>
 5    0  0.1141006E+000  0.2532742E+03  0.7546771E-02  0.1111253E+00
          1   -1    0    0  503    0 -0.00000000000E+00  0.00000000000E+00  0.14704506943E+04  0.14704506943E+04  0.00000000000E+00 0. -1.
         21   -1    0    0  501  502  0.00000000000E+00 -0.00000000000E+00 -0.73381575380E+02  0.73381575380E+02  0.00000000000E+00 0. -1.
         25    1    1    2    0    0  0.35777565338E+01 -0.22013737066E+03  0.20143185311E+03  0.32353215258E+03  0.12500000000E+03 0.  0.
         21    1    1    2  503  502  0.21939725252E+02 -0.17658390691E-02  0.13333851067E+03  0.13513145442E+03  0.00000000000E+00 0. -1.
          1    1    1    2  501    0 -0.25517481786E+02  0.22013913650E+03  0.10622987551E+04  0.10851686627E+04  0.00000000000E+00 0. -1.
<mgrwt>
<rscale>  4 0.25327421E+03</rscale>
<asrwt>0</asrwt>
<pdfrwt beam="1">  1       21 0.11289474E-01 0.25327421E+03</pdfrwt>
<pdfrwt beam="2">  1        1 0.22622316E+00 0.25327421E+03</pdfrwt>
<totfact> 0.54380672E+03</totfact>
</mgrwt>
</event>
<event>
 5    0  0.1141006E+000  0.2337535E+03  0.7546771E-02  0.1124025E+00
          1   -1    0    0  503    0 -0.00000000000E+00  0.00000000000E+00  0.25100524655E+04  0.25100524655E+04  0.00000000000E+00 0. -1.
         21   -1    0    0  501  502  0.00000000000E+00 -0.00000000000E+00 -0.34837358777E+02  0.34837358777E+02  0.00000000000E+00 0. -1.
         25    1    1    2    0    0 -0.16583663583E+03 -0.11359153786E+03  0.46406658149E+03  0.52094876841E+03  0.12500000000E+03 0.  0.
         21    1    1    2  503  502  0.25547657123E+02 -0.12052258600E+02  0.54720227774E+03  0.54793090119E+03  0.00000000000E+00 0. -1.
          1    1    1    2  501    0  0.14028897871E+03  0.12564379646E+03  0.14639462475E+04  0.14760101547E+04  0.00000000000E+00 0. -1.
<mgrwt>
<rscale>  4 0.23375354E+03</rscale>
<asrwt>0</asrwt>
<pdfrwt beam="1">  1       21 0.53595956E-02 0.23375354E+03</pdfrwt>
<pdfrwt beam="2">  1        1 0.38616178E+00 0.23375354E+03</pdfrwt>
<totfact> 0.42219152E+03</totfact>
</mgrwt>
</event>
<event>
 5    0  0.1141006E+000  0.3959351E+03  0.7546771E-02  0.1045196E+00
         21   -1    0    0  501  502  0.00000000000E+00  0.00000000000E+00  0.16077734547E+04  0.16077734547E+04  0.00000000000E+00 0. -1.
          2   -1    0    0  503    0 -0.00000000000E+00 -0.00000000000E+00 -0.19051374612E+03  0.19051374612E+03  0.00000000000E+00 0.  1.
         25    1    1    2    0    0 -0.13082577510E+03 -0.33872526718E+03  0.11146712164E+04  0.11789686640E+04  0.12500000000E+03 0.  0.
         21    1    1    2  503  502 -0.10329250383E+03 -0.25900012189E+02  0.71105048488E+02  0.12804717841E+03  0.00000000000E+00 0.  1.
          2    1    1    2  501    0  0.23411827893E+03  0.36462527937E+03  0.23148344370E+03  0.49127135840E+03  0.00000000000E+00 0.  1.
<mgrwt>
<rscale>  4 0.39593511E+03</rscale>
<asrwt>0</asrwt>
<pdfrwt beam="1">  1       21 0.24734975E+00 0.39593511E+03</pdfrwt>
<pdfrwt beam="2">  1        2 0.29309808E-01 0.39593511E+03</pdfrwt>
<totfact> 0.13325696E+02</totfact>
</mgrwt>
</event>
<event>
 5    0  0.1141006E+000  0.2748511E+03  0.7546771E-02  0.1098535E+00
          2   -1    0    0  503    0 -0.00000000000E+00  0.00000000000E+00  0.37955660496E+04  0.37955660496E+04  0.00000000000E+00 0.  1.
         21   -1    0    0  501  502  0.00000000000E+00 -0.00000000000E+00 -0.34011243481E+02  0.34011243481E+02  0.00000000000E+00 0. -1.
         25    1    1    2    0    0  0.21140064480E+03 -0.12340124860E+03  0.64055570842E+03  0.69703279433E+03  0.12500000000E+03 0.  0.
         21    1    1    2  503  502 -0.23325102255E+02  0.66159399550E+02  0.99795146755E+03  0.10004140433E+04  0.00000000000E+00 0.  1.
          2    1    1    2  501    0 -0.18807554255E+03  0.57241849050E+02  0.21230476302E+04  0.21321304554E+04  0.00000000000E+00 0.  1.
<mgrwt>
<rscale>  4 0.27485105E+03</rscale>
<asrwt>0</asrwt>
<pdfrwt beam="1">  1       21 0.52325020E-02 0.27485105E+03</pdfrwt>
<pdfrwt beam="2">  1        2 0.58393290E+00 0.27485105E+03</pdfrwt>
<totfact> 0.19999904E+03</totfact>
</mgrwt>
</event>
<event>
 5    0  0.1141006E+000  0.3325120E+03  0.7546771E-02  0.1070031E+00
         21   -1    0    0  501  502  0.00000000000E+00  0.00000000000E+00  0.47112168951E+03  0.47112168951E+03  0.00000000000E+00 0.  1.
          1   -1    0    0  503    0 -0.00000000000E+00 -0.00000000000E+00 -0.11056899753E+04  0.11056899753E+04  0.00000000000E+00 0.  1.
         25    1    1    2    0    0  0.19400133374E+03  0.23223713618E+03  0.35124709939E+03  0.48017718578E+03  0.12500000000E+03 0.  0.
         21    1    1    2  503  502  0.35706232876E+02  0.44792761425E+02 -0.43448790820E+03  0.43824772551E+03  0.00000000000E+00 0. -1.
          1    1    1    2  501    0 -0.22970756662E+03 -0.27702989760E+03 -0.55132747697E+03  0.65838675350E+03  0.00000000000E+00 0.  1.
<mgrwt>
<rscale>  4 0.33251197E+03</rscale>
<asrwt>0</asrwt>
<pdfrwt beam="1">  1       21 0.72480260E-01 0.33251197E+03</pdfrwt>
<pdfrwt beam="2">  1        1 0.17010615E+00 0.33251197E+03</pdfrwt>
<totfact> 0.23812482E+02</totfact>
</mgrwt>
</event>
<event>
 5    0  0.1141006E+000  0.2529397E+03  0.7546771E-02  0.1111461E+00
          2   -1    0    0  503    0 -0.00000000000E+00  0.00000000000E+00  0.28274691637E+03  0.28274691637E+03  0.00000000000E+00 0.  1.
         21   -1    0    0  501  502  0.00000000000E+00 -0.00000000000E+00 -0.12777063787E+04  0.12777063787E+04  0.00000000000E+00 0. -1.
         25    1    1    2    0    0 -0.17128121871E+03 -0.14416784712E+03 -0.11838826545E+04  0.12113318140E+04  0.12500000000E+03 0.  0.
         21    1    1    2  503  502  0.76014147640E+02  0.24444671566E+02 -0.27172357165E+02  0.84344707026E+02  0.00000000000E+00 0. -1.
          2    1    1    2  501    0  0.95267071070E+02  0.11972317556E+03  0.21609554936E+03  0.26477677400E+03  0.00000000000E+00 0.  1.
<mgrwt>
<rscale>  4 0.25293968E+03</rscale>
<asrwt>0</asrwt>
<pdfrwt beam="1">  1       21 0.19657022E+00 0.25293968E+03</pdfrwt>
<pdfrwt beam="2">  1        2 0.43499525E-01 0.25293968E+03</pdfrwt>
<totfact> 0.19507602E+02</totfact>
</mgrwt>
</event>
<event>
 5    0  0.1141006E+000  0.2843321E+03  0.7546771E-02  0.1093346E+00
          2   -1    0    0  503    0 -0.00000000000E+00  0.00000000000E+00  0.35550572109E+04  0.35550572109E+04  0.00000000000E+00 0.  1.
         21   -1    0    0  501  502  0.00000000000E+00 -0.00000000000E+00 -0.89056391641E+02  0.89056391641E+02  0.00000000000E+00 0.  1.
         25    1    1    2    0    0  0.19367508744E+03  0.14671915104E+03  0.21501747909E+03  0.34769823855E+03  0.12500000000E+03 0.  0.
         21    1    1    2  503  502  0.27023446226E+02  0.58865694076E+02  0.22510731464E+04  0.22520048284E+04  0.00000000000E+00 0.  1.
          2    1    1    2  501    0 -0.22069853366E+03 -0.20558484512E+03  0.99991019373E+03  0.10444105356E+04  0.00000000000E+00 0.  1.
<mgrwt>
<rscale>  4 0.28433213E+03</rscale>
<asrwt>0</asrwt>
<pdfrwt beam="1">  1       21 0.13700986E-01 0.28433213E+03</pdfrwt>
<pdfrwt beam="2">  1        2 0.54693177E+00 0.28433213E+03</pdfrwt>
<totfact> 0.53512936E+02</totfact>
</mgrwt>
</event>
<event>
 5    0  0.1141006E+000  0.4019829E+03  0.7546771E-02  0.1043095E+00
         21   -1    0    0  501  502  0.00000000000E+00  0.00000000000E+00  0.71534300294E+03  0.71534300294E+03  0.00000000000E+00 0.  1.
          1   -1    0    0  503    0 -0.00000000000E+00 -0.00000000000E+00 -0.49870628834E+03  0.49870628834E+03  0.00000000000E+00 0.  1.
         25    1    1    2    0    0 -0.13850069113E+03 -0.35606578250E+03  0.56443675848E+03  0.69294959213E+03  0.12500000000E+03 0.  0.
         21    1    1    2  503  502 -0.13084573752E+00  0.35757154135E+02 -0.14783671093E+02  0.38692998377E+02  0.00000000000E+00 0. -1.
          1    1    1    2  501    0  0.13863153686E+03  0.32030862837E+03 -0.33301637278E+03  0.48240670078E+03  0.00000000000E+00 0.  1.
<mgrwt>
<rscale>  4 0.40198294E+03</rscale>
<asrwt>0</asrwt>
<pdfrwt beam="1">  1       21 0.11005277E+00 0.40198294E+03</pdfrwt>
<pdfrwt beam="2">  1        1 0.76724044E-01 0.40198294E+03</pdfrwt>
<totfact> 0.29586134E+02</totfact>
</mgrwt>
</event>
<event>
 5    0  0.1141006E+000  0.2820002E+03  0.7546771E-02  0.1094601E+00
          3   -1    0    0  503    0 -0.00000000000E+00  0.00000000000E+00  0.12247802700E+04  0.12247802700E+04  0.00000000000E+00 0.  1.
         21   -1    0    0  501  502  0.00000000000E+00 -0.00000000000E+00 -0.27960941204E+03  0.27960941204E+03  0.00000000000E+00 0. -1.
         25    1    1    2    0    0  0.13573854228E+02  0.24920891385E+03 -0.17775438454E+03  0.33092439240E+03  0.12500000000E+03 0.  0.
         21    1    1    2  503  502  0.17118457088E+02  0.40675679947E+02  0.22893060311E+03  0.23314539145E+03  0.00000000000E+00 0.  1.
          3    1    1    2  501    0 -0.30692311316E+02 -0.28988459380E+03  0.89399463936E+03  0.94031989817E+03  0.00000000000E+00 0.  1.
<mgrwt>
<rscale>  4 0.28200024E+03</rscale>
<asrwt>0</asrwt>
<pdfrwt beam="1">  1       21 0.43016833E-01 0.28200024E+03</pdfrwt>
<pdfrwt beam="2">  1        3 0.18842773E+00 0.28200024E+03</pdfrwt>
<totfact> 0.47107548E+01</totfact>
</mgrwt>
</event>
<event>
 5    0  0.1141006E+000  0.3077865E+03  0.7546771E-02  0.1081412E+00
         21   -1    0    0  501  502  0.00000000000E+00  0.00000000000E+00  0.22662722383E+03  0.22662722383E+03  0.00000000000E+00 0.  1.
          2   -1    0    0  503    0 -0.00000000000E+00 -0.00000000000E+00 -0.21071124981E+04  0.21071124981E+04  0.00000000000E+00 0.  1.
         25    1    1    2    0    0  0.23279725213E+03  0.15710498377E+03  0.77447817682E+02  0.31701687808E+03  0.12500000000E+03 0.  0.
         21    1    1    2  503  502 -0.10370061515E+02  0.20095944695E+02 -0.12970913219E+04  0.12972884346E+04  0.00000000000E+00 0. -1.
          2    1    1    2  501    0 -0.22242719061E+03 -0.17720092847E+03 -0.66084177003E+03  0.71943440924E+03  0.00000000000E+00 0.  1.
<mgrwt>
<rscale>  4 0.30778647E+03</rscale>
<asrwt>0</asrwt>
<pdfrwt beam="1">  1       21 0.34865727E-01 0.30778647E+03</pdfrwt>
<pdfrwt beam="2">  1        2 0.32417115E+00 0.30778647E+03</pdfrwt>
<totfact> 0.62633342E+02</totfact>
</mgrwt>
</event>
<event>
 5    0  0.1141006E+000  0.3008718E+03  0.7546771E-02  0.1084806E+00
         21   -1    0    0  501  502  0.00000000000E+00  0.00000000000E+00  0.64764479347E+03  0.64764479347E+03  0.00000000000E+00 0. -1.
          2   -1    0    0  503    0 -0.00000000000E+00 -0.00000000000E+00 -0.94946164000E+03  0.94946164000E+03  0.00000000000E+00 0. -1.
         25    1    1    2    0    0  0.14378630944E+03  0.23275338660E+03  0.58264086804E+03  0.65570116888E+03  0.12500000000E+03 0.  0.
         21    1    1    2  503  502 -0.27840943844E+02  0.19285984158E+02 -0.20020785002E+03  0.20305233450E+03  0.00000000000E+00 0.  1.
          2    1    1    2  501    0 -0.11594536560E+03 -0.25203937076E+03 -0.68424986456E+03  0.73835293009E+03  0.00000000000E+00 0. -1.
<mgrwt>
<rscale>  4 0.30087179E+03</rscale>
<asrwt>0</asrwt>
<pdfrwt beam="1">  1       21 0.99637660E-01 0.30087179E+03</pdfrwt>
<pdfrwt beam="2">  1        2 0.14607102E+00 0.30087179E+03</pdfrwt>
<totfact> 0.27780864E+02</totfact>
</mgrwt>
</event>
<event>
 5    0  0.1141006E+000  0.2952914E+03  0.7546771E-02  0.1087618E+00
          3   -1    0    0  503    0 -0.00000000000E+00  0.00000000000E+00  0.11298863275E+04  0.11298863275E+04  0.00000000000E+00 0.  1.
         21   -1    0    0  501  502  0.00000000000E+00 -0.00000000000E+00 -0.23047374896E+03  0.23047374896E+03  0.00000000000E+00 0.  1.
         25    1    1    2    0    0  0.18676335057E+03 -0.18876008575E+03 -0.99425224019E+02  0.30987302925E+03  0.12500000000E+03 0.  0.
         21    1    1    2  503  502  0.30205535284E+02  0.55514658763E+01  0.20706346645E+03  0.20932862268E+03  0.00000000000E+00 0. -1.
          3    1    1    2  501    0 -0.21696888586E+03  0.18320861987E+03  0.79177433614E+03  0.84115842455E+03  0.00000000000E+00 0.  1.
<mgrwt>
<rscale>  4 0.29529140E+03</rscale>
<asrwt>0</asrwt>
<pdfrwt beam="1">  1       21 0.35457501E-01 0.29529140E+03</pdfrwt>
<pdfrwt beam="2">  1        3 0.17382866E+00 0.29529140E+03</pdfrwt>
<totfact> 0.86421502E+01</totfact>
</mgrwt>
</event>
<event>
 5    0  0.1141006E+000  0.2910157E+03  0.7546771E-02  0.1089820E+00
         21   -1    0    0  503  502  0.00000000000E+00  0.00000000000E+00  0.22513942254E+03  0.22513942254E+03  0.00000000000E+00 0.  1.
         -4   -1    0    0    0  501 -0.00000000000E+00 -0.00000000000E+00 -0.14644180060E+04  0.14644180060E+04  0.00000000000E+00 0. -1.
         25    1    1    2    0    0 -0.20917159698E+03 -0.17929540997E+03  0.72517464822E+02  0.31110027920E+03  0.12500000000E+03 0.  0.
         21    1    1    2  503  501  0.13962031392E+03  0.46359147984E+02 -0.16167024509E+03  0.21858698682E+03  0.00000000000E+00 0.  1.
         -4    1    1    2    0  502  0.69551283057E+02  0.13293626198E+03 -0.11501258032E+04  0.11598701625E+04  0.00000000000E+00 0. -1.
<mgrwt>
<rscale>  4 0.29101565E+03</rscale>
<asrwt>0</asrwt>
<pdfrwt beam="1">  1       21 0.34636835E-01 0.29101565E+03</pdfrwt>
<pdfrwt beam="2">  1       -4 0.22529507E+00 0.29101565E+03</pdfrwt>
<totfact> 0.33092303E+01</totfact>
</mgrwt>
</event>
<event>
 5    0  0.1141006E+000  0.2600257E+03  0.7546771E-02  0.1107128E+00
         21   -1    0    0  501  502  0.00000000000E+00  0.00000000000E+00  0.11305222688E+03  0.11305222688E+03  0.00000000000E+00 0. -1.
          1   -1    0    0  503    0 -0.00000000000E+00 -0.00000000000E+00 -0.10731354119E+04  0.10731354119E+04  0.00000000000E+00 0.  1.
         25    1    1    2    0    0 -0.12465070115E+03  0.17162824918E+03 -0.14215948403E+03  0.28430331006E+03  0.12500000000E+03 0.  0.
         21    1    1    2  503  502 -0.96234772727E+02  0.60066600849E+01 -0.19780400602E+03  0.22005371218E+03  0.00000000000E+00 0.  1.
          1    1    1    2  501    0  0.22088547388E+03 -0.17763490926E+03 -0.62011969495E+03  0.68183061652E+03  0.00000000000E+00 0.  1.
<mgrwt>
<rscale>  4 0.26002569E+03</rscale>
<asrwt>0</asrwt>
<pdfrwt beam="1">  1       21 0.17392650E-01 0.26002569E+03</pdfrwt>
<pdfrwt beam="2">  1        1 0.16509776E+00 0.26002569E+03</pdfrwt>
<totfact> 0.46425461E+03</totfact>
</mgrwt>
</event>
<event>
 5    0  0.1141006E+000  0.2699802E+03  0.7546771E-02  0.1101291E+00
         21   -1    0    0  503  502  0.00000000000E+00  0.00000000000E+00  0.50582578372E+03  0.50582578372E+03  0.00000000000E+00 0. -1.
         -3   -1    0    0    0  501 -0.00000000000E+00 -0.00000000000E+00 -0.23561374119E+03  0.23561374119E+03  0.00000000000E+00 0. -1.
         25    1    1    2    0    0 -0.23327428589E+03  0.53361212936E+02  0.37690111958E+03  0.46362028153E+03  0.12500000000E+03 0.  0.
         21    1    1    2  503  501  0.33227116493E+02 -0.45447123563E+02 -0.22168563737E+02  0.60505599152E+02  0.00000000000E+00 0.  1.
         -3    1    1    2    0  502  0.20004716940E+03 -0.79140893724E+01 -0.84520513311E+02  0.21731364422E+03  0.00000000000E+00 0. -1.
<mgrwt>
<rscale>  4 0.26998021E+03</rscale>
<asrwt>0</asrwt>
<pdfrwt beam="1">  1       21 0.77819351E-01 0.26998021E+03</pdfrwt>
<pdfrwt beam="2">  1       -3 0.36248268E-01 0.26998021E+03</pdfrwt>
<totfact> 0.53429677E+02</totfact>
</mgrwt>
</event>
<event>
 5    0  0.1141006E+000  0.2903028E+03  0.7546771E-02  0.1090191E+00
          2   -1    0    0  503    0 -0.00000000000E+00  0.00000000000E+00  0.10234741909E+04  0.10234741909E+04  0.00000000000E+00 0. -1.
         21   -1    0    0  501  502  0.00000000000E+00 -0.00000000000E+00 -0.10867874341E+03  0.10867874341E+03  0.00000000000E+00 0. -1.
         25    1    1    2    0    0 -0.13286066319E+03 -0.24019906240E+03  0.71938283077E+03  0.78005397417E+03  0.12500000000E+03 0.  0.
         21    1    1    2  503  502 -0.11289775370E+02  0.25618091853E+02  0.45064308011E+02  0.53052214983E+02  0.00000000000E+00 0. -1.
          2    1    1    2  501    0  0.14415043856E+03  0.21458097055E+03  0.15034830871E+03  0.29904674516E+03  0.00000000000E+00 0. -1.
<mgrwt>
<rscale>  4 0.29030280E+03</rscale>
<asrwt>0</asrwt>
<pdfrwt beam="1">  1       21 0.16719807E-01 0.29030280E+03</pdfrwt>
<pdfrwt beam="2">  1        2 0.15745756E+00 0.29030280E+03</pdfrwt>
<totfact> 0.10130133E+04</totfact>
</mgrwt>
</event>
<event>
 5    0  0.1141006E+000  0.4330548E+03  0.7546771E-02  0.1032899E+00
         21   -1    0    0  501  502  0.00000000000E+00  0.00000000000E+00  0.41264713305E+03  0.41264713305E+03  0.00000000000E+00 0. -1.
          2   -1    0    0  503    0 -0.00000000000E+00 -0.00000000000E+00 -0.10066991417E+04  0.10066991417E+04  0.00000000000E+00 0. -1.
         25    1    1    2    0    0  0.34832312586E+03  0.21125798406E+03  0.20177943009E+03  0.47148581552E+03  0.12500000000E+03 0.  0.
         21    1    1    2  503  502  0.57109587923E+02  0.66750030670E+00 -0.78887326959E+02  0.97391790949E+02  0.00000000000E+00 0.  1.
          2    1    1    2  501    0 -0.40543271378E+03 -0.21192548436E+03 -0.71694411178E+03  0.85046866829E+03  0.00000000000E+00 0. -1.
<mgrwt>
<rscale>  4 0.43305483E+03</rscale>
<asrwt>0</asrwt>
<pdfrwt beam="1">  1       21 0.63484174E-01 0.43305483E+03</pdfrwt>
<pdfrwt beam="2">  1        2 0.15487679E+00 0.43305483E+03</pdfrwt>
<totfact> 0.68622801E+02</totfact>
</mgrwt>
</event>
<event>
 5    0  0.1141006E+000  0.3022011E+03  0.7546771E-02  0.1084145E+00
          2   -1    0    0  503    0 -0.00000000000E+00  0.00000000000E+00  0.12206724270E+04  0.12206724270E+04  0.00000000000E+00 0. -1.
         21   -1    0    0  501  502  0.00000000000E+00 -0.00000000000E+00 -0.13269437119E+03  0.13269437119E+03  0.00000000000E+00 0.  1.
         25    1    1    2    0    0 -0.17689815300E+03  0.21731054924E+03  0.11141899080E+03  0.32642920038E+03  0.12500000000E+03 0.  0.
         21    1    1    2  503  502  0.21554857040E+02 -0.93770589679E+01  0.32110026843E+03  0.32195950596E+03  0.00000000000E+00 0.  1.
          2    1    1    2  501    0  0.15534329596E+03 -0.20793349028E+03  0.65545879662E+03  0.70497809189E+03  0.00000000000E+00 0. -1.
<mgrwt>
<rscale>  4 0.30220109E+03</rscale>
<asrwt>0</asrwt>
<pdfrwt beam="1">  1       21 0.20414519E-01 0.30220109E+03</pdfrwt>
<pdfrwt beam="2">  1        2 0.18779575E+00 0.30220109E+03</pdfrwt>
<totfact> 0.53224417E+03</totfact>
</mgrwt>
</event>
<event>
 5    0  0.1141006E+000  0.2477642E+03  0.7546771E-02  0.1114726E+00
         21   -1    0    0  501  502  0.00000000000E+00  0.00000000000E+00  0.73985061231E+02  0.73985061231E+02  0.00000000000E+00 0.  1.
          1   -1    0    0  503    0 -0.00000000000E+00 -0.00000000000E+00 -0.25917487625E+04  0.25917487625E+04  0.00000000000E+00 0. -1.
         25    1    1    2    0    0 -0.82218919088E+01  0.24025818440E+03 -0.22019308454E+03  0.34914408080E+03  0.12500000000E+03 0.  0.
         21    1    1    2  503  502 -0.24854676682E+02 -0.30883187069E+02 -0.83905605450E+02  0.92799120806E+02  0.00000000000E+00 0.  1.
          1    1    1    2  501    0  0.33076568591E+02 -0.20937499733E+03 -0.22136650112E+04  0.22237906221E+04  0.00000000000E+00 0. -1.
<mgrwt>
<rscale>  4 0.24776425E+03</rscale>
<asrwt>0</asrwt>
<pdfrwt beam="1">  1       21 0.11382317E-01 0.24776425E+03</pdfrwt>
<pdfrwt beam="2">  1        1 0.39873058E+00 0.24776425E+03</pdfrwt>
<totfact> 0.99144370E+02</totfact>
</mgrwt>
</event>
<event>
 5    0  0.1141006E+000  0.2629059E+03  0.7546771E-02  0.1105410E+00
         -2   -1    0    0    0  501 -0.00000000000E+00  0.00000000000E+00  0.76413294157E+02  0.76413294157E+02  0.00000000000E+00 0.  1.
         21   -1    0    0  503  502  0.00000000000E+00 -0.00000000000E+00 -0.15023044955E+04  0.15023044955E+04  0.00000000000E+00 0.  1.
         25    1    1    2    0    0  0.22362800272E+03 -0.29766213019E+02 -0.91403202810E+03  0.94972367530E+03  0.12500000000E+03 0.  0.
         21    1    1    2  503  501  0.17179816347E+02  0.30673196278E+02  0.23282549184E+02  0.42167145459E+02  0.00000000000E+00 0.  1.
         -2    1    1    2    0  502 -0.24080781907E+03 -0.90698325916E+00 -0.53514172246E+03  0.58682696893E+03  0.00000000000E+00 0.  1.
<mgrwt>
<rscale>  4 0.26290588E+03</rscale>
<asrwt>0</asrwt>
<pdfrwt beam="1">  1       21 0.23112378E+00 0.26290588E+03</pdfrwt>
<pdfrwt beam="2">  1       -2 0.11755891E-01 0.26290588E+03</pdfrwt>
<totfact> 0.33077268E+02</totfact>
</mgrwt>
</event>
<event>
 5    0  0.1141006E+000  0.2486589E+03  0.7546771E-02  0.1114155E+00
         -2   -1    0    0    0  501 -0.00000000000E+00  0.00000000000E+00  0.79291383097E+02  0.79291383097E+02  0.00000000000E+00 0.  1.
         21   -1    0    0  503  502  0.00000000000E+00 -0.00000000000E+00 -0.14390193944E+04  0.14390193944E+04  0.00000000000E+00 0.  1.
         25    1    1    2    0    0  0.21046815477E+03  0.84747431997E+02 -0.10475179624E+04  0.10790726820E+04  0.12500000000E+03 0.  0.
         21    1    1    2  503  501 -0.20641516205E+02 -0.35608110841E+02  0.25723959529E+02  0.48535882013E+02  0.00000000000E+00 0.  1.
         -2    1    1    2    0  502 -0.18982663857E+03 -0.49139321155E+02 -0.33793400837E+03  0.39070221347E+03  0.00000000000E+00 0.  1.
<mgrwt>
<rscale>  4 0.24865885E+03</rscale>
<asrwt>0</asrwt>
<pdfrwt beam="1">  1       21 0.22138760E+00 0.24865885E+03</pdfrwt>
<pdfrwt beam="2">  1       -2 0.12198674E-01 0.24865885E+03</pdfrwt>
<totfact> 0.36059252E+02</totfact>
</mgrwt>
</event>
<event>
 5    0  0.1141006E+000  0.3201562E+03  0.7546771E-02  0.1075577E+00
          2   -1    0    0  503    0 -0.00000000000E+00  0.00000000000E+00  0.55632339148E+03  0.55632339148E+03  0.00000000000E+00 0.  1.
         21   -1    0    0  501  502  0.00000000000E+00 -0.00000000000E+00 -0.15780386599E+04  0.15780386599E+04  0.00000000000E+00 0.  1.
         25    1    1    2    0    0  0.95898665873E+02 -0.27948531388E+03 -0.15126577676E+04  0.15463075750E+04  0.12500000000E+03 0.  0.
         21    1    1    2  503  502 -0.36787518967E+02  0.11613071488E+02  0.21038165455E+02  0.43940748592E+02  0.00000000000E+00 0.  1.
          2    1    1    2  501    0 -0.59111146906E+02  0.26787224240E+03  0.46990433368E+03  0.54411372777E+03  0.00000000000E+00 0.  1.
<mgrwt>
<rscale>  4 0.32015623E+03</rscale>
<asrwt>0</asrwt>
<pdfrwt beam="1">  1       21 0.24277518E+00 0.32015623E+03</pdfrwt>
<pdfrwt beam="2">  1        2 0.85588214E-01 0.32015623E+03</pdfrwt>
<totfact> 0.45293799E+01</totfact>
</mgrwt>
</event>
<event>
 5    0  0.1141006E+000  0.4277195E+03  0.7546771E-02  0.1034583E+00
          1   -1    0    0  503    0 -0.00000000000E+00  0.00000000000E+00  0.11874138733E+04  0.11874138733E+04  0.00000000000E+00 0.  1.
         21   -1    0    0  501  502  0.00000000000E+00 -0.00000000000E+00 -0.43910495668E+03  0.43910495668E+03  0.00000000000E+00 0. -1.
         25    1    1    2    0    0  0.16605029115E+03  0.37161822592E+03 -0.27423777885E+03  0.50646240173E+03  0.12500000000E+03 0.  0.
         21    1    1    2  503  502 -0.13262988412E+02  0.27038238866E+02  0.70873738221E+02  0.77006882757E+02  0.00000000000E+00 0. -1.
          1    1    1    2  501    0 -0.15278730273E+03 -0.39865646478E+03  0.95167295727E+03  0.10430495455E+04  0.00000000000E+00 0.  1.
<mgrwt>
<rscale>  4 0.42771945E+03</rscale>
<asrwt>0</asrwt>
<pdfrwt beam="1">  1       21 0.67554609E-01 0.42771945E+03</pdfrwt>
<pdfrwt beam="2">  1        1 0.18267906E+00 0.42771945E+03</pdfrwt>
<totfact> 0.23471264E+02</totfact>
</mgrwt>
</event>
<event>
 5    0  0.1141006E+000  0.2802669E+03  0.7546771E-02  0.1095543E+00
         21   -1    0    0  501  502  0.00000000000E+00  0.00000000000E+00  0.17388622335E+03  0.17388622335E+03  0.00000000000E+00 0.  1.
          3   -1    0    0  503    0 -0.00000000000E+00 -0.00000000000E+00 -0.13758353702E+04  0.13758353702E+04  0.00000000000E+00 0.  1.
         25    1    1    2    0    0  0.16014548418E+03 -0.19268081165E+03  0.20034493343E+02  0.28071133252E+03  0.12500000000E+03 0.  0.
         21    1    1    2  503  502  0.60490421627E+02  0.48644669351E+02 -0.23668648996E+03  0.24909012324E+03  0.00000000000E+00 0.  1.
          3    1    1    2  501    0 -0.22063590581E+03  0.14403614230E+03 -0.98529715028E+03  0.10199201378E+04  0.00000000000E+00 0.  1.
<mgrwt>
<rscale>  4 0.28026693E+03</rscale>
<asrwt>0</asrwt>
<pdfrwt beam="1">  1       21 0.26751726E-01 0.28026693E+03</pdfrwt>
<pdfrwt beam="2">  1        3 0.21166698E+00 0.28026693E+03</pdfrwt>
<totfact> 0.87759225E+01</totfact>
</mgrwt>
</event>
<event>
 5    0  0.1141006E+000  0.3403547E+03  0.7546771E-02  0.1066645E+00
         21   -1    0    0  503  502  0.00000000000E+00  0.00000000000E+00  0.18122451998E+04  0.18122451998E+04  0.00000000000E+00 0. -1.
         -2   -1    0    0    0  501 -0.00000000000E+00 -0.00000000000E+00 -0.11923716902E+03  0.11923716902E+03  0.00000000000E+00 0. -1.
         25    1    1    2    0    0 -0.24248128435E+03  0.20351694815E+03  0.15081081449E+04  0.15460373534E+04  0.12500000000E+03 0.  0.
         21    1    1    2  503  501  0.51919762572E+02  0.17802065909E+01  0.58203893448E+02  0.78016178409E+02  0.00000000000E+00 0. -1.
         -2    1    1    2    0  502  0.19056152178E+03 -0.20529715474E+03  0.12669599246E+03  0.30742883702E+03  0.00000000000E+00 0. -1.
<mgrwt>
<rscale>  4 0.34035470E+03</rscale>
<asrwt>0</asrwt>
<pdfrwt beam="1">  1       21 0.27880693E+00 0.34035470E+03</pdfrwt>
<pdfrwt beam="2">  1       -2 0.18344181E-01 0.34035470E+03</pdfrwt>
<totfact> 0.78154488E+01</totfact>
</mgrwt>
</event>
<event>
 5    0  0.1141006E+000  0.2798533E+03  0.7546771E-02  0.1095769E+00
         -3   -1    0    0    0  501 -0.00000000000E+00  0.00000000000E+00  0.23842420615E+03  0.23842420615E+03  0.00000000000E+00 0.  1.
         21   -1    0    0  503  502  0.00000000000E+00 -0.00000000000E+00 -0.50368013093E+03  0.50368013093E+03  0.00000000000E+00 0.  1.
         25    1    1    2    0    0 -0.11985505434E+03  0.23289928055E+03 -0.15372971828E+03  0.32842828017E+03  0.12500000000E+03 0.  0.
         21    1    1    2  503  501  0.42565050455E+02 -0.15277312521E+01  0.88498011919E+02  0.98214131349E+02  0.00000000000E+00 0.  1.
         -3    1    1    2    0  502  0.77290003886E+02 -0.23137154930E+03 -0.20002421842E+03  0.31546192556E+03  0.00000000000E+00 0.  1.
<mgrwt>
<rscale>  4 0.27985334E+03</rscale>
<asrwt>0</asrwt>
<pdfrwt beam="1">  1       21 0.77489251E-01 0.27985334E+03</pdfrwt>
<pdfrwt beam="2">  1       -3 0.36680647E-01 0.27985334E+03</pdfrwt>
<totfact> 0.52640522E+02</totfact>
</mgrwt>
</event>
<event>
 5    0  0.1141006E+000  0.3191064E+03  0.7546771E-02  0.1076061E+00
         21   -1    0    0  501  502  0.00000000000E+00  0.00000000000E+00  0.80522109471E+02  0.80522109471E+02  0.00000000000E+00 0.  1.
          2   -1    0    0  503    0 -0.00000000000E+00 -0.00000000000E+00 -0.25788242898E+04  0.25788242898E+04  0.00000000000E+00 0. -1.
         25    1    1    2    0    0  0.21356139713E+03  0.24712995405E+03 -0.39446265891E+03  0.52716930279E+03  0.12500000000E+03 0.  0.
         21    1    1    2  503  502 -0.16699137928E+02 -0.36237457825E+02 -0.99833985644E+02  0.10751204233E+03  0.00000000000E+00 0. -1.
          2    1    1    2  501    0 -0.19686225920E+03 -0.21089249622E+03 -0.20040055357E+04  0.20246650541E+04  0.00000000000E+00 0. -1.
<mgrwt>
<rscale>  4 0.31910638E+03</rscale>
<asrwt>0</asrwt>
<pdfrwt beam="1">  1       21 0.12388019E-01 0.31910638E+03</pdfrwt>
<pdfrwt beam="2">  1        2 0.39674213E+00 0.31910638E+03</pdfrwt>
<totfact> 0.24704960E+03</totfact>
</mgrwt>
</event>
<event>
 5    0  0.1141006E+000  0.2575548E+03  0.7546771E-02  0.1108621E+00
          2   -1    0    0  503    0 -0.00000000000E+00  0.00000000000E+00  0.16171728612E+04  0.16171728612E+04  0.00000000000E+00 0.  1.
         21   -1    0    0  501  502  0.00000000000E+00 -0.00000000000E+00 -0.32393795527E+03  0.32393795527E+03  0.00000000000E+00 0.  1.
         25    1    1    2    0    0 -0.22321295354E+03 -0.89300758956E+01 -0.25090782009E+03  0.35844595557E+03  0.12500000000E+03 0.  0.
         21    1    1    2  503  502 -0.50772746648E+02  0.16782201046E+01  0.94006389493E+02  0.10685452489E+03  0.00000000000E+00 0.  1.
          2    1    1    2  501    0  0.27398570019E+03  0.72518557910E+01  0.14501363365E+04  0.14758103360E+04  0.00000000000E+00 0.  1.
<mgrwt>
<rscale>  4 0.25755480E+03</rscale>
<asrwt>0</asrwt>
<pdfrwt beam="1">  1       21 0.49836609E-01 0.25755480E+03</pdfrwt>
<pdfrwt beam="2">  1        2 0.24879582E+00 0.25755480E+03</pdfrwt>
<totfact> 0.56022339E+02</totfact>
</mgrwt>
</event>
<event>
 5    0  0.1141006E+000  0.3163516E+03  0.7546771E-02  0.1077341E+00
         21   -1    0    0  501  502  0.00000000000E+00  0.00000000000E+00  0.19369375149E+03  0.19369375149E+03  0.00000000000E+00 0.  1.
          2   -1    0    0  503    0 -0.00000000000E+00 -0.00000000000E+00 -0.17147579732E+04  0.17147579732E+04  0.00000000000E+00 0. -1.
         25    1    1    2    0    0  0.19902723163E+03 -0.20779229026E+03  0.32504140407E+02  0.31539022491E+03  0.12500000000E+03 0.  0.
         21    1    1    2  503  502  0.19071161102E+02 -0.23887087005E+02 -0.21693777523E+03  0.21908057977E+03  0.00000000000E+00 0.  1.
          2    1    1    2  501    0 -0.21809839274E+03  0.23167937726E+03 -0.13366305869E+04  0.13739809200E+04  0.00000000000E+00 0. -1.
<mgrwt>
<rscale>  4 0.31635157E+03</rscale>
<asrwt>0</asrwt>
<pdfrwt beam="1">  1       21 0.29799037E-01 0.31635157E+03</pdfrwt>
<pdfrwt beam="2">  1        2 0.26380893E+00 0.31635157E+03</pdfrwt>
<totfact> 0.13752295E+03</totfact>
</mgrwt>
</event>
<event>
 5    0  0.1141006E+000  0.2936416E+03  0.7546771E-02  0.1088463E+00
          2   -1    0    0  503    0 -0.00000000000E+00  0.00000000000E+00  0.24614861221E+04  0.24614861221E+04  0.00000000000E+00 0.  1.
         21   -1    0    0  501  502  0.00000000000E+00 -0.00000000000E+00 -0.32589517518E+03  0.32589517518E+03  0.00000000000E+00 0.  1.
         25    1    1    2    0    0  0.26850269845E+03 -0.84396028825E+00 -0.23574129622E+03  0.37854110752E+03  0.12500000000E+03 0.  0.
         21    1    1    2  503  502 -0.19759250093E+03 -0.14709669864E+03  0.16999155678E+04  0.17176708569E+04  0.00000000000E+00 0.  1.
          2    1    1    2  501    0 -0.70910197521E+02  0.14794065893E+03  0.67141667535E+03  0.69116933281E+03  0.00000000000E+00 0.  1.
<mgrwt>
<rscale>  4 0.29364164E+03</rscale>
<asrwt>0</asrwt>
<pdfrwt beam="1">  1       21 0.50137721E-01 0.29364164E+03</pdfrwt>
<pdfrwt beam="2">  1        2 0.37869016E+00 0.29364164E+03</pdfrwt>
<totfact> 0.19282475E+02</totfact>
</mgrwt>
</event>
<event>
 5    0  0.1141006E+000  0.2445671E+03  0.7546771E-02  0.1116787E+00
         21   -1    0    0  503  502  0.00000000000E+00  0.00000000000E+00  0.22506374966E+03  0.22506374966E+03  0.00000000000E+00 0. -1.
         -2   -1    0    0    0  501 -0.00000000000E+00 -0.00000000000E+00 -0.44871653931E+03  0.44871653931E+03  0.00000000000E+00 0. -1.
         25    1    1    2    0    0  0.20800101312E+03  0.13773448964E+02  0.70054755595E+02  0.25295611900E+03  0.12500000000E+03 0.  0.
         21    1    1    2  503  501  0.69508721344E+01 -0.46613178239E+02 -0.15712578075E+03  0.16404150080E+03  0.00000000000E+00 0. -1.
         -2    1    1    2    0  502 -0.21495188526E+03  0.32839729274E+02 -0.13658176449E+03  0.25678266917E+03  0.00000000000E+00 0. -1.
<mgrwt>
<rscale>  4 0.24456715E+03</rscale>
<asrwt>0</asrwt>
<pdfrwt beam="1">  1       21 0.34625192E-01 0.24456715E+03</pdfrwt>
<pdfrwt beam="2">  1       -2 0.69033314E-01 0.24456715E+03</pdfrwt>
<totfact> 0.12701854E+03</totfact>
</mgrwt>
</event>
<event>
 5    0  0.1141006E+000  0.3790071E+03  0.7546771E-02  0.1051301E+00
         21   -1    0    0  501  502  0.00000000000E+00  0.00000000000E+00  0.44410886125E+03  0.44410886125E+03  0.00000000000E+00 0.  1.
          2   -1    0    0  503    0 -0.00000000000E+00 -0.00000000000E+00 -0.37430308182E+03  0.37430308182E+03  0.00000000000E+00 0.  1.
         25    1    1    2    0    0  0.26723919294E+03 -0.23529263585E+03 -0.43673356287E+01  0.37739036070E+03  0.12500000000E+03 0.  0.
         21    1    1    2  503  502 -0.16201612551E+02 -0.21851414756E+02 -0.53200210349E+02  0.59751476611E+02  0.00000000000E+00 0. -1.
          2    1    1    2  501    0 -0.25103758038E+03  0.25714405061E+03  0.12737332541E+03  0.38127010577E+03  0.00000000000E+00 0.  1.
<mgrwt>
<rscale>  4 0.37900708E+03</rscale>
<asrwt>0</asrwt>
<pdfrwt beam="1">  1       21 0.68324440E-01 0.37900708E+03</pdfrwt>
<pdfrwt beam="2">  1        2 0.57585090E-01 0.37900708E+03</pdfrwt>
<totfact> 0.19713309E+03</totfact>
</mgrwt>
</event>
<event>
 5    0  0.1141006E+000  0.7044273E+03  0.7546771E-02  0.9709691E-01
         21   -1    0    0  501  502  0.00000000000E+00  0.00000000000E+00  0.42500856433E+03  0.42500856433E+03  0.00000000000E+00 0. -1.
          2   -1    0    0  503    0 -0.00000000000E+00 -0.00000000000E+00 -0.12715879132E+04  0.12715879132E+04  0.00000000000E+00 0. -1.
         25    1    1    2    0    0 -0.59151839239E+03  0.32006706333E+03 -0.55086261373E+03  0.87830037731E+03  0.12500000000E+03 0.  0.
         21    1    1    2  503  502 -0.25869695983E+02  0.25234682828E+02 -0.64753248614E+02  0.74155334223E+02  0.00000000000E+00 0. -1.
          2    1    1    2  501    0  0.61738808837E+03 -0.34530174616E+03 -0.23096348656E+03  0.74414076605E+03  0.00000000000E+00 0. -1.
<mgrwt>
<rscale>  4 0.70442735E+03</rscale>
<asrwt>0</asrwt>
<pdfrwt beam="1">  1       21 0.65385934E-01 0.70442735E+03</pdfrwt>
<pdfrwt beam="2">  1        2 0.19562891E+00 0.70442735E+03</pdfrwt>
<totfact> 0.41919550E+02</totfact>
</mgrwt>
</event>
<event>
 5    0  0.1141006E+000  0.2397995E+03  0.7546771E-02  0.1119926E+00
         21   -1    0    0  501  502  0.00000000000E+00  0.00000000000E+00  0.15067876374E+04  0.15067876374E+04  0.00000000000E+00 0.  1.
          2   -1    0    0  503    0 -0.00000000000E+00 -0.00000000000E+00 -0.55932671148E+02  0.55932671148E+02  0.00000000000E+00 0. -1.
         25    1    1    2    0    0  0.17433230718E+03  0.10717765348E+03  0.12351682957E+04  0.12582307107E+04  0.12500000000E+03 0.  0.
         21    1    1    2  503  502 -0.27594053016E+02 -0.71254250513E+01  0.50024754295E+01  0.28934895964E+02  0.00000000000E+00 0. -1.
          2    1    1    2  501    0 -0.14673825416E+03 -0.10005222843E+03  0.21068419521E+03  0.27555470193E+03  0.00000000000E+00 0. -1.
<mgrwt>
<rscale>  4 0.23979951E+03</rscale>
<asrwt>0</asrwt>
<pdfrwt beam="1">  1       21 0.23181345E+00 0.23979951E+03</pdfrwt>
<pdfrwt beam="2">  1        2 0.86050275E-02 0.23979951E+03</pdfrwt>
<totfact> 0.77302792E+02</totfact>
</mgrwt>
</event>
<event>
 5    0  0.1141006E+000  0.2481695E+03  0.7546771E-02  0.1114467E+00
         21   -1    0    0  501  502  0.00000000000E+00  0.00000000000E+00  0.92475900175E+03  0.92475900175E+03  0.00000000000E+00 0.  1.
          1   -1    0    0  503    0 -0.00000000000E+00 -0.00000000000E+00 -0.81480860435E+03  0.81480860435E+03  0.00000000000E+00 0.  1.
         25    1    1    2    0    0  0.19620334143E+03 -0.89298863238E+02  0.88527004659E+03  0.91967281876E+03  0.12500000000E+03 0.  0.
         21    1    1    2  503  502 -0.36620908664E+02 -0.93345905683E+01 -0.38478978537E+03  0.38664118309E+03  0.00000000000E+00 0.  1.
          1    1    1    2  501    0 -0.15958243277E+03  0.98633453806E+02 -0.39052986382E+03  0.43325360425E+03  0.00000000000E+00 0.  1.
<mgrwt>
<rscale>  4 0.24816948E+03</rscale>
<asrwt>0</asrwt>
<pdfrwt beam="1">  1       21 0.14227062E+00 0.24816948E+03</pdfrwt>
<pdfrwt beam="2">  1        1 0.12535517E+00 0.24816948E+03</pdfrwt>
<totfact> 0.82067780E+01</totfact>
</mgrwt>
</event>
<event>
 5    0  0.1141006E+000  0.3884565E+03  0.7546771E-02  0.1047852E+00
          2   -1    0    0  503    0 -0.00000000000E+00  0.00000000000E+00  0.82943915370E+03  0.82943915370E+03  0.00000000000E+00 0. -1.
         21   -1    0    0  501  502  0.00000000000E+00 -0.00000000000E+00 -0.43116185956E+03  0.43116185956E+03  0.00000000000E+00 0.  1.
         25    1    1    2    0    0  0.26556915408E+03 -0.25587412510E+03 -0.27556678797E+03  0.47703312058E+03  0.12500000000E+03 0.  0.
         21    1    1    2  503  502 -0.22392770655E+02 -0.12983143396E+02  0.11177248135E+03  0.11473049193E+03  0.00000000000E+00 0.  1.
          2    1    1    2  501    0 -0.24317638342E+03  0.26885726850E+03  0.56207160076E+03  0.66883740076E+03  0.00000000000E+00 0. -1.
<mgrwt>
<rscale>  4 0.38845648E+03</rscale>
<asrwt>0</asrwt>
<pdfrwt beam="1">  1       21 0.66332594E-01 0.38845648E+03</pdfrwt>
<pdfrwt beam="2">  1        2 0.12760602E+00 0.38845648E+03</pdfrwt>
<totfact> 0.82342787E+02</totfact>
</mgrwt>
</event>
<event>
 5    0  0.1141006E+000  0.4123995E+03  0.7546771E-02  0.1039569E+00
          1   -1    0    0  503    0 -0.00000000000E+00  0.00000000000E+00  0.72417224501E+03  0.72417224501E+03  0.00000000000E+00 0.  1.
         21   -1    0    0  501  502  0.00000000000E+00 -0.00000000000E+00 -0.63980790278E+03  0.63980790278E+03  0.00000000000E+00 0.  1.
         25    1    1    2    0    0  0.20848116093E+03 -0.28167730457E+03 -0.49185112909E+03  0.61672443729E+03  0.12500000000E+03 0.  0.
         21    1    1    2  503  502  0.31726552047E+02 -0.35366097649E+02  0.52303623042E+00  0.47514298212E+02  0.00000000000E+00 0.  1.
          1    1    1    2  501    0 -0.24020771297E+03  0.31704340222E+03  0.57569243508E+03  0.69974141229E+03  0.00000000000E+00 0.  1.
<mgrwt>
<rscale>  4 0.41239954E+03</rscale>
<asrwt>0</asrwt>
<pdfrwt beam="1">  1       21 0.98431986E-01 0.41239954E+03</pdfrwt>
<pdfrwt beam="2">  1        1 0.11141111E+00 0.41239954E+03</pdfrwt>
<totfact> 0.22828369E+02</totfact>
</mgrwt>
</event>
<event>
 5    0  0.1141006E+000  0.2779355E+03  0.7546771E-02  0.1096822E+00
          2   -1    0    0  503    0 -0.00000000000E+00  0.00000000000E+00  0.23757265340E+03  0.23757265340E+03  0.00000000000E+00 0.  1.
         21   -1    0    0  501  502  0.00000000000E+00 -0.00000000000E+00 -0.56386569387E+03  0.56386569387E+03  0.00000000000E+00 0.  1.
         25    1    1    2    0    0  0.15689290811E+03 -0.18675014805E+03 -0.41133479062E+03  0.49427958929E+03  0.12500000000E+03 0.  0.
         21    1    1    2  503  502  0.27223713008E+02 -0.66194908016E+01  0.10794620305E+02  0.30024523908E+02  0.00000000000E+00 0.  1.
          2    1    1    2  501    0 -0.18411662112E+03  0.19336963885E+03  0.74247129852E+02  0.27713423407E+03  0.00000000000E+00 0.  1.
<mgrwt>
<rscale>  4 0.27793554E+03</rscale>
<asrwt>0</asrwt>
<pdfrwt beam="1">  1       21 0.86748568E-01 0.27793554E+03</pdfrwt>
<pdfrwt beam="2">  1        2 0.36549639E-01 0.27793554E+03</pdfrwt>
<totfact> 0.19306990E+03</totfact>
</mgrwt>
</event>
<event>
 5    0  0.1141006E+000  0.3074004E+03  0.7546771E-02  0.1081599E+00
         21   -1    0    0  501  502  0.00000000000E+00  0.00000000000E+00  0.95740829943E+02  0.95740829943E+02  0.00000000000E+00 0. -1.
          2   -1    0    0  503    0 -0.00000000000E+00 -0.00000000000E+00 -0.23073120235E+04  0.23073120235E+04  0.00000000000E+00 0.  1.
         25    1    1    2    0    0  0.37907419109E+02 -0.26821856848E+03 -0.27915982223E+03  0.40857481475E+03  0.12500000000E+03 0.  0.
         21    1    1    2  503  502  0.39773279701E+02 -0.25829114055E+02 -0.12064693675E+04  0.12074010898E+04  0.00000000000E+00 0.  1.
          2    1    1    2  501    0 -0.77680698809E+02  0.29404768253E+03 -0.72594200376E+03  0.78707694884E+03  0.00000000000E+00 0.  1.
<mgrwt>
<rscale>  4 0.30740042E+03</rscale>
<asrwt>0</asrwt>
<pdfrwt beam="1">  1       21 0.14729358E-01 0.30740042E+03</pdfrwt>
<pdfrwt beam="2">  1        2 0.35497108E+00 0.30740042E+03</pdfrwt>
<totfact> 0.25480427E+03</totfact>
</mgrwt>
</event>
<event>
 5    0  0.1141006E+000  0.4653307E+03  0.7546771E-02  0.1023246E+00
         21   -1    0    0  501  502  0.00000000000E+00  0.00000000000E+00  0.91468383435E+03  0.91468383435E+03  0.00000000000E+00 0. -1.
          1   -1    0    0  503    0 -0.00000000000E+00 -0.00000000000E+00 -0.60593875572E+03  0.60593875572E+03  0.00000000000E+00 0. -1.
         25    1    1    2    0    0 -0.42129412472E+03 -0.11991828170E+03  0.68094406143E+03  0.81925511814E+03  0.12500000000E+03 0.  0.
         21    1    1    2  503  502 -0.76738225536E+02 -0.75838025372E+01 -0.74894520602E+02  0.10749631871E+03  0.00000000000E+00 0. -1.
          1    1    1    2  501    0  0.49803235025E+03  0.12750208424E+03 -0.29730446219E+03  0.59387115322E+03  0.00000000000E+00 0. -1.
<mgrwt>
<rscale>  4 0.46533074E+03</rscale>
<asrwt>0</asrwt>
<pdfrwt beam="1">  1       21 0.14072059E+00 0.46533074E+03</pdfrwt>
<pdfrwt beam="2">  1        1 0.93221347E-01 0.46533074E+03</pdfrwt>
<totfact> 0.11782887E+02</totfact>
</mgrwt>
</event>
<event>
 5    0  0.1141006E+000  0.2982590E+03  0.7546771E-02  0.1086114E+00
          2   -1    0    0  503    0 -0.00000000000E+00  0.00000000000E+00  0.10506700236E+04  0.10506700236E+04  0.00000000000E+00 0.  1.
         21   -1    0    0  501  502  0.00000000000E+00 -0.00000000000E+00 -0.99972892066E+02  0.99972892066E+02  0.00000000000E+00 0.  1.
         25    1    1    2    0    0 -0.25126453356E+03 -0.60926010231E+02  0.33093371229E+03  0.43816431447E+03  0.12500000000E+03 0.  0.
         21    1    1    2  503  502 -0.33646741412E+02  0.27783913233E+02  0.19579006651E+03  0.20059361702E+03  0.00000000000E+00 0. -1.
          2    1    1    2  501    0  0.28491127497E+03  0.33142096998E+02  0.42397335272E+03  0.51188498416E+03  0.00000000000E+00 0.  1.
<mgrwt>
<rscale>  4 0.29825900E+03</rscale>
<asrwt>0</asrwt>
<pdfrwt beam="1">  1       21 0.15380446E-01 0.29825900E+03</pdfrwt>
<pdfrwt beam="2">  1        2 0.16164153E+00 0.29825900E+03</pdfrwt>
<totfact> 0.11360950E+04</totfact>
</mgrwt>
</event>
<event>
 5    0  0.1141006E+000  0.2508044E+03  0.7546771E-02  0.1112798E+00
         21   -1    0    0  501  502  0.00000000000E+00  0.00000000000E+00  0.92452906233E+03  0.92452906233E+03  0.00000000000E+00 0.  1.
          4   -1    0    0  503    0 -0.00000000000E+00 -0.00000000000E+00 -0.18293831515E+03  0.18293831515E+03  0.00000000000E+00 0. -1.
         25    1    1    2    0    0  0.20295940043E+03  0.25831754544E+02  0.56356120975E+03  0.61244267887E+03  0.12500000000E+03 0.  0.
         21    1    1    2  503  502  0.36899146871E+02  0.15634213986E+03  0.57844730209E+02  0.17073495409E+03  0.00000000000E+00 0. -1.
          4    1    1    2  501    0 -0.23985854730E+03 -0.18217389440E+03  0.12018480722E+03  0.32428974452E+03  0.00000000000E+00 0. -1.
<mgrwt>
<rscale>  4 0.25080438E+03</rscale>
<asrwt>0</asrwt>
<pdfrwt beam="1">  1       21 0.14223524E+00 0.25080438E+03</pdfrwt>
<pdfrwt beam="2">  1        4 0.28144357E-01 0.25080438E+03</pdfrwt>
<totfact> 0.17057113E+02</totfact>
</mgrwt>
</event>
<event>
 5    0  0.1141006E+000  0.2573886E+03  0.7546771E-02  0.1108722E+00
         21   -1    0    0  501  502  0.00000000000E+00  0.00000000000E+00  0.30538317695E+03  0.30538317695E+03  0.00000000000E+00 0. -1.
          1   -1    0    0  503    0 -0.00000000000E+00 -0.00000000000E+00 -0.21872688321E+03  0.21872688321E+03  0.00000000000E+00 0. -1.
         25    1    1    2    0    0  0.22209676709E+03 -0.36013097309E+02  0.12409668402E+03  0.28574272364E+03  0.12500000000E+03 0.  0.
         21    1    1    2  503  502 -0.25264615302E+02  0.24062812814E+02  0.84600666613E+01  0.35901148656E+02  0.00000000000E+00 0.  1.
          1    1    1    2  501    0 -0.19683215179E+03  0.11950284495E+02 -0.45900456941E+02  0.20246618786E+03  0.00000000000E+00 0. -1.
<mgrwt>
<rscale>  4 0.25738865E+03</rscale>
<asrwt>0</asrwt>
<pdfrwt beam="1">  1       21 0.46982028E-01 0.25738865E+03</pdfrwt>
<pdfrwt beam="2">  1        1 0.33650290E-01 0.25738865E+03</pdfrwt>
<totfact> 0.60700856E+03</totfact>
</mgrwt>
</event>
<event>
 5    0  0.1141006E+000  0.2555748E+03  0.7546771E-02  0.1109831E+00
          2   -1    0    0  503    0 -0.00000000000E+00  0.00000000000E+00  0.13965380281E+04  0.13965380281E+04  0.00000000000E+00 0.  1.
         21   -1    0    0  501  502  0.00000000000E+00 -0.00000000000E+00 -0.38635714118E+03  0.38635714118E+03  0.00000000000E+00 0. -1.
         25    1    1    2    0    0 -0.78747462470E+02 -0.21218197696E+03 -0.31715128178E+03  0.40918490897E+03  0.12500000000E+03 0.  0.
         21    1    1    2  503  502  0.10695540314E+03  0.54898277699E+02  0.18750055947E+03  0.22273243805E+03  0.00000000000E+00 0.  1.
          2    1    1    2  501    0 -0.28207940667E+02  0.15728369926E+03  0.11398316092E+04  0.11509778223E+04  0.00000000000E+00 0.  1.
<mgrwt>
<rscale>  4 0.25557484E+03</rscale>
<asrwt>0</asrwt>
<pdfrwt beam="1">  1       21 0.59439561E-01 0.25557484E+03</pdfrwt>
<pdfrwt beam="2">  1        2 0.21485200E+00 0.25557484E+03</pdfrwt>
<totfact> 0.50592325E+02</totfact>
</mgrwt>
</event>
<event>
 5    0  0.1141006E+000  0.2462360E+03  0.7546771E-02  0.1115707E+00
         21   -1    0    0  501  502  0.00000000000E+00  0.00000000000E+00  0.23724878415E+03  0.23724878415E+03  0.00000000000E+00 0.  1.
          2   -1    0    0  503    0 -0.00000000000E+00 -0.00000000000E+00 -0.48720933553E+03  0.48720933553E+03  0.00000000000E+00 0.  1.
         25    1    1    2    0    0 -0.61602609071E+01 -0.23182322751E+03  0.11404625786E+02  0.26369494329E+03  0.12500000000E+03 0.  0.
         21    1    1    2  503  502  0.49690361567E+02  0.37689069343E+02 -0.25413658048E+03  0.26167728124E+03  0.00000000000E+00 0.  1.
          2    1    1    2  501    0 -0.43530100660E+02  0.19413415817E+03 -0.72285966867E+01  0.19908589514E+03  0.00000000000E+00 0.  1.
<mgrwt>
<rscale>  4 0.24623604E+03</rscale>
<asrwt>0</asrwt>
<pdfrwt beam="1">  1       21 0.36499813E-01 0.24623604E+03</pdfrwt>
<pdfrwt beam="2">  1        2 0.74955282E-01 0.24623604E+03</pdfrwt>
<totfact> 0.57183697E+03</totfact>
</mgrwt>
</event>
<event>
 5    0  0.1141006E+000  0.2480323E+03  0.7546771E-02  0.1114555E+00
         -3   -1    0    0    0  501 -0.00000000000E+00  0.00000000000E+00  0.29472776054E+03  0.29472776054E+03  0.00000000000E+00 0. -1.
         21   -1    0    0  503  502  0.00000000000E+00 -0.00000000000E+00 -0.17903334396E+04  0.17903334396E+04  0.00000000000E+00 0.  1.
         25    1    1    2    0    0 -0.65212565259E+02  0.20799106706E+03 -0.17250619421E+04  0.17432660917E+04  0.12500000000E+03 0.  0.
         21    1    1    2  503  501 -0.34578048776E+02 -0.83648588521E+02  0.11069579092E+03  0.14299050999E+03  0.00000000000E+00 0. -1.
         -3    1    1    2    0  502  0.99790614035E+02 -0.12434247854E+03  0.11876047209E+03  0.19880459841E+03  0.00000000000E+00 0. -1.
<mgrwt>
<rscale>  4 0.24803231E+03</rscale>
<asrwt>0</asrwt>
<pdfrwt beam="1">  1       21 0.27543592E+00 0.24803231E+03</pdfrwt>
<pdfrwt beam="2">  1       -3 0.45342732E-01 0.24803231E+03</pdfrwt>
<totfact> 0.10794684E+01</totfact>
</mgrwt>
</event>
<event>
 5    0  0.1141006E+000  0.2886510E+03  0.7546771E-02  0.1091056E+00
          2   -1    0    0  503    0 -0.00000000000E+00  0.00000000000E+00  0.31556113888E+03  0.31556113888E+03  0.00000000000E+00 0.  1.
         21   -1    0    0  501  502  0.00000000000E+00 -0.00000000000E+00 -0.28597416129E+03  0.28597416129E+03  0.00000000000E+00 0. -1.
         25    1    1    2    0    0  0.25302917619E+03 -0.96527031673E+02  0.48433635421E+01  0.29831139774E+03  0.12500000000E+03 0.  0.
         21    1    1    2  503  502 -0.23829124849E+02 -0.87341875056E+01  0.43446420743E+02  0.50316048114E+02  0.00000000000E+00 0. -1.
          2    1    1    2  501    0 -0.22920005134E+03  0.10526121918E+03 -0.18702806702E+02  0.25290785432E+03  0.00000000000E+00 0.  1.
<mgrwt>
<rscale>  4 0.28865097E+03</rscale>
<asrwt>0</asrwt>
<pdfrwt beam="1">  1       21 0.43996025E-01 0.28865097E+03</pdfrwt>
<pdfrwt beam="2">  1        2 0.48547868E-01 0.28865097E+03</pdfrwt>
<totfact> 0.62291172E+03</totfact>
</mgrwt>
</event>
<event>
 5    0  0.1141006E+000  0.2816055E+03  0.7546771E-02  0.1094815E+00
         21   -1    0    0  501  502  0.00000000000E+00  0.00000000000E+00  0.81926681116E+02  0.81926681116E+02  0.00000000000E+00 0. -1.
          2   -1    0    0  503    0 -0.00000000000E+00 -0.00000000000E+00 -0.27812697912E+04  0.27812697912E+04  0.00000000000E+00 0.  1.
         25    1    1    2    0    0 -0.15694244260E+03  0.22080658905E+03 -0.31249110540E+03  0.43204417715E+03  0.12500000000E+03 0.  0.
         21    1    1    2  503  502 -0.31753721913E+02 -0.89491873565E+02 -0.17749840477E+04  0.17775222822E+04  0.00000000000E+00 0.  1.
          2    1    1    2  501    0  0.18869616452E+03 -0.13131471548E+03 -0.61186795700E+03  0.65363001294E+03  0.00000000000E+00 0.  1.
<mgrwt>
<rscale>  4 0.28160550E+03</rscale>
<asrwt>0</asrwt>
<pdfrwt beam="1">  1       21 0.12604107E-01 0.28160550E+03</pdfrwt>
<pdfrwt beam="2">  1        2 0.42788759E+00 0.28160550E+03</pdfrwt>
<totfact> 0.18712234E+03</totfact>
</mgrwt>
</event>
<event>
 5    0  0.1141006E+000  0.2621710E+03  0.7546771E-02  0.1105846E+00
          2   -1    0    0  503    0 -0.00000000000E+00  0.00000000000E+00  0.13748531070E+04  0.13748531070E+04  0.00000000000E+00 0.  1.
         21   -1    0    0  501  502  0.00000000000E+00 -0.00000000000E+00 -0.12055589767E+03  0.12055589767E+03  0.00000000000E+00 0. -1.
         25    1    1    2    0    0 -0.11185016674E+03  0.19945199987E+03  0.57364499683E+02  0.26684685847E+03  0.12500000000E+03 0.  0.
         21    1    1    2  503  502 -0.32937205036E+02 -0.35083811020E+01  0.15993948178E+03  0.16333341987E+03  0.00000000000E+00 0. -1.
          2    1    1    2  501    0  0.14478737178E+03 -0.19594361877E+03  0.10369932278E+04  0.10652287263E+04  0.00000000000E+00 0.  1.
<mgrwt>
<rscale>  4 0.26217102E+03</rscale>
<asrwt>0</asrwt>
<pdfrwt beam="1">  1       21 0.18547062E-01 0.26217102E+03</pdfrwt>
<pdfrwt beam="2">  1        2 0.21151585E+00 0.26217102E+03</pdfrwt>
<totfact> 0.52941236E+03</totfact>
</mgrwt>
</event>
<event>
 5    0  0.1141006E+000  0.2471909E+03  0.7546771E-02  0.1115093E+00
          2   -1    0    0  503    0 -0.00000000000E+00  0.00000000000E+00  0.84546611989E+03  0.84546611989E+03  0.00000000000E+00 0.  1.
         21   -1    0    0  501  502  0.00000000000E+00 -0.00000000000E+00 -0.13983707842E+03  0.13983707842E+03  0.00000000000E+00 0. -1.
         25    1    1    2    0    0  0.22973190924E+03  0.43911636734E+02  0.47617405076E+02  0.26943904548E+03  0.12500000000E+03 0.  0.
         21    1    1    2  503  502 -0.78738670174E+02 -0.71979995567E+02  0.14279920174E+03  0.17824845009E+03  0.00000000000E+00 0.  1.
          2    1    1    2  501    0 -0.15099323907E+03  0.28068358833E+02  0.51521243466E+03  0.53761570274E+03  0.00000000000E+00 0.  1.
<mgrwt>
<rscale>  4 0.24719086E+03</rscale>
<asrwt>0</asrwt>
<pdfrwt beam="1">  1       21 0.21513397E-01 0.24719086E+03</pdfrwt>
<pdfrwt beam="2">  1        2 0.13007171E+00 0.24719086E+03</pdfrwt>
<totfact> 0.82878252E+03</totfact>
</mgrwt>
</event>
<event>
 5    0  0.1141006E+000  0.2531096E+03  0.7546771E-02  0.1111355E+00
         21   -1    0    0  501  502  0.00000000000E+00  0.00000000000E+00  0.72164968639E+02  0.72164968639E+02  0.00000000000E+00 0.  1.
          2   -1    0    0  503    0 -0.00000000000E+00 -0.00000000000E+00 -0.91513448862E+03  0.91513448862E+03  0.00000000000E+00 0. -1.
         25    1    1    2    0    0  0.40437244811E+02  0.19909640693E+03 -0.44939142808E+03  0.50877520149E+03  0.12500000000E+03 0.  0.
         21    1    1    2  503  502  0.23841712117E+02  0.24359914507E+02 -0.89239062631E+02  0.95527184459E+02  0.00000000000E+00 0. -1.
          2    1    1    2  501    0 -0.64278956928E+02 -0.22345632144E+03 -0.30433902927E+03  0.38299707131E+03  0.00000000000E+00 0. -1.
<mgrwt>
<rscale>  4 0.25310962E+03</rscale>
<asrwt>0</asrwt>
<pdfrwt beam="1">  1       21 0.11102303E-01 0.25310962E+03</pdfrwt>
<pdfrwt beam="2">  1        2 0.14078992E+00 0.25310962E+03</pdfrwt>
<totfact> 0.25136163E+04</totfact>
</mgrwt>
</event>
<event>
 5    0  0.1141006E+000  0.2491644E+03  0.7546771E-02  0.1113834E+00
          1   -1    0    0  503    0 -0.00000000000E+00  0.00000000000E+00  0.25806308411E+03  0.25806308411E+03  0.00000000000E+00 0. -1.
         21   -1    0    0  501  502  0.00000000000E+00 -0.00000000000E+00 -0.30313534467E+03  0.30313534467E+03  0.00000000000E+00 0. -1.
         25    1    1    2    0    0  0.20707989115E+03 -0.83309380713E+02 -0.14175285052E+03  0.29247462260E+03  0.12500000000E+03 0.  0.
         21    1    1    2  503  502 -0.37780514420E+02 -0.28757556079E+02  0.13970756756E+02  0.49492891871E+02  0.00000000000E+00 0. -1.
          1    1    1    2  501    0 -0.16929937673E+03  0.11206693679E+03  0.82709833206E+02  0.21923091431E+03  0.00000000000E+00 0. -1.
<mgrwt>
<rscale>  4 0.24916441E+03</rscale>
<asrwt>0</asrwt>
<pdfrwt beam="1">  1       21 0.46636206E-01 0.24916441E+03</pdfrwt>
<pdfrwt beam="2">  1        1 0.39702013E-01 0.24916441E+03</pdfrwt>
<totfact> 0.50136028E+03</totfact>
</mgrwt>
</event>
<event>
 5    0  0.1141006E+000  0.2432078E+03  0.7546771E-02  0.1117674E+00
         21   -1    0    0  503  502  0.00000000000E+00  0.00000000000E+00  0.11876517203E+03  0.11876517203E+03  0.00000000000E+00 0.  1.
         -2   -1    0    0    0  501 -0.00000000000E+00 -0.00000000000E+00 -0.91595794110E+03  0.91595794110E+03  0.00000000000E+00 0.  1.
         25    1    1    2    0    0  0.20518098532E+03 -0.32143142062E+01 -0.61031056390E+02  0.24790998043E+03  0.12500000000E+03 0.  0.
         21    1    1    2  503  501  0.13773111804E+02 -0.41081867354E+02 -0.22247376138E+03  0.22665390563E+03  0.00000000000E+00 0.  1.
         -2    1    1    2    0  502 -0.21895409713E+03  0.44296181560E+02 -0.51368795130E+03  0.56015922706E+03  0.00000000000E+00 0.  1.
<mgrwt>
<rscale>  4 0.24320782E+03</rscale>
<asrwt>0</asrwt>
<pdfrwt beam="1">  1       21 0.18271565E-01 0.24320782E+03</pdfrwt>
<pdfrwt beam="2">  1       -2 0.14091661E+00 0.24320782E+03</pdfrwt>
<totfact> 0.82780246E+02</totfact>
</mgrwt>
</event>
<event>
 5    0  0.1141006E+000  0.5278225E+03  0.7546771E-02  0.1006762E+00
          2   -1    0    0  503    0 -0.00000000000E+00  0.00000000000E+00  0.35714611799E+04  0.35714611799E+04  0.00000000000E+00 0.  1.
         21   -1    0    0  501  502  0.00000000000E+00 -0.00000000000E+00 -0.88983067632E+02  0.88983067632E+02  0.00000000000E+00 0. -1.
         25    1    1    2    0    0  0.52238418882E+03 -0.95533054010E+02  0.13529776226E+04  0.14588300972E+04  0.12500000000E+03 0.  0.
         21    1    1    2  503  502 -0.40404613611E+02  0.39520653664E+01  0.45268569097E+03  0.45450246032E+03  0.00000000000E+00 0.  1.
          2    1    1    2  501    0 -0.48197957521E+03  0.91580988643E+02  0.16768147987E+04  0.17471116901E+04  0.00000000000E+00 0.  1.
<mgrwt>
<rscale>  4 0.52782251E+03</rscale>
<asrwt>0</asrwt>
<pdfrwt beam="1">  1       21 0.13689705E-01 0.52782251E+03</pdfrwt>
<pdfrwt beam="2">  1        2 0.54945546E+00 0.52782251E+03</pdfrwt>
<totfact> 0.46952483E+02</totfact>
</mgrwt>
</event>
<event>
 5    0  0.1141006E+000  0.6096900E+03  0.7546771E-02  0.9885504E-01
         -2   -1    0    0    0  501 -0.00000000000E+00  0.00000000000E+00  0.11829482501E+04  0.11829482501E+04  0.00000000000E+00 0.  1.
         21   -1    0    0  503  502  0.00000000000E+00 -0.00000000000E+00 -0.44047320092E+03  0.44047320092E+03  0.00000000000E+00 0. -1.
         25    1    1    2    0    0 -0.54371534208E+03  0.27055165067E+03  0.13936609316E+03  0.63550961977E+03  0.12500000000E+03 0.  0.
         21    1    1    2  503  501  0.20936569149E+02 -0.89033938052E+01  0.35021953938E+03  0.35095774121E+03  0.00000000000E+00 0. -1.
         -2    1    1    2    0  502  0.52277877293E+03 -0.26164825687E+03  0.25288941662E+03  0.63695409002E+03  0.00000000000E+00 0.  1.
<mgrwt>
<rscale>  4 0.60968998E+03</rscale>
<asrwt>0</asrwt>
<pdfrwt beam="1">  1       21 0.67765109E-01 0.60968998E+03</pdfrwt>
<pdfrwt beam="2">  1       -2 0.18199204E+00 0.60968998E+03</pdfrwt>
<totfact> 0.26543169E+01</totfact>
</mgrwt>
</event>
<event>
 5    0  0.1141006E+000  0.2494776E+03  0.7546771E-02  0.1113635E+00
         21   -1    0    0  501  502  0.00000000000E+00  0.00000000000E+00  0.10023735921E+04  0.10023735921E+04  0.00000000000E+00 0. -1.
          1   -1    0    0  503    0 -0.00000000000E+00 -0.00000000000E+00 -0.57795360679E+03  0.57795360679E+03  0.00000000000E+00 0.  1.
         25    1    1    2    0    0  0.11659926668E+03  0.18010815198E+03  0.93512459320E+03  0.96753157065E+03  0.12500000000E+03 0.  0.
         21    1    1    2  503  502  0.32436859091E+02  0.33433898282E+02 -0.88703757708E+01  0.47420026869E+02  0.00000000000E+00 0. -1.
          1    1    1    2  501    0 -0.14903612577E+03 -0.21354205027E+03 -0.50183423216E+03  0.56537560133E+03  0.00000000000E+00 0.  1.
<mgrwt>
<rscale>  4 0.24947762E+03</rscale>
<asrwt>0</asrwt>
<pdfrwt beam="1">  1       21 0.15421132E+00 0.24947762E+03</pdfrwt>
<pdfrwt beam="2">  1        1 0.88915940E-01 0.24947762E+03</pdfrwt>
<totfact> 0.10917814E+02</totfact>
</mgrwt>
</event>
<event>
 5    0  0.1141006E+000  0.3135312E+03  0.7546771E-02  0.1078666E+00
         21   -1    0    0  501  502  0.00000000000E+00  0.00000000000E+00  0.25314005281E+03  0.25314005281E+03  0.00000000000E+00 0. -1.
          2   -1    0    0  503    0 -0.00000000000E+00 -0.00000000000E+00 -0.42351043347E+03  0.42351043347E+03  0.00000000000E+00 0. -1.
         25    1    1    2    0    0 -0.24085863604E+03 -0.12253016116E+03 -0.13091329447E+03  0.32525346057E+03  0.12500000000E+03 0.  0.
         21    1    1    2  503  502 -0.17807633994E+02 -0.27415650602E+02 -0.40962194943E+02  0.52408311754E+02  0.00000000000E+00 0. -1.
          2    1    1    2  501    0  0.25866627003E+03  0.14994581176E+03  0.15051087521E+01  0.29898871395E+03  0.00000000000E+00 0. -1.
<mgrwt>
<rscale>  4 0.31353120E+03</rscale>
<asrwt>0</asrwt>
<pdfrwt beam="1">  1       21 0.38944623E-01 0.31353120E+03</pdfrwt>
<pdfrwt beam="2">  1        2 0.65155452E-01 0.31353120E+03</pdfrwt>
<totfact> 0.57720041E+03</totfact>
</mgrwt>
</event>
<event>
 5    0  0.1141006E+000  0.3719936E+03  0.7546771E-02  0.1053933E+00
          2   -1    0    0  503    0 -0.00000000000E+00  0.00000000000E+00  0.19428994169E+04  0.19428994169E+04  0.00000000000E+00 0. -1.
         21   -1    0    0  501  502  0.00000000000E+00 -0.00000000000E+00 -0.11216425069E+03  0.11216425069E+03  0.00000000000E+00 0. -1.
         25    1    1    2    0    0 -0.25650970535E+03  0.27506746445E+03  0.44898910746E+03  0.59889528096E+03  0.12500000000E+03 0.  0.
         21    1    1    2  503  502 -0.94809785122E+01 -0.99565229890E+02  0.65544685465E+03  0.66303371198E+03  0.00000000000E+00 0. -1.
          2    1    1    2  501    0  0.26599068386E+03 -0.17550223456E+03  0.72629920409E+03  0.79313467463E+03  0.00000000000E+00 0. -1.
<mgrwt>
<rscale>  4 0.37199362E+03</rscale>
<asrwt>0</asrwt>
<pdfrwt beam="1">  1       21 0.17256040E-01 0.37199362E+03</pdfrwt>
<pdfrwt beam="2">  1        2 0.29890758E+00 0.37199362E+03</pdfrwt>
<totfact> 0.29106330E+03</totfact>
</mgrwt>
</event>
<event>
 5    0  0.1141006E+000  0.3155719E+03  0.7546771E-02  0.1077705E+00
          2   -1    0    0  503    0 -0.00000000000E+00  0.00000000000E+00  0.30702000877E+04  0.30702000877E+04  0.00000000000E+00 0. -1.
         21   -1    0    0  501  502  0.00000000000E+00 -0.00000000000E+00 -0.94204672214E+02  0.94204672214E+02  0.00000000000E+00 0. -1.
         25    1    1    2    0    0  0.29349884157E+03  0.11913533796E+02  0.22164238905E+03  0.38863073851E+03  0.12500000000E+03 0.  0.
         21    1    1    2  503  502 -0.26822983329E+02  0.12451712862E+02  0.10581203831E+04  0.10585335435E+04  0.00000000000E+00 0. -1.
          2    1    1    2  501    0 -0.26667585825E+03 -0.24365246658E+02  0.16962326434E+04  0.17172404780E+04  0.00000000000E+00 0. -1.
<mgrwt>
<rscale>  4 0.31557186E+03</rscale>
<asrwt>0</asrwt>
<pdfrwt beam="1">  1       21 0.14493029E-01 0.31557186E+03</pdfrwt>
<pdfrwt beam="2">  1        2 0.47233840E+00 0.31557186E+03</pdfrwt>
<totfact> 0.96559081E+02</totfact>
</mgrwt>
</event>
<event>
 5    0  0.1141006E+000  0.4530416E+03  0.7546771E-02  0.1026819E+00
         21   -1    0    0  501  502  0.00000000000E+00  0.00000000000E+00  0.76812833049E+03  0.76812833049E+03  0.00000000000E+00 0. -1.
          1   -1    0    0  503    0 -0.00000000000E+00 -0.00000000000E+00 -0.43819831980E+03  0.43819831980E+03  0.00000000000E+00 0. -1.
         25    1    1    2    0    0 -0.30451240289E+03  0.30675758433E+03  0.52429817972E+03  0.69089912456E+03  0.12500000000E+03 0.  0.
         21    1    1    2  503  502  0.23272607949E+01  0.25397766374E+02  0.14427274760E+01  0.25544943574E+02  0.00000000000E+00 0. -1.
          1    1    1    2  501    0  0.30218514210E+03 -0.33215535070E+03 -0.19581089651E+03  0.48988258216E+03  0.00000000000E+00 0. -1.
<mgrwt>
<rscale>  4 0.45304157E+03</rscale>
<asrwt>0</asrwt>
<pdfrwt beam="1">  1       21 0.11817359E+00 0.45304157E+03</pdfrwt>
<pdfrwt beam="2">  1        1 0.67415126E-01 0.45304157E+03</pdfrwt>
<totfact> 0.28991260E+02</totfact>
</mgrwt>
</event>
<event>
 5    0  0.1141006E+000  0.2986173E+03  0.7546771E-02  0.1085934E+00
         21   -1    0    0  501  502  0.00000000000E+00  0.00000000000E+00  0.32860697718E+03  0.32860697718E+03  0.00000000000E+00 0.  1.
          2   -1    0    0  503    0 -0.00000000000E+00 -0.00000000000E+00 -0.41358098290E+03  0.41358098290E+03  0.00000000000E+00 0.  1.
         25    1    1    2    0    0  0.14696928978E+03 -0.17536916438E+03 -0.21146513769E+03  0.33570347096E+03  0.12500000000E+03 0.  0.
         21    1    1    2  503  502  0.34464186026E+02 -0.42384315714E+02 -0.48778804809E+02  0.73236480906E+02  0.00000000000E+00 0.  1.
          2    1    1    2  501    0 -0.18143347581E+03  0.21775348009E+03  0.17526993678E+03  0.33324800821E+03  0.00000000000E+00 0.  1.
<mgrwt>
<rscale>  4 0.29861731E+03</rscale>
<asrwt>0</asrwt>
<pdfrwt beam="1">  1       21 0.50554919E-01 0.29861731E+03</pdfrwt>
<pdfrwt beam="2">  1        2 0.63627844E-01 0.29861731E+03</pdfrwt>
<totfact> 0.34611990E+03</totfact>
</mgrwt>
</event>
<event>
 5    0  0.1141006E+000  0.2922996E+03  0.7546771E-02  0.1089155E+00
         21   -1    0    0  501  502  0.00000000000E+00  0.00000000000E+00  0.61277136481E+02  0.61277136481E+02  0.00000000000E+00 0. -1.
          2   -1    0    0  503    0 -0.00000000000E+00 -0.00000000000E+00 -0.15272275036E+04  0.15272275036E+04  0.00000000000E+00 0. -1.
         25    1    1    2    0    0  0.81362892592E+02 -0.23125924894E+03 -0.75201311407E+03  0.80078054687E+03  0.12500000000E+03 0.  0.
         21    1    1    2  503  502 -0.24507658882E+02 -0.42630645838E+02 -0.15640790880E+03  0.16395557704E+03  0.00000000000E+00 0.  1.
          2    1    1    2  501    0 -0.56855233710E+02  0.27388989478E+03 -0.55752934422E+03  0.62376851614E+03  0.00000000000E+00 0. -1.
<mgrwt>
<rscale>  4 0.29229956E+03</rscale>
<asrwt>0</asrwt>
<pdfrwt beam="1">  1       21 0.94272525E-02 0.29229956E+03</pdfrwt>
<pdfrwt beam="2">  1        2 0.23495806E+00 0.29229956E+03</pdfrwt>
<totfact> 0.14871077E+04</totfact>
</mgrwt>
</event>
<event>
 5    0  0.1141006E+000  0.3651465E+03  0.7546771E-02  0.1056564E+00
         21   -1    0    0  503  502  0.00000000000E+00  0.00000000000E+00  0.21581174192E+03  0.21581174192E+03  0.00000000000E+00 0.  1.
         -3   -1    0    0    0  501 -0.00000000000E+00 -0.00000000000E+00 -0.87501817092E+03  0.87501817092E+03  0.00000000000E+00 0.  1.
         25    1    1    2    0    0  0.23100564996E+03 -0.25653940206E+03 -0.18947263466E+03  0.41315972021E+03  0.12500000000E+03 0.  0.
         21    1    1    2  503  501 -0.20813853121E+02 -0.12604692646E+02 -0.29140028000E+03  0.29241446261E+03  0.00000000000E+00 0.  1.
         -3    1    1    2    0  502 -0.21019179684E+03  0.26914409471E+03 -0.17833351435E+03  0.38525573002E+03  0.00000000000E+00 0.  1.
<mgrwt>
<rscale>  4 0.36514647E+03</rscale>
<asrwt>0</asrwt>
<pdfrwt beam="1">  1       21 0.33201807E-01 0.36514647E+03</pdfrwt>
<pdfrwt beam="2">  1       -3 0.13461818E+00 0.36514647E+03</pdfrwt>
<totfact> 0.18636326E+02</totfact>
</mgrwt>
</event>
<event>
 5    0  0.1141006E+000  0.5578222E+03  0.7546771E-02  0.9996994E-01
          2   -1    0    0  503    0 -0.00000000000E+00  0.00000000000E+00  0.20054336326E+04  0.20054336326E+04  0.00000000000E+00 0.  1.
         21   -1    0    0  501  502  0.00000000000E+00 -0.00000000000E+00 -0.80210476538E+03  0.80210476538E+03  0.00000000000E+00 0. -1.
         25    1    1    2    0    0  0.31696177822E+02 -0.54438450615E+03 -0.65708790215E+03  0.86298820929E+03  0.12500000000E+03 0.  0.
         21    1    1    2  503  502 -0.33412023401E+01  0.31774332407E+02  0.31211492909E+02  0.44664629435E+02  0.00000000000E+00 0. -1.
          2    1    1    2  501    0 -0.28354975482E+02  0.51261017374E+03  0.18292052764E+04  0.18998855592E+04  0.00000000000E+00 0.  1.
<mgrwt>
<rscale>  4 0.55782224E+03</rscale>
<asrwt>0</asrwt>
<pdfrwt beam="1">  1       21 0.12340073E+00 0.55782224E+03</pdfrwt>
<pdfrwt beam="2">  1        2 0.30852825E+00 0.55782224E+03</pdfrwt>
<totfact> 0.37557007E+01</totfact>
</mgrwt>
</event>
<event>
 5    0  0.1141006E+000  0.3127596E+03  0.7546771E-02  0.1079031E+00
         21   -1    0    0  501  502  0.00000000000E+00  0.00000000000E+00  0.28318209294E+03  0.28318209294E+03  0.00000000000E+00 0. -1.
          2   -1    0    0  503    0 -0.00000000000E+00 -0.00000000000E+00 -0.30277003037E+04  0.30277003037E+04  0.00000000000E+00 0.  1.
         25    1    1    2    0    0 -0.26979013447E+03 -0.94126168550E+02  0.18161067335E+03  0.36090703642E+03  0.12500000000E+03 0.  0.
         21    1    1    2  503  502 -0.14495011300E+02 -0.27712518150E+02 -0.88436932041E+03  0.88492213437E+03  0.00000000000E+00 0.  1.
          2    1    1    2  501    0  0.28428514577E+03  0.12183868670E+03 -0.20417595637E+04  0.20650532259E+04  0.00000000000E+00 0.  1.
<mgrwt>
<rscale>  4 0.31275961E+03</rscale>
<asrwt>0</asrwt>
<pdfrwt beam="1">  1       21 0.43566473E-01 0.31275961E+03</pdfrwt>
<pdfrwt beam="2">  1        2 0.46580007E+00 0.31275961E+03</pdfrwt>
<totfact> 0.12141257E+02</totfact>
</mgrwt>
</event>
<event>
 5    0  0.1141006E+000  0.2747210E+03  0.7546771E-02  0.1098608E+00
         21   -1    0    0  501  502  0.00000000000E+00  0.00000000000E+00  0.26841820512E+03  0.26841820512E+03  0.00000000000E+00 0.  1.
          1   -1    0    0  503    0 -0.00000000000E+00 -0.00000000000E+00 -0.34132180377E+03  0.34132180377E+03  0.00000000000E+00 0.  1.
         25    1    1    2    0    0  0.11650681744E+02  0.24096733513E+03  0.93937369780E+02  0.28748952055E+03  0.12500000000E+03 0.  0.
         21    1    1    2  503  502  0.20115789895E+02  0.99139430299E+01 -0.18474538161E+02  0.29055805440E+02  0.00000000000E+00 0. -1.
          1    1    1    2  501    0 -0.31766471640E+02 -0.25088127816E+03 -0.14836643027E+03  0.29319468290E+03  0.00000000000E+00 0.  1.
<mgrwt>
<rscale>  4 0.27472098E+03</rscale>
<asrwt>0</asrwt>
<pdfrwt beam="1">  1       21 0.41295108E-01 0.27472098E+03</pdfrwt>
<pdfrwt beam="2">  1        1 0.52511047E-01 0.27472098E+03</pdfrwt>
<totfact> 0.44982146E+03</totfact>
</mgrwt>
</event>
<event>
 5    0  0.1141006E+000  0.5225632E+03  0.7546771E-02  0.1009920E+00
         21   -1    0    0  501  502  0.00000000000E+00  0.00000000000E+00  0.39200225133E+03  0.39200225133E+03  0.00000000000E+00 0. -1.
          2   -1    0    0  503    0 -0.00000000000E+00 -0.00000000000E+00 -0.12533442422E+04  0.12533442422E+04  0.00000000000E+00 0.  1.
         25    1    1    2    0    0  0.46690278943E+03  0.98122861942E+02  0.14272009958E+03  0.51343971178E+03  0.12500000000E+03 0.  0.
         21    1    1    2  503  502 -0.12327221211E+03  0.67789443692E+02 -0.28756032162E+03  0.32012870150E+03  0.00000000000E+00 0. -1.
          2    1    1    2  501    0 -0.34363057731E+03 -0.16591230563E+03 -0.71650176878E+03  0.81177808020E+03  0.00000000000E+00 0.  1.
<mgrwt>
<rscale>  4 0.51506377E+03</rscale>
<asrwt>0</asrwt>
<pdfrwt beam="1">  1       21 0.60308040E-01 0.52256318E+03</pdfrwt>
<pdfrwt beam="2">  1        2 0.19282219E+00 0.52256318E+03</pdfrwt>
<totfact> 0.53467348E+02</totfact>
</mgrwt>
</event>
<event>
 5    0  0.1141006E+000  0.2683045E+03  0.7546771E-02  0.1102254E+00
         21   -1    0    0  501  502  0.00000000000E+00  0.00000000000E+00  0.31909772928E+03  0.31909772928E+03  0.00000000000E+00 0.  1.
          2   -1    0    0  503    0 -0.00000000000E+00 -0.00000000000E+00 -0.12661806588E+04  0.12661806588E+04  0.00000000000E+00 0.  1.
         25    1    1    2    0    0  0.36016574259E+02 -0.24401161580E+03  0.23361263187E+03  0.36199271268E+03  0.12500000000E+03 0.  0.
         21    1    1    2  503  502  0.19145785778E+02  0.13441755874E+02 -0.49952234698E+01  0.23920580502E+02  0.00000000000E+00 0. -1.
          2    1    1    2  501    0 -0.55162360037E+02  0.23056985993E+03 -0.11757003379E+04  0.11993650949E+04  0.00000000000E+00 0.  1.
<mgrwt>
<rscale>  4 0.26830449E+03</rscale>
<asrwt>0</asrwt>
<pdfrwt beam="1">  1       21 0.49091958E-01 0.26830449E+03</pdfrwt>
<pdfrwt beam="2">  1        2 0.19479702E+00 0.26830449E+03</pdfrwt>
<totfact> 0.89068167E+02</totfact>
</mgrwt>
</event>
<event>
 5    0  0.1141006E+000  0.4923093E+03  0.7546771E-02  0.1015806E+00
          2   -1    0    0  503    0 -0.00000000000E+00  0.00000000000E+00  0.12055981387E+04  0.12055981387E+04  0.00000000000E+00 0.  1.
         21   -1    0    0  501  502  0.00000000000E+00 -0.00000000000E+00 -0.75825764404E+03  0.75825764404E+03  0.00000000000E+00 0.  1.
         25    1    1    2    0    0  0.90955899893E+02  0.46477840894E+03 -0.59819562404E+03  0.77314613739E+03  0.12500000000E+03 0.  0.
         21    1    1    2  503  502 -0.12242554298E+01  0.29306714423E+02  0.23778467880E+03  0.23958701088E+03  0.00000000000E+00 0.  1.
          2    1    1    2  501    0 -0.89731644463E+02 -0.49408512336E+03  0.80775143991E+03  0.95112263448E+03  0.00000000000E+00 0.  1.
<mgrwt>
<rscale>  4 0.49230926E+03</rscale>
<asrwt>0</asrwt>
<pdfrwt beam="1">  1       21 0.11665502E+00 0.49230926E+03</pdfrwt>
<pdfrwt beam="2">  1        2 0.18547664E+00 0.49230926E+03</pdfrwt>
<totfact> 0.12209458E+02</totfact>
</mgrwt>
</event>
<event>
 5    0  0.1141006E+000  0.2676732E+03  0.7546771E-02  0.1102619E+00
          1   -1    0    0  503    0 -0.00000000000E+00  0.00000000000E+00  0.91573439920E+03  0.91573439920E+03  0.00000000000E+00 0. -1.
         21   -1    0    0  501  502  0.00000000000E+00 -0.00000000000E+00 -0.19183993063E+03  0.19183993063E+03  0.00000000000E+00 0. -1.
         25    1    1    2    0    0  0.18699106756E+03  0.14072147094E+03  0.47124520310E+02  0.26946968688E+03  0.12500000000E+03 0.  0.
         21    1    1    2  503  502 -0.12382602028E+03  0.14016152584E+03  0.38598799035E+03  0.42891125576E+03  0.00000000000E+00 0. -1.
          1    1    1    2  501    0 -0.63165047278E+02 -0.28088299678E+03  0.29078195791E+03  0.40919338719E+03  0.00000000000E+00 0. -1.
<mgrwt>
<rscale>  4 0.26767318E+03</rscale>
<asrwt>0</asrwt>
<pdfrwt beam="1">  1       21 0.29513836E-01 0.26767318E+03</pdfrwt>
<pdfrwt beam="2">  1        1 0.14088221E+00 0.26767318E+03</pdfrwt>
<totfact> 0.22207769E+03</totfact>
</mgrwt>
</event>
<event>
 5    0  0.1141006E+000  0.4071207E+03  0.7546771E-02  0.1041342E+00
         21   -1    0    0  501  502  0.00000000000E+00  0.00000000000E+00  0.18722680948E+03  0.18722680948E+03  0.00000000000E+00 0. -1.
          2   -1    0    0  503    0 -0.00000000000E+00 -0.00000000000E+00 -0.11002730117E+04  0.11002730117E+04  0.00000000000E+00 0.  1.
         25    1    1    2    0    0 -0.33968192603E+03 -0.16500411220E+03 -0.20166598507E+03  0.44598692520E+03  0.12500000000E+03 0.  0.
         21    1    1    2  503  502 -0.22075651393E+02 -0.22719299916E+02 -0.11418579965E+03  0.11849851398E+03  0.00000000000E+00 0.  1.
          2    1    1    2  501    0  0.36175757743E+03  0.18772341212E+03 -0.59719441748E+03  0.72301438199E+03  0.00000000000E+00 0.  1.
<mgrwt>
<rscale>  4 0.40712073E+03</rscale>
<asrwt>0</asrwt>
<pdfrwt beam="1">  1       21 0.28804125E-01 0.40712073E+03</pdfrwt>
<pdfrwt beam="2">  1        2 0.16927277E+00 0.40712073E+03</pdfrwt>
<totfact> 0.31365382E+03</totfact>
</mgrwt>
</event>
<event>
 5    0  0.1141006E+000  0.2452504E+03  0.7546771E-02  0.1116344E+00
         21   -1    0    0  501  502  0.00000000000E+00  0.00000000000E+00  0.18211289908E+03  0.18211289908E+03  0.00000000000E+00 0.  1.
          2   -1    0    0  503    0 -0.00000000000E+00 -0.00000000000E+00 -0.58968564911E+03  0.58968564911E+03  0.00000000000E+00 0.  1.
         25    1    1    2    0    0  0.20220903690E+03  0.60284911332E+02  0.63889444004E+02  0.25343564507E+03  0.12500000000E+03 0.  0.
         21    1    1    2  503  502 -0.27344124320E+02 -0.23021125083E+02 -0.61955952869E+02  0.71527710929E+02  0.00000000000E+00 0.  1.
          2    1    1    2  501    0 -0.17486491258E+03 -0.37263786250E+02 -0.40950624117E+03  0.44683519218E+03  0.00000000000E+00 0.  1.
<mgrwt>
<rscale>  4 0.24525041E+03</rscale>
<asrwt>0</asrwt>
<pdfrwt beam="1">  1       21 0.28017370E-01 0.24525041E+03</pdfrwt>
<pdfrwt beam="2">  1        2 0.90720867E-01 0.24525041E+03</pdfrwt>
<totfact> 0.77635698E+03</totfact>
</mgrwt>
</event>
<event>
 5    0  0.1141006E+000  0.2660068E+03  0.7546771E-02  0.1103587E+00
          1   -1    0    0  503    0 -0.00000000000E+00  0.00000000000E+00  0.39359441145E+03  0.39359441145E+03  0.00000000000E+00 0.  1.
         21   -1    0    0  501  502  0.00000000000E+00 -0.00000000000E+00 -0.23553653614E+04  0.23553653614E+04  0.00000000000E+00 0.  1.
         25    1    1    2    0    0  0.25286953609E+03  0.34977357800E+02 -0.15777489258E+04  0.16031478692E+04  0.12500000000E+03 0.  0.
         21    1    1    2  503  502 -0.39894623431E+02 -0.70096791271E+02  0.36112963766E+03  0.37002669677E+03  0.00000000000E+00 0.  1.
          1    1    1    2  501    0 -0.21297491266E+03  0.35119433471E+02 -0.74515166186E+03  0.77578520687E+03  0.00000000000E+00 0.  1.
<mgrwt>
<rscale>  4 0.26600676E+03</rscale>
<asrwt>0</asrwt>
<pdfrwt beam="1">  1       21 0.36236390E+00 0.26600676E+03</pdfrwt>
<pdfrwt beam="2">  1        1 0.60552987E-01 0.26600676E+03</pdfrwt>
<totfact> 0.91039801E+00</totfact>
</mgrwt>
</event>
<event>
 5    0  0.1141006E+000  0.3569182E+03  0.7546771E-02  0.1059811E+00
          2   -1    0    0  503    0 -0.00000000000E+00  0.00000000000E+00  0.24275263201E+04  0.24275263201E+04  0.00000000000E+00 0. -1.
         21   -1    0    0  501  502  0.00000000000E+00 -0.00000000000E+00 -0.15130284661E+03  0.15130284661E+03  0.00000000000E+00 0. -1.
         25    1    1    2    0    0  0.30676330503E+03 -0.14186699162E+03  0.18784516018E+03  0.40637516266E+03  0.12500000000E+03 0.  0.
         21    1    1    2  503  502 -0.17976885863E+02 -0.11086776645E+02  0.14941148468E+04  0.14942641200E+04  0.00000000000E+00 0. -1.
          2    1    1    2  501    0 -0.28878641916E+03  0.15295376827E+03  0.59426346653E+03  0.67818988401E+03  0.00000000000E+00 0. -1.
<mgrwt>
<rscale>  4 0.35691816E+03</rscale>
<asrwt>0</asrwt>
<pdfrwt beam="1">  1       21 0.23277363E-01 0.35691816E+03</pdfrwt>
<pdfrwt beam="2">  1        2 0.37346556E+00 0.35691816E+03</pdfrwt>
<totfact> 0.90977112E+02</totfact>
</mgrwt>
</event>
<event>
 5    0  0.1141006E+000  0.2534579E+03  0.7546771E-02  0.1111139E+00
         21   -1    0    0  501  502  0.00000000000E+00  0.00000000000E+00  0.70794077759E+02  0.70794077759E+02  0.00000000000E+00 0.  1.
          2   -1    0    0  503    0 -0.00000000000E+00 -0.00000000000E+00 -0.13739327010E+04  0.13739327010E+04  0.00000000000E+00 0.  1.
         25    1    1    2    0    0  0.20751774035E+03 -0.56818073057E+02 -0.23975198718E+03  0.34554004304E+03  0.12500000000E+03 0.  0.
         21    1    1    2  503  502  0.14988549166E+02 -0.20047085781E+02 -0.28201533345E+03  0.28312398442E+03  0.00000000000E+00 0.  1.
          2    1    1    2  501    0 -0.22250628951E+03  0.76865158838E+02 -0.78137130259E+03  0.81606275128E+03  0.00000000000E+00 0.  1.
<mgrwt>
<rscale>  4 0.25345789E+03</rscale>
<asrwt>0</asrwt>
<pdfrwt beam="1">  1       21 0.10891398E-01 0.25345789E+03</pdfrwt>
<pdfrwt beam="2">  1        2 0.21137423E+00 0.25345789E+03</pdfrwt>
<totfact> 0.14045167E+04</totfact>
</mgrwt>
</event>
<event>
 5    0  0.1141006E+000  0.3938943E+03  0.7546771E-02  0.1045915E+00
          4   -1    0    0  503    0 -0.00000000000E+00  0.00000000000E+00  0.18258299512E+04  0.18258299512E+04  0.00000000000E+00 0.  1.
         21   -1    0    0  501  502  0.00000000000E+00 -0.00000000000E+00 -0.21578697655E+03  0.21578697655E+03  0.00000000000E+00 0.  1.
         25    1    1    2    0    0  0.80345581076E+02  0.33476475729E+03  0.19714280559E+03  0.41594848349E+03  0.12500000000E+03 0.  0.
         21    1    1    2  503  502 -0.50423282568E+02  0.80218774225E+02  0.11025351062E+04  0.11065989425E+04  0.00000000000E+00 0.  1.
          4    1    1    2  501    0 -0.29922298508E+02 -0.41498353151E+03  0.31036506280E+03  0.51906950168E+03  0.00000000000E+00 0.  1.
<mgrwt>
<rscale>  4 0.39389433E+03</rscale>
<asrwt>0</asrwt>
<pdfrwt beam="1">  1       21 0.33197998E-01 0.39389433E+03</pdfrwt>
<pdfrwt beam="2">  1        4 0.28089691E+00 0.39389433E+03</pdfrwt>
<totfact> 0.16205319E+01</totfact>
</mgrwt>
</event>
<event>
 5    0  0.1141006E+000  0.2610566E+03  0.7546771E-02  0.1106510E+00
         21   -1    0    0  501  502  0.00000000000E+00  0.00000000000E+00  0.88255870333E+02  0.88255870333E+02  0.00000000000E+00 0. -1.
          2   -1    0    0  503    0 -0.00000000000E+00 -0.00000000000E+00 -0.14631514001E+04  0.14631514001E+04  0.00000000000E+00 0.  1.
         25    1    1    2    0    0  0.62101193293E+02  0.22298546822E+03 -0.15522863566E+03  0.30545049775E+03  0.12500000000E+03 0.  0.
         21    1    1    2  503  502  0.16698101129E+02 -0.19343623554E+02 -0.50754066077E+02  0.56824093278E+02  0.00000000000E+00 0. -1.
          2    1    1    2  501    0 -0.78799294422E+02 -0.20364184467E+03 -0.11689128280E+04  0.11891326794E+04  0.00000000000E+00 0.  1.
<mgrwt>
<rscale>  4 0.26105664E+03</rscale>
<asrwt>0</asrwt>
<pdfrwt beam="1">  1       21 0.13577828E-01 0.26105664E+03</pdfrwt>
<pdfrwt beam="2">  1        2 0.22510019E+00 0.26105664E+03</pdfrwt>
<totfact> 0.84266811E+03</totfact>
</mgrwt>
</event>
<event>
 5    0  0.1141006E+000  0.3094065E+03  0.7546771E-02  0.1080631E+00
         21   -1    0    0  501  502  0.00000000000E+00  0.00000000000E+00  0.10594088887E+03  0.10594088887E+03  0.00000000000E+00 0. -1.
          2   -1    0    0  503    0 -0.00000000000E+00 -0.00000000000E+00 -0.16072473569E+04  0.16072473569E+04  0.00000000000E+00 0.  1.
         25    1    1    2    0    0 -0.57386539384E+01  0.24203279068E+03 -0.14635696433E+03  0.30928654177E+03  0.12500000000E+03 0.  0.
         21    1    1    2  503  502 -0.96185286902E+01  0.48779809585E+02 -0.66962396834E+02  0.83402329147E+02  0.00000000000E+00 0.  1.
          2    1    1    2  501    0  0.15357182629E+02 -0.29081260026E+03 -0.12879871069E+04  0.13204993749E+04  0.00000000000E+00 0.  1.
<mgrwt>
<rscale>  4 0.30940651E+03</rscale>
<asrwt>0</asrwt>
<pdfrwt beam="1">  1       21 0.16298599E-01 0.30940651E+03</pdfrwt>
<pdfrwt beam="2">  1        2 0.24726881E+00 0.30940651E+03</pdfrwt>
<totfact> 0.49724263E+03</totfact>
</mgrwt>
</event>
<event>
 5    0  0.1141006E+000  0.2530294E+03  0.7546771E-02  0.1111405E+00
          1   -1    0    0  503    0 -0.00000000000E+00  0.00000000000E+00  0.17627164027E+04  0.17627164027E+04  0.00000000000E+00 0.  1.
         21   -1    0    0  501  502  0.00000000000E+00 -0.00000000000E+00 -0.44221357116E+02  0.44221357116E+02  0.00000000000E+00 0.  1.
         25    1    1    2    0    0  0.13213657448E+03  0.17331196076E+03  0.46166189272E+03  0.52559852859E+03  0.12500000000E+03 0.  0.
         21    1    1    2  503  502  0.21903816942E+02 -0.86439299438E+01  0.14072055898E+03  0.14267715459E+03  0.00000000000E+00 0. -1.
          1    1    1    2  501    0 -0.15404039143E+03 -0.16466803082E+03  0.11161125939E+04  0.11386620767E+04  0.00000000000E+00 0.  1.
<mgrwt>
<rscale>  4 0.25302938E+03</rscale>
<asrwt>0</asrwt>
<pdfrwt beam="1">  1       21 0.68032871E-02 0.25302938E+03</pdfrwt>
<pdfrwt beam="2">  1        1 0.27118708E+00 0.25302938E+03</pdfrwt>
<totfact> 0.85387361E+03</totfact>
</mgrwt>
</event>
<event>
 5    0  0.1141006E+000  0.5689884E+03  0.7546771E-02  0.9990303E-01
          1   -1    0    0  503    0 -0.00000000000E+00  0.00000000000E+00  0.37177789713E+04  0.37177789713E+04  0.00000000000E+00 0.  1.
         21   -1    0    0  501  502  0.00000000000E+00 -0.00000000000E+00 -0.88408297718E+03  0.88408297718E+03  0.00000000000E+00 0.  1.
         25    1    1    2    0    0  0.38391760751E+03  0.35380481661E+03 -0.77821028347E+03  0.94541357241E+03  0.12500000000E+03 0.  0.
         21    1    1    2  503  502 -0.11562821239E+02 -0.13800847008E+03  0.84635483458E+03  0.85761095065E+03  0.00000000000E+00 0. -1.
          1    1    1    2  501    0 -0.37235478627E+03 -0.21579634653E+03  0.27655514430E+04  0.27988374254E+04  0.00000000000E+00 0.  1.
<mgrwt>
<rscale>  4 0.56077476E+03</rscale>
<asrwt>0</asrwt>
<pdfrwt beam="1">  1       21 0.13601277E+00 0.56898837E+03</pdfrwt>
<pdfrwt beam="2">  1        1 0.57196599E+00 0.56898837E+03</pdfrwt>
<totfact> 0.69374472E-01</totfact>
</mgrwt>
</event>
<event>
 5    0  0.1141006E+000  0.2427333E+03  0.7546771E-02  0.1117985E+00
         21   -1    0    0  501  502  0.00000000000E+00  0.00000000000E+00  0.11360671750E+03  0.11360671750E+03  0.00000000000E+00 0.  1.
          2   -1    0    0  503    0 -0.00000000000E+00 -0.00000000000E+00 -0.13073148736E+04  0.13073148736E+04  0.00000000000E+00 0.  1.
         25    1    1    2    0    0 -0.19419900010E+03 -0.74707415773E+02 -0.38050611446E+02  0.24569757557E+03  0.12500000000E+03 0.  0.
         21    1    1    2  503  502  0.42168153384E+02 -0.28637684443E+01 -0.26701670559E+03  0.27034103535E+03  0.00000000000E+00 0.  1.
          2    1    1    2  501    0  0.15203084671E+03  0.77571184217E+02 -0.88864083908E+03  0.90488298020E+03  0.00000000000E+00 0.  1.
<mgrwt>
<rscale>  4 0.24273329E+03</rscale>
<asrwt>0</asrwt>
<pdfrwt beam="1">  1       21 0.17477956E-01 0.24273329E+03</pdfrwt>
<pdfrwt beam="2">  1        2 0.20112537E+00 0.24273329E+03</pdfrwt>
<totfact> 0.64808390E+03</totfact>
</mgrwt>
</event>
<event>
 5    0  0.1141006E+000  0.2649211E+03  0.7546771E-02  0.1104222E+00
          2   -1    0    0  503    0 -0.00000000000E+00  0.00000000000E+00  0.69676547349E+03  0.69676547349E+03  0.00000000000E+00 0.  1.
         21   -1    0    0  501  502  0.00000000000E+00 -0.00000000000E+00 -0.18760418735E+03  0.18760418735E+03  0.00000000000E+00 0.  1.
         25    1    1    2    0    0 -0.13556626666E+03 -0.19618094520E+03 -0.46994126537E+02  0.27331048982E+03  0.12500000000E+03 0.  0.
         21    1    1    2  503  502  0.48430002806E+01  0.25713002601E+02  0.14319303436E+03  0.14556393180E+03  0.00000000000E+00 0. -1.
          2    1    1    2  501    0  0.13072326638E+03  0.17046794260E+03  0.41296237832E+03  0.46549523922E+03  0.00000000000E+00 0.  1.
<mgrwt>
<rscale>  4 0.26492110E+03</rscale>
<asrwt>0</asrwt>
<pdfrwt beam="1">  1       21 0.28862183E-01 0.26492110E+03</pdfrwt>
<pdfrwt beam="2">  1        2 0.10719469E+00 0.26492110E+03</pdfrwt>
<totfact> 0.59813691E+03</totfact>
</mgrwt>
</event>
<event>
 5    0  0.1141006E+000  0.2523125E+03  0.7546771E-02  0.1111852E+00
         21   -1    0    0  501  502  0.00000000000E+00  0.00000000000E+00  0.35023278091E+02  0.35023278091E+02  0.00000000000E+00 0.  1.
          2   -1    0    0  503    0 -0.00000000000E+00 -0.00000000000E+00 -0.24212422667E+04  0.24212422667E+04  0.00000000000E+00 0. -1.
         25    1    1    2    0    0  0.13095079642E+03  0.17268096687E+03 -0.58638424555E+03  0.63752514525E+03  0.12500000000E+03 0.  0.
         21    1    1    2  503  502 -0.10379866188E+02  0.17566804851E+02 -0.43229651503E+03  0.43277778497E+03  0.00000000000E+00 0. -1.
          2    1    1    2  501    0 -0.12057093023E+03 -0.19024777172E+03 -0.13675382281E+04  0.13859626146E+04  0.00000000000E+00 0. -1.
<mgrwt>
<rscale>  4 0.25231251E+03</rscale>
<asrwt>0</asrwt>
<pdfrwt beam="1">  1       21 0.53881952E-02 0.25231251E+03</pdfrwt>
<pdfrwt beam="2">  1        2 0.37249891E+00 0.25231251E+03</pdfrwt>
<totfact> 0.13381528E+04</totfact>
</mgrwt>
</event>
<event>
 5    0  0.1141006E+000  0.2484439E+03  0.7546771E-02  0.1114292E+00
         21   -1    0    0  501  502  0.00000000000E+00  0.00000000000E+00  0.13876420415E+03  0.13876420415E+03  0.00000000000E+00 0.  1.
          2   -1    0    0  503    0 -0.00000000000E+00 -0.00000000000E+00 -0.10633573798E+04  0.10633573798E+04  0.00000000000E+00 0. -1.
         25    1    1    2    0    0  0.11881465995E+03  0.18267831216E+03 -0.19687160398E+01  0.25123129780E+03  0.12500000000E+03 0.  0.
         21    1    1    2  503  502 -0.12957080449E+02 -0.16867719812E+02 -0.22671431615E+03  0.22770987473E+03  0.00000000000E+00 0.  1.
          2    1    1    2  501    0 -0.10585757951E+03 -0.16581059234E+03 -0.69591014349E+03  0.72318041144E+03  0.00000000000E+00 0. -1.
<mgrwt>
<rscale>  4 0.24844392E+03</rscale>
<asrwt>0</asrwt>
<pdfrwt beam="1">  1       21 0.21348339E-01 0.24844392E+03</pdfrwt>
<pdfrwt beam="2">  1        2 0.16359344E+00 0.24844392E+03</pdfrwt>
<totfact> 0.61319412E+03</totfact>
</mgrwt>
</event>
<event>
 5    0  0.1250690E+000  0.2751882E+03  0.7546771E-02  0.1098346E+00
          2   -1    0    0  503    0 -0.00000000000E+00  0.00000000000E+00  0.18590326374E+04  0.18590326374E+04  0.00000000000E+00 0. -1.
         21   -1    0    0  501  502  0.00000000000E+00 -0.00000000000E+00 -0.72327646938E+03  0.72327646938E+03  0.00000000000E+00 0. -1.
         25    1    1    2    0    0 -0.11575609362E+03 -0.22442682081E+03 -0.67548395822E+03  0.73189510787E+03  0.12500000000E+03 0.  0.
         21    1    1    2  503  502  0.34967977624E+02 -0.69782598367E+01  0.16986492129E+02  0.39496790810E+02  0.00000000000E+00 0. -1.
          2    1    1    2  501    0  0.80788115999E+02  0.23140508065E+03  0.17942536341E+04  0.18109172081E+04  0.00000000000E+00 0. -1.
<mgrwt>
<rscale>  4 0.27518817E+03</rscale>
<asrwt>0</asrwt>
<pdfrwt beam="1">  1       21 0.11127330E+00 0.27518817E+03</pdfrwt>
<pdfrwt beam="2">  1        2 0.28600502E+00 0.27518817E+03</pdfrwt>
<totfact> 0.67307143E+01</totfact>
</mgrwt>
</event>
<event>
 5    0  0.1141006E+000  0.3121798E+03  0.7546771E-02  0.1079306E+00
         21   -1    0    0  501  502  0.00000000000E+00  0.00000000000E+00  0.35482210928E+03  0.35482210928E+03  0.00000000000E+00 0.  1.
          1   -1    0    0  503    0 -0.00000000000E+00 -0.00000000000E+00 -0.60611772582E+03  0.60611772582E+03  0.00000000000E+00 0. -1.
         25    1    1    2    0    0  0.28200577292E+03  0.47999495040E+02  0.23425751478E+03  0.39029833553E+03  0.12500000000E+03 0.  0.
         21    1    1    2  503  502 -0.40023471235E+02  0.24528024363E+02 -0.84357678651E+02  0.96538697817E+02  0.00000000000E+00 0. -1.
          1    1    1    2  501    0 -0.24198230169E+03 -0.72527519403E+02 -0.40119545266E+03  0.47410280176E+03  0.00000000000E+00 0. -1.
<mgrwt>
<rscale>  4 0.31217977E+03</rscale>
<asrwt>0</asrwt>
<pdfrwt beam="1">  1       21 0.54588017E-01 0.31217977E+03</pdfrwt>
<pdfrwt beam="2">  1        1 0.93248880E-01 0.31217977E+03</pdfrwt>
<totfact> 0.11615583E+03</totfact>
</mgrwt>
</event>
<event>
 5    0  0.1141006E+000  0.3497441E+03  0.7546771E-02  0.1062720E+00
          2   -1    0    0  503    0 -0.00000000000E+00  0.00000000000E+00  0.99260355491E+03  0.99260355491E+03  0.00000000000E+00 0.  1.
         21   -1    0    0  501  502  0.00000000000E+00 -0.00000000000E+00 -0.30711393755E+03  0.30711393755E+03  0.00000000000E+00 0. -1.
         25    1    1    2    0    0 -0.16280741117E+03 -0.28317783116E+03 -0.16480441688E+03  0.38662828791E+03  0.12500000000E+03 0.  0.
         21    1    1    2  503  502  0.18603828398E+02  0.67116139130E+02  0.13163682956E+03  0.14892593280E+03  0.00000000000E+00 0.  1.
          2    1    1    2  501    0  0.14420358277E+03  0.21606169203E+03  0.71865720469E+03  0.76416327175E+03  0.00000000000E+00 0.  1.
<mgrwt>
<rscale>  4 0.34974410E+03</rscale>
<asrwt>0</asrwt>
<pdfrwt beam="1">  1       21 0.47248299E-01 0.34974410E+03</pdfrwt>
<pdfrwt beam="2">  1        2 0.15270824E+00 0.34974410E+03</pdfrwt>
<totfact> 0.13550667E+03</totfact>
</mgrwt>
</event>
<event>
 5    0  0.1141006E+000  0.4782792E+03  0.7546771E-02  0.1019929E+00
         21   -1    0    0  503  502  0.00000000000E+00  0.00000000000E+00  0.78920274700E+03  0.78920274700E+03  0.00000000000E+00 0. -1.
         -1   -1    0    0    0  501 -0.00000000000E+00 -0.00000000000E+00 -0.23926560712E+04  0.23926560712E+04  0.00000000000E+00 0.  1.
         25    1    1    2    0    0  0.78886954598E+02  0.45001611039E+03  0.69118059363E+03  0.83791005736E+03  0.12500000000E+03 0.  0.
         21    1    1    2  503  501 -0.37826790427E+02 -0.78327876724E+02 -0.23368161545E+03  0.24934558296E+03  0.00000000000E+00 0.  1.
         -1    1    1    2    0  502 -0.41060164171E+02 -0.37168823366E+03 -0.20609523024E+04  0.20946031779E+04  0.00000000000E+00 0.  1.
<mgrwt>
<rscale>  4 0.47712254E+03</rscale>
<asrwt>0</asrwt>
<pdfrwt beam="1">  1       21 0.12141581E+00 0.47827918E+03</pdfrwt>
<pdfrwt beam="2">  1       -1 0.36810093E+00 0.47827918E+03</pdfrwt>
<totfact> 0.56386741E-01</totfact>
</mgrwt>
</event>
<event>
 5    0  0.1141006E+000  0.2493757E+03  0.7546771E-02  0.1113700E+00
          2   -1    0    0  503    0 -0.00000000000E+00  0.00000000000E+00  0.88374189159E+03  0.88374189159E+03  0.00000000000E+00 0.  1.
         21   -1    0    0  501  502  0.00000000000E+00 -0.00000000000E+00 -0.12267767075E+03  0.12267767075E+03  0.00000000000E+00 0. -1.
         25    1    1    2    0    0  0.17363317358E+03  0.11534789524E+03  0.87761098563E+02  0.25841947745E+03  0.12500000000E+03 0.  0.
         21    1    1    2  503  502  0.91629960542E+01  0.26978105213E+02  0.34506747030E+03  0.34624173307E+03  0.00000000000E+00 0.  1.
          2    1    1    2  501    0 -0.18279616964E+03 -0.14232600045E+03  0.32823565198E+03  0.40175835183E+03  0.00000000000E+00 0.  1.
<mgrwt>
<rscale>  4 0.24937567E+03</rscale>
<asrwt>0</asrwt>
<pdfrwt beam="1">  1       21 0.18873488E-01 0.24937567E+03</pdfrwt>
<pdfrwt beam="2">  1        2 0.13596029E+00 0.24937567E+03</pdfrwt>
<totfact> 0.99957261E+03</totfact>
</mgrwt>
</event>
<event>
 5    0  0.1141006E+000  0.2536800E+03  0.7546771E-02  0.1111001E+00
         -2   -1    0    0    0  501 -0.00000000000E+00  0.00000000000E+00  0.10305189076E+04  0.10305189076E+04  0.00000000000E+00 0.  1.
         21   -1    0    0  503  502  0.00000000000E+00 -0.00000000000E+00 -0.10487104524E+03  0.10487104524E+03  0.00000000000E+00 0. -1.
         25    1    1    2    0    0 -0.36232019942E+02 -0.21080222226E+03  0.10793618854E+03  0.27023241289E+03  0.12500000000E+03 0.  0.
         21    1    1    2  503  501 -0.10400021453E+02 -0.32738076405E+02  0.88044915074E+02  0.94508460803E+02  0.00000000000E+00 0. -1.
         -2    1    1    2    0  502  0.46632041395E+02  0.24354029867E+03  0.72966675878E+03  0.77064907918E+03  0.00000000000E+00 0.  1.
<mgrwt>
<rscale>  4 0.25367999E+03</rscale>
<asrwt>0</asrwt>
<pdfrwt beam="1">  1       21 0.16134008E-01 0.25367999E+03</pdfrwt>
<pdfrwt beam="2">  1       -2 0.15854136E+00 0.25367999E+03</pdfrwt>
<totfact> 0.76637335E+02</totfact>
</mgrwt>
</event>
<event>
 5    0  0.1141006E+000  0.2518601E+03  0.7546771E-02  0.1112135E+00
         21   -1    0    0  501  502  0.00000000000E+00  0.00000000000E+00  0.51778231298E+02  0.51778231298E+02  0.00000000000E+00 0. -1.
          1   -1    0    0  503    0 -0.00000000000E+00 -0.00000000000E+00 -0.15388579048E+04  0.15388579048E+04  0.00000000000E+00 0.  1.
         25    1    1    2    0    0 -0.18126419941E+03  0.10716894545E+03 -0.40343562565E+03  0.47193982339E+03  0.12500000000E+03 0.  0.
         21    1    1    2  503  502 -0.19555817645E+02  0.11650584066E+02 -0.30482193601E+03  0.30567070319E+03  0.00000000000E+00 0.  1.
          1    1    1    2  501    0  0.20082001706E+03 -0.11881952952E+03 -0.77882211182E+03  0.81302560950E+03  0.00000000000E+00 0.  1.
<mgrwt>
<rscale>  4 0.25186008E+03</rscale>
<asrwt>0</asrwt>
<pdfrwt beam="1">  1       21 0.79658821E-02 0.25186008E+03</pdfrwt>
<pdfrwt beam="2">  1        1 0.23674736E+00 0.25186008E+03</pdfrwt>
<totfact> 0.90900824E+03</totfact>
</mgrwt>
</event>
<event>
 5    0  0.1141006E+000  0.2628912E+03  0.7546771E-02  0.1105419E+00
          1   -1    0    0  503    0 -0.00000000000E+00  0.00000000000E+00  0.47623164916E+02  0.47623164916E+02  0.00000000000E+00 0.  1.
         21   -1    0    0  501  502  0.00000000000E+00 -0.00000000000E+00 -0.15919976307E+04  0.15919976307E+04  0.00000000000E+00 0.  1.
         25    1    1    2    0    0 -0.20722999263E+03 -0.86716719145E+02 -0.85071022605E+03  0.88870520868E+03  0.12500000000E+03 0.  0.
         21    1    1    2  503  502 -0.40677239231E+01 -0.24563912253E+02 -0.10156836055E+02  0.26890397575E+02  0.00000000000E+00 0.  1.
          1    1    1    2  501    0  0.21129771656E+03  0.11128063140E+03 -0.68350740366E+03  0.72402518934E+03  0.00000000000E+00 0.  1.
<mgrwt>
<rscale>  4 0.26289117E+03</rscale>
<asrwt>0</asrwt>
<pdfrwt beam="1">  1       21 0.24492276E+00 0.26289117E+03</pdfrwt>
<pdfrwt beam="2">  1        1 0.73266395E-02 0.26289117E+03</pdfrwt>
<totfact> 0.70642505E+02</totfact>
</mgrwt>
</event>
<event>
 5    0  0.1141006E+000  0.2580095E+03  0.7546771E-02  0.1108345E+00
          2   -1    0    0  503    0 -0.00000000000E+00  0.00000000000E+00  0.95551271191E+03  0.95551271191E+03  0.00000000000E+00 0. -1.
         21   -1    0    0  501  502  0.00000000000E+00 -0.00000000000E+00 -0.87587823958E+02  0.87587823958E+02  0.00000000000E+00 0.  1.
         25    1    1    2    0    0  0.17539737443E+03  0.14205519338E+03  0.17714942432E+03  0.31297098182E+03  0.12500000000E+03 0.  0.
         21    1    1    2  503  502 -0.32379157396E+02 -0.14509567653E+02  0.20271078013E+03  0.20579260863E+03  0.00000000000E+00 0. -1.
          2    1    1    2  501    0 -0.14301821704E+03 -0.12754562572E+03  0.48806468351E+03  0.52433694542E+03  0.00000000000E+00 0. -1.
<mgrwt>
<rscale>  4 0.25800953E+03</rscale>
<asrwt>0</asrwt>
<pdfrwt beam="1">  1       21 0.13475051E-01 0.25800953E+03</pdfrwt>
<pdfrwt beam="2">  1        2 0.14700195E+00 0.25800953E+03</pdfrwt>
<totfact> 0.16695692E+04</totfact>
</mgrwt>
</event>
<event>
 5    0  0.1141006E+000  0.3441794E+03  0.7546771E-02  0.1065030E+00
          2   -1    0    0  503    0 -0.00000000000E+00  0.00000000000E+00  0.55654425979E+03  0.55654425979E+03  0.00000000000E+00 0.  1.
         21   -1    0    0  501  502  0.00000000000E+00 -0.00000000000E+00 -0.72973052326E+03  0.72973052326E+03  0.00000000000E+00 0. -1.
         25    1    1    2    0    0 -0.30095647135E+03  0.13077074260E+03 -0.50401045317E+03  0.61426974667E+03  0.12500000000E+03 0.  0.
         21    1    1    2  503  502  0.33936234679E+02  0.12688163256E+02  0.36515637480E+03  0.36694936376E+03  0.00000000000E+00 0.  1.
          2    1    1    2  501    0  0.26702023667E+03 -0.14345890585E+03 -0.34332185097E+02  0.30505567261E+03  0.00000000000E+00 0.  1.
<mgrwt>
<rscale>  4 0.34417945E+03</rscale>
<asrwt>0</asrwt>
<pdfrwt beam="1">  1       21 0.11226623E+00 0.34417945E+03</pdfrwt>
<pdfrwt beam="2">  1        2 0.85622194E-01 0.34417945E+03</pdfrwt>
<totfact> 0.39776412E+02</totfact>
</mgrwt>
</event>
<event>
 5    0  0.1141006E+000  0.2996803E+03  0.7546771E-02  0.1085401E+00
          2   -1    0    0  503    0 -0.00000000000E+00  0.00000000000E+00  0.71350405966E+03  0.71350405966E+03  0.00000000000E+00 0. -1.
         21   -1    0    0  501  502  0.00000000000E+00 -0.00000000000E+00 -0.13582920981E+03  0.13582920981E+03  0.00000000000E+00 0. -1.
         25    1    1    2    0    0 -0.93017972957E+02  0.25143182933E+03  0.23475177245E+03  0.37762905445E+03  0.12500000000E+03 0.  0.
         21    1    1    2  503  502 -0.28822958990E+02 -0.22506739541E+01  0.96295141177E+02  0.10054144773E+03  0.00000000000E+00 0.  1.
          2    1    1    2  501    0  0.12184093195E+03 -0.24918115538E+03  0.24662793622E+03  0.37116276729E+03  0.00000000000E+00 0. -1.
<mgrwt>
<rscale>  4 0.29968032E+03</rscale>
<asrwt>0</asrwt>
<pdfrwt beam="1">  1       21 0.20896802E-01 0.29968032E+03</pdfrwt>
<pdfrwt beam="2">  1        2 0.10976985E+00 0.29968032E+03</pdfrwt>
<totfact> 0.10731476E+04</totfact>
</mgrwt>
</event>
<event>
 5    0  0.1141006E+000  0.2574845E+03  0.7546771E-02  0.1108664E+00
         21   -1    0    0  501  502  0.00000000000E+00  0.00000000000E+00  0.37223647663E+02  0.37223647663E+02  0.00000000000E+00 0. -1.
          2   -1    0    0  503    0 -0.00000000000E+00 -0.00000000000E+00 -0.28350914682E+04  0.28350914682E+04  0.00000000000E+00 0.  1.
         25    1    1    2    0    0 -0.38183676444E+02  0.25627141418E+03 -0.79094074246E+03  0.84163251420E+03  0.12500000000E+03 0.  0.
         21    1    1    2  503  502  0.48101076332E+02 -0.39049728436E+02 -0.17015152110E+03  0.18108046545E+03  0.00000000000E+00 0.  1.
          2    1    1    2  501    0 -0.99173998882E+01 -0.21722168574E+03 -0.18367755569E+04  0.18496021362E+04  0.00000000000E+00 0.  1.
<mgrwt>
<rscale>  4 0.25748454E+03</rscale>
<asrwt>0</asrwt>
<pdfrwt beam="1">  1       21 0.57267122E-02 0.25748454E+03</pdfrwt>
<pdfrwt beam="2">  1        2 0.43616814E+00 0.25748454E+03</pdfrwt>
<totfact> 0.70760818E+03</totfact>
</mgrwt>
</event>
<event>
 5    0  0.1141006E+000  0.2477262E+03  0.7546771E-02  0.1114750E+00
         21   -1    0    0  503  502  0.00000000000E+00  0.00000000000E+00  0.15039609833E+04  0.15039609833E+04  0.00000000000E+00 0. -1.
         -3   -1    0    0    0  501 -0.00000000000E+00 -0.00000000000E+00 -0.13949838069E+03  0.13949838069E+03  0.00000000000E+00 0. -1.
         25    1    1    2    0    0  0.20969708847E+03 -0.16661871114E+02  0.13262141525E+04  0.13485990750E+04  0.12500000000E+03 0.  0.
         21    1    1    2  503  501  0.35393365302E+02 -0.25404140920E+02  0.26047029911E+01  0.43644531856E+02  0.00000000000E+00 0. -1.
         -3    1    1    2    0  502 -0.24509045377E+03  0.42066012033E+02  0.35643747095E+02  0.25121575708E+03  0.00000000000E+00 0. -1.
<mgrwt>
<rscale>  4 0.24772625E+03</rscale>
<asrwt>0</asrwt>
<pdfrwt beam="1">  1       21 0.23137860E+00 0.24772625E+03</pdfrwt>
<pdfrwt beam="2">  1       -3 0.21461290E-01 0.24772625E+03</pdfrwt>
<totfact> 0.80963956E+01</totfact>
</mgrwt>
</event>
<event>
 5    0  0.1141006E+000  0.3244175E+03  0.7546771E-02  0.1073634E+00
         -1   -1    0    0    0  501 -0.00000000000E+00  0.00000000000E+00  0.17582602459E+03  0.17582602459E+03  0.00000000000E+00 0. -1.
         21   -1    0    0  503  502  0.00000000000E+00 -0.00000000000E+00 -0.68716695105E+03  0.68716695105E+03  0.00000000000E+00 0.  1.
         25    1    1    2    0    0 -0.29355639259E+03  0.58705804656E+02 -0.44807498201E+03  0.55318886163E+03  0.12500000000E+03 0.  0.
         21    1    1    2  503  501  0.28396647460E+02  0.84381955745E+01 -0.88225232392E+01  0.30909701516E+02  0.00000000000E+00 0. -1.
         -1    1    1    2    0  502  0.26515974513E+03 -0.67144000231E+02 -0.54443421216E+02  0.27889441249E+03  0.00000000000E+00 0. -1.
<mgrwt>
<rscale>  4 0.32441752E+03</rscale>
<asrwt>0</asrwt>
<pdfrwt beam="1">  1       21 0.10571799E+00 0.32441752E+03</pdfrwt>
<pdfrwt beam="2">  1       -1 0.27050158E-01 0.32441752E+03</pdfrwt>
<totfact> 0.76086295E+02</totfact>
</mgrwt>
</event>
<event>
 5    0  0.1141006E+000  0.2790244E+03  0.7546771E-02  0.1096223E+00
         21   -1    0    0  501  502  0.00000000000E+00  0.00000000000E+00  0.19190862378E+03  0.19190862378E+03  0.00000000000E+00 0.  1.
          2   -1    0    0  503    0 -0.00000000000E+00 -0.00000000000E+00 -0.72573913204E+03  0.72573913204E+03  0.00000000000E+00 0.  1.
         25    1    1    2    0    0 -0.54801915557E+02 -0.24336470039E+03  0.46997662351E+02  0.28295478015E+03  0.12500000000E+03 0.  0.
         21    1    1    2  503  502  0.14625455177E+02  0.15355210694E+02 -0.82928297668E+02  0.85596664589E+02  0.00000000000E+00 0. -1.
          2    1    1    2  501    0  0.40176460380E+02  0.22800948969E+03 -0.49789987295E+03  0.54909631108E+03  0.00000000000E+00 0.  1.
<mgrwt>
<rscale>  4 0.27902442E+03</rscale>
<asrwt>0</asrwt>
<pdfrwt beam="1">  1       21 0.29524403E-01 0.27902442E+03</pdfrwt>
<pdfrwt beam="2">  1        2 0.11165218E+00 0.27902442E+03</pdfrwt>
<totfact> 0.54230647E+03</totfact>
</mgrwt>
</event>
<event>
 5    0  0.1141006E+000  0.3186990E+03  0.7546771E-02  0.1076250E+00
         -2   -1    0    0    0  501 -0.00000000000E+00  0.00000000000E+00  0.28194575088E+03  0.28194575088E+03  0.00000000000E+00 0.  1.
         21   -1    0    0  503  502  0.00000000000E+00 -0.00000000000E+00 -0.77239378336E+03  0.77239378336E+03  0.00000000000E+00 0. -1.
         25    1    1    2    0    0  0.23649022354E+03  0.16466814317E+03 -0.60114206107E+03  0.67826248664E+03  0.12500000000E+03 0.  0.
         21    1    1    2  503  501  0.16346896789E+02  0.34030664521E+02  0.14279638480E+02  0.40363538466E+02  0.00000000000E+00 0. -1.
         -2    1    1    2    0  502 -0.25283712033E+03 -0.19869880769E+03  0.96414390106E+02  0.33571350913E+03  0.00000000000E+00 0.  1.
<mgrwt>
<rscale>  4 0.31869903E+03</rscale>
<asrwt>0</asrwt>
<pdfrwt beam="1">  1       21 0.11882981E+00 0.31869903E+03</pdfrwt>
<pdfrwt beam="2">  1       -2 0.43376270E-01 0.31869903E+03</pdfrwt>
<totfact> 0.20997684E+02</totfact>
</mgrwt>
</event>
<event>
 5    0  0.1168726E+000  0.3333502E+03  0.7546771E-02  0.1069664E+00
         21   -1    0    0  501  502  0.00000000000E+00  0.00000000000E+00  0.11002193060E+04  0.11002193060E+04  0.00000000000E+00 0.  1.
          2   -1    0    0  503    0 -0.00000000000E+00 -0.00000000000E+00 -0.93706131397E+03  0.93706131397E+03  0.00000000000E+00 0. -1.
         25    1    1    2    0    0 -0.21429731525E+02  0.31221733515E+03  0.10230624195E+04  0.10771353731E+04  0.12500000000E+03 0.  0.
         21    1    1    2  503  502  0.14017719246E+01 -0.12229561943E+03 -0.57168888925E+02  0.13500542714E+03  0.00000000000E+00 0.  1.
          2    1    1    2  501    0  0.20027959600E+02 -0.18992171572E+03 -0.80273553855E+03  0.82513981974E+03  0.00000000000E+00 0. -1.
<mgrwt>
<rscale>  4 0.33335019E+03</rscale>
<asrwt>0</asrwt>
<pdfrwt beam="1">  1       21 0.16926451E+00 0.33335019E+03</pdfrwt>
<pdfrwt beam="2">  1        2 0.14416328E+00 0.33335019E+03</pdfrwt>
<totfact> 0.70836319E+01</totfact>
</mgrwt>
</event>
<event>
 5    0  0.1141006E+000  0.5324742E+03  0.7546771E-02  0.1005634E+00
         21   -1    0    0  501  502  0.00000000000E+00  0.00000000000E+00  0.11838439500E+04  0.11838439500E+04  0.00000000000E+00 0.  1.
          2   -1    0    0  503    0 -0.00000000000E+00 -0.00000000000E+00 -0.53154415803E+03  0.53154415803E+03  0.00000000000E+00 0.  1.
         25    1    1    2    0    0 -0.44338233070E+03  0.23848374893E+03  0.85013332135E+03  0.99589861620E+03  0.12500000000E+03 0.  0.
         21    1    1    2  503  502 -0.86472846413E+02  0.35637809619E+02 -0.10044031544E+02  0.94066408515E+02  0.00000000000E+00 0. -1.
          2    1    1    2  501    0  0.52985517711E+03 -0.27412155855E+03 -0.18778949788E+03  0.62542308327E+03  0.00000000000E+00 0.  1.
<mgrwt>
<rscale>  4 0.53247422E+03</rscale>
<asrwt>0</asrwt>
<pdfrwt beam="1">  1       21 0.18212984E+00 0.53247422E+03</pdfrwt>
<pdfrwt beam="2">  1        2 0.81776025E-01 0.53247422E+03</pdfrwt>
<totfact> 0.10729438E+02</totfact>
</mgrwt>
</event>
<event>
 5    0  0.1141006E+000  0.2429258E+03  0.7546771E-02  0.1117859E+00
         21   -1    0    0  501  502  0.00000000000E+00  0.00000000000E+00  0.17921140408E+03  0.17921140408E+03  0.00000000000E+00 0. -1.
          2   -1    0    0  503    0 -0.00000000000E+00 -0.00000000000E+00 -0.76175003345E+03  0.76175003345E+03  0.00000000000E+00 0. -1.
         25    1    1    2    0    0  0.90772715568E+02  0.19077096934E+03  0.28763159372E+02  0.24715494729E+03  0.12500000000E+03 0.  0.
         21    1    1    2  503  502 -0.95047724499E+02  0.25430223192E+02 -0.29233159994E+03  0.30844534444E+03  0.00000000000E+00 0. -1.
          2    1    1    2  501    0  0.42750089306E+01 -0.21620119253E+03 -0.31897018880E+03  0.38536114581E+03  0.00000000000E+00 0. -1.
<mgrwt>
<rscale>  4 0.24292580E+03</rscale>
<asrwt>0</asrwt>
<pdfrwt beam="1">  1       21 0.27570985E-01 0.24292580E+03</pdfrwt>
<pdfrwt beam="2">  1        2 0.11719232E+00 0.24292580E+03</pdfrwt>
<totfact> 0.58933752E+03</totfact>
</mgrwt>
</event>
<event>
 5    0  0.1141006E+000  0.2478205E+03  0.7546771E-02  0.1114690E+00
          2   -1    0    0  503    0 -0.00000000000E+00  0.00000000000E+00  0.82794794328E+03  0.82794794328E+03  0.00000000000E+00 0.  1.
         21   -1    0    0  501  502  0.00000000000E+00 -0.00000000000E+00 -0.19326481934E+03  0.19326481934E+03  0.00000000000E+00 0.  1.
         25    1    1    2    0    0 -0.12486370208E+03  0.17431949640E+03 -0.82606785864E+02  0.26158576413E+03  0.12500000000E+03 0.  0.
         21    1    1    2  503  502  0.21122258461E+02  0.10110232478E+02  0.19547920780E+02  0.30503898277E+02  0.00000000000E+00 0. -1.
          2    1    1    2  501    0  0.10374144362E+03 -0.18442972888E+03  0.69774198903E+03  0.72912310022E+03  0.00000000000E+00 0.  1.
<mgrwt>
<rscale>  4 0.24782050E+03</rscale>
<asrwt>0</asrwt>
<pdfrwt beam="1">  1       21 0.29733050E-01 0.24782050E+03</pdfrwt>
<pdfrwt beam="2">  1        2 0.12737660E+00 0.24782050E+03</pdfrwt>
<totfact> 0.45688466E+03</totfact>
</mgrwt>
</event>
<event>
 5    0  0.1141006E+000  0.3134340E+03  0.7546771E-02  0.1078711E+00
         21   -1    0    0  501  502  0.00000000000E+00  0.00000000000E+00  0.22244071540E+03  0.22244071540E+03  0.00000000000E+00 0.  1.
          1   -1    0    0  503    0 -0.00000000000E+00 -0.00000000000E+00 -0.25690279358E+04  0.25690279358E+04  0.00000000000E+00 0. -1.
         25    1    1    2    0    0  0.28316146851E+03 -0.43526326462E+02  0.92997879248E+02  0.32611127532E+03  0.12500000000E+03 0.  0.
         21    1    1    2  503  502  0.19229457752E+02 -0.96442867658E+01 -0.33838172822E+02  0.40097459428E+02  0.00000000000E+00 0.  1.
          1    1    1    2  501    0 -0.30239092626E+03  0.53170613227E+02 -0.24057469268E+04  0.24252599164E+04  0.00000000000E+00 0. -1.
<mgrwt>
<rscale>  4 0.31343402E+03</rscale>
<asrwt>0</asrwt>
<pdfrwt beam="1">  1       21 0.34221647E-01 0.31343402E+03</pdfrwt>
<pdfrwt beam="2">  1        1 0.39523508E+00 0.31343402E+03</pdfrwt>
<totfact> 0.12405547E+02</totfact>
</mgrwt>
</event>
<event>
 5    0  0.1141006E+000  0.2548135E+03  0.7546771E-02  0.1110300E+00
         21   -1    0    0  501  502  0.00000000000E+00  0.00000000000E+00  0.25167059297E+03  0.25167059297E+03  0.00000000000E+00 0.  1.
          1   -1    0    0  503    0 -0.00000000000E+00 -0.00000000000E+00 -0.77237651827E+03  0.77237651827E+03  0.00000000000E+00 0.  1.
         25    1    1    2    0    0 -0.20235699320E+03 -0.85670223491E+02  0.14798248410E+03  0.29293609455E+03  0.12500000000E+03 0.  0.
         21    1    1    2  503  502 -0.11638049557E+02 -0.32350182957E+02 -0.24758683946E+02  0.42367097677E+02  0.00000000000E+00 0. -1.
          1    1    1    2  501    0  0.21399504275E+03  0.11802040645E+03 -0.64392972545E+03  0.68874391902E+03  0.00000000000E+00 0.  1.
<mgrwt>
<rscale>  4 0.25481350E+03</rscale>
<asrwt>0</asrwt>
<pdfrwt beam="1">  1       21 0.38718553E-01 0.25481350E+03</pdfrwt>
<pdfrwt beam="2">  1        1 0.11882716E+00 0.25481350E+03</pdfrwt>
<totfact> 0.17005043E+03</totfact>
</mgrwt>
</event>
<event>
 5    0  0.1141006E+000  0.2543803E+03  0.7546771E-02  0.1110567E+00
         21   -1    0    0  501  502  0.00000000000E+00  0.00000000000E+00  0.69124018610E+02  0.69124018610E+02  0.00000000000E+00 0. -1.
          1   -1    0    0  503    0 -0.00000000000E+00 -0.00000000000E+00 -0.30111890543E+04  0.30111890543E+04  0.00000000000E+00 0. -1.
         25    1    1    2    0    0  0.53144293052E+02 -0.22203168176E+03 -0.21457585217E+03  0.33732800051E+03  0.12500000000E+03 0.  0.
         21    1    1    2  503  502  0.51491501469E+02  0.57111205710E+02 -0.12897204149E+04  0.12920107636E+04  0.00000000000E+00 0. -1.
          1    1    1    2  501    0 -0.10463579452E+03  0.16492047605E+03 -0.14377687686E+04  0.14509743088E+04  0.00000000000E+00 0. -1.
<mgrwt>
<rscale>  4 0.25438032E+03</rscale>
<asrwt>0</asrwt>
<pdfrwt beam="1">  1       21 0.10634465E-01 0.25438032E+03</pdfrwt>
<pdfrwt beam="2">  1        1 0.46325984E+00 0.25438032E+03</pdfrwt>
<totfact> 0.57655091E+02</totfact>
</mgrwt>
</event>
<event>
 5    0  0.1141006E+000  0.2587616E+03  0.7546771E-02  0.1107890E+00
          2   -1    0    0  503    0 -0.00000000000E+00  0.00000000000E+00  0.37143957269E+03  0.37143957269E+03  0.00000000000E+00 0. -1.
         21   -1    0    0  501  502  0.00000000000E+00 -0.00000000000E+00 -0.16984218669E+03  0.16984218669E+03  0.00000000000E+00 0. -1.
         25    1    1    2    0    0 -0.14484316866E+03 -0.17422121497E+03  0.96928381665E+02  0.27631989871E+03  0.12500000000E+03 0.  0.
         21    1    1    2  503  502 -0.63381497241E+01  0.40391790663E+02  0.24885388306E+02  0.47863884569E+02  0.00000000000E+00 0. -1.
          2    1    1    2  501    0  0.15118131838E+03  0.13382942430E+03  0.79783616033E+02  0.21709797609E+03  0.00000000000E+00 0. -1.
<mgrwt>
<rscale>  4 0.25876162E+03</rscale>
<asrwt>0</asrwt>
<pdfrwt beam="1">  1       21 0.26129567E-01 0.25876162E+03</pdfrwt>
<pdfrwt beam="2">  1        2 0.57144550E-01 0.25876162E+03</pdfrwt>
<totfact> 0.14840557E+04</totfact>
</mgrwt>
</event>
<event>
 5    0  0.1141006E+000  0.3112661E+03  0.7546771E-02  0.1079741E+00
         21   -1    0    0  501  502  0.00000000000E+00  0.00000000000E+00  0.34597097459E+03  0.34597097459E+03  0.00000000000E+00 0.  1.
          2   -1    0    0  503    0 -0.00000000000E+00 -0.00000000000E+00 -0.55935940105E+03  0.55935940105E+03  0.00000000000E+00 0.  1.
         25    1    1    2    0    0  0.73363417737E+02 -0.27971189370E+03  0.18983155406E+03  0.36780695134E+03  0.12500000000E+03 0.  0.
         21    1    1    2  503  502 -0.41736937637E+02 -0.33502165709E+01  0.23435681538E+01  0.41936716921E+02  0.00000000000E+00 0. -1.
          2    1    1    2  501    0 -0.31626480100E+02  0.28306211027E+03 -0.40556354868E+03  0.49558670738E+03  0.00000000000E+00 0.  1.
<mgrwt>
<rscale>  4 0.31126610E+03</rscale>
<asrwt>0</asrwt>
<pdfrwt beam="1">  1       21 0.53226304E-01 0.31126610E+03</pdfrwt>
<pdfrwt beam="2">  1        2 0.86055291E-01 0.31126610E+03</pdfrwt>
<totfact> 0.22024827E+03</totfact>
</mgrwt>
</event>
<event>
 5    0  0.1141006E+000  0.3871196E+03  0.7546771E-02  0.1048333E+00
         21   -1    0    0  501  502  0.00000000000E+00  0.00000000000E+00  0.49528764947E+03  0.49528764947E+03  0.00000000000E+00 0. -1.
          2   -1    0    0  503    0 -0.00000000000E+00 -0.00000000000E+00 -0.11738235605E+04  0.11738235605E+04  0.00000000000E+00 0. -1.
         25    1    1    2    0    0  0.35230650972E+03  0.14305835975E+03  0.34239539579E+03  0.52673065047E+03  0.12500000000E+03 0.  0.
         21    1    1    2  503  502  0.89395848488E+01 -0.84243302350E+02 -0.36744703818E+02  0.92341883383E+02  0.00000000000E+00 0.  1.
          2    1    1    2  501    0 -0.36124609457E+03 -0.58815057395E+02 -0.98418660298E+03  0.10500386761E+04  0.00000000000E+00 0. -1.
<mgrwt>
<rscale>  4 0.38711962E+03</rscale>
<asrwt>0</asrwt>
<pdfrwt beam="1">  1       21 0.76198100E-01 0.38711962E+03</pdfrwt>
<pdfrwt beam="2">  1        2 0.18058824E+00 0.38711962E+03</pdfrwt>
<totfact> 0.36671227E+02</totfact>
</mgrwt>
</event>
<event>
 5    0  0.1141006E+000  0.2672988E+03  0.7546771E-02  0.1102836E+00
         21   -1    0    0  501  502  0.00000000000E+00  0.00000000000E+00  0.91853328786E+03  0.91853328786E+03  0.00000000000E+00 0.  1.
          2   -1    0    0  503    0 -0.00000000000E+00 -0.00000000000E+00 -0.16087776098E+03  0.16087776098E+03  0.00000000000E+00 0. -1.
         25    1    1    2    0    0 -0.18026373943E+03 -0.16581395838E+03  0.71997311526E+03  0.77069810643E+03  0.12500000000E+03 0.  0.
         21    1    1    2  503  502  0.57676095121E+02 -0.11388841283E+02 -0.48926273240E+02  0.76485409506E+02  0.00000000000E+00 0. -1.
          2    1    1    2  501    0  0.12258764431E+03  0.17720279967E+03  0.86608684861E+02  0.23222753291E+03  0.00000000000E+00 0. -1.
<mgrwt>
<rscale>  4 0.26729885E+03</rscale>
<asrwt>0</asrwt>
<pdfrwt beam="1">  1       21 0.14131281E+00 0.26729885E+03</pdfrwt>
<pdfrwt beam="2">  1        2 0.24750425E-01 0.26729885E+03</pdfrwt>
<totfact> 0.89928783E+02</totfact>
</mgrwt>
</event>
<event>
 5    0  0.1141006E+000  0.2297177E+03  0.7546771E-02  0.1126839E+00
          2   -1    0    0  503    0 -0.00000000000E+00  0.00000000000E+00  0.65821865662E+03  0.65821865662E+03  0.00000000000E+00 0.  1.
         21   -1    0    0  501  502  0.00000000000E+00 -0.00000000000E+00 -0.12372103736E+03  0.12372103736E+03  0.00000000000E+00 0.  1.
         25    1    1    2    0    0  0.21070337806E+03 -0.15662805460E+02  0.64189421131E+02  0.25374498770E+03  0.12500000000E+03 0.  0.
         21    1    1    2  503  502 -0.23938473583E+02 -0.14656573576E+02  0.88161639178E+01  0.29420917945E+02  0.00000000000E+00 0.  1.
          2    1    1    2  501    0 -0.18676490448E+03  0.30319379036E+02  0.46149203421E+03  0.49877378834E+03  0.00000000000E+00 0.  1.
<mgrwt>
<rscale>  4 0.22971770E+03</rscale>
<asrwt>0</asrwt>
<pdfrwt beam="1">  1       21 0.19034006E-01 0.22971770E+03</pdfrwt>
<pdfrwt beam="2">  1        2 0.10126441E+00 0.22971770E+03</pdfrwt>
<totfact> 0.14295469E+04</totfact>
</mgrwt>
</event>
<event>
 5    0  0.1141006E+000  0.2513503E+03  0.7546771E-02  0.1112454E+00
         21   -1    0    0  501  502  0.00000000000E+00  0.00000000000E+00  0.25480321970E+04  0.25480321970E+04  0.00000000000E+00 0.  1.
          1   -1    0    0  503    0 -0.00000000000E+00 -0.00000000000E+00 -0.10417424825E+03  0.10417424825E+03  0.00000000000E+00 0. -1.
         25    1    1    2    0    0  0.84455240599E+02 -0.20174903981E+03  0.23563496688E+04  0.23697772310E+04  0.12500000000E+03 0.  0.
         21    1    1    2  503  502  0.35312264692E+02  0.25150309728E+02  0.49307162907E+02  0.65655848414E+02  0.00000000000E+00 0. -1.
          1    1    1    2  501    0 -0.11976750529E+03  0.17659873008E+03  0.38201116990E+02  0.21677336582E+03  0.00000000000E+00 0. -1.
<mgrwt>
<rscale>  4 0.25135032E+03</rscale>
<asrwt>0</asrwt>
<pdfrwt beam="1">  1       21 0.39200491E+00 0.25135032E+03</pdfrwt>
<pdfrwt beam="2">  1        1 0.16026809E-01 0.25135032E+03</pdfrwt>
<totfact> 0.33181850E+01</totfact>
</mgrwt>
</event>
<event>
 5    0  0.1141006E+000  0.4617074E+03  0.7546771E-02  0.1024287E+00
          2   -1    0    0  503    0 -0.00000000000E+00  0.00000000000E+00  0.24640495356E+04  0.24640495356E+04  0.00000000000E+00 0.  1.
         21   -1    0    0  501  502  0.00000000000E+00 -0.00000000000E+00 -0.12252812275E+03  0.12252812275E+03  0.00000000000E+00 0. -1.
         25    1    1    2    0    0  0.21398893996E+02 -0.44203638184E+03  0.48979734708E+03  0.67184858170E+03  0.12500000000E+03 0.  0.
         21    1    1    2  503  502 -0.31800551531E+02 -0.90850381271E+01  0.82879241681E+02  0.89234419912E+02  0.00000000000E+00 0.  1.
          2    1    1    2  501    0  0.10401657536E+02  0.45112141996E+03  0.17688448241E+04  0.18254946567E+04  0.00000000000E+00 0.  1.
<mgrwt>
<rscale>  4 0.46170735E+03</rscale>
<asrwt>0</asrwt>
<pdfrwt beam="1">  1       21 0.18850482E-01 0.46170735E+03</pdfrwt>
<pdfrwt beam="2">  1        2 0.37908451E+00 0.46170735E+03</pdfrwt>
<totfact> 0.12530025E+03</totfact>
</mgrwt>
</event>
<event>
 5    0  0.1141006E+000  0.3720844E+03  0.7546771E-02  0.1053899E+00
         21   -1    0    0  501  502  0.00000000000E+00  0.00000000000E+00  0.14476202091E+04  0.14476202091E+04  0.00000000000E+00 0.  1.
          1   -1    0    0  503    0 -0.00000000000E+00 -0.00000000000E+00 -0.11186916762E+04  0.11186916762E+04  0.00000000000E+00 0.  1.
         25    1    1    2    0    0 -0.33109032617E+03 -0.11515250176E+03  0.13846857772E+04  0.14338272575E+04  0.12500000000E+03 0.  0.
         21    1    1    2  503  502  0.20683264320E+02 -0.49633627262E+02 -0.20646992438E+03  0.21335679988E+03  0.00000000000E+00 0.  1.
          1    1    1    2  501    0  0.31040706185E+03  0.16478612902E+03 -0.84928731993E+03  0.91912782797E+03  0.00000000000E+00 0.  1.
<mgrwt>
<rscale>  4 0.37208436E+03</rscale>
<asrwt>0</asrwt>
<pdfrwt beam="1">  1       21 0.22271080E+00 0.37208436E+03</pdfrwt>
<pdfrwt beam="2">  1        1 0.17210641E+00 0.37208436E+03</pdfrwt>
<totfact> 0.12089117E+01</totfact>
</mgrwt>
</event>
<event>
 5    0  0.1141006E+000  0.3194603E+03  0.7546771E-02  0.1075898E+00
          2   -1    0    0  503    0 -0.00000000000E+00  0.00000000000E+00  0.16319555530E+03  0.16319555530E+03  0.00000000000E+00 0. -1.
         21   -1    0    0  501  502  0.00000000000E+00 -0.00000000000E+00 -0.10849216026E+04  0.10849216026E+04  0.00000000000E+00 0. -1.
         25    1    1    2    0    0 -0.22243997473E+03  0.18299934301E+03 -0.82742080283E+03  0.88499632025E+03  0.12500000000E+03 0.  0.
         21    1    1    2  503  502 -0.20096354166E+02  0.23994608735E+02 -0.29684113333E+01  0.31439086580E+02  0.00000000000E+00 0. -1.
          2    1    1    2  501    0  0.24253632889E+03 -0.20699395175E+03 -0.91336833105E+02  0.33168175104E+03  0.00000000000E+00 0. -1.
<mgrwt>
<rscale>  4 0.31946032E+03</rscale>
<asrwt>0</asrwt>
<pdfrwt beam="1">  1       21 0.16691102E+00 0.31946032E+03</pdfrwt>
<pdfrwt beam="2">  1        2 0.25107008E-01 0.31946032E+03</pdfrwt>
<totfact> 0.55249761E+02</totfact>
</mgrwt>
</event>
<event>
 5    0  0.1141006E+000  0.3463398E+03  0.7546771E-02  0.1064127E+00
         21   -1    0    0  501  502  0.00000000000E+00  0.00000000000E+00  0.96861718609E+03  0.96861718609E+03  0.00000000000E+00 0. -1.
          2   -1    0    0  503    0 -0.00000000000E+00 -0.00000000000E+00 -0.18018545661E+04  0.18018545661E+04  0.00000000000E+00 0.  1.
         25    1    1    2    0    0  0.44244366838E+02  0.31935356762E+03  0.91172839186E+03  0.97509893123E+03  0.12500000000E+03 0.  0.
         21    1    1    2  503  502  0.47572560030E+02  0.25036917809E+02 -0.11572991991E+03  0.12760646568E+03  0.00000000000E+00 0.  1.
          2    1    1    2  501    0 -0.91816926868E+02 -0.34439048543E+03 -0.16292358520E+04  0.16677663553E+04  0.00000000000E+00 0.  1.
<mgrwt>
<rscale>  4 0.34633978E+03</rscale>
<asrwt>0</asrwt>
<pdfrwt beam="1">  1       21 0.14901803E+00 0.34633978E+03</pdfrwt>
<pdfrwt beam="2">  1        2 0.27720839E+00 0.34633978E+03</pdfrwt>
<totfact> 0.32518600E+01</totfact>
</mgrwt>
</event>
<event>
 5    0  0.1141006E+000  0.3042043E+03  0.7546771E-02  0.1083158E+00
          1   -1    0    0  503    0 -0.00000000000E+00  0.00000000000E+00  0.20246710094E+04  0.20246710094E+04  0.00000000000E+00 0.  1.
         21   -1    0    0  501  502  0.00000000000E+00 -0.00000000000E+00 -0.69902114502E+02  0.69902114502E+02  0.00000000000E+00 0. -1.
         25    1    1    2    0    0 -0.26333708466E+03  0.85373962686E+02  0.47590643248E+03  0.56457689125E+03  0.12500000000E+03 0.  0.
         21    1    1    2  503  502 -0.10607186618E+02 -0.31193531536E+02  0.73029773333E+03  0.73104057899E+03  0.00000000000E+00 0. -1.
          1    1    1    2  501    0  0.27394427128E+03 -0.54180431150E+02  0.74856472913E+03  0.79895565370E+03  0.00000000000E+00 0.  1.
<mgrwt>
<rscale>  4 0.30420429E+03</rscale>
<asrwt>0</asrwt>
<pdfrwt beam="1">  1       21 0.10754173E-01 0.30420429E+03</pdfrwt>
<pdfrwt beam="2">  1        1 0.31148780E+00 0.30420429E+03</pdfrwt>
<totfact> 0.25290828E+03</totfact>
</mgrwt>
</event>
<event>
 5    0  0.1141006E+000  0.3868564E+03  0.7546771E-02  0.1048428E+00
         21   -1    0    0  501  502  0.00000000000E+00  0.00000000000E+00  0.22406920221E+03  0.22406920221E+03  0.00000000000E+00 0. -1.
          2   -1    0    0  503    0 -0.00000000000E+00 -0.00000000000E+00 -0.16715841360E+04  0.16715841360E+04  0.00000000000E+00 0.  1.
         25    1    1    2    0    0 -0.28557878914E+03 -0.23571336241E+03 -0.19040288573E+02  0.39128450853E+03  0.12500000000E+03 0.  0.
         21    1    1    2  503  502 -0.73229018432E+00  0.33986632429E+02 -0.64822896747E+03  0.64911972832E+03  0.00000000000E+00 0.  1.
          2    1    1    2  501    0  0.28631107933E+03  0.20172672998E+03 -0.78024567773E+03  0.85524910135E+03  0.00000000000E+00 0.  1.
<mgrwt>
<rscale>  4 0.38685640E+03</rscale>
<asrwt>0</asrwt>
<pdfrwt beam="1">  1       21 0.34472186E-01 0.38685640E+03</pdfrwt>
<pdfrwt beam="2">  1        2 0.25716678E+00 0.38685640E+03</pdfrwt>
<totfact> 0.10579647E+03</totfact>
</mgrwt>
</event>
<event>
 5    0  0.1141006E+000  0.2701385E+03  0.7546771E-02  0.1101200E+00
         21   -1    0    0  501  502  0.00000000000E+00  0.00000000000E+00  0.27234865731E+03  0.27234865731E+03  0.00000000000E+00 0. -1.
          2   -1    0    0  503    0 -0.00000000000E+00 -0.00000000000E+00 -0.84757932627E+03  0.84757932627E+03  0.00000000000E+00 0. -1.
         25    1    1    2    0    0  0.10376134785E+03 -0.21240584220E+03  0.72035775017E+02  0.27694189280E+03  0.12500000000E+03 0.  0.
         21    1    1    2  503  502 -0.11573447925E+03 -0.53443157936E+02 -0.54202414348E+03  0.55681308618E+03  0.00000000000E+00 0. -1.
          2    1    1    2  501    0  0.11973131400E+02  0.26584900013E+03 -0.10524230050E+03  0.28617300460E+03  0.00000000000E+00 0. -1.
<mgrwt>
<rscale>  4 0.27013851E+03</rscale>
<asrwt>0</asrwt>
<pdfrwt beam="1">  1       21 0.41899795E-01 0.27013851E+03</pdfrwt>
<pdfrwt beam="2">  1        2 0.13039682E+00 0.27013851E+03</pdfrwt>
<totfact> 0.22135032E+03</totfact>
</mgrwt>
</event>
<event>
 5    0  0.1141006E+000  0.4249939E+03  0.7546771E-02  0.1035453E+00
         21   -1    0    0  503  502  0.00000000000E+00  0.00000000000E+00  0.94330327612E+03  0.94330327612E+03  0.00000000000E+00 0. -1.
         -2   -1    0    0    0  501 -0.00000000000E+00 -0.00000000000E+00 -0.35849166745E+03  0.35849166745E+03  0.00000000000E+00 0.  1.
         25    1    1    2    0    0 -0.25985743558E+03  0.30352786900E+03  0.69515487043E+03  0.81149266662E+03  0.12500000000E+03 0.  0.
         21    1    1    2  503  501 -0.26522845467E+02  0.28099074853E+02 -0.79070092089E+00  0.38647697825E+02  0.00000000000E+00 0.  1.
         -2    1    1    2    0  502  0.28638028104E+03 -0.33162694386E+03 -0.10955256084E+03  0.45165457913E+03  0.00000000000E+00 0.  1.
<mgrwt>
<rscale>  4 0.42499388E+03</rscale>
<asrwt>0</asrwt>
<pdfrwt beam="1">  1       21 0.14512358E+00 0.42499388E+03</pdfrwt>
<pdfrwt beam="2">  1       -2 0.55152565E-01 0.42499388E+03</pdfrwt>
<totfact> 0.74472369E+01</totfact>
</mgrwt>
</event>
<event>
 5    0  0.1141006E+000  0.2517035E+03  0.7546771E-02  0.1112233E+00
         21   -1    0    0  501  502  0.00000000000E+00  0.00000000000E+00  0.10260643039E+04  0.10260643039E+04  0.00000000000E+00 0.  1.
          1   -1    0    0  503    0 -0.00000000000E+00 -0.00000000000E+00 -0.27003424093E+03  0.27003424093E+03  0.00000000000E+00 0.  1.
         25    1    1    2    0    0  0.15837509628E+03 -0.14837268202E+03  0.93888387263E+03  0.97171243183E+03  0.12500000000E+03 0.  0.
         21    1    1    2  503  502  0.26767494078E+02 -0.38304134550E+01 -0.97802262153E+01  0.28754541055E+02  0.00000000000E+00 0.  1.
          1    1    1    2  501    0 -0.18514259035E+03  0.15220309547E+03 -0.17307358346E+03  0.29563157194E+03  0.00000000000E+00 0.  1.
<mgrwt>
<rscale>  4 0.25170347E+03</rscale>
<asrwt>0</asrwt>
<pdfrwt beam="1">  1       21 0.15785604E+00 0.25170347E+03</pdfrwt>
<pdfrwt beam="2">  1        1 0.41543730E-01 0.25170347E+03</pdfrwt>
<totfact> 0.27435402E+02</totfact>
</mgrwt>
</event>
<event>
 5    0  0.1141006E+000  0.2562455E+03  0.7546771E-02  0.1109420E+00
          1   -1    0    0  503    0 -0.00000000000E+00  0.00000000000E+00  0.20665968065E+03  0.20665968065E+03  0.00000000000E+00 0. -1.
         21   -1    0    0  501  502  0.00000000000E+00 -0.00000000000E+00 -0.29689850075E+03  0.29689850075E+03  0.00000000000E+00 0. -1.
         25    1    1    2    0    0  0.21426734368E+03 -0.64236138843E+02  0.44377034938E+01  0.25628396226E+03  0.12500000000E+03 0.  0.
         21    1    1    2  503  502 -0.32073398526E+02 -0.67824796187E+01 -0.11024090527E+02  0.34586637517E+02  0.00000000000E+00 0.  1.
          1    1    1    2  501    0 -0.18219394515E+03  0.71018618462E+02 -0.83652433063E+02  0.21268758162E+03  0.00000000000E+00 0. -1.
<mgrwt>
<rscale>  4 0.25624554E+03</rscale>
<asrwt>0</asrwt>
<pdfrwt beam="1">  1       21 0.45676692E-01 0.25624554E+03</pdfrwt>
<pdfrwt beam="2">  1        1 0.31793797E-01 0.25624554E+03</pdfrwt>
<totfact> 0.69158171E+03</totfact>
</mgrwt>
</event>
<event>
 5    0  0.1141006E+000  0.3490052E+03  0.7546771E-02  0.1063024E+00
          2   -1    0    0  503    0 -0.00000000000E+00  0.00000000000E+00  0.15757585651E+04  0.15757585651E+04  0.00000000000E+00 0.  1.
         21   -1    0    0  501  502  0.00000000000E+00 -0.00000000000E+00 -0.10492456063E+04  0.10492456063E+04  0.00000000000E+00 0.  1.
         25    1    1    2    0    0  0.26354649847E+03 -0.18964031785E+03 -0.98802217367E+03  0.10474889129E+04  0.12500000000E+03 0.  0.
         21    1    1    2  503  502  0.44670183486E+02 -0.34416891198E+02  0.13459083380E+03  0.14592683179E+03  0.00000000000E+00 0.  1.
          2    1    1    2  501    0 -0.30821668196E+03  0.22405720905E+03  0.13799442986E+04  0.14315884266E+04  0.00000000000E+00 0.  1.
<mgrwt>
<rscale>  4 0.34900522E+03</rscale>
<asrwt>0</asrwt>
<pdfrwt beam="1">  1       21 0.16142240E+00 0.34900522E+03</pdfrwt>
<pdfrwt beam="2">  1        2 0.24242439E+00 0.34900522E+03</pdfrwt>
<totfact> 0.34459624E+01</totfact>
</mgrwt>
</event>
<event>
 5    0  0.1141006E+000  0.4619480E+03  0.7546771E-02  0.1024218E+00
          1   -1    0    0  503    0 -0.00000000000E+00  0.00000000000E+00  0.12160281267E+04  0.12160281267E+04  0.00000000000E+00 0. -1.
         21   -1    0    0  501  502  0.00000000000E+00 -0.00000000000E+00 -0.19395969989E+03  0.19395969989E+03  0.00000000000E+00 0. -1.
         25    1    1    2    0    0 -0.43599070421E+03  0.11306985072E+03  0.34103066529E+03  0.57861869998E+03  0.12500000000E+03 0.  0.
         21    1    1    2  503  502  0.59076069441E+01 -0.34698435860E+02  0.86662270457E+02  0.93537320850E+02  0.00000000000E+00 0.  1.
          1    1    1    2  501    0  0.43008309727E+03 -0.78371414863E+02  0.59437549107E+03  0.73783180577E+03  0.00000000000E+00 0. -1.
<mgrwt>
<rscale>  4 0.46194802E+03</rscale>
<asrwt>0</asrwt>
<pdfrwt beam="1">  1       21 0.29839955E-01 0.46194802E+03</pdfrwt>
<pdfrwt beam="2">  1        1 0.18708125E+00 0.46194802E+03</pdfrwt>
<totfact> 0.12323564E+03</totfact>
</mgrwt>
</event>
<event>
 5    0  0.1141006E+000  0.2992792E+03  0.7546771E-02  0.1085601E+00
         21   -1    0    0  501  502  0.00000000000E+00  0.00000000000E+00  0.19867027897E+03  0.19867027897E+03  0.00000000000E+00 0. -1.
          2   -1    0    0  503    0 -0.00000000000E+00 -0.00000000000E+00 -0.16660490552E+04  0.16660490552E+04  0.00000000000E+00 0.  1.
         25    1    1    2    0    0  0.26756497562E+03 -0.27224717784E+02  0.56109533626E+02  0.30183684534E+03  0.12500000000E+03 0.  0.
         21    1    1    2  503  502  0.31641688009E+02 -0.40319320040E+01 -0.34986412436E+03  0.35131518386E+03  0.00000000000E+00 0. -1.
          2    1    1    2  501    0 -0.29920666363E+03  0.31256649788E+02 -0.11736241855E+04  0.12115673049E+04  0.00000000000E+00 0.  1.
<mgrwt>
<rscale>  4 0.29927924E+03</rscale>
<asrwt>0</asrwt>
<pdfrwt beam="1">  1       21 0.30564658E-01 0.29927924E+03</pdfrwt>
<pdfrwt beam="2">  1        2 0.25631524E+00 0.29927924E+03</pdfrwt>
<totfact> 0.13977712E+03</totfact>
</mgrwt>
</event>
<event>
 5    0  0.1141006E+000  0.3285108E+03  0.7546771E-02  0.1071798E+00
          3   -1    0    0  503    0 -0.00000000000E+00  0.00000000000E+00  0.14129113755E+03  0.14129113755E+03  0.00000000000E+00 0.  1.
         21   -1    0    0  501  502  0.00000000000E+00 -0.00000000000E+00 -0.15867647063E+04  0.15867647063E+04  0.00000000000E+00 0. -1.
         25    1    1    2    0    0  0.17928997351E+03 -0.24833309812E+03 -0.13457516425E+04  0.13858162596E+04  0.12500000000E+03 0.  0.
         21    1    1    2  503  502  0.85994661962E+01  0.24801557929E+02  0.12921720785E+02  0.29258143526E+02  0.00000000000E+00 0.  1.
          3    1    1    2  501    0 -0.18788943971E+03  0.22353154019E+03 -0.11264364709E+03  0.31298144074E+03  0.00000000000E+00 0.  1.
<mgrwt>
<rscale>  4 0.32851084E+03</rscale>
<asrwt>0</asrwt>
<pdfrwt beam="1">  1       21 0.24411766E+00 0.32851084E+03</pdfrwt>
<pdfrwt beam="2">  1        3 0.21737097E-01 0.32851084E+03</pdfrwt>
<totfact> 0.63653454E+01</totfact>
</mgrwt>
</event>
<event>
 5    0  0.1141006E+000  0.2501800E+03  0.7546771E-02  0.1113191E+00
         21   -1    0    0  503  502  0.00000000000E+00  0.00000000000E+00  0.74089654166E+03  0.74089654166E+03  0.00000000000E+00 0. -1.
         -2   -1    0    0    0  501 -0.00000000000E+00 -0.00000000000E+00 -0.10422109125E+03  0.10422109125E+03  0.00000000000E+00 0. -1.
         25    1    1    2    0    0 -0.13149920922E+03  0.17658664944E+03  0.44465014177E+03  0.51167727657E+03  0.12500000000E+03 0.  0.
         21    1    1    2  503  501  0.38805253027E+02  0.16527485241E+02 -0.49078716169E+01  0.42462838279E+02  0.00000000000E+00 0. -1.
         -2    1    1    2    0  502  0.92693956196E+02 -0.19311413468E+03  0.19693318025E+03  0.29097751806E+03  0.00000000000E+00 0. -1.
<mgrwt>
<rscale>  4 0.25017996E+03</rscale>
<asrwt>0</asrwt>
<pdfrwt beam="1">  1       21 0.11398408E+00 0.25017996E+03</pdfrwt>
<pdfrwt beam="2">  1       -2 0.16034014E-01 0.25017996E+03</pdfrwt>
<totfact> 0.14230678E+03</totfact>
</mgrwt>
</event>
<event>
 5    0  0.1141006E+000  0.2634140E+03  0.7546771E-02  0.1105109E+00
         21   -1    0    0  501  502  0.00000000000E+00  0.00000000000E+00  0.14926636033E+03  0.14926636033E+03  0.00000000000E+00 0.  1.
          1   -1    0    0  503    0 -0.00000000000E+00 -0.00000000000E+00 -0.10840384609E+04  0.10840384609E+04  0.00000000000E+00 0. -1.
         25    1    1    2    0    0 -0.17686842046E+03 -0.15025715274E+03 -0.26184531383E+01  0.26361241701E+03  0.12500000000E+03 0.  0.
         21    1    1    2  503  502  0.21573164533E+02 -0.22493889519E+02 -0.66964487210E+02  0.73862162445E+02  0.00000000000E+00 0.  1.
          1    1    1    2  501    0  0.15529525592E+03  0.17275104226E+03 -0.86518916020E+03  0.89583024175E+03  0.00000000000E+00 0. -1.
<mgrwt>
<rscale>  4 0.26341404E+03</rscale>
<asrwt>0</asrwt>
<pdfrwt beam="1">  1       21 0.22964056E-01 0.26341404E+03</pdfrwt>
<pdfrwt beam="2">  1        1 0.16677514E+00 0.26341404E+03</pdfrwt>
<totfact> 0.26997432E+03</totfact>
</mgrwt>
</event>
<event>
 5    0  0.1141006E+000  0.2496806E+03  0.7546771E-02  0.1113507E+00
         -1   -1    0    0    0  501 -0.00000000000E+00  0.00000000000E+00  0.11828894934E+04  0.11828894934E+04  0.00000000000E+00 0. -1.
         21   -1    0    0  503  502  0.00000000000E+00 -0.00000000000E+00 -0.87800372256E+03  0.87800372256E+03  0.00000000000E+00 0. -1.
         25    1    1    2    0    0 -0.19119678337E+03 -0.10131924532E+03 -0.83687956380E+03  0.87339235384E+03  0.12500000000E+03 0.  0.
         21    1    1    2  503  501  0.46058954028E+02 -0.55569243859E+02  0.95926302469E+02  0.12004675595E+03  0.00000000000E+00 0. -1.
         -1    1    1    2    0  502  0.14513782934E+03  0.15688848918E+03  0.10458390322E+04  0.10674541062E+04  0.00000000000E+00 0. -1.
<mgrwt>
<rscale>  4 0.24968063E+03</rscale>
<asrwt>0</asrwt>
<pdfrwt beam="1">  1       21 0.13507750E+00 0.24968063E+03</pdfrwt>
<pdfrwt beam="2">  1       -1 0.18198300E+00 0.24968063E+03</pdfrwt>
<totfact> 0.78365130E+00</totfact>
</mgrwt>
</event>
<event>
 5    0  0.1141006E+000  0.2677516E+03  0.7546771E-02  0.1102573E+00
          2   -1    0    0  503    0 -0.00000000000E+00  0.00000000000E+00  0.89445082519E+03  0.89445082519E+03  0.00000000000E+00 0. -1.
         21   -1    0    0  501  502  0.00000000000E+00 -0.00000000000E+00 -0.10686896429E+03  0.10686896429E+03  0.00000000000E+00 0. -1.
         25    1    1    2    0    0  0.28406283436E+02  0.21753890940E+03  0.19186581693E+03  0.31712392806E+03  0.12500000000E+03 0.  0.
         21    1    1    2  503  502  0.25463705146E+02  0.43708048770E+02  0.20472709610E+03  0.21088380138E+03  0.00000000000E+00 0. -1.
          2    1    1    2  501    0 -0.53869988582E+02 -0.26124695817E+03  0.39098894786E+03  0.47331206004E+03  0.00000000000E+00 0. -1.
<mgrwt>
<rscale>  4 0.26775161E+03</rscale>
<asrwt>0</asrwt>
<pdfrwt beam="1">  1       21 0.16441380E-01 0.26775161E+03</pdfrwt>
<pdfrwt beam="2">  1        2 0.13760781E+00 0.26775161E+03</pdfrwt>
<totfact> 0.12658223E+04</totfact>
</mgrwt>
</event>
<event>
 5    0  0.1141006E+000  0.2468311E+03  0.7546771E-02  0.1115324E+00
          2   -1    0    0  503    0 -0.00000000000E+00  0.00000000000E+00  0.11765963139E+04  0.11765963139E+04  0.00000000000E+00 0.  1.
         21   -1    0    0  501  502  0.00000000000E+00 -0.00000000000E+00 -0.68693681505E+02  0.68693681505E+02  0.00000000000E+00 0. -1.
         25    1    1    2    0    0 -0.93725824269E+02 -0.21826263640E+03  0.37330585960E+03  0.45978840068E+03  0.12500000000E+03 0.  0.
         21    1    1    2  503  502  0.83026751522E+02  0.28531710769E+02  0.25074814228E+03  0.26567297726E+03  0.00000000000E+00 0. -1.
          2    1    1    2  501    0  0.10699072746E+02  0.18973092563E+03  0.48384863055E+03  0.51982861751E+03  0.00000000000E+00 0.  1.
<mgrwt>
<rscale>  4 0.24683110E+03</rscale>
<asrwt>0</asrwt>
<pdfrwt beam="1">  1       21 0.10568260E-01 0.24683110E+03</pdfrwt>
<pdfrwt beam="2">  1        2 0.18101480E+00 0.24683110E+03</pdfrwt>
<totfact> 0.19122851E+04</totfact>
</mgrwt>
</event>
<event>
 5    0  0.1141006E+000  0.2617952E+03  0.7546771E-02  0.1106069E+00
         21   -1    0    0  501  502  0.00000000000E+00  0.00000000000E+00  0.49825149582E+03  0.49825149582E+03  0.00000000000E+00 0.  1.
          2   -1    0    0  503    0 -0.00000000000E+00 -0.00000000000E+00 -0.20083703710E+04  0.20083703710E+04  0.00000000000E+00 0.  1.
         25    1    1    2    0    0  0.42730367283E+02 -0.22718036962E+03  0.44743913654E+03  0.51890614328E+03  0.12500000000E+03 0.  0.
         21    1    1    2  503  502  0.71653028641E+02  0.70362303997E+02 -0.25394282812E+03  0.27307868882E+03  0.00000000000E+00 0.  1.
          2    1    1    2  501    0 -0.11438339592E+03  0.15681806562E+03 -0.17036151836E+04  0.17146370347E+04  0.00000000000E+00 0.  1.
<mgrwt>
<rscale>  4 0.26179519E+03</rscale>
<asrwt>0</asrwt>
<pdfrwt beam="1">  1       21 0.76654076E-01 0.26179519E+03</pdfrwt>
<pdfrwt beam="2">  1        2 0.30898006E+00 0.26179519E+03</pdfrwt>
<totfact> 0.13637360E+02</totfact>
</mgrwt>
</event>
<event>
 5    0  0.1141006E+000  0.3034553E+03  0.7546771E-02  0.1083526E+00
         21   -1    0    0  501  502  0.00000000000E+00  0.00000000000E+00  0.11351368930E+03  0.11351368930E+03  0.00000000000E+00 0. -1.
          2   -1    0    0  503    0 -0.00000000000E+00 -0.00000000000E+00 -0.24812368085E+04  0.24812368085E+04  0.00000000000E+00 0.  1.
         25    1    1    2    0    0  0.19376993699E+03  0.19726455261E+03 -0.11814947392E+03  0.32564457678E+03  0.12500000000E+03 0.  0.
         21    1    1    2  503  502 -0.35685963401E+02 -0.84773224633E+02 -0.10412026336E+04  0.10452573424E+04  0.00000000000E+00 0.  1.
          2    1    1    2  501    0 -0.15808397359E+03 -0.11249132797E+03 -0.12083710117E+04  0.12238485786E+04  0.00000000000E+00 0.  1.
<mgrwt>
<rscale>  4 0.30345526E+03</rscale>
<asrwt>0</asrwt>
<pdfrwt beam="1">  1       21 0.17463645E-01 0.30345526E+03</pdfrwt>
<pdfrwt beam="2">  1        2 0.38172872E+00 0.30345526E+03</pdfrwt>
<totfact> 0.14978792E+03</totfact>
</mgrwt>
</event>
<event>
 5    0  0.1141006E+000  0.3216403E+03  0.7546771E-02  0.1074897E+00
          2   -1    0    0  503    0 -0.00000000000E+00  0.00000000000E+00  0.23015283599E+04  0.23015283599E+04  0.00000000000E+00 0.  1.
         21   -1    0    0  501  502  0.00000000000E+00 -0.00000000000E+00 -0.22614278572E+03  0.22614278572E+03  0.00000000000E+00 0. -1.
         25    1    1    2    0    0 -0.25632510402E+03 -0.16097747287E+03 -0.85703537909E+02  0.33850613308E+03  0.12500000000E+03 0.  0.
         21    1    1    2  503  502  0.76541914449E+02  0.66406460328E+02  0.29228289125E+03  0.30935056354E+03  0.00000000000E+00 0. -1.
          2    1    1    2  501    0  0.17978318957E+03  0.94571012544E+02  0.18688062209E+04  0.18798144490E+04  0.00000000000E+00 0.  1.
<mgrwt>
<rscale>  4 0.32164031E+03</rscale>
<asrwt>0</asrwt>
<pdfrwt beam="1">  1       21 0.34791199E-01 0.32164031E+03</pdfrwt>
<pdfrwt beam="2">  1        2 0.35408127E+00 0.32164031E+03</pdfrwt>
<totfact> 0.49163650E+02</totfact>
</mgrwt>
</event>
<event>
 5    0  0.1141006E+000  0.2435912E+03  0.7546771E-02  0.1117423E+00
         21   -1    0    0  503  502  0.00000000000E+00  0.00000000000E+00  0.12441114614E+03  0.12441114614E+03  0.00000000000E+00 0. -1.
         -1   -1    0    0    0  501 -0.00000000000E+00 -0.00000000000E+00 -0.89357279077E+03  0.89357279077E+03  0.00000000000E+00 0. -1.
         25    1    1    2    0    0  0.21305677877E+03 -0.31447376218E+02 -0.63163972340E+02  0.25689845436E+03  0.12500000000E+03 0.  0.
         21    1    1    2  503  501 -0.17770011914E+02  0.19189474562E+02 -0.37981366901E+03  0.38071305786E+03  0.00000000000E+00 0. -1.
         -1    1    1    2    0  502 -0.19528676686E+03  0.12257901657E+02 -0.32618400329E+03  0.38037242469E+03  0.00000000000E+00 0. -1.
<mgrwt>
<rscale>  4 0.24359116E+03</rscale>
<asrwt>0</asrwt>
<pdfrwt beam="1">  1       21 0.19140176E-01 0.24359116E+03</pdfrwt>
<pdfrwt beam="2">  1       -1 0.13747274E+00 0.24359116E+03</pdfrwt>
<totfact> 0.11008645E+03</totfact>
</mgrwt>
</event>
<event>
 5    0  0.1141006E+000  0.2312107E+03  0.7546771E-02  0.1125790E+00
          1   -1    0    0  503    0 -0.00000000000E+00  0.00000000000E+00  0.14745188937E+03  0.14745188937E+03  0.00000000000E+00 0.  1.
         21   -1    0    0  501  502  0.00000000000E+00 -0.00000000000E+00 -0.52145486231E+03  0.52145486231E+03  0.00000000000E+00 0.  1.
         25    1    1    2    0    0 -0.16477819494E+03 -0.11750189384E+03 -0.37087725913E+03  0.44060582148E+03  0.12500000000E+03 0.  0.
         21    1    1    2  503  502  0.43951174671E+02 -0.14598541071E+02  0.14199788556E+02  0.48440243098E+02  0.00000000000E+00 0. -1.
          1    1    1    2  501    0  0.12082702027E+03  0.13210043491E+03 -0.17325502363E+02  0.17986068710E+03  0.00000000000E+00 0.  1.
<mgrwt>
<rscale>  4 0.23121073E+03</rscale>
<asrwt>0</asrwt>
<pdfrwt beam="1">  1       21 0.80223824E-01 0.23121073E+03</pdfrwt>
<pdfrwt beam="2">  1        1 0.22684906E-01 0.23121073E+03</pdfrwt>
<totfact> 0.31558901E+03</totfact>
</mgrwt>
</event>
<event>
 5    0  0.1141006E+000  0.2662394E+03  0.7546771E-02  0.1103451E+00
         21   -1    0    0  503  502  0.00000000000E+00  0.00000000000E+00  0.65236567978E+03  0.65236567978E+03  0.00000000000E+00 0. -1.
         -3   -1    0    0    0  501 -0.00000000000E+00 -0.00000000000E+00 -0.65698190421E+03  0.65698190421E+03  0.00000000000E+00 0. -1.
         25    1    1    2    0    0  0.15209842352E+03  0.17725910768E+03  0.57936190558E+03  0.63705567993E+03  0.12500000000E+03 0.  0.
         21    1    1    2  503  501  0.14033153900E+02  0.31627365372E+02 -0.52650835579E+01  0.34999153613E+02  0.00000000000E+00 0.  1.
         -3    1    1    2    0  502 -0.16613157741E+03 -0.20888647306E+03 -0.57871304645E+03  0.63729275045E+03  0.00000000000E+00 0. -1.
<mgrwt>
<rscale>  4 0.26623941E+03</rscale>
<asrwt>0</asrwt>
<pdfrwt beam="1">  1       21 0.10036395E+00 0.26623941E+03</pdfrwt>
<pdfrwt beam="2">  1       -3 0.10107414E+00 0.26623941E+03</pdfrwt>
<totfact> 0.34357167E+01</totfact>
</mgrwt>
</event>
<event>
 5    0  0.1141006E+000  0.3007865E+03  0.7546771E-02  0.1084848E+00
         21   -1    0    0  501  502  0.00000000000E+00  0.00000000000E+00  0.62788539693E+02  0.62788539693E+02  0.00000000000E+00 0.  1.
          1   -1    0    0  503    0 -0.00000000000E+00 -0.00000000000E+00 -0.14823922886E+04  0.14823922886E+04  0.00000000000E+00 0.  1.
         25    1    1    2    0    0 -0.26993413614E+03 -0.19573492812E+02 -0.68437564397E+03  0.74648682610E+03  0.12500000000E+03 0.  0.
         21    1    1    2  503  502 -0.68868291431E+01  0.30186363860E+02 -0.12076203321E+03  0.12466801371E+03  0.00000000000E+00 0.  1.
          1    1    1    2  501    0  0.27682096528E+03 -0.10612871048E+02 -0.61446607176E+03  0.67402598852E+03  0.00000000000E+00 0.  1.
<mgrwt>
<rscale>  4 0.30078647E+03</rscale>
<asrwt>0</asrwt>
<pdfrwt beam="1">  1       21 0.96597753E-02 0.30078647E+03</pdfrwt>
<pdfrwt beam="2">  1        1 0.22806035E+00 0.30078647E+03</pdfrwt>
<totfact> 0.69567270E+03</totfact>
</mgrwt>
</event>
<event>
 5    0  0.1141006E+000  0.3512467E+03  0.7546771E-02  0.1062105E+00
         21   -1    0    0  501  502  0.00000000000E+00  0.00000000000E+00  0.96425897350E+03  0.96425897350E+03  0.00000000000E+00 0.  1.
          2   -1    0    0  503    0 -0.00000000000E+00 -0.00000000000E+00 -0.14509892012E+04  0.14509892012E+04  0.00000000000E+00 0.  1.
         25    1    1    2    0    0  0.32655006021E+03  0.13496741548E+02  0.85320004709E+03  0.92216724308E+03  0.12500000000E+03 0.  0.
         21    1    1    2  503  502  0.18644392102E+02 -0.28294025583E+02 -0.10250546217E+04  0.10256145195E+04  0.00000000000E+00 0.  1.
          2    1    1    2  501    0 -0.34519445231E+03  0.14797284035E+02 -0.31487565314E+03  0.46746641212E+03  0.00000000000E+00 0.  1.
<mgrwt>
<rscale>  4 0.35124669E+03</rscale>
<asrwt>0</asrwt>
<pdfrwt beam="1">  1       21 0.14834753E+00 0.35124669E+03</pdfrwt>
<pdfrwt beam="2">  1        2 0.22322911E+00 0.35124669E+03</pdfrwt>
<totfact> 0.50604059E+01</totfact>
</mgrwt>
</event>
<event>
 5    0  0.1141006E+000  0.2858806E+03  0.7546771E-02  0.1092520E+00
          2   -1    0    0  503    0 -0.00000000000E+00  0.00000000000E+00  0.39571654486E+04  0.39571654486E+04  0.00000000000E+00 0.  1.
         21   -1    0    0  501  502  0.00000000000E+00 -0.00000000000E+00 -0.68663392817E+02  0.68663392817E+02  0.00000000000E+00 0. -1.
         25    1    1    2    0    0  0.21831689333E+03  0.13661471257E+03  0.26566028792E+03  0.39054607178E+03  0.12500000000E+03 0.  0.
         21    1    1    2  503  502  0.10589729425E+02 -0.24729814301E+02  0.93626659653E+03  0.93665300184E+03  0.00000000000E+00 0.  1.
          2    1    1    2  501    0 -0.22890662275E+03 -0.11188489827E+03  0.26865751713E+04  0.26986297678E+04  0.00000000000E+00 0.  1.
<mgrwt>
<rscale>  4 0.28588056E+03</rscale>
<asrwt>0</asrwt>
<pdfrwt beam="1">  1       21 0.10563602E-01 0.28588056E+03</pdfrwt>
<pdfrwt beam="2">  1        2 0.60879451E+00 0.28588056E+03</pdfrwt>
<totfact> 0.44202257E+02</totfact>
</mgrwt>
</event>
<event>
 5    0  0.1141006E+000  0.4315859E+03  0.7546771E-02  0.1033360E+00
         -1   -1    0    0    0  501 -0.00000000000E+00  0.00000000000E+00  0.98654837117E+03  0.98654837117E+03  0.00000000000E+00 0.  1.
         21   -1    0    0  503  502  0.00000000000E+00 -0.00000000000E+00 -0.68476426760E+03  0.68476426760E+03  0.00000000000E+00 0.  1.
         25    1    1    2    0    0  0.14141409835E+03 -0.38904052650E+03 -0.55758234272E+03  0.70560155002E+03  0.12500000000E+03 0.  0.
         21    1    1    2  503  501 -0.25527342596E+02  0.14223592275E+01  0.12198010670E+03  0.12463071354E+03  0.00000000000E+00 0. -1.
         -1    1    1    2    0  502 -0.11588675576E+03  0.38761816728E+03  0.73738633959E+03  0.84108037522E+03  0.00000000000E+00 0.  1.
<mgrwt>
<rscale>  4 0.43158592E+03</rscale>
<asrwt>0</asrwt>
<pdfrwt beam="1">  1       21 0.10534835E+00 0.43158592E+03</pdfrwt>
<pdfrwt beam="2">  1       -1 0.15177667E+00 0.43158592E+03</pdfrwt>
<totfact> 0.21926929E+01</totfact>
</mgrwt>
</event>
<event>
 5    0  0.1141006E+000  0.2668191E+03  0.7546771E-02  0.1103114E+00
          1   -1    0    0  503    0 -0.00000000000E+00  0.00000000000E+00  0.16109617084E+04  0.16109617084E+04  0.00000000000E+00 0. -1.
         21   -1    0    0  501  502  0.00000000000E+00 -0.00000000000E+00 -0.82483990588E+02  0.82483990588E+02  0.00000000000E+00 0. -1.
         25    1    1    2    0    0  0.97693266872E+02  0.17920454592E+03  0.11157626107E+04  0.11411439204E+04  0.12500000000E+03 0.  0.
         21    1    1    2  503  502  0.43121567352E+02  0.17650267305E+02  0.26432425819E+03  0.26839954354E+03  0.00000000000E+00 0. -1.
          1    1    1    2  501    0 -0.14081483422E+03 -0.19685481322E+03  0.14839084898E+03  0.28390223509E+03  0.00000000000E+00 0. -1.
<mgrwt>
<rscale>  4 0.26681912E+03</rscale>
<asrwt>0</asrwt>
<pdfrwt beam="1">  1       21 0.12689846E-01 0.26681912E+03</pdfrwt>
<pdfrwt beam="2">  1        1 0.24784024E+00 0.26681912E+03</pdfrwt>
<totfact> 0.35413576E+03</totfact>
</mgrwt>
</event>
<event>
 5    0  0.1141006E+000  0.2503271E+03  0.7546771E-02  0.1113098E+00
          2   -1    0    0  503    0 -0.00000000000E+00  0.00000000000E+00  0.28714721432E+04  0.28714721432E+04  0.00000000000E+00 0. -1.
         21   -1    0    0  501  502  0.00000000000E+00 -0.00000000000E+00 -0.44186320866E+03  0.44186320866E+03  0.00000000000E+00 0.  1.
         25    1    1    2    0    0  0.14419757545E+03 -0.16182705484E+03 -0.40023514880E+03  0.47201071045E+03  0.12500000000E+03 0.  0.
         21    1    1    2  503  502 -0.12975063156E+02 -0.24212000418E+02  0.31886528185E+03  0.32004631102E+03  0.00000000000E+00 0.  1.
          2    1    1    2  501    0 -0.13122251230E+03  0.18603905526E+03  0.25109788015E+04  0.25212783304E+04  0.00000000000E+00 0. -1.
<mgrwt>
<rscale>  4 0.25032711E+03</rscale>
<asrwt>0</asrwt>
<pdfrwt beam="1">  1       21 0.67978957E-01 0.25032711E+03</pdfrwt>
<pdfrwt beam="2">  1        2 0.44176493E+00 0.25032711E+03</pdfrwt>
<totfact> 0.60805168E+01</totfact>
</mgrwt>
</event>
<event>
 5    0  0.1141006E+000  0.2388718E+03  0.7546771E-02  0.1120547E+00
         21   -1    0    0  501  502  0.00000000000E+00  0.00000000000E+00  0.78713814179E+02  0.78713814179E+02  0.00000000000E+00 0.  1.
          1   -1    0    0  503    0 -0.00000000000E+00 -0.00000000000E+00 -0.37836345142E+04  0.37836345142E+04  0.00000000000E+00 0. -1.
         25    1    1    2    0    0  0.20194927102E+03 -0.35860540599E+02 -0.12657108059E+03  0.27150455775E+03  0.12500000000E+03 0.  0.
         21    1    1    2  503  502 -0.38620314970E+02 -0.62487207844E+02 -0.39384006245E+03  0.40063221870E+03  0.00000000000E+00 0. -1.
          1    1    1    2  501    0 -0.16332895605E+03  0.98347748443E+02 -0.31845095570E+04  0.31902115519E+04  0.00000000000E+00 0. -1.
<mgrwt>
<rscale>  4 0.23887176E+03</rscale>
<asrwt>0</asrwt>
<pdfrwt beam="1">  1       21 0.12109818E-01 0.23887176E+03</pdfrwt>
<pdfrwt beam="2">  1        1 0.58209762E+00 0.23887176E+03</pdfrwt>
<totfact> 0.12301435E+02</totfact>
</mgrwt>
</event>
<event>
 5    0  0.1141006E+000  0.2326860E+03  0.7546771E-02  0.1124763E+00
         21   -1    0    0  501  502  0.00000000000E+00  0.00000000000E+00  0.57325589434E+02  0.57325589434E+02  0.00000000000E+00 0.  1.
          2   -1    0    0  503    0 -0.00000000000E+00 -0.00000000000E+00 -0.24193344992E+04  0.24193344992E+04  0.00000000000E+00 0.  1.
         25    1    1    2    0    0  0.46364616225E+02 -0.19982716186E+03 -0.19601853910E+04  0.19748499536E+04  0.12500000000E+03 0.  0.
         21    1    1    2  503  502  0.35881373830E+02  0.22184518395E+02 -0.25144690176E+03  0.25496111517E+03  0.00000000000E+00 0. -1.
          2    1    1    2  501    0 -0.82245990055E+02  0.17764264346E+03 -0.15037661703E+03  0.24684901986E+03  0.00000000000E+00 0.  1.
<mgrwt>
<rscale>  4 0.23268602E+03</rscale>
<asrwt>0</asrwt>
<pdfrwt beam="1">  1       21 0.88193210E-02 0.23268602E+03</pdfrwt>
<pdfrwt beam="2">  1        2 0.37220533E+00 0.23268602E+03</pdfrwt>
<totfact> 0.57506071E+03</totfact>
</mgrwt>
</event>
<event>
 5    0  0.1141006E+000  0.3281243E+03  0.7546771E-02  0.1071970E+00
          2   -1    0    0  503    0 -0.00000000000E+00  0.00000000000E+00  0.33557795217E+04  0.33557795217E+04  0.00000000000E+00 0.  1.
         21   -1    0    0  501  502  0.00000000000E+00 -0.00000000000E+00 -0.63916048163E+02  0.63916048163E+02  0.00000000000E+00 0. -1.
         25    1    1    2    0    0 -0.27775993838E+03  0.13633915077E+03  0.49052198126E+03  0.59327545163E+03  0.12500000000E+03 0.  0.
         21    1    1    2  503  502  0.19775428279E+02 -0.14836566539E+02  0.11754912876E+04  0.11757512316E+04  0.00000000000E+00 0.  1.
          2    1    1    2  501    0  0.25798451010E+03 -0.12150258423E+03  0.16258502047E+04  0.16506688867E+04  0.00000000000E+00 0.  1.
<mgrwt>
<rscale>  4 0.32812429E+03</rscale>
<asrwt>0</asrwt>
<pdfrwt beam="1">  1       21 0.98332408E-02 0.32812429E+03</pdfrwt>
<pdfrwt beam="2">  1        2 0.51627363E+00 0.32812429E+03</pdfrwt>
<totfact> 0.12859118E+03</totfact>
</mgrwt>
</event>
<event>
 5    0  0.1141006E+000  0.2629512E+03  0.7546771E-02  0.1105383E+00
          3   -1    0    0  503    0 -0.00000000000E+00  0.00000000000E+00  0.16251546280E+03  0.16251546280E+03  0.00000000000E+00 0.  1.
         21   -1    0    0  501  502  0.00000000000E+00 -0.00000000000E+00 -0.22157047576E+04  0.22157047576E+04  0.00000000000E+00 0. -1.
         25    1    1    2    0    0 -0.20238520223E+03  0.11534439630E+03 -0.21036095347E+04  0.21201561675E+04  0.12500000000E+03 0.  0.
         21    1    1    2  503  502  0.11685397839E+02 -0.26706666987E+02  0.37330675751E+02  0.47364268560E+02  0.00000000000E+00 0. -1.
          3    1    1    2  501    0  0.19069980439E+03 -0.88637729310E+02  0.13089564164E+02  0.21069978439E+03  0.00000000000E+00 0.  1.
<mgrwt>
<rscale>  4 0.26295117E+03</rscale>
<asrwt>0</asrwt>
<pdfrwt beam="1">  1       21 0.34087762E+00 0.26295117E+03</pdfrwt>
<pdfrwt beam="2">  1        3 0.25002381E-01 0.26295117E+03</pdfrwt>
<totfact> 0.13693234E+01</totfact>
</mgrwt>
</event>
<event>
 5    0  0.1141006E+000  0.2807940E+03  0.7546771E-02  0.1095256E+00
         21   -1    0    0  501  502  0.00000000000E+00  0.00000000000E+00  0.46616481291E+03  0.46616481291E+03  0.00000000000E+00 0.  1.
          2   -1    0    0  503    0 -0.00000000000E+00 -0.00000000000E+00 -0.83162818407E+03  0.83162818407E+03  0.00000000000E+00 0.  1.
         25    1    1    2    0    0  0.29053056431E+03  0.92931567138E+02  0.35555310166E+03  0.48485801331E+03  0.12500000000E+03 0.  0.
         21    1    1    2  503  502 -0.60273981401E+02  0.12645028690E+01 -0.11907284376E+02  0.61451893565E+02  0.00000000000E+00 0.  1.
          2    1    1    2  501    0 -0.23025658291E+03 -0.94196070006E+02 -0.70910918845E+03  0.75148309011E+03  0.00000000000E+00 0.  1.
<mgrwt>
<rscale>  4 0.28079401E+03</rscale>
<asrwt>0</asrwt>
<pdfrwt beam="1">  1       21 0.71717664E-01 0.28079401E+03</pdfrwt>
<pdfrwt beam="2">  1        2 0.12794280E+00 0.28079401E+03</pdfrwt>
<totfact> 0.71642387E+02</totfact>
</mgrwt>
</event>
<event>
 5    0  0.1141006E+000  0.2780601E+03  0.7546771E-02  0.1096753E+00
         21   -1    0    0  501  502  0.00000000000E+00  0.00000000000E+00  0.58128213952E+02  0.58128213952E+02  0.00000000000E+00 0. -1.
          1   -1    0    0  503    0 -0.00000000000E+00 -0.00000000000E+00 -0.19239484883E+04  0.19239484883E+04  0.00000000000E+00 0. -1.
         25    1    1    2    0    0  0.86756532826E+02  0.23521695577E+03 -0.38151607660E+03  0.47332148586E+03  0.12500000000E+03 0.  0.
         21    1    1    2  503  502 -0.25928212906E+02 -0.13513184158E+01 -0.90169139652E+02  0.93832681042E+02  0.00000000000E+00 0. -1.
          1    1    1    2  501    0 -0.60828319920E+02 -0.23386563735E+03 -0.13941350581E+04  0.14149225353E+04  0.00000000000E+00 0. -1.
<mgrwt>
<rscale>  4 0.27806013E+03</rscale>
<asrwt>0</asrwt>
<pdfrwt beam="1">  1       21 0.89428032E-02 0.27806013E+03</pdfrwt>
<pdfrwt beam="2">  1        1 0.29599204E+00 0.27806013E+03</pdfrwt>
<totfact> 0.41222754E+03</totfact>
</mgrwt>
</event>
<event>
 5    0  0.1141006E+000  0.2861559E+03  0.7546771E-02  0.1092373E+00
          1   -1    0    0  503    0 -0.00000000000E+00  0.00000000000E+00  0.99277372716E+03  0.99277372716E+03  0.00000000000E+00 0. -1.
         21   -1    0    0  501  502  0.00000000000E+00 -0.00000000000E+00 -0.12985590471E+03  0.12985590471E+03  0.00000000000E+00 0.  1.
         25    1    1    2    0    0  0.25459190937E+03 -0.37989221506E+02  0.86686160725E+02  0.29899784569E+03  0.12500000000E+03 0.  0.
         21    1    1    2  503  502 -0.45403402162E+02 -0.22986188967E+02  0.22961081684E+03  0.23518282467E+03  0.00000000000E+00 0.  1.
          1    1    1    2  501    0 -0.20918850721E+03  0.60975410472E+02  0.54662084489E+03  0.58844896151E+03  0.00000000000E+00 0. -1.
<mgrwt>
<rscale>  4 0.28615594E+03</rscale>
<asrwt>0</asrwt>
<pdfrwt beam="1">  1       21 0.19977832E-01 0.28615594E+03</pdfrwt>
<pdfrwt beam="2">  1        1 0.15273441E+00 0.28615594E+03</pdfrwt>
<totfact> 0.40776188E+03</totfact>
</mgrwt>
</event>
<event>
 5    0  0.1141006E+000  0.2794000E+03  0.7546771E-02  0.1096017E+00
         21   -1    0    0  501  502  0.00000000000E+00  0.00000000000E+00  0.59418996627E+02  0.59418996627E+02  0.00000000000E+00 0. -1.
          2   -1    0    0  503    0 -0.00000000000E+00 -0.00000000000E+00 -0.18590677668E+04  0.18590677668E+04  0.00000000000E+00 0.  1.
         25    1    1    2    0    0  0.11415354660E+03  0.20466771221E+03 -0.36443250891E+03  0.45095006173E+03  0.12500000000E+03 0.  0.
         21    1    1    2  503  502 -0.16897632595E+02  0.30431688323E+02 -0.63399497410E+02  0.72326439932E+02  0.00000000000E+00 0.  1.
          2    1    1    2  501    0 -0.97255914008E+02 -0.23509940054E+03 -0.13718167639E+04  0.13952102618E+04  0.00000000000E+00 0.  1.
<mgrwt>
<rscale>  4 0.27940002E+03</rscale>
<asrwt>0</asrwt>
<pdfrwt beam="1">  1       21 0.91413841E-02 0.27940002E+03</pdfrwt>
<pdfrwt beam="2">  1        2 0.28601043E+00 0.27940002E+03</pdfrwt>
<totfact> 0.10514921E+04</totfact>
</mgrwt>
</event>
<event>
 5    0  0.1141006E+000  0.2526029E+03  0.7546771E-02  0.1111671E+00
          1   -1    0    0  503    0 -0.00000000000E+00  0.00000000000E+00  0.32830546566E+03  0.32830546566E+03  0.00000000000E+00 0. -1.
         21   -1    0    0  501  502  0.00000000000E+00 -0.00000000000E+00 -0.41593227029E+03  0.41593227029E+03  0.00000000000E+00 0. -1.
         25    1    1    2    0    0 -0.17476100926E+03 -0.12015458105E+03 -0.23219598186E+03  0.33840583284E+03  0.12500000000E+03 0.  0.
         21    1    1    2  503  502 -0.31368804167E+02  0.67989341652E+01  0.16650359098E+03  0.16956908088E+03  0.00000000000E+00 0. -1.
          1    1    1    2  501    0  0.20612981343E+03  0.11335564688E+03 -0.21934413750E+02  0.23626282224E+03  0.00000000000E+00 0. -1.
<mgrwt>
<rscale>  4 0.25260286E+03</rscale>
<asrwt>0</asrwt>
<pdfrwt beam="1">  1       21 0.63989580E-01 0.25260286E+03</pdfrwt>
<pdfrwt beam="2">  1        1 0.50508533E-01 0.25260286E+03</pdfrwt>
<totfact> 0.18853882E+03</totfact>
</mgrwt>
</event>
<event>
 5    0  0.1141006E+000  0.2595905E+03  0.7546771E-02  0.1107390E+00
          2   -1    0    0  503    0 -0.00000000000E+00  0.00000000000E+00  0.46912258280E+03  0.46912258280E+03  0.00000000000E+00 0.  1.
         21   -1    0    0  501  502  0.00000000000E+00 -0.00000000000E+00 -0.82819907734E+03  0.82819907734E+03  0.00000000000E+00 0. -1.
         25    1    1    2    0    0  0.17988931860E+03 -0.13929127059E+03 -0.77579729519E+03  0.81807619953E+03  0.12500000000E+03 0.  0.
         21    1    1    2  503  502 -0.44399327690E+02  0.32037778094E+01  0.84918436020E+02  0.95878596505E+02  0.00000000000E+00 0.  1.
          2    1    1    2  501    0 -0.13548999091E+03  0.13608749278E+03  0.33180236463E+03  0.38336686411E+03  0.00000000000E+00 0.  1.
<mgrwt>
<rscale>  4 0.25959049E+03</rscale>
<asrwt>0</asrwt>
<pdfrwt beam="1">  1       21 0.12741524E+00 0.25959049E+03</pdfrwt>
<pdfrwt beam="2">  1        2 0.72172706E-01 0.25959049E+03</pdfrwt>
<totfact> 0.36510677E+02</totfact>
</mgrwt>
</event>
<event>
 5    0  0.1141006E+000  0.2931934E+03  0.7546771E-02  0.1088694E+00
         21   -1    0    0  501  502  0.00000000000E+00  0.00000000000E+00  0.65921122810E+03  0.65921122810E+03  0.00000000000E+00 0. -1.
          2   -1    0    0  503    0 -0.00000000000E+00 -0.00000000000E+00 -0.23059701654E+04  0.23059701654E+04  0.00000000000E+00 0.  1.
         25    1    1    2    0    0 -0.10984917475E+03 -0.24093502554E+03  0.58813753279E+03  0.65699869498E+03  0.12500000000E+03 0.  0.
         21    1    1    2  503  502  0.90922742445E+02 -0.69987395296E+02 -0.10469359758E+03  0.15532523931E+03  0.00000000000E+00 0. -1.
          2    1    1    2  501    0  0.18926432305E+02  0.31092242083E+03 -0.21302028725E+04  0.21528574592E+04  0.00000000000E+00 0.  1.
<mgrwt>
<rscale>  4 0.29319342E+03</rscale>
<asrwt>0</asrwt>
<pdfrwt beam="1">  1       21 0.10141711E+00 0.29319342E+03</pdfrwt>
<pdfrwt beam="2">  1        2 0.35476465E+00 0.29319342E+03</pdfrwt>
<totfact> 0.48239584E+01</totfact>
</mgrwt>
</event>
<event>
 5    0  0.1141006E+000  0.3194266E+03  0.7546771E-02  0.1075913E+00
          1   -1    0    0  503    0 -0.00000000000E+00  0.00000000000E+00  0.10677182110E+04  0.10677182110E+04  0.00000000000E+00 0.  1.
         21   -1    0    0  501  502  0.00000000000E+00 -0.00000000000E+00 -0.12711727853E+03  0.12711727853E+03  0.00000000000E+00 0.  1.
         25    1    1    2    0    0  0.19624357630E+03 -0.21220715605E+03  0.74393476500E+03  0.80784116811E+03  0.12500000000E+03 0.  0.
         21    1    1    2  503  502  0.25154151376E+02 -0.18209784442E+01  0.17933723829E+02  0.30946174954E+02  0.00000000000E+00 0.  1.
          1    1    1    2  501    0 -0.22139772768E+03  0.21402813450E+03  0.17873244361E+03  0.35604814643E+03  0.00000000000E+00 0.  1.
<mgrwt>
<rscale>  4 0.31942660E+03</rscale>
<asrwt>0</asrwt>
<pdfrwt beam="1">  1       21 0.19556505E-01 0.31942660E+03</pdfrwt>
<pdfrwt beam="2">  1        1 0.16426433E+00 0.31942660E+03</pdfrwt>
<totfact> 0.36995167E+03</totfact>
</mgrwt>
</event>
<event>
 5    0  0.1141006E+000  0.2935652E+03  0.7546771E-02  0.1088502E+00
         21   -1    0    0  501  502  0.00000000000E+00  0.00000000000E+00  0.26788323695E+03  0.26788323695E+03  0.00000000000E+00 0.  1.
          2   -1    0    0  503    0 -0.00000000000E+00 -0.00000000000E+00 -0.87010643401E+03  0.87010643401E+03  0.00000000000E+00 0.  1.
         25    1    1    2    0    0 -0.27403581534E+03 -0.84148440086E+01  0.12913004204E+03  0.32782008091E+03  0.12500000000E+03 0.  0.
         21    1    1    2  503  502  0.59962706251E+02 -0.93737621047E+02 -0.22493771427E+03  0.25095665571E+03  0.00000000000E+00 0.  1.
          2    1    1    2  501    0  0.21407310909E+03  0.10215246506E+03 -0.50641552482E+03  0.55921293434E+03  0.00000000000E+00 0.  1.
<mgrwt>
<rscale>  4 0.29356522E+03</rscale>
<asrwt>0</asrwt>
<pdfrwt beam="1">  1       21 0.41212806E-01 0.29356522E+03</pdfrwt>
<pdfrwt beam="2">  1        2 0.13386253E+00 0.29356522E+03</pdfrwt>
<totfact> 0.21946080E+03</totfact>
</mgrwt>
</event>
<event>
 5    0  0.1141006E+000  0.3301925E+03  0.7546771E-02  0.1071052E+00
         21   -1    0    0  501  502  0.00000000000E+00  0.00000000000E+00  0.35271206671E+03  0.35271206671E+03  0.00000000000E+00 0.  1.
          1   -1    0    0  503    0 -0.00000000000E+00 -0.00000000000E+00 -0.21298238466E+04  0.21298238466E+04  0.00000000000E+00 0.  1.
         25    1    1    2    0    0 -0.13105526570E+03 -0.25514112296E+03 -0.10704787074E+04  0.11152677429E+04  0.12500000000E+03 0.  0.
         21    1    1    2  503  502  0.59766019734E+02 -0.43840425414E+02 -0.96371715702E+03  0.96656335476E+03  0.00000000000E+00 0.  1.
          1    1    1    2  501    0  0.71289245967E+02  0.29898154837E+03  0.25708408448E+03  0.40070481574E+03  0.00000000000E+00 0.  1.
<mgrwt>
<rscale>  4 0.33019249E+03</rscale>
<asrwt>0</asrwt>
<pdfrwt beam="1">  1       21 0.54263396E-01 0.33019249E+03</pdfrwt>
<pdfrwt beam="2">  1        1 0.32766520E+00 0.33019249E+03</pdfrwt>
<totfact> 0.92563845E+01</totfact>
</mgrwt>
</event>
<event>
 5    0  0.1141006E+000  0.3292382E+03  0.7546771E-02  0.1071474E+00
         21   -1    0    0  501  502  0.00000000000E+00  0.00000000000E+00  0.11957379869E+03  0.11957379869E+03  0.00000000000E+00 0.  1.
          1   -1    0    0  503    0 -0.00000000000E+00 -0.00000000000E+00 -0.12497059861E+04  0.12497059861E+04  0.00000000000E+00 0.  1.
         25    1    1    2    0    0  0.16600527997E+03  0.18998437435E+03 -0.41165390445E+03  0.49873415015E+03  0.12500000000E+03 0.  0.
         21    1    1    2  503  502  0.96208082998E+02  0.64695197560E+02 -0.25617311818E+03  0.28118700236E+03  0.00000000000E+00 0.  1.
          1    1    1    2  501    0 -0.26221336296E+03 -0.25467957191E+03 -0.46230516479E+03  0.58935863229E+03  0.00000000000E+00 0.  1.
<mgrwt>
<rscale>  4 0.32923824E+03</rscale>
<asrwt>0</asrwt>
<pdfrwt beam="1">  1       21 0.18395969E-01 0.32923824E+03</pdfrwt>
<pdfrwt beam="2">  1        1 0.19226246E+00 0.32923824E+03</pdfrwt>
<totfact> 0.30685235E+03</totfact>
</mgrwt>
</event>
<event>
 5    0  0.1141006E+000  0.3233249E+03  0.7546771E-02  0.1074129E+00
         21   -1    0    0  501  502  0.00000000000E+00  0.00000000000E+00  0.46682747543E+03  0.46682747543E+03  0.00000000000E+00 0.  1.
          2   -1    0    0  503    0 -0.00000000000E+00 -0.00000000000E+00 -0.28099480238E+03  0.28099480238E+03  0.00000000000E+00 0.  1.
         25    1    1    2    0    0 -0.26365719864E+03 -0.15589488996E+03  0.17347800822E+03  0.37354779406E+03  0.12500000000E+03 0.  0.
         21    1    1    2  503  502  0.25449242455E+02 -0.89100128766E+01 -0.68436791696E+02  0.73557098425E+02  0.00000000000E+00 0. -1.
          2    1    1    2  501    0  0.23820795619E+03  0.16480490284E+03  0.80791456524E+02  0.30071738533E+03  0.00000000000E+00 0.  1.
<mgrwt>
<rscale>  4 0.32332495E+03</rscale>
<asrwt>0</asrwt>
<pdfrwt beam="1">  1       21 0.71819612E-01 0.32332495E+03</pdfrwt>
<pdfrwt beam="2">  1        2 0.43229970E-01 0.32332495E+03</pdfrwt>
<totfact> 0.24435462E+03</totfact>
</mgrwt>
</event>
<event>
 5    0  0.1141006E+000  0.3405673E+03  0.7546771E-02  0.1066555E+00
          2   -1    0    0  503    0 -0.00000000000E+00  0.00000000000E+00  0.12018556187E+03  0.12018556187E+03  0.00000000000E+00 0.  1.
         21   -1    0    0  501  502  0.00000000000E+00 -0.00000000000E+00 -0.21378943682E+04  0.21378943682E+04  0.00000000000E+00 0.  1.
         25    1    1    2    0    0 -0.14245929948E+03  0.28726041798E+03 -0.18494511388E+04  0.18811984782E+04  0.12500000000E+03 0.  0.
         21    1    1    2  503  502 -0.59392660578E+01 -0.34079499182E+02 -0.49289320799E+02  0.60217308896E+02  0.00000000000E+00 0.  1.
          2    1    1    2  501    0  0.14839856554E+03 -0.25318091880E+03 -0.11896834676E+03  0.31666414295E+03  0.00000000000E+00 0.  1.
<mgrwt>
<rscale>  4 0.34056735E+03</rscale>
<asrwt>0</asrwt>
<pdfrwt beam="1">  1       21 0.32890678E+00 0.34056735E+03</pdfrwt>
<pdfrwt beam="2">  1        2 0.18490089E-01 0.34056735E+03</pdfrwt>
<totfact> 0.75518543E+01</totfact>
</mgrwt>
</event>
<event>
 5    0  0.1141006E+000  0.3220525E+03  0.7546771E-02  0.1074709E+00
          2   -1    0    0  503    0 -0.00000000000E+00  0.00000000000E+00  0.13296952378E+04  0.13296952378E+04  0.00000000000E+00 0. -1.
         21   -1    0    0  501  502  0.00000000000E+00 -0.00000000000E+00 -0.16736009383E+04  0.16736009383E+04  0.00000000000E+00 0. -1.
         25    1    1    2    0    0 -0.24711230142E+03 -0.16162353377E+03 -0.16064207369E+04  0.16381084336E+04  0.12500000000E+03 0.  0.
         21    1    1    2  503  502 -0.11673740261E+03 -0.85410665007E+01  0.25633954943E+03  0.28179875015E+03  0.00000000000E+00 0. -1.
          2    1    1    2  501    0  0.36384970403E+03  0.17016460027E+03  0.10061754869E+04  0.10833889924E+04  0.00000000000E+00 0. -1.
<mgrwt>
<rscale>  4 0.32205249E+03</rscale>
<asrwt>0</asrwt>
<pdfrwt beam="1">  1       21 0.25747707E+00 0.32205249E+03</pdfrwt>
<pdfrwt beam="2">  1        2 0.20456850E+00 0.32205249E+03</pdfrwt>
<totfact> 0.11276291E+01</totfact>
</mgrwt>
</event>
<event>
 5    0  0.1141006E+000  0.4219885E+03  0.7546771E-02  0.1036421E+00
          2   -1    0    0  503    0 -0.00000000000E+00  0.00000000000E+00  0.25733363057E+04  0.25733363057E+04  0.00000000000E+00 0. -1.
         21   -1    0    0  501  502  0.00000000000E+00 -0.00000000000E+00 -0.17374514711E+03  0.17374514711E+03  0.00000000000E+00 0. -1.
         25    1    1    2    0    0  0.36485880253E+03  0.13067273316E+03  0.23950771457E+03  0.47242592468E+03  0.12500000000E+03 0.  0.
         21    1    1    2  503  502  0.14006663531E+03 -0.13147722101E+03  0.40272898474E+03  0.44620125181E+03  0.00000000000E+00 0. -1.
          2    1    1    2  501    0 -0.50492543784E+03  0.80448785114E+00  0.17573544593E+04  0.18284542763E+04  0.00000000000E+00 0. -1.
<mgrwt>
<rscale>  4 0.42198845E+03</rscale>
<asrwt>0</asrwt>
<pdfrwt beam="1">  1       21 0.26730024E-01 0.42198845E+03</pdfrwt>
<pdfrwt beam="2">  1        2 0.39589787E+00 0.42198845E+03</pdfrwt>
<totfact> 0.56314284E+02</totfact>
</mgrwt>
</event>
<event>
 5    0  0.1141006E+000  0.3213697E+03  0.7546771E-02  0.1075021E+00
          2   -1    0    0  503    0 -0.00000000000E+00  0.00000000000E+00  0.33574296213E+03  0.33574296213E+03  0.00000000000E+00 0. -1.
         21   -1    0    0  501  502  0.00000000000E+00 -0.00000000000E+00 -0.47476496692E+03  0.47476496692E+03  0.00000000000E+00 0. -1.
         25    1    1    2    0    0  0.64165491652E+02  0.25709017234E+03  0.56854321400E+02  0.29844594300E+03  0.12500000000E+03 0.  0.
         21    1    1    2  503  502  0.39270362188E+02  0.33486860504E+02  0.82015209413E+02  0.96902145218E+02  0.00000000000E+00 0. -1.
          2    1    1    2  501    0 -0.10343585384E+03 -0.29057703285E+03 -0.27789153560E+03  0.41515984083E+03  0.00000000000E+00 0. -1.
<mgrwt>
<rscale>  4 0.32136974E+03</rscale>
<asrwt>0</asrwt>
<pdfrwt beam="1">  1       21 0.73040764E-01 0.32136974E+03</pdfrwt>
<pdfrwt beam="2">  1        2 0.51652763E-01 0.32136974E+03</pdfrwt>
<totfact> 0.19392816E+03</totfact>
</mgrwt>
</event>
<event>
 5    0  0.1141006E+000  0.2808648E+03  0.7546771E-02  0.1095218E+00
          1   -1    0    0  503    0 -0.00000000000E+00  0.00000000000E+00  0.22628589045E+04  0.22628589045E+04  0.00000000000E+00 0. -1.
         21   -1    0    0  501  502  0.00000000000E+00 -0.00000000000E+00 -0.13335926812E+03  0.13335926812E+03  0.00000000000E+00 0.  1.
         25    1    1    2    0    0 -0.19711391365E+03  0.15392456205E+03  0.38755368950E+02  0.28226520221E+03  0.12500000000E+03 0.  0.
         21    1    1    2  503  502  0.69338643416E+01  0.34486265626E+02  0.46367458632E+03  0.46500699241E+03  0.00000000000E+00 0.  1.
          1    1    1    2  501    0  0.19018004931E+03 -0.18841082767E+03  0.16270696811E+04  0.16489459780E+04  0.00000000000E+00 0. -1.
<mgrwt>
<rscale>  4 0.28086483E+03</rscale>
<asrwt>0</asrwt>
<pdfrwt beam="1">  1       21 0.20516812E-01 0.28086483E+03</pdfrwt>
<pdfrwt beam="2">  1        1 0.34813211E+00 0.28086483E+03</pdfrwt>
<totfact> 0.54442767E+02</totfact>
</mgrwt>
</event>
<event>
 5    0  0.1141006E+000  0.4982665E+03  0.7546771E-02  0.1014232E+00
         -3   -1    0    0    0  501 -0.00000000000E+00  0.00000000000E+00  0.77939689166E+03  0.77939689166E+03  0.00000000000E+00 0.  1.
         21   -1    0    0  503  502  0.00000000000E+00 -0.00000000000E+00 -0.46138228396E+03  0.46138228396E+03  0.00000000000E+00 0.  1.
         25    1    1    2    0    0  0.36244966788E+03 -0.35799156442E+03  0.39598058921E+03  0.65723157941E+03  0.12500000000E+03 0.  0.
         21    1    1    2  503  501 -0.46902985620E+02  0.47474731974E+01  0.72575564908E+02  0.86542713059E+02  0.00000000000E+00 0. -1.
         -3    1    1    2    0  502 -0.31554668226E+03  0.35324409123E+03 -0.15054154642E+03  0.49700488315E+03  0.00000000000E+00 0.  1.
<mgrwt>
<rscale>  4 0.49826645E+03</rscale>
<asrwt>0</asrwt>
<pdfrwt beam="1">  1       21 0.70981890E-01 0.49826645E+03</pdfrwt>
<pdfrwt beam="2">  1       -3 0.11990721E+00 0.49826645E+03</pdfrwt>
<totfact> 0.48221655E+01</totfact>
</mgrwt>
</event>
<event>
 5    0  0.1141006E+000  0.2610430E+03  0.7546771E-02  0.1106518E+00
          2   -1    0    0  503    0 -0.00000000000E+00  0.00000000000E+00  0.16595229023E+04  0.16595229023E+04  0.00000000000E+00 0. -1.
         21   -1    0    0  501  502  0.00000000000E+00 -0.00000000000E+00 -0.50660916639E+02  0.50660916639E+02  0.00000000000E+00 0. -1.
         25    1    1    2    0    0  0.18212210186E+03 -0.11924425127E+03  0.45978318470E+03  0.52384466054E+03  0.12500000000E+03 0.  0.
         21    1    1    2  503  502  0.23287065974E+02 -0.22900902191E+02  0.28538496460E+03  0.28724783165E+03  0.00000000000E+00 0. -1.
          2    1    1    2  501    0 -0.20540916783E+03  0.14214515346E+03  0.86369383638E+03  0.89909132677E+03  0.00000000000E+00 0. -1.
<mgrwt>
<rscale>  4 0.26104300E+03</rscale>
<asrwt>0</asrwt>
<pdfrwt beam="1">  1       21 0.77939884E-02 0.26104300E+03</pdfrwt>
<pdfrwt beam="2">  1        2 0.25531117E+00 0.26104300E+03</pdfrwt>
<totfact> 0.17819982E+04</totfact>
</mgrwt>
</event>
<event>
 5    0  0.1141006E+000  0.2327032E+03  0.7546771E-02  0.1124751E+00
          2   -1    0    0  503    0 -0.00000000000E+00  0.00000000000E+00  0.13245721659E+04  0.13245721659E+04  0.00000000000E+00 0. -1.
         21   -1    0    0  501  502  0.00000000000E+00 -0.00000000000E+00 -0.54682029191E+02  0.54682029191E+02  0.00000000000E+00 0.  1.
         25    1    1    2    0    0  0.20402153823E+03 -0.12331887627E+02  0.30280122443E+03  0.38612231874E+03  0.12500000000E+03 0.  0.
         21    1    1    2  503  502 -0.25453398444E+02 -0.18526978543E+02  0.30733530467E+03  0.30894354488E+03  0.00000000000E+00 0. -1.
          2    1    1    2  501    0 -0.17856813979E+03  0.30858866170E+02  0.65975360765E+03  0.68418833151E+03  0.00000000000E+00 0. -1.
<mgrwt>
<rscale>  4 0.23270320E+03</rscale>
<asrwt>0</asrwt>
<pdfrwt beam="1">  1       21 0.84126208E-02 0.23270320E+03</pdfrwt>
<pdfrwt beam="2">  1        2 0.20378031E+00 0.23270320E+03</pdfrwt>
<totfact> 0.23728998E+04</totfact>
</mgrwt>
</event>
<event>
 5    0  0.1141006E+000  0.2554332E+03  0.7546771E-02  0.1109919E+00
          2   -1    0    0  503    0 -0.00000000000E+00  0.00000000000E+00  0.26195356528E+04  0.26195356528E+04  0.00000000000E+00 0. -1.
         21   -1    0    0  501  502  0.00000000000E+00 -0.00000000000E+00 -0.83256835332E+02  0.83256835332E+02  0.00000000000E+00 0.  1.
         25    1    1    2    0    0 -0.23906046751E+02  0.22666866562E+03  0.15698891142E+03  0.30367861524E+03  0.12500000000E+03 0.  0.
         21    1    1    2  503  502 -0.17909014939E+01 -0.28470114626E+02  0.13662473991E+04  0.13665451732E+04  0.00000000000E+00 0.  1.
          2    1    1    2  501    0  0.25696948245E+02 -0.19819855099E+03  0.10130425069E+04  0.10325686997E+04  0.00000000000E+00 0. -1.
<mgrwt>
<rscale>  4 0.25543320E+03</rscale>
<asrwt>0</asrwt>
<pdfrwt beam="1">  1       21 0.12808746E-01 0.25543320E+03</pdfrwt>
<pdfrwt beam="2">  1        2 0.40300542E+00 0.25543320E+03</pdfrwt>
<totfact> 0.22711479E+03</totfact>
</mgrwt>
</event>
<event>
 5    0  0.1141006E+000  0.2956488E+03  0.7546771E-02  0.1087436E+00
          2   -1    0    0  503    0 -0.00000000000E+00  0.00000000000E+00  0.30562096290E+04  0.30562096290E+04  0.00000000000E+00 0. -1.
         21   -1    0    0  501  502  0.00000000000E+00 -0.00000000000E+00 -0.93953046471E+02  0.93953046471E+02  0.00000000000E+00 0. -1.
         25    1    1    2    0    0  0.25954772695E+03 -0.73157983462E+02  0.17159446505E+03  0.34320077731E+03  0.12500000000E+03 0.  0.
         21    1    1    2  503  502 -0.26499302848E+02 -0.20663570374E+02  0.12336331921E+03  0.12785814295E+03  0.00000000000E+00 0. -1.
          2    1    1    2  501    0 -0.23304842410E+03  0.93821553836E+02  0.26672987983E+04  0.26791037552E+04  0.00000000000E+00 0. -1.
<mgrwt>
<rscale>  4 0.29564878E+03</rscale>
<asrwt>0</asrwt>
<pdfrwt beam="1">  1       21 0.14454317E-01 0.29564878E+03</pdfrwt>
<pdfrwt beam="2">  1        2 0.47018602E+00 0.29564878E+03</pdfrwt>
<totfact> 0.99932071E+02</totfact>
</mgrwt>
</event>
<event>
 5    0  0.1141006E+000  0.2643415E+03  0.7546771E-02  0.1104562E+00
          1   -1    0    0  503    0 -0.00000000000E+00  0.00000000000E+00  0.36528481113E+03  0.36528481113E+03  0.00000000000E+00 0. -1.
         21   -1    0    0  501  502  0.00000000000E+00 -0.00000000000E+00 -0.19426399946E+04  0.19426399946E+04  0.00000000000E+00 0.  1.
         25    1    1    2    0    0  0.20622717900E+03 -0.11575105596E+03 -0.18742124568E+04  0.18932050310E+04  0.12500000000E+03 0.  0.
         21    1    1    2  503  502 -0.62701013875E+02  0.10077142873E+03  0.50020504302E+02  0.12879576406E+03  0.00000000000E+00 0. -1.
          1    1    1    2  501    0 -0.14352616513E+03  0.14979627223E+02  0.24683676903E+03  0.28592401062E+03  0.00000000000E+00 0. -1.
<mgrwt>
<rscale>  4 0.26434147E+03</rscale>
<asrwt>0</asrwt>
<pdfrwt beam="1">  1       21 0.29886769E+00 0.26434147E+03</pdfrwt>
<pdfrwt beam="2">  1        1 0.56197664E-01 0.26434147E+03</pdfrwt>
<totfact> 0.23884281E+01</totfact>
</mgrwt>
</event>
<event>
 5    0  0.1141006E+000  0.2932902E+03  0.7546771E-02  0.1088644E+00
         21   -1    0    0  501  502  0.00000000000E+00  0.00000000000E+00  0.43572409875E+03  0.43572409875E+03  0.00000000000E+00 0. -1.
          1   -1    0    0  503    0 -0.00000000000E+00 -0.00000000000E+00 -0.19763102380E+03  0.19763102380E+03  0.00000000000E+00 0.  1.
         25    1    1    2    0    0  0.25404666296E+03 -0.89299687751E+02  0.13443464051E+03  0.32590153998E+03  0.12500000000E+03 0.  0.
         21    1    1    2  503  502 -0.16553840205E+02 -0.21692936792E+02  0.88474057475E+01  0.28686054463E+02  0.00000000000E+00 0.  1.
          1    1    1    2  501    0 -0.23749282276E+03  0.11099262454E+03  0.94811028694E+02  0.27876752811E+03  0.00000000000E+00 0.  1.
<mgrwt>
<rscale>  4 0.29329024E+03</rscale>
<asrwt>0</asrwt>
<pdfrwt beam="1">  1       21 0.67034476E-01 0.29329024E+03</pdfrwt>
<pdfrwt beam="2">  1        1 0.30404773E-01 0.29329024E+03</pdfrwt>
<totfact> 0.31957621E+03</totfact>
</mgrwt>
</event>
<event>
 5    0  0.1141006E+000  0.2482468E+03  0.7546771E-02  0.1114418E+00
          2   -1    0    0  503    0 -0.00000000000E+00  0.00000000000E+00  0.48115106538E+03  0.48115106538E+03  0.00000000000E+00 0.  1.
         21   -1    0    0  501  502  0.00000000000E+00 -0.00000000000E+00 -0.92402002558E+03  0.92402002558E+03  0.00000000000E+00 0. -1.
         25    1    1    2    0    0 -0.20901183212E+03  0.48120012743E+02 -0.88000212854E+03  0.91434688594E+03  0.12500000000E+03 0.  0.
         21    1    1    2  503  502  0.63892727916E+02  0.41619888387E+01  0.17910489717E+03  0.19020559146E+03  0.00000000000E+00 0. -1.
          2    1    1    2  501    0  0.14511910421E+03 -0.52282001581E+02  0.25802827117E+03  0.30061861356E+03  0.00000000000E+00 0.  1.
<mgrwt>
<rscale>  4 0.24824682E+03</rscale>
<asrwt>0</asrwt>
<pdfrwt beam="1">  1       21 0.14215692E+00 0.24824682E+03</pdfrwt>
<pdfrwt beam="2">  1        2 0.74023242E-01 0.24824682E+03</pdfrwt>
<totfact> 0.26947497E+02</totfact>
</mgrwt>
</event>
<event>
 5    0  0.1141006E+000  0.3186827E+03  0.7546771E-02  0.1076257E+00
          2   -1    0    0  503    0 -0.00000000000E+00  0.00000000000E+00  0.62729469131E+03  0.62729469131E+03  0.00000000000E+00 0. -1.
         21   -1    0    0  501  502  0.00000000000E+00 -0.00000000000E+00 -0.22344137301E+03  0.22344137301E+03  0.00000000000E+00 0.  1.
         25    1    1    2    0    0  0.28143188164E+03 -0.10065237622E+03 -0.37304053215E+01  0.32399648265E+03  0.12500000000E+03 0.  0.
         21    1    1    2  503  502 -0.11102548930E+02  0.22661203447E+02  0.12665674166E+03  0.12914614568E+03  0.00000000000E+00 0. -1.
          2    1    1    2  501    0 -0.27032933271E+03  0.77991172776E+02  0.28092698195E+03  0.39759343599E+03  0.00000000000E+00 0. -1.
<mgrwt>
<rscale>  4 0.31868271E+03</rscale>
<asrwt>0</asrwt>
<pdfrwt beam="1">  1       21 0.34375596E-01 0.31868271E+03</pdfrwt>
<pdfrwt beam="2">  1        2 0.96506875E-01 0.31868271E+03</pdfrwt>
<totfact> 0.47399321E+03</totfact>
</mgrwt>
</event>
<event>
 5    0  0.1141006E+000  0.3136453E+03  0.7546771E-02  0.1078612E+00
         21   -1    0    0  501  502  0.00000000000E+00  0.00000000000E+00  0.77253678913E+02  0.77253678913E+02  0.00000000000E+00 0.  1.
          2   -1    0    0  503    0 -0.00000000000E+00 -0.00000000000E+00 -0.26331693410E+04  0.26331693410E+04  0.00000000000E+00 0.  1.
         25    1    1    2    0    0  0.26962688251E+03  0.13221490229E+03 -0.35362654030E+03  0.48047493812E+03  0.12500000000E+03 0.  0.
         21    1    1    2  503  502 -0.20800773123E+02 -0.88501238112E+02 -0.79291420779E+03  0.79810906662E+03  0.00000000000E+00 0.  1.
          2    1    1    2  501    0 -0.24882610939E+03 -0.43713664177E+02 -0.14093749140E+04  0.14318390152E+04  0.00000000000E+00 0.  1.
<mgrwt>
<rscale>  4 0.31364534E+03</rscale>
<asrwt>0</asrwt>
<pdfrwt beam="1">  1       21 0.11885181E-01 0.31364534E+03</pdfrwt>
<pdfrwt beam="2">  1        2 0.40510299E+00 0.31364534E+03</pdfrwt>
<totfact> 0.24885741E+03</totfact>
</mgrwt>
</event>
<event>
 5    0  0.1141006E+000  0.3692404E+03  0.7546771E-02  0.1054984E+00
         21   -1    0    0  501  502  0.00000000000E+00  0.00000000000E+00  0.50164461858E+03  0.50164461858E+03  0.00000000000E+00 0. -1.
          1   -1    0    0  503    0 -0.00000000000E+00 -0.00000000000E+00 -0.15204883940E+04  0.15204883940E+04  0.00000000000E+00 0. -1.
         25    1    1    2    0    0  0.16750307859E+03 -0.31136935609E+03  0.38945734745E+03  0.54065717671E+03  0.12500000000E+03 0.  0.
         21    1    1    2  503  502  0.55173463962E+02  0.14326869260E+03 -0.28146205152E+03  0.32061022419E+03  0.00000000000E+00 0.  1.
          1    1    1    2  501    0 -0.22267654255E+03  0.16810066348E+03 -0.11268390713E+04  0.11608656117E+04  0.00000000000E+00 0. -1.
<mgrwt>
<rscale>  4 0.36924044E+03</rscale>
<asrwt>0</asrwt>
<pdfrwt beam="1">  1       21 0.77176095E-01 0.36924044E+03</pdfrwt>
<pdfrwt beam="2">  1        1 0.23392129E+00 0.36924044E+03</pdfrwt>
<totfact> 0.10490239E+02</totfact>
</mgrwt>
</event>
<event>
 5    0  0.1141006E+000  0.2676547E+03  0.7546771E-02  0.1102629E+00
         21   -1    0    0  501  502  0.00000000000E+00  0.00000000000E+00  0.12930761323E+04  0.12930761323E+04  0.00000000000E+00 0. -1.
          2   -1    0    0  503    0 -0.00000000000E+00 -0.00000000000E+00 -0.20448238985E+03  0.20448238985E+03  0.00000000000E+00 0. -1.
         25    1    1    2    0    0 -0.67411329001E+02  0.22753988055E+03  0.10434266435E+04  0.10773499176E+04  0.12500000000E+03 0.  0.
         21    1    1    2  503  502 -0.12155642359E+03 -0.46421336494E+02  0.85034402414E+02  0.15544051657E+03  0.00000000000E+00 0.  1.
          2    1    1    2  501    0  0.18896775259E+03 -0.18111854405E+03 -0.39867303499E+02  0.26476808797E+03  0.00000000000E+00 0. -1.
<mgrwt>
<rscale>  4 0.26765470E+03</rscale>
<asrwt>0</asrwt>
<pdfrwt beam="1">  1       21 0.19893478E+00 0.26765470E+03</pdfrwt>
<pdfrwt beam="2">  1        2 0.31458830E-01 0.26765470E+03</pdfrwt>
<totfact> 0.26545328E+02</totfact>
</mgrwt>
</event>
<event>
 5    0  0.1141006E+000  0.5519728E+03  0.7546771E-02  0.1001038E+00
         21   -1    0    0  501  502  0.00000000000E+00  0.00000000000E+00  0.51327541892E+03  0.51327541892E+03  0.00000000000E+00 0.  1.
          2   -1    0    0  503    0 -0.00000000000E+00 -0.00000000000E+00 -0.63557292050E+03  0.63557292050E+03  0.00000000000E+00 0.  1.
         25    1    1    2    0    0 -0.52851707144E+03  0.11901074915E+03 -0.96724459222E+01  0.55606870926E+03  0.12500000000E+03 0.  0.
         21    1    1    2  503  502  0.18721650469E+02  0.39933741921E+02 -0.27668801167E+02  0.52065021830E+02  0.00000000000E+00 0.  1.
          2    1    1    2  501    0  0.50979542097E+03 -0.15894449107E+03 -0.84956254498E+02  0.54071460833E+03  0.00000000000E+00 0.  1.
<mgrwt>
<rscale>  4 0.55197278E+03</rscale>
<asrwt>0</asrwt>
<pdfrwt beam="1">  1       21 0.78965449E-01 0.55197278E+03</pdfrwt>
<pdfrwt beam="2">  1        2 0.97780449E-01 0.55197278E+03</pdfrwt>
<totfact> 0.74553152E+02</totfact>
</mgrwt>
</event>
<event>
 5    0  0.1141006E+000  0.2394754E+03  0.7546771E-02  0.1120143E+00
         -1   -1    0    0    0  501 -0.00000000000E+00  0.00000000000E+00  0.11721575759E+03  0.11721575759E+03  0.00000000000E+00 0.  1.
         21   -1    0    0  503  502  0.00000000000E+00 -0.00000000000E+00 -0.94194828648E+03  0.94194828648E+03  0.00000000000E+00 0.  1.
         25    1    1    2    0    0 -0.55061158791E+02  0.19670219089E+03 -0.81826356502E+03  0.85258650291E+03  0.12500000000E+03 0.  0.
         21    1    1    2  503  501  0.13367791518E+02 -0.16964572827E+02 -0.44726159610E+01  0.22056719493E+02  0.00000000000E+00 0. -1.
         -1    1    1    2    0  502  0.41693367273E+02 -0.17973761807E+03 -0.19963479141E+01  0.18452082166E+03  0.00000000000E+00 0.  1.
<mgrwt>
<rscale>  4 0.23947543E+03</rscale>
<asrwt>0</asrwt>
<pdfrwt beam="1">  1       21 0.14491512E+00 0.23947543E+03</pdfrwt>
<pdfrwt beam="2">  1       -1 0.18033194E-01 0.23947543E+03</pdfrwt>
<totfact> 0.69037582E+02</totfact>
</mgrwt>
</event>
<event>
 5    0  0.1141006E+000  0.2698063E+03  0.7546771E-02  0.1101391E+00
          2   -1    0    0  503    0 -0.00000000000E+00  0.00000000000E+00  0.12315722163E+04  0.12315722163E+04  0.00000000000E+00 0.  1.
         21   -1    0    0  501  502  0.00000000000E+00 -0.00000000000E+00 -0.54746460434E+03  0.54746460434E+03  0.00000000000E+00 0. -1.
         25    1    1    2    0    0  0.76169115550E+02 -0.25306845193E+03 -0.43358656633E+03  0.52294137915E+03  0.12500000000E+03 0.  0.
         21    1    1    2  503  502  0.73393502115E+02  0.13762487278E+03  0.10402940758E+04  0.10519215635E+04  0.00000000000E+00 0.  1.
          2    1    1    2  501    0 -0.14956261767E+03  0.11544357915E+03  0.77400102546E+02  0.20417387797E+03  0.00000000000E+00 0.  1.
<mgrwt>
<rscale>  4 0.26980629E+03</rscale>
<asrwt>0</asrwt>
<pdfrwt beam="1">  1       21 0.84225324E-01 0.26980629E+03</pdfrwt>
<pdfrwt beam="2">  1        2 0.18947265E+00 0.26980629E+03</pdfrwt>
<totfact> 0.28479417E+02</totfact>
</mgrwt>
</event>
<event>
 5    0  0.1141006E+000  0.4060252E+03  0.7546771E-02  0.1041713E+00
         21   -1    0    0  501  502  0.00000000000E+00  0.00000000000E+00  0.95148851525E+02  0.95148851525E+02  0.00000000000E+00 0.  1.
          1   -1    0    0  503    0 -0.00000000000E+00 -0.00000000000E+00 -0.34092144794E+04  0.34092144794E+04  0.00000000000E+00 0. -1.
         25    1    1    2    0    0  0.24093205650E+03 -0.30136750884E+03 -0.43803020140E+03  0.59696405970E+03  0.12500000000E+03 0.  0.
         21    1    1    2  503  502 -0.21286175468E+02 -0.20273083796E+02 -0.38263443948E+03  0.38376192290E+03  0.00000000000E+00 0. -1.
          1    1    1    2  501    0 -0.21964588104E+03  0.32164059264E+03 -0.24934009870E+04  0.25236373484E+04  0.00000000000E+00 0. -1.
<mgrwt>
<rscale>  4 0.40602522E+03</rscale>
<asrwt>0</asrwt>
<pdfrwt beam="1">  1       21 0.14638287E-01 0.40602522E+03</pdfrwt>
<pdfrwt beam="2">  1        1 0.52449445E+00 0.40602522E+03</pdfrwt>
<totfact> 0.15407495E+02</totfact>
</mgrwt>
</event>
<event>
 5    0  0.1141006E+000  0.2960809E+03  0.7546771E-02  0.1087216E+00
          1   -1    0    0  503    0 -0.00000000000E+00  0.00000000000E+00  0.26776529732E+03  0.26776529732E+03  0.00000000000E+00 0.  1.
         21   -1    0    0  501  502  0.00000000000E+00 -0.00000000000E+00 -0.74049004904E+03  0.74049004904E+03  0.00000000000E+00 0. -1.
         25    1    1    2    0    0 -0.13197149897E+03  0.23120634739E+03 -0.59113397134E+03  0.66025542307E+03  0.12500000000E+03 0.  0.
         21    1    1    2  503  502  0.28429976663E+02  0.32484633054E+02  0.24001398872E+02  0.49392125946E+02  0.00000000000E+00 0. -1.
          1    1    1    2  501    0  0.10354152231E+03 -0.26369098045E+03  0.94407820757E+02  0.29860779734E+03  0.00000000000E+00 0.  1.
<mgrwt>
<rscale>  4 0.29608092E+03</rscale>
<asrwt>0</asrwt>
<pdfrwt beam="1">  1       21 0.11392154E+00 0.29608092E+03</pdfrwt>
<pdfrwt beam="2">  1        1 0.41194662E-01 0.29608092E+03</pdfrwt>
<totfact> 0.63057537E+02</totfact>
</mgrwt>
</event>
<event>
 5    0  0.1141006E+000  0.5719146E+03  0.7546771E-02  0.9965451E-01
         21   -1    0    0  501  502  0.00000000000E+00  0.00000000000E+00  0.73173569487E+03  0.73173569487E+03  0.00000000000E+00 0.  1.
          1   -1    0    0  503    0 -0.00000000000E+00 -0.00000000000E+00 -0.22421794053E+04  0.22421794053E+04  0.00000000000E+00 0.  1.
         25    1    1    2    0    0  0.46399123205E+03 -0.31044123509E+03  0.57285250013E+03  0.80959657285E+03  0.12500000000E+03 0.  0.
         21    1    1    2  503  502  0.87047376645E+01  0.19078778318E+02 -0.26001290889E+02  0.33404181892E+02  0.00000000000E+00 0. -1.
          1    1    1    2  501    0 -0.47269596971E+03  0.29136245678E+03 -0.20572949197E+04  0.21309143454E+04  0.00000000000E+00 0.  1.
<mgrwt>
<rscale>  4 0.57191459E+03</rscale>
<asrwt>0</asrwt>
<pdfrwt beam="1">  1       21 0.11257473E+00 0.57191459E+03</pdfrwt>
<pdfrwt beam="2">  1        1 0.34495066E+00 0.57191459E+03</pdfrwt>
<totfact> 0.12976147E+01</totfact>
</mgrwt>
</event>
<event>
 5    0  0.1141006E+000  0.3400257E+03  0.7546771E-02  0.1066785E+00
         21   -1    0    0  501  502  0.00000000000E+00  0.00000000000E+00  0.41280915481E+03  0.41280915481E+03  0.00000000000E+00 0.  1.
          2   -1    0    0  503    0 -0.00000000000E+00 -0.00000000000E+00 -0.23523098328E+04  0.23523098328E+04  0.00000000000E+00 0. -1.
         25    1    1    2    0    0  0.29541561245E+03 -0.85833067588E+02  0.25719586719E+03  0.42001477792E+03  0.12500000000E+03 0.  0.
         21    1    1    2  503  502  0.17924757284E+03  0.21786502012E+03 -0.12072835586E+04  0.12398098444E+04  0.00000000000E+00 0. -1.
          2    1    1    2  501    0 -0.47466318529E+03 -0.13203195253E+03 -0.98941298654E+03  0.11052943653E+04  0.00000000000E+00 0. -1.
<mgrwt>
<rscale>  4 0.34002573E+03</rscale>
<asrwt>0</asrwt>
<pdfrwt beam="1">  1       21 0.63509100E-01 0.34002573E+03</pdfrwt>
<pdfrwt beam="2">  1        2 0.36189382E+00 0.34002573E+03</pdfrwt>
<totfact> 0.12941129E+02</totfact>
</mgrwt>
</event>
<event>
 5    0  0.1141006E+000  0.2616294E+03  0.7546771E-02  0.1106168E+00
         21   -1    0    0  503  502  0.00000000000E+00  0.00000000000E+00  0.26667218193E+03  0.26667218193E+03  0.00000000000E+00 0. -1.
         -1   -1    0    0    0  501 -0.00000000000E+00 -0.00000000000E+00 -0.65138343056E+03  0.65138343056E+03  0.00000000000E+00 0. -1.
         25    1    1    2    0    0 -0.46301272830E+02 -0.24355619231E+03 -0.42822521203E+03  0.51035797133E+03  0.12500000000E+03 0.  0.
         21    1    1    2  503  501  0.38294360117E+02  0.15795542371E+02 -0.12016804952E+03  0.12710750293E+03  0.00000000000E+00 0.  1.
         -1    1    1    2    0  502  0.80069127125E+01  0.22776064994E+03  0.16368201293E+03  0.28059013822E+03  0.00000000000E+00 0. -1.
<mgrwt>
<rscale>  4 0.26162942E+03</rscale>
<asrwt>0</asrwt>
<pdfrwt beam="1">  1       21 0.41026489E-01 0.26162942E+03</pdfrwt>
<pdfrwt beam="2">  1       -1 0.10021284E+00 0.26162942E+03</pdfrwt>
<totfact> 0.52324664E+02</totfact>
</mgrwt>
</event>
<event>
 5    0  0.1141006E+000  0.2297599E+03  0.7546771E-02  0.1126809E+00
         21   -1    0    0  501  502  0.00000000000E+00  0.00000000000E+00  0.15952138465E+03  0.15952138465E+03  0.00000000000E+00 0. -1.
          1   -1    0    0  503    0 -0.00000000000E+00 -0.00000000000E+00 -0.59118373275E+03  0.59118373275E+03  0.00000000000E+00 0.  1.
         25    1    1    2    0    0 -0.16943627179E+03  0.11012348949E+03  0.97212832653E+01  0.23781365916E+03  0.12500000000E+03 0.  0.
         21    1    1    2  503  502  0.16975090885E+02 -0.23981399512E+02 -0.25673820317E+03  0.25841394351E+03  0.00000000000E+00 0. -1.
          1    1    1    2  501    0  0.15246118090E+03 -0.86142089982E+02 -0.18464542820E+03  0.25447751473E+03  0.00000000000E+00 0.  1.
<mgrwt>
<rscale>  4 0.22975985E+03</rscale>
<asrwt>0</asrwt>
<pdfrwt beam="1">  1       21 0.24541751E-01 0.22975985E+03</pdfrwt>
<pdfrwt beam="2">  1        1 0.90951346E-01 0.22975985E+03</pdfrwt>
<totfact> 0.61837054E+03</totfact>
</mgrwt>
</event>
<event>
 5    0  0.1141006E+000  0.2773600E+03  0.7546771E-02  0.1097140E+00
          2   -1    0    0  503    0 -0.00000000000E+00  0.00000000000E+00  0.19083741594E+04  0.19083741594E+04  0.00000000000E+00 0. -1.
         21   -1    0    0  501  502  0.00000000000E+00 -0.00000000000E+00 -0.92007663170E+02  0.92007663170E+02  0.00000000000E+00 0. -1.
         25    1    1    2    0    0  0.17795905307E+03  0.17089412827E+03  0.15679767616E+03  0.31793826271E+03  0.12500000000E+03 0.  0.
         21    1    1    2  503  502 -0.10265124060E+02  0.19753912892E+02  0.15765640584E+03  0.15922038861E+03  0.00000000000E+00 0. -1.
          2    1    1    2  501    0 -0.16769392901E+03 -0.19064804116E+03  0.15019124142E+04  0.15232231712E+04  0.00000000000E+00 0. -1.
<mgrwt>
<rscale>  4 0.27736003E+03</rscale>
<asrwt>0</asrwt>
<pdfrwt beam="1">  1       21 0.14155027E-01 0.27736003E+03</pdfrwt>
<pdfrwt beam="2">  1        2 0.29359599E+00 0.27736003E+03</pdfrwt>
<totfact> 0.45158994E+03</totfact>
</mgrwt>
</event>
<event>
 5    0  0.1141006E+000  0.2663216E+03  0.7546771E-02  0.1103403E+00
          2   -1    0    0  503    0 -0.00000000000E+00  0.00000000000E+00  0.74418902756E+03  0.74418902756E+03  0.00000000000E+00 0. -1.
         21   -1    0    0  501  502  0.00000000000E+00 -0.00000000000E+00 -0.10319330028E+03  0.10319330028E+03  0.00000000000E+00 0. -1.
         25    1    1    2    0    0  0.15496195128E+03  0.15910381792E+03  0.29504335380E+03  0.38987537989E+03  0.12500000000E+03 0.  0.
         21    1    1    2  503  502  0.19557207644E+02  0.13878434414E+02  0.12427578523E+03  0.12656842461E+03  0.00000000000E+00 0. -1.
          2    1    1    2  501    0 -0.17451915893E+03 -0.17298225233E+03  0.22167658825E+03  0.33093852335E+03  0.00000000000E+00 0. -1.
<mgrwt>
<rscale>  4 0.26632160E+03</rscale>
<asrwt>0</asrwt>
<pdfrwt beam="1">  1       21 0.15875893E-01 0.26632160E+03</pdfrwt>
<pdfrwt beam="2">  1        2 0.11449062E+00 0.26632160E+03</pdfrwt>
<totfact> 0.17121331E+04</totfact>
</mgrwt>
</event>
<event>
 5    0  0.1141006E+000  0.2498329E+03  0.7546771E-02  0.1113410E+00
         21   -1    0    0  501  502  0.00000000000E+00  0.00000000000E+00  0.10275475444E+03  0.10275475444E+03  0.00000000000E+00 0. -1.
          1   -1    0    0  503    0 -0.00000000000E+00 -0.00000000000E+00 -0.16321251578E+04  0.16321251578E+04  0.00000000000E+00 0. -1.
         25    1    1    2    0    0  0.17547783608E+03  0.12333373411E+03 -0.86578785446E+02  0.26291551307E+03  0.12500000000E+03 0.  0.
         21    1    1    2  503  502 -0.19096263762E+02  0.47597385894E+02 -0.42810105056E+03  0.43116202050E+03  0.00000000000E+00 0. -1.
          1    1    1    2  501    0 -0.15638157232E+03 -0.17093112000E+03 -0.10146905674E+04  0.10408023787E+04  0.00000000000E+00 0. -1.
<mgrwt>
<rscale>  4 0.24983287E+03</rscale>
<asrwt>0</asrwt>
<pdfrwt beam="1">  1       21 0.15808424E-01 0.24983287E+03</pdfrwt>
<pdfrwt beam="2">  1        1 0.25109618E+00 0.24983287E+03</pdfrwt>
<totfact> 0.23120568E+03</totfact>
</mgrwt>
</event>
<event>
 5    0  0.1141006E+000  0.2572931E+03  0.7546771E-02  0.1108781E+00
          1   -1    0    0  503    0 -0.00000000000E+00  0.00000000000E+00  0.15842925817E+04  0.15842925817E+04  0.00000000000E+00 0. -1.
         21   -1    0    0  501  502  0.00000000000E+00 -0.00000000000E+00 -0.14925034549E+03  0.14925034549E+03  0.00000000000E+00 0.  1.
         25    1    1    2    0    0  0.24264863885E+03  0.43119766180E+02  0.58419209269E+01  0.27639971818E+03  0.12500000000E+03 0.  0.
         21    1    1    2  503  502 -0.20475787927E+02 -0.18750615558E+02  0.32817747637E+02  0.42986602972E+02  0.00000000000E+00 0. -1.
          1    1    1    2  501    0 -0.22217285092E+03 -0.24369150621E+02  0.13963825676E+04  0.14141566060E+04  0.00000000000E+00 0. -1.
<mgrwt>
<rscale>  4 0.25729313E+03</rscale>
<asrwt>0</asrwt>
<pdfrwt beam="1">  1       21 0.22961593E-01 0.25729313E+03</pdfrwt>
<pdfrwt beam="2">  1        1 0.24373731E+00 0.25729313E+03</pdfrwt>
<totfact> 0.12317765E+03</totfact>
</mgrwt>
</event>
<event>
 5    0  0.1141006E+000  0.4661373E+03  0.7546771E-02  0.1023016E+00
          1   -1    0    0  503    0 -0.00000000000E+00  0.00000000000E+00  0.17660885892E+04  0.17660885892E+04  0.00000000000E+00 0.  1.
         21   -1    0    0  501  502  0.00000000000E+00 -0.00000000000E+00 -0.16009515803E+03  0.16009515803E+03  0.00000000000E+00 0. -1.
         25    1    1    2    0    0  0.16778845896E+03 -0.38396855637E+03  0.51375242158E+03  0.67464907168E+03  0.12500000000E+03 0.  0.
         21    1    1    2  503  502 -0.40826433724E+02 -0.95984765460E+02  0.28904751167E+03  0.30729194082E+03  0.00000000000E+00 0.  1.
          1    1    1    2  501    0 -0.12696202524E+03  0.47995332183E+03  0.80319349789E+03  0.94424273470E+03  0.00000000000E+00 0.  1.
<mgrwt>
<rscale>  4 0.46613734E+03</rscale>
<asrwt>0</asrwt>
<pdfrwt beam="1">  1       21 0.24630026E-01 0.46613734E+03</pdfrwt>
<pdfrwt beam="2">  1        1 0.27170592E+00 0.46613734E+03</pdfrwt>
<totfact> 0.75909896E+02</totfact>
</mgrwt>
</event>
<event>
 5    0  0.1141006E+000  0.5321497E+03  0.7546771E-02  0.1005712E+00
          2   -1    0    0  503    0 -0.00000000000E+00  0.00000000000E+00  0.64439590487E+03  0.64439590487E+03  0.00000000000E+00 0. -1.
         21   -1    0    0  501  502  0.00000000000E+00 -0.00000000000E+00 -0.46311494801E+03  0.46311494801E+03  0.00000000000E+00 0. -1.
         25    1    1    2    0    0 -0.50161125598E+03  0.28213442870E+02  0.39883996046E+02  0.51925483496E+03  0.12500000000E+03 0.  0.
         21    1    1    2  503  502 -0.32323478988E+02  0.14154711320E+02  0.59847071878E+01  0.35790779072E+02  0.00000000000E+00 0.  1.
          2    1    1    2  501    0  0.53393473497E+03 -0.42368154190E+02  0.13541225363E+03  0.55246523885E+03  0.00000000000E+00 0. -1.
<mgrwt>
<rscale>  4 0.53214966E+03</rscale>
<asrwt>0</asrwt>
<pdfrwt beam="1">  1       21 0.71248453E-01 0.53214966E+03</pdfrwt>
<pdfrwt beam="2">  1        2 0.99137832E-01 0.53214966E+03</pdfrwt>
<totfact> 0.93161909E+02</totfact>
</mgrwt>
</event>
<event>
 5    0  0.1141006E+000  0.2585347E+03  0.7546771E-02  0.1108027E+00
         21   -1    0    0  501  502  0.00000000000E+00  0.00000000000E+00  0.33968056998E+02  0.33968056998E+02  0.00000000000E+00 0. -1.
          2   -1    0    0  503    0 -0.00000000000E+00 -0.00000000000E+00 -0.27016399407E+04  0.27016399407E+04  0.00000000000E+00 0. -1.
         25    1    1    2    0    0 -0.21282866289E+03 -0.19883006345E+02 -0.11706290835E+04  0.11965319991E+04  0.12500000000E+03 0.  0.
         21    1    1    2  503  502 -0.18295981420E+02  0.10512418488E+03 -0.56752471406E+03  0.57746873357E+03  0.00000000000E+00 0. -1.
          2    1    1    2  501    0  0.23112464431E+03 -0.85241178535E+02 -0.92951808618E+03  0.96160726508E+03  0.00000000000E+00 0. -1.
<mgrwt>
<rscale>  4 0.25853468E+03</rscale>
<asrwt>0</asrwt>
<pdfrwt beam="1">  1       21 0.52258533E-02 0.25853468E+03</pdfrwt>
<pdfrwt beam="2">  1        2 0.41563704E+00 0.25853468E+03</pdfrwt>
<totfact> 0.98535989E+03</totfact>
</mgrwt>
</event>
<event>
 5    0  0.1141006E+000  0.2611513E+03  0.7546771E-02  0.1106453E+00
          1   -1    0    0  503    0 -0.00000000000E+00  0.00000000000E+00  0.20172348451E+04  0.20172348451E+04  0.00000000000E+00 0.  1.
         21   -1    0    0  501  502  0.00000000000E+00 -0.00000000000E+00 -0.17709720897E+03  0.17709720897E+03  0.00000000000E+00 0.  1.
         25    1    1    2    0    0 -0.88810280945E+02  0.19364343100E+03 -0.96162749911E+01  0.24718923341E+03  0.12500000000E+03 0.  0.
         21    1    1    2  503  502 -0.65199393890E+02  0.18640414970E+03  0.56315730104E+03  0.59677769203E+03  0.00000000000E+00 0.  1.
          1    1    1    2  501    0  0.15400967484E+03 -0.38004758070E+03  0.12865966100E+04  0.13503651286E+04  0.00000000000E+00 0.  1.
<mgrwt>
<rscale>  4 0.26115133E+03</rscale>
<asrwt>0</asrwt>
<pdfrwt beam="1">  1       21 0.27245726E-01 0.26115133E+03</pdfrwt>
<pdfrwt beam="2">  1        1 0.31034381E+00 0.26115133E+03</pdfrwt>
<totfact> 0.46236066E+02</totfact>
</mgrwt>
</event>
<event>
 5    0  0.1141006E+000  0.2829140E+03  0.7546771E-02  0.1094108E+00
         21   -1    0    0  501  502  0.00000000000E+00  0.00000000000E+00  0.10324058082E+04  0.10324058082E+04  0.00000000000E+00 0. -1.
          2   -1    0    0  503    0 -0.00000000000E+00 -0.00000000000E+00 -0.11440745378E+04  0.11440745378E+04  0.00000000000E+00 0.  1.
         25    1    1    2    0    0 -0.24871773952E+03  0.50874786967E+02  0.97386542362E+03  0.10141437873E+04  0.12500000000E+03 0.  0.
         21    1    1    2  503  502 -0.22565044191E+02 -0.12642601683E+03 -0.43268171227E+03  0.45133821363E+03  0.00000000000E+00 0. -1.
          2    1    1    2  501    0  0.27128278372E+03  0.75551229861E+02 -0.65285244097E+03  0.71099834511E+03  0.00000000000E+00 0.  1.
<mgrwt>
<rscale>  4 0.28291396E+03</rscale>
<asrwt>0</asrwt>
<pdfrwt beam="1">  1       21 0.15883166E+00 0.28291396E+03</pdfrwt>
<pdfrwt beam="2">  1        2 0.17601147E+00 0.28291396E+03</pdfrwt>
<totfact> 0.65280010E+01</totfact>
</mgrwt>
</event>
<event>
 5    0  0.1141006E+000  0.2604162E+03  0.7546771E-02  0.1106893E+00
         21   -1    0    0  503  502  0.00000000000E+00  0.00000000000E+00  0.69667444739E+03  0.69667444739E+03  0.00000000000E+00 0. -1.
         -1   -1    0    0    0  501 -0.00000000000E+00 -0.00000000000E+00 -0.20586945537E+03  0.20586945537E+03  0.00000000000E+00 0. -1.
         25    1    1    2    0    0  0.20682929966E+03 -0.97021913693E+02  0.58496376360E+03  0.64031181128E+03  0.12500000000E+03 0.  0.
         21    1    1    2  503  501 -0.43474000054E+02 -0.96327328609E+01 -0.39768663970E+02  0.59701966944E+02  0.00000000000E+00 0.  1.
         -1    1    1    2    0  502 -0.16335529961E+03  0.10665464655E+03 -0.54390107601E+02  0.20253012454E+03  0.00000000000E+00 0. -1.
<mgrwt>
<rscale>  4 0.26041623E+03</rscale>
<asrwt>0</asrwt>
<pdfrwt beam="1">  1       21 0.10718068E+00 0.26041623E+03</pdfrwt>
<pdfrwt beam="2">  1       -1 0.31672224E-01 0.26041623E+03</pdfrwt>
<totfact> 0.57455214E+02</totfact>
</mgrwt>
</event>
<event>
 5    0  0.1141006E+000  0.2516357E+03  0.7546771E-02  0.1112275E+00
          2   -1    0    0  503    0 -0.00000000000E+00  0.00000000000E+00  0.77315337684E+03  0.77315337684E+03  0.00000000000E+00 0.  1.
         21   -1    0    0  501  502  0.00000000000E+00 -0.00000000000E+00 -0.30805141963E+03  0.30805141963E+03  0.00000000000E+00 0. -1.
         25    1    1    2    0    0  0.19401440338E+03  0.96248166002E+02 -0.22522349863E+03  0.33653517277E+03  0.12500000000E+03 0.  0.
         21    1    1    2  503  502  0.33442547505E+02 -0.16747574340E+02  0.73899248185E+02  0.82825021052E+02  0.00000000000E+00 0. -1.
          2    1    1    2  501    0 -0.22745695088E+03 -0.79500591662E+02  0.61642620765E+03  0.66184460265E+03  0.00000000000E+00 0.  1.
<mgrwt>
<rscale>  4 0.25163569E+03</rscale>
<asrwt>0</asrwt>
<pdfrwt beam="1">  1       21 0.47392526E-01 0.25163569E+03</pdfrwt>
<pdfrwt beam="2">  1        2 0.11894667E+00 0.25163569E+03</pdfrwt>
<totfact> 0.19440559E+03</totfact>
</mgrwt>
</event>
<event>
 5    0  0.1141006E+000  0.3027140E+03  0.7546771E-02  0.1083892E+00
         -4   -1    0    0    0  501 -0.00000000000E+00  0.00000000000E+00  0.67744961908E+03  0.67744961908E+03  0.00000000000E+00 0. -1.
         21   -1    0    0  503  502  0.00000000000E+00 -0.00000000000E+00 -0.13104999823E+03  0.13104999823E+03  0.00000000000E+00 0. -1.
         25    1    1    2    0    0  0.31683205775E+02 -0.27387391816E+03  0.30235851184E+03  0.42785092995E+03  0.12500000000E+03 0.  0.
         21    1    1    2  503  501  0.43123728907E+01  0.55189874876E+02  0.64436398695E+01  0.55731852145E+02  0.00000000000E+00 0. -1.
         -4    1    1    2    0  502 -0.35995578666E+02  0.21868404328E+03  0.23759746914E+03  0.32491683522E+03  0.00000000000E+00 0. -1.
<mgrwt>
<rscale>  4 0.30271397E+03</rscale>
<asrwt>0</asrwt>
<pdfrwt beam="1">  1       21 0.20161539E-01 0.30271397E+03</pdfrwt>
<pdfrwt beam="2">  1       -4 0.10422302E+00 0.30271397E+03</pdfrwt>
<totfact> 0.74030866E+02</totfact>
</mgrwt>
</event>
<event>
 5    0  0.1141006E+000  0.2757991E+03  0.7546771E-02  0.1098006E+00
         -2   -1    0    0    0  501 -0.00000000000E+00  0.00000000000E+00  0.87758619383E+02  0.87758619383E+02  0.00000000000E+00 0. -1.
         21   -1    0    0  503  502  0.00000000000E+00 -0.00000000000E+00 -0.96692088765E+03  0.96692088765E+03  0.00000000000E+00 0. -1.
         25    1    1    2    0    0  0.36585289128E+02 -0.24310833754E+03 -0.67864962876E+03  0.73255065748E+03  0.12500000000E+03 0.  0.
         21    1    1    2  503  501  0.65562837440E+01  0.52522918378E+02 -0.21534006581E+02  0.57143287015E+02  0.00000000000E+00 0.  1.
         -2    1    1    2    0  502 -0.43141572872E+02  0.19058541916E+03 -0.17897863293E+03  0.26498556253E+03  0.00000000000E+00 0. -1.
<mgrwt>
<rscale>  4 0.27579911E+03</rscale>
<asrwt>0</asrwt>
<pdfrwt beam="1">  1       21 0.14875706E+00 0.27579911E+03</pdfrwt>
<pdfrwt beam="2">  1       -2 0.13501326E-01 0.27579911E+03</pdfrwt>
<totfact> 0.94936901E+02</totfact>
</mgrwt>
</event>
<event>
 5    0  0.1141006E+000  0.3151868E+03  0.7546771E-02  0.1077886E+00
         21   -1    0    0  503  502  0.00000000000E+00  0.00000000000E+00  0.75760220949E+03  0.75760220949E+03  0.00000000000E+00 0. -1.
         -2   -1    0    0    0  501 -0.00000000000E+00 -0.00000000000E+00 -0.20268415865E+03  0.20268415865E+03  0.00000000000E+00 0.  1.
         25    1    1    2    0    0  0.26292968729E+03  0.11787783454E+03  0.54829943376E+03  0.63188960539E+03  0.12500000000E+03 0.  0.
         21    1    1    2  503  501  0.17634574696E+02 -0.27565951829E+02 -0.65007333099E+01  0.33363444943E+02  0.00000000000E+00 0. -1.
         -2    1    1    2    0  502 -0.28056426199E+03 -0.90311882714E+02  0.13119350388E+02  0.29503331781E+03  0.00000000000E+00 0.  1.
<mgrwt>
<rscale>  4 0.31518682E+03</rscale>
<asrwt>0</asrwt>
<pdfrwt beam="1">  1       21 0.11655418E+00 0.31518682E+03</pdfrwt>
<pdfrwt beam="2">  1       -2 0.31182179E-01 0.31518682E+03</pdfrwt>
<totfact> 0.41227761E+02</totfact>
</mgrwt>
</event>
<event>
 5    0  0.1141006E+000  0.2333878E+03  0.7546771E-02  0.1124278E+00
         21   -1    0    0  501  502  0.00000000000E+00  0.00000000000E+00  0.32329437037E+03  0.32329437037E+03  0.00000000000E+00 0.  1.
          1   -1    0    0  503    0 -0.00000000000E+00 -0.00000000000E+00 -0.63617144308E+03  0.63617144308E+03  0.00000000000E+00 0.  1.
         25    1    1    2    0    0 -0.27250092096E+02 -0.20616612167E+03  0.23613621373E+03  0.33857399291E+03  0.12500000000E+03 0.  0.
         21    1    1    2  503  502 -0.12305148514E+02  0.52338714798E+02 -0.39837515473E+03  0.40198696702E+03  0.00000000000E+00 0.  1.
          1    1    1    2  501    0  0.39555240611E+02  0.15382740687E+03 -0.15063813171E+03  0.21890485351E+03  0.00000000000E+00 0.  1.
<mgrwt>
<rscale>  4 0.23338782E+03</rscale>
<asrwt>0</asrwt>
<pdfrwt beam="1">  1       21 0.49737596E-01 0.23338782E+03</pdfrwt>
<pdfrwt beam="2">  1        1 0.97872529E-01 0.23338782E+03</pdfrwt>
<totfact> 0.13601099E+03</totfact>
</mgrwt>
</event>
<event>
 5    0  0.1141006E+000  0.3280560E+03  0.7546771E-02  0.1072000E+00
          2   -1    0    0  503    0 -0.00000000000E+00  0.00000000000E+00  0.21924784727E+04  0.21924784727E+04  0.00000000000E+00 0. -1.
         21   -1    0    0  501  502  0.00000000000E+00 -0.00000000000E+00 -0.71821046075E+02  0.71821046075E+02  0.00000000000E+00 0. -1.
         25    1    1    2    0    0  0.21211686344E+03  0.20799060001E+03  0.47068427155E+03  0.57045800628E+03  0.12500000000E+03 0.  0.
         21    1    1    2  503  502  0.24374604157E+02  0.38122922874E+01  0.50691471546E+03  0.50751471274E+03  0.00000000000E+00 0. -1.
          2    1    1    2  501    0 -0.23649146760E+03 -0.21180289229E+03  0.11430584396E+04  0.11863267997E+04  0.00000000000E+00 0. -1.
<mgrwt>
<rscale>  4 0.32805600E+03</rscale>
<asrwt>0</asrwt>
<pdfrwt beam="1">  1       21 0.11049393E-01 0.32805600E+03</pdfrwt>
<pdfrwt beam="2">  1        2 0.33730433E+00 0.32805600E+03</pdfrwt>
<totfact> 0.49171998E+03</totfact>
</mgrwt>
</event>
<event>
 5    0  0.1141006E+000  0.3455503E+03  0.7546771E-02  0.1064456E+00
         -4   -1    0    0    0  501 -0.00000000000E+00  0.00000000000E+00  0.28665263443E+03  0.28665263443E+03  0.00000000000E+00 0. -1.
         21   -1    0    0  503  502  0.00000000000E+00 -0.00000000000E+00 -0.42886501607E+03  0.42886501607E+03  0.00000000000E+00 0. -1.
         25    1    1    2    0    0  0.26868047480E+03  0.17773811744E+03 -0.14454927568E+03  0.37456578732E+03  0.12500000000E+03 0.  0.
         21    1    1    2  503  501 -0.42728919401E+02 -0.69334370291E+02  0.34183555414E+02  0.88326275352E+02  0.00000000000E+00 0. -1.
         -4    1    1    2    0  502 -0.22595155540E+03 -0.10840374715E+03 -0.31846661362E+02  0.25262558783E+03  0.00000000000E+00 0. -1.
<mgrwt>
<rscale>  4 0.34555034E+03</rscale>
<asrwt>0</asrwt>
<pdfrwt beam="1">  1       21 0.65979234E-01 0.34555034E+03</pdfrwt>
<pdfrwt beam="2">  1       -4 0.44100405E-01 0.34555034E+03</pdfrwt>
<totfact> 0.43742045E+02</totfact>
</mgrwt>
</event>
<event>
 5    0  0.1141006E+000  0.2530118E+03  0.7546771E-02  0.1111416E+00
         21   -1    0    0  501  502  0.00000000000E+00  0.00000000000E+00  0.28101805514E+03  0.28101805514E+03  0.00000000000E+00 0. -1.
          2   -1    0    0  503    0 -0.00000000000E+00 -0.00000000000E+00 -0.15418126587E+04  0.15418126587E+04  0.00000000000E+00 0.  1.
         25    1    1    2    0    0 -0.21866503865E+03  0.33354761269E+02  0.20925425534E+03  0.32914933177E+03  0.12500000000E+03 0.  0.
         21    1    1    2  503  502  0.19800627304E+02  0.34924254819E+01 -0.60383277016E+03  0.60416742398E+03  0.00000000000E+00 0.  1.
          2    1    1    2  501    0  0.19886441134E+03 -0.36847186751E+02 -0.86621608876E+03  0.88951395812E+03  0.00000000000E+00 0.  1.
<mgrwt>
<rscale>  4 0.25301176E+03</rscale>
<asrwt>0</asrwt>
<pdfrwt beam="1">  1       21 0.43233547E-01 0.25301176E+03</pdfrwt>
<pdfrwt beam="2">  1        2 0.23720195E+00 0.25301176E+03</pdfrwt>
<totfact> 0.82725348E+02</totfact>
</mgrwt>
</event>
<event>
 5    0  0.1141006E+000  0.2321287E+03  0.7546771E-02  0.1125150E+00
          2   -1    0    0  503    0 -0.00000000000E+00  0.00000000000E+00  0.30128484072E+03  0.30128484072E+03  0.00000000000E+00 0. -1.
         21   -1    0    0  501  502  0.00000000000E+00 -0.00000000000E+00 -0.19123831686E+04  0.19123831686E+04  0.00000000000E+00 0.  1.
         25    1    1    2    0    0 -0.20229538880E+03  0.30454308594E+02 -0.14469972109E+04  0.14667231564E+04  0.12500000000E+03 0.  0.
         21    1    1    2  503  502  0.29092959655E+02  0.19960290719E+02  0.27238038417E+03  0.27465594330E+03  0.00000000000E+00 0. -1.
          2    1    1    2  501    0  0.17320242914E+03 -0.50414599313E+02 -0.43648150120E+03  0.47228890965E+03  0.00000000000E+00 0. -1.
<mgrwt>
<rscale>  4 0.23212868E+03</rscale>
<asrwt>0</asrwt>
<pdfrwt beam="1">  1       21 0.29421279E+00 0.23212868E+03</pdfrwt>
<pdfrwt beam="2">  1        2 0.46351514E-01 0.23212868E+03</pdfrwt>
<totfact> 0.47544916E+01</totfact>
</mgrwt>
</event>
<event>
 5    0  0.1141006E+000  0.3159514E+03  0.7546771E-02  0.1077528E+00
          1   -1    0    0  503    0 -0.00000000000E+00  0.00000000000E+00  0.10849187032E+04  0.10849187032E+04  0.00000000000E+00 0. -1.
         21   -1    0    0  501  502  0.00000000000E+00 -0.00000000000E+00 -0.59213433802E+03  0.59213433802E+03  0.00000000000E+00 0.  1.
         25    1    1    2    0    0  0.24864009553E+03 -0.15014304210E+03 -0.50808836881E+03  0.59845101781E+03  0.12500000000E+03 0.  0.
         21    1    1    2  503  502 -0.57084506070E+02 -0.82717860702E+02  0.25368665752E+03  0.27286957602E+03  0.00000000000E+00 0. -1.
          1    1    1    2  501    0 -0.19155558946E+03  0.23286090281E+03  0.74718607650E+03  0.80573244742E+03  0.00000000000E+00 0. -1.
<mgrwt>
<rscale>  4 0.31595138E+03</rscale>
<asrwt>0</asrwt>
<pdfrwt beam="1">  1       21 0.91097591E-01 0.31595138E+03</pdfrwt>
<pdfrwt beam="2">  1        1 0.16691057E+00 0.31595138E+03</pdfrwt>
<totfact> 0.14689932E+02</totfact>
</mgrwt>
</event>
<event>
 5    0  0.1141006E+000  0.2567575E+03  0.7546771E-02  0.1109107E+00
          1   -1    0    0  503    0 -0.00000000000E+00  0.00000000000E+00  0.57830305870E+03  0.57830305870E+03  0.00000000000E+00 0. -1.
         21   -1    0    0  501  502  0.00000000000E+00 -0.00000000000E+00 -0.14586470468E+03  0.14586470468E+03  0.00000000000E+00 0. -1.
         25    1    1    2    0    0 -0.20285468689E+03 -0.40960757058E+02  0.33749539318E+03  0.41515773873E+03  0.12500000000E+03 0.  0.
         21    1    1    2  503  502 -0.24254900950E+02  0.38925040794E+01  0.73968932673E+02  0.77941354933E+02  0.00000000000E+00 0. -1.
          1    1    1    2  501    0  0.22710958784E+03  0.37068252978E+02  0.20974028160E+02  0.23106866971E+03  0.00000000000E+00 0. -1.
<mgrwt>
<rscale>  4 0.25675748E+03</rscale>
<asrwt>0</asrwt>
<pdfrwt beam="1">  1       21 0.22440724E-01 0.25675748E+03</pdfrwt>
<pdfrwt beam="2">  1        1 0.88969700E-01 0.25675748E+03</pdfrwt>
<totfact> 0.75111452E+03</totfact>
</mgrwt>
</event>
<event>
 5    0  0.1141006E+000  0.2630443E+03  0.7546771E-02  0.1105328E+00
          1   -1    0    0  503    0 -0.00000000000E+00  0.00000000000E+00  0.10341053020E+04  0.10341053020E+04  0.00000000000E+00 0.  1.
         21   -1    0    0  501  502  0.00000000000E+00 -0.00000000000E+00 -0.11348087212E+03  0.11348087212E+03  0.00000000000E+00 0.  1.
         25    1    1    2    0    0 -0.13980178230E+02  0.24502241280E+03  0.52173427253E+03  0.58996871043E+03  0.12500000000E+03 0.  0.
         21    1    1    2  503  502 -0.73043589790E+02 -0.31955622643E+02  0.29412870465E+03  0.30474287970E+03  0.00000000000E+00 0.  1.
          1    1    1    2  501    0  0.87023768021E+02 -0.21306679016E+03  0.10476145275E+03  0.25287458404E+03  0.00000000000E+00 0.  1.
<mgrwt>
<rscale>  4 0.26304426E+03</rscale>
<asrwt>0</asrwt>
<pdfrwt beam="1">  1       21 0.17458596E-01 0.26304426E+03</pdfrwt>
<pdfrwt beam="2">  1        1 0.15909312E+00 0.26304426E+03</pdfrwt>
<totfact> 0.49198536E+03</totfact>
</mgrwt>
</event>
<event>
 5    0  0.1141006E+000  0.1003979E+04  0.7546771E-02  0.9304192E-01
          1   -1    0    0  503    0 -0.00000000000E+00  0.00000000000E+00  0.10517132808E+04  0.10517132808E+04  0.00000000000E+00 0.  1.
         21   -1    0    0  501  502  0.00000000000E+00 -0.00000000000E+00 -0.12937774327E+04  0.12937774327E+04  0.00000000000E+00 0.  1.
         25    1    1    2    0    0 -0.10102260148E+04  0.10805521727E+03 -0.59696268770E+03  0.11849987263E+04  0.12500000000E+03 0.  0.
         21    1    1    2  503  502  0.70062942622E+02  0.79267113755E+02  0.14440618404E+03  0.17901183547E+03  0.00000000000E+00 0. -1.
          1    1    1    2  501    0  0.94016307217E+03 -0.18732233102E+03  0.21049235181E+03  0.98148015168E+03  0.00000000000E+00 0.  1.
<mgrwt>
<rscale>  4 0.10039788E+04</rscale>
<asrwt>0</asrwt>
<pdfrwt beam="1">  1       21 0.19904268E+00 0.10039788E+04</pdfrwt>
<pdfrwt beam="2">  1        1 0.16180205E+00 0.10039788E+04</pdfrwt>
<totfact> 0.15540184E+01</totfact>
</mgrwt>
</event>
<event>
 5    0  0.1141006E+000  0.7317673E+03  0.7546771E-02  0.9664397E-01
          2   -1    0    0  503    0 -0.00000000000E+00  0.00000000000E+00  0.11148965710E+04  0.11148965710E+04  0.00000000000E+00 0.  1.
         21   -1    0    0  501  502  0.00000000000E+00 -0.00000000000E+00 -0.60035462507E+03  0.60035462507E+03  0.00000000000E+00 0. -1.
         25    1    1    2    0    0 -0.61870994054E+03  0.37236090343E+03 -0.62770979528E+02  0.73554050112E+03  0.12500000000E+03 0.  0.
         21    1    1    2  503  502 -0.32398405853E+02 -0.62641149238E+02  0.52070967097E+02  0.87663880213E+02  0.00000000000E+00 0.  1.
          2    1    1    2  501    0  0.65110834639E+03 -0.30971975419E+03  0.52524195838E+03  0.89204681476E+03  0.00000000000E+00 0.  1.
<mgrwt>
<rscale>  4 0.73176733E+03</rscale>
<asrwt>0</asrwt>
<pdfrwt beam="1">  1       21 0.92362250E-01 0.73176733E+03</pdfrwt>
<pdfrwt beam="2">  1        2 0.17152255E+00 0.73176733E+03</pdfrwt>
<totfact> 0.23138610E+02</totfact>
</mgrwt>
</event>
<event>
 5    0  0.1141006E+000  0.2577156E+03  0.7546771E-02  0.1108524E+00
         21   -1    0    0  503  502  0.00000000000E+00  0.00000000000E+00  0.43362302054E+03  0.43362302054E+03  0.00000000000E+00 0. -1.
         -2   -1    0    0    0  501 -0.00000000000E+00 -0.00000000000E+00 -0.73716736061E+03  0.73716736061E+03  0.00000000000E+00 0. -1.
         25    1    1    2    0    0  0.72484058509E+02  0.21036684979E+03  0.35650580343E+03  0.43843989110E+03  0.12500000000E+03 0.  0.
         21    1    1    2  503  501  0.37505772184E+02  0.29387476646E+02 -0.16064865899E+03  0.16756580309E+03  0.00000000000E+00 0. -1.
         -2    1    1    2    0  502 -0.10998983069E+03 -0.23975432643E+03 -0.49940148451E+03  0.56478468697E+03  0.00000000000E+00 0. -1.
<mgrwt>
<rscale>  4 0.25771563E+03</rscale>
<asrwt>0</asrwt>
<pdfrwt beam="1">  1       21 0.66711235E-01 0.25771563E+03</pdfrwt>
<pdfrwt beam="2">  1       -2 0.11341036E+00 0.25771563E+03</pdfrwt>
<totfact> 0.10432544E+02</totfact>
</mgrwt>
</event>
<event>
 5    0  0.1141006E+000  0.3574410E+03  0.7546771E-02  0.1059602E+00
         21   -1    0    0  501  502  0.00000000000E+00  0.00000000000E+00  0.50151688891E+03  0.50151688891E+03  0.00000000000E+00 0. -1.
          2   -1    0    0  503    0 -0.00000000000E+00 -0.00000000000E+00 -0.15557424783E+04  0.15557424783E+04  0.00000000000E+00 0.  1.
         25    1    1    2    0    0 -0.27861106198E+03  0.18914217704E+03  0.40857110221E+03  0.54401675760E+03  0.12500000000E+03 0.  0.
         21    1    1    2  503  502  0.11801161660E+02 -0.33792827409E+02 -0.51894916595E+03  0.52018214064E+03  0.00000000000E+00 0.  1.
          2    1    1    2  501    0  0.26680990032E+03 -0.15534934963E+03 -0.94384752564E+03  0.99306046895E+03  0.00000000000E+00 0.  1.
<mgrwt>
<rscale>  4 0.35744101E+03</rscale>
<asrwt>0</asrwt>
<pdfrwt beam="1">  1       21 0.77156446E-01 0.35744101E+03</pdfrwt>
<pdfrwt beam="2">  1        2 0.23934499E+00 0.35744101E+03</pdfrwt>
<totfact> 0.22109121E+02</totfact>
</mgrwt>
</event>
<event>
 5    0  0.1141006E+000  0.7339629E+03  0.7546771E-02  0.9660851E-01
         21   -1    0    0  501  502  0.00000000000E+00  0.00000000000E+00  0.12069741774E+04  0.12069741774E+04  0.00000000000E+00 0.  1.
          2   -1    0    0  503    0 -0.00000000000E+00 -0.00000000000E+00 -0.12765048799E+04  0.12765048799E+04  0.00000000000E+00 0. -1.
         25    1    1    2    0    0  0.22577293387E+03  0.68811149715E+03  0.94991798362E+03  0.12010162471E+04  0.12500000000E+03 0.  0.
         21    1    1    2  503  502 -0.48690477522E+02  0.66179868478E+01 -0.13662005946E+03  0.14518815722E+03  0.00000000000E+00 0. -1.
          2    1    1    2  501    0 -0.17708245635E+03 -0.69472948399E+03 -0.88282862661E+03  0.11372746529E+04  0.00000000000E+00 0. -1.
<mgrwt>
<rscale>  4 0.73396293E+03</rscale>
<asrwt>0</asrwt>
<pdfrwt beam="1">  1       21 0.18568833E+00 0.73396293E+03</pdfrwt>
<pdfrwt beam="2">  1        2 0.19638537E+00 0.73396293E+03</pdfrwt>
<totfact> 0.28840796E+01</totfact>
</mgrwt>
</event>
<event>
 5    0  0.1141006E+000  0.2647680E+03  0.7546771E-02  0.1104312E+00
         21   -1    0    0  501  502  0.00000000000E+00  0.00000000000E+00  0.36223585682E+03  0.36223585682E+03  0.00000000000E+00 0.  1.
          2   -1    0    0  503    0 -0.00000000000E+00 -0.00000000000E+00 -0.42979712401E+03  0.42979712401E+03  0.00000000000E+00 0. -1.
         25    1    1    2    0    0  0.12159919209E+03 -0.20112761106E+03  0.26724324397E+03  0.37720369948E+03  0.12500000000E+03 0.  0.
         21    1    1    2  503  502  0.77508573433E+01  0.18833755801E+02 -0.18483254429E+02  0.27503033313E+02  0.00000000000E+00 0.  1.
          2    1    1    2  501    0 -0.12935004944E+03  0.18229385526E+03 -0.31632125673E+03  0.38732624803E+03  0.00000000000E+00 0. -1.
<mgrwt>
<rscale>  4 0.26476803E+03</rscale>
<asrwt>0</asrwt>
<pdfrwt beam="1">  1       21 0.55728593E-01 0.26476803E+03</pdfrwt>
<pdfrwt beam="2">  1        2 0.66122635E-01 0.26476803E+03</pdfrwt>
<totfact> 0.27227132E+03</totfact>
</mgrwt>
</event>
<event>
 5    0  0.1141006E+000  0.2257981E+03  0.7546771E-02  0.1129633E+00
         21   -1    0    0  501  502  0.00000000000E+00  0.00000000000E+00  0.18426875439E+02  0.18426875439E+02  0.00000000000E+00 0.  1.
          1   -1    0    0  503    0 -0.00000000000E+00 -0.00000000000E+00 -0.42529939236E+04  0.42529939236E+04  0.00000000000E+00 0.  1.
         25    1    1    2    0    0  0.98760950113E+01 -0.20219558531E+03 -0.94102734165E+03  0.97063796016E+03  0.12500000000E+03 0.  0.
         21    1    1    2  503  502  0.13159918314E+02  0.18149536199E+02 -0.13913262985E+03  0.14092720747E+03  0.00000000000E+00 0.  1.
          1    1    1    2  501    0 -0.23036013326E+02  0.18404604911E+03 -0.31544070766E+04  0.31598556314E+04  0.00000000000E+00 0.  1.
<mgrwt>
<rscale>  4 0.22579807E+03</rscale>
<asrwt>0</asrwt>
<pdfrwt beam="1">  1       21 0.28349010E-02 0.22579807E+03</pdfrwt>
<pdfrwt beam="2">  1        1 0.65430743E+00 0.22579807E+03</pdfrwt>
<totfact> 0.60567134E+02</totfact>
</mgrwt>
</event>
<event>
 5    0  0.1141006E+000  0.2865940E+03  0.7546771E-02  0.1092141E+00
          2   -1    0    0  503    0 -0.00000000000E+00  0.00000000000E+00  0.64707926095E+03  0.64707926095E+03  0.00000000000E+00 0. -1.
         21   -1    0    0  501  502  0.00000000000E+00 -0.00000000000E+00 -0.20019687670E+03  0.20019687670E+03  0.00000000000E+00 0.  1.
         25    1    1    2    0    0  0.23199200009E+03 -0.10023919469E+03 -0.19542677426E+02  0.28262183301E+03  0.12500000000E+03 0.  0.
         21    1    1    2  503  502  0.33696415114E+02  0.22990927794E+02  0.73898943780E+02  0.84410218838E+02  0.00000000000E+00 0. -1.
          2    1    1    2  501    0 -0.26568841520E+03  0.77248266893E+02  0.39252611790E+03  0.48024408580E+03  0.00000000000E+00 0. -1.
<mgrwt>
<rscale>  4 0.28659396E+03</rscale>
<asrwt>0</asrwt>
<pdfrwt beam="1">  1       21 0.30799520E-01 0.28659396E+03</pdfrwt>
<pdfrwt beam="2">  1        2 0.99550655E-01 0.28659396E+03</pdfrwt>
<totfact> 0.57251380E+03</totfact>
</mgrwt>
</event>
<event>
 5    0  0.1141006E+000  0.2460870E+03  0.7546771E-02  0.1115803E+00
          2   -1    0    0  503    0 -0.00000000000E+00  0.00000000000E+00  0.78108777701E+03  0.78108777701E+03  0.00000000000E+00 0.  1.
         21   -1    0    0  501  502  0.00000000000E+00 -0.00000000000E+00 -0.39138573437E+03  0.39138573437E+03  0.00000000000E+00 0. -1.
         25    1    1    2    0    0  0.19661450379E+03  0.79224713420E+02 -0.33548777945E+03  0.41606594246E+03  0.12500000000E+03 0.  0.
         21    1    1    2  503  502 -0.25560061791E+02 -0.58239139100E+01  0.56346266410E+02  0.62146089743E+02  0.00000000000E+00 0. -1.
          2    1    1    2  501    0 -0.17105444200E+03 -0.73400799510E+02  0.66884355568E+03  0.69426147918E+03  0.00000000000E+00 0.  1.
<mgrwt>
<rscale>  4 0.24608701E+03</rscale>
<asrwt>0</asrwt>
<pdfrwt beam="1">  1       21 0.60213190E-01 0.24608701E+03</pdfrwt>
<pdfrwt beam="2">  1        2 0.12016735E+00 0.24608701E+03</pdfrwt>
<totfact> 0.11577515E+03</totfact>
</mgrwt>
</event>
<event>
 5    0  0.1141006E+000  0.2693419E+03  0.7546771E-02  0.1101657E+00
         21   -1    0    0  503  502  0.00000000000E+00  0.00000000000E+00  0.59522247908E+03  0.59522247908E+03  0.00000000000E+00 0.  1.
         -1   -1    0    0    0  501 -0.00000000000E+00 -0.00000000000E+00 -0.35513976225E+03  0.35513976225E+03  0.00000000000E+00 0. -1.
         25    1    1    2    0    0  0.22946417441E+02 -0.23915588739E+03  0.49677687870E+03  0.56580415671E+03  0.12500000000E+03 0.  0.
         21    1    1    2  503  501  0.31387560534E+02  0.19799982822E+02  0.64797743649E+01  0.37672347310E+02  0.00000000000E+00 0. -1.
         -1    1    1    2    0  502 -0.54333977975E+02  0.21935590457E+03 -0.26317393623E+03  0.34688573730E+03  0.00000000000E+00 0. -1.
<mgrwt>
<rscale>  4 0.26934192E+03</rscale>
<asrwt>0</asrwt>
<pdfrwt beam="1">  1       21 0.91572689E-01 0.26934192E+03</pdfrwt>
<pdfrwt beam="2">  1       -1 0.54636886E-01 0.26934192E+03</pdfrwt>
<totfact> 0.31310060E+02</totfact>
</mgrwt>
</event>
<event>
 5    0  0.1141006E+000  0.3051032E+03  0.7546771E-02  0.1082717E+00
          2   -1    0    0  503    0 -0.00000000000E+00  0.00000000000E+00  0.27801967327E+04  0.27801967327E+04  0.00000000000E+00 0.  1.
         21   -1    0    0  501  502  0.00000000000E+00 -0.00000000000E+00 -0.19555628971E+03  0.19555628971E+03  0.00000000000E+00 0. -1.
         25    1    1    2    0    0  0.68811388794E+01  0.28073636699E+03 -0.60031279371E+02  0.31319165430E+03  0.12500000000E+03 0.  0.
         21    1    1    2  503  502 -0.71410702347E+01 -0.36673117694E+02  0.91420760965E+03  0.91497074598E+03  0.00000000000E+00 0. -1.
          2    1    1    2  501    0  0.25993135537E+00 -0.24406324929E+03  0.17304641127E+04  0.17475906221E+04  0.00000000000E+00 0.  1.
<mgrwt>
<rscale>  4 0.30510315E+03</rscale>
<asrwt>0</asrwt>
<pdfrwt beam="1">  1       21 0.30085585E-01 0.30510315E+03</pdfrwt>
<pdfrwt beam="2">  1        2 0.42772255E+00 0.30510315E+03</pdfrwt>
<totfact> 0.35929929E+02</totfact>
</mgrwt>
</event>
<event>
 5    0  0.1141006E+000  0.3559525E+03  0.7546771E-02  0.1060198E+00
         21   -1    0    0  501  502  0.00000000000E+00  0.00000000000E+00  0.96208676478E+03  0.96208676478E+03  0.00000000000E+00 0. -1.
          2   -1    0    0  503    0 -0.00000000000E+00 -0.00000000000E+00 -0.39700307287E+03  0.39700307287E+03  0.00000000000E+00 0. -1.
         25    1    1    2    0    0  0.24394787424E+02 -0.23496926760E+03  0.74271788315E+03  0.78934182476E+03  0.12500000000E+03 0.  0.
         21    1    1    2  503  502 -0.63580382044E+02 -0.10785290117E+03  0.71478726104E+02  0.14416629827E+03  0.00000000000E+00 0. -1.
          2    1    1    2  501    0  0.39185594620E+02  0.34282216878E+03 -0.24911291734E+03  0.42558171462E+03  0.00000000000E+00 0. -1.
<mgrwt>
<rscale>  4 0.35595247E+03</rscale>
<asrwt>0</asrwt>
<pdfrwt beam="1">  1       21 0.14801335E+00 0.35595247E+03</pdfrwt>
<pdfrwt beam="2">  1        2 0.61077396E-01 0.35595247E+03</pdfrwt>
<totfact> 0.28440825E+02</totfact>
</mgrwt>
</event>
<event>
 5    0  0.1141006E+000  0.2624213E+03  0.7546771E-02  0.1105697E+00
         21   -1    0    0  501  502  0.00000000000E+00  0.00000000000E+00  0.71473874772E+03  0.71473874772E+03  0.00000000000E+00 0.  1.
          3   -1    0    0  503    0 -0.00000000000E+00 -0.00000000000E+00 -0.72953871658E+03  0.72953871658E+03  0.00000000000E+00 0.  1.
         25    1    1    2    0    0  0.10612759634E+03 -0.20567357457E+03  0.66277224114E+03  0.71306151881E+03  0.12500000000E+03 0.  0.
         21    1    1    2  503  502 -0.39751314297E+02 -0.43041150221E+01 -0.21761874068E+03  0.22126140352E+03  0.00000000000E+00 0.  1.
          3    1    1    2  501    0 -0.66376282040E+02  0.20997768959E+03 -0.45995346932E+03  0.50995454198E+03  0.00000000000E+00 0.  1.
<mgrwt>
<rscale>  4 0.26242129E+03</rscale>
<asrwt>0</asrwt>
<pdfrwt beam="1">  1       21 0.10995981E+00 0.26242129E+03</pdfrwt>
<pdfrwt beam="2">  1        3 0.11223673E+00 0.26242129E+03</pdfrwt>
<totfact> 0.21643576E+01</totfact>
</mgrwt>
</event>
<event>
 5    0  0.1141006E+000  0.3026525E+03  0.7546771E-02  0.1083922E+00
          2   -1    0    0  503    0 -0.00000000000E+00  0.00000000000E+00  0.79966838904E+03  0.79966838904E+03  0.00000000000E+00 0. -1.
         21   -1    0    0  501  502  0.00000000000E+00 -0.00000000000E+00 -0.21919095560E+03  0.21919095560E+03  0.00000000000E+00 0. -1.
         25    1    1    2    0    0 -0.77133883671E+02  0.26566081413E+03 -0.56734460283E+02  0.30881888407E+03  0.12500000000E+03 0.  0.
         21    1    1    2  503  502  0.33994214084E+02  0.39187034895E+01  0.12517665100E+03  0.12976962967E+03  0.00000000000E+00 0. -1.
          2    1    1    2  501    0  0.43139669588E+02 -0.26957951762E+03  0.51203524271E+03  0.58027083090E+03  0.00000000000E+00 0. -1.
<mgrwt>
<rscale>  4 0.30265252E+03</rscale>
<asrwt>0</asrwt>
<pdfrwt beam="1">  1       21 0.33721686E-01 0.30265252E+03</pdfrwt>
<pdfrwt beam="2">  1        2 0.12302590E+00 0.30265252E+03</pdfrwt>
<totfact> 0.36663740E+03</totfact>
</mgrwt>
</event>
<event>
 5    0  0.1141006E+000  0.4352847E+03  0.7546771E-02  0.1032203E+00
         21   -1    0    0  501  502  0.00000000000E+00  0.00000000000E+00  0.24359465522E+03  0.24359465522E+03  0.00000000000E+00 0.  1.
          2   -1    0    0  503    0 -0.00000000000E+00 -0.00000000000E+00 -0.93628906857E+03  0.93628906857E+03  0.00000000000E+00 0.  1.
         25    1    1    2    0    0 -0.39458843708E+03  0.16259906289E+03 -0.47360460118E+03  0.64966515082E+03  0.12500000000E+03 0.  0.
         21    1    1    2  503  502  0.26767896399E+02  0.24109543130E+02 -0.91665913092E+02  0.98490760839E+02  0.00000000000E+00 0.  1.
          2    1    1    2  501    0  0.36782054068E+03 -0.18670860602E+03 -0.12742389907E+03  0.43172781213E+03  0.00000000000E+00 0.  1.
<mgrwt>
<rscale>  4 0.43528470E+03</rscale>
<asrwt>0</asrwt>
<pdfrwt beam="1">  1       21 0.37476101E-01 0.43528470E+03</pdfrwt>
<pdfrwt beam="2">  1        2 0.14404447E+00 0.43528470E+03</pdfrwt>
<totfact> 0.23245582E+03</totfact>
</mgrwt>
</event>
<event>
 5    0  0.1141006E+000  0.3144984E+03  0.7546771E-02  0.1078210E+00
          2   -1    0    0  503    0 -0.00000000000E+00  0.00000000000E+00  0.13181518807E+04  0.13181518807E+04  0.00000000000E+00 0. -1.
         21   -1    0    0  501  502  0.00000000000E+00 -0.00000000000E+00 -0.39105587577E+03  0.39105587577E+03  0.00000000000E+00 0.  1.
         25    1    1    2    0    0 -0.26918607297E+03  0.10768408071E+03 -0.30279692449E+03  0.43745626136E+03  0.12500000000E+03 0.  0.
         21    1    1    2  503  502  0.87668644427E+01 -0.30699539525E+02  0.33615760607E+03  0.33767033591E+03  0.00000000000E+00 0. -1.
          2    1    1    2  501    0  0.26041920853E+03 -0.76984541185E+02  0.89373532335E+03  0.93408115919E+03  0.00000000000E+00 0. -1.
<mgrwt>
<rscale>  4 0.31449843E+03</rscale>
<asrwt>0</asrwt>
<pdfrwt beam="1">  1       21 0.60162443E-01 0.31449843E+03</pdfrwt>
<pdfrwt beam="2">  1        2 0.20279260E+00 0.31449843E+03</pdfrwt>
<totfact> 0.52868698E+02</totfact>
</mgrwt>
</event>
<event>
 5    0  0.1141006E+000  0.2794910E+03  0.7546771E-02  0.1095967E+00
          2   -1    0    0  503    0 -0.00000000000E+00  0.00000000000E+00  0.18873722224E+04  0.18873722224E+04  0.00000000000E+00 0.  1.
         21   -1    0    0  501  502  0.00000000000E+00 -0.00000000000E+00 -0.72900224547E+03  0.72900224547E+03  0.00000000000E+00 0. -1.
         25    1    1    2    0    0 -0.50673899344E+02 -0.24130950174E+03 -0.61382512942E+03  0.67320458199E+03  0.12500000000E+03 0.  0.
         21    1    1    2  503  502 -0.19716065964E+03 -0.14509118528E+03  0.23666554144E+03  0.34049134535E+03  0.00000000000E+00 0. -1.
          2    1    1    2  501    0  0.24783455898E+03  0.38640068702E+03  0.15355295649E+04  0.16026785405E+04  0.00000000000E+00 0.  1.
<mgrwt>
<rscale>  4 0.27949096E+03</rscale>
<asrwt>0</asrwt>
<pdfrwt beam="1">  1       21 0.11215419E+00 0.27949096E+03</pdfrwt>
<pdfrwt beam="2">  1        2 0.29036495E+00 0.27949096E+03</pdfrwt>
<totfact> 0.63586471E+01</totfact>
</mgrwt>
</event>
<event>
 5    0  0.1141006E+000  0.2905769E+03  0.7546771E-02  0.1090048E+00
         21   -1    0    0  501  502  0.00000000000E+00  0.00000000000E+00  0.13927980230E+03  0.13927980230E+03  0.00000000000E+00 0. -1.
          2   -1    0    0  503    0 -0.00000000000E+00 -0.00000000000E+00 -0.27149738009E+04  0.27149738009E+04  0.00000000000E+00 0.  1.
         25    1    1    2    0    0  0.25731085411E+03  0.10235030617E+02 -0.46315614117E+02  0.28997201176E+03  0.12500000000E+03 0.  0.
         21    1    1    2  503  502  0.42012200731E+02  0.13636597581E+02 -0.12246449932E+04  0.12254412843E+04  0.00000000000E+00 0.  1.
          2    1    1    2  501    0 -0.29932305484E+03 -0.23871628199E+02 -0.13047333912E+04  0.13388403071E+04  0.00000000000E+00 0.  1.
<mgrwt>
<rscale>  4 0.29057687E+03</rscale>
<asrwt>0</asrwt>
<pdfrwt beam="1">  1       21 0.21427664E-01 0.29057687E+03</pdfrwt>
<pdfrwt beam="2">  1        2 0.41768823E+00 0.29057687E+03</pdfrwt>
<totfact> 0.76015151E+02</totfact>
</mgrwt>
</event>
<event>
 5    0  0.1141006E+000  0.3009695E+03  0.7546771E-02  0.1084757E+00
         21   -1    0    0  501  502  0.00000000000E+00  0.00000000000E+00  0.28734621362E+03  0.28734621362E+03  0.00000000000E+00 0. -1.
          2   -1    0    0  503    0 -0.00000000000E+00 -0.00000000000E+00 -0.11411798184E+04  0.11411798184E+04  0.00000000000E+00 0. -1.
         25    1    1    2    0    0  0.12408150968E+03  0.25311990317E+03  0.16391504648E+03  0.34922635767E+03  0.12500000000E+03 0.  0.
         21    1    1    2  503  502  0.38943406340E+02 -0.11167795527E+03 -0.18940694577E+03  0.22330146819E+03  0.00000000000E+00 0. -1.
          2    1    1    2  501    0 -0.16302491602E+03 -0.14144194791E+03 -0.82834170554E+03  0.85599820619E+03  0.00000000000E+00 0. -1.
<mgrwt>
<rscale>  4 0.30096950E+03</rscale>
<asrwt>0</asrwt>
<pdfrwt beam="1">  1       21 0.44207110E-01 0.30096950E+03</pdfrwt>
<pdfrwt beam="2">  1        2 0.17556612E+00 0.30096950E+03</pdfrwt>
<totfact> 0.12881284E+03</totfact>
</mgrwt>
</event>
<event>
 5    0  0.1141006E+000  0.3769453E+03  0.7546771E-02  0.1052069E+00
         -2   -1    0    0    0  501 -0.00000000000E+00  0.00000000000E+00  0.77875726078E+03  0.77875726078E+03  0.00000000000E+00 0. -1.
         21   -1    0    0  503  502  0.00000000000E+00 -0.00000000000E+00 -0.56239081236E+03  0.56239081236E+03  0.00000000000E+00 0. -1.
         25    1    1    2    0    0  0.13361048303E+03  0.29112519823E+03 -0.26722398040E+03  0.43547594413E+03  0.12500000000E+03 0.  0.
         21    1    1    2  503  501  0.85435664298E+02  0.19813383407E+03  0.22060408933E+03  0.30858132342E+03  0.00000000000E+00 0. -1.
         -2    1    1    2    0  502 -0.21904614733E+03 -0.48925903229E+03  0.26298633949E+03  0.59709080558E+03  0.00000000000E+00 0. -1.
<mgrwt>
<rscale>  4 0.37694535E+03</rscale>
<asrwt>0</asrwt>
<pdfrwt beam="1">  1       21 0.86521663E-01 0.37694535E+03</pdfrwt>
<pdfrwt beam="2">  1       -2 0.11980881E+00 0.37694535E+03</pdfrwt>
<totfact> 0.48348133E+01</totfact>
</mgrwt>
</event>
<event>
 5    0  0.1141006E+000  0.2726234E+03  0.7546771E-02  0.1099788E+00
          1   -1    0    0  503    0 -0.00000000000E+00  0.00000000000E+00  0.16158679413E+04  0.16158679413E+04  0.00000000000E+00 0.  1.
         21   -1    0    0  501  502  0.00000000000E+00 -0.00000000000E+00 -0.10797523144E+04  0.10797523144E+04  0.00000000000E+00 0.  1.
         25    1    1    2    0    0 -0.10895924671E+03  0.21687792881E+03 -0.10513280649E+04  0.10861969681E+04  0.12500000000E+03 0.  0.
         21    1    1    2  503  502 -0.15680855119E+01 -0.32027858246E+02  0.48985304457E+03  0.49090146452E+03  0.00000000000E+00 0. -1.
          1    1    1    2  501    0  0.11052733222E+03 -0.18485007057E+03  0.10975906472E+04  0.11185218230E+04  0.00000000000E+00 0.  1.
<mgrwt>
<rscale>  4 0.27262336E+03</rscale>
<asrwt>0</asrwt>
<pdfrwt beam="1">  1       21 0.16611574E+00 0.27262336E+03</pdfrwt>
<pdfrwt beam="2">  1        1 0.24859507E+00 0.27262336E+03</pdfrwt>
<totfact> 0.14269525E+01</totfact>
</mgrwt>
</event>
<event>
 5    0  0.1141006E+000  0.4560259E+03  0.7546771E-02  0.1025940E+00
         21   -1    0    0  501  502  0.00000000000E+00  0.00000000000E+00  0.37423035009E+03  0.37423035009E+03  0.00000000000E+00 0.  1.
          1   -1    0    0  503    0 -0.00000000000E+00 -0.00000000000E+00 -0.24487553714E+04  0.24487553714E+04  0.00000000000E+00 0. -1.
         25    1    1    2    0    0  0.42415371351E+03 -0.11300303376E+03  0.19958666254E+03  0.49813240628E+03  0.12500000000E+03 0.  0.
         21    1    1    2  503  502  0.31137859378E+01  0.32938119369E+02 -0.38282803088E+03  0.38425501506E+03  0.00000000000E+00 0.  1.
          1    1    1    2  501    0 -0.42726749944E+03  0.80064914390E+02 -0.18912836529E+04  0.19405983001E+04  0.00000000000E+00 0. -1.
<mgrwt>
<rscale>  4 0.45602591E+03</rscale>
<asrwt>0</asrwt>
<pdfrwt beam="1">  1       21 0.57573902E-01 0.45602591E+03</pdfrwt>
<pdfrwt beam="2">  1        1 0.37673158E+00 0.45602591E+03</pdfrwt>
<totfact> 0.47133377E+01</totfact>
</mgrwt>
</event>
<event>
 5    0  0.1141006E+000  0.2716263E+03  0.7546771E-02  0.1100352E+00
          1   -1    0    0  503    0 -0.00000000000E+00  0.00000000000E+00  0.41954332112E+03  0.41954332112E+03  0.00000000000E+00 0. -1.
         21   -1    0    0  501  502  0.00000000000E+00 -0.00000000000E+00 -0.42353112691E+03  0.42353112691E+03  0.00000000000E+00 0. -1.
         25    1    1    2    0    0 -0.22133336047E+03  0.10277904673E+03 -0.31516605207E+03  0.41773990626E+03  0.12500000000E+03 0.  0.
         21    1    1    2  503  502 -0.24857835132E+01 -0.47829948430E+02  0.10781009039E+03  0.11796990580E+03  0.00000000000E+00 0. -1.
          1    1    1    2  501    0  0.22381914398E+03 -0.54949098295E+02  0.20336815589E+03  0.30736463597E+03  0.00000000000E+00 0. -1.
<mgrwt>
<rscale>  4 0.27162629E+03</rscale>
<asrwt>0</asrwt>
<pdfrwt beam="1">  1       21 0.65158634E-01 0.27162629E+03</pdfrwt>
<pdfrwt beam="2">  1        1 0.64545127E-01 0.27162629E+03</pdfrwt>
<totfact> 0.13153633E+03</totfact>
</mgrwt>
</event>
<event>
 5    0  0.1141006E+000  0.2533762E+03  0.7546771E-02  0.1111190E+00
         21   -1    0    0  501  502  0.00000000000E+00  0.00000000000E+00  0.26321549490E+03  0.26321549490E+03  0.00000000000E+00 0.  1.
          1   -1    0    0  503    0 -0.00000000000E+00 -0.00000000000E+00 -0.16270939716E+04  0.16270939716E+04  0.00000000000E+00 0.  1.
         25    1    1    2    0    0 -0.11078007148E+03 -0.19272461727E+03  0.18862382670E+03  0.31720490277E+03  0.12500000000E+03 0.  0.
         21    1    1    2  503  502 -0.44802239821E+01  0.37620167761E+02 -0.60015344119E+03  0.60134807093E+03  0.00000000000E+00 0.  1.
          1    1    1    2  501    0  0.11526029546E+03  0.15510444951E+03 -0.95234886218E+03  0.97175649278E+03  0.00000000000E+00 0.  1.
<mgrwt>
<rscale>  4 0.25337618E+03</rscale>
<asrwt>0</asrwt>
<pdfrwt beam="1">  1       21 0.40494691E-01 0.25337618E+03</pdfrwt>
<pdfrwt beam="2">  1        1 0.25032215E+00 0.25337618E+03</pdfrwt>
<totfact> 0.37897084E+02</totfact>
</mgrwt>
</event>
<event>
 5    0  0.1141006E+000  0.3711619E+03  0.7546771E-02  0.1054250E+00
         -1   -1    0    0    0  501 -0.00000000000E+00  0.00000000000E+00  0.14890860748E+04  0.14890860748E+04  0.00000000000E+00 0.  1.
         21   -1    0    0  503  502  0.00000000000E+00 -0.00000000000E+00 -0.99322493230E+02  0.99322493230E+02  0.00000000000E+00 0.  1.
         25    1    1    2    0    0 -0.26371996443E+03  0.21114900549E+03  0.53013722760E+03  0.64093884439E+03  0.12500000000E+03 0.  0.
         21    1    1    2  503  501 -0.28003383306E+02  0.88978074191E+01  0.10491303078E+03  0.10895000909E+03  0.00000000000E+00 0. -1.
         -1    1    1    2    0  502  0.29172334774E+03 -0.22004681291E+03  0.75471332323E+03  0.83851971458E+03  0.00000000000E+00 0.  1.
<mgrwt>
<rscale>  4 0.37116188E+03</rscale>
<asrwt>0</asrwt>
<pdfrwt beam="1">  1       21 0.15280385E-01 0.37116188E+03</pdfrwt>
<pdfrwt beam="2">  1       -1 0.22909015E+00 0.37116188E+03</pdfrwt>
<totfact> 0.36557100E+02</totfact>
</mgrwt>
</event>
<event>
 5    0  0.1141006E+000  0.3294208E+03  0.7546771E-02  0.1071393E+00
         -1   -1    0    0    0  501 -0.00000000000E+00  0.00000000000E+00  0.61377326969E+03  0.61377326969E+03  0.00000000000E+00 0.  1.
         21   -1    0    0  503  502  0.00000000000E+00 -0.00000000000E+00 -0.91694817549E+03  0.91694817549E+03  0.00000000000E+00 0.  1.
         25    1    1    2    0    0 -0.40335693064E+02 -0.30088154126E+03 -0.83028618158E+03  0.89283638665E+03  0.12500000000E+03 0.  0.
         21    1    1    2  503  501 -0.27659837725E+02 -0.18121143789E+02  0.48159228335E+02  0.58418779078E+02  0.00000000000E+00 0.  1.
         -1    1    1    2    0  502  0.67995530789E+02  0.31900268504E+03  0.47895204744E+03  0.57946627945E+03  0.00000000000E+00 0.  1.
<mgrwt>
<rscale>  4 0.32942080E+03</rscale>
<asrwt>0</asrwt>
<pdfrwt beam="1">  1       21 0.14106895E+00 0.32942080E+03</pdfrwt>
<pdfrwt beam="2">  1       -1 0.94426658E-01 0.32942080E+03</pdfrwt>
<totfact> 0.34349514E+01</totfact>
</mgrwt>
</event>
<event>
 5    0  0.1141006E+000  0.9024066E+03  0.7546771E-02  0.9422578E-01
         21   -1    0    0  501  502  0.00000000000E+00  0.00000000000E+00  0.10094925747E+04  0.10094925747E+04  0.00000000000E+00 0. -1.
          2   -1    0    0  503    0 -0.00000000000E+00 -0.00000000000E+00 -0.21301944705E+04  0.21301944705E+04  0.00000000000E+00 0.  1.
         25    1    1    2    0    0  0.56401899952E+03  0.69070310371E+03  0.66803595125E+03  0.11211981277E+04  0.12500000000E+03 0.  0.
         21    1    1    2  503  502  0.23987825727E+02  0.35979158602E+01 -0.64773232971E+02  0.69165977845E+02  0.00000000000E+00 0. -1.
          2    1    1    2  501    0 -0.58800682525E+03 -0.69430101958E+03 -0.17239646141E+04  0.19493229397E+04  0.00000000000E+00 0.  1.
<mgrwt>
<rscale>  4 0.90240663E+03</rscale>
<asrwt>0</asrwt>
<pdfrwt beam="1">  1       21 0.15530655E+00 0.90240663E+03</pdfrwt>
<pdfrwt beam="2">  1        2 0.32772223E+00 0.90240663E+03</pdfrwt>
<totfact> 0.15623816E+01</totfact>
</mgrwt>
</event>
<event>
 5    0  0.1141006E+000  0.2872536E+03  0.7546771E-02  0.1091792E+00
         21   -1    0    0  501  502  0.00000000000E+00  0.00000000000E+00  0.57172255352E+02  0.57172255352E+02  0.00000000000E+00 0. -1.
          1   -1    0    0  503    0 -0.00000000000E+00 -0.00000000000E+00 -0.19560171809E+04  0.19560171809E+04  0.00000000000E+00 0. -1.
         25    1    1    2    0    0 -0.24858281301E+03 -0.37692615174E+02 -0.46143201932E+03  0.54014688429E+03  0.12500000000E+03 0.  0.
         21    1    1    2  503  502 -0.18445648472E+02 -0.32564938293E+02 -0.31272352193E+03  0.31495510524E+03  0.00000000000E+00 0. -1.
          1    1    1    2  501    0  0.26702846148E+03  0.70257553466E+02 -0.11246893843E+04  0.11580874467E+04  0.00000000000E+00 0. -1.
<mgrwt>
<rscale>  4 0.28725363E+03</rscale>
<asrwt>0</asrwt>
<pdfrwt beam="1">  1       21 0.87957322E-02 0.28725363E+03</pdfrwt>
<pdfrwt beam="2">  1        1 0.30092570E+00 0.28725363E+03</pdfrwt>
<totfact> 0.40331739E+03</totfact>
</mgrwt>
</event>
<event>
 5    0  0.1141006E+000  0.2602111E+03  0.7546771E-02  0.1107016E+00
         21   -1    0    0  501  502  0.00000000000E+00  0.00000000000E+00  0.65948302488E+02  0.65948302488E+02  0.00000000000E+00 0. -1.
          2   -1    0    0  503    0 -0.00000000000E+00 -0.00000000000E+00 -0.22790987395E+04  0.22790987395E+04  0.00000000000E+00 0.  1.
         25    1    1    2    0    0 -0.21914443104E+03 -0.63722211818E+02 -0.22942093713E+03  0.34690599350E+03  0.12500000000E+03 0.  0.
         21    1    1    2  503  502  0.21261184143E+02 -0.15579828925E+02 -0.21237324187E+03  0.21400271700E+03  0.00000000000E+00 0. -1.
          2    1    1    2  501    0  0.19788324690E+03  0.79302040743E+02 -0.17713562580E+04  0.17841383315E+04  0.00000000000E+00 0.  1.
<mgrwt>
<rscale>  4 0.26021107E+03</rscale>
<asrwt>0</asrwt>
<pdfrwt beam="1">  1       21 0.10145892E-01 0.26021107E+03</pdfrwt>
<pdfrwt beam="2">  1        2 0.35063060E+00 0.26021107E+03</pdfrwt>
<totfact> 0.52751900E+03</totfact>
</mgrwt>
</event>
<event>
 5    0  0.1141006E+000  0.3013769E+03  0.7546771E-02  0.1084554E+00
         21   -1    0    0  501  502  0.00000000000E+00  0.00000000000E+00  0.34587243956E+03  0.34587243956E+03  0.00000000000E+00 0. -1.
          1   -1    0    0  503    0 -0.00000000000E+00 -0.00000000000E+00 -0.47719427635E+03  0.47719427635E+03  0.00000000000E+00 0.  1.
         25    1    1    2    0    0 -0.13666652022E+03  0.24641257815E+03  0.19253381220E+03  0.36344348289E+03  0.12500000000E+03 0.  0.
         21    1    1    2  503  502  0.53583969634E+02 -0.60560800308E+01 -0.12716074895E+03  0.13812231529E+03  0.00000000000E+00 0.  1.
          1    1    1    2  501    0  0.83082550583E+02 -0.24035649812E+03 -0.19669490004E+03  0.32150091773E+03  0.00000000000E+00 0.  1.
<mgrwt>
<rscale>  4 0.30137688E+03</rscale>
<asrwt>0</asrwt>
<pdfrwt beam="1">  1       21 0.53211145E-01 0.30137688E+03</pdfrwt>
<pdfrwt beam="2">  1        1 0.73414504E-01 0.30137688E+03</pdfrwt>
<totfact> 0.17050178E+03</totfact>
</mgrwt>
</event>
<event>
 5    0  0.1141006E+000  0.2570522E+03  0.7546771E-02  0.1108927E+00
          2   -1    0    0  503    0 -0.00000000000E+00  0.00000000000E+00  0.16368912652E+04  0.16368912652E+04  0.00000000000E+00 0.  1.
         21   -1    0    0  501  502  0.00000000000E+00 -0.00000000000E+00 -0.72641707434E+03  0.72641707434E+03  0.00000000000E+00 0. -1.
         25    1    1    2    0    0 -0.16690600560E+03 -0.15594324783E+03 -0.68608129724E+03  0.73383135506E+03  0.12500000000E+03 0.  0.
         21    1    1    2  503  502  0.16177187887E+03  0.31808527662E+02  0.51348789911E+03  0.53930672697E+03  0.00000000000E+00 0.  1.
          2    1    1    2  501    0  0.51341267315E+01  0.12413472017E+03  0.10830675890E+04  0.10901702575E+04  0.00000000000E+00 0.  1.
<mgrwt>
<rscale>  4 0.25705217E+03</rscale>
<asrwt>0</asrwt>
<pdfrwt beam="1">  1       21 0.11175647E+00 0.25705217E+03</pdfrwt>
<pdfrwt beam="2">  1        2 0.25182943E+00 0.25705217E+03</pdfrwt>
<totfact> 0.88363663E+01</totfact>
</mgrwt>
</event>
<event>
 5    0  0.1141006E+000  0.2449903E+03  0.7546771E-02  0.1116512E+00
         21   -1    0    0  503  502  0.00000000000E+00  0.00000000000E+00  0.28507019181E+03  0.28507019181E+03  0.00000000000E+00 0.  1.
         -1   -1    0    0    0  501 -0.00000000000E+00 -0.00000000000E+00 -0.73331938087E+03  0.73331938087E+03  0.00000000000E+00 0. -1.
         25    1    1    2    0    0  0.19547565833E+03 -0.72598427062E+02  0.20007707787E+03  0.31486044798E+03  0.12500000000E+03 0.  0.
         21    1    1    2  503  501  0.29568903477E+02  0.38109959121E+01 -0.31658754071E+02  0.43487014751E+02  0.00000000000E+00 0.  1.
         -1    1    1    2    0  502 -0.22504456181E+03  0.68787431150E+02 -0.61666751286E+03  0.66004210995E+03  0.00000000000E+00 0. -1.
<mgrwt>
<rscale>  4 0.24499030E+03</rscale>
<asrwt>0</asrwt>
<pdfrwt beam="1">  1       21 0.43856953E-01 0.24499030E+03</pdfrwt>
<pdfrwt beam="2">  1       -1 0.11281836E+00 0.24499030E+03</pdfrwt>
<totfact> 0.35061244E+02</totfact>
</mgrwt>
</event>
<event>
 5    0  0.1141006E+000  0.2818979E+03  0.7546771E-02  0.1094657E+00
         21   -1    0    0  503  502  0.00000000000E+00  0.00000000000E+00  0.84651715640E+03  0.84651715640E+03  0.00000000000E+00 0.  1.
         -1   -1    0    0    0  501 -0.00000000000E+00 -0.00000000000E+00 -0.51130201054E+03  0.51130201054E+03  0.00000000000E+00 0.  1.
         25    1    1    2    0    0  0.25280797300E+03  0.20510145417E+01  0.78171676368E+03  0.83103680814E+03  0.12500000000E+03 0.  0.
         21    1    1    2  503  501 -0.31172547397E+01  0.27541306775E+02 -0.36657376962E+02  0.45956546233E+02  0.00000000000E+00 0. -1.
         -1    1    1    2    0  502 -0.24969071826E+03 -0.29592321317E+02 -0.40984424085E+03  0.48082581256E+03  0.00000000000E+00 0.  1.
<mgrwt>
<rscale>  4 0.28189789E+03</rscale>
<asrwt>0</asrwt>
<pdfrwt beam="1">  1       21 0.13023341E+00 0.28189789E+03</pdfrwt>
<pdfrwt beam="2">  1       -1 0.78661848E-01 0.28189789E+03</pdfrwt>
<totfact> 0.63981930E+01</totfact>
</mgrwt>
</event>
<event>
 5    0  0.1141006E+000  0.3011220E+03  0.7546771E-02  0.1084681E+00
         21   -1    0    0  501  502  0.00000000000E+00  0.00000000000E+00  0.10641791423E+03  0.10641791423E+03  0.00000000000E+00 0.  1.
          2   -1    0    0  503    0 -0.00000000000E+00 -0.00000000000E+00 -0.14757551629E+04  0.14757551629E+04  0.00000000000E+00 0.  1.
         25    1    1    2    0    0 -0.13204511951E+03 -0.23719410420E+03 -0.18718246991E+03  0.35264604591E+03  0.12500000000E+03 0.  0.
         21    1    1    2  503  502 -0.23202835988E+02  0.13008309799E+01 -0.34981643450E+03  0.35058750920E+03  0.00000000000E+00 0. -1.
          2    1    1    2  501    0  0.15524795550E+03  0.23589327322E+03 -0.83233834425E+03  0.87893952201E+03  0.00000000000E+00 0.  1.
<mgrwt>
<rscale>  4 0.30112203E+03</rscale>
<asrwt>0</asrwt>
<pdfrwt beam="1">  1       21 0.16371988E-01 0.30112203E+03</pdfrwt>
<pdfrwt beam="2">  1        2 0.22703924E+00 0.30112203E+03</pdfrwt>
<totfact> 0.58150737E+03</totfact>
</mgrwt>
</event>
<event>
 5    0  0.1141006E+000  0.2525034E+03  0.7546771E-02  0.1111733E+00
         -1   -1    0    0    0  501 -0.00000000000E+00  0.00000000000E+00  0.29236510973E+03  0.29236510973E+03  0.00000000000E+00 0. -1.
         21   -1    0    0  503  502  0.00000000000E+00 -0.00000000000E+00 -0.12219882473E+04  0.12219882473E+04  0.00000000000E+00 0.  1.
         25    1    1    2    0    0 -0.12355980698E+03  0.18387894280E+03 -0.11434993311E+04  0.11714496198E+04  0.12500000000E+03 0.  0.
         21    1    1    2  503  501 -0.65356360811E+01 -0.54230715022E+02 -0.76333536361E+01  0.55153903566E+02  0.00000000000E+00 0. -1.
         -1    1    1    2    0  502  0.13009544306E+03 -0.12964822777E+03  0.22150954719E+03  0.28774983365E+03  0.00000000000E+00 0. -1.
<mgrwt>
<rscale>  4 0.25250337E+03</rscale>
<asrwt>0</asrwt>
<pdfrwt beam="1">  1       21 0.18799819E+00 0.25250337E+03</pdfrwt>
<pdfrwt beam="2">  1       -1 0.44979247E-01 0.25250337E+03</pdfrwt>
<totfact> 0.70737143E+01</totfact>
</mgrwt>
</event>
<event>
 5    0  0.1141006E+000  0.2483781E+03  0.7546771E-02  0.1114334E+00
         21   -1    0    0  501  502  0.00000000000E+00  0.00000000000E+00  0.48861476461E+03  0.48861476461E+03  0.00000000000E+00 0.  1.
          1   -1    0    0  503    0 -0.00000000000E+00 -0.00000000000E+00 -0.10176013097E+04  0.10176013097E+04  0.00000000000E+00 0.  1.
         25    1    1    2    0    0 -0.18261128810E+03 -0.10868056714E+03  0.42821217452E+03  0.49411437403E+03  0.12500000000E+03 0.  0.
         21    1    1    2  503  502 -0.49840125499E+02 -0.19190826324E+01 -0.33594012508E+03  0.33962256789E+03  0.00000000000E+00 0.  1.
          1    1    1    2  501    0  0.23245141360E+03  0.11059964977E+03 -0.62125859454E+03  0.67247913239E+03  0.00000000000E+00 0.  1.
<mgrwt>
<rscale>  4 0.24837815E+03</rscale>
<asrwt>0</asrwt>
<pdfrwt beam="1">  1       21 0.75171503E-01 0.24837815E+03</pdfrwt>
<pdfrwt beam="2">  1        1 0.15655405E+00 0.24837815E+03</pdfrwt>
<totfact> 0.26576892E+02</totfact>
</mgrwt>
</event>
<event>
 5    0  0.1141006E+000  0.2432342E+03  0.7546771E-02  0.1117657E+00
         21   -1    0    0  501  502  0.00000000000E+00  0.00000000000E+00  0.86909238947E+03  0.86909238947E+03  0.00000000000E+00 0.  1.
          4   -1    0    0  503    0 -0.00000000000E+00 -0.00000000000E+00 -0.18573347036E+03  0.18573347036E+03  0.00000000000E+00 0. -1.
         25    1    1    2    0    0 -0.22847077441E+01 -0.20524954906E+03  0.74335300229E+03  0.78123702120E+03  0.12500000000E+03 0.  0.
         21    1    1    2  503  502  0.36038808591E+01 -0.27487699568E+02 -0.26679866016E+02  0.38475665497E+02  0.00000000000E+00 0.  1.
          4    1    1    2  501    0 -0.13191731151E+01  0.23273724862E+03 -0.33314217159E+02  0.23511317313E+03  0.00000000000E+00 0. -1.
<mgrwt>
<rscale>  4 0.24323417E+03</rscale>
<asrwt>0</asrwt>
<pdfrwt beam="1">  1       21 0.13370652E+00 0.24323417E+03</pdfrwt>
<pdfrwt beam="2">  1        4 0.28574381E-01 0.24323417E+03</pdfrwt>
<totfact> 0.19489290E+02</totfact>
</mgrwt>
</event>
<event>
 5    0  0.1141006E+000  0.2335198E+03  0.7546771E-02  0.1124187E+00
          2   -1    0    0  503    0 -0.00000000000E+00  0.00000000000E+00  0.19381898398E+04  0.19381898398E+04  0.00000000000E+00 0. -1.
         21   -1    0    0  501  502  0.00000000000E+00 -0.00000000000E+00 -0.86177979454E+03  0.86177979454E+03  0.00000000000E+00 0. -1.
         25    1    1    2    0    0  0.16311269745E+03 -0.13666176415E+03 -0.80726325414E+03  0.84414521934E+03  0.12500000000E+03 0.  0.
         21    1    1    2  503  502 -0.77822677520E+02  0.86361502265E+02  0.62551580014E+02  0.13201279624E+03  0.00000000000E+00 0. -1.
          2    1    1    2  501    0 -0.85290019934E+02  0.50300261881E+02  0.18211217194E+04  0.18238116188E+04  0.00000000000E+00 0. -1.
<mgrwt>
<rscale>  4 0.23351977E+03</rscale>
<asrwt>0</asrwt>
<pdfrwt beam="1">  1       21 0.13258151E+00 0.23351977E+03</pdfrwt>
<pdfrwt beam="2">  1        2 0.29818305E+00 0.23351977E+03</pdfrwt>
<totfact> 0.40859744E+01</totfact>
</mgrwt>
</event>
<event>
 5    0  0.1141006E+000  0.3177960E+03  0.7546771E-02  0.1076668E+00
          2   -1    0    0  503    0 -0.00000000000E+00  0.00000000000E+00  0.13744449334E+04  0.13744449334E+04  0.00000000000E+00 0.  1.
         21   -1    0    0  501  502  0.00000000000E+00 -0.00000000000E+00 -0.13414591036E+04  0.13414591036E+04  0.00000000000E+00 0.  1.
         25    1    1    2    0    0  0.25805068054E+03  0.13687527280E+03 -0.12968834540E+04  0.13352365661E+04  0.12500000000E+03 0.  0.
         21    1    1    2  503  502  0.19171321215E+02 -0.24834745504E+02  0.20234834430E+02  0.37332997011E+02  0.00000000000E+00 0.  1.
          2    1    1    2  501    0 -0.27722200175E+03 -0.11204052730E+03  0.13096344493E+04  0.13433344739E+04  0.00000000000E+00 0.  1.
<mgrwt>
<rscale>  4 0.31779602E+03</rscale>
<asrwt>0</asrwt>
<pdfrwt beam="1">  1       21 0.20637832E+00 0.31779602E+03</pdfrwt>
<pdfrwt beam="2">  1        2 0.21145307E+00 0.31779602E+03</pdfrwt>
<totfact> 0.22156385E+01</totfact>
</mgrwt>
</event>
<event>
 5    0  0.1141006E+000  0.2319380E+03  0.7546771E-02  0.1125283E+00
          1   -1    0    0  503    0 -0.00000000000E+00  0.00000000000E+00  0.12849895571E+04  0.12849895571E+04  0.00000000000E+00 0. -1.
         21   -1    0    0  501  502  0.00000000000E+00 -0.00000000000E+00 -0.61293973726E+02  0.61293973726E+02  0.00000000000E+00 0.  1.
         25    1    1    2    0    0 -0.16925095797E+03  0.15128833220E+03  0.35115850815E+03  0.43643022819E+03  0.12500000000E+03 0.  0.
         21    1    1    2  503  502  0.44238602818E+02 -0.46485669059E+02  0.48720223578E+03  0.49141020538E+03  0.00000000000E+00 0. -1.
          1    1    1    2  501    0  0.12501235516E+03 -0.10480266314E+03  0.38533483943E+03  0.41844309724E+03  0.00000000000E+00 0. -1.
<mgrwt>
<rscale>  4 0.23193803E+03</rscale>
<asrwt>0</asrwt>
<pdfrwt beam="1">  1       21 0.94298430E-02 0.23193803E+03</pdfrwt>
<pdfrwt beam="2">  1        1 0.19769068E+00 0.23193803E+03</pdfrwt>
<totfact> 0.10052760E+04</totfact>
</mgrwt>
</event>
<event>
 5    0  0.1141006E+000  0.2453159E+03  0.7546771E-02  0.1116301E+00
         21   -1    0    0  501  502  0.00000000000E+00  0.00000000000E+00  0.44241891310E+03  0.44241891310E+03  0.00000000000E+00 0. -1.
          2   -1    0    0  503    0 -0.00000000000E+00 -0.00000000000E+00 -0.12984863526E+04  0.12984863526E+04  0.00000000000E+00 0. -1.
         25    1    1    2    0    0 -0.94139158133E+02 -0.18954809928E+03  0.39059910221E+03  0.46150116109E+03  0.12500000000E+03 0.  0.
         21    1    1    2  503  502  0.31451590374E+02 -0.35375438179E+01 -0.61721540810E+03  0.61802635603E+03  0.00000000000E+00 0. -1.
          2    1    1    2  501    0  0.62687567759E+02  0.19308564309E+03 -0.62945113365E+03  0.66137774862E+03  0.00000000000E+00 0. -1.
<mgrwt>
<rscale>  4 0.24531588E+03</rscale>
<asrwt>0</asrwt>
<pdfrwt beam="1">  1       21 0.68064449E-01 0.24531588E+03</pdfrwt>
<pdfrwt beam="2">  1        2 0.19976713E+00 0.24531588E+03</pdfrwt>
<totfact> 0.42845348E+02</totfact>
</mgrwt>
</event>
<event>
 5    0  0.1141006E+000  0.2991414E+03  0.7546771E-02  0.1085671E+00
         21   -1    0    0  501  502  0.00000000000E+00  0.00000000000E+00  0.36898486388E+03  0.36898486388E+03  0.00000000000E+00 0. -1.
          2   -1    0    0  503    0 -0.00000000000E+00 -0.00000000000E+00 -0.11090720578E+04  0.11090720578E+04  0.00000000000E+00 0. -1.
         25    1    1    2    0    0 -0.25574084028E+03 -0.81649124952E+02  0.26827865146E+03  0.39958527478E+03  0.12500000000E+03 0.  0.
         21    1    1    2  503  502 -0.46541926076E+02 -0.24509169389E+02 -0.74660925005E+02  0.91329644637E+02  0.00000000000E+00 0. -1.
          2    1    1    2  501    0  0.30228276635E+03  0.10615829434E+03 -0.93370492043E+03  0.98714200231E+03  0.00000000000E+00 0. -1.
<mgrwt>
<rscale>  4 0.29914136E+03</rscale>
<asrwt>0</asrwt>
<pdfrwt beam="1">  1       21 0.56766902E-01 0.29914136E+03</pdfrwt>
<pdfrwt beam="2">  1        2 0.17062647E+00 0.29914136E+03</pdfrwt>
<totfact> 0.79443920E+02</totfact>
</mgrwt>
</event>
<event>
 5    0  0.1141006E+000  0.2666549E+03  0.7546771E-02  0.1103209E+00
          1   -1    0    0  503    0 -0.00000000000E+00  0.00000000000E+00  0.20547298013E+04  0.20547298013E+04  0.00000000000E+00 0.  1.
         21   -1    0    0  501  502  0.00000000000E+00 -0.00000000000E+00 -0.35863502877E+03  0.35863502877E+03  0.00000000000E+00 0. -1.
         25    1    1    2    0    0  0.30948795654E+02  0.23372114378E+03 -0.29681838537E+03  0.39913601052E+03  0.12500000000E+03 0.  0.
         21    1    1    2  503  502  0.19713009545E+02 -0.83693783225E+01  0.73335856773E+03  0.73367120572E+03  0.00000000000E+00 0. -1.
          1    1    1    2  501    0 -0.50661805200E+02 -0.22535176546E+03  0.12595545902E+04  0.12805576138E+04  0.00000000000E+00 0.  1.
<mgrwt>
<rscale>  4 0.26665493E+03</rscale>
<asrwt>0</asrwt>
<pdfrwt beam="1">  1       21 0.55174621E-01 0.26665493E+03</pdfrwt>
<pdfrwt beam="2">  1        1 0.31611227E+00 0.26665493E+03</pdfrwt>
<totfact> 0.10395774E+02</totfact>
</mgrwt>
</event>
<event>
 5    0  0.1141006E+000  0.3734539E+03  0.7546771E-02  0.1053380E+00
          2   -1    0    0  503    0 -0.00000000000E+00  0.00000000000E+00  0.17314445321E+04  0.17314445321E+04  0.00000000000E+00 0. -1.
         21   -1    0    0  501  502  0.00000000000E+00 -0.00000000000E+00 -0.11606714062E+04  0.11606714062E+04  0.00000000000E+00 0. -1.
         25    1    1    2    0    0  0.19193039708E+03  0.29426947998E+03 -0.10916286593E+04  0.11535640139E+04  0.12500000000E+03 0.  0.
         21    1    1    2  503  502 -0.26944066554E+01  0.22692965435E+02  0.80168988864E+03  0.80201552856E+03  0.00000000000E+00 0. -1.
          2    1    1    2  501    0 -0.18923599042E+03 -0.31696244542E+03  0.86071189662E+03  0.93653639591E+03  0.00000000000E+00 0. -1.
<mgrwt>
<rscale>  4 0.37345395E+03</rscale>
<asrwt>0</asrwt>
<pdfrwt beam="1">  1       21 0.17856483E+00 0.37345395E+03</pdfrwt>
<pdfrwt beam="2">  1        2 0.26637608E+00 0.37345395E+03</pdfrwt>
<totfact> 0.21065355E+01</totfact>
</mgrwt>
</event>
<event>
 5    0  0.1141006E+000  0.2456892E+03  0.7546771E-02  0.1116060E+00
         21   -1    0    0  501  502  0.00000000000E+00  0.00000000000E+00  0.69708700268E+03  0.69708700268E+03  0.00000000000E+00 0. -1.
          1   -1    0    0  503    0 -0.00000000000E+00 -0.00000000000E+00 -0.12558611449E+04  0.12558611449E+04  0.00000000000E+00 0.  1.
         25    1    1    2    0    0  0.21361543311E+03  0.58407616726E+01  0.66145381962E+03  0.70626611362E+03  0.12500000000E+03 0.  0.
         21    1    1    2  503  502 -0.56938634320E+02  0.30408895826E+02 -0.67917098354E+03  0.68223158378E+03  0.00000000000E+00 0.  1.
          1    1    1    2  501    0 -0.15667679879E+03 -0.36249657498E+02 -0.54105697826E+03  0.56445045015E+03  0.00000000000E+00 0.  1.
<mgrwt>
<rscale>  4 0.24568919E+03</rscale>
<asrwt>0</asrwt>
<pdfrwt beam="1">  1       21 0.10724416E+00 0.24568919E+03</pdfrwt>
<pdfrwt beam="2">  1        1 0.19320940E+00 0.24568919E+03</pdfrwt>
<totfact> 0.78566178E+01</totfact>
</mgrwt>
</event>
<event>
 5    0  0.1141006E+000  0.3061572E+03  0.7546771E-02  0.1082203E+00
         21   -1    0    0  501  502  0.00000000000E+00  0.00000000000E+00  0.42549632018E+02  0.42549632018E+02  0.00000000000E+00 0.  1.
          1   -1    0    0  503    0 -0.00000000000E+00 -0.00000000000E+00 -0.24353802748E+04  0.24353802748E+04  0.00000000000E+00 0. -1.
         25    1    1    2    0    0  0.26182003323E+02  0.25631740927E+03 -0.13847750327E+04  0.14140760244E+04  0.12500000000E+03 0.  0.
         21    1    1    2  503  502  0.31805171267E+02  0.31180631505E+02 -0.17871269047E+03  0.18417933227E+03  0.00000000000E+00 0.  1.
          1    1    1    2  501    0 -0.57987174590E+02 -0.28749804077E+03 -0.82934291956E+03  0.87967455010E+03  0.00000000000E+00 0. -1.
<mgrwt>
<rscale>  4 0.30615721E+03</rscale>
<asrwt>0</asrwt>
<pdfrwt beam="1">  1       21 0.65460987E-02 0.30615721E+03</pdfrwt>
<pdfrwt beam="2">  1        1 0.37467380E+00 0.30615721E+03</pdfrwt>
<totfact> 0.32600230E+03</totfact>
</mgrwt>
</event>
<event>
 5    0  0.1141006E+000  0.3341779E+03  0.7546771E-02  0.1069303E+00
         21   -1    0    0  501  502  0.00000000000E+00  0.00000000000E+00  0.85914788822E+03  0.85914788822E+03  0.00000000000E+00 0.  1.
          2   -1    0    0  503    0 -0.00000000000E+00 -0.00000000000E+00 -0.36460654975E+03  0.36460654975E+03  0.00000000000E+00 0. -1.
         25    1    1    2    0    0 -0.27838041560E+03  0.13879377679E+03  0.68429770154E+03  0.76200243608E+03  0.12500000000E+03 0.  0.
         21    1    1    2  503  502 -0.79745601130E+01 -0.30680326463E+02 -0.14974496105E+03  0.15306348160E+03  0.00000000000E+00 0.  1.
          2    1    1    2  501    0  0.28635497572E+03 -0.10811345033E+03 -0.40011402019E+02  0.30868852028E+03  0.00000000000E+00 0. -1.
<mgrwt>
<rscale>  4 0.33417788E+03</rscale>
<asrwt>0</asrwt>
<pdfrwt beam="1">  1       21 0.13217660E+00 0.33417788E+03</pdfrwt>
<pdfrwt beam="2">  1        2 0.56093316E-01 0.33417788E+03</pdfrwt>
<totfact> 0.42426916E+02</totfact>
</mgrwt>
</event>
<event>
 5    0  0.1141006E+000  0.2462674E+03  0.7546771E-02  0.1115687E+00
          2   -1    0    0  503    0 -0.00000000000E+00  0.00000000000E+00  0.23983937248E+04  0.23983937248E+04  0.00000000000E+00 0. -1.
         21   -1    0    0  501  502  0.00000000000E+00 -0.00000000000E+00 -0.39693643648E+03  0.39693643648E+03  0.00000000000E+00 0. -1.
         25    1    1    2    0    0 -0.21192430938E+03  0.11806336338E+02 -0.34846477315E+03  0.42673645334E+03  0.12500000000E+03 0.  0.
         21    1    1    2  503  502 -0.31153852090E+00 -0.51661906562E+02  0.10153557127E+04  0.10166692053E+04  0.00000000000E+00 0.  1.
          2    1    1    2  501    0  0.21223584790E+03  0.39855570224E+02  0.13345663487E+04  0.13519245026E+04  0.00000000000E+00 0. -1.
<mgrwt>
<rscale>  4 0.24626743E+03</rscale>
<asrwt>0</asrwt>
<pdfrwt beam="1">  1       21 0.61067146E-01 0.24626743E+03</pdfrwt>
<pdfrwt beam="2">  1        2 0.36898364E+00 0.24626743E+03</pdfrwt>
<totfact> 0.14151495E+02</totfact>
</mgrwt>
</event>
<event>
 5    0  0.1141006E+000  0.2790702E+03  0.7546771E-02  0.1096198E+00
         21   -1    0    0  501  502  0.00000000000E+00  0.00000000000E+00  0.10327684241E+04  0.10327684241E+04  0.00000000000E+00 0.  1.
          1   -1    0    0  503    0 -0.00000000000E+00 -0.00000000000E+00 -0.70513781231E+03  0.70513781231E+03  0.00000000000E+00 0.  1.
         25    1    1    2    0    0 -0.13364800286E+03 -0.21086091229E+03  0.98574930096E+03  0.10245246690E+04  0.12500000000E+03 0.  0.
         21    1    1    2  503  502 -0.16245384159E+02  0.15320957100E+02 -0.11276661466E+03  0.11495631177E+03  0.00000000000E+00 0. -1.
          1    1    1    2  501    0  0.14989338702E+03  0.19553995519E+03 -0.54535207446E+03  0.59842525570E+03  0.00000000000E+00 0.  1.
<mgrwt>
<rscale>  4 0.27907019E+03</rscale>
<asrwt>0</asrwt>
<pdfrwt beam="1">  1       21 0.15888745E+00 0.27907019E+03</pdfrwt>
<pdfrwt beam="2">  1        1 0.10848274E+00 0.27907019E+03</pdfrwt>
<totfact> 0.74401450E+01</totfact>
</mgrwt>
</event>
<event>
 5    0  0.1141006E+000  0.3087525E+03  0.7546771E-02  0.1080945E+00
         21   -1    0    0  501  502  0.00000000000E+00  0.00000000000E+00  0.12516747851E+03  0.12516747851E+03  0.00000000000E+00 0. -1.
          2   -1    0    0  503    0 -0.00000000000E+00 -0.00000000000E+00 -0.18266770771E+04  0.18266770771E+04  0.00000000000E+00 0.  1.
         25    1    1    2    0    0  0.27579032557E+03 -0.60355582932E+02 -0.99687139584E+02  0.32444664564E+03  0.12500000000E+03 0.  0.
         21    1    1    2  503  502 -0.32732012130E+02 -0.11924956430E+01 -0.28872426763E+03  0.29057616795E+03  0.00000000000E+00 0. -1.
          2    1    1    2  501    0 -0.24305831344E+03  0.61548078576E+02 -0.13130981914E+04  0.13368217420E+04  0.00000000000E+00 0.  1.
<mgrwt>
<rscale>  4 0.30875249E+03</rscale>
<asrwt>0</asrwt>
<pdfrwt beam="1">  1       21 0.19256535E-01 0.30875249E+03</pdfrwt>
<pdfrwt beam="2">  1        2 0.28102724E+00 0.30875249E+03</pdfrwt>
<totfact> 0.27871099E+03</totfact>
</mgrwt>
</event>
<event>
 5    0  0.1141006E+000  0.2742821E+03  0.7546771E-02  0.1098854E+00
         21   -1    0    0  501  502  0.00000000000E+00  0.00000000000E+00  0.29055317471E+03  0.29055317471E+03  0.00000000000E+00 0. -1.
          2   -1    0    0  503    0 -0.00000000000E+00 -0.00000000000E+00 -0.24632528371E+04  0.24632528371E+04  0.00000000000E+00 0. -1.
         25    1    1    2    0    0 -0.18031452973E+03 -0.18877921927E+03  0.16736441972E+03  0.33434528896E+03  0.12500000000E+03 0.  0.
         21    1    1    2  503  502  0.44632949773E+02 -0.13792643181E+02  0.17080539265E+02  0.49740145083E+02  0.00000000000E+00 0.  1.
          2    1    1    2  501    0  0.13568157996E+03  0.20257186245E+03 -0.23571446214E+04  0.23697205778E+04  0.00000000000E+00 0. -1.
<mgrwt>
<rscale>  4 0.27428212E+03</rscale>
<asrwt>0</asrwt>
<pdfrwt beam="1">  1       21 0.44700489E-01 0.27428212E+03</pdfrwt>
<pdfrwt beam="2">  1        2 0.37896197E+00 0.27428212E+03</pdfrwt>
<totfact> 0.24752439E+02</totfact>
</mgrwt>
</event>
<event>
 5    0  0.1141006E+000  0.2465688E+03  0.7546771E-02  0.1115493E+00
         21   -1    0    0  501  502  0.00000000000E+00  0.00000000000E+00  0.19027374582E+03  0.19027374582E+03  0.00000000000E+00 0.  1.
          1   -1    0    0  503    0 -0.00000000000E+00 -0.00000000000E+00 -0.47717020522E+03  0.47717020522E+03  0.00000000000E+00 0.  1.
         25    1    1    2    0    0  0.13272693052E+02 -0.22774974152E+03 -0.22207286128E+03  0.34203430363E+03  0.12500000000E+03 0.  0.
         21    1    1    2  503  502 -0.40365958025E+01  0.20036342092E+02 -0.11063233376E+03  0.11250449939E+03  0.00000000000E+00 0.  1.
          1    1    1    2  501    0 -0.92360972495E+01  0.20771339942E+03  0.45808735646E+02  0.21290514802E+03  0.00000000000E+00 0.  1.
<mgrwt>
<rscale>  4 0.24656876E+03</rscale>
<asrwt>0</asrwt>
<pdfrwt beam="1">  1       21 0.29272884E-01 0.24656876E+03</pdfrwt>
<pdfrwt beam="2">  1        1 0.73410801E-01 0.24656876E+03</pdfrwt>
<totfact> 0.58442195E+03</totfact>
</mgrwt>
</event>
<event>
 5    0  0.1141006E+000  0.4965893E+03  0.7546771E-02  0.1027450E+00
          2   -1    0    0  503    0 -0.00000000000E+00  0.00000000000E+00  0.34452354645E+03  0.34452354645E+03  0.00000000000E+00 0. -1.
         21   -1    0    0  501  502  0.00000000000E+00 -0.00000000000E+00 -0.16783483610E+04  0.16783483610E+04  0.00000000000E+00 0.  1.
         25    1    1    2    0    0  0.28345826852E+03 -0.13412759439E+03 -0.58753679890E+03  0.67761588797E+03  0.12500000000E+03 0.  0.
         21    1    1    2  503  502 -0.16912212562E+03  0.58852136925E+03 -0.59260435315E+03  0.85213826039E+03  0.00000000000E+00 0. -1.
          2    1    1    2  501    0 -0.11433614289E+03 -0.45439377486E+03 -0.15368366250E+03  0.49311775908E+03  0.00000000000E+00 0. -1.
<mgrwt>
<rscale>  4 0.45091417E+03</rscale>
<asrwt>0</asrwt>
<pdfrwt beam="1">  1       21 0.25820744E+00 0.49658930E+03</pdfrwt>
<pdfrwt beam="2">  1        2 0.53003623E-01 0.49658930E+03</pdfrwt>
<totfact> 0.56894550E+01</totfact>
</mgrwt>
</event>
<event>
 5    0  0.2072919E+000  0.3775081E+03  0.7546771E-02  0.1051859E+00
         21   -1    0    0  501  502  0.00000000000E+00  0.00000000000E+00  0.15329645016E+04  0.15329645016E+04  0.00000000000E+00 0. -1.
          2   -1    0    0  503    0 -0.00000000000E+00 -0.00000000000E+00 -0.20215200916E+04  0.20215200916E+04  0.00000000000E+00 0. -1.
         25    1    1    2    0    0 -0.93853605941E+02 -0.36925866780E+03  0.14775048945E+04  0.15309494363E+04  0.12500000000E+03 0.  0.
         21    1    1    2  503  502 -0.50574214806E+01  0.27326307118E+02 -0.24221193692E+01  0.27895720729E+02  0.00000000000E+00 0.  1.
          2    1    1    2  501    0  0.98911027421E+02  0.34193236068E+03 -0.19636383651E+04  0.19956394362E+04  0.00000000000E+00 0. -1.
<mgrwt>
<rscale>  4 0.37750811E+03</rscale>
<asrwt>0</asrwt>
<pdfrwt beam="1">  1       21 0.23584069E+00 0.37750811E+03</pdfrwt>
<pdfrwt beam="2">  1        2 0.31100309E+00 0.37750811E+03</pdfrwt>
<totfact> 0.62122919E+00</totfact>
</mgrwt>
</event>
<event>
 5    0  0.1141006E+000  0.2411222E+03  0.7546771E-02  0.1119047E+00
         21   -1    0    0  503  502  0.00000000000E+00  0.00000000000E+00  0.14959336566E+04  0.14959336566E+04  0.00000000000E+00 0. -1.
         -3   -1    0    0    0  501 -0.00000000000E+00 -0.00000000000E+00 -0.39847079849E+02  0.39847079849E+02  0.00000000000E+00 0. -1.
         25    1    1    2    0    0 -0.18642156012E+03 -0.11303396545E+03  0.79241231834E+03  0.83130737858E+03  0.12500000000E+03 0.  0.
         21    1    1    2  503  501  0.25381219531E+02 -0.10954080221E+01  0.23667793109E+02  0.34721328521E+02  0.00000000000E+00 0. -1.
         -3    1    1    2    0  502  0.16104034059E+03  0.11412937347E+03  0.64000646529E+03  0.66975202934E+03  0.00000000000E+00 0. -1.
<mgrwt>
<rscale>  4 0.24112221E+03</rscale>
<asrwt>0</asrwt>
<pdfrwt beam="1">  1       21 0.23014360E+00 0.24112221E+03</pdfrwt>
<pdfrwt beam="2">  1       -3 0.61303211E-02 0.24112221E+03</pdfrwt>
<totfact> 0.69264786E+02</totfact>
</mgrwt>
</event>
<event>
 5    0  0.1141006E+000  0.2687634E+03  0.7546771E-02  0.1101989E+00
         21   -1    0    0  501  502  0.00000000000E+00  0.00000000000E+00  0.61367636239E+02  0.61367636239E+02  0.00000000000E+00 0. -1.
          2   -1    0    0  503    0 -0.00000000000E+00 -0.00000000000E+00 -0.19672561208E+04  0.19672561208E+04  0.00000000000E+00 0. -1.
         25    1    1    2    0    0 -0.13516412391E+03  0.20816910140E+03 -0.34404854589E+03  0.44226475905E+03  0.12500000000E+03 0.  0.
         21    1    1    2  503  502  0.59201036883E+02 -0.17216286429E+02 -0.20585026413E+03  0.21488484016E+03  0.00000000000E+00 0.  1.
          2    1    1    2  501    0  0.75963087028E+02 -0.19095281497E+03 -0.13559896745E+04  0.13714741578E+04  0.00000000000E+00 0. -1.
<mgrwt>
<rscale>  4 0.26876336E+03</rscale>
<asrwt>0</asrwt>
<pdfrwt beam="1">  1       21 0.94411741E-02 0.26876336E+03</pdfrwt>
<pdfrwt beam="2">  1        2 0.30265481E+00 0.26876336E+03</pdfrwt>
<totfact> 0.87403054E+03</totfact>
</mgrwt>
</event>
<event>
 5    0  0.1141006E+000  0.2623498E+03  0.7546771E-02  0.1105740E+00
         21   -1    0    0  501  502  0.00000000000E+00  0.00000000000E+00  0.86296533062E+02  0.86296533062E+02  0.00000000000E+00 0. -1.
          2   -1    0    0  503    0 -0.00000000000E+00 -0.00000000000E+00 -0.96084506091E+03  0.96084506091E+03  0.00000000000E+00 0. -1.
         25    1    1    2    0    0 -0.11440871167E+03 -0.20541150451E+03 -0.22724566983E+03  0.35006975583E+03  0.12500000000E+03 0.  0.
         21    1    1    2  503  502  0.22398624967E+02  0.21075022598E+01 -0.15409611533E+03  0.15572974259E+03  0.00000000000E+00 0.  1.
          2    1    1    2  501    0  0.92010086700E+02  0.20330400225E+03 -0.49320674269E+03  0.54134209556E+03  0.00000000000E+00 0. -1.
<mgrwt>
<rscale>  4 0.26234975E+03</rscale>
<asrwt>0</asrwt>
<pdfrwt beam="1">  1       21 0.13276389E-01 0.26234975E+03</pdfrwt>
<pdfrwt beam="2">  1        2 0.14782232E+00 0.26234975E+03</pdfrwt>
<totfact> 0.17006538E+04</totfact>
</mgrwt>
</event>
<event>
 5    0  0.1141006E+000  0.3315250E+03  0.7546771E-02  0.1070464E+00
         21   -1    0    0  501  502  0.00000000000E+00  0.00000000000E+00  0.21100006603E+03  0.21100006603E+03  0.00000000000E+00 0. -1.
          2   -1    0    0  503    0 -0.00000000000E+00 -0.00000000000E+00 -0.54550559411E+03  0.54550559411E+03  0.00000000000E+00 0. -1.
         25    1    1    2    0    0  0.17234673379E+03  0.25412676575E+03 -0.60627169042E+02  0.33702294187E+03  0.12500000000E+03 0.  0.
         21    1    1    2  503  502 -0.33328343605E+02 -0.81136491369E+01 -0.39849247673E+02  0.52579200544E+02  0.00000000000E+00 0. -1.
          2    1    1    2  501    0 -0.13901839018E+03 -0.24601311661E+03 -0.23402911137E+03  0.36690351773E+03  0.00000000000E+00 0. -1.
<mgrwt>
<rscale>  4 0.33152498E+03</rscale>
<asrwt>0</asrwt>
<pdfrwt beam="1">  1       21 0.32461549E-01 0.33152498E+03</pdfrwt>
<pdfrwt beam="2">  1        2 0.83923936E-01 0.33152498E+03</pdfrwt>
<totfact> 0.62407283E+03</totfact>
</mgrwt>
</event>
<event>
 5    0  0.1141006E+000  0.2895753E+03  0.7546771E-02  0.1090571E+00
         21   -1    0    0  501  502  0.00000000000E+00  0.00000000000E+00  0.14110397671E+03  0.14110397671E+03  0.00000000000E+00 0.  1.
          1   -1    0    0  503    0 -0.00000000000E+00 -0.00000000000E+00 -0.13268662720E+04  0.13268662720E+04  0.00000000000E+00 0.  1.
         25    1    1    2    0    0  0.24229325424E+03  0.14759036233E+03 -0.98232252177E+02  0.32521302476E+03  0.12500000000E+03 0.  0.
         21    1    1    2  503  502 -0.60837233629E+02 -0.34058652953E+02 -0.66943538309E+03  0.67305638172E+03  0.00000000000E+00 0.  1.
          1    1    1    2  501    0 -0.18145602061E+03 -0.11353170938E+03 -0.41809466002E+03  0.46970084223E+03  0.00000000000E+00 0.  1.
<mgrwt>
<rscale>  4 0.28957533E+03</rscale>
<asrwt>0</asrwt>
<pdfrwt beam="1">  1       21 0.21708304E-01 0.28957533E+03</pdfrwt>
<pdfrwt beam="2">  1        1 0.20413328E+00 0.28957533E+03</pdfrwt>
<totfact> 0.20106879E+03</totfact>
</mgrwt>
</event>
<event>
 5    0  0.1141006E+000  0.2486955E+03  0.7546771E-02  0.1114132E+00
          2   -1    0    0  503    0 -0.00000000000E+00  0.00000000000E+00  0.25141699710E+04  0.25141699710E+04  0.00000000000E+00 0. -1.
         21   -1    0    0  501  502  0.00000000000E+00 -0.00000000000E+00 -0.37118748459E+02  0.37118748459E+02  0.00000000000E+00 0. -1.
         25    1    1    2    0    0  0.19399658788E+03 -0.10561432821E+03  0.62855501829E+03  0.67786095437E+03  0.12500000000E+03 0.  0.
         21    1    1    2  503  502 -0.45410933802E+02 -0.45123925113E+02  0.86742748144E+03  0.86978661584E+03  0.00000000000E+00 0. -1.
          2    1    1    2  501    0 -0.14858565408E+03  0.15073825332E+03  0.98106872286E+03  0.10036411493E+04  0.00000000000E+00 0. -1.
<mgrwt>
<rscale>  4 0.24869545E+03</rscale>
<asrwt>0</asrwt>
<pdfrwt beam="1">  1       21 0.57105787E-02 0.24869545E+03</pdfrwt>
<pdfrwt beam="2">  1        2 0.38679525E+00 0.24869545E+03</pdfrwt>
<totfact> 0.10794748E+04</totfact>
</mgrwt>
</event>
<event>
 5    0  0.1141006E+000  0.3629975E+03  0.7546771E-02  0.1057403E+00
          2   -1    0    0  503    0 -0.00000000000E+00  0.00000000000E+00  0.11635846533E+04  0.11635846533E+04  0.00000000000E+00 0.  1.
         21   -1    0    0  501  502  0.00000000000E+00 -0.00000000000E+00 -0.26285859886E+03  0.26285859886E+03  0.00000000000E+00 0.  1.
         25    1    1    2    0    0  0.32271587462E+03 -0.99871597198E+02  0.26951285541E+03  0.44986892635E+03  0.12500000000E+03 0.  0.
         21    1    1    2  503  502 -0.42224064168E+01 -0.26169000577E+02  0.63348606049E+03  0.63404040418E+03  0.00000000000E+00 0.  1.
          2    1    1    2  501    0 -0.31849346820E+03  0.12604059777E+03 -0.22728614555E+01  0.34253392164E+03  0.00000000000E+00 0.  1.
<mgrwt>
<rscale>  4 0.36299748E+03</rscale>
<asrwt>0</asrwt>
<pdfrwt beam="1">  1       21 0.40439785E-01 0.36299748E+03</pdfrwt>
<pdfrwt beam="2">  1        2 0.17901302E+00 0.36299748E+03</pdfrwt>
<totfact> 0.14710566E+03</totfact>
</mgrwt>
</event>
<event>
 5    0  0.1141006E+000  0.4785326E+03  0.7546771E-02  0.1019539E+00
          2   -1    0    0  503    0 -0.00000000000E+00  0.00000000000E+00  0.67715031502E+03  0.67715031502E+03  0.00000000000E+00 0.  1.
         21   -1    0    0  501  502  0.00000000000E+00 -0.00000000000E+00 -0.14385348395E+04  0.14385348395E+04  0.00000000000E+00 0.  1.
         25    1    1    2    0    0  0.15891298936E+03 -0.44084940881E+03 -0.10999009003E+04  0.12020850760E+04  0.12500000000E+03 0.  0.
         21    1    1    2  503  502 -0.77288323633E+01  0.27813277537E+02  0.45713854092E+03  0.45804907909E+03  0.00000000000E+00 0.  1.
          2    1    1    2  501    0 -0.15118415700E+03  0.41303613127E+03 -0.11862216515E+03  0.45555099948E+03  0.00000000000E+00 0.  1.
<mgrwt>
<rscale>  4 0.47853256E+03</rscale>
<asrwt>0</asrwt>
<pdfrwt beam="1">  1       21 0.22131305E+00 0.47853256E+03</pdfrwt>
<pdfrwt beam="2">  1        2 0.10417697E+00 0.47853256E+03</pdfrwt>
<totfact> 0.44819329E+01</totfact>
</mgrwt>
</event>
<event>
 5    0  0.1141006E+000  0.2758383E+03  0.7546771E-02  0.1097984E+00
          2   -1    0    0  503    0 -0.00000000000E+00  0.00000000000E+00  0.12184350626E+04  0.12184350626E+04  0.00000000000E+00 0. -1.
         21   -1    0    0  501  502  0.00000000000E+00 -0.00000000000E+00 -0.12741718694E+03  0.12741718694E+03  0.00000000000E+00 0. -1.
         25    1    1    2    0    0  0.13017917689E+03  0.20995312834E+03  0.36496162158E+03  0.45809269741E+03  0.12500000000E+03 0.  0.
         21    1    1    2  503  502  0.16011359789E+02 -0.12563394655E+02  0.61979577228E+03  0.62012982662E+03  0.00000000000E+00 0. -1.
          2    1    1    2  501    0 -0.14619053668E+03 -0.19738973369E+03  0.10626048180E+03  0.26762972550E+03  0.00000000000E+00 0. -1.
<mgrwt>
<rscale>  4 0.27583826E+03</rscale>
<asrwt>0</asrwt>
<pdfrwt beam="1">  1       21 0.19602645E-01 0.27583826E+03</pdfrwt>
<pdfrwt beam="2">  1        2 0.18745154E+00 0.27583826E+03</pdfrwt>
<totfact> 0.58056988E+03</totfact>
</mgrwt>
</event>
<event>
 5    0  0.1141006E+000  0.3145919E+03  0.7546771E-02  0.1078166E+00
         21   -1    0    0  501  502  0.00000000000E+00  0.00000000000E+00  0.60184996778E+02  0.60184996778E+02  0.00000000000E+00 0. -1.
          2   -1    0    0  503    0 -0.00000000000E+00 -0.00000000000E+00 -0.22022493216E+04  0.22022493216E+04  0.00000000000E+00 0. -1.
         25    1    1    2    0    0 -0.24266456175E+03 -0.16035460107E+03 -0.55421317288E+03  0.63826086251E+03  0.12500000000E+03 0.  0.
         21    1    1    2  503  502  0.34418244172E+02 -0.36362160906E+02 -0.15230690964E+03  0.16032534735E+03  0.00000000000E+00 0.  1.
          2    1    1    2  501    0  0.20824631758E+03  0.19671676198E+03 -0.14355442423E+04  0.14638481086E+04  0.00000000000E+00 0. -1.
<mgrwt>
<rscale>  4 0.31459192E+03</rscale>
<asrwt>0</asrwt>
<pdfrwt beam="1">  1       21 0.92592302E-02 0.31459192E+03</pdfrwt>
<pdfrwt beam="2">  1        2 0.33880759E+00 0.31459192E+03</pdfrwt>
<totfact> 0.66927725E+03</totfact>
</mgrwt>
</event>
<event>
 5    0  0.1141006E+000  0.3036140E+03  0.7546771E-02  0.1083448E+00
          1   -1    0    0  503    0 -0.00000000000E+00  0.00000000000E+00  0.17034657590E+04  0.17034657590E+04  0.00000000000E+00 0.  1.
         21   -1    0    0  501  502  0.00000000000E+00 -0.00000000000E+00 -0.16931486821E+03  0.16931486821E+03  0.00000000000E+00 0. -1.
         25    1    1    2    0    0 -0.23285149135E+03 -0.17418629431E+03  0.10557575593E+02  0.31669724431E+03  0.12500000000E+03 0.  0.
         21    1    1    2  503  502  0.46231049022E+01  0.19774579749E+02  0.24256121219E+02  0.31634894022E+02  0.00000000000E+00 0.  1.
          1    1    1    2  501    0  0.22822838645E+03  0.15441171456E+03  0.14993371939E+04  0.15244484888E+04  0.00000000000E+00 0.  1.
<mgrwt>
<rscale>  4 0.30361400E+03</rscale>
<asrwt>0</asrwt>
<pdfrwt beam="1">  1       21 0.26048442E-01 0.30361400E+03</pdfrwt>
<pdfrwt beam="2">  1        1 0.26207164E+00 0.30361400E+03</pdfrwt>
<totfact> 0.79097262E+02</totfact>
</mgrwt>
</event>
<event>
 5    0  0.1141006E+000  0.2968528E+03  0.7546771E-02  0.1086825E+00
         21   -1    0    0  501  502  0.00000000000E+00  0.00000000000E+00  0.81362235627E+02  0.81362235627E+02  0.00000000000E+00 0. -1.
          1   -1    0    0  503    0 -0.00000000000E+00 -0.00000000000E+00 -0.13283091910E+04  0.13283091910E+04  0.00000000000E+00 0.  1.
         25    1    1    2    0    0 -0.22300359875E+03  0.69790715890E+02 -0.38635169567E+03  0.46850184826E+03  0.12500000000E+03 0.  0.
         21    1    1    2  503  502 -0.50568936107E+02  0.29641280786E+02 -0.41305622205E+02  0.71707581548E+02  0.00000000000E+00 0.  1.
          1    1    1    2  501    0  0.27357253486E+03 -0.99431996676E+02 -0.81928963753E+03  0.86946199684E+03  0.00000000000E+00 0.  1.
<mgrwt>
<rscale>  4 0.29685279E+03</rscale>
<asrwt>0</asrwt>
<pdfrwt beam="1">  1       21 0.12517267E-01 0.29685279E+03</pdfrwt>
<pdfrwt beam="2">  1        1 0.20435526E+00 0.29685279E+03</pdfrwt>
<totfact> 0.55557813E+03</totfact>
</mgrwt>
</event>
<event>
 5    0  0.1141006E+000  0.2583170E+03  0.7546771E-02  0.1108159E+00
         21   -1    0    0  503  502  0.00000000000E+00  0.00000000000E+00  0.32826421704E+03  0.32826421704E+03  0.00000000000E+00 0. -1.
         -4   -1    0    0    0  501 -0.00000000000E+00 -0.00000000000E+00 -0.41135481297E+03  0.41135481297E+03  0.00000000000E+00 0.  1.
         25    1    1    2    0    0 -0.22059636575E+03 -0.22259725170E+02  0.20367846171E+03  0.32598798706E+03  0.12500000000E+03 0.  0.
         21    1    1    2  503  501 -0.20440463082E+02 -0.43603556904E+02 -0.43477963474E+02  0.64880012435E+02  0.00000000000E+00 0.  1.
         -4    1    1    2    0  502  0.24103682883E+03  0.65863282074E+02 -0.24329109416E+03  0.34875103051E+03  0.00000000000E+00 0.  1.
<mgrwt>
<rscale>  4 0.25831701E+03</rscale>
<asrwt>0</asrwt>
<pdfrwt beam="1">  1       21 0.50502187E-01 0.25831701E+03</pdfrwt>
<pdfrwt beam="2">  1       -4 0.63285356E-01 0.25831701E+03</pdfrwt>
<totfact> 0.36923232E+02</totfact>
</mgrwt>
</event>
<event>
 5    0  0.1141006E+000  0.2596897E+03  0.7546771E-02  0.1107330E+00
         21   -1    0    0  501  502  0.00000000000E+00  0.00000000000E+00  0.10558393049E+03  0.10558393049E+03  0.00000000000E+00 0. -1.
          1   -1    0    0  503    0 -0.00000000000E+00 -0.00000000000E+00 -0.21575761416E+04  0.21575761416E+04  0.00000000000E+00 0. -1.
         25    1    1    2    0    0 -0.13012924002E+03 -0.20087408848E+03 -0.10559166067E+03  0.28992864179E+03  0.12500000000E+03 0.  0.
         21    1    1    2  503  502  0.10585168716E+03  0.15455803439E+03 -0.66822507102E+03  0.69398667942E+03  0.00000000000E+00 0. -1.
          1    1    1    2  501    0  0.24277552853E+02  0.46316054083E+02 -0.12781754794E+04  0.12792447509E+04  0.00000000000E+00 0. -1.
<mgrwt>
<rscale>  4 0.25968968E+03</rscale>
<asrwt>0</asrwt>
<pdfrwt beam="1">  1       21 0.16243681E-01 0.25968968E+03</pdfrwt>
<pdfrwt beam="2">  1        1 0.33193480E+00 0.25968968E+03</pdfrwt>
<totfact> 0.99720856E+02</totfact>
</mgrwt>
</event>
<event>
 5    0  0.1141006E+000  0.2832676E+03  0.7546771E-02  0.1093918E+00
          1   -1    0    0  503    0 -0.00000000000E+00  0.00000000000E+00  0.89301440317E+03  0.89301440317E+03  0.00000000000E+00 0. -1.
         21   -1    0    0  501  502  0.00000000000E+00 -0.00000000000E+00 -0.80931988732E+03  0.80931988732E+03  0.00000000000E+00 0. -1.
         25    1    1    2    0    0  0.23754957586E+03  0.96184087361E+02 -0.75503819693E+03  0.80708664868E+03  0.12500000000E+03 0.  0.
         21    1    1    2  503  502 -0.39845893547E+02 -0.12579708019E+01  0.42603803010E+03  0.42789914795E+03  0.00000000000E+00 0. -1.
          1    1    1    2  501    0 -0.19770368231E+03 -0.94926116559E+02  0.41269468269E+03  0.46734849387E+03  0.00000000000E+00 0. -1.
<mgrwt>
<rscale>  4 0.28326758E+03</rscale>
<asrwt>0</asrwt>
<pdfrwt beam="1">  1       21 0.12451075E+00 0.28326758E+03</pdfrwt>
<pdfrwt beam="2">  1        1 0.13738683E+00 0.28326758E+03</pdfrwt>
<totfact> 0.97628703E+01</totfact>
</mgrwt>
</event>
<event>
 5    0  0.1141006E+000  0.2883828E+03  0.7546771E-02  0.1091197E+00
         21   -1    0    0  501  502  0.00000000000E+00  0.00000000000E+00  0.50929923318E+02  0.50929923318E+02  0.00000000000E+00 0.  1.
          2   -1    0    0  503    0 -0.00000000000E+00 -0.00000000000E+00 -0.16525757018E+04  0.16525757018E+04  0.00000000000E+00 0.  1.
         25    1    1    2    0    0 -0.10818492646E+03  0.23629569013E+03 -0.56902950238E+03  0.63793354362E+03  0.12500000000E+03 0.  0.
         21    1    1    2  503  502  0.16812585448E+02 -0.16823924928E+02 -0.66139603803E+02  0.70286233863E+02  0.00000000000E+00 0.  1.
          2    1    1    2  501    0  0.91372341012E+02 -0.21947176520E+03 -0.96647667229E+03  0.99528584763E+03  0.00000000000E+00 0.  1.
<mgrwt>
<rscale>  4 0.28838279E+03</rscale>
<asrwt>0</asrwt>
<pdfrwt beam="1">  1       21 0.78353723E-02 0.28838279E+03</pdfrwt>
<pdfrwt beam="2">  1        2 0.25424243E+00 0.28838279E+03</pdfrwt>
<totfact> 0.17688408E+04</totfact>
</mgrwt>
</event>
<event>
 5    0  0.1141006E+000  0.3770630E+03  0.7546771E-02  0.1067746E+00
         -1   -1    0    0    0  501 -0.00000000000E+00  0.00000000000E+00  0.14494078557E+04  0.14494078557E+04  0.00000000000E+00 0. -1.
         21   -1    0    0  503  502  0.00000000000E+00 -0.00000000000E+00 -0.44807352030E+03  0.44807352030E+03  0.00000000000E+00 0.  1.
         25    1    1    2    0    0 -0.18816814157E+02  0.20732286883E+03 -0.26935428105E+03  0.36264800172E+03  0.12500000000E+03 0.  0.
         21    1    1    2  503  501 -0.27626025776E+03  0.93095988354E+02  0.13055874391E+03  0.31942476216E+03  0.00000000000E+00 0.  1.
         -1    1    1    2    0  502  0.29507707192E+03 -0.30041885718E+03  0.11401298725E+04  0.12154086121E+04  0.00000000000E+00 0. -1.
<mgrwt>
<rscale>  4 0.33777833E+03</rscale>
<asrwt>0</asrwt>
<pdfrwt beam="1">  1       21 0.68934388E-01 0.37706296E+03</pdfrwt>
<pdfrwt beam="2">  1       -1 0.22298582E+00 0.37706296E+03</pdfrwt>
<totfact> 0.19272569E+01</totfact>
</mgrwt>
</event>
<event>
 5    0  0.1141006E+000  0.2920112E+03  0.7546771E-02  0.1089304E+00
          2   -1    0    0  503    0 -0.00000000000E+00  0.00000000000E+00  0.14308486431E+04  0.14308486431E+04  0.00000000000E+00 0. -1.
         21   -1    0    0  501  502  0.00000000000E+00 -0.00000000000E+00 -0.13195856350E+03  0.13195856350E+03  0.00000000000E+00 0. -1.
         25    1    1    2    0    0  0.19692096039E+03 -0.18640722882E+03  0.85344629972E+02  0.31053860543E+03  0.12500000000E+03 0.  0.
         21    1    1    2  503  502 -0.64860653305E+02 -0.10996512238E+02  0.37546799054E+03  0.38118766972E+03  0.00000000000E+00 0. -1.
          2    1    1    2  501    0 -0.13206030709E+03  0.19740374106E+03  0.83807745907E+03  0.87108093142E+03  0.00000000000E+00 0. -1.
<mgrwt>
<rscale>  4 0.29201115E+03</rscale>
<asrwt>0</asrwt>
<pdfrwt beam="1">  1       21 0.20301318E-01 0.29201115E+03</pdfrwt>
<pdfrwt beam="2">  1        2 0.22013055E+00 0.29201115E+03</pdfrwt>
<totfact> 0.41244684E+03</totfact>
</mgrwt>
</event>
<event>
 5    0  0.1141006E+000  0.2432690E+03  0.7546771E-02  0.1117634E+00
         -3   -1    0    0    0  501 -0.00000000000E+00  0.00000000000E+00  0.44031603718E+03  0.44031603718E+03  0.00000000000E+00 0.  1.
         21   -1    0    0  503  502  0.00000000000E+00 -0.00000000000E+00 -0.42304278005E+03  0.42304278005E+03  0.00000000000E+00 0. -1.
         25    1    1    2    0    0 -0.20586828321E+03 -0.23091949399E+02 -0.33248656480E+03  0.41120226645E+03  0.12500000000E+03 0.  0.
         21    1    1    2  503  501 -0.11183322711E+02 -0.41693701386E+02  0.10835109216E+02  0.44506527992E+02  0.00000000000E+00 0.  1.
         -3    1    1    2    0  502  0.21705160593E+03  0.64785650785E+02  0.33892471272E+03  0.40765002278E+03  0.00000000000E+00 0.  1.
<mgrwt>
<rscale>  4 0.24326895E+03</rscale>
<asrwt>0</asrwt>
<pdfrwt beam="1">  1       21 0.65083504E-01 0.24326895E+03</pdfrwt>
<pdfrwt beam="2">  1       -3 0.67740929E-01 0.24326895E+03</pdfrwt>
<totfact> 0.22597402E+02</totfact>
</mgrwt>
</event>
<event>
 5    0  0.1141006E+000  0.2414784E+03  0.7546771E-02  0.1118812E+00
          2   -1    0    0  503    0 -0.00000000000E+00  0.00000000000E+00  0.19308039263E+04  0.19308039263E+04  0.00000000000E+00 0. -1.
         21   -1    0    0  501  502  0.00000000000E+00 -0.00000000000E+00 -0.71320559306E+02  0.71320559306E+02  0.00000000000E+00 0.  1.
         25    1    1    2    0    0  0.16111003669E+03  0.12934601034E+03  0.16150434206E+03  0.29050901332E+03  0.12500000000E+03 0.  0.
         21    1    1    2  503  502 -0.24254245229E+02 -0.60445527282E+00  0.11548771493E+03  0.11800866950E+03  0.00000000000E+00 0. -1.
          2    1    1    2  501    0 -0.13685579146E+03 -0.12874155507E+03  0.15824913100E+04  0.15936068028E+04  0.00000000000E+00 0. -1.
<mgrwt>
<rscale>  4 0.24147843E+03</rscale>
<asrwt>0</asrwt>
<pdfrwt beam="1">  1       21 0.10972395E-01 0.24147843E+03</pdfrwt>
<pdfrwt beam="2">  1        2 0.29704672E+00 0.24147843E+03</pdfrwt>
<totfact> 0.70574031E+03</totfact>
</mgrwt>
</event>
<event>
 5    0  0.1141006E+000  0.3295523E+03  0.7546771E-02  0.1071335E+00
         21   -1    0    0  501  502  0.00000000000E+00  0.00000000000E+00  0.24747653444E+03  0.24747653444E+03  0.00000000000E+00 0.  1.
          2   -1    0    0  503    0 -0.00000000000E+00 -0.00000000000E+00 -0.91343945040E+03  0.91343945040E+03  0.00000000000E+00 0.  1.
         25    1    1    2    0    0  0.19827874468E+03  0.23165761546E+03  0.92946571805E+02  0.34240878582E+03  0.12500000000E+03 0.  0.
         21    1    1    2  503  502 -0.87735505721E+01 -0.19132475125E+02 -0.38730554588E+02  0.44080411213E+02  0.00000000000E+00 0. -1.
          2    1    1    2  501    0 -0.18950519411E+03 -0.21252514034E+03 -0.72017893319E+03  0.77442678781E+03  0.00000000000E+00 0.  1.
<mgrwt>
<rscale>  4 0.32955229E+03</rscale>
<asrwt>0</asrwt>
<pdfrwt beam="1">  1       21 0.38073313E-01 0.32955229E+03</pdfrwt>
<pdfrwt beam="2">  1        2 0.14052915E+00 0.32955229E+03</pdfrwt>
<totfact> 0.23902311E+03</totfact>
</mgrwt>
</event>
<event>
 5    0  0.1141006E+000  0.4363178E+03  0.7546771E-02  0.1031883E+00
          2   -1    0    0  503    0 -0.00000000000E+00  0.00000000000E+00  0.10126037135E+04  0.10126037135E+04  0.00000000000E+00 0.  1.
         21   -1    0    0  501  502  0.00000000000E+00 -0.00000000000E+00 -0.46869507631E+03  0.46869507631E+03  0.00000000000E+00 0.  1.
         25    1    1    2    0    0  0.31497500128E+03 -0.22056654404E+03  0.21341755935E+03  0.45719897902E+03  0.12500000000E+03 0.  0.
         21    1    1    2  503  502  0.86274303111E+01 -0.66099111472E+02  0.53971659571E+03  0.54381755100E+03  0.00000000000E+00 0.  1.
          2    1    1    2  501    0 -0.32360243159E+03  0.28666565551E+03 -0.20922551784E+03  0.48028225982E+03  0.00000000000E+00 0.  1.
<mgrwt>
<rscale>  4 0.43631783E+03</rscale>
<asrwt>0</asrwt>
<pdfrwt beam="1">  1       21 0.72106935E-01 0.43631783E+03</pdfrwt>
<pdfrwt beam="2">  1        2 0.15578519E+00 0.43631783E+03</pdfrwt>
<totfact> 0.51130187E+02</totfact>
</mgrwt>
</event>
<event>
 5    0  0.1141006E+000  0.2704284E+03  0.7546771E-02  0.1101035E+00
         21   -1    0    0  501  502  0.00000000000E+00  0.00000000000E+00  0.48779125610E+03  0.48779125610E+03  0.00000000000E+00 0. -1.
          2   -1    0    0  503    0 -0.00000000000E+00 -0.00000000000E+00 -0.46273880509E+03  0.46273880509E+03  0.00000000000E+00 0. -1.
         25    1    1    2    0    0 -0.23133428296E+03 -0.90100098435E+02  0.21077498042E+03  0.34883329913E+03  0.12500000000E+03 0.  0.
         21    1    1    2  503  502  0.73628308157E+01  0.28000970742E+02 -0.32794080189E+03  0.32921639568E+03  0.00000000000E+00 0. -1.
          2    1    1    2  501    0  0.22397145215E+03  0.62099127692E+02  0.14221827248E+03  0.27248036638E+03  0.00000000000E+00 0. -1.
<mgrwt>
<rscale>  4 0.27042844E+03</rscale>
<asrwt>0</asrwt>
<pdfrwt beam="1">  1       21 0.75044809E-01 0.27042844E+03</pdfrwt>
<pdfrwt beam="2">  1        2 0.71190585E-01 0.27042844E+03</pdfrwt>
<totfact> 0.13036928E+03</totfact>
</mgrwt>
</event>
<event>
 5    0  0.1141006E+000  0.4301444E+03  0.7546771E-02  0.1033814E+00
          2   -1    0    0  503    0 -0.00000000000E+00  0.00000000000E+00  0.21516849351E+04  0.21516849351E+04  0.00000000000E+00 0.  1.
         21   -1    0    0  501  502  0.00000000000E+00 -0.00000000000E+00 -0.15729505044E+03  0.15729505044E+03  0.00000000000E+00 0. -1.
         25    1    1    2    0    0  0.34860066517E+03 -0.21313576037E+03  0.22929151360E+03  0.48492151356E+03  0.12500000000E+03 0.  0.
         21    1    1    2  503  502  0.24917869380E+02  0.71839810113E+01  0.45710569462E+02  0.52554409503E+02  0.00000000000E+00 0.  1.
          2    1    1    2  501    0 -0.37351853455E+03  0.20595177936E+03  0.17193878016E+04  0.17715040624E+04  0.00000000000E+00 0.  1.
<mgrwt>
<rscale>  4 0.43014442E+03</rscale>
<asrwt>0</asrwt>
<pdfrwt beam="1">  1       21 0.24199240E-01 0.43014442E+03</pdfrwt>
<pdfrwt beam="2">  1        2 0.33102843E+00 0.43014442E+03</pdfrwt>
<totfact> 0.11617466E+03</totfact>
</mgrwt>
</event>
<event>
 5    0  0.1141006E+000  0.2852272E+03  0.7546771E-02  0.1092868E+00
         21   -1    0    0  503  502  0.00000000000E+00  0.00000000000E+00  0.69948115122E+03  0.69948115122E+03  0.00000000000E+00 0.  1.
         -4   -1    0    0    0  501 -0.00000000000E+00 -0.00000000000E+00 -0.11523938181E+03  0.11523938181E+03  0.00000000000E+00 0. -1.
         25    1    1    2    0    0  0.20063130535E+03  0.15682927748E+03  0.31195656160E+03  0.42165179862E+03  0.12500000000E+03 0.  0.
         21    1    1    2  503  501 -0.10470706450E+02  0.18167952180E+02  0.55837144539E+01  0.21699955002E+02  0.00000000000E+00 0.  1.
         -4    1    1    2    0  502 -0.19016059889E+03 -0.17499722966E+03  0.26670149336E+03  0.37136877941E+03  0.00000000000E+00 0. -1.
<mgrwt>
<rscale>  4 0.28522721E+03</rscale>
<asrwt>0</asrwt>
<pdfrwt beam="1">  1       21 0.10761248E+00 0.28522721E+03</pdfrwt>
<pdfrwt beam="2">  1       -4 0.17729136E-01 0.28522721E+03</pdfrwt>
<totfact> 0.80466344E+02</totfact>
</mgrwt>
</event>
<event>
 5    0  0.1141006E+000  0.3888595E+03  0.7546771E-02  0.1047707E+00
          2   -1    0    0  503    0 -0.00000000000E+00  0.00000000000E+00  0.94143935486E+03  0.94143935486E+03  0.00000000000E+00 0. -1.
         21   -1    0    0  501  502  0.00000000000E+00 -0.00000000000E+00 -0.24885349603E+03  0.24885349603E+03  0.00000000000E+00 0. -1.
         25    1    1    2    0    0 -0.26941462278E+03 -0.23729380660E+03  0.23561064937E+02  0.38088412070E+03  0.12500000000E+03 0.  0.
         21    1    1    2  503  502 -0.91484739280E+01 -0.50115599969E+02  0.44557776343E+02  0.67680598166E+02  0.00000000000E+00 0. -1.
          2    1    1    2  501    0  0.27856309671E+03  0.28740940657E+03  0.62446701755E+03  0.74172813203E+03  0.00000000000E+00 0. -1.
<mgrwt>
<rscale>  4 0.38885950E+03</rscale>
<asrwt>0</asrwt>
<pdfrwt beam="1">  1       21 0.38285154E-01 0.38885950E+03</pdfrwt>
<pdfrwt beam="2">  1        2 0.14483682E+00 0.38885950E+03</pdfrwt>
<totfact> 0.22320471E+03</totfact>
</mgrwt>
</event>
<event>
 5    0  0.1141006E+000  0.2715556E+03  0.7546771E-02  0.1100393E+00
          2   -1    0    0  503    0 -0.00000000000E+00  0.00000000000E+00  0.55874162663E+03  0.55874162663E+03  0.00000000000E+00 0.  1.
         21   -1    0    0  501  502  0.00000000000E+00 -0.00000000000E+00 -0.47435662276E+03  0.47435662276E+03  0.00000000000E+00 0.  1.
         25    1    1    2    0    0  0.11710060920E+03  0.20731613980E+03 -0.38403178126E+03  0.46882613357E+03  0.12500000000E+03 0.  0.
         21    1    1    2  503  502  0.37463530927E+02  0.16985336715E+02  0.78571762213E+02  0.88687877583E+02  0.00000000000E+00 0.  1.
          2    1    1    2  501    0 -0.15456414013E+03 -0.22430147651E+03  0.38984502291E+03  0.47558423825E+03  0.00000000000E+00 0.  1.
<mgrwt>
<rscale>  4 0.27155557E+03</rscale>
<asrwt>0</asrwt>
<pdfrwt beam="1">  1       21 0.72977942E-01 0.27155557E+03</pdfrwt>
<pdfrwt beam="2">  1        2 0.85960250E-01 0.27155557E+03</pdfrwt>
<totfact> 0.11214651E+03</totfact>
</mgrwt>
</event>
<event>
 5    0  0.1141006E+000  0.3824195E+03  0.7546771E-02  0.1050043E+00
         21   -1    0    0  501  502  0.00000000000E+00  0.00000000000E+00  0.92243641970E+03  0.92243641970E+03  0.00000000000E+00 0.  1.
          2   -1    0    0  503    0 -0.00000000000E+00 -0.00000000000E+00 -0.43811344955E+03  0.43811344955E+03  0.00000000000E+00 0. -1.
         25    1    1    2    0    0 -0.16328140254E+03  0.31132798006E+03  0.68449606165E+03  0.77958051925E+03  0.12500000000E+03 0.  0.
         21    1    1    2  503  502  0.38818313958E+02  0.10423954377E+03 -0.32458199275E+02  0.11587182006E+03  0.00000000000E+00 0.  1.
          2    1    1    2  501    0  0.12446308859E+03 -0.41556752382E+03 -0.16771489223E+03  0.46509752993E+03  0.00000000000E+00 0. -1.
<mgrwt>
<rscale>  4 0.38241946E+03</rscale>
<asrwt>0</asrwt>
<pdfrwt beam="1">  1       21 0.14191330E+00 0.38241946E+03</pdfrwt>
<pdfrwt beam="2">  1        2 0.67402069E-01 0.38241946E+03</pdfrwt>
<totfact> 0.28244158E+02</totfact>
</mgrwt>
</event>
<event>
 5    0  0.1141006E+000  0.2587554E+03  0.7546771E-02  0.1107893E+00
          2   -1    0    0  503    0 -0.00000000000E+00  0.00000000000E+00  0.72275395132E+03  0.72275395132E+03  0.00000000000E+00 0. -1.
         21   -1    0    0  501  502  0.00000000000E+00 -0.00000000000E+00 -0.12468601900E+03  0.12468601900E+03  0.00000000000E+00 0.  1.
         25    1    1    2    0    0  0.72681076707E+01 -0.22979811593E+03  0.14043788576E+03  0.29699797849E+03  0.12500000000E+03 0.  0.
         21    1    1    2  503  502  0.31919289640E+02  0.96212007125E+01  0.22609001611E+03  0.22853468870E+03  0.00000000000E+00 0. -1.
          2    1    1    2  501    0 -0.39187397311E+02  0.22017691522E+03  0.23154003045E+03  0.32190730312E+03  0.00000000000E+00 0. -1.
<mgrwt>
<rscale>  4 0.25875539E+03</rscale>
<asrwt>0</asrwt>
<pdfrwt beam="1">  1       21 0.19182465E-01 0.25875539E+03</pdfrwt>
<pdfrwt beam="2">  1        2 0.11119291E+00 0.25875539E+03</pdfrwt>
<totfact> 0.12508928E+04</totfact>
</mgrwt>
</event>
<event>
 5    0  0.1141006E+000  0.2934449E+03  0.7546771E-02  0.1088564E+00
          2   -1    0    0  503    0 -0.00000000000E+00  0.00000000000E+00  0.12103353952E+04  0.12103353952E+04  0.00000000000E+00 0.  1.
         21   -1    0    0  501  502  0.00000000000E+00 -0.00000000000E+00 -0.27249582908E+03  0.27249582908E+03  0.00000000000E+00 0.  1.
         25    1    1    2    0    0  0.14990356027E+03 -0.22006510939E+03 -0.14106646093E+03  0.32622764467E+03  0.12500000000E+03 0.  0.
         21    1    1    2  503  502 -0.10978741784E+03 -0.62527966391E+02  0.41851241378E+03  0.43716777578E+03  0.00000000000E+00 0. -1.
          2    1    1    2  501    0 -0.40116142421E+02  0.28259307578E+03  0.66039361327E+03  0.71943580382E+03  0.00000000000E+00 0.  1.
<mgrwt>
<rscale>  4 0.29344493E+03</rscale>
<asrwt>0</asrwt>
<pdfrwt beam="1">  1       21 0.41922436E-01 0.29344493E+03</pdfrwt>
<pdfrwt beam="2">  1        2 0.18620544E+00 0.29344493E+03</pdfrwt>
<totfact> 0.13148429E+03</totfact>
</mgrwt>
</event>
<event>
 5    0  0.1141006E+000  0.2441919E+03  0.7546771E-02  0.1117031E+00
         21   -1    0    0  503  502  0.00000000000E+00  0.00000000000E+00  0.44871534213E+02  0.44871534213E+02  0.00000000000E+00 0. -1.
         -1   -1    0    0    0  501 -0.00000000000E+00 -0.00000000000E+00 -0.20328983189E+04  0.20328983189E+04  0.00000000000E+00 0. -1.
         25    1    1    2    0    0 -0.17732337002E+03  0.11383937723E+03 -0.38726640484E+03  0.45826111517E+03  0.12500000000E+03 0.  0.
         21    1    1    2  503  501  0.15734225046E+02  0.20034537369E+02 -0.71172885028E+02  0.75594497740E+02  0.00000000000E+00 0.  1.
         -1    1    1    2    0  502  0.16158914497E+03 -0.13387391460E+03 -0.15295874948E+04  0.15439142402E+04  0.00000000000E+00 0. -1.
<mgrwt>
<rscale>  4 0.24419190E+03</rscale>
<asrwt>0</asrwt>
<pdfrwt beam="1">  1       21 0.69033117E-02 0.24419190E+03</pdfrwt>
<pdfrwt beam="2">  1       -1 0.31275364E+00 0.24419190E+03</pdfrwt>
<totfact> 0.46968243E+02</totfact>
</mgrwt>
</event>
<event>
 5    0  0.1141006E+000  0.3157181E+03  0.7546771E-02  0.1077637E+00
         21   -1    0    0  501  502  0.00000000000E+00  0.00000000000E+00  0.22986059628E+03  0.22986059628E+03  0.00000000000E+00 0.  1.
          2   -1    0    0  503    0 -0.00000000000E+00 -0.00000000000E+00 -0.29818937491E+04  0.29818937491E+04  0.00000000000E+00 0.  1.
         25    1    1    2    0    0 -0.21028645765E+03 -0.19958089555E+03  0.10906188571E+03  0.33402458451E+03  0.12500000000E+03 0.  0.
         21    1    1    2  503  502  0.29295118172E+02  0.37016441616E+02 -0.19816573372E+03  0.20371077271E+03  0.00000000000E+00 0.  1.
          2    1    1    2  501    0  0.18099133948E+03  0.16256445394E+03 -0.26629293048E+04  0.26740189882E+04  0.00000000000E+00 0.  1.
<mgrwt>
<rscale>  4 0.31571812E+03</rscale>
<asrwt>0</asrwt>
<pdfrwt beam="1">  1       21 0.35363170E-01 0.31571812E+03</pdfrwt>
<pdfrwt beam="2">  1        2 0.45875287E+00 0.31571812E+03</pdfrwt>
<totfact> 0.19746683E+02</totfact>
</mgrwt>
</event>
<event>
 5    0  0.1141006E+000  0.2841125E+03  0.7546771E-02  0.1093464E+00
         21   -1    0    0  501  502  0.00000000000E+00  0.00000000000E+00  0.16012409908E+03  0.16012409908E+03  0.00000000000E+00 0.  1.
          2   -1    0    0  503    0 -0.00000000000E+00 -0.00000000000E+00 -0.67594688485E+03  0.67594688485E+03  0.00000000000E+00 0.  1.
         25    1    1    2    0    0 -0.25059819887E+03 -0.47910621661E+02 -0.31703458733E+02  0.28587583710E+03  0.12500000000E+03 0.  0.
         21    1    1    2  503  502  0.29027005951E+02  0.42725405824E+01 -0.25016305475E+02  0.38556934748E+02  0.00000000000E+00 0.  1.
          2    1    1    2  501    0  0.22157119291E+03  0.43638081079E+02 -0.45910302156E+03  0.51163821207E+03  0.00000000000E+00 0.  1.
<mgrwt>
<rscale>  4 0.28411245E+03</rscale>
<asrwt>0</asrwt>
<pdfrwt beam="1">  1       21 0.24634477E-01 0.28411245E+03</pdfrwt>
<pdfrwt beam="2">  1        2 0.10399183E+00 0.28411245E+03</pdfrwt>
<totfact> 0.83987754E+03</totfact>
</mgrwt>
</event>
<event>
 5    0  0.1141006E+000  0.2541393E+03  0.7546771E-02  0.1110716E+00
         21   -1    0    0  501  502  0.00000000000E+00  0.00000000000E+00  0.64040003646E+03  0.64040003646E+03  0.00000000000E+00 0. -1.
          2   -1    0    0  503    0 -0.00000000000E+00 -0.00000000000E+00 -0.16803680926E+03  0.16803680926E+03  0.00000000000E+00 0.  1.
         25    1    1    2    0    0  0.41952235907E+01  0.22220512355E+03  0.44375802432E+03  0.51179966880E+03  0.12500000000E+03 0.  0.
         21    1    1    2  503  502 -0.65400945627E+02 -0.51866007370E+01  0.27535120496E+02  0.71150315367E+02  0.00000000000E+00 0. -1.
          2    1    1    2  501    0  0.61205722036E+02 -0.21701852281E+03  0.10700823874E+01  0.22548686155E+03  0.00000000000E+00 0.  1.
<mgrwt>
<rscale>  4 0.25413926E+03</rscale>
<asrwt>0</asrwt>
<pdfrwt beam="1">  1       21 0.98523081E-01 0.25413926E+03</pdfrwt>
<pdfrwt beam="2">  1        2 0.25851817E-01 0.25413926E+03</pdfrwt>
<totfact> 0.21137715E+03</totfact>
</mgrwt>
</event>
<event>
 5    0  0.1141006E+000  0.2835800E+03  0.7546771E-02  0.1093750E+00
         -3   -1    0    0    0  501 -0.00000000000E+00  0.00000000000E+00  0.36125277798E+03  0.36125277798E+03  0.00000000000E+00 0. -1.
         21   -1    0    0  503  502  0.00000000000E+00 -0.00000000000E+00 -0.26721608158E+03  0.26721608158E+03  0.00000000000E+00 0. -1.
         25    1    1    2    0    0 -0.34679253856E+02 -0.26400649844E+03 -0.30227879440E+02  0.29570391705E+03  0.12500000000E+03 0.  0.
         21    1    1    2  503  501 -0.28891565046E+02  0.29886297855E+02  0.74207725327E+02  0.85057038677E+02  0.00000000000E+00 0.  1.
         -3    1    1    2    0  502  0.63570818902E+02  0.23412020058E+03  0.50056850513E+02  0.24770790383E+03  0.00000000000E+00 0. -1.
<mgrwt>
<rscale>  4 0.28357996E+03</rscale>
<asrwt>0</asrwt>
<pdfrwt beam="1">  1       21 0.41110166E-01 0.28357996E+03</pdfrwt>
<pdfrwt beam="2">  1       -3 0.55577351E-01 0.28357996E+03</pdfrwt>
<totfact> 0.89766838E+02</totfact>
</mgrwt>
</event>
<event>
 5    0  0.1141006E+000  0.3869478E+03  0.7546771E-02  0.1048395E+00
         21   -1    0    0  501  502  0.00000000000E+00  0.00000000000E+00  0.14343612142E+03  0.14343612142E+03  0.00000000000E+00 0.  1.
          2   -1    0    0  503    0 -0.00000000000E+00 -0.00000000000E+00 -0.15558884809E+04  0.15558884809E+04  0.00000000000E+00 0.  1.
         25    1    1    2    0    0  0.44691446059E+01  0.36058404314E+03 -0.27097180675E+03  0.46807215841E+03  0.12500000000E+03 0.  0.
         21    1    1    2  503  502  0.14649973192E+02  0.17486207697E+02 -0.38177692284E+03  0.38245785126E+03  0.00000000000E+00 0.  1.
          2    1    1    2  501    0 -0.19119117798E+02 -0.37807025084E+03 -0.75970362985E+03  0.84879459261E+03  0.00000000000E+00 0.  1.
<mgrwt>
<rscale>  4 0.38694781E+03</rscale>
<asrwt>0</asrwt>
<pdfrwt beam="1">  1       21 0.22067096E-01 0.38694781E+03</pdfrwt>
<pdfrwt beam="2">  1        2 0.23936745E+00 0.38694781E+03</pdfrwt>
<totfact> 0.29295931E+03</totfact>
</mgrwt>
</event>
<event>
 5    0  0.1141006E+000  0.2325588E+03  0.7546771E-02  0.1124852E+00
         -1   -1    0    0    0  501 -0.00000000000E+00  0.00000000000E+00  0.37071735170E+03  0.37071735170E+03  0.00000000000E+00 0. -1.
         21   -1    0    0  503  502  0.00000000000E+00 -0.00000000000E+00 -0.31088975055E+03  0.31088975055E+03  0.00000000000E+00 0.  1.
         25    1    1    2    0    0 -0.16922015276E+03 -0.10895458334E+03 -0.13854251247E+03  0.27445507664E+03  0.12500000000E+03 0.  0.
         21    1    1    2  503  501 -0.12982106520E+02  0.46793720154E+02  0.20878353681E+03  0.21435660143E+03  0.00000000000E+00 0.  1.
         -1    1    1    2    0  502  0.18220225928E+03  0.62160863190E+02 -0.10413423178E+02  0.19279542418E+03  0.00000000000E+00 0. -1.
<mgrwt>
<rscale>  4 0.23255879E+03</rscale>
<asrwt>0</asrwt>
<pdfrwt beam="1">  1       21 0.47829192E-01 0.23255879E+03</pdfrwt>
<pdfrwt beam="2">  1       -1 0.57033439E-01 0.23255879E+03</pdfrwt>
<totfact> 0.12238695E+03</totfact>
</mgrwt>
</event>
<event>
 5    0  0.1141006E+000  0.2471824E+03  0.7546771E-02  0.1115099E+00
         21   -1    0    0  503  502  0.00000000000E+00  0.00000000000E+00  0.26829618570E+03  0.26829618570E+03  0.00000000000E+00 0. -1.
         -3   -1    0    0    0  501 -0.00000000000E+00 -0.00000000000E+00 -0.33031602903E+03  0.33031602903E+03  0.00000000000E+00 0. -1.
         25    1    1    2    0    0  0.14034040137E+03  0.16055749473E+03  0.14407072770E+03  0.28610402295E+03  0.12500000000E+03 0.  0.
         21    1    1    2  503  501  0.31347861200E+01 -0.58649798432E+02 -0.57301354892E+02  0.82055292411E+02  0.00000000000E+00 0. -1.
         -3    1    1    2    0  502 -0.14347518749E+03 -0.10190769630E+03 -0.14878921614E+03  0.23045289937E+03  0.00000000000E+00 0. -1.
<mgrwt>
<rscale>  4 0.24718240E+03</rscale>
<asrwt>0</asrwt>
<pdfrwt beam="1">  1       21 0.41276336E-01 0.24718240E+03</pdfrwt>
<pdfrwt beam="2">  1       -3 0.50817851E-01 0.24718240E+03</pdfrwt>
<totfact> 0.10730087E+03</totfact>
</mgrwt>
</event>
<event>
 5    0  0.1141006E+000  0.3146464E+03  0.7546771E-02  0.1078140E+00
         -2   -1    0    0    0  501 -0.00000000000E+00  0.00000000000E+00  0.21246498375E+04  0.21246498375E+04  0.00000000000E+00 0. -1.
         21   -1    0    0  503  502  0.00000000000E+00 -0.00000000000E+00 -0.48852072474E+02  0.48852072474E+02  0.00000000000E+00 0. -1.
         25    1    1    2    0    0 -0.13219612634E+03  0.23532370173E+03  0.10209450174E+04  0.10633939952E+04  0.12500000000E+03 0.  0.
         21    1    1    2  503  501 -0.13344723078E+02  0.32654607963E+02  0.18542432804E+03  0.18875006353E+03  0.00000000000E+00 0. -1.
         -2    1    1    2    0  502  0.14554084942E+03 -0.26797830969E+03  0.86942841965E+03  0.92135785133E+03  0.00000000000E+00 0. -1.
<mgrwt>
<rscale>  4 0.31464640E+03</rscale>
<asrwt>0</asrwt>
<pdfrwt beam="1">  1       21 0.75157051E-02 0.31464640E+03</pdfrwt>
<pdfrwt beam="2">  1       -2 0.32686913E+00 0.31464640E+03</pdfrwt>
<totfact> 0.27364192E+02</totfact>
</mgrwt>
</event>
<event>
 5    0  0.1141006E+000  0.2618004E+03  0.7546771E-02  0.1106066E+00
          1   -1    0    0  503    0 -0.00000000000E+00  0.00000000000E+00  0.21280111957E+03  0.21280111957E+03  0.00000000000E+00 0. -1.
         21   -1    0    0  501  502  0.00000000000E+00 -0.00000000000E+00 -0.60104712148E+03  0.60104712148E+03  0.00000000000E+00 0.  1.
         25    1    1    2    0    0 -0.17017306747E+03 -0.16687176944E+03 -0.36287518437E+03  0.45178364265E+03  0.12500000000E+03 0.  0.
         21    1    1    2  503  502  0.11202233670E+03 -0.58775350112E+02 -0.25476692942E+02  0.12904498279E+03  0.00000000000E+00 0. -1.
          1    1    1    2  501    0  0.58150730770E+02  0.22564711956E+03  0.10587540565E+00  0.23301961562E+03  0.00000000000E+00 0. -1.
<mgrwt>
<rscale>  4 0.26180038E+03</rscale>
<asrwt>0</asrwt>
<pdfrwt beam="1">  1       21 0.92468787E-01 0.26180038E+03</pdfrwt>
<pdfrwt beam="2">  1        1 0.32738634E-01 0.26180038E+03</pdfrwt>
<totfact> 0.14117934E+03</totfact>
</mgrwt>
</event>
<event>
 5    0  0.1141006E+000  0.2389372E+03  0.7546771E-02  0.1120503E+00
         21   -1    0    0  503  502  0.00000000000E+00  0.00000000000E+00  0.30798898021E+03  0.30798898021E+03  0.00000000000E+00 0. -1.
         -4   -1    0    0    0  501 -0.00000000000E+00 -0.00000000000E+00 -0.21689008301E+03  0.21689008301E+03  0.00000000000E+00 0.  1.
         25    1    1    2    0    0 -0.20953620252E+03  0.16854408174E+02  0.15257911636E+03  0.28826182195E+03  0.12500000000E+03 0.  0.
         21    1    1    2  503  501  0.18095080475E+02  0.88553434803E+01 -0.36711643635E+02  0.41875933708E+02  0.00000000000E+00 0.  1.
         -4    1    1    2    0  502  0.19144112204E+03 -0.25709751654E+02 -0.24768575525E+02  0.19474130757E+03  0.00000000000E+00 0.  1.
<mgrwt>
<rscale>  4 0.23893722E+03</rscale>
<asrwt>0</asrwt>
<pdfrwt beam="1">  1       21 0.47382920E-01 0.23893722E+03</pdfrwt>
<pdfrwt beam="2">  1       -4 0.33367705E-01 0.23893722E+03</pdfrwt>
<totfact> 0.15555956E+03</totfact>
</mgrwt>
</event>
<event>
 5    0  0.1141006E+000  0.4303408E+03  0.7546771E-02  0.1033752E+00
         21   -1    0    0  501  502  0.00000000000E+00  0.00000000000E+00  0.59365529281E+03  0.59365529281E+03  0.00000000000E+00 0. -1.
          1   -1    0    0  503    0 -0.00000000000E+00 -0.00000000000E+00 -0.66957917043E+03  0.66957917043E+03  0.00000000000E+00 0. -1.
         25    1    1    2    0    0 -0.37712268876E+03 -0.10126336024E+02  0.41648686049E+03  0.57568252537E+03  0.12500000000E+03 0.  0.
         21    1    1    2  503  502 -0.39998341970E+02  0.10983520852E+02  0.95070391169E+00  0.41489865372E+02  0.00000000000E+00 0.  1.
          1    1    1    2  501    0  0.41712103073E+03 -0.85718482776E+00 -0.49336144202E+03  0.64606207250E+03  0.00000000000E+00 0. -1.
<mgrwt>
<rscale>  4 0.43034078E+03</rscale>
<asrwt>0</asrwt>
<pdfrwt beam="1">  1       21 0.91331583E-01 0.43034078E+03</pdfrwt>
<pdfrwt beam="2">  1        1 0.10301218E+00 0.43034078E+03</pdfrwt>
<totfact> 0.30497574E+02</totfact>
</mgrwt>
</event>
<event>
 5    0  0.1141006E+000  0.2319791E+03  0.7546771E-02  0.1125254E+00
         21   -1    0    0  501  502  0.00000000000E+00  0.00000000000E+00  0.87121826192E+02  0.87121826192E+02  0.00000000000E+00 0. -1.
          2   -1    0    0  503    0 -0.00000000000E+00 -0.00000000000E+00 -0.10047195925E+04  0.10047195925E+04  0.00000000000E+00 0. -1.
         25    1    1    2    0    0 -0.19642030870E+03 -0.80136572682E+02 -0.37178134404E+03  0.44592507860E+03  0.12500000000E+03 0.  0.
         21    1    1    2  503  502  0.30980715238E+02 -0.10133246993E+02 -0.41551910612E+03  0.41679565132E+03  0.00000000000E+00 0. -1.
          2    1    1    2  501    0  0.16543959347E+03  0.90269819675E+02 -0.13029731618E+03  0.22912068879E+03  0.00000000000E+00 0. -1.
<mgrwt>
<rscale>  4 0.23197913E+03</rscale>
<asrwt>0</asrwt>
<pdfrwt beam="1">  1       21 0.13403357E-01 0.23197913E+03</pdfrwt>
<pdfrwt beam="2">  1        2 0.15457226E+00 0.23197913E+03</pdfrwt>
<totfact> 0.15804198E+04</totfact>
</mgrwt>
</event>
<event>
 5    0  0.1141006E+000  0.2762330E+03  0.7546771E-02  0.1097764E+00
         21   -1    0    0  503  502  0.00000000000E+00  0.00000000000E+00  0.19461553983E+03  0.19461553983E+03  0.00000000000E+00 0. -1.
         -1   -1    0    0    0  501 -0.00000000000E+00 -0.00000000000E+00 -0.47551330559E+03  0.47551330559E+03  0.00000000000E+00 0. -1.
         25    1    1    2    0    0  0.33485844129E+02 -0.22756281995E+03 -0.26481570262E+03  0.37236876230E+03  0.12500000000E+03 0.  0.
         21    1    1    2  503  501 -0.12461433740E+02 -0.24005968667E+02 -0.35429706690E+02  0.44573960769E+02  0.00000000000E+00 0. -1.
         -1    1    1    2    0  502 -0.21024410389E+02  0.25156878862E+03  0.19347643553E+02  0.25318612235E+03  0.00000000000E+00 0. -1.
<mgrwt>
<rscale>  4 0.27623303E+03</rscale>
<asrwt>0</asrwt>
<pdfrwt beam="1">  1       21 0.29940852E-01 0.27623303E+03</pdfrwt>
<pdfrwt beam="2">  1       -1 0.73155893E-01 0.27623303E+03</pdfrwt>
<totfact> 0.19100029E+03</totfact>
</mgrwt>
</event>
<event>
 5    0  0.1141006E+000  0.2757819E+03  0.7546771E-02  0.1098015E+00
         21   -1    0    0  501  502  0.00000000000E+00  0.00000000000E+00  0.10260244404E+03  0.10260244404E+03  0.00000000000E+00 0. -1.
          2   -1    0    0  503    0 -0.00000000000E+00 -0.00000000000E+00 -0.10767641071E+04  0.10767641071E+04  0.00000000000E+00 0. -1.
         25    1    1    2    0    0  0.95532817893E+02  0.21673889201E+03 -0.17706110546E+03  0.32105747409E+03  0.12500000000E+03 0.  0.
         21    1    1    2  503  502 -0.14947442970E+02  0.42229915183E+02 -0.15331732613E+03  0.15972787571E+03  0.00000000000E+00 0. -1.
          2    1    1    2  501    0 -0.80585374923E+02 -0.25896880719E+03 -0.64378323145E+03  0.69858120132E+03  0.00000000000E+00 0. -1.
<mgrwt>
<rscale>  4 0.27578194E+03</rscale>
<asrwt>0</asrwt>
<pdfrwt beam="1">  1       21 0.15784991E-01 0.27578194E+03</pdfrwt>
<pdfrwt beam="2">  1        2 0.16565602E+00 0.27578194E+03</pdfrwt>
<totfact> 0.10498975E+04</totfact>
</mgrwt>
</event>
<event>
 5    0  0.1141006E+000  0.2493437E+03  0.7546771E-02  0.1113720E+00
         21   -1    0    0  501  502  0.00000000000E+00  0.00000000000E+00  0.11080604318E+03  0.11080604318E+03  0.00000000000E+00 0. -1.
          2   -1    0    0  503    0 -0.00000000000E+00 -0.00000000000E+00 -0.16159977568E+04  0.16159977568E+04  0.00000000000E+00 0. -1.
         25    1    1    2    0    0 -0.17841910313E+03 -0.13600112982E+03 -0.68328792802E+02  0.26575083744E+03  0.12500000000E+03 0.  0.
         21    1    1    2  503  502  0.86558901279E+02 -0.15161393073E+02 -0.48040455665E+03  0.48837572552E+03  0.00000000000E+00 0. -1.
          2    1    1    2  501    0  0.91860201856E+02  0.15116252289E+03 -0.95645836420E+03  0.97267723704E+03  0.00000000000E+00 0. -1.
<mgrwt>
<rscale>  4 0.24934374E+03</rscale>
<asrwt>0</asrwt>
<pdfrwt beam="1">  1       21 0.17047084E-01 0.24934374E+03</pdfrwt>
<pdfrwt beam="2">  1        2 0.24861503E+00 0.24934374E+03</pdfrwt>
<totfact> 0.46195660E+03</totfact>
</mgrwt>
</event>
<event>
 5    0  0.1141006E+000  0.2714509E+03  0.7546771E-02  0.1100452E+00
          3   -1    0    0  503    0 -0.00000000000E+00  0.00000000000E+00  0.48171068782E+03  0.48171068782E+03  0.00000000000E+00 0. -1.
         21   -1    0    0  501  502  0.00000000000E+00 -0.00000000000E+00 -0.17083157306E+03  0.17083157306E+03  0.00000000000E+00 0.  1.
         25    1    1    2    0    0  0.15803303491E+03  0.18809191556E+03  0.12273719274E+03  0.30173237696E+03  0.12500000000E+03 0.  0.
         21    1    1    2  503  502  0.16904304478E+02 -0.25570465895E+02 -0.17835375631E+02  0.35464134839E+02  0.00000000000E+00 0. -1.
          3    1    1    2  501    0 -0.17493733939E+03 -0.16252144967E+03  0.20597729766E+03  0.31534574908E+03  0.00000000000E+00 0. -1.
<mgrwt>
<rscale>  4 0.27145094E+03</rscale>
<asrwt>0</asrwt>
<pdfrwt beam="1">  1       21 0.26281781E-01 0.27145094E+03</pdfrwt>
<pdfrwt beam="2">  1        3 0.74109336E-01 0.27145094E+03</pdfrwt>
<totfact> 0.11913364E+03</totfact>
</mgrwt>
</event>
<event>
 5    0  0.1141006E+000  0.5788818E+03  0.7546771E-02  0.9950215E-01
         21   -1    0    0  501  502  0.00000000000E+00  0.00000000000E+00  0.34383983602E+03  0.34383983602E+03  0.00000000000E+00 0.  1.
          2   -1    0    0  503    0 -0.00000000000E+00 -0.00000000000E+00 -0.99821784105E+03  0.99821784105E+03  0.00000000000E+00 0.  1.
         25    1    1    2    0    0  0.19467334859E+03 -0.53064247355E+03 -0.19580373783E+03  0.61110003366E+03  0.12500000000E+03 0.  0.
         21    1    1    2  503  502  0.49255637800E+01  0.21681583578E+02 -0.22614979405E+02  0.31714185130E+02  0.00000000000E+00 0.  1.
          2    1    1    2  501    0 -0.19959891237E+03  0.50896088997E+03 -0.43595928779E+03  0.69924345829E+03  0.00000000000E+00 0.  1.
<mgrwt>
<rscale>  4 0.57888181E+03</rscale>
<asrwt>0</asrwt>
<pdfrwt beam="1">  1       21 0.52898437E-01 0.57888181E+03</pdfrwt>
<pdfrwt beam="2">  1        2 0.15357197E+00 0.57888181E+03</pdfrwt>
<totfact> 0.10003458E+03</totfact>
</mgrwt>
</event>
<event>
 5    0  0.1141006E+000  0.2578374E+03  0.7546771E-02  0.1108450E+00
         21   -1    0    0  503  502  0.00000000000E+00  0.00000000000E+00  0.14376583317E+04  0.14376583317E+04  0.00000000000E+00 0.  1.
         -4   -1    0    0    0  501 -0.00000000000E+00 -0.00000000000E+00 -0.48598033759E+02  0.48598033759E+02  0.00000000000E+00 0. -1.
         25    1    1    2    0    0 -0.79939859569E+02 -0.22227224021E+03  0.70605798771E+03  0.75494252226E+03  0.12500000000E+03 0.  0.
         21    1    1    2  503  501 -0.13429240888E+02  0.25000309889E+02  0.24185320650E+02  0.37286589283E+02  0.00000000000E+00 0.  1.
         -4    1    1    2    0  502  0.93369100457E+02  0.19727193032E+03  0.65881698957E+03  0.69402725390E+03  0.00000000000E+00 0. -1.
<mgrwt>
<rscale>  4 0.25783738E+03</rscale>
<asrwt>0</asrwt>
<pdfrwt beam="1">  1       21 0.22117817E+00 0.25783738E+03</pdfrwt>
<pdfrwt beam="2">  1       -4 0.74766217E-02 0.25783738E+03</pdfrwt>
<totfact> 0.50405334E+02</totfact>
</mgrwt>
</event>
<event>
 5    0  0.1141006E+000  0.3688108E+03  0.7546771E-02  0.1055149E+00
         21   -1    0    0  501  502  0.00000000000E+00  0.00000000000E+00  0.18386074765E+03  0.18386074765E+03  0.00000000000E+00 0. -1.
          1   -1    0    0  503    0 -0.00000000000E+00 -0.00000000000E+00 -0.98973121084E+03  0.98973121084E+03  0.00000000000E+00 0.  1.
         25    1    1    2    0    0 -0.35599700016E+03  0.27515336969E+02 -0.15543533928E+03  0.40899401290E+03  0.12500000000E+03 0.  0.
         21    1    1    2  503  502  0.31734435172E+02  0.36389758553E+02 -0.20104378616E+03  0.20676047218E+03  0.00000000000E+00 0.  1.
          1    1    1    2  501    0  0.32426256499E+03 -0.63905095522E+02 -0.44939133775E+03  0.55783747340E+03  0.00000000000E+00 0.  1.
<mgrwt>
<rscale>  4 0.36881075E+03</rscale>
<asrwt>0</asrwt>
<pdfrwt beam="1">  1       21 0.28286269E-01 0.36881075E+03</pdfrwt>
<pdfrwt beam="2">  1        1 0.15226634E+00 0.36881075E+03</pdfrwt>
<totfact> 0.20538948E+03</totfact>
</mgrwt>
</event>
<event>
 5    0  0.1141006E+000  0.2683215E+03  0.7546771E-02  0.1102244E+00
         21   -1    0    0  501  502  0.00000000000E+00  0.00000000000E+00  0.15509365314E+03  0.15509365314E+03  0.00000000000E+00 0. -1.
          1   -1    0    0  503    0 -0.00000000000E+00 -0.00000000000E+00 -0.63005114391E+03  0.63005114391E+03  0.00000000000E+00 0. -1.
         25    1    1    2    0    0  0.16541371399E+03  0.16703129468E+03 -0.94443780748E+02  0.28249916443E+03  0.12500000000E+03 0.  0.
         21    1    1    2  503  502  0.41737756640E+02 -0.37268972139E+02 -0.17358529454E+03  0.18238111496E+03  0.00000000000E+00 0. -1.
          1    1    1    2  501    0 -0.20715147063E+03 -0.12976232254E+03 -0.20692841549E+03  0.32026451766E+03  0.00000000000E+00 0. -1.
<mgrwt>
<rscale>  4 0.26832155E+03</rscale>
<asrwt>0</asrwt>
<pdfrwt beam="1">  1       21 0.23860562E-01 0.26832155E+03</pdfrwt>
<pdfrwt beam="2">  1        1 0.96930944E-01 0.26832155E+03</pdfrwt>
<totfact> 0.59122458E+03</totfact>
</mgrwt>
</event>
<event>
 5    0  0.1141006E+000  0.3231673E+03  0.7546771E-02  0.1074201E+00
         -1   -1    0    0    0  501 -0.00000000000E+00  0.00000000000E+00  0.89108786991E+03  0.89108786991E+03  0.00000000000E+00 0. -1.
         21   -1    0    0  503  502  0.00000000000E+00 -0.00000000000E+00 -0.17221911981E+03  0.17221911981E+03  0.00000000000E+00 0. -1.
         25    1    1    2    0    0  0.28349075658E+03 -0.11832148657E+03  0.12199257456E+03  0.35337539741E+03  0.12500000000E+03 0.  0.
         21    1    1    2  503  501 -0.90344630465E+01  0.41291074032E+02  0.28215385613E+03  0.28530224824E+03  0.00000000000E+00 0. -1.
         -1    1    1    2    0  502 -0.27445629353E+03  0.77030412543E+02  0.31472231941E+03  0.42462934408E+03  0.00000000000E+00 0. -1.
<mgrwt>
<rscale>  4 0.32316734E+03</rscale>
<asrwt>0</asrwt>
<pdfrwt beam="1">  1       21 0.26495250E-01 0.32316734E+03</pdfrwt>
<pdfrwt beam="2">  1       -1 0.13709044E+00 0.32316734E+03</pdfrwt>
<totfact> 0.58230385E+02</totfact>
</mgrwt>
</event>
<event>
 5    0  0.1141006E+000  0.4527146E+03  0.7546771E-02  0.1026916E+00
          1   -1    0    0  503    0 -0.00000000000E+00  0.00000000000E+00  0.96729484122E+03  0.96729484122E+03  0.00000000000E+00 0.  1.
         21   -1    0    0  501  502  0.00000000000E+00 -0.00000000000E+00 -0.18601776808E+04  0.18601776808E+04  0.00000000000E+00 0.  1.
         25    1    1    2    0    0 -0.34032809433E+03 -0.27213935737E+03 -0.17680260308E+04  0.18252189148E+04  0.12500000000E+03 0.  0.
         21    1    1    2  503  502  0.51481882930E+01  0.27839341981E+02 -0.54870072411E+01  0.28838170072E+02  0.00000000000E+00 0. -1.
          1    1    1    2  501    0  0.33517990604E+03  0.24430001539E+03  0.88063019839E+03  0.97341543714E+03  0.00000000000E+00 0.  1.
<mgrwt>
<rscale>  4 0.45271456E+03</rscale>
<asrwt>0</asrwt>
<pdfrwt beam="1">  1       21 0.28618118E+00 0.45271456E+03</pdfrwt>
<pdfrwt beam="2">  1        1 0.14881459E+00 0.45271456E+03</pdfrwt>
<totfact> 0.61023945E+00</totfact>
</mgrwt>
</event>
<event>
 5    0  0.1141006E+000  0.2529355E+03  0.7546771E-02  0.1111464E+00
         21   -1    0    0  503  502  0.00000000000E+00  0.00000000000E+00  0.70301973304E+02  0.70301973304E+02  0.00000000000E+00 0.  1.
         -1   -1    0    0    0  501 -0.00000000000E+00 -0.00000000000E+00 -0.13906956028E+04  0.13906956028E+04  0.00000000000E+00 0.  1.
         25    1    1    2    0    0 -0.98733873180E+02 -0.20264942701E+03 -0.26811168177E+03  0.37191940240E+03  0.12500000000E+03 0.  0.
         21    1    1    2  503  501 -0.45691508911E+02  0.47853643190E+02 -0.19013397260E+03  0.20131719423E+03  0.00000000000E+00 0.  1.
         -1    1    1    2    0  502  0.14442538209E+03  0.15479578382E+03 -0.86214797513E+03  0.88776097949E+03  0.00000000000E+00 0.  1.
<mgrwt>
<rscale>  4 0.25293550E+03</rscale>
<asrwt>0</asrwt>
<pdfrwt beam="1">  1       21 0.10815689E-01 0.25293550E+03</pdfrwt>
<pdfrwt beam="2">  1       -1 0.21395315E+00 0.25293550E+03</pdfrwt>
<totfact> 0.89030441E+02</totfact>
</mgrwt>
</event>
<event>
 5    0  0.1141006E+000  0.3292936E+03  0.7546771E-02  0.1071450E+00
         21   -1    0    0  501  502  0.00000000000E+00  0.00000000000E+00  0.18081827661E+04  0.18081827661E+04  0.00000000000E+00 0.  1.
          3   -1    0    0  503    0 -0.00000000000E+00 -0.00000000000E+00 -0.11376739125E+03  0.11376739125E+03  0.00000000000E+00 0. -1.
         25    1    1    2    0    0  0.30161103827E+03  0.42895775049E+02  0.15450155985E+04  0.15797175271E+04  0.12500000000E+03 0.  0.
         21    1    1    2  503  502 -0.20035098767E+02  0.78104728241E+01  0.67561169894E+01  0.22540048472E+02  0.00000000000E+00 0.  1.
          3    1    1    2  501    0 -0.28157593950E+03 -0.50706247873E+02  0.14264365940E+03  0.31969258178E+03  0.00000000000E+00 0. -1.
<mgrwt>
<rscale>  4 0.32929359E+03</rscale>
<asrwt>0</asrwt>
<pdfrwt beam="1">  1       21 0.27818194E+00 0.32929359E+03</pdfrwt>
<pdfrwt beam="2">  1        3 0.17502677E-01 0.32929359E+03</pdfrwt>
<totfact> 0.58548624E+01</totfact>
</mgrwt>
</event>
<event>
 5    0  0.1141006E+000  0.4521830E+03  0.7546771E-02  0.1028811E+00
          2   -1    0    0  503    0 -0.00000000000E+00  0.00000000000E+00  0.10587929506E+04  0.10587929506E+04  0.00000000000E+00 0.  1.
         21   -1    0    0  501  502  0.00000000000E+00 -0.00000000000E+00 -0.44761774095E+03  0.44761774095E+03  0.00000000000E+00 0.  1.
         25    1    1    2    0    0  0.76069990278E+02  0.40366586452E+03 -0.27615358680E+03  0.51050815576E+03  0.12500000000E+03 0.  0.
         21    1    1    2  503  502 -0.11248983880E+01 -0.14577411191E+03  0.52520081593E+03  0.54505711091E+03  0.00000000000E+00 0.  1.
          2    1    1    2  501    0 -0.74945091890E+02 -0.25789175261E+03  0.36212798050E+03  0.45084542487E+03  0.00000000000E+00 0.  1.
<mgrwt>
<rscale>  4 0.44636831E+03</rscale>
<asrwt>0</asrwt>
<pdfrwt beam="1">  1       21 0.68864268E-01 0.45218300E+03</pdfrwt>
<pdfrwt beam="2">  1        2 0.16289122E+00 0.45218300E+03</pdfrwt>
<totfact> 0.52875398E+02</totfact>
</mgrwt>
</event>
<event>
 5    0  0.1141006E+000  0.4050886E+03  0.7546771E-02  0.1042032E+00
          1   -1    0    0  503    0 -0.00000000000E+00  0.00000000000E+00  0.17107843956E+04  0.17107843956E+04  0.00000000000E+00 0.  1.
         21   -1    0    0  501  502  0.00000000000E+00 -0.00000000000E+00 -0.13924579127E+03  0.13924579127E+03  0.00000000000E+00 0. -1.
         25    1    1    2    0    0  0.13484583715E+03 -0.36851267406E+03  0.31178188300E+03  0.51654422203E+03  0.12500000000E+03 0.  0.
         21    1    1    2  503  502 -0.31226288749E+02 -0.79099734526E+00  0.23488671231E+02  0.39082278107E+02  0.00000000000E+00 0.  1.
          1    1    1    2  501    0 -0.10361954840E+03  0.36930367141E+03  0.12362680501E+04  0.12944036868E+04  0.00000000000E+00 0.  1.
<mgrwt>
<rscale>  4 0.40508858E+03</rscale>
<asrwt>0</asrwt>
<pdfrwt beam="1">  1       21 0.21422431E-01 0.40508858E+03</pdfrwt>
<pdfrwt beam="2">  1        1 0.26319758E+00 0.40508858E+03</pdfrwt>
<totfact> 0.10994988E+03</totfact>
</mgrwt>
</event>
<event>
 5    0  0.1141006E+000  0.3358882E+03  0.7546771E-02  0.1068561E+00
          2   -1    0    0  503    0 -0.00000000000E+00  0.00000000000E+00  0.12911483123E+04  0.12911483123E+04  0.00000000000E+00 0. -1.
         21   -1    0    0  501  502  0.00000000000E+00 -0.00000000000E+00 -0.77392742600E+03  0.77392742600E+03  0.00000000000E+00 0. -1.
         25    1    1    2    0    0 -0.24397215580E+03  0.19409648049E+03 -0.71637224729E+03  0.79120797091E+03  0.12500000000E+03 0.  0.
         21    1    1    2  503  502  0.12333860223E+02 -0.30939313324E+02  0.99906322485E+02  0.10531210039E+03  0.00000000000E+00 0.  1.
          2    1    1    2  501    0  0.23163829558E+03 -0.16315716717E+03  0.11336868111E+04  0.11685556670E+04  0.00000000000E+00 0. -1.
<mgrwt>
<rscale>  4 0.33588816E+03</rscale>
<asrwt>0</asrwt>
<pdfrwt beam="1">  1       21 0.11906576E+00 0.33588816E+03</pdfrwt>
<pdfrwt beam="2">  1        2 0.19863820E+00 0.33588816E+03</pdfrwt>
<totfact> 0.11066822E+02</totfact>
</mgrwt>
</event>
<event>
 5    0  0.1141006E+000  0.2288186E+03  0.7546771E-02  0.1127474E+00
         21   -1    0    0  501  502  0.00000000000E+00  0.00000000000E+00  0.88940292275E+02  0.88940292275E+02  0.00000000000E+00 0.  1.
          2   -1    0    0  503    0 -0.00000000000E+00 -0.00000000000E+00 -0.14707054241E+04  0.14707054241E+04  0.00000000000E+00 0. -1.
         25    1    1    2    0    0 -0.27421881209E+02  0.19811215032E+03 -0.99265074054E+02  0.25588852768E+03  0.12500000000E+03 0.  0.
         21    1    1    2  503  502  0.54483257539E+02 -0.38583582332E+02 -0.52070862418E+03  0.52497103680E+03  0.00000000000E+00 0. -1.
          2    1    1    2  501    0 -0.27061376330E+02 -0.15952856799E+03 -0.76179143358E+03  0.77878615188E+03  0.00000000000E+00 0. -1.
<mgrwt>
<rscale>  4 0.22881861E+03</rscale>
<asrwt>0</asrwt>
<pdfrwt beam="1">  1       21 0.13683122E-01 0.22881861E+03</pdfrwt>
<pdfrwt beam="2">  1        2 0.22626237E+00 0.22881861E+03</pdfrwt>
<totfact> 0.83173389E+03</totfact>
</mgrwt>
</event>
<event>
 5    0  0.1141006E+000  0.3355265E+03  0.7546771E-02  0.1068717E+00
         21   -1    0    0  501  502  0.00000000000E+00  0.00000000000E+00  0.94297080714E+03  0.94297080714E+03  0.00000000000E+00 0. -1.
          2   -1    0    0  503    0 -0.00000000000E+00 -0.00000000000E+00 -0.12373004902E+04  0.12373004902E+04  0.00000000000E+00 0.  1.
         25    1    1    2    0    0 -0.26514805098E+03 -0.16324693087E+03  0.89064771907E+03  0.95175175800E+03  0.12500000000E+03 0.  0.
         21    1    1    2  503  502  0.32049728455E+02  0.14885450518E+02 -0.28221863709E+03  0.28442243380E+03  0.00000000000E+00 0. -1.
          2    1    1    2  501    0  0.23309832252E+03  0.14836148035E+03 -0.90275876503E+03  0.94409710552E+03  0.00000000000E+00 0.  1.
<mgrwt>
<rscale>  4 0.33552653E+03</rscale>
<asrwt>0</asrwt>
<pdfrwt beam="1">  1       21 0.14507243E+00 0.33552653E+03</pdfrwt>
<pdfrwt beam="2">  1        2 0.19035392E+00 0.33552653E+03</pdfrwt>
<totfact> 0.71248705E+01</totfact>
</mgrwt>
</event>
<event>
 5    0  0.1141006E+000  0.2608832E+03  0.7546771E-02  0.1106614E+00
         21   -1    0    0  503  502  0.00000000000E+00  0.00000000000E+00  0.31415961113E+03  0.31415961113E+03  0.00000000000E+00 0.  1.
         -2   -1    0    0    0  501 -0.00000000000E+00 -0.00000000000E+00 -0.46646474391E+03  0.46646474391E+03  0.00000000000E+00 0.  1.
         25    1    1    2    0    0 -0.24570632024E+03 -0.12185123232E+01 -0.14406190994E+03  0.31104969776E+03  0.12500000000E+03 0.  0.
         21    1    1    2  503  501  0.21199602431E+02  0.17124266220E+02 -0.18275481922E+03  0.18477550591E+03  0.00000000000E+00 0.  1.
         -2    1    1    2    0  502  0.22450671781E+03 -0.15905753897E+02  0.17451159639E+03  0.28479915137E+03  0.00000000000E+00 0.  1.
<mgrwt>
<rscale>  4 0.26088317E+03</rscale>
<asrwt>0</asrwt>
<pdfrwt beam="1">  1       21 0.48332248E-01 0.26088317E+03</pdfrwt>
<pdfrwt beam="2">  1       -2 0.71763807E-01 0.26088317E+03</pdfrwt>
<totfact> 0.58898173E+02</totfact>
</mgrwt>
</event>
<event>
 5    0  0.1141006E+000  0.7854249E+03  0.7546771E-02  0.9581357E-01
          2   -1    0    0  503    0 -0.00000000000E+00  0.00000000000E+00  0.12064031271E+04  0.12064031271E+04  0.00000000000E+00 0.  1.
         21   -1    0    0  501  502  0.00000000000E+00 -0.00000000000E+00 -0.13177779799E+04  0.13177779799E+04  0.00000000000E+00 0. -1.
         25    1    1    2    0    0  0.60126842841E+02  0.76012176419E+03 -0.10027861042E+04  0.12659404822E+04  0.12500000000E+03 0.  0.
         21    1    1    2  503  502 -0.52263444399E+02  0.17083709079E+02 -0.21710152863E+02  0.59115577250E+02  0.00000000000E+00 0. -1.
          2    1    1    2  501    0 -0.78633984425E+01 -0.77720547327E+03  0.91312140429E+03  0.11991250476E+04  0.00000000000E+00 0.  1.
<mgrwt>
<rscale>  4 0.78542487E+03</rscale>
<asrwt>0</asrwt>
<pdfrwt beam="1">  1       21 0.20273507E+00 0.78542487E+03</pdfrwt>
<pdfrwt beam="2">  1        2 0.18560048E+00 0.78542487E+03</pdfrwt>
<totfact> 0.23834632E+01</totfact>
</mgrwt>
</event>
<event>
 5    0  0.1141006E+000  0.2584812E+03  0.7546771E-02  0.1108059E+00
          3   -1    0    0  503    0 -0.00000000000E+00  0.00000000000E+00  0.21458551270E+03  0.21458551270E+03  0.00000000000E+00 0.  1.
         21   -1    0    0  501  502  0.00000000000E+00 -0.00000000000E+00 -0.57173923884E+03  0.57173923884E+03  0.00000000000E+00 0.  1.
         25    1    1    2    0    0  0.45446268275E+02  0.22281014163E+03 -0.45055745994E+03  0.51993917646E+03  0.12500000000E+03 0.  0.
         21    1    1    2  503  502  0.24366079514E+02 -0.11920336610E+02  0.68724544221E+01  0.27982689034E+02  0.00000000000E+00 0. -1.
          3    1    1    2  501    0 -0.69812347789E+02 -0.21088980502E+03  0.86531279384E+02  0.23840288605E+03  0.00000000000E+00 0.  1.
<mgrwt>
<rscale>  4 0.25848119E+03</rscale>
<asrwt>0</asrwt>
<pdfrwt beam="1">  1       21 0.87959882E-01 0.25848119E+03</pdfrwt>
<pdfrwt beam="2">  1        3 0.33013156E-01 0.25848119E+03</pdfrwt>
<totfact> 0.48333949E+02</totfact>
</mgrwt>
</event>
<event>
 5    0  0.1141006E+000  0.3688112E+03  0.7546771E-02  0.1055148E+00
          2   -1    0    0  503    0 -0.00000000000E+00  0.00000000000E+00  0.13017337151E+04  0.13017337151E+04  0.00000000000E+00 0.  1.
         21   -1    0    0  501  502  0.00000000000E+00 -0.00000000000E+00 -0.51368168164E+03  0.51368168164E+03  0.00000000000E+00 0. -1.
         25    1    1    2    0    0 -0.15991199597E+03 -0.30752276150E+03 -0.39312832310E+03  0.53881070305E+03  0.12500000000E+03 0.  0.
         21    1    1    2  503  502 -0.67410560561E+02  0.28554146923E+02  0.47715732861E+02  0.87386006569E+02  0.00000000000E+00 0.  1.
          2    1    1    2  501    0  0.22732255653E+03  0.27896861458E+03  0.11334646237E+04  0.11892186871E+04  0.00000000000E+00 0.  1.
<mgrwt>
<rscale>  4 0.36881119E+03</rscale>
<asrwt>0</asrwt>
<pdfrwt beam="1">  1       21 0.79027952E-01 0.36881119E+03</pdfrwt>
<pdfrwt beam="2">  1        2 0.20026672E+00 0.36881119E+03</pdfrwt>
<totfact> 0.28711803E+02</totfact>
</mgrwt>
</event>
<event>
 5    0  0.1141006E+000  0.4194733E+03  0.7546771E-02  0.1037502E+00
          2   -1    0    0  503    0 -0.00000000000E+00  0.00000000000E+00  0.30353209682E+04  0.30353209682E+04  0.00000000000E+00 0. -1.
         21   -1    0    0  501  502  0.00000000000E+00 -0.00000000000E+00 -0.12639844854E+03  0.12639844854E+03  0.00000000000E+00 0. -1.
         25    1    1    2    0    0  0.19381010105E+03  0.34652133871E+03  0.28497759583E+03  0.50445676086E+03  0.12500000000E+03 0.  0.
         21    1    1    2  503  502  0.19098112176E+02 -0.56829726114E+02  0.37041213990E+03  0.37523260659E+03  0.00000000000E+00 0. -1.
          2    1    1    2  501    0 -0.21290821322E+03 -0.28969161259E+03  0.22535327840E+04  0.22820300493E+04  0.00000000000E+00 0. -1.
<mgrwt>
<rscale>  4 0.41866525E+03</rscale>
<asrwt>0</asrwt>
<pdfrwt beam="1">  1       21 0.19445917E-01 0.41947331E+03</pdfrwt>
<pdfrwt beam="2">  1        2 0.46697240E+00 0.41947331E+03</pdfrwt>
<totfact> 0.56008205E+02</totfact>
</mgrwt>
</event>
<event>
 5    0  0.1141006E+000  0.2447838E+03  0.7546771E-02  0.1116646E+00
         21   -1    0    0  503  502  0.00000000000E+00  0.00000000000E+00  0.14218806980E+04  0.14218806980E+04  0.00000000000E+00 0.  1.
         -1   -1    0    0    0  501 -0.00000000000E+00 -0.00000000000E+00 -0.23015032151E+03  0.23015032151E+03  0.00000000000E+00 0.  1.
         25    1    1    2    0    0  0.19154088652E+03  0.85709244246E+02  0.13383161947E+04  0.13604224427E+04  0.12500000000E+03 0.  0.
         21    1    1    2  503  501  0.19057968154E+02 -0.12505416510E+02  0.31850040375E+01  0.23015991027E+02  0.00000000000E+00 0. -1.
         -1    1    1    2    0  502 -0.21059885468E+03 -0.73203827737E+02 -0.14977082215E+03  0.26859258582E+03  0.00000000000E+00 0.  1.
<mgrwt>
<rscale>  4 0.24478382E+03</rscale>
<asrwt>0</asrwt>
<pdfrwt beam="1">  1       21 0.21875087E+00 0.24478382E+03</pdfrwt>
<pdfrwt beam="2">  1       -1 0.35407743E-01 0.24478382E+03</pdfrwt>
<totfact> 0.68919614E+01</totfact>
</mgrwt>
</event>
<event>
 5    0  0.1141006E+000  0.2876536E+03  0.7546771E-02  0.1091581E+00
         21   -1    0    0  501  502  0.00000000000E+00  0.00000000000E+00  0.14738464744E+03  0.14738464744E+03  0.00000000000E+00 0.  1.
          2   -1    0    0  503    0 -0.00000000000E+00 -0.00000000000E+00 -0.11211004422E+04  0.11211004422E+04  0.00000000000E+00 0.  1.
         25    1    1    2    0    0  0.26570364237E+03 -0.11020832985E+03 -0.10963278347E+03  0.33224787245E+03  0.12500000000E+03 0.  0.
         21    1    1    2  503  502 -0.56590032576E+02  0.58663418151E+02 -0.54630049593E+03  0.55234777113E+03  0.00000000000E+00 0.  1.
          2    1    1    2  501    0 -0.20911360980E+03  0.51544911696E+02 -0.31778251537E+03  0.38388944606E+03  0.00000000000E+00 0.  1.
<mgrwt>
<rscale>  4 0.28765361E+03</rscale>
<asrwt>0</asrwt>
<pdfrwt beam="1">  1       21 0.22674561E-01 0.28765361E+03</pdfrwt>
<pdfrwt beam="2">  1        2 0.17247699E+00 0.28765361E+03</pdfrwt>
<totfact> 0.49972224E+03</totfact>
</mgrwt>
</event>
<event>
 5    0  0.1141006E+000  0.2802570E+03  0.7546771E-02  0.1095549E+00
          1   -1    0    0  503    0 -0.00000000000E+00  0.00000000000E+00  0.75785767205E+03  0.75785767205E+03  0.00000000000E+00 0.  1.
         21   -1    0    0  501  502  0.00000000000E+00 -0.00000000000E+00 -0.22359373008E+03  0.22359373008E+03  0.00000000000E+00 0. -1.
         25    1    1    2    0    0  0.14966855594E+03 -0.20129163205E+03 -0.99257512422E+02  0.29731473482E+03  0.12500000000E+03 0.  0.
         21    1    1    2  503  502 -0.22957574311E+02  0.50262896110E+02  0.20716390559E+03  0.21440683927E+03  0.00000000000E+00 0.  1.
          1    1    1    2  501    0 -0.12671098163E+03  0.15102873594E+03  0.42635754879E+03  0.46972982805E+03  0.00000000000E+00 0.  1.
<mgrwt>
<rscale>  4 0.28025702E+03</rscale>
<asrwt>0</asrwt>
<pdfrwt beam="1">  1       21 0.34399036E-01 0.28025702E+03</pdfrwt>
<pdfrwt beam="2">  1        1 0.11659349E+00 0.28025702E+03</pdfrwt>
<totfact> 0.22004896E+03</totfact>
</mgrwt>
</event>
<event>
 5    0  0.1141006E+000  0.2569976E+03  0.7546771E-02  0.1108961E+00
         21   -1    0    0  503  502  0.00000000000E+00  0.00000000000E+00  0.90834574787E+03  0.90834574787E+03  0.00000000000E+00 0. -1.
         -2   -1    0    0    0  501 -0.00000000000E+00 -0.00000000000E+00 -0.20310881732E+03  0.20310881732E+03  0.00000000000E+00 0.  1.
         25    1    1    2    0    0 -0.45959107741E+02 -0.22081303678E+03  0.80165069415E+03  0.84210419321E+03  0.12500000000E+03 0.  0.
         21    1    1    2  503  501  0.24023388980E+02  0.34192461516E+01 -0.34630209043E+02  0.42285527556E+02  0.00000000000E+00 0. -1.
         -2    1    1    2    0  502  0.21935718760E+02  0.21739379063E+03 -0.61783554553E+02  0.22706484443E+03  0.00000000000E+00 0.  1.
<mgrwt>
<rscale>  4 0.25699758E+03</rscale>
<asrwt>0</asrwt>
<pdfrwt beam="1">  1       21 0.13974550E+00 0.25699758E+03</pdfrwt>
<pdfrwt beam="2">  1       -2 0.31247511E-01 0.25699758E+03</pdfrwt>
<totfact> 0.26466360E+02</totfact>
</mgrwt>
</event>
<event>
 5    0  0.1141006E+000  0.4613452E+03  0.7546771E-02  0.1024392E+00
          2   -1    0    0  503    0 -0.00000000000E+00  0.00000000000E+00  0.39269889772E+04  0.39269889772E+04  0.00000000000E+00 0.  1.
         21   -1    0    0  501  502  0.00000000000E+00 -0.00000000000E+00 -0.47416602802E+03  0.47416602802E+03  0.00000000000E+00 0.  1.
         25    1    1    2    0    0 -0.12115852195E+03 -0.42724115079E+03 -0.34492911011E+03  0.57603426927E+03  0.12500000000E+03 0.  0.
         21    1    1    2  503  502  0.41692309203E+02  0.32224347402E+02  0.36002176642E+03  0.36385756761E+03  0.00000000000E+00 0. -1.
          2    1    1    2  501    0  0.79466212748E+02  0.39501680338E+03  0.34377302929E+04  0.34612631684E+04  0.00000000000E+00 0.  1.
<mgrwt>
<rscale>  4 0.46134519E+03</rscale>
<asrwt>0</asrwt>
<pdfrwt beam="1">  1       21 0.72948622E-01 0.46134519E+03</pdfrwt>
<pdfrwt beam="2">  1        2 0.60415213E+00 0.46134519E+03</pdfrwt>
<totfact> 0.90940061E+00</totfact>
</mgrwt>
</event>
<event>
 5    0  0.1141006E+000  0.3433532E+03  0.7546771E-02  0.1065377E+00
          1   -1    0    0  503    0 -0.00000000000E+00  0.00000000000E+00  0.18198654910E+04  0.18198654910E+04  0.00000000000E+00 0. -1.
         21   -1    0    0  501  502  0.00000000000E+00 -0.00000000000E+00 -0.33040015370E+03  0.33040015370E+03  0.00000000000E+00 0. -1.
         25    1    1    2    0    0  0.24516738245E+03  0.20318038507E+03 -0.21184656311E+03  0.40235964086E+03  0.12500000000E+03 0.  0.
         21    1    1    2  503  502  0.13168105005E+02  0.24487732231E+02  0.27733894204E+02  0.39271069592E+02  0.00000000000E+00 0. -1.
          1    1    1    2  501    0 -0.25833548745E+03 -0.22766811730E+03  0.16735780062E+04  0.17086349342E+04  0.00000000000E+00 0. -1.
<mgrwt>
<rscale>  4 0.34335323E+03</rscale>
<asrwt>0</asrwt>
<pdfrwt beam="1">  1       21 0.50830794E-01 0.34335323E+03</pdfrwt>
<pdfrwt beam="2">  1        1 0.27997930E+00 0.34335323E+03</pdfrwt>
<totfact> 0.16855742E+02</totfact>
</mgrwt>
</event>
<event>
 5    0  0.1141006E+000  0.1766186E+03  0.7546771E-02  0.1171116E+00
          1   -1    0    0  503    0 -0.00000000000E+00  0.00000000000E+00  0.23045496489E+03  0.23045496489E+03  0.00000000000E+00 0. -1.
         21   -1    0    0  501  502  0.00000000000E+00 -0.00000000000E+00 -0.53037549736E+03  0.53037549736E+03  0.00000000000E+00 0. -1.
         25    1    1    2    0    0  0.19780397383E+03 -0.95352346699E+02 -0.31289420788E+03  0.40217691059E+03  0.12500000000E+03 0.  0.
         21    1    1    2  503  502 -0.10578188846E+03  0.75435232913E+02  0.14615358203E+03  0.19555345006E+03  0.00000000000E+00 0. -1.
          1    1    1    2  501    0 -0.92022085370E+02  0.19917113786E+02 -0.13317990662E+03  0.16310010161E+03  0.00000000000E+00 0. -1.
<mgrwt>
<rscale>  4 0.17661861E+03</rscale>
<asrwt>0</asrwt>
<pdfrwt beam="1">  1       21 0.81596229E-01 0.17661861E+03</pdfrwt>
<pdfrwt beam="2">  1        1 0.35454611E-01 0.17661861E+03</pdfrwt>
<totfact> 0.17639961E+03</totfact>
</mgrwt>
</event>
<event>
 5    0  0.1141006E+000  0.4266304E+03  0.7546771E-02  0.1034930E+00
         21   -1    0    0  501  502  0.00000000000E+00  0.00000000000E+00  0.91519355863E+03  0.91519355863E+03  0.00000000000E+00 0. -1.
          2   -1    0    0  503    0 -0.00000000000E+00 -0.00000000000E+00 -0.83948627422E+03  0.83948627422E+03  0.00000000000E+00 0. -1.
         25    1    1    2    0    0 -0.17439502419E+03 -0.36777265170E+03  0.77653053158E+03  0.88560432151E+03  0.12500000000E+03 0.  0.
         21    1    1    2  503  502  0.73723225068E+02 -0.46800328883E+02 -0.11899501273E+03  0.14759809535E+03  0.00000000000E+00 0. -1.
          2    1    1    2  501    0  0.10067179912E+03  0.41457298058E+03 -0.58182823445E+03  0.72147741598E+03  0.00000000000E+00 0. -1.
<mgrwt>
<rscale>  4 0.42663036E+03</rscale>
<asrwt>0</asrwt>
<pdfrwt beam="1">  1       21 0.14079901E+00 0.42663036E+03</pdfrwt>
<pdfrwt beam="2">  1        2 0.12915174E+00 0.42663036E+03</pdfrwt>
<totfact> 0.13011997E+02</totfact>
</mgrwt>
</event>
<event>
 5    0  0.1141006E+000  0.2965152E+03  0.7546771E-02  0.1086996E+00
         21   -1    0    0  503  502  0.00000000000E+00  0.00000000000E+00  0.90966516061E+03  0.90966516061E+03  0.00000000000E+00 0. -1.
         -1   -1    0    0    0  501 -0.00000000000E+00 -0.00000000000E+00 -0.32066720856E+03  0.32066720856E+03  0.00000000000E+00 0.  1.
         25    1    1    2    0    0  0.19725329473E+03 -0.17299574176E+03  0.69479730976E+03  0.75312992942E+03  0.12500000000E+03 0.  0.
         21    1    1    2  503  501 -0.22868433741E+02 -0.11468467902E+03  0.18834454805E+02  0.11844947257E+03  0.00000000000E+00 0. -1.
         -1    1    1    2    0  502 -0.17438486098E+03  0.28768042078E+03 -0.12463381251E+03  0.35875296718E+03  0.00000000000E+00 0.  1.
<mgrwt>
<rscale>  4 0.29651517E+03</rscale>
<asrwt>0</asrwt>
<pdfrwt beam="1">  1       21 0.13994849E+00 0.29651517E+03</pdfrwt>
<pdfrwt beam="2">  1       -1 0.49333417E-01 0.29651517E+03</pdfrwt>
<totfact> 0.13122161E+02</totfact>
</mgrwt>
</event>
<event>
 5    0  0.1377697E+000  0.2608097E+03  0.7546771E-02  0.1106658E+00
         21   -1    0    0  503  502  0.00000000000E+00  0.00000000000E+00  0.13294282424E+04  0.13294282424E+04  0.00000000000E+00 0. -1.
         -1   -1    0    0    0  501 -0.00000000000E+00 -0.00000000000E+00 -0.18576488141E+04  0.18576488141E+04  0.00000000000E+00 0. -1.
         25    1    1    2    0    0 -0.90732230269E+02  0.21629281612E+03  0.12354673342E+04  0.12637323506E+04  0.12500000000E+03 0.  0.
         21    1    1    2  503  501  0.20255089062E+03 -0.88696627921E+02 -0.86245181051E+02  0.23734402531E+03  0.00000000000E+00 0. -1.
         -1    1    1    2    0  502 -0.11181866035E+03 -0.12759618819E+03 -0.16774427248E+04  0.16860006807E+04  0.00000000000E+00 0. -1.
<mgrwt>
<rscale>  4 0.26080966E+03</rscale>
<asrwt>0</asrwt>
<pdfrwt beam="1">  1       21 0.20452742E+00 0.26080966E+03</pdfrwt>
<pdfrwt beam="2">  1       -1 0.28579212E+00 0.26080966E+03</pdfrwt>
<totfact> 0.52493705E-01</totfact>
</mgrwt>
</event>
<event>
 5    0  0.1141006E+000  0.2487438E+03  0.7546771E-02  0.1114101E+00
         21   -1    0    0  503  502  0.00000000000E+00  0.00000000000E+00  0.32156142112E+03  0.32156142112E+03  0.00000000000E+00 0.  1.
         -3   -1    0    0    0  501 -0.00000000000E+00 -0.00000000000E+00 -0.99437550853E+03  0.99437550853E+03  0.00000000000E+00 0.  1.
         25    1    1    2    0    0 -0.21516364579E+03 -0.55635835989E+02  0.25088392890E+03  0.35771285481E+03  0.12500000000E+03 0.  0.
         21    1    1    2  503  501  0.90595226845E+02 -0.37172266061E+02 -0.41131310550E+03  0.42280934622E+03  0.00000000000E+00 0.  1.
         -3    1    1    2    0  502  0.12456841895E+03  0.92808102049E+02 -0.51238491081E+03  0.53541472863E+03  0.00000000000E+00 0.  1.
<mgrwt>
<rscale>  4 0.24874381E+03</rscale>
<asrwt>0</asrwt>
<pdfrwt beam="1">  1       21 0.49470988E-01 0.24874381E+03</pdfrwt>
<pdfrwt beam="2">  1       -3 0.15298085E+00 0.24874381E+03</pdfrwt>
<totfact> 0.61474306E+01</totfact>
</mgrwt>
</event>
<event>
 5    0  0.1141006E+000  0.2278130E+03  0.7546771E-02  0.1128189E+00
          2   -1    0    0  503    0 -0.00000000000E+00  0.00000000000E+00  0.14087756675E+04  0.14087756675E+04  0.00000000000E+00 0. -1.
         21   -1    0    0  501  502  0.00000000000E+00 -0.00000000000E+00 -0.65490430987E+02  0.65490430987E+02  0.00000000000E+00 0. -1.
         25    1    1    2    0    0 -0.21381687036E+03  0.59524666132E+02  0.10451391619E+04  0.10757331025E+04  0.12500000000E+03 0.  0.
         21    1    1    2  503  502  0.31670932240E+02 -0.25807196579E+02  0.16608939392E+03  0.17104018861E+03  0.00000000000E+00 0.  1.
          2    1    1    2  501    0  0.18214593811E+03 -0.33717469553E+02  0.13205668067E+03  0.22749280744E+03  0.00000000000E+00 0. -1.
<mgrwt>
<rscale>  4 0.22781299E+03</rscale>
<asrwt>0</asrwt>
<pdfrwt beam="1">  1       21 0.10075452E-01 0.22781299E+03</pdfrwt>
<pdfrwt beam="2">  1        2 0.21673469E+00 0.22781299E+03</pdfrwt>
<totfact> 0.15552895E+04</totfact>
</mgrwt>
</event>
<event>
 5    0  0.1141006E+000  0.2469954E+03  0.7546771E-02  0.1115219E+00
         21   -1    0    0  503  502  0.00000000000E+00  0.00000000000E+00  0.13457494256E+03  0.13457494256E+03  0.00000000000E+00 0.  1.
         -3   -1    0    0    0  501 -0.00000000000E+00 -0.00000000000E+00 -0.53308863480E+03  0.53308863480E+03  0.00000000000E+00 0. -1.
         25    1    1    2    0    0  0.13056069395E+03 -0.17638665363E+03 -0.79511746625E+02  0.26477436476E+03  0.12500000000E+03 0.  0.
         21    1    1    2  503  501  0.79610403969E+01  0.26517630090E+02 -0.99032558434E+02  0.10283000778E+03  0.00000000000E+00 0. -1.
         -3    1    1    2    0  502 -0.13852173435E+03  0.14986902354E+03 -0.21996938718E+03  0.30005920483E+03  0.00000000000E+00 0. -1.
<mgrwt>
<rscale>  4 0.24699541E+03</rscale>
<asrwt>0</asrwt>
<pdfrwt beam="1">  1       21 0.20703837E-01 0.24699541E+03</pdfrwt>
<pdfrwt beam="2">  1       -3 0.82013636E-01 0.24699541E+03</pdfrwt>
<totfact> 0.15054016E+03</totfact>
</mgrwt>
</event>
<event>
 5    0  0.1141006E+000  0.2467442E+03  0.7546771E-02  0.1115380E+00
         21   -1    0    0  501  502  0.00000000000E+00  0.00000000000E+00  0.11939464051E+04  0.11939464051E+04  0.00000000000E+00 0.  1.
          1   -1    0    0  503    0 -0.00000000000E+00 -0.00000000000E+00 -0.37018310694E+03  0.37018310694E+03  0.00000000000E+00 0.  1.
         25    1    1    2    0    0 -0.19614092695E+03 -0.10126362624E+03  0.10364795123E+04  0.10670709277E+04  0.12500000000E+03 0.  0.
         21    1    1    2  503  502  0.14504754974E+02  0.62669710227E+02 -0.28917438464E+03  0.29624264587E+03  0.00000000000E+00 0.  1.
          1    1    1    2  501    0  0.18163617198E+03  0.38593916009E+02  0.76458170482E+02  0.20081593850E+03  0.00000000000E+00 0.  1.
<mgrwt>
<rscale>  4 0.24674417E+03</rscale>
<asrwt>0</asrwt>
<pdfrwt beam="1">  1       21 0.18368406E+00 0.24674417E+03</pdfrwt>
<pdfrwt beam="2">  1        1 0.56951248E-01 0.24674417E+03</pdfrwt>
<totfact> 0.12100498E+02</totfact>
</mgrwt>
</event>
<event>
 5    0  0.1141006E+000  0.5921494E+03  0.7546771E-02  0.9921829E-01
         21   -1    0    0  501  502  0.00000000000E+00  0.00000000000E+00  0.25009557092E+03  0.25009557092E+03  0.00000000000E+00 0.  1.
          2   -1    0    0  503    0 -0.00000000000E+00 -0.00000000000E+00 -0.17678872514E+04  0.17678872514E+04  0.00000000000E+00 0.  1.
         25    1    1    2    0    0  0.26027768860E+03  0.49953227831E+03 -0.32083507873E+03  0.66017961192E+03  0.12500000000E+03 0.  0.
         21    1    1    2  503  502 -0.29282187469E+02  0.38709923808E+02 -0.48526315621E+02  0.68634597777E+02  0.00000000000E+00 0. -1.
          2    1    1    2  501    0 -0.23099550113E+03 -0.53824220211E+03 -0.11484302861E+04  0.12891686126E+04  0.00000000000E+00 0.  1.
<mgrwt>
<rscale>  4 0.59214944E+03</rscale>
<asrwt>0</asrwt>
<pdfrwt beam="1">  1       21 0.38476241E-01 0.59214944E+03</pdfrwt>
<pdfrwt beam="2">  1        2 0.27198266E+00 0.59214944E+03</pdfrwt>
<totfact> 0.71033544E+02</totfact>
</mgrwt>
</event>
<event>
 5    0  0.1141006E+000  0.2972083E+03  0.7546771E-02  0.1086645E+00
         -3   -1    0    0    0  501 -0.00000000000E+00  0.00000000000E+00  0.29288968429E+03  0.29288968429E+03  0.00000000000E+00 0.  1.
         21   -1    0    0  503  502  0.00000000000E+00 -0.00000000000E+00 -0.52122688186E+03  0.52122688186E+03  0.00000000000E+00 0.  1.
         25    1    1    2    0    0  0.26270875670E+03  0.66190948817E+02 -0.38288872029E+03  0.48541312784E+03  0.12500000000E+03 0.  0.
         21    1    1    2  503  501 -0.12647226790E+02  0.21637558608E+02  0.12907197228E+02  0.28190991970E+02  0.00000000000E+00 0.  1.
         -3    1    1    2    0  502 -0.25006152991E+03 -0.87828507425E+02  0.14164432550E+03  0.30051244634E+03  0.00000000000E+00 0.  1.
<mgrwt>
<rscale>  4 0.29720828E+03</rscale>
<asrwt>0</asrwt>
<pdfrwt beam="1">  1       21 0.80188751E-01 0.29720828E+03</pdfrwt>
<pdfrwt beam="2">  1       -3 0.45059952E-01 0.29720828E+03</pdfrwt>
<totfact> 0.32420769E+02</totfact>
</mgrwt>
</event>
<event>
 5    0  0.1141006E+000  0.2788209E+03  0.7546771E-02  0.1096335E+00
          3   -1    0    0  503    0 -0.00000000000E+00  0.00000000000E+00  0.13834302217E+04  0.13834302217E+04  0.00000000000E+00 0.  1.
         21   -1    0    0  501  502  0.00000000000E+00 -0.00000000000E+00 -0.68841103408E+02  0.68841103408E+02  0.00000000000E+00 0.  1.
         25    1    1    2    0    0 -0.22641640398E+03  0.11529351750E+03  0.36375787155E+03  0.46097914518E+03  0.12500000000E+03 0.  0.
         21    1    1    2  503  502 -0.12091617267E+01 -0.34875840775E+02  0.18667913428E+03  0.18991283663E+03  0.00000000000E+00 0. -1.
          3    1    1    2  501    0  0.22762556571E+03 -0.80417676729E+02  0.76415211244E+03  0.80137934328E+03  0.00000000000E+00 0.  1.
<mgrwt>
<rscale>  4 0.27882093E+03</rscale>
<asrwt>0</asrwt>
<pdfrwt beam="1">  1       21 0.10590940E-01 0.27882093E+03</pdfrwt>
<pdfrwt beam="2">  1        3 0.21283540E+00 0.27882093E+03</pdfrwt>
<totfact> 0.48313800E+02</totfact>
</mgrwt>
</event>
<event>
 5    0  0.1141006E+000  0.2706013E+03  0.7546771E-02  0.1100936E+00
          2   -1    0    0  503    0 -0.00000000000E+00  0.00000000000E+00  0.26736891471E+04  0.26736891471E+04  0.00000000000E+00 0. -1.
         21   -1    0    0  501  502  0.00000000000E+00 -0.00000000000E+00 -0.10475737908E+03  0.10475737908E+03  0.00000000000E+00 0. -1.
         25    1    1    2    0    0 -0.60177689230E+02 -0.23310454979E+03  0.22498791892E+04  0.22661730850E+04  0.12500000000E+03 0.  0.
         21    1    1    2  503  502 -0.24053123194E+02  0.83341122669E+01  0.26501076001E+03  0.26623056377E+03  0.00000000000E+00 0. -1.
          2    1    1    2  501    0  0.84230812424E+02  0.22477043752E+03  0.54041818888E+02  0.24604287743E+03  0.00000000000E+00 0. -1.
<mgrwt>
<rscale>  4 0.27060129E+03</rscale>
<asrwt>0</asrwt>
<pdfrwt beam="1">  1       21 0.16116522E-01 0.27060129E+03</pdfrwt>
<pdfrwt beam="2">  1        2 0.41133674E+00 0.27060129E+03</pdfrwt>
<totfact> 0.13811464E+03</totfact>
</mgrwt>
</event>
<event>
 5    0  0.1141006E+000  0.2647363E+03  0.7546771E-02  0.1104330E+00
          3   -1    0    0  503    0 -0.00000000000E+00  0.00000000000E+00  0.41027860918E+03  0.41027860918E+03  0.00000000000E+00 0. -1.
         21   -1    0    0  501  502  0.00000000000E+00 -0.00000000000E+00 -0.15161915554E+04  0.15161915554E+04  0.00000000000E+00 0. -1.
         25    1    1    2    0    0  0.11618635461E+03 -0.20200090862E+03 -0.14550681282E+04  0.14789022597E+04  0.12500000000E+03 0.  0.
         21    1    1    2  503  502  0.25588690162E+02  0.19606508966E+01  0.69428275017E+01  0.26586238355E+02  0.00000000000E+00 0. -1.
          3    1    1    2  501    0 -0.14177504478E+03  0.20004025772E+03  0.34221235445E+03  0.42098166655E+03  0.00000000000E+00 0. -1.
<mgrwt>
<rscale>  4 0.26473633E+03</rscale>
<asrwt>0</asrwt>
<pdfrwt beam="1">  1       21 0.23326024E+00 0.26473633E+03</pdfrwt>
<pdfrwt beam="2">  1        3 0.63119785E-01 0.26473633E+03</pdfrwt>
<totfact> 0.96785968E+00</totfact>
</mgrwt>
</event>
<event>
 5    0  0.1141006E+000  0.3006002E+03  0.7546771E-02  0.1084941E+00
         21   -1    0    0  501  502  0.00000000000E+00  0.00000000000E+00  0.10525992793E+03  0.10525992793E+03  0.00000000000E+00 0. -1.
          2   -1    0    0  503    0 -0.00000000000E+00 -0.00000000000E+00 -0.85379643282E+03  0.85379643282E+03  0.00000000000E+00 0.  1.
         25    1    1    2    0    0 -0.25033495895E+03  0.77877578613E+02 -0.40318383125E+03  0.49690513250E+03  0.12500000000E+03 0.  0.
         21    1    1    2  503  502 -0.22852697635E+02 -0.58247491843E+01 -0.37542475736E+02  0.44335211476E+02  0.00000000000E+00 0. -1.
          2    1    1    2  501    0  0.27318765659E+03 -0.72052829429E+02 -0.30781019791E+03  0.41781601678E+03  0.00000000000E+00 0.  1.
<mgrwt>
<rscale>  4 0.30060016E+03</rscale>
<asrwt>0</asrwt>
<pdfrwt beam="1">  1       21 0.16193835E-01 0.30060016E+03</pdfrwt>
<pdfrwt beam="2">  1        2 0.13135330E+00 0.30060016E+03</pdfrwt>
<totfact> 0.13761912E+04</totfact>
</mgrwt>
</event>
<event>
 5    0  0.1141006E+000  0.2544109E+03  0.7546771E-02  0.1110549E+00
         21   -1    0    0  503  502  0.00000000000E+00  0.00000000000E+00  0.38796450740E+03  0.38796450740E+03  0.00000000000E+00 0. -1.
         -4   -1    0    0    0  501 -0.00000000000E+00 -0.00000000000E+00 -0.38893955556E+03  0.38893955556E+03  0.00000000000E+00 0. -1.
         25    1    1    2    0    0  0.12874733703E+03  0.18367063546E+03  0.27426549486E+03  0.37570911726E+03  0.12500000000E+03 0.  0.
         21    1    1    2  503  501  0.48079225037E+02 -0.55814191126E+02 -0.71241329185E+02  0.10248006048E+03  0.00000000000E+00 0. -1.
         -4    1    1    2    0  502 -0.17682656207E+03 -0.12785644434E+03 -0.20399921383E+03  0.29871488523E+03  0.00000000000E+00 0. -1.
<mgrwt>
<rscale>  4 0.25441089E+03</rscale>
<asrwt>0</asrwt>
<pdfrwt beam="1">  1       21 0.59686847E-01 0.25441089E+03</pdfrwt>
<pdfrwt beam="2">  1       -4 0.59836855E-01 0.25441089E+03</pdfrwt>
<totfact> 0.29164062E+02</totfact>
</mgrwt>
</event>
<event>
 5    0  0.1141006E+000  0.2298184E+03  0.7546771E-02  0.1126768E+00
          2   -1    0    0  503    0 -0.00000000000E+00  0.00000000000E+00  0.97200464193E+03  0.97200464193E+03  0.00000000000E+00 0. -1.
         21   -1    0    0  501  502  0.00000000000E+00 -0.00000000000E+00 -0.12335998021E+03  0.12335998021E+03  0.00000000000E+00 0. -1.
         25    1    1    2    0    0  0.18250148983E+03 -0.10676078251E+03  0.45746894016E+02  0.24984482541E+03  0.12500000000E+03 0.  0.
         21    1    1    2  503  502 -0.57547241688E+02  0.95020030507E+02  0.19162878431E+03  0.22149962121E+03  0.00000000000E+00 0. -1.
          2    1    1    2  501    0 -0.12495424814E+03  0.11740751998E+02  0.61126898340E+03  0.62402017551E+03  0.00000000000E+00 0. -1.
<mgrwt>
<rscale>  4 0.22981840E+03</rscale>
<asrwt>0</asrwt>
<pdfrwt beam="1">  1       21 0.18978459E-01 0.22981840E+03</pdfrwt>
<pdfrwt beam="2">  1        2 0.14953917E+00 0.22981840E+03</pdfrwt>
<totfact> 0.87388584E+03</totfact>
</mgrwt>
</event>
<event>
 5    0  0.1141006E+000  0.3344335E+03  0.7546771E-02  0.1069192E+00
         21   -1    0    0  501  502  0.00000000000E+00  0.00000000000E+00  0.14735363766E+03  0.14735363766E+03  0.00000000000E+00 0.  1.
          2   -1    0    0  503    0 -0.00000000000E+00 -0.00000000000E+00 -0.10430508013E+04  0.10430508013E+04  0.00000000000E+00 0.  1.
         25    1    1    2    0    0  0.79744326866E+02  0.29194057618E+03 -0.15460852904E+03  0.36210116672E+03  0.12500000000E+03 0.  0.
         21    1    1    2  503  502  0.15211873791E+01  0.26757525315E+02 -0.14539990703E+03  0.14784928859E+03  0.00000000000E+00 0.  1.
          2    1    1    2  501    0 -0.81265514245E+02 -0.31869810149E+03 -0.59568872754E+03  0.68045398362E+03  0.00000000000E+00 0.  1.
<mgrwt>
<rscale>  4 0.33443346E+03</rscale>
<asrwt>0</asrwt>
<pdfrwt beam="1">  1       21 0.22669790E-01 0.33443346E+03</pdfrwt>
<pdfrwt beam="2">  1        2 0.16046935E+00 0.33443346E+03</pdfrwt>
<totfact> 0.54986055E+03</totfact>
</mgrwt>
</event>
<event>
 5    0  0.1141006E+000  0.3264072E+03  0.7546771E-02  0.1072738E+00
         21   -1    0    0  501  502  0.00000000000E+00  0.00000000000E+00  0.46716623005E+03  0.46716623005E+03  0.00000000000E+00 0. -1.
          2   -1    0    0  503    0 -0.00000000000E+00 -0.00000000000E+00 -0.62691178571E+03  0.62691178571E+03  0.00000000000E+00 0. -1.
         25    1    1    2    0    0  0.26983243467E+03  0.13866206106E+03  0.35497541009E+03  0.48339347507E+03  0.12500000000E+03 0.  0.
         21    1    1    2  503  502 -0.47704909023E+01 -0.29109304057E+02 -0.11882496686E+02  0.31800988878E+02  0.00000000000E+00 0. -1.
          2    1    1    2  501    0 -0.26506194376E+03 -0.10955275700E+03 -0.50283846906E+03  0.57888355181E+03  0.00000000000E+00 0. -1.
<mgrwt>
<rscale>  4 0.32640718E+03</rscale>
<asrwt>0</asrwt>
<pdfrwt beam="1">  1       21 0.71871728E-01 0.32640718E+03</pdfrwt>
<pdfrwt beam="2">  1        2 0.96447967E-01 0.32640718E+03</pdfrwt>
<totfact> 0.99488216E+02</totfact>
</mgrwt>
</event>
<event>
 5    0  0.1141006E+000  0.3289635E+03  0.7546771E-02  0.1071596E+00
         21   -1    0    0  501  502  0.00000000000E+00  0.00000000000E+00  0.55764086770E+03  0.55764086770E+03  0.00000000000E+00 0.  1.
          4   -1    0    0  503    0 -0.00000000000E+00 -0.00000000000E+00 -0.26197004281E+03  0.26197004281E+03  0.00000000000E+00 0.  1.
         25    1    1    2    0    0 -0.30013645621E+03 -0.22251824316E+02  0.30975014340E+03  0.44960781506E+03  0.12500000000E+03 0.  0.
         21    1    1    2  503  502 -0.76033779730E+01 -0.27044336086E+02 -0.48905739862E+02  0.56400167220E+02  0.00000000000E+00 0. -1.
          4    1    1    2  501    0  0.30773983418E+03  0.49296160402E+02  0.34826421357E+02  0.31360292823E+03  0.00000000000E+00 0.  1.
<mgrwt>
<rscale>  4 0.32896351E+03</rscale>
<asrwt>0</asrwt>
<pdfrwt beam="1">  1       21 0.85790903E-01 0.32896351E+03</pdfrwt>
<pdfrwt beam="2">  1        4 0.40303084E-01 0.32896351E+03</pdfrwt>
<totfact> 0.28974251E+02</totfact>
</mgrwt>
</event>
<event>
 5    0  0.1141006E+000  0.2508320E+03  0.7546771E-02  0.1112780E+00
         21   -1    0    0  503  502  0.00000000000E+00  0.00000000000E+00  0.27138529885E+04  0.27138529885E+04  0.00000000000E+00 0.  1.
         -4   -1    0    0    0  501 -0.00000000000E+00 -0.00000000000E+00 -0.27473846849E+02  0.27473846849E+02  0.00000000000E+00 0.  1.
         25    1    1    2    0    0 -0.19484563604E+03 -0.64059119597E+02  0.15214924893E+04  0.15403352841E+04  0.12500000000E+03 0.  0.
         21    1    1    2  503  501 -0.23188646945E+02 -0.18429351947E+02  0.29080563084E+02  0.41509438802E+02  0.00000000000E+00 0. -1.
         -4    1    1    2    0  502  0.21803428298E+03  0.82488471544E+02  0.11358060893E+04  0.11594821124E+04  0.00000000000E+00 0.  1.
<mgrwt>
<rscale>  4 0.25083197E+03</rscale>
<asrwt>0</asrwt>
<pdfrwt beam="1">  1       21 0.41751563E+00 0.25083197E+03</pdfrwt>
<pdfrwt beam="2">  1       -4 0.42267478E-02 0.25083197E+03</pdfrwt>
<totfact> 0.84824992E+01</totfact>
</mgrwt>
</event>
<event>
 5    0  0.1141006E+000  0.2535997E+03  0.7546771E-02  0.1111051E+00
         21   -1    0    0  501  502  0.00000000000E+00  0.00000000000E+00  0.13743487170E+03  0.13743487170E+03  0.00000000000E+00 0. -1.
          1   -1    0    0  503    0 -0.00000000000E+00 -0.00000000000E+00 -0.88991625685E+03  0.88991625685E+03  0.00000000000E+00 0. -1.
         25    1    1    2    0    0  0.30071202230E+02  0.22070783156E+03 -0.18272612308E+02  0.25607638016E+03  0.12500000000E+03 0.  0.
         21    1    1    2  503  502 -0.22978419315E+02 -0.96403792076E+01 -0.70236917025E+02  0.74526298571E+02  0.00000000000E+00 0.  1.
          1    1    1    2  501    0 -0.70927829149E+01 -0.21106745235E+03 -0.66397185582E+03  0.69674844982E+03  0.00000000000E+00 0. -1.
<mgrwt>
<rscale>  4 0.25359970E+03</rscale>
<asrwt>0</asrwt>
<pdfrwt beam="1">  1       21 0.21143826E-01 0.25359970E+03</pdfrwt>
<pdfrwt beam="2">  1        1 0.13691019E+00 0.25359970E+03</pdfrwt>
<totfact> 0.44402576E+03</totfact>
</mgrwt>
</event>
<event>
 5    0  0.1141006E+000  0.2591928E+03  0.7546771E-02  0.1107629E+00
         -1   -1    0    0    0  501 -0.00000000000E+00  0.00000000000E+00  0.33160384685E+03  0.33160384685E+03  0.00000000000E+00 0.  1.
         21   -1    0    0  503  502  0.00000000000E+00 -0.00000000000E+00 -0.36605156062E+03  0.36605156062E+03  0.00000000000E+00 0.  1.
         25    1    1    2    0    0  0.34109090295E+02 -0.22043696757E+03 -0.24328190460E+03  0.35294046498E+03  0.12500000000E+03 0.  0.
         21    1    1    2  503  501  0.25836252294E+01 -0.20228984306E+02  0.50095250949E+02  0.54087161999E+02  0.00000000000E+00 0. -1.
         -1    1    1    2    0  502 -0.36692715525E+02  0.24066595188E+03  0.15873893988E+03  0.29062778050E+03  0.00000000000E+00 0.  1.
<mgrwt>
<rscale>  4 0.25919280E+03</rscale>
<asrwt>0</asrwt>
<pdfrwt beam="1">  1       21 0.56315624E-01 0.25919280E+03</pdfrwt>
<pdfrwt beam="2">  1       -1 0.51015977E-01 0.25919280E+03</pdfrwt>
<totfact> 0.10601337E+03</totfact>
</mgrwt>
</event>
<event>
 5    0  0.1141006E+000  0.5761130E+03  0.7546771E-02  0.9956242E-01
         21   -1    0    0  501  502  0.00000000000E+00  0.00000000000E+00  0.14016452160E+04  0.14016452160E+04  0.00000000000E+00 0. -1.
          1   -1    0    0  503    0 -0.00000000000E+00 -0.00000000000E+00 -0.38062545156E+03  0.38062545156E+03  0.00000000000E+00 0. -1.
         25    1    1    2    0    0  0.14681258846E+03  0.57675358099E+03  0.72335804305E+03  0.94502406729E+03  0.12500000000E+03 0.  0.
         21    1    1    2  503  502  0.57122664132E+02 -0.89725197844E+02 -0.12267200848E+03  0.16236388622E+03  0.00000000000E+00 0. -1.
          1    1    1    2  501    0 -0.20393525259E+03 -0.48702838315E+03  0.42033372988E+03  0.67488271405E+03  0.00000000000E+00 0. -1.
<mgrwt>
<rscale>  4 0.57611297E+03</rscale>
<asrwt>0</asrwt>
<pdfrwt beam="1">  1       21 0.21563772E+00 0.57611297E+03</pdfrwt>
<pdfrwt beam="2">  1        1 0.58557762E-01 0.57611297E+03</pdfrwt>
<totfact> 0.61582110E+01</totfact>
</mgrwt>
</event>
<event>
 5    0  0.1141006E+000  0.2760241E+03  0.7546771E-02  0.1097881E+00
          2   -1    0    0  503    0 -0.00000000000E+00  0.00000000000E+00  0.11259074026E+04  0.11259074026E+04  0.00000000000E+00 0. -1.
         21   -1    0    0  501  502  0.00000000000E+00 -0.00000000000E+00 -0.96103950122E+02  0.96103950122E+02  0.00000000000E+00 0. -1.
         25    1    1    2    0    0  0.51136190852E+02  0.21331710591E+03  0.15530159442E+03  0.29641640123E+03  0.12500000000E+03 0.  0.
         21    1    1    2  503  502 -0.10232543894E+02  0.36794851530E+02  0.49358161678E+02  0.62408286132E+02  0.00000000000E+00 0. -1.
          2    1    1    2  501    0 -0.40903646958E+02 -0.25011195744E+03  0.82514369639E+03  0.86318666538E+03  0.00000000000E+00 0. -1.
<mgrwt>
<rscale>  4 0.27602409E+03</rscale>
<asrwt>0</asrwt>
<pdfrwt beam="1">  1       21 0.14785224E-01 0.27602409E+03</pdfrwt>
<pdfrwt beam="2">  1        2 0.17321651E+00 0.27602409E+03</pdfrwt>
<totfact> 0.11076376E+04</totfact>
</mgrwt>
</event>
<event>
 5    0  0.1141006E+000  0.3130435E+03  0.7546771E-02  0.1078896E+00
         21   -1    0    0  501  502  0.00000000000E+00  0.00000000000E+00  0.45483132914E+03  0.45483132914E+03  0.00000000000E+00 0.  1.
          4   -1    0    0  503    0 -0.00000000000E+00 -0.00000000000E+00 -0.54073122881E+03  0.54073122881E+03  0.00000000000E+00 0.  1.
         25    1    1    2    0    0  0.23513593331E+03  0.16447417042E+03  0.34431415701E+03  0.46531483814E+03  0.12500000000E+03 0.  0.
         21    1    1    2  503  502  0.11806622942E+02 -0.16222678198E+02 -0.15638561581E+02  0.25438872646E+02  0.00000000000E+00 0. -1.
          4    1    1    2  501    0 -0.24694255625E+03 -0.14825149222E+03 -0.41457549511E+03  0.50480884717E+03  0.00000000000E+00 0.  1.
<mgrwt>
<rscale>  4 0.31304347E+03</rscale>
<asrwt>0</asrwt>
<pdfrwt beam="1">  1       21 0.69974051E-01 0.31304347E+03</pdfrwt>
<pdfrwt beam="2">  1        4 0.83189419E-01 0.31304347E+03</pdfrwt>
<totfact> 0.98883118E+01</totfact>
</mgrwt>
</event>
<event>
 5    0  0.1141006E+000  0.2096080E+03  0.7546771E-02  0.1141877E+00
         21   -1    0    0  501  502  0.00000000000E+00  0.00000000000E+00  0.88222441458E+02  0.88222441458E+02  0.00000000000E+00 0.  1.
          2   -1    0    0  503    0 -0.00000000000E+00 -0.00000000000E+00 -0.83061021034E+03  0.83061021034E+03  0.00000000000E+00 0.  1.
         25    1    1    2    0    0  0.19347300991E+03 -0.98473920494E+02 -0.36510173762E+03  0.44277894868E+03  0.12500000000E+03 0.  0.
         21    1    1    2  503  502 -0.43710764639E+02  0.64289541551E+02 -0.28814679716E+03  0.29844991676E+03  0.00000000000E+00 0. -1.
          2    1    1    2  501    0 -0.14976224527E+03  0.34184378943E+02 -0.89139234100E+02  0.17760378636E+03  0.00000000000E+00 0.  1.
<mgrwt>
<rscale>  4 0.20960799E+03</rscale>
<asrwt>0</asrwt>
<pdfrwt beam="1">  1       21 0.13572683E-01 0.20960799E+03</pdfrwt>
<pdfrwt beam="2">  1        2 0.12778619E+00 0.20960799E+03</pdfrwt>
<totfact> 0.20049154E+04</totfact>
</mgrwt>
</event>
<event>
 5    0  0.1141006E+000  0.3141918E+03  0.7546771E-02  0.1078354E+00
         21   -1    0    0  501  502  0.00000000000E+00  0.00000000000E+00  0.66241316160E+03  0.66241316160E+03  0.00000000000E+00 0.  1.
          2   -1    0    0  503    0 -0.00000000000E+00 -0.00000000000E+00 -0.10142381978E+04  0.10142381978E+04  0.00000000000E+00 0.  1.
         25    1    1    2    0    0  0.85261463992E+02  0.26379043474E+03  0.51496128766E+03  0.59805103335E+03  0.12500000000E+03 0.  0.
         21    1    1    2  503  502 -0.32154686028E+02  0.14696035533E+03 -0.51071456146E+03  0.53241021136E+03  0.00000000000E+00 0. -1.
          2    1    1    2  501    0 -0.53106777964E+02 -0.41075079007E+03 -0.35607176238E+03  0.54619011468E+03  0.00000000000E+00 0.  1.
<mgrwt>
<rscale>  4 0.31419179E+03</rscale>
<asrwt>0</asrwt>
<pdfrwt beam="1">  1       21 0.10190972E+00 0.31419179E+03</pdfrwt>
<pdfrwt beam="2">  1        2 0.15603665E+00 0.31419179E+03</pdfrwt>
<totfact> 0.23817681E+02</totfact>
</mgrwt>
</event>
<event>
 5    0  0.1141006E+000  0.2945586E+03  0.7546771E-02  0.1087993E+00
         21   -1    0    0  503  502  0.00000000000E+00  0.00000000000E+00  0.33935696928E+03  0.33935696928E+03  0.00000000000E+00 0.  1.
         -1   -1    0    0    0  501 -0.00000000000E+00 -0.00000000000E+00 -0.42459293300E+03  0.42459293300E+03  0.00000000000E+00 0. -1.
         25    1    1    2    0    0  0.24591602350E+03  0.11190010016E+03  0.13734815695E+03  0.32785033056E+03  0.12500000000E+03 0.  0.
         21    1    1    2  503  501  0.33726466875E+00 -0.24051440024E+02 -0.16710129454E+03  0.16882365993E+03  0.00000000000E+00 0. -1.
         -1    1    1    2    0  502 -0.24625328817E+03 -0.87848660137E+02 -0.55482826133E+02  0.26727591178E+03  0.00000000000E+00 0. -1.
<mgrwt>
<rscale>  4 0.29455856E+03</rscale>
<asrwt>0</asrwt>
<pdfrwt beam="1">  1       21 0.52208765E-01 0.29455856E+03</pdfrwt>
<pdfrwt beam="2">  1       -1 0.65321989E-01 0.29455856E+03</pdfrwt>
<totfact> 0.76750438E+02</totfact>
</mgrwt>
</event>
<event>
 5    0  0.1141006E+000  0.2632085E+03  0.7546771E-02  0.1105231E+00
          2   -1    0    0  503    0 -0.00000000000E+00  0.00000000000E+00  0.51911909033E+03  0.51911909033E+03  0.00000000000E+00 0.  1.
         21   -1    0    0  501  502  0.00000000000E+00 -0.00000000000E+00 -0.22052806457E+03  0.22052806457E+03  0.00000000000E+00 0. -1.
         25    1    1    2    0    0  0.99056606089E+02 -0.21252690189E+03 -0.87332430129E+02  0.27969956844E+03  0.12500000000E+03 0.  0.
         21    1    1    2  503  502 -0.25008311913E+02  0.33074520604E+01  0.65315225362E+02  0.70017380471E+02  0.00000000000E+00 0. -1.
          2    1    1    2  501    0 -0.74048294176E+02  0.20921944983E+03  0.32060823053E+03  0.38993020598E+03  0.00000000000E+00 0.  1.
<mgrwt>
<rscale>  4 0.26320846E+03</rscale>
<asrwt>0</asrwt>
<pdfrwt beam="1">  1       21 0.33927395E-01 0.26320846E+03</pdfrwt>
<pdfrwt beam="2">  1        2 0.79864475E-01 0.26320846E+03</pdfrwt>
<totfact> 0.61366244E+03</totfact>
</mgrwt>
</event>
<event>
 5    0  0.2044252E+000  0.3087567E+03  0.7546771E-02  0.1080943E+00
         21   -1    0    0  501  502  0.00000000000E+00  0.00000000000E+00  0.11543023132E+04  0.11543023132E+04  0.00000000000E+00 0.  1.
          2   -1    0    0  503    0 -0.00000000000E+00 -0.00000000000E+00 -0.13151589637E+04  0.13151589637E+04  0.00000000000E+00 0.  1.
         25    1    1    2    0    0  0.26995829746E+03 -0.87462145940E+02  0.10909921657E+04  0.11342028104E+04  0.12500000000E+03 0.  0.
         21    1    1    2  503  502 -0.75144110964E+02  0.42587542310E+02 -0.21816341276E+02  0.89085851398E+02  0.00000000000E+00 0.  1.
          2    1    1    2  501    0 -0.19481418649E+03  0.44874603629E+02 -0.12300324750E+04  0.12461726152E+04  0.00000000000E+00 0.  1.
<mgrwt>
<rscale>  4 0.30875668E+03</rscale>
<asrwt>0</asrwt>
<pdfrwt beam="1">  1       21 0.17758497E+00 0.30875668E+03</pdfrwt>
<pdfrwt beam="2">  1        2 0.20233215E+00 0.30875668E+03</pdfrwt>
<totfact> 0.37540017E+01</totfact>
</mgrwt>
</event>
<event>
 5    0  0.1141006E+000  0.2149066E+03  0.7546771E-02  0.1137738E+00
          2   -1    0    0  503    0 -0.00000000000E+00  0.00000000000E+00  0.12916851791E+04  0.12916851791E+04  0.00000000000E+00 0. -1.
         21   -1    0    0  501  502  0.00000000000E+00 -0.00000000000E+00 -0.12916852007E+03  0.12916852007E+03  0.00000000000E+00 0. -1.
         25    1    1    2    0    0  0.66371073997E+02  0.18928527678E+03  0.13931993715E+02  0.23675543482E+03  0.12500000000E+03 0.  0.
         21    1    1    2  503  502 -0.74136381163E+02 -0.62063839661E+02  0.89575553054E+03  0.90095843062E+03  0.00000000000E+00 0. -1.
          2    1    1    2  501    0  0.77653071656E+01 -0.12722143712E+03  0.25282913478E+03  0.28313983374E+03  0.00000000000E+00 0. -1.
<mgrwt>
<rscale>  4 0.21490661E+03</rscale>
<asrwt>0</asrwt>
<pdfrwt beam="1">  1       21 0.19872081E-01 0.21490661E+03</pdfrwt>
<pdfrwt beam="2">  1        2 0.19872079E+00 0.21490661E+03</pdfrwt>
<totfact> 0.52574782E+03</totfact>
</mgrwt>
</event>
<event>
 5    0  0.1141006E+000  0.2997402E+03  0.7546771E-02  0.1085371E+00
          2   -1    0    0  503    0 -0.00000000000E+00  0.00000000000E+00  0.14194836977E+04  0.14194836977E+04  0.00000000000E+00 0.  1.
         21   -1    0    0  501  502  0.00000000000E+00 -0.00000000000E+00 -0.41771175953E+03  0.41771175953E+03  0.00000000000E+00 0. -1.
         25    1    1    2    0    0  0.16945742550E+03 -0.21015248239E+03 -0.33480366765E+03  0.44788210590E+03  0.12500000000E+03 0.  0.
         21    1    1    2  503  502  0.17091202759E+02 -0.47420187245E+02  0.32606652023E+03  0.32993962930E+03  0.00000000000E+00 0. -1.
          2    1    1    2  501    0 -0.18654862826E+03  0.25757266963E+03  0.10105090856E+04  0.10593737220E+04  0.00000000000E+00 0.  1.
<mgrwt>
<rscale>  4 0.29974020E+03</rscale>
<asrwt>0</asrwt>
<pdfrwt beam="1">  1       21 0.64263348E-01 0.29974020E+03</pdfrwt>
<pdfrwt beam="2">  1        2 0.21838211E+00 0.29974020E+03</pdfrwt>
<totfact> 0.40532556E+02</totfact>
</mgrwt>
</event>
<event>
 5    0  0.1141006E+000  0.2398771E+03  0.7546771E-02  0.1119875E+00
         21   -1    0    0  501  502  0.00000000000E+00  0.00000000000E+00  0.10045388968E+03  0.10045388968E+03  0.00000000000E+00 0.  1.
          2   -1    0    0  503    0 -0.00000000000E+00 -0.00000000000E+00 -0.13245057080E+04  0.13245057080E+04  0.00000000000E+00 0.  1.
         25    1    1    2    0    0  0.19716591304E+03  0.35651446840E+02 -0.85559746175E+02  0.25117900607E+03  0.12500000000E+03 0.  0.
         21    1    1    2  503  502  0.29503147458E+02 -0.27906954187E+02 -0.37839152344E+03  0.38056455275E+03  0.00000000000E+00 0.  1.
          2    1    1    2  501    0 -0.22666906050E+03 -0.77444926528E+01 -0.76010054866E+03  0.79321603881E+03  0.00000000000E+00 0.  1.
<mgrwt>
<rscale>  4 0.23987708E+03</rscale>
<asrwt>0</asrwt>
<pdfrwt beam="1">  1       21 0.15454445E-01 0.23987708E+03</pdfrwt>
<pdfrwt beam="2">  1        2 0.20377010E+00 0.23987708E+03</pdfrwt>
<totfact> 0.79637464E+03</totfact>
</mgrwt>
</event>
<event>
 5    0  0.1141006E+000  0.7743332E+03  0.7546771E-02  0.9597930E-01
         21   -1    0    0  501  502  0.00000000000E+00  0.00000000000E+00  0.17585480963E+03  0.17585480963E+03  0.00000000000E+00 0.  1.
          2   -1    0    0  503    0 -0.00000000000E+00 -0.00000000000E+00 -0.44004143699E+04  0.44004143699E+04  0.00000000000E+00 0.  1.
         25    1    1    2    0    0  0.73878219179E+03  0.16092471013E+03 -0.16384504703E+04  0.18088230518E+04  0.12500000000E+03 0.  0.
         21    1    1    2  503  502  0.19009169097E+02 -0.13609740443E+02 -0.10310306048E+04  0.10312956325E+04  0.00000000000E+00 0.  1.
          2    1    1    2  501    0 -0.75779136089E+03 -0.14731496969E+03 -0.15550784851E+04  0.17361504952E+04  0.00000000000E+00 0.  1.
<mgrwt>
<rscale>  4 0.77433321E+03</rscale>
<asrwt>0</asrwt>
<pdfrwt beam="1">  1       21 0.27054588E-01 0.77433321E+03</pdfrwt>
<pdfrwt beam="2">  1        2 0.67698679E+00 0.77433321E+03</pdfrwt>
<totfact> 0.26293014E+01</totfact>
</mgrwt>
</event>
<event>
 5    0  0.1141006E+000  0.2441079E+03  0.7546771E-02  0.1117086E+00
          2   -1    0    0  503    0 -0.00000000000E+00  0.00000000000E+00  0.16921986770E+04  0.16921986770E+04  0.00000000000E+00 0. -1.
         21   -1    0    0  501  502  0.00000000000E+00 -0.00000000000E+00 -0.50727162833E+02  0.50727162833E+02  0.00000000000E+00 0.  1.
         25    1    1    2    0    0 -0.14836949624E+03 -0.15071562525E+03  0.35144487262E+03  0.42879739458E+03  0.12500000000E+03 0.  0.
         21    1    1    2  503  502  0.19318720171E+02 -0.10119627052E+02  0.39718883220E+03  0.39778711420E+03  0.00000000000E+00 0. -1.
          2    1    1    2  501    0  0.12905077607E+03  0.16083525230E+03  0.89283780934E+03  0.91634133104E+03  0.00000000000E+00 0. -1.
<mgrwt>
<rscale>  4 0.24410792E+03</rscale>
<asrwt>0</asrwt>
<pdfrwt beam="1">  1       21 0.78041802E-02 0.24410792E+03</pdfrwt>
<pdfrwt beam="2">  1        2 0.26033822E+00 0.24410792E+03</pdfrwt>
<totfact> 0.17165197E+04</totfact>
</mgrwt>
</event>
<event>
 5    0  0.1141006E+000  0.2779941E+03  0.7546771E-02  0.1096790E+00
         21   -1    0    0  501  502  0.00000000000E+00  0.00000000000E+00  0.54941115274E+03  0.54941115274E+03  0.00000000000E+00 0. -1.
          1   -1    0    0  503    0 -0.00000000000E+00 -0.00000000000E+00 -0.47245198327E+04  0.47245198327E+04  0.00000000000E+00 0.  1.
         25    1    1    2    0    0  0.23399697468E+03  0.66357172254E+02  0.40530267492E+03  0.48893058481E+03  0.12500000000E+03 0.  0.
         21    1    1    2  503  502 -0.19823624208E+03 -0.32432713662E+03 -0.26885219464E+03  0.46558264765E+03  0.00000000000E+00 0. -1.
          1    1    1    2  501    0 -0.35760732598E+02  0.25796996437E+03 -0.43115591603E+04  0.43194177530E+04  0.00000000000E+00 0.  1.
<mgrwt>
<rscale>  4 0.27799406E+03</rscale>
<asrwt>0</asrwt>
<pdfrwt beam="1">  1       21 0.84524791E-01 0.27799406E+03</pdfrwt>
<pdfrwt beam="2">  1        1 0.72684922E+00 0.27799406E+03</pdfrwt>
<totfact> 0.33403327E-01</totfact>
</mgrwt>
</event>
<event>
 5    0  0.1141006E+000  0.2774720E+03  0.7546771E-02  0.1097078E+00
         21   -1    0    0  501  502  0.00000000000E+00  0.00000000000E+00  0.13239974202E+04  0.13239974202E+04  0.00000000000E+00 0. -1.
          2   -1    0    0  503    0 -0.00000000000E+00 -0.00000000000E+00 -0.80930670639E+02  0.80930670639E+02  0.00000000000E+00 0. -1.
         25    1    1    2    0    0 -0.21098874330E+03  0.14062249454E+03  0.99346761190E+03  0.10329055289E+04  0.12500000000E+03 0.  0.
         21    1    1    2  503  502  0.34601110737E+02  0.14354776466E+02  0.15747744959E+02  0.40636042412E+02  0.00000000000E+00 0.  1.
          2    1    1    2  501    0  0.17638763256E+03 -0.15497727100E+03  0.23385139271E+03  0.33138651952E+03  0.00000000000E+00 0. -1.
<mgrwt>
<rscale>  4 0.27747203E+03</rscale>
<asrwt>0</asrwt>
<pdfrwt beam="1">  1       21 0.20369190E+00 0.27747203E+03</pdfrwt>
<pdfrwt beam="2">  1        2 0.12450873E-01 0.27747203E+03</pdfrwt>
<totfact> 0.71794785E+02</totfact>
</mgrwt>
</event>
<event>
 5    0  0.1141006E+000  0.2715880E+03  0.7546771E-02  0.1100374E+00
         21   -1    0    0  501  502  0.00000000000E+00  0.00000000000E+00  0.12093072263E+03  0.12093072263E+03  0.00000000000E+00 0. -1.
          2   -1    0    0  503    0 -0.00000000000E+00 -0.00000000000E+00 -0.10805408604E+04  0.10805408604E+04  0.00000000000E+00 0. -1.
         25    1    1    2    0    0 -0.18041789336E+03 -0.14412721715E+03 -0.15703473490E+03  0.30595453736E+03  0.12500000000E+03 0.  0.
         21    1    1    2  503  502 -0.22947948228E+02 -0.12818991178E+02 -0.49098197838E+03  0.49168510041E+03  0.00000000000E+00 0. -1.
          2    1    1    2  501    0  0.20336584159E+03  0.15694620833E+03 -0.31159342451E+03  0.40383194528E+03  0.00000000000E+00 0. -1.
<mgrwt>
<rscale>  4 0.27158798E+03</rscale>
<asrwt>0</asrwt>
<pdfrwt beam="1">  1       21 0.18604727E-01 0.27158798E+03</pdfrwt>
<pdfrwt beam="2">  1        2 0.16623705E+00 0.27158798E+03</pdfrwt>
<totfact> 0.77066201E+03</totfact>
</mgrwt>
</event>
<event>
 5    0  0.1287587E+000  0.3974688E+03  0.7546771E-02  0.1044660E+00
         21   -1    0    0  501  502  0.00000000000E+00  0.00000000000E+00  0.10879983036E+04  0.10879983036E+04  0.00000000000E+00 0. -1.
          2   -1    0    0  503    0 -0.00000000000E+00 -0.00000000000E+00 -0.13181757516E+04  0.13181757516E+04  0.00000000000E+00 0.  1.
         25    1    1    2    0    0  0.34740604129E+03  0.14525949760E+03  0.10088633769E+04  0.10840763776E+04  0.12500000000E+03 0.  0.
         21    1    1    2  503  502  0.16489187363E+02  0.27219557143E+02 -0.18436353583E+02  0.36779025604E+02  0.00000000000E+00 0.  1.
          2    1    1    2  501    0 -0.36389522865E+03 -0.17247905474E+03 -0.12206044713E+04  0.12853186520E+04  0.00000000000E+00 0.  1.
<mgrwt>
<rscale>  4 0.39746876E+03</rscale>
<asrwt>0</asrwt>
<pdfrwt beam="1">  1       21 0.16738435E+00 0.39746876E+03</pdfrwt>
<pdfrwt beam="2">  1        2 0.20279627E+00 0.39746876E+03</pdfrwt>
<totfact> 0.41922531E+01</totfact>
</mgrwt>
</event>
<event>
 5    0  0.1141006E+000  0.3607572E+03  0.7546771E-02  0.1058284E+00
          2   -1    0    0  503    0 -0.00000000000E+00  0.00000000000E+00  0.27854159727E+04  0.27854159727E+04  0.00000000000E+00 0. -1.
         21   -1    0    0  501  502  0.00000000000E+00 -0.00000000000E+00 -0.54877827648E+02  0.54877827648E+02  0.00000000000E+00 0.  1.
         25    1    1    2    0    0 -0.31393844780E+03 -0.17300607974E+03  0.14555326329E+04  0.15042236197E+04  0.12500000000E+03 0.  0.
         21    1    1    2  503  502  0.61409369342E+01  0.62544436496E+02  0.33400291501E+03  0.33986389169E+03  0.00000000000E+00 0. -1.
          2    1    1    2  501    0  0.30779751086E+03  0.11046164324E+03  0.94100259716E+03  0.99620628897E+03  0.00000000000E+00 0. -1.
<mgrwt>
<rscale>  4 0.36075720E+03</rscale>
<asrwt>0</asrwt>
<pdfrwt beam="1">  1       21 0.84427449E-02 0.36075720E+03</pdfrwt>
<pdfrwt beam="2">  1        2 0.42852542E+00 0.36075720E+03</pdfrwt>
<totfact> 0.36946943E+03</totfact>
</mgrwt>
</event>
<event>
 5    0  0.1141006E+000  0.2575200E+03  0.7546771E-02  0.1108642E+00
         21   -1    0    0  501  502  0.00000000000E+00  0.00000000000E+00  0.12985427563E+04  0.12985427563E+04  0.00000000000E+00 0.  1.
          1   -1    0    0  503    0 -0.00000000000E+00 -0.00000000000E+00 -0.24955160362E+04  0.24955160362E+04  0.00000000000E+00 0.  1.
         25    1    1    2    0    0 -0.22520678666E+03  0.11027362394E+02  0.12694813568E+04  0.12953947718E+04  0.12500000000E+03 0.  0.
         21    1    1    2  503  502  0.62710677305E+02  0.49067663256E+02 -0.10971189024E+03  0.13556165935E+03  0.00000000000E+00 0.  1.
          1    1    1    2  501    0  0.16249610935E+03 -0.60095025650E+02 -0.23567427464E+04  0.23631023614E+04  0.00000000000E+00 0.  1.
<mgrwt>
<rscale>  4 0.25752003E+03</rscale>
<asrwt>0</asrwt>
<pdfrwt beam="1">  1       21 0.19977581E+00 0.25752003E+03</pdfrwt>
<pdfrwt beam="2">  1        1 0.38392554E+00 0.25752003E+03</pdfrwt>
<totfact> 0.22693416E+00</totfact>
</mgrwt>
</event>
<event>
 5    0  0.1141006E+000  0.2353362E+03  0.7546771E-02  0.1122939E+00
         21   -1    0    0  501  502  0.00000000000E+00  0.00000000000E+00  0.56869232369E+02  0.56869232369E+02  0.00000000000E+00 0.  1.
          2   -1    0    0  503    0 -0.00000000000E+00 -0.00000000000E+00 -0.32039726424E+04  0.32039726424E+04  0.00000000000E+00 0.  1.
         25    1    1    2    0    0  0.93666063287E+02 -0.17912212615E+03 -0.23866287862E+03  0.33681305960E+03  0.12500000000E+03 0.  0.
         21    1    1    2  503  502 -0.77548390602E+02 -0.83866936590E+01 -0.34585117057E+03  0.35453789882E+03  0.00000000000E+00 0. -1.
          2    1    1    2  501    0 -0.16117672685E+02  0.18750881981E+03 -0.25625893608E+04  0.25694909163E+04  0.00000000000E+00 0.  1.
<mgrwt>
<rscale>  4 0.23533616E+03</rscale>
<asrwt>0</asrwt>
<pdfrwt beam="1">  1       21 0.87491097E-02 0.23533616E+03</pdfrwt>
<pdfrwt beam="2">  1        2 0.49291903E+00 0.23533616E+03</pdfrwt>
<totfact> 0.20691997E+03</totfact>
</mgrwt>
</event>
<event>
 5    0  0.1141006E+000  0.2356240E+03  0.7546771E-02  0.1122743E+00
          2   -1    0    0  503    0 -0.00000000000E+00  0.00000000000E+00  0.12849512928E+04  0.12849512928E+04  0.00000000000E+00 0. -1.
         21   -1    0    0  501  502  0.00000000000E+00 -0.00000000000E+00 -0.74168828294E+02  0.74168828294E+02  0.00000000000E+00 0.  1.
         25    1    1    2    0    0  0.61220416025E+02 -0.19552402061E+03  0.17464497663E+03  0.29682225294E+03  0.12500000000E+03 0.  0.
         21    1    1    2  503  502 -0.47301802396E+02  0.11419558621E+02  0.17863177839E+03  0.18514097083E+03  0.00000000000E+00 0. -1.
          2    1    1    2  501    0 -0.13918613629E+02  0.18410446199E+03  0.85750570951E+03  0.87715689735E+03  0.00000000000E+00 0. -1.
<mgrwt>
<rscale>  4 0.23562399E+03</rscale>
<asrwt>0</asrwt>
<pdfrwt beam="1">  1       21 0.11410590E-01 0.23562399E+03</pdfrwt>
<pdfrwt beam="2">  1        2 0.19768480E+00 0.23562399E+03</pdfrwt>
<totfact> 0.14528992E+04</totfact>
</mgrwt>
</event>
<event>
 5    0  0.1141006E+000  0.2681219E+03  0.7546771E-02  0.1102359E+00
         21   -1    0    0  501  502  0.00000000000E+00  0.00000000000E+00  0.33500401158E+02  0.33500401158E+02  0.00000000000E+00 0.  1.
          2   -1    0    0  503    0 -0.00000000000E+00 -0.00000000000E+00 -0.26673697883E+04  0.26673697883E+04  0.00000000000E+00 0. -1.
         25    1    1    2    0    0 -0.20064839787E+02  0.23635086215E+03 -0.67959717938E+03  0.73057624794E+03  0.12500000000E+03 0.  0.
         21    1    1    2  503  502  0.19736743077E+02 -0.24837888046E+02 -0.13065326452E+03  0.13444974987E+03  0.00000000000E+00 0.  1.
          2    1    1    2  501    0  0.32809670992E+00 -0.21151297410E+03 -0.18236189432E+04  0.18358441917E+04  0.00000000000E+00 0. -1.
<mgrwt>
<rscale>  4 0.26812185E+03</rscale>
<asrwt>0</asrwt>
<pdfrwt beam="1">  1       21 0.51539073E-02 0.26812185E+03</pdfrwt>
<pdfrwt beam="2">  1        2 0.41036463E+00 0.26812185E+03</pdfrwt>
<totfact> 0.10509137E+04</totfact>
</mgrwt>
</event>
<event>
 5    0  0.1141006E+000  0.2657665E+03  0.7546771E-02  0.1103727E+00
         21   -1    0    0  501  502  0.00000000000E+00  0.00000000000E+00  0.14801086924E+04  0.14801086924E+04  0.00000000000E+00 0.  1.
          3   -1    0    0  503    0 -0.00000000000E+00 -0.00000000000E+00 -0.32345773200E+03  0.32345773200E+03  0.00000000000E+00 0. -1.
         25    1    1    2    0    0  0.52825116295E+02 -0.22872950071E+03  0.14099995498E+04  0.14348628533E+04  0.12500000000E+03 0.  0.
         21    1    1    2  503  502 -0.31438036548E+02 -0.18250453736E+01 -0.10582434051E+02  0.33221511751E+02  0.00000000000E+00 0. -1.
          3    1    1    2  501    0 -0.21387079747E+02  0.23055454608E+03 -0.24276615539E+03  0.33548205928E+03  0.00000000000E+00 0. -1.
<mgrwt>
<rscale>  4 0.26576654E+03</rscale>
<asrwt>0</asrwt>
<pdfrwt beam="1">  1       21 0.22770903E+00 0.26576654E+03</pdfrwt>
<pdfrwt beam="2">  1        3 0.49762729E-01 0.26576654E+03</pdfrwt>
<totfact> 0.17078708E+01</totfact>
</mgrwt>
</event>
<event>
 5    0  0.1141006E+000  0.8318939E+03  0.7546771E-02  0.9514966E-01
          2   -1    0    0  503    0 -0.00000000000E+00  0.00000000000E+00  0.29572686136E+04  0.29572686136E+04  0.00000000000E+00 0. -1.
         21   -1    0    0  501  502  0.00000000000E+00 -0.00000000000E+00 -0.26086717138E+03  0.26086717138E+03  0.00000000000E+00 0.  1.
         25    1    1    2    0    0  0.70859449150E+03 -0.41751212452E+03  0.82641975716E+03  0.11726112495E+04  0.12500000000E+03 0.  0.
         21    1    1    2  503  502 -0.14981451084E+02  0.22305800181E+02  0.10530298362E+03  0.10867709491E+03  0.00000000000E+00 0. -1.
          2    1    1    2  501    0 -0.69361304042E+03  0.39520632434E+03  0.17646787014E+04  0.19368474406E+04  0.00000000000E+00 0. -1.
<mgrwt>
<rscale>  4 0.83189394E+03</rscale>
<asrwt>0</asrwt>
<pdfrwt beam="1">  1       21 0.40133413E-01 0.83189394E+03</pdfrwt>
<pdfrwt beam="2">  1        2 0.45496438E+00 0.83189394E+03</pdfrwt>
<totfact> 0.13196732E+02</totfact>
</mgrwt>
</event>
<event>
 5    0  0.1141006E+000  0.4082276E+03  0.7546771E-02  0.1040967E+00
         21   -1    0    0  503  502  0.00000000000E+00  0.00000000000E+00  0.30112055269E+03  0.30112055269E+03  0.00000000000E+00 0. -1.
         -1   -1    0    0    0  501 -0.00000000000E+00 -0.00000000000E+00 -0.30086326213E+04  0.30086326213E+04  0.00000000000E+00 0.  1.
         25    1    1    2    0    0 -0.38801284978E+03 -0.48045912553E+02  0.13887589243E+03  0.43332885295E+03  0.12500000000E+03 0.  0.
         21    1    1    2  503  501  0.46046876797E+02  0.33249879701E+01 -0.12467818129E+03  0.13295119141E+03  0.00000000000E+00 0. -1.
         -1    1    1    2    0  502  0.34196597298E+03  0.44720924583E+02 -0.27217097797E+04  0.27434731296E+04  0.00000000000E+00 0.  1.
<mgrwt>
<rscale>  4 0.40822762E+03</rscale>
<asrwt>0</asrwt>
<pdfrwt beam="1">  1       21 0.46326237E-01 0.40822762E+03</pdfrwt>
<pdfrwt beam="2">  1       -1 0.46286657E+00 0.40822762E+03</pdfrwt>
<totfact> 0.12164723E+00</totfact>
</mgrwt>
</event>
<event>
 5    0  0.1141006E+000  0.3313763E+03  0.7546771E-02  0.1070530E+00
         21   -1    0    0  501  502  0.00000000000E+00  0.00000000000E+00  0.74096707461E+03  0.74096707461E+03  0.00000000000E+00 0.  1.
          2   -1    0    0  503    0 -0.00000000000E+00 -0.00000000000E+00 -0.16031526305E+04  0.16031526305E+04  0.00000000000E+00 0.  1.
         25    1    1    2    0    0  0.68142355852E+02 -0.31043089536E+03  0.66167936633E+03  0.74461755638E+03  0.12500000000E+03 0.  0.
         21    1    1    2  503  502 -0.49418568881E+02  0.42636543592E+01 -0.48640698973E+01  0.49840072980E+02  0.00000000000E+00 0.  1.
          2    1    1    2  501    0 -0.18723786972E+02  0.30616724100E+03 -0.15190008523E+04  0.15496620758E+04  0.00000000000E+00 0.  1.
<mgrwt>
<rscale>  4 0.33137633E+03</rscale>
<asrwt>0</asrwt>
<pdfrwt beam="1">  1       21 0.11399494E+00 0.33137633E+03</pdfrwt>
<pdfrwt beam="2">  1        2 0.24663887E+00 0.33137633E+03</pdfrwt>
<totfact> 0.83532123E+01</totfact>
</mgrwt>
</event>
<event>
 5    0  0.1141006E+000  0.2404985E+03  0.7546771E-02  0.1119461E+00
          2   -1    0    0  503    0 -0.00000000000E+00  0.00000000000E+00  0.26273998900E+03  0.26273998900E+03  0.00000000000E+00 0. -1.
         21   -1    0    0  501  502  0.00000000000E+00 -0.00000000000E+00 -0.65427631841E+03  0.65427631841E+03  0.00000000000E+00 0.  1.
         25    1    1    2    0    0 -0.27505972751E+02 -0.21929687503E+03 -0.54456844438E+03  0.60085563037E+03  0.12500000000E+03 0.  0.
         21    1    1    2  503  502  0.82242818333E+02  0.95857542681E+02  0.22384003525E+02  0.12827156064E+03  0.00000000000E+00 0.  1.
          2    1    1    2  501    0 -0.54736845582E+02  0.12343933235E+03  0.13064811144E+03  0.18788911639E+03  0.00000000000E+00 0. -1.
<mgrwt>
<rscale>  4 0.24049849E+03</rscale>
<asrwt>0</asrwt>
<pdfrwt beam="1">  1       21 0.10065789E+00 0.24049849E+03</pdfrwt>
<pdfrwt beam="2">  1        2 0.40421537E-01 0.24049849E+03</pdfrwt>
<totfact> 0.12360416E+03</totfact>
</mgrwt>
</event>
<event>
 5    0  0.1141006E+000  0.2385531E+03  0.7546771E-02  0.1120760E+00
         -2   -1    0    0    0  501 -0.00000000000E+00  0.00000000000E+00  0.22040481035E+04  0.22040481035E+04  0.00000000000E+00 0. -1.
         21   -1    0    0  503  502  0.00000000000E+00 -0.00000000000E+00 -0.35773355688E+02  0.35773355688E+02  0.00000000000E+00 0. -1.
         25    1    1    2    0    0 -0.20122299080E+03 -0.97455184751E+01  0.57599565668E+03  0.62288174132E+03  0.12500000000E+03 0.  0.
         21    1    1    2  503  501 -0.11892256110E+01 -0.37312887380E+02  0.69122474473E+03  0.69223212403E+03  0.00000000000E+00 0. -1.
         -2    1    1    2    0  502  0.20241221641E+03  0.47058405855E+02  0.90105434638E+03  0.92470759381E+03  0.00000000000E+00 0. -1.
<mgrwt>
<rscale>  4 0.23855313E+03</rscale>
<asrwt>0</asrwt>
<pdfrwt beam="1">  1       21 0.55035949E-02 0.23855313E+03</pdfrwt>
<pdfrwt beam="2">  1       -2 0.33908422E+00 0.23855313E+03</pdfrwt>
<totfact> 0.40757809E+02</totfact>
</mgrwt>
</event>
<event>
 5    0  0.1141006E+000  0.2541608E+03  0.7546771E-02  0.1110703E+00
          2   -1    0    0  503    0 -0.00000000000E+00  0.00000000000E+00  0.22457996669E+04  0.22457996669E+04  0.00000000000E+00 0.  1.
         21   -1    0    0  501  502  0.00000000000E+00 -0.00000000000E+00 -0.70133543673E+02  0.70133543673E+02  0.00000000000E+00 0.  1.
         25    1    1    2    0    0  0.16702774490E+03  0.18366054778E+03  0.14686227645E+04  0.14946930417E+04  0.12500000000E+03 0.  0.
         21    1    1    2  503  502 -0.88521839247E+01 -0.34261820767E+02  0.55423720455E+03  0.55536574654E+03  0.00000000000E+00 0. -1.
          2    1    1    2  501    0 -0.15817556098E+03 -0.14939872701E+03  0.15280615420E+03  0.26587442240E+03  0.00000000000E+00 0.  1.
<mgrwt>
<rscale>  4 0.25416080E+03</rscale>
<asrwt>0</asrwt>
<pdfrwt beam="1">  1       21 0.10789778E-01 0.25416080E+03</pdfrwt>
<pdfrwt beam="2">  1        2 0.34550759E+00 0.25416080E+03</pdfrwt>
<totfact> 0.49366229E+03</totfact>
</mgrwt>
</event>
<event>
 5    0  0.1141006E+000  0.3426585E+03  0.7546771E-02  0.1065669E+00
         21   -1    0    0  501  502  0.00000000000E+00  0.00000000000E+00  0.42125440831E+03  0.42125440831E+03  0.00000000000E+00 0. -1.
          1   -1    0    0  503    0 -0.00000000000E+00 -0.00000000000E+00 -0.51523781576E+03  0.51523781576E+03  0.00000000000E+00 0. -1.
         25    1    1    2    0    0 -0.32376347988E+01 -0.31256436263E+03  0.24734167211E+03  0.41774378012E+03  0.12500000000E+03 0.  0.
         21    1    1    2  503  502 -0.10845866956E+02 -0.33094467136E+02 -0.73198513674E+02  0.81061081840E+02  0.00000000000E+00 0. -1.
          1    1    1    2  501    0  0.14083501755E+02  0.34565882977E+03 -0.26812656589E+03  0.43768736211E+03  0.00000000000E+00 0. -1.
<mgrwt>
<rscale>  4 0.34265850E+03</rscale>
<asrwt>0</asrwt>
<pdfrwt beam="1">  1       21 0.64808371E-01 0.34265850E+03</pdfrwt>
<pdfrwt beam="2">  1        1 0.79267356E-01 0.34265850E+03</pdfrwt>
<totfact> 0.99128583E+02</totfact>
</mgrwt>
</event>
<event>
 5    0  0.1141006E+000  0.3929077E+03  0.7546771E-02  0.1046264E+00
         -4   -1    0    0    0  501 -0.00000000000E+00  0.00000000000E+00  0.69731468582E+03  0.69731468582E+03  0.00000000000E+00 0.  1.
         21   -1    0    0  503  502  0.00000000000E+00 -0.00000000000E+00 -0.66059795189E+03  0.66059795189E+03  0.00000000000E+00 0. -1.
         25    1    1    2    0    0 -0.35391811577E+03 -0.10065184540E+03 -0.50958931664E+03  0.64085497445E+03  0.12500000000E+03 0.  0.
         21    1    1    2  503  501 -0.45308324484E+02 -0.69488080475E+01  0.26809251136E+02  0.53102411879E+02  0.00000000000E+00 0.  1.
         -4    1    1    2    0  502  0.39922644025E+03  0.10760065344E+03  0.51949679943E+03  0.66395525138E+03  0.00000000000E+00 0.  1.
<mgrwt>
<rscale>  4 0.39290774E+03</rscale>
<asrwt>0</asrwt>
<pdfrwt beam="1">  1       21 0.10163045E+00 0.39290774E+03</pdfrwt>
<pdfrwt beam="2">  1       -4 0.10727918E+00 0.39290774E+03</pdfrwt>
<totfact> 0.22549217E+01</totfact>
</mgrwt>
</event>
<event>
 5    0  0.1141006E+000  0.2400279E+03  0.7546771E-02  0.1119774E+00
         21   -1    0    0  501  502  0.00000000000E+00  0.00000000000E+00  0.26658060036E+03  0.26658060036E+03  0.00000000000E+00 0.  1.
          3   -1    0    0  503    0 -0.00000000000E+00 -0.00000000000E+00 -0.61153587247E+03  0.61153587247E+03  0.00000000000E+00 0.  1.
         25    1    1    2    0    0  0.15837440411E+03  0.13169594663E+03  0.18075135181E+03  0.30120146981E+03  0.12500000000E+03 0.  0.
         21    1    1    2  503  502 -0.28704530133E+02  0.18498647628E+02 -0.42267889802E+02  0.54338977930E+02  0.00000000000E+00 0.  1.
          3    1    1    2  501    0 -0.12966987398E+03 -0.15019459426E+03 -0.48343873412E+03  0.52257602510E+03  0.00000000000E+00 0.  1.
<mgrwt>
<rscale>  4 0.24002792E+03</rscale>
<asrwt>0</asrwt>
<pdfrwt beam="1">  1       21 0.41012401E-01 0.24002792E+03</pdfrwt>
<pdfrwt beam="2">  1        3 0.94082441E-01 0.24002792E+03</pdfrwt>
<totfact> 0.29164582E+02</totfact>
</mgrwt>
</event>
<event>
 5    0  0.1141006E+000  0.2856659E+03  0.7546771E-02  0.1092634E+00
          2   -1    0    0  503    0 -0.00000000000E+00  0.00000000000E+00  0.30729989947E+03  0.30729989947E+03  0.00000000000E+00 0.  1.
         21   -1    0    0  501  502  0.00000000000E+00 -0.00000000000E+00 -0.30253801875E+04  0.30253801875E+04  0.00000000000E+00 0. -1.
         25    1    1    2    0    0 -0.12595206644E+03 -0.22386625917E+03 -0.29545414526E+04  0.29683194269E+04  0.12500000000E+03 0.  0.
         21    1    1    2  503  502  0.55463180197E+02  0.59516844840E+02  0.20360028553E+02  0.83862685027E+02  0.00000000000E+00 0. -1.
          2    1    1    2  501    0  0.70488886243E+02  0.16434941433E+03  0.21610113595E+03  0.28049797510E+03  0.00000000000E+00 0.  1.
<mgrwt>
<rscale>  4 0.28566593E+03</rscale>
<asrwt>0</asrwt>
<pdfrwt beam="1">  1       21 0.46544310E+00 0.28566593E+03</pdfrwt>
<pdfrwt beam="2">  1        2 0.47276909E-01 0.28566593E+03</pdfrwt>
<totfact> 0.37867334E+00</totfact>
</mgrwt>
</event>
<event>
 5    0  0.1141006E+000  0.2511043E+03  0.7546771E-02  0.1112609E+00
         21   -1    0    0  501  502  0.00000000000E+00  0.00000000000E+00  0.18737347610E+03  0.18737347610E+03  0.00000000000E+00 0. -1.
          2   -1    0    0  503    0 -0.00000000000E+00 -0.00000000000E+00 -0.34528493470E+03  0.34528493470E+03  0.00000000000E+00 0. -1.
         25    1    1    2    0    0 -0.76928007255E+02  0.20801968662E+03 -0.42561812197E+02  0.25812132066E+03  0.12500000000E+03 0.  0.
         21    1    1    2  503  502  0.21999258998E+02 -0.88623380365E+00 -0.43090160333E+02  0.48389200493E+02  0.00000000000E+00 0. -1.
          2    1    1    2  501    0  0.54928748256E+02 -0.20713345282E+03 -0.72259486069E+02  0.22614788964E+03  0.00000000000E+00 0. -1.
<mgrwt>
<rscale>  4 0.25110431E+03</rscale>
<asrwt>0</asrwt>
<pdfrwt beam="1">  1       21 0.28826689E-01 0.25110431E+03</pdfrwt>
<pdfrwt beam="2">  1        2 0.53120759E-01 0.25110431E+03</pdfrwt>
<totfact> 0.13290644E+04</totfact>
</mgrwt>
</event>
<event>
 5    0  0.1141006E+000  0.3191423E+03  0.7546771E-02  0.1076045E+00
         21   -1    0    0  501  502  0.00000000000E+00  0.00000000000E+00  0.38904241211E+03  0.38904241211E+03  0.00000000000E+00 0.  1.
          2   -1    0    0  503    0 -0.00000000000E+00 -0.00000000000E+00 -0.77231841911E+03  0.77231841911E+03  0.00000000000E+00 0.  1.
         25    1    1    2    0    0  0.15001683474E+03 -0.26033669243E+03  0.26791199493E+03  0.42152352385E+03  0.12500000000E+03 0.  0.
         21    1    1    2  503  502  0.90053322768E+01  0.77334809330E+02 -0.52448717901E+02  0.93875645153E+02  0.00000000000E+00 0.  1.
          2    1    1    2  501    0 -0.15902216702E+03  0.18300188310E+03 -0.59873928402E+03  0.64596166221E+03  0.00000000000E+00 0.  1.
<mgrwt>
<rscale>  4 0.31914225E+03</rscale>
<asrwt>0</asrwt>
<pdfrwt beam="1">  1       21 0.59852679E-01 0.31914225E+03</pdfrwt>
<pdfrwt beam="2">  1        2 0.11881822E+00 0.31914225E+03</pdfrwt>
<totfact> 0.11568090E+03</totfact>
</mgrwt>
</event>
<event>
 5    0  0.1141006E+000  0.2344063E+03  0.7546771E-02  0.1123576E+00
         21   -1    0    0  501  502  0.00000000000E+00  0.00000000000E+00  0.17706304702E+03  0.17706304702E+03  0.00000000000E+00 0. -1.
          1   -1    0    0  503    0 -0.00000000000E+00 -0.00000000000E+00 -0.57722636786E+03  0.57722636786E+03  0.00000000000E+00 0.  1.
         25    1    1    2    0    0 -0.19690432889E+03 -0.45228727652E+02  0.57391353378E+02  0.24440891960E+03  0.12500000000E+03 0.  0.
         21    1    1    2  503  502  0.24863420659E+02 -0.24447403885E+02 -0.11626759552E+03  0.12138376750E+03  0.00000000000E+00 0.  1.
          1    1    1    2  501    0  0.17204090823E+03  0.69676131536E+02 -0.34128707870E+03  0.38849672778E+03  0.00000000000E+00 0.  1.
<mgrwt>
<rscale>  4 0.23440630E+03</rscale>
<asrwt>0</asrwt>
<pdfrwt beam="1">  1       21 0.27240469E-01 0.23440630E+03</pdfrwt>
<pdfrwt beam="2">  1        1 0.88804057E-01 0.23440630E+03</pdfrwt>
<totfact> 0.52214528E+03</totfact>
</mgrwt>
</event>
<event>
 5    0  0.1141006E+000  0.2725685E+03  0.7546771E-02  0.1099819E+00
          2   -1    0    0  503    0 -0.00000000000E+00  0.00000000000E+00  0.25637705687E+04  0.25637705687E+04  0.00000000000E+00 0.  1.
         21   -1    0    0  501  502  0.00000000000E+00 -0.00000000000E+00 -0.66830014990E+03  0.66830014990E+03  0.00000000000E+00 0. -1.
         25    1    1    2    0    0  0.23925414455E+03 -0.46641251178E+02 -0.62012220662E+03  0.67793399616E+03  0.12500000000E+03 0.  0.
         21    1    1    2  503  502 -0.13402129549E+03 -0.64241893302E+02  0.31564951072E+03  0.34888872455E+03  0.00000000000E+00 0. -1.
          2    1    1    2  501    0 -0.10523284906E+03  0.11088314448E+03  0.21999431147E+04  0.22052479979E+04  0.00000000000E+00 0.  1.
<mgrwt>
<rscale>  4 0.27256847E+03</rscale>
<asrwt>0</asrwt>
<pdfrwt beam="1">  1       21 0.10281541E+00 0.27256847E+03</pdfrwt>
<pdfrwt beam="2">  1        2 0.39442624E+00 0.27256847E+03</pdfrwt>
<totfact> 0.34320448E+01</totfact>
</mgrwt>
</event>
<event>
 5    0  0.1141006E+000  0.2473364E+03  0.7546771E-02  0.1115000E+00
          2   -1    0    0  503    0 -0.00000000000E+00  0.00000000000E+00  0.16810992069E+04  0.16810992069E+04  0.00000000000E+00 0. -1.
         21   -1    0    0  501  502  0.00000000000E+00 -0.00000000000E+00 -0.90281976314E+02  0.90281976314E+02  0.00000000000E+00 0. -1.
         25    1    1    2    0    0  0.18476346398E+03 -0.10467547697E+03  0.11368523428E+03  0.27137395894E+03  0.12500000000E+03 0.  0.
         21    1    1    2  503  502 -0.91714987153E+01 -0.33045342154E+02  0.12661847772E+03  0.13118060042E+03  0.00000000000E+00 0. -1.
          2    1    1    2  501    0 -0.17559196526E+03  0.13772081912E+03  0.13505135186E+04  0.13688266239E+04  0.00000000000E+00 0. -1.
<mgrwt>
<rscale>  4 0.24733643E+03</rscale>
<asrwt>0</asrwt>
<pdfrwt beam="1">  1       21 0.13889536E-01 0.24733643E+03</pdfrwt>
<pdfrwt beam="2">  1        2 0.25863062E+00 0.24733643E+03</pdfrwt>
<totfact> 0.62215984E+03</totfact>
</mgrwt>
</event>
<event>
 5    0  0.1141006E+000  0.2716453E+03  0.7546771E-02  0.1100342E+00
         -1   -1    0    0    0  501 -0.00000000000E+00  0.00000000000E+00  0.28731775864E+04  0.28731775864E+04  0.00000000000E+00 0.  1.
         21   -1    0    0  503  502  0.00000000000E+00 -0.00000000000E+00 -0.10373780143E+03  0.10373780143E+03  0.00000000000E+00 0. -1.
         25    1    1    2    0    0 -0.72035124959E+02 -0.23420304629E+03  0.12276726007E+03  0.30122570652E+03  0.12500000000E+03 0.  0.
         21    1    1    2  503  501  0.24509565884E+02  0.13487698083E+02  0.17760093555E+04  0.17762296777E+04  0.00000000000E+00 0.  1.
         -1    1    1    2    0  502  0.47525559075E+02  0.22071534821E+03  0.87066316932E+03  0.89946000362E+03  0.00000000000E+00 0.  1.
<mgrwt>
<rscale>  4 0.27164528E+03</rscale>
<asrwt>0</asrwt>
<pdfrwt beam="1">  1       21 0.15959664E-01 0.27164528E+03</pdfrwt>
<pdfrwt beam="2">  1       -1 0.44202726E+00 0.27164528E+03</pdfrwt>
<totfact> 0.14732449E+01</totfact>
</mgrwt>
</event>
<event>
 5    0  0.1141006E+000  0.3165097E+03  0.7546771E-02  0.1077267E+00
         21   -1    0    0  501  502  0.00000000000E+00  0.00000000000E+00  0.17294945654E+03  0.17294945654E+03  0.00000000000E+00 0. -1.
          1   -1    0    0  503    0 -0.00000000000E+00 -0.00000000000E+00 -0.15827579872E+04  0.15827579872E+04  0.00000000000E+00 0. -1.
         25    1    1    2    0    0  0.77829133790E+02 -0.28520961392E+03 -0.12342711421E+02  0.32121525566E+03  0.12500000000E+03 0.  0.
         21    1    1    2  503  502 -0.15957721221E+02  0.29842319251E+02 -0.44988720105E+03  0.45115818351E+03  0.00000000000E+00 0. -1.
          1    1    1    2  501    0 -0.61871412569E+02  0.25536729467E+03 -0.94757861819E+03  0.98333400456E+03  0.00000000000E+00 0. -1.
<mgrwt>
<rscale>  4 0.31650974E+03</rscale>
<asrwt>0</asrwt>
<pdfrwt beam="1">  1       21 0.26607610E-01 0.31650974E+03</pdfrwt>
<pdfrwt beam="2">  1        1 0.24350122E+00 0.31650974E+03</pdfrwt>
<totfact> 0.90667915E+02</totfact>
</mgrwt>
</event>
<event>
 5    0  0.1141006E+000  0.2645817E+03  0.7546771E-02  0.1104421E+00
          2   -1    0    0  503    0 -0.00000000000E+00  0.00000000000E+00  0.12170125098E+04  0.12170125098E+04  0.00000000000E+00 0.  1.
         21   -1    0    0  501  502  0.00000000000E+00 -0.00000000000E+00 -0.21230390365E+04  0.21230390365E+04  0.00000000000E+00 0. -1.
         25    1    1    2    0    0  0.22722148866E+03 -0.54019461079E+02 -0.20914946681E+04  0.21082036557E+04  0.12500000000E+03 0.  0.
         21    1    1    2  503  502 -0.58345373545E+02 -0.30096523361E+02  0.54710182109E+02  0.85458688025E+02  0.00000000000E+00 0. -1.
          2    1    1    2  501    0 -0.16887611511E+03  0.84115984440E+02  0.11307579593E+04  0.11463892026E+04  0.00000000000E+00 0.  1.
<mgrwt>
<rscale>  4 0.26458171E+03</rscale>
<asrwt>0</asrwt>
<pdfrwt beam="1">  1       21 0.32662139E+00 0.26458171E+03</pdfrwt>
<pdfrwt beam="2">  1        2 0.18723269E+00 0.26458171E+03</pdfrwt>
<totfact> 0.53964124E+00</totfact>
</mgrwt>
</event>
<event>
 5    0  0.1141006E+000  0.4016995E+03  0.7546771E-02  0.1043193E+00
          2   -1    0    0  503    0 -0.00000000000E+00  0.00000000000E+00  0.12368260768E+04  0.12368260768E+04  0.00000000000E+00 0.  1.
         21   -1    0    0  501  502  0.00000000000E+00 -0.00000000000E+00 -0.17083854643E+03  0.17083854643E+03  0.00000000000E+00 0.  1.
         25    1    1    2    0    0  0.22947415127E+02 -0.37494831706E+03  0.18777296361E+03  0.43817406381E+03  0.12500000000E+03 0.  0.
         21    1    1    2  503  502  0.20921595526E+02 -0.64268210618E+01  0.21415324393E+02  0.30620798605E+02  0.00000000000E+00 0. -1.
          2    1    1    2  501    0 -0.43869010653E+02  0.38137513812E+03  0.85679924233E+03  0.93886976079E+03  0.00000000000E+00 0.  1.
<mgrwt>
<rscale>  4 0.40169949E+03</rscale>
<asrwt>0</asrwt>
<pdfrwt beam="1">  1       21 0.26282854E-01 0.40169949E+03</pdfrwt>
<pdfrwt beam="2">  1        2 0.19028093E+00 0.40169949E+03</pdfrwt>
<totfact> 0.31274721E+03</totfact>
</mgrwt>
</event>
<event>
 5    0  0.1141006E+000  0.3019553E+03  0.7546771E-02  0.1084267E+00
          2   -1    0    0  503    0 -0.00000000000E+00  0.00000000000E+00  0.46647457779E+03  0.46647457779E+03  0.00000000000E+00 0. -1.
         21   -1    0    0  501  502  0.00000000000E+00 -0.00000000000E+00 -0.54435348326E+03  0.54435348326E+03  0.00000000000E+00 0.  1.
         25    1    1    2    0    0 -0.71903459162E+02  0.26529590165E+03 -0.45304875911E+03  0.54445403938E+03  0.12500000000E+03 0.  0.
         21    1    1    2  503  502  0.13354436695E+02 -0.16791953648E+02  0.23791232026E+02  0.32036438755E+02  0.00000000000E+00 0. -1.
          2    1    1    2  501    0  0.58549022467E+02 -0.24850394800E+03  0.35137862161E+03  0.43433758291E+03  0.00000000000E+00 0. -1.
<mgrwt>
<rscale>  4 0.30195533E+03</rscale>
<asrwt>0</asrwt>
<pdfrwt beam="1">  1       21 0.83746690E-01 0.30195533E+03</pdfrwt>
<pdfrwt beam="2">  1        2 0.71765320E-01 0.30195533E+03</pdfrwt>
<totfact> 0.99480184E+02</totfact>
</mgrwt>
</event>
<event>
 5    0  0.1141006E+000  0.3215070E+03  0.7546771E-02  0.1074958E+00
         -1   -1    0    0    0  501 -0.00000000000E+00  0.00000000000E+00  0.12098551723E+04  0.12098551723E+04  0.00000000000E+00 0. -1.
         21   -1    0    0  503  502  0.00000000000E+00 -0.00000000000E+00 -0.15721793733E+03  0.15721793733E+03  0.00000000000E+00 0. -1.
         25    1    1    2    0    0  0.11414764298E+03 -0.26404923907E+03  0.91626470269E+02  0.32675999618E+03  0.12500000000E+03 0.  0.
         21    1    1    2  503  501  0.57168901613E+02 -0.23113639326E+02  0.11249416785E+03  0.12828663779E+03  0.00000000000E+00 0.  1.
         -1    1    1    2    0  502 -0.17131654459E+03  0.28716287840E+03  0.84851659687E+03  0.91202647568E+03  0.00000000000E+00 0. -1.
<mgrwt>
<rscale>  4 0.32150696E+03</rscale>
<asrwt>0</asrwt>
<pdfrwt beam="1">  1       21 0.24187376E-01 0.32150696E+03</pdfrwt>
<pdfrwt beam="2">  1       -1 0.18613156E+00 0.32150696E+03</pdfrwt>
<totfact> 0.30140180E+02</totfact>
</mgrwt>
</event>
<event>
 5    0  0.1141006E+000  0.5734793E+03  0.7546771E-02  0.9962009E-01
          1   -1    0    0  503    0 -0.00000000000E+00  0.00000000000E+00  0.15728336269E+04  0.15728336269E+04  0.00000000000E+00 0.  1.
         21   -1    0    0  501  502  0.00000000000E+00 -0.00000000000E+00 -0.29824491932E+03  0.29824491932E+03  0.00000000000E+00 0.  1.
         25    1    1    2    0    0 -0.50193112224E+03 -0.30550966409E+03  0.34729680631E+03  0.69390999272E+03  0.12500000000E+03 0.  0.
         21    1    1    2  503  502  0.11041329699E+03 -0.83269978445E+02  0.63454741771E+02  0.15215613598E+03  0.00000000000E+00 0.  1.
          1    1    1    2  501    0  0.39151782525E+03  0.38877964253E+03  0.86383715947E+03  0.10250124175E+04  0.00000000000E+00 0.  1.
<mgrwt>
<rscale>  4 0.57347934E+03</rscale>
<asrwt>0</asrwt>
<pdfrwt beam="1">  1       21 0.45883835E-01 0.57347934E+03</pdfrwt>
<pdfrwt beam="2">  1        1 0.24197440E+00 0.57347934E+03</pdfrwt>
<totfact> 0.28231759E+02</totfact>
</mgrwt>
</event>
<event>
 5    0  0.1141006E+000  0.2763314E+03  0.7546771E-02  0.1097710E+00
         21   -1    0    0  501  502  0.00000000000E+00  0.00000000000E+00  0.10459859159E+03  0.10459859159E+03  0.00000000000E+00 0.  1.
          2   -1    0    0  503    0 -0.00000000000E+00 -0.00000000000E+00 -0.11730639126E+04  0.11730639126E+04  0.00000000000E+00 0.  1.
         25    1    1    2    0    0  0.20817795577E+03  0.15661249448E+02 -0.13454416336E+03  0.27804760005E+03  0.12500000000E+03 0.  0.
         21    1    1    2  503  502  0.47265116416E+02 -0.41696164995E+02 -0.54004404097E+02  0.83000223295E+02  0.00000000000E+00 0. -1.
          2    1    1    2  501    0 -0.25544307218E+03  0.26034915547E+02 -0.87991675352E+03  0.91661468081E+03  0.00000000000E+00 0.  1.
<mgrwt>
<rscale>  4 0.27633140E+03</rscale>
<asrwt>0</asrwt>
<pdfrwt beam="1">  1       21 0.16092091E-01 0.27633140E+03</pdfrwt>
<pdfrwt beam="2">  1        2 0.18047137E+00 0.27633140E+03</pdfrwt>
<totfact> 0.88990228E+03</totfact>
</mgrwt>
</event>
<event>
 5    0  0.1141006E+000  0.3920864E+03  0.7546771E-02  0.1046555E+00
          2   -1    0    0  503    0 -0.00000000000E+00  0.00000000000E+00  0.13721102826E+04  0.13721102826E+04  0.00000000000E+00 0. -1.
         21   -1    0    0  501  502  0.00000000000E+00 -0.00000000000E+00 -0.22188810606E+03  0.22188810606E+03  0.00000000000E+00 0.  1.
         25    1    1    2    0    0  0.28613452567E+03  0.13291541469E+03  0.11094130564E+02  0.33954020966E+03  0.12500000000E+03 0.  0.
         21    1    1    2  503  502  0.87565619779E+02 -0.43579859468E+02  0.75510269008E+02  0.12356675380E+03  0.00000000000E+00 0.  1.
          2    1    1    2  501    0 -0.37370014545E+03 -0.89335555220E+02  0.10636177770E+04  0.11308914252E+04  0.00000000000E+00 0. -1.
<mgrwt>
<rscale>  4 0.39208638E+03</rscale>
<asrwt>0</asrwt>
<pdfrwt beam="1">  1       21 0.34136632E-01 0.39208638E+03</pdfrwt>
<pdfrwt beam="2">  1        2 0.21109388E+00 0.39208638E+03</pdfrwt>
<totfact> 0.15670335E+03</totfact>
</mgrwt>
</event>
<event>
 5    0  0.1141006E+000  0.3234729E+03  0.7546771E-02  0.1074062E+00
         21   -1    0    0  501  502  0.00000000000E+00  0.00000000000E+00  0.42410229464E+03  0.42410229464E+03  0.00000000000E+00 0.  1.
          2   -1    0    0  503    0 -0.00000000000E+00 -0.00000000000E+00 -0.11934869751E+04  0.11934869751E+04  0.00000000000E+00 0.  1.
         25    1    1    2    0    0  0.24323225682E+03 -0.16860796642E+03  0.32646239671E+03  0.45803195692E+03  0.12500000000E+03 0.  0.
         21    1    1    2  503  502  0.18416747844E+02 -0.37066436272E+02 -0.19133508986E+03  0.19576060357E+03  0.00000000000E+00 0. -1.
          2    1    1    2  501    0 -0.26164900466E+03  0.20567440269E+03 -0.90451198727E+03  0.96379670921E+03  0.00000000000E+00 0.  1.
<mgrwt>
<rscale>  4 0.32347290E+03</rscale>
<asrwt>0</asrwt>
<pdfrwt beam="1">  1       21 0.65246507E-01 0.32347290E+03</pdfrwt>
<pdfrwt beam="2">  1        2 0.18361338E+00 0.32347290E+03</pdfrwt>
<totfact> 0.51857857E+02</totfact>
</mgrwt>
</event>
<event>
 5    0  0.1141006E+000  0.2820338E+03  0.7546771E-02  0.1094583E+00
         21   -1    0    0  501  502  0.00000000000E+00  0.00000000000E+00  0.15815536316E+03  0.15815536316E+03  0.00000000000E+00 0. -1.
          2   -1    0    0  503    0 -0.00000000000E+00 -0.00000000000E+00 -0.14267049852E+04  0.14267049852E+04  0.00000000000E+00 0.  1.
         25    1    1    2    0    0 -0.15568425928E+03  0.20600302259E+03 -0.96861006455E+01  0.28704294879E+03  0.12500000000E+03 0.  0.
         21    1    1    2  503  502  0.56155391664E+02  0.13709827454E+01 -0.54319751752E+03  0.54609417745E+03  0.00000000000E+00 0. -1.
          2    1    1    2  501    0  0.99528867619E+02 -0.20737400534E+03 -0.71566600389E+03  0.75172322214E+03  0.00000000000E+00 0.  1.
<mgrwt>
<rscale>  4 0.28203385E+03</rscale>
<asrwt>0</asrwt>
<pdfrwt beam="1">  1       21 0.24331594E-01 0.28203385E+03</pdfrwt>
<pdfrwt beam="2">  1        2 0.21949308E+00 0.28203385E+03</pdfrwt>
<totfact> 0.29463949E+03</totfact>
</mgrwt>
</event>
<event>
 5    0  0.1141006E+000  0.2594522E+03  0.7546771E-02  0.1107473E+00
          1   -1    0    0  503    0 -0.00000000000E+00  0.00000000000E+00  0.82385523828E+03  0.82385523828E+03  0.00000000000E+00 0.  1.
         21   -1    0    0  501  502  0.00000000000E+00 -0.00000000000E+00 -0.31065988372E+03  0.31065988372E+03  0.00000000000E+00 0. -1.
         25    1    1    2    0    0  0.20519661244E+03 -0.11099845761E+03 -0.20741041787E+03  0.33625940699E+03  0.12500000000E+03 0.  0.
         21    1    1    2  503  502  0.20746055668E+01  0.12789667304E+03  0.19722661917E+03  0.23507488651E+03  0.00000000000E+00 0.  1.
          1    1    1    2  501    0 -0.20727121801E+03 -0.16898215431E+02  0.52337915327E+03  0.56318082849E+03  0.00000000000E+00 0.  1.
<mgrwt>
<rscale>  4 0.25945224E+03</rscale>
<asrwt>0</asrwt>
<pdfrwt beam="1">  1       21 0.47793828E-01 0.25945224E+03</pdfrwt>
<pdfrwt beam="2">  1        1 0.12674696E+00 0.25945224E+03</pdfrwt>
<totfact> 0.99683124E+02</totfact>
</mgrwt>
</event>
<event>
 5    0  0.1141006E+000  0.2489864E+03  0.7546771E-02  0.1113947E+00
         21   -1    0    0  501  502  0.00000000000E+00  0.00000000000E+00  0.19310258699E+03  0.19310258699E+03  0.00000000000E+00 0. -1.
          2   -1    0    0  503    0 -0.00000000000E+00 -0.00000000000E+00 -0.36546460245E+03  0.36546460245E+03  0.00000000000E+00 0. -1.
         25    1    1    2    0    0  0.15504092817E+03  0.13504814737E+03 -0.39587092290E+02  0.24386026612E+03  0.12500000000E+03 0.  0.
         21    1    1    2  503  502  0.53282464680E+01  0.23200818545E+02 -0.79780549732E+02  0.83256256865E+02  0.00000000000E+00 0.  1.
          2    1    1    2  501    0 -0.16036917464E+03 -0.15824896591E+03 -0.52994373443E+02  0.23145066646E+03  0.00000000000E+00 0. -1.
<mgrwt>
<rscale>  4 0.24898640E+03</rscale>
<asrwt>0</asrwt>
<pdfrwt beam="1">  1       21 0.29708091E-01 0.24898640E+03</pdfrwt>
<pdfrwt beam="2">  1        2 0.56225323E-01 0.24898640E+03</pdfrwt>
<totfact> 0.11786088E+04</totfact>
</mgrwt>
</event>
<event>
 5    0  0.1141006E+000  0.2662523E+03  0.7546771E-02  0.1103444E+00
         21   -1    0    0  503  502  0.00000000000E+00  0.00000000000E+00  0.96219678156E+02  0.96219678156E+02  0.00000000000E+00 0. -1.
         -4   -1    0    0    0  501 -0.00000000000E+00 -0.00000000000E+00 -0.79929724386E+03  0.79929724386E+03  0.00000000000E+00 0. -1.
         25    1    1    2    0    0  0.87324830128E+02 -0.21195985027E+03 -0.29187714589E+03  0.39162465752E+03  0.12500000000E+03 0.  0.
         21    1    1    2  503  501 -0.36811389025E+02 -0.25950958783E+02 -0.93514131858E+02  0.10379510336E+03  0.00000000000E+00 0.  1.
         -4    1    1    2    0  502 -0.50513441103E+02  0.23791080905E+03 -0.31768628795E+03  0.40009716113E+03  0.00000000000E+00 0. -1.
<mgrwt>
<rscale>  4 0.26625235E+03</rscale>
<asrwt>0</asrwt>
<pdfrwt beam="1">  1       21 0.14803027E-01 0.26625235E+03</pdfrwt>
<pdfrwt beam="2">  1       -4 0.12296881E+00 0.26625235E+03</pdfrwt>
<totfact> 0.88273354E+02</totfact>
</mgrwt>
</event>
<event>
 5    0  0.1141006E+000  0.5295515E+03  0.7546771E-02  0.1006341E+00
         21   -1    0    0  501  502  0.00000000000E+00  0.00000000000E+00  0.44208058151E+03  0.44208058151E+03  0.00000000000E+00 0.  1.
          2   -1    0    0  503    0 -0.00000000000E+00 -0.00000000000E+00 -0.23218682132E+04  0.23218682132E+04  0.00000000000E+00 0. -1.
         25    1    1    2    0    0  0.46711495128E+03 -0.21137687097E+03  0.22624049677E+03  0.57418317780E+03  0.12500000000E+03 0.  0.
         21    1    1    2  503  502  0.22603613542E+02  0.83538151654E+00 -0.43904193450E+03  0.43962420481E+03  0.00000000000E+00 0. -1.
          2    1    1    2  501    0 -0.48971856483E+03  0.21054148945E+03 -0.16669861940E+04  0.17501414121E+04  0.00000000000E+00 0. -1.
<mgrwt>
<rscale>  4 0.52955149E+03</rscale>
<asrwt>0</asrwt>
<pdfrwt beam="1">  1       21 0.68012397E-01 0.52955149E+03</pdfrwt>
<pdfrwt beam="2">  1        2 0.35721049E+00 0.52955149E+03</pdfrwt>
<totfact> 0.10638444E+02</totfact>
</mgrwt>
</event>
<event>
 5    0  0.1141006E+000  0.2429588E+03  0.7546771E-02  0.1117837E+00
         21   -1    0    0  501  502  0.00000000000E+00  0.00000000000E+00  0.12627027570E+03  0.12627027570E+03  0.00000000000E+00 0. -1.
          2   -1    0    0  503    0 -0.00000000000E+00 -0.00000000000E+00 -0.22567067526E+04  0.22567067526E+04  0.00000000000E+00 0.  1.
         25    1    1    2    0    0 -0.19085546115E+03 -0.98034222879E+02 -0.11050090782E+02  0.24856311153E+03  0.12500000000E+03 0.  0.
         21    1    1    2  503  502  0.13781510052E+03  0.86559390278E+02 -0.95529785786E+03  0.96906115762E+03  0.00000000000E+00 0. -1.
          2    1    1    2  501    0  0.53040360638E+02  0.11474832601E+02 -0.11640885282E+04  0.11653527591E+04  0.00000000000E+00 0.  1.
<mgrwt>
<rscale>  4 0.24295883E+03</rscale>
<asrwt>0</asrwt>
<pdfrwt beam="1">  1       21 0.19426198E-01 0.24295883E+03</pdfrwt>
<pdfrwt beam="2">  1        2 0.34718562E+00 0.24295883E+03</pdfrwt>
<totfact> 0.16721708E+03</totfact>
</mgrwt>
</event>
<event>
 5    0  0.1141006E+000  0.6226819E+03  0.7546771E-02  0.9859434E-01
         21   -1    0    0  501  502  0.00000000000E+00  0.00000000000E+00  0.12490548007E+03  0.12490548007E+03  0.00000000000E+00 0.  1.
          2   -1    0    0  503    0 -0.00000000000E+00 -0.00000000000E+00 -0.32058109973E+04  0.32058109973E+04  0.00000000000E+00 0.  1.
         25    1    1    2    0    0  0.59200034277E+03  0.11464457683E+03 -0.14437620808E+04  0.15696119682E+04  0.12500000000E+03 0.  0.
         21    1    1    2  503  502  0.98574758192E+01  0.23405931541E+02 -0.12845299288E+03  0.13093959997E+03  0.00000000000E+00 0. -1.
          2    1    1    2  501    0 -0.60185781859E+03 -0.13805050837E+03 -0.15086904435E+04  0.16301649092E+04  0.00000000000E+00 0.  1.
<mgrwt>
<rscale>  4 0.62268191E+03</rscale>
<asrwt>0</asrwt>
<pdfrwt beam="1">  1       21 0.19216228E-01 0.62268191E+03</pdfrwt>
<pdfrwt beam="2">  1        2 0.49320170E+00 0.62268191E+03</pdfrwt>
<totfact> 0.42120646E+02</totfact>
</mgrwt>
</event>
<event>
 5    0  0.1141006E+000  0.2658220E+03  0.7546771E-02  0.1103695E+00
          1   -1    0    0  503    0 -0.00000000000E+00  0.00000000000E+00  0.17953781723E+04  0.17953781723E+04  0.00000000000E+00 0.  1.
         21   -1    0    0  501  502  0.00000000000E+00 -0.00000000000E+00 -0.43285816194E+02  0.43285816194E+02  0.00000000000E+00 0.  1.
         25    1    1    2    0    0  0.13389302252E+02 -0.23457580320E+03  0.58393515702E+03  0.64172451135E+03  0.12500000000E+03 0.  0.
         21    1    1    2  503  502 -0.22968813792E+02  0.66278014415E-01  0.17083763991E+03  0.17237479517E+03  0.00000000000E+00 0. -1.
          1    1    1    2  501    0  0.95795115408E+01  0.23450952518E+03  0.99731955922E+03  0.10245646820E+04  0.00000000000E+00 0.  1.
<mgrwt>
<rscale>  4 0.26582204E+03</rscale>
<asrwt>0</asrwt>
<pdfrwt beam="1">  1       21 0.66593577E-02 0.26582204E+03</pdfrwt>
<pdfrwt beam="2">  1        1 0.27621197E+00 0.26582204E+03</pdfrwt>
<totfact> 0.84058439E+03</totfact>
</mgrwt>
</event>
<event>
 5    0  0.1141006E+000  0.2625593E+03  0.7546771E-02  0.1105615E+00
          1   -1    0    0  503    0 -0.00000000000E+00  0.00000000000E+00  0.10542425161E+04  0.10542425161E+04  0.00000000000E+00 0.  1.
         21   -1    0    0  501  502  0.00000000000E+00 -0.00000000000E+00 -0.17364918970E+03  0.17364918970E+03  0.00000000000E+00 0. -1.
         25    1    1    2    0    0  0.21189460248E+03 -0.65804149382E+02 -0.67703340163E-01  0.25466549279E+03  0.12500000000E+03 0.  0.
         21    1    1    2  503  502  0.29689496915E+02 -0.10543201628E+03  0.15803190987E+03  0.19227964225E+03  0.00000000000E+00 0.  1.
          1    1    1    2  501    0 -0.24158409940E+03  0.17123616567E+03  0.72262911991E+03  0.78094657080E+03  0.00000000000E+00 0.  1.
<mgrwt>
<rscale>  4 0.26255931E+03</rscale>
<asrwt>0</asrwt>
<pdfrwt beam="1">  1       21 0.26715261E-01 0.26255931E+03</pdfrwt>
<pdfrwt beam="2">  1        1 0.16219115E+00 0.26255931E+03</pdfrwt>
<totfact> 0.21229448E+03</totfact>
</mgrwt>
</event>
<event>
 5    0  0.1141006E+000  0.3223623E+03  0.7546771E-02  0.1074567E+00
         -3   -1    0    0    0  501 -0.00000000000E+00  0.00000000000E+00  0.16480591655E+03  0.16480591655E+03  0.00000000000E+00 0. -1.
         21   -1    0    0  503  502  0.00000000000E+00 -0.00000000000E+00 -0.69450916772E+03  0.69450916772E+03  0.00000000000E+00 0. -1.
         25    1    1    2    0    0 -0.28090522188E+03  0.11402123238E+03 -0.35543083531E+03  0.48359555809E+03  0.12500000000E+03 0.  0.
         21    1    1    2  503  501  0.23078758287E+02  0.28370996212E+02 -0.32126151510E+02  0.48678867294E+02  0.00000000000E+00 0. -1.
         -3    1    1    2    0  502  0.25782646360E+03 -0.14239222859E+03 -0.14214626436E+03  0.32704065889E+03  0.00000000000E+00 0. -1.
<mgrwt>
<rscale>  4 0.32236233E+03</rscale>
<asrwt>0</asrwt>
<pdfrwt beam="1">  1       21 0.10684756E+00 0.32236233E+03</pdfrwt>
<pdfrwt beam="2">  1       -3 0.25354756E-01 0.32236233E+03</pdfrwt>
<totfact> 0.49218765E+02</totfact>
</mgrwt>
</event>
<event>
 5    0  0.1141006E+000  0.2495499E+03  0.7546771E-02  0.1113590E+00
         21   -1    0    0  501  502  0.00000000000E+00  0.00000000000E+00  0.38431619830E+03  0.38431619830E+03  0.00000000000E+00 0. -1.
          2   -1    0    0  503    0 -0.00000000000E+00 -0.00000000000E+00 -0.24278224607E+03  0.24278224607E+03  0.00000000000E+00 0.  1.
         25    1    1    2    0    0  0.19505761266E+03  0.58678735362E+02  0.19305731774E+03  0.30722433851E+03  0.12500000000E+03 0.  0.
         21    1    1    2  503  502  0.52021769005E+02 -0.35915496537E+02 -0.32341101936E+02  0.71007986989E+02  0.00000000000E+00 0.  1.
          2    1    1    2  501    0 -0.24707938167E+03 -0.22763238825E+02 -0.19182263576E+02  0.24886611887E+03  0.00000000000E+00 0.  1.
<mgrwt>
<rscale>  4 0.24954986E+03</rscale>
<asrwt>0</asrwt>
<pdfrwt beam="1">  1       21 0.59125569E-01 0.24954986E+03</pdfrwt>
<pdfrwt beam="2">  1        2 0.37351115E-01 0.24954986E+03</pdfrwt>
<totfact> 0.44765297E+03</totfact>
</mgrwt>
</event>
<event>
 5    0  0.1141006E+000  0.2837591E+03  0.7546771E-02  0.1093653E+00
         21   -1    0    0  501  502  0.00000000000E+00  0.00000000000E+00  0.59902715086E+02  0.59902715086E+02  0.00000000000E+00 0. -1.
          2   -1    0    0  503    0 -0.00000000000E+00 -0.00000000000E+00 -0.14630419779E+04  0.14630419779E+04  0.00000000000E+00 0. -1.
         25    1    1    2    0    0  0.15364032408E+03  0.20135366464E+03 -0.50039499848E+03  0.57460316911E+03  0.12500000000E+03 0.  0.
         21    1    1    2  503  502 -0.23781231796E+02  0.21776286573E+02 -0.10877783704E+03  0.11345647392E+03  0.00000000000E+00 0.  1.
          2    1    1    2  501    0 -0.12985909228E+03 -0.22312995121E+03 -0.79396642728E+03  0.83488504994E+03  0.00000000000E+00 0. -1.
<mgrwt>
<rscale>  4 0.28375914E+03</rscale>
<asrwt>0</asrwt>
<pdfrwt beam="1">  1       21 0.92158033E-02 0.28375914E+03</pdfrwt>
<pdfrwt beam="2">  1        2 0.22508336E+00 0.28375914E+03</pdfrwt>
<totfact> 0.16795669E+04</totfact>
</mgrwt>
</event>
<event>
 5    0  0.1141006E+000  0.2364472E+03  0.7546771E-02  0.1122182E+00
         21   -1    0    0  503  502  0.00000000000E+00  0.00000000000E+00  0.80452434031E+03  0.80452434031E+03  0.00000000000E+00 0.  1.
         -2   -1    0    0    0  501 -0.00000000000E+00 -0.00000000000E+00 -0.20058788822E+03  0.20058788822E+03  0.00000000000E+00 0. -1.
         25    1    1    2    0    0  0.10692392032E+03 -0.17252383261E+03  0.68691993329E+03  0.72710466393E+03  0.12500000000E+03 0.  0.
         21    1    1    2  503  501  0.25178333802E+02  0.41120712681E+02  0.33093935710E+02  0.58481365282E+02  0.00000000000E+00 0. -1.
         -2    1    1    2    0  502 -0.13210225412E+03  0.13140311993E+03 -0.11607741691E+03  0.21952619932E+03  0.00000000000E+00 0. -1.
<mgrwt>
<rscale>  4 0.23644725E+03</rscale>
<asrwt>0</asrwt>
<pdfrwt beam="1">  1       21 0.12377297E+00 0.23644725E+03</pdfrwt>
<pdfrwt beam="2">  1       -2 0.30859676E-01 0.23644725E+03</pdfrwt>
<totfact> 0.37275926E+02</totfact>
</mgrwt>
</event>
<event>
 5    0  0.1141006E+000  0.3059329E+03  0.7546771E-02  0.1082312E+00
         21   -1    0    0  501  502  0.00000000000E+00  0.00000000000E+00  0.87696200327E+02  0.87696200327E+02  0.00000000000E+00 0.  1.
          1   -1    0    0  503    0 -0.00000000000E+00 -0.00000000000E+00 -0.22910129143E+04  0.22910129143E+04  0.00000000000E+00 0.  1.
         25    1    1    2    0    0  0.19490223752E+03 -0.19685913635E+03 -0.32193701466E+03  0.44272885965E+03  0.12500000000E+03 0.  0.
         21    1    1    2  503  502  0.20927989479E+02  0.12032839281E+02 -0.11657536004E+04  0.11660035278E+04  0.00000000000E+00 0.  1.
          1    1    1    2  501    0 -0.21583022700E+03  0.18482629707E+03 -0.71562609896E+03  0.76997672724E+03  0.00000000000E+00 0.  1.
<mgrwt>
<rscale>  4 0.30593290E+03</rscale>
<asrwt>0</asrwt>
<pdfrwt beam="1">  1       21 0.13491725E-01 0.30593290E+03</pdfrwt>
<pdfrwt beam="2">  1        1 0.35246349E+00 0.30593290E+03</pdfrwt>
<totfact> 0.11223993E+03</totfact>
</mgrwt>
</event>
<event>
 5    0  0.1141006E+000  0.2612518E+03  0.7546771E-02  0.1106393E+00
         -2   -1    0    0    0  501 -0.00000000000E+00  0.00000000000E+00  0.18652356749E+04  0.18652356749E+04  0.00000000000E+00 0. -1.
         21   -1    0    0  503  502  0.00000000000E+00 -0.00000000000E+00 -0.34868544159E+03  0.34868544159E+03  0.00000000000E+00 0. -1.
         25    1    1    2    0    0 -0.23428773809E+03  0.72440221819E+02 -0.25321529893E+03  0.37400710898E+03  0.12500000000E+03 0.  0.
         21    1    1    2  503  501  0.16333564158E+03 -0.55537495001E+02  0.18309722593E+03  0.25157014788E+03  0.00000000000E+00 0. -1.
         -2    1    1    2    0  502  0.70952096510E+02 -0.16902726818E+02  0.15866683063E+04  0.15883438596E+04  0.00000000000E+00 0. -1.
<mgrwt>
<rscale>  4 0.26125180E+03</rscale>
<asrwt>0</asrwt>
<pdfrwt beam="1">  1       21 0.53643915E-01 0.26125180E+03</pdfrwt>
<pdfrwt beam="2">  1       -2 0.28695933E+00 0.26125180E+03</pdfrwt>
<totfact> 0.11450173E+01</totfact>
</mgrwt>
</event>
<event>
 5    0  0.1141006E+000  0.2615349E+03  0.7546771E-02  0.1106225E+00
         21   -1    0    0  501  502  0.00000000000E+00  0.00000000000E+00  0.34548128319E+03  0.34548128319E+03  0.00000000000E+00 0. -1.
          4   -1    0    0  503    0 -0.00000000000E+00 -0.00000000000E+00 -0.63635808520E+03  0.63635808520E+03  0.00000000000E+00 0. -1.
         25    1    1    2    0    0  0.13144444944E+03  0.18635413189E+03  0.26011980414E+03  0.36782172076E+03  0.12500000000E+03 0.  0.
         21    1    1    2  503  502  0.94197926356E+00  0.20374558667E+02 -0.83875092841E+02  0.86319413604E+02  0.00000000000E+00 0. -1.
          4    1    1    2  501    0 -0.13238642870E+03 -0.20672869056E+03 -0.46712151330E+03  0.52769823402E+03  0.00000000000E+00 0. -1.
<mgrwt>
<rscale>  4 0.26153485E+03</rscale>
<asrwt>0</asrwt>
<pdfrwt beam="1">  1       21 0.53150967E-01 0.26153485E+03</pdfrwt>
<pdfrwt beam="2">  1        4 0.97901243E-01 0.26153485E+03</pdfrwt>
<totfact> 0.12486617E+02</totfact>
</mgrwt>
</event>
<event>
 5    0  0.1141006E+000  0.2528516E+03  0.7546771E-02  0.1111516E+00
         21   -1    0    0  501  502  0.00000000000E+00  0.00000000000E+00  0.15612371615E+03  0.15612371615E+03  0.00000000000E+00 0.  1.
          2   -1    0    0  503    0 -0.00000000000E+00 -0.00000000000E+00 -0.10941078565E+04  0.10941078565E+04  0.00000000000E+00 0. -1.
         25    1    1    2    0    0 -0.20634266014E+03  0.93849036780E+02  0.14159745187E+02  0.25924975117E+03  0.12500000000E+03 0.  0.
         21    1    1    2  503  502  0.28226240747E+02 -0.21521475219E+02 -0.47845242066E+03  0.47976724919E+03  0.00000000000E+00 0. -1.
          2    1    1    2  501    0  0.17811641940E+03 -0.72327561562E+02 -0.47369146487E+03  0.51121457228E+03  0.00000000000E+00 0. -1.
<mgrwt>
<rscale>  4 0.25285161E+03</rscale>
<asrwt>0</asrwt>
<pdfrwt beam="1">  1       21 0.24019034E-01 0.25285161E+03</pdfrwt>
<pdfrwt beam="2">  1        2 0.16832428E+00 0.25285161E+03</pdfrwt>
<totfact> 0.46925273E+03</totfact>
</mgrwt>
</event>
<event>
 5    0  0.1141006E+000  0.2903375E+03  0.7546771E-02  0.1090173E+00
          2   -1    0    0  503    0 -0.00000000000E+00  0.00000000000E+00  0.17347870485E+04  0.17347870485E+04  0.00000000000E+00 0.  1.
         21   -1    0    0  501  502  0.00000000000E+00 -0.00000000000E+00 -0.94386989651E+02  0.94386989651E+02  0.00000000000E+00 0.  1.
         25    1    1    2    0    0  0.26140795383E+03  0.15861151423E+02  0.19035176041E+03  0.34705113044E+03  0.12500000000E+03 0.  0.
         21    1    1    2  503  502 -0.20799999463E+01  0.40061712754E+02  0.24058087504E+03  0.24390249008E+03  0.00000000000E+00 0.  1.
          2    1    1    2  501    0 -0.25932795388E+03 -0.55922864177E+02  0.12094674234E+04  0.12382204176E+04  0.00000000000E+00 0.  1.
<mgrwt>
<rscale>  4 0.29033751E+03</rscale>
<asrwt>0</asrwt>
<pdfrwt beam="1">  1       21 0.14521077E-01 0.29033751E+03</pdfrwt>
<pdfrwt beam="2">  1        2 0.26689029E+00 0.29033751E+03</pdfrwt>
<totfact> 0.52957471E+03</totfact>
</mgrwt>
</event>
<event>
 5    0  0.1141006E+000  0.2857995E+03  0.7546771E-02  0.1092563E+00
          1   -1    0    0  503    0 -0.00000000000E+00  0.00000000000E+00  0.14319591053E+03  0.14319591053E+03  0.00000000000E+00 0.  1.
         21   -1    0    0  501  502  0.00000000000E+00 -0.00000000000E+00 -0.71543476055E+03  0.71543476055E+03  0.00000000000E+00 0.  1.
         25    1    1    2    0    0 -0.95992923419E+02  0.23682345025E+03 -0.15279715156E+03  0.32291168678E+03  0.12500000000E+03 0.  0.
         21    1    1    2  503  502 -0.48382209265E+02 -0.21386096939E+02 -0.14499324539E+02  0.54849190767E+02  0.00000000000E+00 0.  1.
          1    1    1    2  501    0  0.14437513268E+03 -0.21543735331E+03 -0.40494237392E+03  0.48086979354E+03  0.00000000000E+00 0.  1.
<mgrwt>
<rscale>  4 0.28579947E+03</rscale>
<asrwt>0</asrwt>
<pdfrwt beam="1">  1       21 0.11006689E+00 0.28579947E+03</pdfrwt>
<pdfrwt beam="2">  1        1 0.22030139E-01 0.28579947E+03</pdfrwt>
<totfact> 0.15277644E+03</totfact>
</mgrwt>
</event>
<event>
 5    0  0.1141006E+000  0.2545721E+03  0.7546771E-02  0.1110449E+00
         21   -1    0    0  501  502  0.00000000000E+00  0.00000000000E+00  0.46382197644E+03  0.46382197644E+03  0.00000000000E+00 0.  1.
          1   -1    0    0  503    0 -0.00000000000E+00 -0.00000000000E+00 -0.70055202856E+03  0.70055202856E+03  0.00000000000E+00 0.  1.
         25    1    1    2    0    0 -0.12422455167E+03  0.18331643613E+03  0.40159324696E+03  0.47533019155E+03  0.12500000000E+03 0.  0.
         21    1    1    2  503  502  0.15531727318E+02  0.17662947549E+02 -0.23994275388E+02  0.33599695251E+02  0.00000000000E+00 0.  1.
          1    1    1    2  501    0  0.10869282435E+03 -0.20097938368E+03 -0.61432902369E+03  0.65544411820E+03  0.00000000000E+00 0.  1.
<mgrwt>
<rscale>  4 0.25457209E+03</rscale>
<asrwt>0</asrwt>
<pdfrwt beam="1">  1       21 0.71357228E-01 0.25457209E+03</pdfrwt>
<pdfrwt beam="2">  1        1 0.10777723E+00 0.25457209E+03</pdfrwt>
<totfact> 0.53817520E+02</totfact>
</mgrwt>
</event>
<event>
 5    0  0.1141006E+000  0.2716368E+03  0.7546771E-02  0.1100346E+00
          2   -1    0    0  503    0 -0.00000000000E+00  0.00000000000E+00  0.74511997890E+03  0.74511997890E+03  0.00000000000E+00 0. -1.
         21   -1    0    0  501  502  0.00000000000E+00 -0.00000000000E+00 -0.18412105417E+03  0.18412105417E+03  0.00000000000E+00 0.  1.
         25    1    1    2    0    0 -0.24798334770E+03  0.11464033527E+02 -0.10686877459E+02  0.27814811549E+03  0.12500000000E+03 0.  0.
         21    1    1    2  503  502  0.23584688953E+02 -0.17553700826E+02  0.28722604677E+03  0.28872681190E+03  0.00000000000E+00 0. -1.
          2    1    1    2  501    0  0.22439865874E+03  0.60896672994E+01  0.28445975542E+03  0.36236610568E+03  0.00000000000E+00 0. -1.
<mgrwt>
<rscale>  4 0.27163679E+03</rscale>
<asrwt>0</asrwt>
<pdfrwt beam="1">  1       21 0.28326317E-01 0.27163679E+03</pdfrwt>
<pdfrwt beam="2">  1        2 0.11463384E+00 0.27163679E+03</pdfrwt>
<totfact> 0.57027481E+03</totfact>
</mgrwt>
</event>
<event>
 5    0  0.1141006E+000  0.2409969E+03  0.7546771E-02  0.1119131E+00
         -2   -1    0    0    0  501 -0.00000000000E+00  0.00000000000E+00  0.24557392546E+03  0.24557392546E+03  0.00000000000E+00 0.  1.
         21   -1    0    0  503  502  0.00000000000E+00 -0.00000000000E+00 -0.37908900872E+03  0.37908900872E+03  0.00000000000E+00 0.  1.
         25    1    1    2    0    0  0.21501796436E+03 -0.64675991447E+02  0.26875772282E+02  0.25838540207E+03  0.12500000000E+03 0.  0.
         21    1    1    2  503  501 -0.27572498919E+02 -0.83006379029E+01  0.60816646680E+02  0.67288987209E+02  0.00000000000E+00 0. -1.
         -2    1    1    2    0  502 -0.18744546544E+03  0.72976629350E+02 -0.22120750222E+03  0.29898854491E+03  0.00000000000E+00 0.  1.
<mgrwt>
<rscale>  4 0.24099689E+03</rscale>
<asrwt>0</asrwt>
<pdfrwt beam="1">  1       21 0.58321386E-01 0.24099689E+03</pdfrwt>
<pdfrwt beam="2">  1       -2 0.37780604E-01 0.24099689E+03</pdfrwt>
<totfact> 0.14539238E+03</totfact>
</mgrwt>
</event>
<event>
 5    0  0.1141006E+000  0.4112567E+03  0.7546771E-02  0.1039950E+00
          1   -1    0    0  503    0 -0.00000000000E+00  0.00000000000E+00  0.23579377194E+04  0.23579377194E+04  0.00000000000E+00 0. -1.
         21   -1    0    0  501  502  0.00000000000E+00 -0.00000000000E+00 -0.81200622920E+02  0.81200622920E+02  0.00000000000E+00 0. -1.
         25    1    1    2    0    0  0.29324717955E+03  0.24588554402E+03  0.76771574782E+03  0.86687143136E+03  0.12500000000E+03 0.  0.
         21    1    1    2  503  502  0.33237777710E+02 -0.14079969718E+01  0.13021146206E+03  0.13439403698E+03  0.00000000000E+00 0. -1.
          1    1    1    2  501    0 -0.32648495726E+03 -0.24447754705E+03  0.13788098866E+04  0.14378728739E+04  0.00000000000E+00 0. -1.
<mgrwt>
<rscale>  4 0.41125667E+03</rscale>
<asrwt>0</asrwt>
<pdfrwt beam="1">  1       21 0.12492405E-01 0.41125667E+03</pdfrwt>
<pdfrwt beam="2">  1        1 0.36275960E+00 0.41125667E+03</pdfrwt>
<totfact> 0.11232294E+03</totfact>
</mgrwt>
</event>
<event>
 5    0  0.1141006E+000  0.3174820E+03  0.7546771E-02  0.1076814E+00
          2   -1    0    0  503    0 -0.00000000000E+00  0.00000000000E+00  0.27447081479E+04  0.27447081479E+04  0.00000000000E+00 0.  1.
         21   -1    0    0  501  502  0.00000000000E+00 -0.00000000000E+00 -0.87933974368E+03  0.87933974368E+03  0.00000000000E+00 0.  1.
         25    1    1    2    0    0 -0.28830881325E+03 -0.83158309357E+01 -0.72954549599E+03  0.79438829017E+03  0.12500000000E+03 0.  0.
         21    1    1    2  503  502 -0.27017430309E+02  0.50133435506E+02  0.24958554312E+04  0.24965050844E+04  0.00000000000E+00 0.  1.
          2    1    1    2  501    0  0.31532624356E+03 -0.41817604570E+02  0.99058469018E+02  0.33315451703E+03  0.00000000000E+00 0.  1.
<mgrwt>
<rscale>  4 0.31748205E+03</rscale>
<asrwt>0</asrwt>
<pdfrwt beam="1">  1       21 0.13528304E+00 0.31748205E+03</pdfrwt>
<pdfrwt beam="2">  1        2 0.42226279E+00 0.31748205E+03</pdfrwt>
<totfact> 0.13191460E+01</totfact>
</mgrwt>
</event>
<event>
 5    0  0.1141006E+000  0.2997716E+03  0.7546771E-02  0.1085355E+00
         21   -1    0    0  501  502  0.00000000000E+00  0.00000000000E+00  0.31437945878E+03  0.31437945878E+03  0.00000000000E+00 0.  1.
          2   -1    0    0  503    0 -0.00000000000E+00 -0.00000000000E+00 -0.11821480481E+04  0.11821480481E+04  0.00000000000E+00 0.  1.
         25    1    1    2    0    0  0.27233921723E+03 -0.83281263118E+01  0.21902921870E+03  0.37126379513E+03  0.12500000000E+03 0.  0.
         21    1    1    2  503  502 -0.11954576272E+03  0.97187385166E+01 -0.68442875517E+03  0.69485852097E+03  0.00000000000E+00 0.  1.
          2    1    1    2  501    0 -0.15279345451E+03 -0.13906122048E+01 -0.40236905282E+03  0.43040519074E+03  0.00000000000E+00 0.  1.
<mgrwt>
<rscale>  4 0.29977159E+03</rscale>
<asrwt>0</asrwt>
<pdfrwt beam="1">  1       21 0.48366072E-01 0.29977159E+03</pdfrwt>
<pdfrwt beam="2">  1        2 0.18186893E+00 0.29977159E+03</pdfrwt>
<totfact> 0.10117109E+03</totfact>
</mgrwt>
</event>
<event>
 5    0  0.1141006E+000  0.6988824E+03  0.7546771E-02  0.9931573E-01
          3   -1    0    0  503    0 -0.00000000000E+00  0.00000000000E+00  0.17159862456E+04  0.17159862456E+04  0.00000000000E+00 0. -1.
         21   -1    0    0  501  502  0.00000000000E+00 -0.00000000000E+00 -0.10643428614E+04  0.10643428614E+04  0.00000000000E+00 0. -1.
         25    1    1    2    0    0  0.31993876009E+03 -0.62438551757E+02 -0.65559881804E+03  0.74276119525E+03  0.12500000000E+03 0.  0.
         21    1    1    2  503  502 -0.63784284316E+03  0.60756188325E+03  0.49987848614E+03  0.10128442306E+04  0.00000000000E+00 0. -1.
          3    1    1    2  501    0  0.31790408307E+03 -0.54512333150E+03  0.80736371608E+03  0.10247236811E+04  0.00000000000E+00 0. -1.
<mgrwt>
<rscale>  4 0.58755239E+03</rscale>
<asrwt>0</asrwt>
<pdfrwt beam="1">  1       21 0.16374506E+00 0.69888242E+03</pdfrwt>
<pdfrwt beam="2">  1        3 0.26399788E+00 0.69888242E+03</pdfrwt>
<totfact> 0.62443090E-01</totfact>
</mgrwt>
</event>
<event>
 5    0  0.1141006E+000  0.4439725E+03  0.7546771E-02  0.1029535E+00
          2   -1    0    0  503    0 -0.00000000000E+00  0.00000000000E+00  0.40947763085E+03  0.40947763085E+03  0.00000000000E+00 0.  1.
         21   -1    0    0  501  502  0.00000000000E+00 -0.00000000000E+00 -0.53360915813E+03  0.53360915813E+03  0.00000000000E+00 0.  1.
         25    1    1    2    0    0  0.42380588802E+03 -0.43302980777E+02 -0.22494631588E+03  0.49770716681E+03  0.12500000000E+03 0.  0.
         21    1    1    2  503  502 -0.21973224738E+02  0.21363945916E+02  0.13988010292E+02  0.33688354403E+02  0.00000000000E+00 0. -1.
          2    1    1    2  501    0 -0.40183266328E+03  0.21939034861E+02  0.86826778316E+02  0.41169126777E+03  0.00000000000E+00 0.  1.
<mgrwt>
<rscale>  4 0.44397250E+03</rscale>
<asrwt>0</asrwt>
<pdfrwt beam="1">  1       21 0.82093716E-01 0.44397250E+03</pdfrwt>
<pdfrwt beam="2">  1        2 0.62996559E-01 0.44397250E+03</pdfrwt>
<totfact> 0.11582785E+03</totfact>
</mgrwt>
</event>
<event>
 5    0  0.1141006E+000  0.2879208E+03  0.7546771E-02  0.1091440E+00
         21   -1    0    0  501  502  0.00000000000E+00  0.00000000000E+00  0.10872490504E+03  0.10872490504E+03  0.00000000000E+00 0. -1.
          1   -1    0    0  503    0 -0.00000000000E+00 -0.00000000000E+00 -0.14686844451E+04  0.14686844451E+04  0.00000000000E+00 0. -1.
         25    1    1    2    0    0 -0.24061863356E+03  0.84841644842E+02 -0.13745844506E+03  0.31561884550E+03  0.12500000000E+03 0.  0.
         21    1    1    2  503  502 -0.24731580407E+02  0.87866811059E-01 -0.21696003502E+03  0.21836509699E+03  0.00000000000E+00 0. -1.
          1    1    1    2  501    0  0.26535021396E+03 -0.84929511653E+02 -0.10055410600E+04  0.10434254076E+04  0.00000000000E+00 0. -1.
<mgrwt>
<rscale>  4 0.28792081E+03</rscale>
<asrwt>0</asrwt>
<pdfrwt beam="1">  1       21 0.16726910E-01 0.28792081E+03</pdfrwt>
<pdfrwt beam="2">  1        1 0.22595144E+00 0.28792081E+03</pdfrwt>
<totfact> 0.26324370E+03</totfact>
</mgrwt>
</event>
<event>
 5    0  0.1141006E+000  0.3008137E+03  0.7546771E-02  0.1084835E+00
         21   -1    0    0  501  502  0.00000000000E+00  0.00000000000E+00  0.15917278717E+04  0.15917278717E+04  0.00000000000E+00 0. -1.
          2   -1    0    0  503    0 -0.00000000000E+00 -0.00000000000E+00 -0.57934166527E+03  0.57934166527E+03  0.00000000000E+00 0. -1.
         25    1    1    2    0    0  0.17779659755E+03 -0.20968352360E+03  0.15289150668E+04  0.15584559960E+04  0.12500000000E+03 0.  0.
         21    1    1    2  503  502 -0.59635570818E+02  0.11843328057E+02 -0.18011472088E+02  0.63411977205E+02  0.00000000000E+00 0.  1.
          2    1    1    2  501    0 -0.11816102673E+03  0.19784019554E+03 -0.49851738825E+03  0.54920156373E+03  0.00000000000E+00 0. -1.
<mgrwt>
<rscale>  4 0.30081369E+03</rscale>
<asrwt>0</asrwt>
<pdfrwt beam="1">  1       21 0.24488121E+00 0.30081369E+03</pdfrwt>
<pdfrwt beam="2">  1        2 0.89129488E-01 0.30081369E+03</pdfrwt>
<totfact> 0.42543115E+01</totfact>
</mgrwt>
</event>
<event>
 5    0  0.1141006E+000  0.2681825E+03  0.7546771E-02  0.1102324E+00
          3   -1    0    0  503    0 -0.00000000000E+00  0.00000000000E+00  0.76826643014E+03  0.76826643014E+03  0.00000000000E+00 0. -1.
         21   -1    0    0  501  502  0.00000000000E+00 -0.00000000000E+00 -0.73265525732E+03  0.73265525732E+03  0.00000000000E+00 0.  1.
         25    1    1    2    0    0  0.23567384783E+03  0.27659882687E+02 -0.68064699749E+03  0.73158223520E+03  0.12500000000E+03 0.  0.
         21    1    1    2  503  502 -0.30773531451E+01  0.20419498145E+02  0.77105293248E+01  0.22042646604E+02  0.00000000000E+00 0. -1.
          3    1    1    2  501    0 -0.23259649469E+03 -0.48079380832E+02  0.70854764098E+03  0.74729680566E+03  0.00000000000E+00 0. -1.
<mgrwt>
<rscale>  4 0.26818253E+03</rscale>
<asrwt>0</asrwt>
<pdfrwt beam="1">  1       21 0.11271619E+00 0.26818253E+03</pdfrwt>
<pdfrwt beam="2">  1        3 0.11819484E+00 0.26818253E+03</pdfrwt>
<totfact> 0.17981320E+01</totfact>
</mgrwt>
</event>
<event>
 5    0  0.1141006E+000  0.2401402E+03  0.7546771E-02  0.1119699E+00
         21   -1    0    0  501  502  0.00000000000E+00  0.00000000000E+00  0.39894170512E+02  0.39894170512E+02  0.00000000000E+00 0. -1.
          3   -1    0    0  503    0 -0.00000000000E+00 -0.00000000000E+00 -0.21165465435E+04  0.21165465435E+04  0.00000000000E+00 0. -1.
         25    1    1    2    0    0  0.13292195471E+03  0.15068235560E+03 -0.49896217317E+03  0.55223334614E+03  0.12500000000E+03 0.  0.
         21    1    1    2  503  502 -0.25773470803E+02  0.35648573810E+02 -0.66888794752E+03  0.67033288667E+03  0.00000000000E+00 0. -1.
          3    1    1    2  501    0 -0.10714848391E+03 -0.18633092941E+03 -0.90880225225E+03  0.93387448116E+03  0.00000000000E+00 0. -1.
<mgrwt>
<rscale>  4 0.24014024E+03</rscale>
<asrwt>0</asrwt>
<pdfrwt beam="1">  1       21 0.61375655E-02 0.24014024E+03</pdfrwt>
<pdfrwt beam="2">  1        3 0.32562250E+00 0.24014024E+03</pdfrwt>
<totfact> 0.30794223E+02</totfact>
</mgrwt>
</event>
<event>
 5    0  0.1141006E+000  0.2450192E+03  0.7546771E-02  0.1116494E+00
         21   -1    0    0  501  502  0.00000000000E+00  0.00000000000E+00  0.14875223369E+03  0.14875223369E+03  0.00000000000E+00 0.  1.
          2   -1    0    0  503    0 -0.00000000000E+00 -0.00000000000E+00 -0.16526502668E+04  0.16526502668E+04  0.00000000000E+00 0.  1.
         25    1    1    2    0    0  0.11937104401E+03 -0.17371097392E+03  0.30428640784E+02  0.24693288722E+03  0.12500000000E+03 0.  0.
         21    1    1    2  503  502 -0.21204100939E+02 -0.13789868947E+02 -0.61258554858E+02  0.66275070166E+02  0.00000000000E+00 0. -1.
          2    1    1    2  501    0 -0.98166943073E+02  0.18750084287E+03 -0.14730681191E+04  0.14881945431E+04  0.00000000000E+00 0.  1.
<mgrwt>
<rscale>  4 0.24501924E+03</rscale>
<asrwt>0</asrwt>
<pdfrwt beam="1">  1       21 0.22884959E-01 0.24501924E+03</pdfrwt>
<pdfrwt beam="2">  1        2 0.25425389E+00 0.24501924E+03</pdfrwt>
<totfact> 0.25469505E+03</totfact>
</mgrwt>
</event>
<event>
 5    0  0.1141006E+000  0.2536841E+03  0.7546771E-02  0.1110998E+00
          2   -1    0    0  503    0 -0.00000000000E+00  0.00000000000E+00  0.10165616832E+04  0.10165616832E+04  0.00000000000E+00 0.  1.
         21   -1    0    0  501  502  0.00000000000E+00 -0.00000000000E+00 -0.81769450596E+02  0.81769450596E+02  0.00000000000E+00 0.  1.
         25    1    1    2    0    0 -0.17396880833E+03  0.11776386595E+03  0.30816055168E+03  0.39334641222E+03  0.12500000000E+03 0.  0.
         21    1    1    2  503  502  0.26004365357E+02  0.71577444046E+02  0.21819136761E+03  0.23109961145E+03  0.00000000000E+00 0. -1.
          2    1    1    2  501    0  0.14796444298E+03 -0.18934131000E+03  0.40844031334E+03  0.47388511014E+03  0.00000000000E+00 0.  1.
<mgrwt>
<rscale>  4 0.25368415E+03</rscale>
<asrwt>0</asrwt>
<pdfrwt beam="1">  1       21 0.12579916E-01 0.25368415E+03</pdfrwt>
<pdfrwt beam="2">  1        2 0.15639410E+00 0.25368415E+03</pdfrwt>
<totfact> 0.17352557E+04</totfact>
</mgrwt>
</event>
<event>
 5    0  0.1141006E+000  0.2421098E+03  0.7546771E-02  0.1118395E+00
         21   -1    0    0  501  502  0.00000000000E+00  0.00000000000E+00  0.44603063394E+02  0.44603063394E+02  0.00000000000E+00 0. -1.
          1   -1    0    0  503    0 -0.00000000000E+00 -0.00000000000E+00 -0.29577038882E+04  0.29577038882E+04  0.00000000000E+00 0.  1.
         25    1    1    2    0    0 -0.17458892665E+03  0.11185196366E+03 -0.32913553230E+03  0.40859191586E+03  0.12500000000E+03 0.  0.
         21    1    1    2  503  502  0.98430968823E+02 -0.21488997215E+02 -0.90358391884E+03  0.90918333191E+03  0.00000000000E+00 0.  1.
          1    1    1    2  501    0  0.76157957826E+02 -0.90362966448E+02 -0.16803813737E+04  0.16845317038E+04  0.00000000000E+00 0.  1.
<mgrwt>
<rscale>  4 0.24210980E+03</rscale>
<asrwt>0</asrwt>
<pdfrwt beam="1">  1       21 0.68620111E-02 0.24210980E+03</pdfrwt>
<pdfrwt beam="2">  1        1 0.45503128E+00 0.24210980E+03</pdfrwt>
<totfact> 0.13668219E+03</totfact>
</mgrwt>
</event>
<event>
 5    0  0.1141006E+000  0.2676481E+03  0.7546771E-02  0.1102633E+00
         21   -1    0    0  501  502  0.00000000000E+00  0.00000000000E+00  0.24829591483E+03  0.24829591483E+03  0.00000000000E+00 0.  1.
          1   -1    0    0  503    0 -0.00000000000E+00 -0.00000000000E+00 -0.25939997990E+04  0.25939997990E+04  0.00000000000E+00 0. -1.
         25    1    1    2    0    0 -0.22755513012E+02 -0.23653218648E+03  0.16464428354E+03  0.31495718553E+03  0.12500000000E+03 0.  0.
         21    1    1    2  503  502 -0.11090470909E+01  0.32548214770E+02 -0.58911955107E+02  0.67314446627E+02  0.00000000000E+00 0.  1.
          1    1    1    2  501    0  0.23864560103E+02  0.20398397171E+03 -0.24514362126E+04  0.24600240816E+04  0.00000000000E+00 0. -1.
<mgrwt>
<rscale>  4 0.26764806E+03</rscale>
<asrwt>0</asrwt>
<pdfrwt beam="1">  1       21 0.38199371E-01 0.26764806E+03</pdfrwt>
<pdfrwt beam="2">  1        1 0.39907690E+00 0.26764806E+03</pdfrwt>
<totfact> 0.98457493E+01</totfact>
</mgrwt>
</event>
<event>
 5    0  0.1141006E+000  0.3334817E+03  0.7546771E-02  0.1069607E+00
         21   -1    0    0  501  502  0.00000000000E+00  0.00000000000E+00  0.92800081017E+02  0.92800081017E+02  0.00000000000E+00 0.  1.
          2   -1    0    0  503    0 -0.00000000000E+00 -0.00000000000E+00 -0.17372688152E+04  0.17372688152E+04  0.00000000000E+00 0. -1.
         25    1    1    2    0    0 -0.34087776197E+03 -0.93713344971E+01 -0.79753921466E+03  0.87634426423E+03  0.12500000000E+03 0.  0.
         21    1    1    2  503  502  0.48811690916E+02 -0.21542944077E+02 -0.48360084179E+03  0.48653515165E+03  0.00000000000E+00 0. -1.
          2    1    1    2  501    0  0.29206607106E+03  0.30914278574E+02 -0.36332867774E+03  0.46718948035E+03  0.00000000000E+00 0. -1.
<mgrwt>
<rscale>  4 0.33348169E+03</rscale>
<asrwt>0</asrwt>
<pdfrwt beam="1">  1       21 0.14276935E-01 0.33348169E+03</pdfrwt>
<pdfrwt beam="2">  1        2 0.26727213E+00 0.33348169E+03</pdfrwt>
<totfact> 0.53762023E+03</totfact>
</mgrwt>
</event>
<event>
 5    0  0.1141006E+000  0.4661188E+03  0.7546771E-02  0.1023021E+00
         21   -1    0    0  501  502  0.00000000000E+00  0.00000000000E+00  0.67820659999E+03  0.67820659999E+03  0.00000000000E+00 0.  1.
          1   -1    0    0  503    0 -0.00000000000E+00 -0.00000000000E+00 -0.14475384810E+04  0.14475384810E+04  0.00000000000E+00 0.  1.
         25    1    1    2    0    0 -0.23953702023E+02  0.46211485381E+03  0.53365738754E+03  0.71731382618E+03  0.12500000000E+03 0.  0.
         21    1    1    2  503  502 -0.78811667911E+02 -0.12368324385E+03 -0.64439186572E+03  0.66087041121E+03  0.00000000000E+00 0. -1.
          1    1    1    2  501    0  0.10276536993E+03 -0.33843160997E+03 -0.65859740284E+03  0.74756084361E+03  0.00000000000E+00 0.  1.
<mgrwt>
<rscale>  4 0.46611882E+03</rscale>
<asrwt>0</asrwt>
<pdfrwt beam="1">  1       21 0.10433948E+00 0.46611882E+03</pdfrwt>
<pdfrwt beam="2">  1        1 0.22269823E+00 0.46611882E+03</pdfrwt>
<totfact> 0.55254528E+01</totfact>
</mgrwt>
</event>
<event>
 5    0  0.1141006E+000  0.3287589E+03  0.7546771E-02  0.1071687E+00
         21   -1    0    0  501  502  0.00000000000E+00  0.00000000000E+00  0.33315602795E+03  0.33315602795E+03  0.00000000000E+00 0. -1.
          2   -1    0    0  503    0 -0.00000000000E+00 -0.00000000000E+00 -0.91224517136E+03  0.91224517136E+03  0.00000000000E+00 0. -1.
         25    1    1    2    0    0  0.29429261781E+03 -0.12067918706E+03 -0.75941835189E+03  0.83277418564E+03  0.12500000000E+03 0.  0.
         21    1    1    2  503  502 -0.52467343823E+01  0.30505003149E+02 -0.30670239608E+02  0.43574614587E+02  0.00000000000E+00 0. -1.
          2    1    1    2  501    0 -0.28904588342E+03  0.90174183916E+02  0.21099944810E+03  0.36905239908E+03  0.00000000000E+00 0. -1.
<mgrwt>
<rscale>  4 0.32875891E+03</rscale>
<asrwt>0</asrwt>
<pdfrwt beam="1">  1       21 0.51254775E-01 0.32875891E+03</pdfrwt>
<pdfrwt beam="2">  1        2 0.14034541E+00 0.32875891E+03</pdfrwt>
<totfact> 0.12923436E+03</totfact>
</mgrwt>
</event>
<event>
 5    0  0.1141006E+000  0.3052568E+03  0.7546771E-02  0.1082642E+00
          2   -1    0    0  503    0 -0.00000000000E+00  0.00000000000E+00  0.30333922415E+04  0.30333922415E+04  0.00000000000E+00 0.  1.
         21   -1    0    0  501  502  0.00000000000E+00 -0.00000000000E+00 -0.32185602784E+04  0.32185602784E+04  0.00000000000E+00 0.  1.
         25    1    1    2    0    0  0.12997199121E+03 -0.24624278496E+03 -0.32006437203E+04  0.32151630521E+04  0.12500000000E+03 0.  0.
         21    1    1    2  503  502  0.16614395630E+02 -0.15053313774E+02  0.36853058121E+02  0.43136855363E+02  0.00000000000E+00 0.  1.
          2    1    1    2  501    0 -0.14658638684E+03  0.26129609873E+03  0.29786226253E+04  0.29936526124E+04  0.00000000000E+00 0.  1.
<mgrwt>
<rscale>  4 0.30525675E+03</rscale>
<asrwt>0</asrwt>
<pdfrwt beam="1">  1       21 0.49516312E+00 0.30525675E+03</pdfrwt>
<pdfrwt beam="2">  1        2 0.46667573E+00 0.30525675E+03</pdfrwt>
<totfact> 0.42764790E-02</totfact>
</mgrwt>
</event>
<event>
 5    0  0.1141006E+000  0.2783745E+03  0.7546771E-02  0.1096580E+00
          3   -1    0    0  503    0 -0.00000000000E+00  0.00000000000E+00  0.59382521013E+03  0.59382521013E+03  0.00000000000E+00 0. -1.
         21   -1    0    0  501  502  0.00000000000E+00 -0.00000000000E+00 -0.35227036368E+03  0.35227036368E+03  0.00000000000E+00 0. -1.
         25    1    1    2    0    0 -0.57316096967E+02 -0.25573712771E+03 -0.19150474095E+03  0.34782995740E+03  0.12500000000E+03 0.  0.
         21    1    1    2  503  502  0.16729561872E+03  0.17104807150E+03  0.14834536834E+03  0.28151663382E+03  0.00000000000E+00 0. -1.
          3    1    1    2  501    0 -0.10997952175E+03  0.84689056207E+02  0.28471421905E+03  0.31674898259E+03  0.00000000000E+00 0. -1.
<mgrwt>
<rscale>  4 0.27837452E+03</rscale>
<asrwt>0</asrwt>
<pdfrwt beam="1">  1       21 0.54195440E-01 0.27837452E+03</pdfrwt>
<pdfrwt beam="2">  1        3 0.91357725E-01 0.27837452E+03</pdfrwt>
<totfact> 0.17295175E+02</totfact>
</mgrwt>
</event>
<event>
 5    0  0.1141006E+000  0.3222159E+03  0.7546771E-02  0.1074634E+00
          2   -1    0    0  503    0 -0.00000000000E+00  0.00000000000E+00  0.40007707469E+03  0.40007707469E+03  0.00000000000E+00 0.  1.
         21   -1    0    0  501  502  0.00000000000E+00 -0.00000000000E+00 -0.90776034320E+03  0.90776034320E+03  0.00000000000E+00 0. -1.
         25    1    1    2    0    0  0.13247692341E+03  0.25366498535E+03 -0.60152051295E+03  0.67775215789E+03  0.12500000000E+03 0.  0.
         21    1    1    2  503  502  0.12989221389E+02  0.37087827634E+02  0.26139690615E+03  0.26433420016E+03  0.00000000000E+00 0.  1.
          2    1    1    2  501    0 -0.14546614480E+03 -0.29075281298E+03 -0.16755966171E+03  0.36575105984E+03  0.00000000000E+00 0.  1.
<mgrwt>
<rscale>  4 0.32221585E+03</rscale>
<asrwt>0</asrwt>
<pdfrwt beam="1">  1       21 0.13965544E+00 0.32221585E+03</pdfrwt>
<pdfrwt beam="2">  1        2 0.61550319E-01 0.32221585E+03</pdfrwt>
<totfact> 0.33368129E+02</totfact>
</mgrwt>
</event>
<event>
 5    0  0.1141006E+000  0.2811849E+03  0.7546771E-02  0.1095044E+00
          2   -1    0    0  503    0 -0.00000000000E+00  0.00000000000E+00  0.21249173580E+04  0.21249173580E+04  0.00000000000E+00 0. -1.
         21   -1    0    0  501  502  0.00000000000E+00 -0.00000000000E+00 -0.23272265211E+03  0.23272265211E+03  0.00000000000E+00 0. -1.
         25    1    1    2    0    0  0.21052015517E+03 -0.14419846612E+03 -0.12503215834E+03  0.31043513651E+03  0.12500000000E+03 0.  0.
         21    1    1    2  503  502 -0.53704333389E+02  0.47672569632E+02  0.11163987782E+03  0.13274144657E+03  0.00000000000E+00 0. -1.
          2    1    1    2  501    0 -0.15681582178E+03  0.96525896484E+02  0.19055869864E+04  0.19144634270E+04  0.00000000000E+00 0. -1.
<mgrwt>
<rscale>  4 0.28118490E+03</rscale>
<asrwt>0</asrwt>
<pdfrwt beam="1">  1       21 0.35803486E-01 0.28118490E+03</pdfrwt>
<pdfrwt beam="2">  1        2 0.32691035E+00 0.28118490E+03</pdfrwt>
<totfact> 0.58892270E+02</totfact>
</mgrwt>
</event>
<event>
 5    0  0.1141006E+000  0.2559208E+03  0.7546771E-02  0.1109619E+00
          1   -1    0    0  503    0 -0.00000000000E+00  0.00000000000E+00  0.42617400344E+03  0.42617400344E+03  0.00000000000E+00 0. -1.
         21   -1    0    0  501  502  0.00000000000E+00 -0.00000000000E+00 -0.18595278712E+03  0.18595278712E+03  0.00000000000E+00 0. -1.
         25    1    1    2    0    0  0.13185467126E+03  0.18023536551E+03  0.27644550251E+03  0.37671946747E+03  0.12500000000E+03 0.  0.
         21    1    1    2  503  502 -0.26382478366E+02 -0.41543082369E+02  0.18805205477E+02  0.52683001153E+02  0.00000000000E+00 0. -1.
          1    1    1    2  501    0 -0.10547219289E+03 -0.13869228314E+03 -0.55029491660E+02  0.18272432194E+03  0.00000000000E+00 0. -1.
<mgrwt>
<rscale>  4 0.25592077E+03</rscale>
<asrwt>0</asrwt>
<pdfrwt beam="1">  1       21 0.28608121E-01 0.25592077E+03</pdfrwt>
<pdfrwt beam="2">  1        1 0.65565231E-01 0.25592077E+03</pdfrwt>
<totfact> 0.70706234E+03</totfact>
</mgrwt>
</event>
<event>
 5    0  0.1141006E+000  0.6726543E+03  0.7546771E-02  0.9765175E-01
         21   -1    0    0  501  502  0.00000000000E+00  0.00000000000E+00  0.35604913069E+03  0.35604913069E+03  0.00000000000E+00 0.  1.
          2   -1    0    0  503    0 -0.00000000000E+00 -0.00000000000E+00 -0.15465022471E+04  0.15465022471E+04  0.00000000000E+00 0. -1.
         25    1    1    2    0    0 -0.64139143504E+03 -0.17597806334E+03 -0.31270401904E+03  0.74549316244E+03  0.12500000000E+03 0.  0.
         21    1    1    2  503  502 -0.12058092067E+02  0.80086658553E+02 -0.40141363434E+02  0.90391368619E+02  0.00000000000E+00 0. -1.
          2    1    1    2  501    0  0.65344952711E+03  0.95891404788E+02 -0.83760773398E+03  0.10666668468E+04  0.00000000000E+00 0. -1.
<mgrwt>
<rscale>  4 0.67265433E+03</rscale>
<asrwt>0</asrwt>
<pdfrwt beam="1">  1       21 0.54776790E-01 0.67265433E+03</pdfrwt>
<pdfrwt beam="2">  1        2 0.23792342E+00 0.67265433E+03</pdfrwt>
<totfact> 0.43668538E+02</totfact>
</mgrwt>
</event>
<event>
 5    0  0.1141006E+000  0.3172448E+03  0.7546771E-02  0.1076924E+00
          2   -1    0    0  503    0 -0.00000000000E+00  0.00000000000E+00  0.16678231270E+04  0.16678231270E+04  0.00000000000E+00 0. -1.
         21   -1    0    0  501  502  0.00000000000E+00 -0.00000000000E+00 -0.73327502515E+02  0.73327502515E+02  0.00000000000E+00 0.  1.
         25    1    1    2    0    0 -0.25127214108E+02  0.30225230160E+03  0.69469919032E+03  0.76825763631E+03  0.12500000000E+03 0.  0.
         21    1    1    2  503  502  0.17315228581E+02 -0.19460368275E+02  0.38172836927E+03  0.38261608824E+03  0.00000000000E+00 0.  1.
          2    1    1    2  501    0  0.78119855277E+01 -0.28279193333E+03  0.51806806488E+03  0.59027690495E+03  0.00000000000E+00 0. -1.
<mgrwt>
<rscale>  4 0.31724480E+03</rscale>
<asrwt>0</asrwt>
<pdfrwt beam="1">  1       21 0.11281155E-01 0.31724480E+03</pdfrwt>
<pdfrwt beam="2">  1        2 0.25658815E+00 0.31724480E+03</pdfrwt>
<totfact> 0.90205886E+03</totfact>
</mgrwt>
</event>
<event>
 5    0  0.1141006E+000  0.2539339E+03  0.7546771E-02  0.1110844E+00
          2   -1    0    0  503    0 -0.00000000000E+00  0.00000000000E+00  0.92044554062E+03  0.92044554062E+03  0.00000000000E+00 0.  1.
         21   -1    0    0  501  502  0.00000000000E+00 -0.00000000000E+00 -0.10629259650E+03  0.10629259650E+03  0.00000000000E+00 0.  1.
         25    1    1    2    0    0  0.20799625029E+03 -0.74667036444E+02  0.10167426561E+03  0.27349636699E+03  0.12500000000E+03 0.  0.
         21    1    1    2  503  502  0.73493972039E+01  0.20548509122E+02  0.50402245575E+02  0.54923958574E+02  0.00000000000E+00 0.  1.
          2    1    1    2  501    0 -0.21534564750E+03  0.54118527322E+02  0.66207643294E+03  0.69831781156E+03  0.00000000000E+00 0.  1.
<mgrwt>
<rscale>  4 0.25393389E+03</rscale>
<asrwt>0</asrwt>
<pdfrwt beam="1">  1       21 0.16352708E-01 0.25393389E+03</pdfrwt>
<pdfrwt beam="2">  1        2 0.14160700E+00 0.25393389E+03</pdfrwt>
<totfact> 0.12337743E+04</totfact>
</mgrwt>
</event>
<event>
 5    0  0.1141006E+000  0.3014113E+03  0.7546771E-02  0.1084537E+00
         -2   -1    0    0    0  501 -0.00000000000E+00  0.00000000000E+00  0.10209157510E+04  0.10209157510E+04  0.00000000000E+00 0.  1.
         21   -1    0    0  503  502  0.00000000000E+00 -0.00000000000E+00 -0.30016783925E+03  0.30016783925E+03  0.00000000000E+00 0. -1.
         25    1    1    2    0    0 -0.27366590874E+03 -0.49722950703E+02 -0.18332206030E+03  0.35580525463E+03  0.12500000000E+03 0.  0.
         21    1    1    2  503  501  0.31887136450E+02  0.61368106686E+02  0.76924655827E+02  0.10344194828E+03  0.00000000000E+00 0.  1.
         -2    1    1    2    0  502  0.24177877229E+03 -0.11645155983E+02  0.82714531628E+03  0.86183638739E+03  0.00000000000E+00 0.  1.
<mgrwt>
<rscale>  4 0.30141135E+03</rscale>
<asrwt>0</asrwt>
<pdfrwt beam="1">  1       21 0.46179668E-01 0.30141135E+03</pdfrwt>
<pdfrwt beam="2">  1       -2 0.15706396E+00 0.30141135E+03</pdfrwt>
<totfact> 0.99482884E+01</totfact>
</mgrwt>
</event>
<event>
 5    0  0.1141006E+000  0.2972940E+03  0.7546771E-02  0.1086601E+00
          1   -1    0    0  503    0 -0.00000000000E+00  0.00000000000E+00  0.12678098709E+04  0.12678098709E+04  0.00000000000E+00 0. -1.
         21   -1    0    0  501  502  0.00000000000E+00 -0.00000000000E+00 -0.15745050405E+03  0.15745050405E+03  0.00000000000E+00 0.  1.
         25    1    1    2    0    0 -0.24806655165E+03 -0.10514445892E+03  0.27983266556E+02  0.29832940602E+03  0.12500000000E+03 0.  0.
         21    1    1    2  503  502 -0.11430499556E+02  0.22505604602E+02  0.24693634701E+03  0.24822312147E+03  0.00000000000E+00 0. -1.
          1    1    1    2  501    0  0.25949705121E+03  0.82638854317E+02  0.83543975323E+03  0.87870784742E+03  0.00000000000E+00 0. -1.
<mgrwt>
<rscale>  4 0.29729402E+03</rscale>
<asrwt>0</asrwt>
<pdfrwt beam="1">  1       21 0.24223155E-01 0.29729402E+03</pdfrwt>
<pdfrwt beam="2">  1        1 0.19504767E+00 0.29729402E+03</pdfrwt>
<totfact> 0.17855779E+03</totfact>
</mgrwt>
</event>
<event>
 5    0  0.1141006E+000  0.5341735E+03  0.7546771E-02  0.1005225E+00
          1   -1    0    0  503    0 -0.00000000000E+00  0.00000000000E+00  0.14900412056E+04  0.14900412056E+04  0.00000000000E+00 0.  1.
         21   -1    0    0  501  502  0.00000000000E+00 -0.00000000000E+00 -0.10522107112E+04  0.10522107112E+04  0.00000000000E+00 0.  1.
         25    1    1    2    0    0  0.49073048352E+03  0.40024563616E+01 -0.69431369053E+03  0.85937705809E+03  0.12500000000E+03 0.  0.
         21    1    1    2  503  502  0.37438068502E+03  0.50249711150E+02  0.32043632576E+03  0.49534368842E+03  0.00000000000E+00 0.  1.
          1    1    1    2  501    0 -0.86511116854E+03 -0.54252167512E+02  0.81170785917E+03  0.11875311702E+04  0.00000000000E+00 0.  1.
<mgrwt>
<rscale>  4 0.53417351E+03</rscale>
<asrwt>0</asrwt>
<pdfrwt beam="1">  1       21 0.16187857E+00 0.53417351E+03</pdfrwt>
<pdfrwt beam="2">  1        1 0.22923711E+00 0.53417351E+03</pdfrwt>
<totfact> 0.15964949E+01</totfact>
</mgrwt>
</event>
<event>
 5    0  0.1141006E+000  0.3233921E+03  0.7546771E-02  0.1074099E+00
          1   -1    0    0  503    0 -0.00000000000E+00  0.00000000000E+00  0.11922619206E+04  0.11922619206E+04  0.00000000000E+00 0. -1.
         21   -1    0    0  501  502  0.00000000000E+00 -0.00000000000E+00 -0.15792940264E+03  0.15792940264E+03  0.00000000000E+00 0. -1.
         25    1    1    2    0    0  0.27506924107E+03 -0.70949748204E+02  0.53208573650E+02  0.31488586260E+03  0.12500000000E+03 0.  0.
         21    1    1    2  503  502  0.12457543518E+02 -0.17440486174E+02  0.24746446479E+02  0.32737555831E+02  0.00000000000E+00 0.  1.
          1    1    1    2  501    0 -0.28752678459E+03  0.88390234378E+02  0.95637749787E+03  0.10025679048E+04  0.00000000000E+00 0. -1.
<mgrwt>
<rscale>  4 0.32339210E+03</rscale>
<asrwt>0</asrwt>
<pdfrwt beam="1">  1       21 0.24296832E-01 0.32339210E+03</pdfrwt>
<pdfrwt beam="2">  1        1 0.18342490E+00 0.32339210E+03</pdfrwt>
<totfact> 0.19876126E+03</totfact>
</mgrwt>
</event>
<event>
 5    0  0.1141006E+000  0.2402649E+03  0.7546771E-02  0.1119616E+00
         21   -1    0    0  501  502  0.00000000000E+00  0.00000000000E+00  0.25357952808E+02  0.25357952808E+02  0.00000000000E+00 0. -1.
          2   -1    0    0  503    0 -0.00000000000E+00 -0.00000000000E+00 -0.31847029040E+04  0.31847029040E+04  0.00000000000E+00 0. -1.
         25    1    1    2    0    0 -0.10070128950E+03  0.18794772421E+03 -0.97910368244E+03  0.10098188539E+04  0.12500000000E+03 0.  0.
         21    1    1    2  503  502  0.76049627812E+02  0.13697377294E+02 -0.96966492530E+03  0.97273903561E+03  0.00000000000E+00 0.  1.
          2    1    1    2  501    0  0.24651661690E+02 -0.20164510150E+03 -0.12105763434E+04  0.12275029673E+04  0.00000000000E+00 0. -1.
<mgrwt>
<rscale>  4 0.24026494E+03</rscale>
<asrwt>0</asrwt>
<pdfrwt beam="1">  1       21 0.39012216E-02 0.24026494E+03</pdfrwt>
<pdfrwt beam="2">  1        2 0.48995454E+00 0.24026494E+03</pdfrwt>
<totfact> 0.84974987E+03</totfact>
</mgrwt>
</event>
<event>
 5    0  0.1141006E+000  0.5157177E+03  0.7546771E-02  0.1009756E+00
          1   -1    0    0  503    0 -0.00000000000E+00  0.00000000000E+00  0.22705717507E+04  0.22705717507E+04  0.00000000000E+00 0. -1.
         21   -1    0    0  501  502  0.00000000000E+00 -0.00000000000E+00 -0.35134825623E+03  0.35134825623E+03  0.00000000000E+00 0.  1.
         25    1    1    2    0    0  0.46932827967E+03  0.17834078462E+03 -0.10303735476E+03  0.52755678939E+03  0.12500000000E+03 0.  0.
         21    1    1    2  503  502 -0.90479322592E+01 -0.19180088638E+02  0.40031023365E+03  0.40087158048E+03  0.00000000000E+00 0.  1.
          1    1    1    2  501    0 -0.46028034741E+03 -0.15916069598E+03  0.16219506156E+04  0.16934916370E+04  0.00000000000E+00 0. -1.
<mgrwt>
<rscale>  4 0.51571766E+03</rscale>
<asrwt>0</asrwt>
<pdfrwt beam="1">  1       21 0.54053579E-01 0.51571766E+03</pdfrwt>
<pdfrwt beam="2">  1        1 0.34931872E+00 0.51571766E+03</pdfrwt>
<totfact> 0.69504124E+01</totfact>
</mgrwt>
</event>
<event>
 5    0  0.1141006E+000  0.3951472E+03  0.7546771E-02  0.1045473E+00
          1   -1    0    0  503    0 -0.00000000000E+00  0.00000000000E+00  0.15095504328E+04  0.15095504328E+04  0.00000000000E+00 0. -1.
         21   -1    0    0  501  502  0.00000000000E+00 -0.00000000000E+00 -0.23828027100E+03  0.23828027100E+03  0.00000000000E+00 0.  1.
         25    1    1    2    0    0 -0.33371509816E+03 -0.15189696993E+03  0.15210792651E+03  0.41617337435E+03  0.12500000000E+03 0.  0.
         21    1    1    2  503  502  0.23154297886E+02 -0.85488104294E+02  0.85568220852E+03  0.86025367158E+03  0.00000000000E+00 0.  1.
          1    1    1    2  501    0  0.31056080027E+03  0.23738507422E+03  0.26348002673E+03  0.47140365783E+03  0.00000000000E+00 0. -1.
<mgrwt>
<rscale>  4 0.39514725E+03</rscale>
<asrwt>0</asrwt>
<pdfrwt beam="1">  1       21 0.36658504E-01 0.39514725E+03</pdfrwt>
<pdfrwt beam="2">  1        1 0.23223852E+00 0.39514725E+03</pdfrwt>
<totfact> 0.52169350E+02</totfact>
</mgrwt>
</event>
<event>
 5    0  0.1141006E+000  0.2481364E+03  0.7546771E-02  0.1114488E+00
         21   -1    0    0  501  502  0.00000000000E+00  0.00000000000E+00  0.53819953515E+03  0.53819953515E+03  0.00000000000E+00 0. -1.
          1   -1    0    0  503    0 -0.00000000000E+00 -0.00000000000E+00 -0.16898123927E+03  0.16898123927E+03  0.00000000000E+00 0. -1.
         25    1    1    2    0    0  0.12330689424E+02 -0.21255411841E+03  0.39301706361E+03  0.46413221332E+03  0.12500000000E+03 0.  0.
         21    1    1    2  503  502  0.21293074202E+02 -0.48785900565E+01 -0.30162302770E+01  0.22052058747E+02  0.00000000000E+00 0. -1.
          1    1    1    2  501    0 -0.33623763626E+02  0.21743270846E+03 -0.20782537457E+02  0.22099650236E+03  0.00000000000E+00 0. -1.
<mgrwt>
<rscale>  4 0.24813638E+03</rscale>
<asrwt>0</asrwt>
<pdfrwt beam="1">  1       21 0.82799928E-01 0.24813638E+03</pdfrwt>
<pdfrwt beam="2">  1        1 0.25997114E-01 0.24813638E+03</pdfrwt>
<totfact> 0.24544831E+03</totfact>
</mgrwt>
</event>
<event>
 5    0  0.1141006E+000  0.7578657E+03  0.7546771E-02  0.9623090E-01
          2   -1    0    0  503    0 -0.00000000000E+00  0.00000000000E+00  0.13951285228E+04  0.13951285228E+04  0.00000000000E+00 0.  1.
         21   -1    0    0  501  502  0.00000000000E+00 -0.00000000000E+00 -0.60311794738E+03  0.60311794738E+03  0.00000000000E+00 0. -1.
         25    1    1    2    0    0 -0.59453670896E+03  0.46714832888E+03 -0.13923039755E+03  0.77891691667E+03  0.12500000000E+03 0.  0.
         21    1    1    2  503  502  0.10846072561E+02 -0.40741592564E+02  0.14630202513E+03  0.15225569681E+03  0.00000000000E+00 0.  1.
          2    1    1    2  501    0  0.58369063640E+03 -0.42640673632E+03  0.78493894785E+03  0.10670738567E+04  0.00000000000E+00 0.  1.
<mgrwt>
<rscale>  4 0.75786570E+03</rscale>
<asrwt>0</asrwt>
<pdfrwt beam="1">  1       21 0.92787377E-01 0.75786570E+03</pdfrwt>
<pdfrwt beam="2">  1        2 0.21463516E+00 0.75786570E+03</pdfrwt>
<totfact> 0.15615101E+02</totfact>
</mgrwt>
</event>
<event>
 5    0  0.1141006E+000  0.2692127E+03  0.7546771E-02  0.1101731E+00
         21   -1    0    0  501  502  0.00000000000E+00  0.00000000000E+00  0.90340416816E+02  0.90340416816E+02  0.00000000000E+00 0. -1.
          2   -1    0    0  503    0 -0.00000000000E+00 -0.00000000000E+00 -0.95452860310E+03  0.95452860310E+03  0.00000000000E+00 0. -1.
         25    1    1    2    0    0  0.45760279366E+02  0.23572268557E+03 -0.22918490930E+03  0.35469692740E+03  0.12500000000E+03 0.  0.
         21    1    1    2  503  502 -0.33388590450E+02  0.50501547113E+00 -0.66319796619E+02  0.74252060149E+02  0.00000000000E+00 0.  1.
          2    1    1    2  501    0 -0.12371688916E+02 -0.23622770104E+03 -0.56868348037E+03  0.61592003236E+03  0.00000000000E+00 0. -1.
<mgrwt>
<rscale>  4 0.26921267E+03</rscale>
<asrwt>0</asrwt>
<pdfrwt beam="1">  1       21 0.13898525E-01 0.26921267E+03</pdfrwt>
<pdfrwt beam="2">  1        2 0.14685056E+00 0.26921267E+03</pdfrwt>
<totfact> 0.15769038E+04</totfact>
</mgrwt>
</event>
<event>
 5    0  0.1141006E+000  0.2602963E+03  0.7546771E-02  0.1106965E+00
         21   -1    0    0  501  502  0.00000000000E+00  0.00000000000E+00  0.34165400990E+03  0.34165400990E+03  0.00000000000E+00 0.  1.
          1   -1    0    0  503    0 -0.00000000000E+00 -0.00000000000E+00 -0.11707119220E+04  0.11707119220E+04  0.00000000000E+00 0.  1.
         25    1    1    2    0    0 -0.17964124466E+03  0.14236375281E+03  0.27469559345E+03  0.37897372463E+03  0.12500000000E+03 0.  0.
         21    1    1    2  503  502 -0.13242379783E+01 -0.25626897393E+02 -0.30629188643E+03  0.30736494785E+03  0.00000000000E+00 0. -1.
          1    1    1    2  501    0  0.18096548264E+03 -0.11673685541E+03 -0.79746161913E+03  0.82602725942E+03  0.00000000000E+00 0.  1.
<mgrwt>
<rscale>  4 0.26029626E+03</rscale>
<asrwt>0</asrwt>
<pdfrwt beam="1">  1       21 0.52562155E-01 0.26029626E+03</pdfrwt>
<pdfrwt beam="2">  1        1 0.18010953E+00 0.26029626E+03</pdfrwt>
<totfact> 0.44637573E+02</totfact>
</mgrwt>
</event>
<event>
 5    0  0.1141006E+000  0.2601031E+03  0.7546771E-02  0.1107081E+00
          2   -1    0    0  503    0 -0.00000000000E+00  0.00000000000E+00  0.15661473688E+04  0.15661473688E+04  0.00000000000E+00 0. -1.
         21   -1    0    0  501  502  0.00000000000E+00 -0.00000000000E+00 -0.14925423871E+03  0.14925423871E+03  0.00000000000E+00 0. -1.
         25    1    1    2    0    0 -0.33615594424E+02  0.22656135742E+03 -0.14213350654E+02  0.26131795996E+03  0.12500000000E+03 0.  0.
         21    1    1    2  503  502 -0.17879180598E+02 -0.12107882635E+02  0.35243284785E+03  0.35309372434E+03  0.00000000000E+00 0. -1.
          2    1    1    2  501    0  0.51494775022E+02 -0.21445347478E+03  0.10786736329E+04  0.11009899232E+04  0.00000000000E+00 0. -1.
<mgrwt>
<rscale>  4 0.26010314E+03</rscale>
<asrwt>0</asrwt>
<pdfrwt beam="1">  1       21 0.22962192E-01 0.26010314E+03</pdfrwt>
<pdfrwt beam="2">  1        2 0.24094574E+00 0.26010314E+03</pdfrwt>
<totfact> 0.27939029E+03</totfact>
</mgrwt>
</event>
<event>
 5    0  0.1141006E+000  0.5596485E+03  0.7546771E-02  0.9992850E-01
          2   -1    0    0  503    0 -0.00000000000E+00  0.00000000000E+00  0.81498174457E+03  0.81498174457E+03  0.00000000000E+00 0. -1.
         21   -1    0    0  501  502  0.00000000000E+00 -0.00000000000E+00 -0.83494639687E+03  0.83494639687E+03  0.00000000000E+00 0.  1.
         25    1    1    2    0    0 -0.26280498539E+03 -0.47837350254E+03 -0.61299139699E+03  0.83023558166E+03  0.12500000000E+03 0.  0.
         21    1    1    2  503  502  0.19319554351E+02 -0.81008615122E+01  0.31798939320E+02  0.38079412803E+02  0.00000000000E+00 0.  1.
          2    1    1    2  501    0  0.24348543104E+03  0.48647436405E+03  0.56122780536E+03  0.78161314697E+03  0.00000000000E+00 0. -1.
<mgrwt>
<rscale>  4 0.55964847E+03</rscale>
<asrwt>0</asrwt>
<pdfrwt beam="1">  1       21 0.12845329E+00 0.55964847E+03</pdfrwt>
<pdfrwt beam="2">  1        2 0.12538181E+00 0.55964847E+03</pdfrwt>
<totfact> 0.16502160E+02</totfact>
</mgrwt>
</event>
<event>
 5    0  0.1141006E+000  0.3449293E+03  0.7546771E-02  0.1064716E+00
          3   -1    0    0  503    0 -0.00000000000E+00  0.00000000000E+00  0.16937727316E+04  0.16937727316E+04  0.00000000000E+00 0. -1.
         21   -1    0    0  501  502  0.00000000000E+00 -0.00000000000E+00 -0.68593203432E+02  0.68593203432E+02  0.00000000000E+00 0. -1.
         25    1    1    2    0    0  0.13932937465E+03  0.28972147009E+03  0.92831708606E+03  0.99032763121E+03  0.12500000000E+03 0.  0.
         21    1    1    2  503  502  0.91873256467E+01 -0.29548493774E+02  0.91767974422E+02  0.96844625904E+02  0.00000000000E+00 0. -1.
          3    1    1    2  501    0 -0.14851670030E+03 -0.26017297631E+03  0.60509446767E+03  0.67519367790E+03  0.00000000000E+00 0. -1.
<mgrwt>
<rscale>  4 0.34492928E+03</rscale>
<asrwt>0</asrwt>
<pdfrwt beam="1">  1       21 0.10552802E-01 0.34492928E+03</pdfrwt>
<pdfrwt beam="2">  1        3 0.26058039E+00 0.34492928E+03</pdfrwt>
<totfact> 0.25757215E+02</totfact>
</mgrwt>
</event>
<event>
 5    0  0.1141006E+000  0.3651720E+03  0.7546771E-02  0.1056555E+00
         21   -1    0    0  501  502  0.00000000000E+00  0.00000000000E+00  0.13058272382E+03  0.13058272382E+03  0.00000000000E+00 0.  1.
          2   -1    0    0  503    0 -0.00000000000E+00 -0.00000000000E+00 -0.12557023654E+04  0.12557023654E+04  0.00000000000E+00 0.  1.
         25    1    1    2    0    0 -0.24644843435E+03  0.21513667774E+03 -0.31392550926E+03  0.47031356165E+03  0.12500000000E+03 0.  0.
         21    1    1    2  503  502 -0.48924928014E+02  0.13715164533E+02 -0.11824021996E+03  0.12869539205E+03  0.00000000000E+00 0. -1.
          2    1    1    2  501    0  0.29537336236E+03 -0.22885184228E+03 -0.69295391241E+03  0.78727613557E+03  0.00000000000E+00 0.  1.
<mgrwt>
<rscale>  4 0.36517201E+03</rscale>
<asrwt>0</asrwt>
<pdfrwt beam="1">  1       21 0.20089651E-01 0.36517201E+03</pdfrwt>
<pdfrwt beam="2">  1        2 0.19318497E+00 0.36517201E+03</pdfrwt>
<totfact> 0.51586643E+03</totfact>
</mgrwt>
</event>
<event>
 5    0  0.1141006E+000  0.2803561E+03  0.7546771E-02  0.1095495E+00
         21   -1    0    0  501  502  0.00000000000E+00  0.00000000000E+00  0.71805719263E+02  0.71805719263E+02  0.00000000000E+00 0. -1.
          2   -1    0    0  503    0 -0.00000000000E+00 -0.00000000000E+00 -0.21007706299E+04  0.21007706299E+04  0.00000000000E+00 0.  1.
         25    1    1    2    0    0  0.14624714365E+03 -0.20392718370E+03 -0.25325416457E+03  0.37780576378E+03  0.12500000000E+03 0.  0.
         21    1    1    2  503  502 -0.14254767236E+01  0.48076338347E+02 -0.31862039543E+03  0.32223023240E+03  0.00000000000E+00 0.  1.
          2    1    1    2  501    0 -0.14482166693E+03  0.15585084535E+03 -0.14570903507E+04  0.14725403530E+04  0.00000000000E+00 0.  1.
<mgrwt>
<rscale>  4 0.28035607E+03</rscale>
<asrwt>0</asrwt>
<pdfrwt beam="1">  1       21 0.11047035E-01 0.28035607E+03</pdfrwt>
<pdfrwt beam="2">  1        2 0.32319543E+00 0.28035607E+03</pdfrwt>
<totfact> 0.55936625E+03</totfact>
</mgrwt>
</event>
<event>
 5    0  0.1141006E+000  0.4544297E+03  0.7546771E-02  0.1026409E+00
         21   -1    0    0  501  502  0.00000000000E+00  0.00000000000E+00  0.13859769583E+04  0.13859769583E+04  0.00000000000E+00 0.  1.
          2   -1    0    0  503    0 -0.00000000000E+00 -0.00000000000E+00 -0.11700451077E+04  0.11700451077E+04  0.00000000000E+00 0.  1.
         25    1    1    2    0    0 -0.38625992158E+03 -0.20149916387E+03  0.12892809593E+04  0.13666268811E+04  0.12500000000E+03 0.  0.
         21    1    1    2  503  502 -0.25326438528E+02 -0.28540209155E+02 -0.52359413607E+02  0.64787963546E+02  0.00000000000E+00 0.  1.
          2    1    1    2  501    0  0.41158636010E+03  0.23003937302E+03 -0.10209896951E+04  0.11246072214E+04  0.00000000000E+00 0.  1.
<mgrwt>
<rscale>  4 0.45442970E+03</rscale>
<asrwt>0</asrwt>
<pdfrwt beam="1">  1       21 0.21322722E+00 0.45442970E+03</pdfrwt>
<pdfrwt beam="2">  1        2 0.18000694E+00 0.45442970E+03</pdfrwt>
<totfact> 0.24041084E+01</totfact>
</mgrwt>
</event>
<event>
 5    0  0.1141006E+000  0.2486765E+03  0.7546771E-02  0.1114144E+00
         21   -1    0    0  501  502  0.00000000000E+00  0.00000000000E+00  0.96784647045E+02  0.96784647045E+02  0.00000000000E+00 0.  1.
          1   -1    0    0  503    0 -0.00000000000E+00 -0.00000000000E+00 -0.92525591029E+03  0.92525591029E+03  0.00000000000E+00 0. -1.
         25    1    1    2    0    0 -0.10534816294E+03 -0.18484381318E+03 -0.12769665432E+03  0.27784331237E+03  0.12500000000E+03 0.  0.
         21    1    1    2  503  502 -0.24975197971E+02  0.43538032418E+01 -0.10961819707E+03  0.11251162271E+03  0.00000000000E+00 0.  1.
          1    1    1    2  501    0  0.13032336091E+03  0.18049000994E+03 -0.59115641185E+03  0.63168562225E+03  0.00000000000E+00 0. -1.
<mgrwt>
<rscale>  4 0.24867650E+03</rscale>
<asrwt>0</asrwt>
<pdfrwt beam="1">  1       21 0.14889946E-01 0.24867650E+03</pdfrwt>
<pdfrwt beam="2">  1        1 0.14234706E+00 0.24867650E+03</pdfrwt>
<totfact> 0.80065059E+03</totfact>
</mgrwt>
</event>
<event>
 5    0  0.1141006E+000  0.6182885E+03  0.7546771E-02  0.9868173E-01
         21   -1    0    0  501  502  0.00000000000E+00  0.00000000000E+00  0.44961009244E+03  0.44961009244E+03  0.00000000000E+00 0. -1.
          2   -1    0    0  503    0 -0.00000000000E+00 -0.00000000000E+00 -0.12350767208E+04  0.12350767208E+04  0.00000000000E+00 0.  1.
         25    1    1    2    0    0 -0.16890707498E+03 -0.60843081545E+03 -0.95630915335E+00  0.64369524753E+03  0.12500000000E+03 0.  0.
         21    1    1    2  503  502 -0.49643925866E+02  0.51854476656E+02 -0.28841070537E+02  0.77364161434E+02  0.00000000000E+00 0. -1.
          2    1    1    2  501    0  0.21855100085E+03  0.55657633879E+03 -0.75566924865E+03  0.96362740426E+03  0.00000000000E+00 0.  1.
<mgrwt>
<rscale>  4 0.61828848E+03</rscale>
<asrwt>0</asrwt>
<pdfrwt beam="1">  1       21 0.69170783E-01 0.61828848E+03</pdfrwt>
<pdfrwt beam="2">  1        2 0.19001180E+00 0.61828848E+03</pdfrwt>
<totfact> 0.39454000E+02</totfact>
</mgrwt>
</event>
<event>
 5    0  0.1141006E+000  0.4247964E+03  0.7546771E-02  0.1035516E+00
          2   -1    0    0  503    0 -0.00000000000E+00  0.00000000000E+00  0.11366727883E+04  0.11366727883E+04  0.00000000000E+00 0. -1.
         21   -1    0    0  501  502  0.00000000000E+00 -0.00000000000E+00 -0.51844823967E+03  0.51844823967E+03  0.00000000000E+00 0. -1.
         25    1    1    2    0    0  0.38715692529E+03 -0.11896916442E+03 -0.37343791555E+03  0.56491151843E+03  0.12500000000E+03 0.  0.
         21    1    1    2  503  502 -0.10580764581E+00 -0.36013953118E+02  0.80516225632E+02  0.88203620133E+02  0.00000000000E+00 0.  1.
          2    1    1    2  501    0 -0.38705111764E+03  0.15498311754E+03  0.91114623853E+03  0.10020058894E+04  0.00000000000E+00 0. -1.
<mgrwt>
<rscale>  4 0.42479645E+03</rscale>
<asrwt>0</asrwt>
<pdfrwt beam="1">  1       21 0.79761268E-01 0.42479645E+03</pdfrwt>
<pdfrwt beam="2">  1        2 0.17487274E+00 0.42479645E+03</pdfrwt>
<totfact> 0.34272518E+02</totfact>
</mgrwt>
</event>
<event>
 5    0  0.1141006E+000  0.3785045E+03  0.7546771E-02  0.1051488E+00
         21   -1    0    0  501  502  0.00000000000E+00  0.00000000000E+00  0.52059344516E+03  0.52059344516E+03  0.00000000000E+00 0.  1.
          2   -1    0    0  503    0 -0.00000000000E+00 -0.00000000000E+00 -0.10993591757E+04  0.10993591757E+04  0.00000000000E+00 0. -1.
         25    1    1    2    0    0 -0.34077851782E+03  0.50254698666E+02  0.32500830710E+03  0.48980703612E+03  0.12500000000E+03 0.  0.
         21    1    1    2  503  502 -0.70026005921E+02  0.35558417672E+02 -0.61670173867E+03  0.62168245677E+03  0.00000000000E+00 0. -1.
          2    1    1    2  501    0  0.41080452375E+03 -0.85813116338E+02 -0.28707229894E+03  0.50846312795E+03  0.00000000000E+00 0. -1.
<mgrwt>
<rscale>  4 0.37850450E+03</rscale>
<asrwt>0</asrwt>
<pdfrwt beam="1">  1       21 0.80091300E-01 0.37850450E+03</pdfrwt>
<pdfrwt beam="2">  1        2 0.16913218E+00 0.37850450E+03</pdfrwt>
<totfact> 0.36311585E+02</totfact>
</mgrwt>
</event>
<event>
 5    0  0.1141006E+000  0.2741533E+03  0.7546771E-02  0.1098926E+00
          2   -1    0    0  503    0 -0.00000000000E+00  0.00000000000E+00  0.87840699007E+03  0.87840699007E+03  0.00000000000E+00 0. -1.
         21   -1    0    0  501  502  0.00000000000E+00 -0.00000000000E+00 -0.14861237529E+03  0.14861237529E+03  0.00000000000E+00 0. -1.
         25    1    1    2    0    0 -0.16545673348E+03  0.17932955129E+03  0.21501133652E+02  0.27499512244E+03  0.12500000000E+03 0.  0.
         21    1    1    2  503  502 -0.11616922644E+01 -0.26701766358E+02  0.71907190640E+02  0.76713609753E+02  0.00000000000E+00 0.  1.
          2    1    1    2  501    0  0.16661842574E+03 -0.15262778493E+03  0.63638629049E+03  0.67531063316E+03  0.00000000000E+00 0. -1.
<mgrwt>
<rscale>  4 0.27415328E+03</rscale>
<asrwt>0</asrwt>
<pdfrwt beam="1">  1       21 0.22863443E-01 0.27415328E+03</pdfrwt>
<pdfrwt beam="2">  1        2 0.13513953E+00 0.27415328E+03</pdfrwt>
<totfact> 0.69724961E+03</totfact>
</mgrwt>
</event>
<event>
 5    0  0.1141006E+000  0.4209811E+03  0.7546771E-02  0.1036747E+00
         21   -1    0    0  501  502  0.00000000000E+00  0.00000000000E+00  0.12976895127E+04  0.12976895127E+04  0.00000000000E+00 0.  1.
          1   -1    0    0  503    0 -0.00000000000E+00 -0.00000000000E+00 -0.34701227974E+03  0.34701227974E+03  0.00000000000E+00 0.  1.
         25    1    1    2    0    0 -0.13608141355E+03  0.37988938520E+03  0.11011527039E+04  0.11794050930E+04  0.12500000000E+03 0.  0.
         21    1    1    2  503  502  0.29299948162E+02 -0.17140442077E+01 -0.52750351722E+02  0.60365756159E+02  0.00000000000E+00 0.  1.
          1    1    1    2  501    0  0.10678146539E+03 -0.37817534099E+03 -0.97725119224E+02  0.40493094327E+03  0.00000000000E+00 0.  1.
<mgrwt>
<rscale>  4 0.42098111E+03</rscale>
<asrwt>0</asrwt>
<pdfrwt beam="1">  1       21 0.19964454E+00 0.42098111E+03</pdfrwt>
<pdfrwt beam="2">  1        1 0.53386505E-01 0.42098111E+03</pdfrwt>
<totfact> 0.93586432E+01</totfact>
</mgrwt>
</event>
<event>
 5    0  0.1141006E+000  0.2990578E+03  0.7546771E-02  0.1085713E+00
         21   -1    0    0  501  502  0.00000000000E+00  0.00000000000E+00  0.34117249587E+03  0.34117249587E+03  0.00000000000E+00 0.  1.
          2   -1    0    0  503    0 -0.00000000000E+00 -0.00000000000E+00 -0.22617310941E+04  0.22617310941E+04  0.00000000000E+00 0.  1.
         25    1    1    2    0    0 -0.11716124846E+03  0.24179761305E+03  0.24009305274E+03  0.38139548738E+03  0.12500000000E+03 0.  0.
         21    1    1    2  503  502 -0.99841881029E+02  0.47391607610E+02 -0.20673575093E+03  0.23442277277E+03  0.00000000000E+00 0. -1.
          2    1    1    2  501    0  0.21700312949E+03 -0.28918922066E+03 -0.19539159000E+04  0.19870853298E+04  0.00000000000E+00 0.  1.
<mgrwt>
<rscale>  4 0.29905777E+03</rscale>
<asrwt>0</asrwt>
<pdfrwt beam="1">  1       21 0.52488077E-01 0.29905777E+03</pdfrwt>
<pdfrwt beam="2">  1        2 0.34795862E+00 0.29905777E+03</pdfrwt>
<totfact> 0.22380351E+02</totfact>
</mgrwt>
</event>
<event>
 5    0  0.1141006E+000  0.2908376E+03  0.7546771E-02  0.1089913E+00
         21   -1    0    0  501  502  0.00000000000E+00  0.00000000000E+00  0.12204818212E+04  0.12204818212E+04  0.00000000000E+00 0.  1.
          1   -1    0    0  503    0 -0.00000000000E+00 -0.00000000000E+00 -0.35281914655E+03  0.35281914655E+03  0.00000000000E+00 0. -1.
         25    1    1    2    0    0  0.25112257583E+03  0.93593581269E+02  0.11171198186E+04  0.11555968136E+04  0.12500000000E+03 0.  0.
         21    1    1    2  503  502 -0.52632618252E+02  0.34992111366E+01 -0.17772547735E+03  0.18538819348E+03  0.00000000000E+00 0. -1.
          1    1    1    2  501    0 -0.19848995758E+03 -0.97092792406E+02 -0.71731666577E+02  0.23231596068E+03  0.00000000000E+00 0. -1.
<mgrwt>
<rscale>  4 0.29083762E+03</rscale>
<asrwt>0</asrwt>
<pdfrwt beam="1">  1       21 0.18776643E+00 0.29083762E+03</pdfrwt>
<pdfrwt beam="2">  1        1 0.54279869E-01 0.29083762E+03</pdfrwt>
<totfact> 0.11734099E+02</totfact>
</mgrwt>
</event>
<event>
 5    0  0.1141006E+000  0.2950510E+03  0.7546771E-02  0.1087741E+00
         21   -1    0    0  501  502  0.00000000000E+00  0.00000000000E+00  0.42711084774E+02  0.42711084774E+02  0.00000000000E+00 0. -1.
          2   -1    0    0  503    0 -0.00000000000E+00 -0.00000000000E+00 -0.22064885573E+04  0.22064885573E+04  0.00000000000E+00 0. -1.
         25    1    1    2    0    0 -0.54968158827E+02 -0.24595813651E+03 -0.10957145842E+04  0.11312525595E+04  0.12500000000E+03 0.  0.
         21    1    1    2  503  502 -0.77185269824E+01 -0.25012360428E+02 -0.29889197428E+03  0.30003600804E+03  0.00000000000E+00 0. -1.
          2    1    1    2  501    0  0.62686685809E+02  0.27097049694E+03 -0.76917091406E+03  0.81791107452E+03  0.00000000000E+00 0. -1.
<mgrwt>
<rscale>  4 0.29505096E+03</rscale>
<asrwt>0</asrwt>
<pdfrwt beam="1">  1       21 0.65709361E-02 0.29505096E+03</pdfrwt>
<pdfrwt beam="2">  1        2 0.33945978E+00 0.29505096E+03</pdfrwt>
<totfact> 0.12230820E+04</totfact>
</mgrwt>
</event>
<event>
 5    0  0.1141006E+000  0.2796351E+03  0.7546771E-02  0.1095888E+00
          2   -1    0    0  503    0 -0.00000000000E+00  0.00000000000E+00  0.23775178134E+03  0.23775178134E+03  0.00000000000E+00 0.  1.
         21   -1    0    0  501  502  0.00000000000E+00 -0.00000000000E+00 -0.32333840465E+03  0.32333840465E+03  0.00000000000E+00 0.  1.
         25    1    1    2    0    0  0.16890205023E+03 -0.18917256644E+03 -0.51875753584E+02  0.28745478997E+03  0.12500000000E+03 0.  0.
         21    1    1    2  503  502 -0.19175961766E+02 -0.82269186530E+01 -0.13928738953E+02  0.25088034379E+02  0.00000000000E+00 0.  1.
          2    1    1    2  501    0 -0.14972608846E+03  0.19739948510E+03 -0.19782130779E+02  0.24854736164E+03  0.00000000000E+00 0.  1.
<mgrwt>
<rscale>  4 0.27963510E+03</rscale>
<asrwt>0</asrwt>
<pdfrwt beam="1">  1       21 0.49744370E-01 0.27963510E+03</pdfrwt>
<pdfrwt beam="2">  1        2 0.36577197E-01 0.27963510E+03</pdfrwt>
<totfact> 0.65699240E+03</totfact>
</mgrwt>
</event>
<event>
 5    0  0.1141006E+000  0.2773812E+03  0.7546771E-02  0.1097128E+00
         21   -1    0    0  503  502  0.00000000000E+00  0.00000000000E+00  0.79925139893E+03  0.79925139893E+03  0.00000000000E+00 0.  1.
         -1   -1    0    0    0  501 -0.00000000000E+00 -0.00000000000E+00 -0.81132403396E+03  0.81132403396E+03  0.00000000000E+00 0.  1.
         25    1    1    2    0    0  0.90929795359E+02 -0.23124994229E+03  0.75210306330E+03  0.80189075398E+03  0.12500000000E+03 0.  0.
         21    1    1    2  503  501 -0.70334101583E+01  0.26395439200E+02 -0.24847239600E+02  0.36926594546E+02  0.00000000000E+00 0. -1.
         -1    1    1    2    0  502 -0.83896385200E+02  0.20485450309E+03 -0.73932845873E+03  0.77175808436E+03  0.00000000000E+00 0.  1.
<mgrwt>
<rscale>  4 0.27738119E+03</rscale>
<asrwt>0</asrwt>
<pdfrwt beam="1">  1       21 0.12296175E+00 0.27738119E+03</pdfrwt>
<pdfrwt beam="2">  1       -1 0.12481908E+00 0.27738119E+03</pdfrwt>
<totfact> 0.26458404E+01</totfact>
</mgrwt>
</event>
<event>
 5    0  0.1141006E+000  0.2431067E+03  0.7546771E-02  0.1117740E+00
         21   -1    0    0  501  502  0.00000000000E+00  0.00000000000E+00  0.38372676534E+03  0.38372676534E+03  0.00000000000E+00 0. -1.
          2   -1    0    0  503    0 -0.00000000000E+00 -0.00000000000E+00 -0.43841143180E+03  0.43841143180E+03  0.00000000000E+00 0. -1.
         25    1    1    2    0    0 -0.15841027622E+03  0.13125294464E+03  0.29380435920E+03  0.37982516053E+03  0.12500000000E+03 0.  0.
         21    1    1    2  503  502 -0.63870241318E+01  0.33590623303E+02 -0.20276584815E+02  0.39752533793E+02  0.00000000000E+00 0.  1.
          2    1    1    2  501    0  0.16479730035E+03 -0.16484356795E+03 -0.32821244084E+03  0.40256050281E+03  0.00000000000E+00 0. -1.
<mgrwt>
<rscale>  4 0.24310670E+03</rscale>
<asrwt>0</asrwt>
<pdfrwt beam="1">  1       21 0.59034887E-01 0.24310670E+03</pdfrwt>
<pdfrwt beam="2">  1        2 0.67447912E-01 0.24310670E+03</pdfrwt>
<totfact> 0.23705844E+03</totfact>
</mgrwt>
</event>
<event>
 5    0  0.1141006E+000  0.3107539E+03  0.7546771E-02  0.1079985E+00
         21   -1    0    0  501  502  0.00000000000E+00  0.00000000000E+00  0.82144228794E+02  0.82144228794E+02  0.00000000000E+00 0.  1.
          2   -1    0    0  503    0 -0.00000000000E+00 -0.00000000000E+00 -0.13514245743E+04  0.13514245743E+04  0.00000000000E+00 0.  1.
         25    1    1    2    0    0 -0.15078496836E+03  0.24274499525E+03 -0.47244700972E+03  0.56612049636E+03  0.12500000000E+03 0.  0.
         21    1    1    2  503  502 -0.23123859524E+02 -0.18354759427E+02 -0.24595725246E+03  0.24772278884E+03  0.00000000000E+00 0. -1.
          2    1    1    2  501    0  0.17390882789E+03 -0.22439023582E+03 -0.55087608329E+03  0.61972551786E+03  0.00000000000E+00 0.  1.
<mgrwt>
<rscale>  4 0.31075389E+03</rscale>
<asrwt>0</asrwt>
<pdfrwt beam="1">  1       21 0.12637573E-01 0.31075389E+03</pdfrwt>
<pdfrwt beam="2">  1        2 0.20791148E+00 0.31075389E+03</pdfrwt>
<totfact> 0.10903811E+04</totfact>
</mgrwt>
</event>
<event>
 5    0  0.1141006E+000  0.2613116E+03  0.7546771E-02  0.1106358E+00
          2   -1    0    0  503    0 -0.00000000000E+00  0.00000000000E+00  0.58025620455E+03  0.58025620455E+03  0.00000000000E+00 0. -1.
         21   -1    0    0  501  502  0.00000000000E+00 -0.00000000000E+00 -0.28971618845E+03  0.28971618845E+03  0.00000000000E+00 0.  1.
         25    1    1    2    0    0 -0.19515104717E+03  0.11557370300E+03 -0.18807113476E+03  0.32005775067E+03  0.12500000000E+03 0.  0.
         21    1    1    2  503  502 -0.19747048429E+02  0.96660563944E+01  0.35049925036E+02  0.41374821002E+02  0.00000000000E+00 0. -1.
          2    1    1    2  501    0  0.21489809559E+03 -0.12523975939E+03  0.44356122582E+03  0.50853982133E+03  0.00000000000E+00 0. -1.
<mgrwt>
<rscale>  4 0.26131161E+03</rscale>
<asrwt>0</asrwt>
<pdfrwt beam="1">  1       21 0.44571722E-01 0.26131161E+03</pdfrwt>
<pdfrwt beam="2">  1        2 0.89270185E-01 0.26131161E+03</pdfrwt>
<totfact> 0.31082879E+03</totfact>
</mgrwt>
</event>
<event>
 5    0  0.1141006E+000  0.2108484E+03  0.7546771E-02  0.1140896E+00
         21   -1    0    0  501  502  0.00000000000E+00  0.00000000000E+00  0.57937437675E+02  0.57937437675E+02  0.00000000000E+00 0.  1.
          2   -1    0    0  503    0 -0.00000000000E+00 -0.00000000000E+00 -0.17555470039E+04  0.17555470039E+04  0.00000000000E+00 0.  1.
         25    1    1    2    0    0  0.18444143263E+03 -0.92505165023E+02 -0.30623127556E+03  0.38984412495E+03  0.12500000000E+03 0.  0.
         21    1    1    2  503  502 -0.20043765557E+02  0.67744562032E+02 -0.10494662044E+03  0.12651036070E+03  0.00000000000E+00 0. -1.
          2    1    1    2  501    0 -0.16439766708E+03  0.24760602991E+02 -0.12864316702E+04  0.12971299559E+04  0.00000000000E+00 0.  1.
<mgrwt>
<rscale>  4 0.21084837E+03</rscale>
<asrwt>0</asrwt>
<pdfrwt beam="1">  1       21 0.89134514E-02 0.21084837E+03</pdfrwt>
<pdfrwt beam="2">  1        2 0.27008417E+00 0.21084837E+03</pdfrwt>
<totfact> 0.12732953E+04</totfact>
</mgrwt>
</event>
<event>
 5    0  0.1141006E+000  0.2656346E+03  0.7546771E-02  0.1103804E+00
         -1   -1    0    0    0  501 -0.00000000000E+00  0.00000000000E+00  0.17839390291E+03  0.17839390291E+03  0.00000000000E+00 0. -1.
         21   -1    0    0  503  502  0.00000000000E+00 -0.00000000000E+00 -0.23179853937E+04  0.23179853937E+04  0.00000000000E+00 0. -1.
         25    1    1    2    0    0  0.90672502991E+01  0.23421040533E+03 -0.22272905675E+04  0.22430748987E+04  0.12500000000E+03 0.  0.
         21    1    1    2  503  501  0.49323082878E+01 -0.22554527092E+02 -0.16274591839E+01  0.23144826220E+02  0.00000000000E+00 0. -1.
         -1    1    1    2    0  502 -0.13999558587E+02 -0.21165587824E+03  0.89326535900E+02  0.23015957171E+03  0.00000000000E+00 0. -1.
<mgrwt>
<rscale>  4 0.26563458E+03</rscale>
<asrwt>0</asrwt>
<pdfrwt beam="1">  1       21 0.35661312E+00 0.26563458E+03</pdfrwt>
<pdfrwt beam="2">  1       -1 0.27445217E-01 0.26563458E+03</pdfrwt>
<totfact> 0.15888717E+01</totfact>
</mgrwt>
</event>
<event>
 5    0  0.1141006E+000  0.4178369E+03  0.7546771E-02  0.1037773E+00
          2   -1    0    0  503    0 -0.00000000000E+00  0.00000000000E+00  0.19649454112E+04  0.19649454112E+04  0.00000000000E+00 0. -1.
         21   -1    0    0  501  502  0.00000000000E+00 -0.00000000000E+00 -0.11921437807E+03  0.11921437807E+03  0.00000000000E+00 0. -1.
         25    1    1    2    0    0  0.22243774431E+02 -0.38771505332E+03  0.43693182476E+03  0.59778940068E+03  0.12500000000E+03 0.  0.
         21    1    1    2  503  502 -0.28165419476E+02 -0.36596598970E+02  0.19958142686E+03  0.20485445530E+03  0.00000000000E+00 0.  1.
          2    1    1    2  501    0  0.59216450453E+01  0.42431165229E+03  0.12092177815E+04  0.12815159333E+04  0.00000000000E+00 0. -1.
<mgrwt>
<rscale>  4 0.41783690E+03</rscale>
<asrwt>0</asrwt>
<pdfrwt beam="1">  1       21 0.18340675E-01 0.41783690E+03</pdfrwt>
<pdfrwt beam="2">  1        2 0.30229927E+00 0.41783690E+03</pdfrwt>
<totfact> 0.24939755E+03</totfact>
</mgrwt>
</event>
<event>
 5    0  0.1141006E+000  0.2507088E+03  0.7546771E-02  0.1112858E+00
          1   -1    0    0  503    0 -0.00000000000E+00  0.00000000000E+00  0.12286969877E+04  0.12286969877E+04  0.00000000000E+00 0.  1.
         21   -1    0    0  501  502  0.00000000000E+00 -0.00000000000E+00 -0.50447253554E+02  0.50447253554E+02  0.00000000000E+00 0.  1.
         25    1    1    2    0    0 -0.64626253217E+02 -0.19315502069E+03  0.67060105670E+03  0.71191024145E+03  0.12500000000E+03 0.  0.
         21    1    1    2  503  502 -0.71430462005E+01 -0.21411437705E+02  0.83705250230E+02  0.86695107645E+02  0.00000000000E+00 0. -1.
          1    1    1    2  501    0  0.71769299418E+02  0.21456645840E+03  0.42394342726E+03  0.48053889221E+03  0.00000000000E+00 0.  1.
<mgrwt>
<rscale>  4 0.25070878E+03</rscale>
<asrwt>0</asrwt>
<pdfrwt beam="1">  1       21 0.77611169E-02 0.25070878E+03</pdfrwt>
<pdfrwt beam="2">  1        1 0.18903028E+00 0.25070878E+03</pdfrwt>
<totfact> 0.15403801E+04</totfact>
</mgrwt>
</event>
<event>
 5    0  0.1141006E+000  0.4202389E+03  0.7546771E-02  0.1049499E+00
          2   -1    0    0  503    0 -0.00000000000E+00  0.00000000000E+00  0.18832449919E+04  0.18832449919E+04  0.00000000000E+00 0. -1.
         21   -1    0    0  501  502  0.00000000000E+00 -0.00000000000E+00 -0.56969676184E+03  0.56969676184E+03  0.00000000000E+00 0. -1.
         25    1    1    2    0    0  0.14569451289E+03 -0.22094507975E+03 -0.37038635007E+03  0.47207485388E+03  0.12500000000E+03 0.  0.
         21    1    1    2  503  502 -0.50147090407E+03  0.33226667243E+03  0.66926031628E+03  0.89987975874E+03  0.00000000000E+00 0. -1.
          2    1    1    2  501    0  0.35577639118E+03 -0.11132159268E+03  0.10146742638E+04  0.10809871411E+04  0.00000000000E+00 0. -1.
<mgrwt>
<rscale>  4 0.38390600E+03</rscale>
<asrwt>0</asrwt>
<pdfrwt beam="1">  1       21 0.87645657E-01 0.42023889E+03</pdfrwt>
<pdfrwt beam="2">  1        2 0.28973000E+00 0.42023889E+03</pdfrwt>
<totfact> 0.10693991E+02</totfact>
</mgrwt>
</event>
<event>
 5    0  0.1141006E+000  0.3084001E+03  0.7546771E-02  0.1081115E+00
         -4   -1    0    0    0  501 -0.00000000000E+00  0.00000000000E+00  0.34512118456E+03  0.34512118456E+03  0.00000000000E+00 0. -1.
         21   -1    0    0  503  502  0.00000000000E+00 -0.00000000000E+00 -0.38576915982E+03  0.38576915982E+03  0.00000000000E+00 0. -1.
         25    1    1    2    0    0  0.22627165164E+03  0.16356674699E+03  0.17044535119E+03  0.35018503508E+03  0.12500000000E+03 0.  0.
         21    1    1    2  503  501  0.22503895837E+02 -0.12722847137E+02 -0.15684558828E+02  0.30237419743E+02  0.00000000000E+00 0.  1.
         -4    1    1    2    0  502 -0.24877554748E+03 -0.15084389985E+03 -0.19540876762E+03  0.35046788955E+03  0.00000000000E+00 0. -1.
<mgrwt>
<rscale>  4 0.30840009E+03</rscale>
<asrwt>0</asrwt>
<pdfrwt beam="1">  1       21 0.59349101E-01 0.30840009E+03</pdfrwt>
<pdfrwt beam="2">  1       -4 0.53095567E-01 0.30840009E+03</pdfrwt>
<totfact> 0.37756825E+02</totfact>
</mgrwt>
</event>
<event>
 5    0  0.1141006E+000  0.2843100E+03  0.7546771E-02  0.1093358E+00
         21   -1    0    0  503  502  0.00000000000E+00  0.00000000000E+00  0.38967040485E+03  0.38967040485E+03  0.00000000000E+00 0.  1.
         -4   -1    0    0    0  501 -0.00000000000E+00 -0.00000000000E+00 -0.36985699202E+03  0.36985699202E+03  0.00000000000E+00 0.  1.
         25    1    1    2    0    0  0.17696182556E+03  0.16240150881E+03  0.17269510812E+03  0.32115158125E+03  0.12500000000E+03 0.  0.
         21    1    1    2  503  501  0.94078515869E+02 -0.28069808776E+02 -0.81422889675E+02  0.12754751380E+03  0.00000000000E+00 0.  1.
         -4    1    1    2    0  502 -0.27104034143E+03 -0.13433170004E+03 -0.71458805619E+02  0.31082830183E+03  0.00000000000E+00 0.  1.
<mgrwt>
<rscale>  4 0.28431005E+03</rscale>
<asrwt>0</asrwt>
<pdfrwt beam="1">  1       21 0.59949293E-01 0.28431005E+03</pdfrwt>
<pdfrwt beam="2">  1       -4 0.56901076E-01 0.28431005E+03</pdfrwt>
<totfact> 0.32024478E+02</totfact>
</mgrwt>
</event>
<event>
 5    0  0.1141006E+000  0.3359165E+03  0.7546771E-02  0.1068549E+00
          1   -1    0    0  503    0 -0.00000000000E+00  0.00000000000E+00  0.15166274340E+04  0.15166274340E+04  0.00000000000E+00 0.  1.
         21   -1    0    0  501  502  0.00000000000E+00 -0.00000000000E+00 -0.98346278726E+02  0.98346278726E+02  0.00000000000E+00 0. -1.
         25    1    1    2    0    0  0.26539761547E+03  0.13863729234E+03  0.33896545816E+03  0.46923211202E+03  0.12500000000E+03 0.  0.
         21    1    1    2  503  502  0.34594247867E+02  0.24434545109E+02  0.14139102814E+03  0.14759821076E+03  0.00000000000E+00 0. -1.
          1    1    1    2  501    0 -0.29999186334E+03 -0.16307183745E+03  0.93792466900E+03  0.99814338998E+03  0.00000000000E+00 0.  1.
<mgrwt>
<rscale>  4 0.33591648E+03</rscale>
<asrwt>0</asrwt>
<pdfrwt beam="1">  1       21 0.15130198E-01 0.33591648E+03</pdfrwt>
<pdfrwt beam="2">  1        1 0.23332728E+00 0.33591648E+03</pdfrwt>
<totfact> 0.28998231E+03</totfact>
</mgrwt>
</event>
<event>
 5    0  0.1141006E+000  0.2815484E+03  0.7546771E-02  0.1094846E+00
         21   -1    0    0  503  502  0.00000000000E+00  0.00000000000E+00  0.26319530697E+04  0.26319530697E+04  0.00000000000E+00 0.  1.
         -2   -1    0    0    0  501 -0.00000000000E+00 -0.00000000000E+00 -0.12995226975E+03  0.12995226975E+03  0.00000000000E+00 0. -1.
         25    1    1    2    0    0  0.21875649942E+03 -0.12054166264E+03  0.23120737885E+04  0.23288827583E+04  0.12500000000E+03 0.  0.
         21    1    1    2  503  501  0.62788053449E+02  0.42563918833E+02  0.10358020492E+03  0.12838569116E+03  0.00000000000E+00 0.  1.
         -2    1    1    2    0  502 -0.28154455287E+03  0.77977743803E+02  0.86346806613E+02  0.30463689007E+03  0.00000000000E+00 0. -1.
<mgrwt>
<rscale>  4 0.28154843E+03</rscale>
<asrwt>0</asrwt>
<pdfrwt beam="1">  1       21 0.40491582E+00 0.28154843E+03</pdfrwt>
<pdfrwt beam="2">  1       -2 0.19992659E-01 0.28154843E+03</pdfrwt>
<totfact> 0.12172449E+01</totfact>
</mgrwt>
</event>
<event>
 5    0  0.1141006E+000  0.2957324E+03  0.7546771E-02  0.1087394E+00
         21   -1    0    0  501  502  0.00000000000E+00  0.00000000000E+00  0.37933791012E+03  0.37933791012E+03  0.00000000000E+00 0. -1.
          2   -1    0    0  503    0 -0.00000000000E+00 -0.00000000000E+00 -0.57895081268E+03  0.57895081268E+03  0.00000000000E+00 0.  1.
         25    1    1    2    0    0  0.16348599433E+03  0.21170265660E+03  0.27062615111E+03  0.40051117190E+03  0.12500000000E+03 0.  0.
         21    1    1    2  503  502  0.21742036730E+02 -0.11615094150E+02 -0.63366039458E+02  0.67991775457E+02  0.00000000000E+00 0. -1.
          2    1    1    2  501    0 -0.18522803106E+03 -0.20008756245E+03 -0.40687301421E+03  0.48978577545E+03  0.00000000000E+00 0.  1.
<mgrwt>
<rscale>  4 0.29573240E+03</rscale>
<asrwt>0</asrwt>
<pdfrwt beam="1">  1       21 0.58359679E-01 0.29573240E+03</pdfrwt>
<pdfrwt beam="2">  1        2 0.89069355E-01 0.29573240E+03</pdfrwt>
<totfact> 0.17452805E+03</totfact>
</mgrwt>
</event>
<event>
 5    0  0.1141006E+000  0.2854954E+03  0.7546771E-02  0.1092725E+00
         21   -1    0    0  501  502  0.00000000000E+00  0.00000000000E+00  0.80971762382E+03  0.80971762382E+03  0.00000000000E+00 0. -1.
          2   -1    0    0  503    0 -0.00000000000E+00 -0.00000000000E+00 -0.31552110074E+03  0.31552110074E+03  0.00000000000E+00 0. -1.
         25    1    1    2    0    0 -0.16973367019E+03  0.16919203948E+03  0.52831935593E+03  0.59344907689E+03  0.12500000000E+03 0.  0.
         21    1    1    2  503  502 -0.59591631077E+02  0.13091472575E+03  0.34478793611E+02  0.14791421541E+03  0.00000000000E+00 0. -1.
          2    1    1    2  501    0  0.22932530127E+03 -0.30010676522E+03 -0.68601626468E+02  0.38387543225E+03  0.00000000000E+00 0. -1.
<mgrwt>
<rscale>  4 0.28549539E+03</rscale>
<asrwt>0</asrwt>
<pdfrwt beam="1">  1       21 0.12457194E+00 0.28549539E+03</pdfrwt>
<pdfrwt beam="2">  1        2 0.48541708E-01 0.28549539E+03</pdfrwt>
<totfact> 0.58934540E+02</totfact>
</mgrwt>
</event>
<event>
 5    0  0.1141006E+000  0.3083843E+03  0.7546771E-02  0.1081123E+00
         21   -1    0    0  503  502  0.00000000000E+00  0.00000000000E+00  0.74314718902E+03  0.74314718902E+03  0.00000000000E+00 0.  1.
         -2   -1    0    0    0  501 -0.00000000000E+00 -0.00000000000E+00 -0.86364090000E+03  0.86364090000E+03  0.00000000000E+00 0. -1.
         25    1    1    2    0    0  0.34084655019E+02 -0.27881513341E+03  0.66423782887E+03  0.73194025414E+03  0.12500000000E+03 0.  0.
         21    1    1    2  503  501 -0.65871626733E+02 -0.30372316821E+02 -0.10733167776E+03  0.12954396122E+03  0.00000000000E+00 0. -1.
         -2    1    1    2    0  502  0.31786971714E+02  0.30918745023E+03 -0.67739986208E+03  0.74530387366E+03  0.00000000000E+00 0. -1.
<mgrwt>
<rscale>  4 0.30838429E+03</rscale>
<asrwt>0</asrwt>
<pdfrwt beam="1">  1       21 0.11433034E+00 0.30838429E+03</pdfrwt>
<pdfrwt beam="2">  1       -2 0.13286783E+00 0.30838429E+03</pdfrwt>
<totfact> 0.19683263E+01</totfact>
</mgrwt>
</event>
<event>
 5    0  0.1141006E+000  0.2857504E+03  0.7546771E-02  0.1092589E+00
         21   -1    0    0  503  502  0.00000000000E+00  0.00000000000E+00  0.21708589377E+03  0.21708589377E+03  0.00000000000E+00 0. -1.
         -3   -1    0    0    0  501 -0.00000000000E+00 -0.00000000000E+00 -0.68052642967E+03  0.68052642967E+03  0.00000000000E+00 0. -1.
         25    1    1    2    0    0  0.23539621467E+03  0.86206992260E+02  0.29973055543E+02  0.28172044203E+03  0.12500000000E+03 0.  0.
         21    1    1    2  503  501  0.18750070577E+02  0.11201690568E+02 -0.24938384530E+03  0.25033846151E+03  0.00000000000E+00 0. -1.
         -3    1    1    2    0  502 -0.25414628525E+03 -0.97408682828E+02 -0.24402974615E+03  0.36555341990E+03  0.00000000000E+00 0. -1.
<mgrwt>
<rscale>  4 0.28575042E+03</rscale>
<asrwt>0</asrwt>
<pdfrwt beam="1">  1       21 0.33397830E-01 0.28575042E+03</pdfrwt>
<pdfrwt beam="2">  1       -3 0.10469637E+00 0.28575042E+03</pdfrwt>
<totfact> 0.34140601E+02</totfact>
</mgrwt>
</event>
<event>
 5    0  0.1141006E+000  0.2538137E+03  0.7546771E-02  0.1110918E+00
          1   -1    0    0  503    0 -0.00000000000E+00  0.00000000000E+00  0.50748409606E+03  0.50748409606E+03  0.00000000000E+00 0.  1.
         21   -1    0    0  501  502  0.00000000000E+00 -0.00000000000E+00 -0.14368855780E+03  0.14368855780E+03  0.00000000000E+00 0. -1.
         25    1    1    2    0    0 -0.21691260266E+03  0.41776882694E+02  0.44248192682E+02  0.25764178170E+03  0.12500000000E+03 0.  0.
         21    1    1    2  503  502  0.28991406862E+02 -0.22217364169E+01  0.88171356103E+02  0.92841939992E+02  0.00000000000E+00 0. -1.
          1    1    1    2  501    0  0.18792119580E+03 -0.39555146277E+02  0.23137598948E+03  0.30068893217E+03  0.00000000000E+00 0.  1.
<mgrwt>
<rscale>  4 0.25381368E+03</rscale>
<asrwt>0</asrwt>
<pdfrwt beam="1">  1       21 0.22105932E-01 0.25381368E+03</pdfrwt>
<pdfrwt beam="2">  1        1 0.78074475E-01 0.25381368E+03</pdfrwt>
<totfact> 0.92325819E+03</totfact>
</mgrwt>
</event>
<event>
 5    0  0.1141006E+000  0.2626896E+03  0.7546771E-02  0.1105538E+00
         -3   -1    0    0    0  501 -0.00000000000E+00  0.00000000000E+00  0.78401776131E+03  0.78401776131E+03  0.00000000000E+00 0. -1.
         21   -1    0    0  503  502  0.00000000000E+00 -0.00000000000E+00 -0.19563139694E+03  0.19563139694E+03  0.00000000000E+00 0. -1.
         25    1    1    2    0    0 -0.18622369763E+03 -0.14661988179E+03 -0.62667981487E+02  0.27518890093E+03  0.12500000000E+03 0.  0.
         21    1    1    2  503  501  0.51978317490E+02 -0.23802186012E-01  0.53035673786E+02  0.74259873078E+02  0.00000000000E+00 0.  1.
         -3    1    1    2    0  502  0.13424538014E+03  0.14664368397E+03  0.59801867208E+03  0.63020038423E+03  0.00000000000E+00 0. -1.
<mgrwt>
<rscale>  4 0.26268961E+03</rscale>
<asrwt>0</asrwt>
<pdfrwt beam="1">  1       21 0.30097138E-01 0.26268961E+03</pdfrwt>
<pdfrwt beam="2">  1       -3 0.12061812E+00 0.26268961E+03</pdfrwt>
<totfact> 0.30145579E+02</totfact>
</mgrwt>
</event>
<event>
 5    0  0.1141006E+000  0.3928283E+03  0.7546771E-02  0.1046292E+00
         21   -1    0    0  501  502  0.00000000000E+00  0.00000000000E+00  0.10918146421E+03  0.10918146421E+03  0.00000000000E+00 0.  1.
          1   -1    0    0  503    0 -0.00000000000E+00 -0.00000000000E+00 -0.24588317108E+04  0.24588317108E+04  0.00000000000E+00 0. -1.
         25    1    1    2    0    0 -0.36006502238E+03 -0.12034633133E+03 -0.35526176158E+03  0.53475786955E+03  0.12500000000E+03 0.  0.
         21    1    1    2  503  502  0.34353574149E+02  0.23469639891E+01 -0.40960865909E+03  0.41105343922E+03  0.00000000000E+00 0. -1.
          1    1    1    2  501    0  0.32571144823E+03  0.11799936734E+03 -0.15847798259E+04  0.16222018662E+04  0.00000000000E+00 0. -1.
<mgrwt>
<rscale>  4 0.39282829E+03</rscale>
<asrwt>0</asrwt>
<pdfrwt beam="1">  1       21 0.16797147E-01 0.39282829E+03</pdfrwt>
<pdfrwt beam="2">  1        1 0.37828182E+00 0.39282829E+03</pdfrwt>
<totfact> 0.56027947E+02</totfact>
</mgrwt>
</event>
<event>
 5    0  0.1141006E+000  0.2635771E+03  0.7546771E-02  0.1105013E+00
         -1   -1    0    0    0  501 -0.00000000000E+00  0.00000000000E+00  0.10064426007E+04  0.10064426007E+04  0.00000000000E+00 0.  1.
         21   -1    0    0  503  502  0.00000000000E+00 -0.00000000000E+00 -0.77790215552E+02  0.77790215552E+02  0.00000000000E+00 0. -1.
         25    1    1    2    0    0  0.93535220220E+02  0.20283726397E+03  0.29008968692E+03  0.38687054622E+03  0.12500000000E+03 0.  0.
         21    1    1    2  503  501  0.15486823192E+02  0.17403195754E+02  0.13545280293E+03  0.13744153207E+03  0.00000000000E+00 0. -1.
         -1    1    1    2    0  502 -0.10902204341E+03 -0.22024045973E+03  0.50310989526E+03  0.55992073792E+03  0.00000000000E+00 0.  1.
<mgrwt>
<rscale>  4 0.26357707E+03</rscale>
<asrwt>0</asrwt>
<pdfrwt beam="1">  1       21 0.11967726E-01 0.26357707E+03</pdfrwt>
<pdfrwt beam="2">  1       -1 0.15483731E+00 0.26357707E+03</pdfrwt>
<totfact> 0.19028517E+03</totfact>
</mgrwt>
</event>
<event>
 5    0  0.1141006E+000  0.3630623E+03  0.7546771E-02  0.1057378E+00
         21   -1    0    0  501  502  0.00000000000E+00  0.00000000000E+00  0.44632404904E+03  0.44632404904E+03  0.00000000000E+00 0. -1.
          1   -1    0    0  503    0 -0.00000000000E+00 -0.00000000000E+00 -0.32751436449E+03  0.32751436449E+03  0.00000000000E+00 0. -1.
         25    1    1    2    0    0  0.16474653088E+03  0.28101211572E+03  0.15257534347E+03  0.38080633405E+03  0.12500000000E+03 0.  0.
         21    1    1    2  503  502  0.38734748986E+02  0.39132927774E+01  0.99655793656E+01  0.40187154807E+02  0.00000000000E+00 0.  1.
          1    1    1    2  501    0 -0.20348127986E+03 -0.28492540849E+03 -0.43731238287E+02  0.35284492467E+03  0.00000000000E+00 0. -1.
<mgrwt>
<rscale>  4 0.36306235E+03</rscale>
<asrwt>0</asrwt>
<pdfrwt beam="1">  1       21 0.68665238E-01 0.36306235E+03</pdfrwt>
<pdfrwt beam="2">  1        1 0.50386826E-01 0.36306235E+03</pdfrwt>
<totfact> 0.15683312E+03</totfact>
</mgrwt>
</event>
<event>
 5    0  0.1141006E+000  0.3013107E+03  0.7546771E-02  0.1084587E+00
          2   -1    0    0  503    0 -0.00000000000E+00  0.00000000000E+00  0.59070421963E+03  0.59070421963E+03  0.00000000000E+00 0. -1.
         21   -1    0    0  501  502  0.00000000000E+00 -0.00000000000E+00 -0.16799048795E+03  0.16799048795E+03  0.00000000000E+00 0. -1.
         25    1    1    2    0    0  0.24841822178E+03  0.11598081750E+03  0.93167367334E+02  0.31538598776E+03  0.12500000000E+03 0.  0.
         21    1    1    2  503  502 -0.58347253070E+02  0.12403833604E+02  0.11345972610E+03  0.12818489176E+03  0.00000000000E+00 0. -1.
          2    1    1    2  501    0 -0.19007096871E+03 -0.12838465110E+03  0.21608663824E+03  0.31512382806E+03  0.00000000000E+00 0. -1.
<mgrwt>
<rscale>  4 0.30131074E+03</rscale>
<asrwt>0</asrwt>
<pdfrwt beam="1">  1       21 0.25844691E-01 0.30131074E+03</pdfrwt>
<pdfrwt beam="2">  1        2 0.90877571E-01 0.30131074E+03</pdfrwt>
<totfact> 0.89548133E+03</totfact>
</mgrwt>
</event>
<event>
 5    0  0.1141006E+000  0.2589374E+03  0.7546771E-02  0.1107783E+00
         21   -1    0    0  501  502  0.00000000000E+00  0.00000000000E+00  0.25607925903E+03  0.25607925903E+03  0.00000000000E+00 0. -1.
          2   -1    0    0  503    0 -0.00000000000E+00 -0.00000000000E+00 -0.62039672692E+03  0.62039672692E+03  0.00000000000E+00 0.  1.
         25    1    1    2    0    0  0.14704107953E+03 -0.17900514558E+03  0.14595425680E+03  0.30098432898E+03  0.12500000000E+03 0.  0.
         21    1    1    2  503  502 -0.13888931990E+01  0.33126795343E+02 -0.20163310047E+03  0.20434094254E+03  0.00000000000E+00 0.  1.
          2    1    1    2  501    0 -0.14565218634E+03  0.14587835023E+03 -0.30863862422E+03  0.37115071442E+03  0.00000000000E+00 0.  1.
<mgrwt>
<rscale>  4 0.25893739E+03</rscale>
<asrwt>0</asrwt>
<pdfrwt beam="1">  1       21 0.39396809E-01 0.25893739E+03</pdfrwt>
<pdfrwt beam="2">  1        2 0.95445649E-01 0.25893739E+03</pdfrwt>
<totfact> 0.37046375E+03</totfact>
</mgrwt>
</event>
<event>
 5    0  0.1141006E+000  0.3882727E+03  0.7546771E-02  0.1047918E+00
          2   -1    0    0  503    0 -0.00000000000E+00  0.00000000000E+00  0.15335423690E+04  0.15335423690E+04  0.00000000000E+00 0. -1.
         21   -1    0    0  501  502  0.00000000000E+00 -0.00000000000E+00 -0.19022437153E+03  0.19022437153E+03  0.00000000000E+00 0. -1.
         25    1    1    2    0    0 -0.27723119218E+03 -0.21524438816E+03  0.89394352437E+02  0.38314961934E+03  0.12500000000E+03 0.  0.
         21    1    1    2  503  502 -0.34145070793E+02  0.13810043526E+02  0.42486360238E+01  0.37076327619E+02  0.00000000000E+00 0. -1.
          2    1    1    2  501    0  0.31137626298E+03  0.20143434463E+03  0.12496750091E+04  0.13035407936E+04  0.00000000000E+00 0. -1.
<mgrwt>
<rscale>  4 0.38827271E+03</rscale>
<asrwt>0</asrwt>
<pdfrwt beam="1">  1       21 0.29265289E-01 0.38827271E+03</pdfrwt>
<pdfrwt beam="2">  1        2 0.23592959E+00 0.38827271E+03</pdfrwt>
<totfact> 0.17393834E+03</totfact>
</mgrwt>
</event>
<event>
 5    0  0.1141006E+000  0.3002348E+03  0.7546771E-02  0.1085123E+00
         -3   -1    0    0    0  501 -0.00000000000E+00  0.00000000000E+00  0.62182614808E+03  0.62182614808E+03  0.00000000000E+00 0. -1.
         21   -1    0    0  503  502  0.00000000000E+00 -0.00000000000E+00 -0.49915814298E+03  0.49915814298E+03  0.00000000000E+00 0. -1.
         25    1    1    2    0    0 -0.11264062718E+03 -0.24045895572E+03 -0.66571280005E+02  0.30094045192E+03  0.12500000000E+03 0.  0.
         21    1    1    2  503  501 -0.68744261522E+02  0.26761286145E+02  0.43867236181E+03  0.44483185694E+03  0.00000000000E+00 0. -1.
         -3    1    1    2    0  502  0.18138488870E+03  0.21369766958E+03 -0.24943307671E+03  0.37521198220E+03  0.00000000000E+00 0. -1.
<mgrwt>
<rscale>  4 0.30023477E+03</rscale>
<asrwt>0</asrwt>
<pdfrwt beam="1">  1       21 0.76793561E-01 0.30023477E+03</pdfrwt>
<pdfrwt beam="2">  1       -3 0.95665561E-01 0.30023477E+03</pdfrwt>
<totfact> 0.71890706E+01</totfact>
</mgrwt>
</event>
<event>
 5    0  0.1141006E+000  0.2950538E+03  0.7546771E-02  0.1087740E+00
          1   -1    0    0  503    0 -0.00000000000E+00  0.00000000000E+00  0.34868313542E+03  0.34868313542E+03  0.00000000000E+00 0.  1.
         21   -1    0    0  501  502  0.00000000000E+00 -0.00000000000E+00 -0.47114219591E+03  0.47114219591E+03  0.00000000000E+00 0.  1.
         25    1    1    2    0    0  0.38713999279E+02  0.26444837550E+03 -0.35305898509E+03  0.46011668520E+03  0.12500000000E+03 0.  0.
         21    1    1    2  503  502 -0.20786054660E+02 -0.34660257251E+02  0.12284148656E+02  0.42240902088E+02  0.00000000000E+00 0. -1.
          1    1    1    2  501    0 -0.17927944619E+02 -0.22978811825E+03  0.21831577594E+03  0.31746774405E+03  0.00000000000E+00 0.  1.
<mgrwt>
<rscale>  4 0.29505375E+03</rscale>
<asrwt>0</asrwt>
<pdfrwt beam="1">  1       21 0.72483415E-01 0.29505375E+03</pdfrwt>
<pdfrwt beam="2">  1        1 0.53643559E-01 0.29505375E+03</pdfrwt>
<totfact> 0.13069455E+03</totfact>
</mgrwt>
</event>
<event>
 5    0  0.1141006E+000  0.3090023E+03  0.7546771E-02  0.1080825E+00
         -1   -1    0    0    0  501 -0.00000000000E+00  0.00000000000E+00  0.20188233440E+04  0.20188233440E+04  0.00000000000E+00 0. -1.
         21   -1    0    0  503  502  0.00000000000E+00 -0.00000000000E+00 -0.19615492146E+03  0.19615492146E+03  0.00000000000E+00 0.  1.
         25    1    1    2    0    0 -0.20534456551E+03 -0.22246637778E+03 -0.39020915329E+01  0.32756359099E+03  0.12500000000E+03 0.  0.
         21    1    1    2  503  501  0.24298084097E+03 -0.63386613567E+01  0.89490163882E+03  0.92732346615E+03  0.00000000000E+00 0. -1.
         -1    1    1    2    0  502 -0.37636275461E+02  0.22880503914E+03  0.93166887525E+03  0.96009120831E+03  0.00000000000E+00 0. -1.
<mgrwt>
<rscale>  4 0.30900227E+03</rscale>
<asrwt>0</asrwt>
<pdfrwt beam="1">  1       21 0.30177682E-01 0.30900227E+03</pdfrwt>
<pdfrwt beam="2">  1       -1 0.31058819E+00 0.30900227E+03</pdfrwt>
<totfact> 0.31262521E+01</totfact>
</mgrwt>
</event>
<event>
 5    0  0.1141006E+000  0.3448579E+03  0.7546771E-02  0.1064746E+00
         21   -1    0    0  501  502  0.00000000000E+00  0.00000000000E+00  0.10985713848E+04  0.10985713848E+04  0.00000000000E+00 0.  1.
          1   -1    0    0  503    0 -0.00000000000E+00 -0.00000000000E+00 -0.13042038377E+03  0.13042038377E+03  0.00000000000E+00 0.  1.
         25    1    1    2    0    0  0.26118125560E+03 -0.17288440595E+03  0.68862695993E+03  0.76677034113E+03  0.12500000000E+03 0.  0.
         21    1    1    2  503  502  0.27120280343E+02 -0.63784632908E+01  0.29671586854E+02  0.40701320203E+02  0.00000000000E+00 0.  1.
          1    1    1    2  501    0 -0.28830153595E+03  0.17926286924E+03  0.24985245428E+03  0.42152010726E+03  0.00000000000E+00 0.  1.
<mgrwt>
<rscale>  4 0.34485790E+03</rscale>
<asrwt>0</asrwt>
<pdfrwt beam="1">  1       21 0.16901098E+00 0.34485790E+03</pdfrwt>
<pdfrwt beam="2">  1        1 0.20064675E-01 0.34485790E+03</pdfrwt>
<totfact> 0.55118824E+02</totfact>
</mgrwt>
</event>
<event>
 5    0  0.1141006E+000  0.2677728E+03  0.7546771E-02  0.1102561E+00
          2   -1    0    0  503    0 -0.00000000000E+00  0.00000000000E+00  0.22841160558E+04  0.22841160558E+04  0.00000000000E+00 0. -1.
         21   -1    0    0  501  502  0.00000000000E+00 -0.00000000000E+00 -0.28816980273E+03  0.28816980273E+03  0.00000000000E+00 0. -1.
         25    1    1    2    0    0 -0.32142376641E+01 -0.23582155954E+03 -0.21273545501E+03  0.34132610959E+03  0.12500000000E+03 0.  0.
         21    1    1    2  503  502 -0.23273539930E+02 -0.24658754506E+02  0.61328269463E+03  0.61421932188E+03  0.00000000000E+00 0. -1.
          2    1    1    2  501    0  0.26487777594E+02  0.26048031405E+03  0.15953990134E+04  0.16167404270E+04  0.00000000000E+00 0. -1.
<mgrwt>
<rscale>  4 0.26777279E+03</rscale>
<asrwt>0</asrwt>
<pdfrwt beam="1">  1       21 0.44333817E-01 0.26777279E+03</pdfrwt>
<pdfrwt beam="2">  1        2 0.35140246E+00 0.26777279E+03</pdfrwt>
<totfact> 0.31598902E+02</totfact>
</mgrwt>
</event>
<event>
 5    0  0.1141006E+000  0.2814446E+03  0.7546771E-02  0.1094903E+00
         21   -1    0    0  501  502  0.00000000000E+00  0.00000000000E+00  0.73809171048E+03  0.73809171048E+03  0.00000000000E+00 0. -1.
          2   -1    0    0  503    0 -0.00000000000E+00 -0.00000000000E+00 -0.61294914662E+03  0.61294914662E+03  0.00000000000E+00 0.  1.
         25    1    1    2    0    0 -0.11548703197E+03  0.22651243186E+03  0.67646872480E+03  0.73340307606E+03  0.12500000000E+03 0.  0.
         21    1    1    2  503  502 -0.21395054413E+02 -0.50848444821E+02 -0.12564411435E+03  0.13722155867E+03  0.00000000000E+00 0.  1.
          2    1    1    2  501    0  0.13688208638E+03 -0.17566398704E+03 -0.42568204660E+03  0.48041622236E+03  0.00000000000E+00 0.  1.
<mgrwt>
<rscale>  4 0.28144460E+03</rscale>
<asrwt>0</asrwt>
<pdfrwt beam="1">  1       21 0.11355257E+00 0.28144460E+03</pdfrwt>
<pdfrwt beam="2">  1        2 0.94299870E-01 0.28144460E+03</pdfrwt>
<totfact> 0.35498991E+02</totfact>
</mgrwt>
</event>
<event>
 5    0  0.1141006E+000  0.2520557E+03  0.7546771E-02  0.1112013E+00
         21   -1    0    0  501  502  0.00000000000E+00  0.00000000000E+00  0.18472763071E+03  0.18472763071E+03  0.00000000000E+00 0.  1.
          2   -1    0    0  503    0 -0.00000000000E+00 -0.00000000000E+00 -0.42295339926E+04  0.42295339926E+04  0.00000000000E+00 0.  1.
         25    1    1    2    0    0 -0.20202979843E+03  0.86617956397E+02  0.91560203842E+02  0.26893675976E+03  0.12500000000E+03 0.  0.
         21    1    1    2  503  502  0.35129042040E+02 -0.26418172578E+02 -0.19188011116E+03  0.19685006095E+03  0.00000000000E+00 0.  1.
          2    1    1    2  501    0  0.16690075639E+03 -0.60199783819E+02 -0.39444864546E+04  0.39484748026E+04  0.00000000000E+00 0.  1.
<mgrwt>
<rscale>  4 0.25205571E+03</rscale>
<asrwt>0</asrwt>
<pdfrwt beam="1">  1       21 0.28419636E-01 0.25205571E+03</pdfrwt>
<pdfrwt beam="2">  1        2 0.65069753E+00 0.25205571E+03</pdfrwt>
<totfact> 0.43807908E+01</totfact>
</mgrwt>
</event>
<event>
 5    0  0.1141006E+000  0.2711708E+03  0.7546771E-02  0.1100611E+00
          2   -1    0    0  503    0 -0.00000000000E+00  0.00000000000E+00  0.42160669535E+04  0.42160669535E+04  0.00000000000E+00 0. -1.
         21   -1    0    0  501  502  0.00000000000E+00 -0.00000000000E+00 -0.16794955063E+03  0.16794955063E+03  0.00000000000E+00 0. -1.
         25    1    1    2    0    0 -0.26441962578E+02 -0.23869428429E+03 -0.44911061152E+02  0.27443786574E+03  0.12500000000E+03 0.  0.
         21    1    1    2  503  502  0.90506826989E+02 -0.20994071988E+02  0.14746740187E+04  0.14775979488E+04  0.00000000000E+00 0.  1.
          2    1    1    2  501    0 -0.64064864411E+02  0.25968835628E+03  0.26183544453E+04  0.26319806897E+04  0.00000000000E+00 0. -1.
<mgrwt>
<rscale>  4 0.27117078E+03</rscale>
<asrwt>0</asrwt>
<pdfrwt beam="1">  1       21 0.25838396E-01 0.27117078E+03</pdfrwt>
<pdfrwt beam="2">  1        2 0.64862561E+00 0.27117078E+03</pdfrwt>
<totfact> 0.53123734E+01</totfact>
</mgrwt>
</event>
<event>
 5    0  0.1141006E+000  0.4729822E+03  0.7546771E-02  0.1021082E+00
         21   -1    0    0  503  502  0.00000000000E+00  0.00000000000E+00  0.70110036975E+03  0.70110036975E+03  0.00000000000E+00 0. -1.
         -3   -1    0    0    0  501 -0.00000000000E+00 -0.00000000000E+00 -0.47494034097E+03  0.47494034097E+03  0.00000000000E+00 0.  1.
         25    1    1    2    0    0 -0.44802594108E+03 -0.14336225747E+03  0.39414496782E+03  0.62630283123E+03  0.12500000000E+03 0.  0.
         21    1    1    2  503  501  0.70625391072E+02 -0.57294990114E+02 -0.59763429277E+02  0.10882246659E+03  0.00000000000E+00 0. -1.
         -3    1    1    2    0  502  0.37740055001E+03  0.20065724758E+03 -0.10822150977E+03  0.44091541290E+03  0.00000000000E+00 0.  1.
<mgrwt>
<rscale>  4 0.47298221E+03</rscale>
<asrwt>0</asrwt>
<pdfrwt beam="1">  1       21 0.10786160E+00 0.47298221E+03</pdfrwt>
<pdfrwt beam="2">  1       -3 0.73067744E-01 0.47298221E+03</pdfrwt>
<totfact> 0.56356451E+01</totfact>
</mgrwt>
</event>
<event>
 5    0  0.1141006E+000  0.2225417E+03  0.7546771E-02  0.1132002E+00
          2   -1    0    0  503    0 -0.00000000000E+00  0.00000000000E+00  0.24166978362E+03  0.24166978362E+03  0.00000000000E+00 0. -1.
         21   -1    0    0  501  502  0.00000000000E+00 -0.00000000000E+00 -0.51068374826E+03  0.51068374826E+03  0.00000000000E+00 0.  1.
         25    1    1    2    0    0  0.93400871386E+02  0.20510948998E+03 -0.35818022959E+03  0.44126148997E+03  0.12500000000E+03 0.  0.
         21    1    1    2  503  502 -0.55368433792E+02 -0.29064112634E+02 -0.52735131483E+02  0.81800856941E+02  0.00000000000E+00 0.  1.
          2    1    1    2  501    0 -0.38032437594E+02 -0.17604537734E+03  0.14190139644E+03  0.22929118497E+03  0.00000000000E+00 0. -1.
<mgrwt>
<rscale>  4 0.22254174E+03</rscale>
<asrwt>0</asrwt>
<pdfrwt beam="1">  1       21 0.78566731E-01 0.22254174E+03</pdfrwt>
<pdfrwt beam="2">  1        2 0.37179967E-01 0.22254174E+03</pdfrwt>
<totfact> 0.24223699E+03</totfact>
</mgrwt>
</event>
<event>
 5    0  0.1141006E+000  0.2454851E+03  0.7546771E-02  0.1116192E+00
         21   -1    0    0  503  502  0.00000000000E+00  0.00000000000E+00  0.10138413250E+03  0.10138413250E+03  0.00000000000E+00 0. -1.
         -1   -1    0    0    0  501 -0.00000000000E+00 -0.00000000000E+00 -0.75237661257E+03  0.75237661257E+03  0.00000000000E+00 0.  1.
         25    1    1    2    0    0 -0.13886005160E+03 -0.15350141131E+03 -0.13072701276E+03  0.27488060876E+03  0.12500000000E+03 0.  0.
         21    1    1    2  503  501 -0.26522431195E+02  0.60636012066E+01 -0.10188318242E+03  0.10545325730E+03  0.00000000000E+00 0.  1.
         -1    1    1    2    0  502  0.16538248280E+03  0.14743781010E+03 -0.41838228489E+03  0.47342687902E+03  0.00000000000E+00 0.  1.
<mgrwt>
<rscale>  4 0.24548508E+03</rscale>
<asrwt>0</asrwt>
<pdfrwt beam="1">  1       21 0.15597560E-01 0.24548508E+03</pdfrwt>
<pdfrwt beam="2">  1       -1 0.11575024E+00 0.24548508E+03</pdfrwt>
<totfact> 0.24425042E+03</totfact>
</mgrwt>
</event>
<event>
 5    0  0.1141006E+000  0.2619843E+03  0.7546771E-02  0.1105957E+00
         21   -1    0    0  503  502  0.00000000000E+00  0.00000000000E+00  0.63107285833E+02  0.63107285833E+02  0.00000000000E+00 0.  1.
         -1   -1    0    0    0  501 -0.00000000000E+00 -0.00000000000E+00 -0.12244779745E+04  0.12244779745E+04  0.00000000000E+00 0.  1.
         25    1    1    2    0    0 -0.34692683911E+02 -0.23668165589E+03 -0.44054664052E+03  0.51665087924E+03  0.12500000000E+03 0.  0.
         21    1    1    2  503  501  0.22927518841E+02  0.15711001817E+02 -0.24036008716E+03  0.24196172879E+03  0.00000000000E+00 0. -1.
         -1    1    1    2    0  502  0.11765165070E+02  0.22097065408E+03 -0.48046396101E+03  0.52897265232E+03  0.00000000000E+00 0.  1.
<mgrwt>
<rscale>  4 0.26198429E+03</rscale>
<asrwt>0</asrwt>
<pdfrwt beam="1">  1       21 0.97088131E-02 0.26198429E+03</pdfrwt>
<pdfrwt beam="2">  1       -1 0.18838123E+00 0.26198429E+03</pdfrwt>
<totfact> 0.15943169E+03</totfact>
</mgrwt>
</event>
<event>
 5    0  0.1141006E+000  0.2495514E+03  0.7546771E-02  0.1113589E+00
         21   -1    0    0  501  502  0.00000000000E+00  0.00000000000E+00  0.87353817474E+02  0.87353817474E+02  0.00000000000E+00 0.  1.
          2   -1    0    0  503    0 -0.00000000000E+00 -0.00000000000E+00 -0.17598606820E+04  0.17598606820E+04  0.00000000000E+00 0.  1.
         25    1    1    2    0    0 -0.16452318920E+03 -0.13993939547E+03 -0.11570404164E+03  0.27506969924E+03  0.12500000000E+03 0.  0.
         21    1    1    2  503  502  0.31170302598E+02  0.13460531168E+02 -0.18570475220E+03  0.18878302003E+03  0.00000000000E+00 0. -1.
          2    1    1    2  501    0  0.13335288660E+03  0.12647886430E+03 -0.13710980707E+04  0.13833617802E+04  0.00000000000E+00 0.  1.
<mgrwt>
<rscale>  4 0.24955143E+03</rscale>
<asrwt>0</asrwt>
<pdfrwt beam="1">  1       21 0.13439049E-01 0.24955143E+03</pdfrwt>
<pdfrwt beam="2">  1        2 0.27074779E+00 0.24955143E+03</pdfrwt>
<totfact> 0.60010229E+03</totfact>
</mgrwt>
</event>
<event>
 5    0  0.1141006E+000  0.2538044E+03  0.7546771E-02  0.1110924E+00
          2   -1    0    0  503    0 -0.00000000000E+00  0.00000000000E+00  0.21363992224E+04  0.21363992224E+04  0.00000000000E+00 0. -1.
         21   -1    0    0  501  502  0.00000000000E+00 -0.00000000000E+00 -0.54193044038E+02  0.54193044038E+02  0.00000000000E+00 0. -1.
         25    1    1    2    0    0  0.22321348067E+03  0.24357988259E+02  0.38092119985E+03  0.45950356913E+03  0.12500000000E+03 0.  0.
         21    1    1    2  503  502 -0.82988072334E+01 -0.24353673283E+02  0.93178926591E+03  0.93214441352E+03  0.00000000000E+00 0. -1.
          2    1    1    2  501    0 -0.21491467344E+03 -0.43149760195E-02  0.76949571258E+03  0.79894428377E+03  0.00000000000E+00 0. -1.
<mgrwt>
<rscale>  4 0.25380437E+03</rscale>
<asrwt>0</asrwt>
<pdfrwt beam="1">  1       21 0.83373930E-02 0.25380437E+03</pdfrwt>
<pdfrwt beam="2">  1        2 0.32867674E+00 0.25380437E+03</pdfrwt>
<totfact> 0.89104327E+03</totfact>
</mgrwt>
</event>
<event>
 5    0  0.1141006E+000  0.4917550E+03  0.7546771E-02  0.1015954E+00
         -2   -1    0    0    0  501 -0.00000000000E+00  0.00000000000E+00  0.12069760750E+04  0.12069760750E+04  0.00000000000E+00 0. -1.
         21   -1    0    0  503  502  0.00000000000E+00 -0.00000000000E+00 -0.10755261606E+04  0.10755261606E+04  0.00000000000E+00 0. -1.
         25    1    1    2    0    0  0.46416977274E+03  0.18373471186E+03 -0.94608660313E+03  0.10769943746E+04  0.12500000000E+03 0.  0.
         21    1    1    2  503  501 -0.18374154615E+02 -0.21358701169E+02  0.32900645426E-01  0.28174540917E+02  0.00000000000E+00 0.  1.
         -2    1    1    2    0  502 -0.44579561813E+03 -0.16237601069E+03  0.10775036169E+04  0.11773333201E+04  0.00000000000E+00 0. -1.
<mgrwt>
<rscale>  4 0.49175503E+03</rscale>
<asrwt>0</asrwt>
<pdfrwt beam="1">  1       21 0.16546556E+00 0.49175503E+03</pdfrwt>
<pdfrwt beam="2">  1       -2 0.18568863E+00 0.49175503E+03</pdfrwt>
<totfact> 0.28020031E+00</totfact>
</mgrwt>
</event>
<event>
 5    0  0.1141006E+000  0.2796552E+03  0.7546771E-02  0.1095877E+00
         21   -1    0    0  501  502  0.00000000000E+00  0.00000000000E+00  0.51883907773E+03  0.51883907773E+03  0.00000000000E+00 0. -1.
          1   -1    0    0  503    0 -0.00000000000E+00 -0.00000000000E+00 -0.20379110672E+03  0.20379110672E+03  0.00000000000E+00 0.  1.
         25    1    1    2    0    0  0.21057065459E+03  0.15181164098E+03  0.25793423859E+03  0.38670640847E+03  0.12500000000E+03 0.  0.
         21    1    1    2  503  502 -0.66074000010E+01 -0.25972687329E+02 -0.62551014936E+02  0.68050478994E+02  0.00000000000E+00 0.  1.
          1    1    1    2  501    0 -0.20396325459E+03 -0.12583895366E+03  0.11966474734E+03  0.26787329698E+03  0.00000000000E+00 0.  1.
<mgrwt>
<rscale>  4 0.27965525E+03</rscale>
<asrwt>0</asrwt>
<pdfrwt beam="1">  1       21 0.79821396E-01 0.27965525E+03</pdfrwt>
<pdfrwt beam="2">  1        1 0.31352478E-01 0.27965525E+03</pdfrwt>
<totfact> 0.20840751E+03</totfact>
</mgrwt>
</event>
<event>
 5    0  0.1141006E+000  0.2682103E+03  0.7546771E-02  0.1102308E+00
         -2   -1    0    0    0  501 -0.00000000000E+00  0.00000000000E+00  0.51351793148E+03  0.51351793148E+03  0.00000000000E+00 0. -1.
         21   -1    0    0  503  502  0.00000000000E+00 -0.00000000000E+00 -0.17332422273E+03  0.17332422273E+03  0.00000000000E+00 0. -1.
         25    1    1    2    0    0  0.21148511993E+03 -0.77786492168E+02  0.38361918815E+02  0.26052510653E+03  0.12500000000E+03 0.  0.
         21    1    1    2  503  501  0.38095837021E+02 -0.23954303148E+01  0.49012228144E+02  0.62122696274E+02  0.00000000000E+00 0.  1.
         -2    1    1    2    0  502 -0.24958095695E+03  0.80181922483E+02  0.25281956179E+03  0.36419435140E+03  0.00000000000E+00 0. -1.
<mgrwt>
<rscale>  4 0.26821032E+03</rscale>
<asrwt>0</asrwt>
<pdfrwt beam="1">  1       21 0.26665265E-01 0.26821032E+03</pdfrwt>
<pdfrwt beam="2">  1       -2 0.79002758E-01 0.26821032E+03</pdfrwt>
<totfact> 0.15745344E+03</totfact>
</mgrwt>
</event>
<event>
 5    0  0.1141006E+000  0.6691052E+03  0.7546771E-02  0.9771576E-01
         21   -1    0    0  503  502  0.00000000000E+00  0.00000000000E+00  0.87378021162E+03  0.87378021162E+03  0.00000000000E+00 0. -1.
         -3   -1    0    0    0  501 -0.00000000000E+00 -0.00000000000E+00 -0.61605416166E+03  0.61605416166E+03  0.00000000000E+00 0. -1.
         25    1    1    2    0    0 -0.44754594067E+03 -0.48607418695E+03  0.42815488883E+03  0.79718698751E+03  0.12500000000E+03 0.  0.
         21    1    1    2  503  501  0.20305622518E+02 -0.35872820318E+01 -0.11647892953E+02  0.23682489490E+02  0.00000000000E+00 0.  1.
         -3    1    1    2    0  502  0.42724031816E+03  0.48966146899E+03 -0.15878094591E+03  0.66896489628E+03  0.00000000000E+00 0. -1.
<mgrwt>
<rscale>  4 0.66910522E+03</rscale>
<asrwt>0</asrwt>
<pdfrwt beam="1">  1       21 0.13442772E+00 0.66910522E+03</pdfrwt>
<pdfrwt beam="2">  1       -3 0.94777564E-01 0.66910522E+03</pdfrwt>
<totfact> 0.17196935E+01</totfact>
</mgrwt>
</event>
<event>
 5    0  0.1141006E+000  0.4142769E+03  0.7546771E-02  0.1038945E+00
         21   -1    0    0  501  502  0.00000000000E+00  0.00000000000E+00  0.66518283405E+03  0.66518283405E+03  0.00000000000E+00 0. -1.
          2   -1    0    0  503    0 -0.00000000000E+00 -0.00000000000E+00 -0.42342382948E+03  0.42342382948E+03  0.00000000000E+00 0.  1.
         25    1    1    2    0    0 -0.35965416229E+03  0.14838757844E+03  0.42959138238E+03  0.59291124606E+03  0.12500000000E+03 0.  0.
         21    1    1    2  503  502 -0.18666589986E+02  0.25101371577E+02 -0.46711780370E+02  0.56218421021E+02  0.00000000000E+00 0.  1.
          2    1    1    2  501    0  0.37832075228E+03 -0.17348895002E+03 -0.14112059744E+03  0.43947699645E+03  0.00000000000E+00 0.  1.
<mgrwt>
<rscale>  4 0.41427694E+03</rscale>
<asrwt>0</asrwt>
<pdfrwt beam="1">  1       21 0.10233582E+00 0.41427694E+03</pdfrwt>
<pdfrwt beam="2">  1        2 0.65142128E-01 0.41427694E+03</pdfrwt>
<totfact> 0.66565068E+02</totfact>
</mgrwt>
</event>
<event>
 5    0  0.1141006E+000  0.2770078E+03  0.7546771E-02  0.1097335E+00
         21   -1    0    0  501  502  0.00000000000E+00  0.00000000000E+00  0.24038143350E+03  0.24038143350E+03  0.00000000000E+00 0. -1.
          1   -1    0    0  503    0 -0.00000000000E+00 -0.00000000000E+00 -0.14359524077E+04  0.14359524077E+04  0.00000000000E+00 0. -1.
         25    1    1    2    0    0  0.17105707646E+03  0.17067032754E+03  0.12077498024E+03  0.29765832755E+03  0.12500000000E+03 0.  0.
         21    1    1    2  503  502  0.65419421317E+02  0.86589799315E+01 -0.59520836797E+03  0.59885530800E+03  0.00000000000E+00 0. -1.
          1    1    1    2  501    0 -0.23647649777E+03 -0.17932930747E+03 -0.72113758648E+03  0.77982020566E+03  0.00000000000E+00 0. -1.
<mgrwt>
<rscale>  4 0.27700784E+03</rscale>
<asrwt>0</asrwt>
<pdfrwt beam="1">  1       21 0.36981758E-01 0.27700784E+03</pdfrwt>
<pdfrwt beam="2">  1        1 0.22091576E+00 0.27700784E+03</pdfrwt>
<totfact> 0.60186665E+02</totfact>
</mgrwt>
</event>
<event>
 5    0  0.1141006E+000  0.4853163E+03  0.7546771E-02  0.1017684E+00
          2   -1    0    0  503    0 -0.00000000000E+00  0.00000000000E+00  0.10789415211E+04  0.10789415211E+04  0.00000000000E+00 0.  1.
         21   -1    0    0  501  502  0.00000000000E+00 -0.00000000000E+00 -0.39833983528E+03  0.39833983528E+03  0.00000000000E+00 0.  1.
         25    1    1    2    0    0  0.32859400627E+03  0.32074044176E+03 -0.62808820843E+01  0.47593371536E+03  0.12500000000E+03 0.  0.
         21    1    1    2  503  502  0.42978388177E+02 -0.83783113176E+01  0.46596489756E+03  0.46801776004E+03  0.00000000000E+00 0.  1.
          2    1    1    2  501    0 -0.37157239444E+03 -0.31236213045E+03  0.22091767030E+03  0.53332988094E+03  0.00000000000E+00 0.  1.
<mgrwt>
<rscale>  4 0.48531632E+03</rscale>
<asrwt>0</asrwt>
<pdfrwt beam="1">  1       21 0.61283052E-01 0.48531632E+03</pdfrwt>
<pdfrwt beam="2">  1        2 0.16599100E+00 0.48531632E+03</pdfrwt>
<totfact> 0.66034008E+02</totfact>
</mgrwt>
</event>
<event>
 5    0  0.1141006E+000  0.3818335E+03  0.7546771E-02  0.1050258E+00
         21   -1    0    0  501  502  0.00000000000E+00  0.00000000000E+00  0.61000934940E+03  0.61000934940E+03  0.00000000000E+00 0. -1.
          1   -1    0    0  503    0 -0.00000000000E+00 -0.00000000000E+00 -0.15957447468E+04  0.15957447468E+04  0.00000000000E+00 0.  1.
         25    1    1    2    0    0  0.38027651887E+03 -0.91869021336E+02  0.48672552954E+03  0.63684918858E+03  0.12500000000E+03 0.  0.
         21    1    1    2  503  502 -0.17957971748E+03  0.15463243441E+03 -0.32437465131E+03  0.40172002578E+03  0.00000000000E+00 0.  1.
          1    1    1    2  501    0 -0.20069680139E+03 -0.62763413076E+02 -0.11480862756E+04  0.11671848819E+04  0.00000000000E+00 0.  1.
<mgrwt>
<rscale>  4 0.38183353E+03</rscale>
<asrwt>0</asrwt>
<pdfrwt beam="1">  1       21 0.93847593E-01 0.38183353E+03</pdfrwt>
<pdfrwt beam="2">  1        1 0.24549919E+00 0.38183353E+03</pdfrwt>
<totfact> 0.58893981E+01</totfact>
</mgrwt>
</event>
<event>
 5    0  0.1141006E+000  0.3413379E+03  0.7546771E-02  0.1066228E+00
          2   -1    0    0  503    0 -0.00000000000E+00  0.00000000000E+00  0.22597272907E+04  0.22597272907E+04  0.00000000000E+00 0.  1.
         21   -1    0    0  501  502  0.00000000000E+00 -0.00000000000E+00 -0.29141997972E+03  0.29141997972E+03  0.00000000000E+00 0. -1.
         25    1    1    2    0    0 -0.24268134877E+03  0.20731720491E+03 -0.17179685390E+03  0.38342381186E+03  0.12500000000E+03 0.  0.
         21    1    1    2  503  502 -0.58558884986E+01 -0.50968046126E+02  0.31421766845E+03  0.31837835404E+03  0.00000000000E+00 0.  1.
          2    1    1    2  501    0  0.24853723727E+03 -0.15634915879E+03  0.18258864965E+04  0.18493451046E+04  0.00000000000E+00 0.  1.
<mgrwt>
<rscale>  4 0.34133793E+03</rscale>
<asrwt>0</asrwt>
<pdfrwt beam="1">  1       21 0.44833844E-01 0.34133793E+03</pdfrwt>
<pdfrwt beam="2">  1        2 0.34765034E+00 0.34133793E+03</pdfrwt>
<totfact> 0.30547718E+02</totfact>
</mgrwt>
</event>
<event>
 5    0  0.1141006E+000  0.2924158E+03  0.7546771E-02  0.1089095E+00
         21   -1    0    0  501  502  0.00000000000E+00  0.00000000000E+00  0.64632707078E+02  0.64632707078E+02  0.00000000000E+00 0. -1.
          2   -1    0    0  503    0 -0.00000000000E+00 -0.00000000000E+00 -0.17301640721E+04  0.17301640721E+04  0.00000000000E+00 0. -1.
         25    1    1    2    0    0 -0.23371624376E+03 -0.10835132302E+03 -0.42409161977E+03  0.51170498704E+03  0.12500000000E+03 0.  0.
         21    1    1    2  503  502 -0.33082752987E+02  0.21769734363E+02 -0.23420754956E+03  0.23753224234E+03  0.00000000000E+00 0. -1.
          2    1    1    2  501    0  0.26679899674E+03  0.86581588655E+02 -0.10072321957E+04  0.10455595498E+04  0.00000000000E+00 0. -1.
<mgrwt>
<rscale>  4 0.29241582E+03</rscale>
<asrwt>0</asrwt>
<pdfrwt beam="1">  1       21 0.99434937E-02 0.29241582E+03</pdfrwt>
<pdfrwt beam="2">  1        2 0.26617908E+00 0.29241582E+03</pdfrwt>
<totfact> 0.10549868E+04</totfact>
</mgrwt>
</event>
<event>
 5    0  0.1141006E+000  0.2469334E+03  0.7546771E-02  0.1115258E+00
          2   -1    0    0  503    0 -0.00000000000E+00  0.00000000000E+00  0.18526469281E+04  0.18526469281E+04  0.00000000000E+00 0.  1.
         21   -1    0    0  501  502  0.00000000000E+00 -0.00000000000E+00 -0.16306956428E+03  0.16306956428E+03  0.00000000000E+00 0.  1.
         25    1    1    2    0    0  0.18162495695E+03  0.10588074623E+03 -0.44257464138E+02  0.24856001396E+03  0.12500000000E+03 0.  0.
         21    1    1    2  503  502  0.37461853872E+02 -0.13074590529E+02  0.87706804572E+03  0.87796508600E+03  0.00000000000E+00 0.  1.
          2    1    1    2  501    0 -0.21908681082E+03 -0.92806155703E+02  0.85676678220E+03  0.88919139238E+03  0.00000000000E+00 0.  1.
<mgrwt>
<rscale>  4 0.24693344E+03</rscale>
<asrwt>0</asrwt>
<pdfrwt beam="1">  1       21 0.25087627E-01 0.24693344E+03</pdfrwt>
<pdfrwt beam="2">  1        2 0.28502259E+00 0.24693344E+03</pdfrwt>
<totfact> 0.16765618E+03</totfact>
</mgrwt>
</event>
<event>
 5    0  0.1141006E+000  0.2205561E+03  0.7546771E-02  0.1133469E+00
          2   -1    0    0  503    0 -0.00000000000E+00  0.00000000000E+00  0.45701887309E+03  0.45701887309E+03  0.00000000000E+00 0. -1.
         21   -1    0    0  501  502  0.00000000000E+00 -0.00000000000E+00 -0.44769974546E+03  0.44769974546E+03  0.00000000000E+00 0.  1.
         25    1    1    2    0    0  0.11514735186E+03  0.17433741659E+03 -0.35193598100E+03  0.42794436810E+03  0.12500000000E+03 0.  0.
         21    1    1    2  503  502 -0.49168672569E+02 -0.11776446353E+03  0.25742130711E+02  0.13018711352E+03  0.00000000000E+00 0. -1.
          2    1    1    2  501    0 -0.65978679290E+02 -0.56572953064E+02  0.33551297792E+03  0.34658713694E+03  0.00000000000E+00 0. -1.
<mgrwt>
<rscale>  4 0.22055608E+03</rscale>
<asrwt>0</asrwt>
<pdfrwt beam="1">  1       21 0.68876884E-01 0.22055608E+03</pdfrwt>
<pdfrwt beam="2">  1        2 0.70310596E-01 0.22055608E+03</pdfrwt>
<totfact> 0.16321819E+03</totfact>
</mgrwt>
</event>
<event>
 5    0  0.1141006E+000  0.2826867E+03  0.7546771E-02  0.1094230E+00
         21   -1    0    0  501  502  0.00000000000E+00  0.00000000000E+00  0.11236132165E+03  0.11236132165E+03  0.00000000000E+00 0.  1.
          1   -1    0    0  503    0 -0.00000000000E+00 -0.00000000000E+00 -0.10388740174E+04  0.10388740174E+04  0.00000000000E+00 0. -1.
         25    1    1    2    0    0  0.20238892448E+03 -0.12134686489E+03 -0.23913248687E+03  0.35846294739E+03  0.12500000000E+03 0.  0.
         21    1    1    2  503  502  0.27597065038E+02 -0.29898561143E+02 -0.37177112436E+03  0.37399103046E+03  0.00000000000E+00 0.  1.
          1    1    1    2  501    0 -0.22998598952E+03  0.15124542604E+03 -0.31560908455E+03  0.41878136124E+03  0.00000000000E+00 0. -1.
<mgrwt>
<rscale>  4 0.28268673E+03</rscale>
<asrwt>0</asrwt>
<pdfrwt beam="1">  1       21 0.17286357E-01 0.28268673E+03</pdfrwt>
<pdfrwt beam="2">  1        1 0.15982677E+00 0.28268673E+03</pdfrwt>
<totfact> 0.49431529E+03</totfact>
</mgrwt>
</event>
<event>
 5    0  0.1141006E+000  0.2456208E+03  0.7546771E-02  0.1116104E+00
          1   -1    0    0  503    0 -0.00000000000E+00  0.00000000000E+00  0.12652573524E+04  0.12652573524E+04  0.00000000000E+00 0. -1.
         21   -1    0    0  501  502  0.00000000000E+00 -0.00000000000E+00 -0.10948583746E+03  0.10948583746E+03  0.00000000000E+00 0.  1.
         25    1    1    2    0    0 -0.34026795380E+02  0.20716812670E+03  0.59491091515E+02  0.25147692835E+03  0.12500000000E+03 0.  0.
         21    1    1    2  503  502 -0.19181572398E+02  0.84190867454E+01  0.62883077307E+02  0.66280428129E+02  0.00000000000E+00 0. -1.
          1    1    1    2  501    0  0.53208367778E+02 -0.21558721345E+03  0.10333973461E+04  0.10569858334E+04  0.00000000000E+00 0. -1.
<mgrwt>
<rscale>  4 0.24562082E+03</rscale>
<asrwt>0</asrwt>
<pdfrwt beam="1">  1       21 0.16843976E-01 0.24562082E+03</pdfrwt>
<pdfrwt beam="2">  1        1 0.19465497E+00 0.24562082E+03</pdfrwt>
<totfact> 0.36216979E+03</totfact>
</mgrwt>
</event>
<event>
 5    0  0.1141006E+000  0.3563297E+03  0.7546771E-02  0.1060047E+00
         21   -1    0    0  501  502  0.00000000000E+00  0.00000000000E+00  0.13058725258E+03  0.13058725258E+03  0.00000000000E+00 0.  1.
          1   -1    0    0  503    0 -0.00000000000E+00 -0.00000000000E+00 -0.13877943451E+04  0.13877943451E+04  0.00000000000E+00 0.  1.
         25    1    1    2    0    0  0.30822057054E+03  0.11056085570E+03 -0.28943770452E+03  0.45455781559E+03  0.12500000000E+03 0.  0.
         21    1    1    2  503  502  0.44577428612E+02 -0.74020484326E+02 -0.16739704097E+03  0.18838245291E+03  0.00000000000E+00 0. -1.
          1    1    1    2  501    0 -0.35279799915E+03 -0.36540371372E+02 -0.80037234704E+03  0.87544132919E+03  0.00000000000E+00 0.  1.
<mgrwt>
<rscale>  4 0.35632971E+03</rscale>
<asrwt>0</asrwt>
<pdfrwt beam="1">  1       21 0.20090346E-01 0.35632971E+03</pdfrwt>
<pdfrwt beam="2">  1        1 0.21350683E+00 0.35632971E+03</pdfrwt>
<totfact> 0.20722102E+03</totfact>
</mgrwt>
</event>
<event>
 5    0  0.1141006E+000  0.2217160E+03  0.7546771E-02  0.1132610E+00
          1   -1    0    0  503    0 -0.00000000000E+00  0.00000000000E+00  0.95323428790E+03  0.95323428790E+03  0.00000000000E+00 0.  1.
         21   -1    0    0  501  502  0.00000000000E+00 -0.00000000000E+00 -0.17821259554E+03  0.17821259554E+03  0.00000000000E+00 0.  1.
         25    1    1    2    0    0 -0.17709921227E+03 -0.15821695090E+03 -0.34471425059E+02  0.27057349036E+03  0.12500000000E+03 0.  0.
         21    1    1    2  503  502  0.31276934212E+02  0.53567201479E+02  0.47777830266E+02  0.78296952386E+02  0.00000000000E+00 0. -1.
          1    1    1    2  501    0  0.14582227806E+03  0.10464974943E+03  0.76171528716E+03  0.78257644069E+03  0.00000000000E+00 0.  1.
<mgrwt>
<rscale>  4 0.22171604E+03</rscale>
<asrwt>0</asrwt>
<pdfrwt beam="1">  1       21 0.27417323E-01 0.22171604E+03</pdfrwt>
<pdfrwt beam="2">  1        1 0.14665143E+00 0.22171604E+03</pdfrwt>
<totfact> 0.24406361E+03</totfact>
</mgrwt>
</event>
<event>
 5    0  0.1141006E+000  0.2548191E+03  0.7546771E-02  0.1110297E+00
         21   -1    0    0  501  502  0.00000000000E+00  0.00000000000E+00  0.29488349808E+02  0.29488349808E+02  0.00000000000E+00 0.  1.
          2   -1    0    0  503    0 -0.00000000000E+00 -0.00000000000E+00 -0.27947500099E+04  0.27947500099E+04  0.00000000000E+00 0. -1.
         25    1    1    2    0    0 -0.11893226069E+03  0.18205405432E+03 -0.72079428123E+03  0.76318933246E+03  0.12500000000E+03 0.  0.
         21    1    1    2  503  502  0.92231003274E+01  0.24917445521E+02 -0.19210457960E+03  0.19393327248E+03  0.00000000000E+00 0.  1.
          2    1    1    2  501    0  0.10970916036E+03 -0.20697149984E+03 -0.18523627993E+04  0.18671157548E+04  0.00000000000E+00 0. -1.
<mgrwt>
<rscale>  4 0.25481906E+03</rscale>
<asrwt>0</asrwt>
<pdfrwt beam="1">  1       21 0.45366684E-02 0.25481906E+03</pdfrwt>
<pdfrwt beam="2">  1        2 0.42996162E+00 0.25481906E+03</pdfrwt>
<totfact> 0.11120434E+04</totfact>
</mgrwt>
</event>
<event>
 5    0  0.1141006E+000  0.2768450E+03  0.7546771E-02  0.1097425E+00
         21   -1    0    0  501  502  0.00000000000E+00  0.00000000000E+00  0.32368856476E+03  0.32368856476E+03  0.00000000000E+00 0.  1.
          2   -1    0    0  503    0 -0.00000000000E+00 -0.00000000000E+00 -0.35309997805E+03  0.35309997805E+03  0.00000000000E+00 0.  1.
         25    1    1    2    0    0  0.12956636633E+02 -0.23506329434E+03  0.85049719152E+02  0.27978756496E+03  0.12500000000E+03 0.  0.
         21    1    1    2  503  502 -0.38331627506E+02 -0.27487098205E+02 -0.12439782245E+03  0.13304011600E+03  0.00000000000E+00 0.  1.
          2    1    1    2  501    0  0.25374990873E+02  0.26255039254E+03  0.99366900103E+01  0.26396086186E+03  0.00000000000E+00 0.  1.
<mgrwt>
<rscale>  4 0.27684501E+03</rscale>
<asrwt>0</asrwt>
<pdfrwt beam="1">  1       21 0.49798241E-01 0.27684501E+03</pdfrwt>
<pdfrwt beam="2">  1        2 0.54323074E-01 0.27684501E+03</pdfrwt>
<totfact> 0.42697275E+03</totfact>
</mgrwt>
</event>
<event>
 5    0  0.1141006E+000  0.2580917E+03  0.7546771E-02  0.1108295E+00
         21   -1    0    0  501  502  0.00000000000E+00  0.00000000000E+00  0.25031903128E+04  0.25031903128E+04  0.00000000000E+00 0. -1.
          2   -1    0    0  503    0 -0.00000000000E+00 -0.00000000000E+00 -0.47228299571E+03  0.47228299571E+03  0.00000000000E+00 0.  1.
         25    1    1    2    0    0 -0.69492328345E+02 -0.21513432925E+03  0.24411520376E+04  0.24547831338E+04  0.12500000000E+03 0.  0.
         21    1    1    2  503  502  0.29429640990E+02  0.10427707903E+02  0.23711231933E+02  0.39205399892E+02  0.00000000000E+00 0. -1.
          2    1    1    2  501    0  0.40062687355E+02  0.20470662135E+03 -0.43395595244E+03  0.48148477483E+03  0.00000000000E+00 0.  1.
<mgrwt>
<rscale>  4 0.25809172E+03</rscale>
<asrwt>0</asrwt>
<pdfrwt beam="1">  1       21 0.38510619E+00 0.25809172E+03</pdfrwt>
<pdfrwt beam="2">  1        2 0.72658924E-01 0.25809172E+03</pdfrwt>
<totfact> 0.81419913E+00</totfact>
</mgrwt>
</event>
<event>
 5    0  0.1141006E+000  0.2162805E+03  0.7546771E-02  0.1136687E+00
          1   -1    0    0  503    0 -0.00000000000E+00  0.00000000000E+00  0.86093013068E+03  0.86093013068E+03  0.00000000000E+00 0. -1.
         21   -1    0    0  501  502  0.00000000000E+00 -0.00000000000E+00 -0.13842983577E+03  0.13842983577E+03  0.00000000000E+00 0. -1.
         25    1    1    2    0    0 -0.93097111557E+02  0.20450376722E+03  0.41243003577E+02  0.26041284210E+03  0.12500000000E+03 0.  0.
         21    1    1    2  503  502  0.14835674960E+02 -0.12485798441E+03  0.14834855359E+03  0.19446569588E+03  0.00000000000E+00 0. -1.
          1    1    1    2  501    0  0.78261436597E+02 -0.79645782805E+02  0.53290873774E+03  0.54448142846E+03  0.00000000000E+00 0. -1.
<mgrwt>
<rscale>  4 0.21628050E+03</rscale>
<asrwt>0</asrwt>
<pdfrwt beam="1">  1       21 0.21296898E-01 0.21628050E+03</pdfrwt>
<pdfrwt beam="2">  1        1 0.13245079E+00 0.21628050E+03</pdfrwt>
<totfact> 0.46748852E+03</totfact>
</mgrwt>
</event>
<event>
 5    0  0.1141006E+000  0.5048705E+03  0.7546771E-02  0.1012515E+00
         21   -1    0    0  501  502  0.00000000000E+00  0.00000000000E+00  0.40782524420E+03  0.40782524420E+03  0.00000000000E+00 0. -1.
          1   -1    0    0  503    0 -0.00000000000E+00 -0.00000000000E+00 -0.82878443452E+03  0.82878443452E+03  0.00000000000E+00 0. -1.
         25    1    1    2    0    0  0.47187877448E+03 -0.90605828257E+02  0.57126785828E+02  0.49976740948E+03  0.12500000000E+03 0.  0.
         21    1    1    2  503  502  0.22227960174E+02 -0.38062762569E+02 -0.72169384985E+02  0.84565218837E+02  0.00000000000E+00 0. -1.
          1    1    1    2  501    0 -0.49410673466E+03  0.12866859083E+03 -0.40591659116E+03  0.65227705040E+03  0.00000000000E+00 0. -1.
<mgrwt>
<rscale>  4 0.50487050E+03</rscale>
<asrwt>0</asrwt>
<pdfrwt beam="1">  1       21 0.62742346E-01 0.50487050E+03</pdfrwt>
<pdfrwt beam="2">  1        1 0.12750530E+00 0.50487050E+03</pdfrwt>
<totfact> 0.50963429E+02</totfact>
</mgrwt>
</event>
<event>
 5    0  0.1141006E+000  0.3337621E+03  0.7546771E-02  0.1069484E+00
          2   -1    0    0  503    0 -0.00000000000E+00  0.00000000000E+00  0.43013316929E+04  0.43013316929E+04  0.00000000000E+00 0.  1.
         21   -1    0    0  501  502  0.00000000000E+00 -0.00000000000E+00 -0.11232762176E+03  0.11232762176E+03  0.00000000000E+00 0. -1.
         25    1    1    2    0    0 -0.10094910894E+03 -0.29541959355E+03  0.16535110439E+03  0.37473917139E+03  0.12500000000E+03 0.  0.
         21    1    1    2  503  502 -0.36981821484E+01  0.45181006082E+02  0.17688778045E+03  0.18260418049E+03  0.00000000000E+00 0. -1.
          2    1    1    2  501    0  0.10464729109E+03  0.25023858747E+03  0.38467651863E+04  0.38563159628E+04  0.00000000000E+00 0.  1.
<mgrwt>
<rscale>  4 0.33376215E+03</rscale>
<asrwt>0</asrwt>
<pdfrwt beam="1">  1       21 0.17281176E-01 0.33376215E+03</pdfrwt>
<pdfrwt beam="2">  1        2 0.66174321E+00 0.33376215E+03</pdfrwt>
<totfact> 0.92093884E+01</totfact>
</mgrwt>
</event>
<event>
 5    0  0.1141006E+000  0.2806712E+03  0.7546771E-02  0.1095323E+00
         21   -1    0    0  501  502  0.00000000000E+00  0.00000000000E+00  0.21392263049E+04  0.21392263049E+04  0.00000000000E+00 0.  1.
          2   -1    0    0  503    0 -0.00000000000E+00 -0.00000000000E+00 -0.11242410220E+04  0.11242410220E+04  0.00000000000E+00 0. -1.
         25    1    1    2    0    0  0.66092437334E+02  0.24494794083E+03  0.21086388428E+04  0.21275221440E+04  0.12500000000E+03 0.  0.
         21    1    1    2  503  502  0.47252912582E+02 -0.13992566191E+03 -0.63549749017E+03  0.65243320626E+03  0.00000000000E+00 0.  1.
          2    1    1    2  501    0 -0.11334534992E+03 -0.10502227892E+03 -0.45815606967E+03  0.48351197668E+03  0.00000000000E+00 0. -1.
<mgrwt>
<rscale>  4 0.28067122E+03</rscale>
<asrwt>0</asrwt>
<pdfrwt beam="1">  1       21 0.32911174E+00 0.28067122E+03</pdfrwt>
<pdfrwt beam="2">  1        2 0.17296016E+00 0.28067122E+03</pdfrwt>
<totfact> 0.57863711E+00</totfact>
</mgrwt>
</event>
<event>
 5    0  0.1141006E+000  0.2474114E+03  0.7546771E-02  0.1114952E+00
         21   -1    0    0  501  502  0.00000000000E+00  0.00000000000E+00  0.80512736603E+02  0.80512736603E+02  0.00000000000E+00 0.  1.
          2   -1    0    0  503    0 -0.00000000000E+00 -0.00000000000E+00 -0.46981307880E+04  0.46981307880E+04  0.00000000000E+00 0. -1.
         25    1    1    2    0    0 -0.33324190307E+02  0.20622838545E+03 -0.15752801477E+03  0.28996676372E+03  0.12500000000E+03 0.  0.
         21    1    1    2  503  502  0.10906244902E+03  0.99004221570E+02 -0.69293709501E+03  0.70841955882E+03  0.00000000000E+00 0. -1.
          2    1    1    2  501    0 -0.75738258712E+02 -0.30523260702E+03 -0.37671529416E+04  0.37802572020E+04  0.00000000000E+00 0. -1.
<mgrwt>
<rscale>  4 0.24741140E+03</rscale>
<asrwt>0</asrwt>
<pdfrwt beam="1">  1       21 0.12386577E-01 0.24741140E+03</pdfrwt>
<pdfrwt beam="2">  1        2 0.72278920E+00 0.24741140E+03</pdfrwt>
<totfact> 0.77518563E+01</totfact>
</mgrwt>
</event>
<event>
 5    0  0.1141006E+000  0.3713583E+03  0.7546771E-02  0.1054175E+00
          2   -1    0    0  503    0 -0.00000000000E+00  0.00000000000E+00  0.10853629701E+04  0.10853629701E+04  0.00000000000E+00 0. -1.
         21   -1    0    0  501  502  0.00000000000E+00 -0.00000000000E+00 -0.40212208102E+03  0.40212208102E+03  0.00000000000E+00 0. -1.
         25    1    1    2    0    0  0.33409224507E+03  0.70426089941E+02 -0.23855307184E+03  0.43486783100E+03  0.12500000000E+03 0.  0.
         21    1    1    2  503  502  0.83734494997E+02 -0.10868245610E+02  0.12321393421E+03  0.14936953504E+03  0.00000000000E+00 0. -1.
          2    1    1    2  501    0 -0.41782674006E+03 -0.59557844331E+02  0.79858002674E+03  0.90324768510E+03  0.00000000000E+00 0. -1.
<mgrwt>
<rscale>  4 0.37135835E+03</rscale>
<asrwt>0</asrwt>
<pdfrwt beam="1">  1       21 0.61864936E-01 0.37135835E+03</pdfrwt>
<pdfrwt beam="2">  1        2 0.16697892E+00 0.37135835E+03</pdfrwt>
<totfact> 0.66271690E+02</totfact>
</mgrwt>
</event>
<event>
 5    0  0.1141006E+000  0.2462405E+03  0.7546771E-02  0.1115704E+00
         21   -1    0    0  501  502  0.00000000000E+00  0.00000000000E+00  0.49079792280E+02  0.49079792280E+02  0.00000000000E+00 0.  1.
          2   -1    0    0  503    0 -0.00000000000E+00 -0.00000000000E+00 -0.23841908708E+04  0.23841908708E+04  0.00000000000E+00 0. -1.
         25    1    1    2    0    0 -0.83712403912E+02 -0.19334097836E+03 -0.32093238001E+03  0.40374632261E+03  0.12500000000E+03 0.  0.
         21    1    1    2  503  502  0.20436319171E+02 -0.18303957641E+02 -0.17717864753E+03  0.17929013121E+03  0.00000000000E+00 0. -1.
          2    1    1    2  501    0  0.63276084740E+02  0.21164493600E+03 -0.18370000509E+04  0.18502342092E+04  0.00000000000E+00 0. -1.
<mgrwt>
<rscale>  4 0.24624047E+03</rscale>
<asrwt>0</asrwt>
<pdfrwt beam="1">  1       21 0.75507364E-02 0.24624047E+03</pdfrwt>
<pdfrwt beam="2">  1        2 0.36679864E+00 0.24624047E+03</pdfrwt>
<totfact> 0.78398262E+03</totfact>
</mgrwt>
</event>
<event>
 5    0  0.1141006E+000  0.7430549E+03  0.7546771E-02  0.9646310E-01
         -1   -1    0    0    0  501 -0.00000000000E+00  0.00000000000E+00  0.19931095039E+04  0.19931095039E+04  0.00000000000E+00 0. -1.
         21   -1    0    0  503  502  0.00000000000E+00 -0.00000000000E+00 -0.43134726915E+03  0.43134726915E+03  0.00000000000E+00 0. -1.
         25    1    1    2    0    0  0.11300081343E+03  0.71505010295E+03  0.30874456423E+03  0.79687768165E+03  0.12500000000E+03 0.  0.
         21    1    1    2  503  501  0.77069730599E+01  0.18987777262E+02  0.70085083833E+03  0.70115036241E+03  0.00000000000E+00 0. -1.
         -1    1    1    2    0  502 -0.12070778649E+03 -0.73403788022E+03  0.55216683217E+03  0.92642872897E+03  0.00000000000E+00 0. -1.
<mgrwt>
<rscale>  4 0.74305488E+03</rscale>
<asrwt>0</asrwt>
<pdfrwt beam="1">  1       21 0.66361119E-01 0.74305488E+03</pdfrwt>
<pdfrwt beam="2">  1       -1 0.30663223E+00 0.74305488E+03</pdfrwt>
<totfact> 0.54388473E+00</totfact>
</mgrwt>
</event>
<event>
 5    0  0.1141006E+000  0.3963468E+03  0.7546771E-02  0.1045052E+00
         21   -1    0    0  501  502  0.00000000000E+00  0.00000000000E+00  0.25491884282E+03  0.25491884282E+03  0.00000000000E+00 0. -1.
          1   -1    0    0  503    0 -0.00000000000E+00 -0.00000000000E+00 -0.89690339581E+03  0.89690339581E+03  0.00000000000E+00 0. -1.
         25    1    1    2    0    0 -0.40243615291E+03 -0.47547195657E+02 -0.42009361606E+03  0.59692481875E+03  0.12500000000E+03 0.  0.
         21    1    1    2  503  502  0.51231468297E+02 -0.54066499087E+02 -0.17002945008E+03  0.18562829408E+03  0.00000000000E+00 0. -1.
          1    1    1    2  501    0  0.35120468461E+03  0.10161369474E+03 -0.51861486843E+02  0.36926912580E+03  0.00000000000E+00 0. -1.
<mgrwt>
<rscale>  4 0.39634684E+03</rscale>
<asrwt>0</asrwt>
<pdfrwt beam="1">  1       21 0.39218283E-01 0.39634684E+03</pdfrwt>
<pdfrwt beam="2">  1        1 0.13798514E+00 0.39634684E+03</pdfrwt>
<totfact> 0.12511298E+03</totfact>
</mgrwt>
</event>
<event>
 5    0  0.1141006E+000  0.2403255E+03  0.7546771E-02  0.1119576E+00
         21   -1    0    0  501  502  0.00000000000E+00  0.00000000000E+00  0.11809260423E+03  0.11809260423E+03  0.00000000000E+00 0. -1.
          2   -1    0    0  503    0 -0.00000000000E+00 -0.00000000000E+00 -0.55581271777E+03  0.55581271777E+03  0.00000000000E+00 0.  1.
         25    1    1    2    0    0 -0.10506612941E+02  0.21310066577E+03 -0.16311169017E+03  0.29623083252E+03  0.12500000000E+03 0.  0.
         21    1    1    2  503  502  0.41099113618E+02 -0.15600440874E+02 -0.11101253791E+03  0.11939972558E+03  0.00000000000E+00 0.  1.
          2    1    1    2  501    0 -0.30592500677E+02 -0.19750022489E+03 -0.16359588546E+03  0.25827476390E+03  0.00000000000E+00 0.  1.
<mgrwt>
<rscale>  4 0.24032554E+03</rscale>
<asrwt>0</asrwt>
<pdfrwt beam="1">  1       21 0.18168093E-01 0.24032554E+03</pdfrwt>
<pdfrwt beam="2">  1        2 0.85509648E-01 0.24032554E+03</pdfrwt>
<totfact> 0.18950269E+04</totfact>
</mgrwt>
</event>
<event>
 5    0  0.1141006E+000  0.2220969E+03  0.7546771E-02  0.1132329E+00
         21   -1    0    0  501  502  0.00000000000E+00  0.00000000000E+00  0.98288242156E+02  0.98288242156E+02  0.00000000000E+00 0. -1.
          2   -1    0    0  503    0 -0.00000000000E+00 -0.00000000000E+00 -0.76617776072E+03  0.76617776072E+03  0.00000000000E+00 0.  1.
         25    1    1    2    0    0  0.20746676666E+03  0.54585672155E+02 -0.13681790162E+03  0.28348931739E+03  0.12500000000E+03 0.  0.
         21    1    1    2  503  502 -0.32828251922E+02 -0.24282774445E+02 -0.33627514499E+02  0.52897608551E+02  0.00000000000E+00 0.  1.
          2    1    1    2  501    0 -0.17463851474E+03 -0.30302897709E+02 -0.49744410245E+03  0.52807907694E+03  0.00000000000E+00 0.  1.
<mgrwt>
<rscale>  4 0.22209693E+03</rscale>
<asrwt>0</asrwt>
<pdfrwt beam="1">  1       21 0.15121268E-01 0.22209693E+03</pdfrwt>
<pdfrwt beam="2">  1        2 0.11787350E+00 0.22209693E+03</pdfrwt>
<totfact> 0.18200459E+04</totfact>
</mgrwt>
</event>
<event>
 5    0  0.1141006E+000  0.2561630E+03  0.7546771E-02  0.1109471E+00
         21   -1    0    0  501  502  0.00000000000E+00  0.00000000000E+00  0.89259062277E+02  0.89259062277E+02  0.00000000000E+00 0.  1.
          2   -1    0    0  503    0 -0.00000000000E+00 -0.00000000000E+00 -0.25791824952E+04  0.25791824952E+04  0.00000000000E+00 0. -1.
         25    1    1    2    0    0  0.43005301590E+02 -0.22004682684E+03 -0.11866021800E+03  0.28279906171E+03  0.12500000000E+03 0.  0.
         21    1    1    2  503  502 -0.39097504855E+02 -0.10701657443E+00 -0.25911227338E+03  0.26204540933E+03  0.00000000000E+00 0. -1.
          2    1    1    2  501    0 -0.39077967349E+01  0.22015384341E+03 -0.21121509416E+04  0.21235970865E+04  0.00000000000E+00 0. -1.
<mgrwt>
<rscale>  4 0.25616297E+03</rscale>
<asrwt>0</asrwt>
<pdfrwt beam="1">  1       21 0.13732162E-01 0.25616297E+03</pdfrwt>
<pdfrwt beam="2">  1        2 0.39679734E+00 0.25616297E+03</pdfrwt>
<totfact> 0.21065338E+03</totfact>
</mgrwt>
</event>
<event>
 5    0  0.1141006E+000  0.2758604E+03  0.7546771E-02  0.1097972E+00
         21   -1    0    0  501  502  0.00000000000E+00  0.00000000000E+00  0.15841424485E+03  0.15841424485E+03  0.00000000000E+00 0.  1.
          2   -1    0    0  503    0 -0.00000000000E+00 -0.00000000000E+00 -0.69497854351E+03  0.69497854351E+03  0.00000000000E+00 0.  1.
         25    1    1    2    0    0 -0.18457644835E+03 -0.16650930191E+03 -0.32846862472E+02  0.28017446223E+03  0.12500000000E+03 0.  0.
         21    1    1    2  503  502 -0.71252524401E+01  0.23189794775E+02 -0.10844098778E+03  0.11112148143E+03  0.00000000000E+00 0.  1.
          2    1    1    2  501    0  0.19170170079E+03  0.14331950714E+03 -0.39527644841E+03  0.46209684470E+03  0.00000000000E+00 0.  1.
<mgrwt>
<rscale>  4 0.27586042E+03</rscale>
<asrwt>0</asrwt>
<pdfrwt beam="1">  1       21 0.24371422E-01 0.27586042E+03</pdfrwt>
<pdfrwt beam="2">  1        2 0.10691978E+00 0.27586042E+03</pdfrwt>
<totfact> 0.83045126E+03</totfact>
</mgrwt>
</event>
<event>
 5    0  0.1141006E+000  0.2573253E+03  0.7546771E-02  0.1108761E+00
          2   -1    0    0  503    0 -0.00000000000E+00  0.00000000000E+00  0.21612411855E+04  0.21612411855E+04  0.00000000000E+00 0.  1.
         21   -1    0    0  501  502  0.00000000000E+00 -0.00000000000E+00 -0.60825077204E+02  0.60825077204E+02  0.00000000000E+00 0.  1.
         25    1    1    2    0    0 -0.15824523133E+03  0.15984295296E+03  0.25426322892E+03  0.36175421550E+03  0.12500000000E+03 0.  0.
         21    1    1    2  503  502  0.29500797384E+02 -0.14776935682E+02  0.37067995911E+03  0.37214551852E+03  0.00000000000E+00 0. -1.
          2    1    1    2  501    0  0.12874443395E+03 -0.14506601728E+03  0.14754729203E+04  0.14881665287E+04  0.00000000000E+00 0.  1.
<mgrwt>
<rscale>  4 0.25732532E+03</rscale>
<asrwt>0</asrwt>
<pdfrwt beam="1">  1       21 0.93577059E-02 0.25732532E+03</pdfrwt>
<pdfrwt beam="2">  1        2 0.33249858E+00 0.25732532E+03</pdfrwt>
<totfact> 0.70436110E+03</totfact>
</mgrwt>
</event>
<event>
 5    0  0.1141006E+000  0.2421414E+03  0.7546771E-02  0.1118374E+00
         21   -1    0    0  501  502  0.00000000000E+00  0.00000000000E+00  0.18497376488E+03  0.18497376488E+03  0.00000000000E+00 0.  1.
          2   -1    0    0  503    0 -0.00000000000E+00 -0.00000000000E+00 -0.17256112569E+04  0.17256112569E+04  0.00000000000E+00 0. -1.
         25    1    1    2    0    0 -0.17057999708E+03 -0.11400388117E+03  0.82994119229E+02  0.25417994443E+03  0.12500000000E+03 0.  0.
         21    1    1    2  503  502 -0.15575810553E+02 -0.18022784524E+02 -0.83692356699E+03  0.83726249385E+03  0.00000000000E+00 0.  1.
          2    1    1    2  501    0  0.18615580763E+03  0.13202666570E+03 -0.78670804422E+03  0.81914258345E+03  0.00000000000E+00 0. -1.
<mgrwt>
<rscale>  4 0.24214137E+03</rscale>
<asrwt>0</asrwt>
<pdfrwt beam="1">  1       21 0.28457503E-01 0.24214137E+03</pdfrwt>
<pdfrwt beam="2">  1        2 0.26547865E+00 0.24214137E+03</pdfrwt>
<totfact> 0.15350643E+03</totfact>
</mgrwt>
</event>
<event>
 5    0  0.1141006E+000  0.4050814E+03  0.7546771E-02  0.1042034E+00
         21   -1    0    0  501  502  0.00000000000E+00  0.00000000000E+00  0.37103752127E+03  0.37103752127E+03  0.00000000000E+00 0.  1.
          2   -1    0    0  503    0 -0.00000000000E+00 -0.00000000000E+00 -0.59779003035E+03  0.59779003035E+03  0.00000000000E+00 0.  1.
         25    1    1    2    0    0 -0.35055836610E+02  0.34985097807E+03 -0.78447293067E+02  0.38131823498E+03  0.12500000000E+03 0.  0.
         21    1    1    2  503  502 -0.10783145165E+03  0.50850373542E+02 -0.10682208688E+03  0.16007604661E+03  0.00000000000E+00 0.  1.
          2    1    1    2  501    0  0.14288728826E+03 -0.40070135161E+03 -0.41483129126E+02  0.42743327003E+03  0.00000000000E+00 0.  1.
<mgrwt>
<rscale>  4 0.40508137E+03</rscale>
<asrwt>0</asrwt>
<pdfrwt beam="1">  1       21 0.57082696E-01 0.40508137E+03</pdfrwt>
<pdfrwt beam="2">  1        2 0.91967696E-01 0.40508137E+03</pdfrwt>
<totfact> 0.17123328E+03</totfact>
</mgrwt>
</event>
<event>
 5    0  0.1141006E+000  0.3767958E+03  0.7546771E-02  0.1052124E+00
         21   -1    0    0  501  502  0.00000000000E+00  0.00000000000E+00  0.15212242795E+03  0.15212242795E+03  0.00000000000E+00 0.  1.
          1   -1    0    0  503    0 -0.00000000000E+00 -0.00000000000E+00 -0.13941752619E+04  0.13941752619E+04  0.00000000000E+00 0.  1.
         25    1    1    2    0    0 -0.25428364254E+03  0.24837445547E+03 -0.16645955523E+03  0.41192696503E+03  0.12500000000E+03 0.  0.
         21    1    1    2  503  502  0.82494151102E+01 -0.23096873177E+02 -0.11242237127E+03  0.11506653710E+03  0.00000000000E+00 0.  1.
          1    1    1    2  501    0  0.24603422743E+03 -0.22527758229E+03 -0.96317090749E+03  0.10193041878E+04  0.00000000000E+00 0.  1.
<mgrwt>
<rscale>  4 0.37679576E+03</rscale>
<asrwt>0</asrwt>
<pdfrwt beam="1">  1       21 0.23403449E-01 0.37679576E+03</pdfrwt>
<pdfrwt beam="2">  1        1 0.21448851E+00 0.37679576E+03</pdfrwt>
<totfact> 0.15237574E+03</totfact>
</mgrwt>
</event>
<event>
 5    0  0.1141006E+000  0.2750854E+03  0.7546771E-02  0.1098404E+00
         21   -1    0    0  501  502  0.00000000000E+00  0.00000000000E+00  0.34614262144E+03  0.34614262144E+03  0.00000000000E+00 0. -1.
          1   -1    0    0  503    0 -0.00000000000E+00 -0.00000000000E+00 -0.31921380682E+03  0.31921380682E+03  0.00000000000E+00 0. -1.
         25    1    1    2    0    0  0.10904767042E+03 -0.19434415613E+03 -0.16887440752E+03  0.30627538419E+03  0.12500000000E+03 0.  0.
         21    1    1    2  503  502  0.23875445473E+02 -0.18068934226E+02 -0.13258171936E+02  0.32746028823E+02  0.00000000000E+00 0.  1.
          1    1    1    2  501    0 -0.13292311589E+03  0.21241309035E+03  0.20906139408E+03  0.32633501526E+03  0.00000000000E+00 0. -1.
<mgrwt>
<rscale>  4 0.27508545E+03</rscale>
<asrwt>0</asrwt>
<pdfrwt beam="1">  1       21 0.53252711E-01 0.27508545E+03</pdfrwt>
<pdfrwt beam="2">  1        1 0.49109816E-01 0.27508545E+03</pdfrwt>
<totfact> 0.28823338E+03</totfact>
</mgrwt>
</event>
<event>
 5    0  0.1141006E+000  0.2870464E+03  0.7546771E-02  0.1091901E+00
          3   -1    0    0  503    0 -0.00000000000E+00  0.00000000000E+00  0.95475304350E+02  0.95475304350E+02  0.00000000000E+00 0.  1.
         21   -1    0    0  501  502  0.00000000000E+00 -0.00000000000E+00 -0.90052236149E+03  0.90052236149E+03  0.00000000000E+00 0.  1.
         25    1    1    2    0    0 -0.25840011516E+03  0.45325896166E-01 -0.57051844374E+03  0.63866025101E+03  0.12500000000E+03 0.  0.
         21    1    1    2  503  502  0.18176733772E+02 -0.20213060815E+02 -0.13822985103E+02  0.30496498082E+02  0.00000000000E+00 0.  1.
          3    1    1    2  501    0  0.24022338139E+03  0.20167734919E+02 -0.22070562830E+03  0.32684091675E+03  0.00000000000E+00 0.  1.
<mgrwt>
<rscale>  4 0.28704638E+03</rscale>
<asrwt>0</asrwt>
<pdfrwt beam="1">  1       21 0.13854191E+00 0.28704638E+03</pdfrwt>
<pdfrwt beam="2">  1        3 0.14688508E-01 0.28704638E+03</pdfrwt>
<totfact> 0.68205465E+02</totfact>
</mgrwt>
</event>
<event>
 5    0  0.1141006E+000  0.3892138E+03  0.7546771E-02  0.1047580E+00
          1   -1    0    0  503    0 -0.00000000000E+00  0.00000000000E+00  0.47605358595E+03  0.47605358595E+03  0.00000000000E+00 0. -1.
         21   -1    0    0  501  502  0.00000000000E+00 -0.00000000000E+00 -0.34503382534E+03  0.34503382534E+03  0.00000000000E+00 0. -1.
         25    1    1    2    0    0 -0.46115984718E+02 -0.35163936313E+03 -0.35212133608E+01  0.37605096023E+03  0.12500000000E+03 0.  0.
         21    1    1    2  503  502 -0.85903076025E+01 -0.32206930309E+02  0.26376787725E+02  0.42506642720E+02  0.00000000000E+00 0.  1.
          1    1    1    2  501    0  0.54706292320E+02  0.38384629344E+03  0.10816418625E+03  0.40252980833E+03  0.00000000000E+00 0. -1.
<mgrwt>
<rscale>  4 0.38921378E+03</rscale>
<asrwt>0</asrwt>
<pdfrwt beam="1">  1       21 0.53082127E-01 0.38921378E+03</pdfrwt>
<pdfrwt beam="2">  1        1 0.73239014E-01 0.38921378E+03</pdfrwt>
<totfact> 0.16805966E+03</totfact>
</mgrwt>
</event>
<event>
 5    0  0.1141006E+000  0.2380336E+03  0.7546771E-02  0.1121110E+00
         21   -1    0    0  501  502  0.00000000000E+00  0.00000000000E+00  0.38719417360E+02  0.38719417360E+02  0.00000000000E+00 0. -1.
          2   -1    0    0  503    0 -0.00000000000E+00 -0.00000000000E+00 -0.17138266005E+04  0.17138266005E+04  0.00000000000E+00 0. -1.
         25    1    1    2    0    0 -0.19782500213E+03  0.73630650917E+02 -0.70295124286E+03  0.74452780611E+03  0.12500000000E+03 0.  0.
         21    1    1    2  503  502 -0.14437436605E+01 -0.66321475296E+02 -0.27663980716E+03  0.28448234635E+03  0.00000000000E+00 0. -1.
          2    1    1    2  501    0  0.19926874579E+03 -0.73091756209E+01 -0.69551613311E+03  0.72353586539E+03  0.00000000000E+00 0. -1.
<mgrwt>
<rscale>  4 0.23803363E+03</rscale>
<asrwt>0</asrwt>
<pdfrwt beam="1">  1       21 0.59568352E-02 0.23803363E+03</pdfrwt>
<pdfrwt beam="2">  1        2 0.26366555E+00 0.23803363E+03</pdfrwt>
<totfact> 0.26749120E+04</totfact>
</mgrwt>
</event>
<event>
 5    0  0.1141006E+000  0.3001277E+03  0.7546771E-02  0.1085177E+00
          1   -1    0    0  503    0 -0.00000000000E+00  0.00000000000E+00  0.12761728785E+04  0.12761728785E+04  0.00000000000E+00 0. -1.
         21   -1    0    0  501  502  0.00000000000E+00 -0.00000000000E+00 -0.13300875514E+03  0.13300875514E+03  0.00000000000E+00 0. -1.
         25    1    1    2    0    0  0.22341586163E+03  0.15664284683E+03  0.81426379135E+02  0.31097730449E+03  0.12500000000E+03 0.  0.
         21    1    1    2  503  502 -0.43741852646E+02 -0.31253498150E+02  0.12297845225E+03  0.13421561212E+03  0.00000000000E+00 0.  1.
          1    1    1    2  501    0 -0.17967400898E+03 -0.12538934868E+03  0.93875929194E+03  0.96398871698E+03  0.00000000000E+00 0. -1.
<mgrwt>
<rscale>  4 0.30012769E+03</rscale>
<asrwt>0</asrwt>
<pdfrwt beam="1">  1       21 0.20462886E-01 0.30012769E+03</pdfrwt>
<pdfrwt beam="2">  1        1 0.19633428E+00 0.30012769E+03</pdfrwt>
<totfact> 0.24280642E+03</totfact>
</mgrwt>
</event>
<event>
 5    0  0.1141006E+000  0.4204811E+03  0.7546771E-02  0.1036910E+00
         21   -1    0    0  501  502  0.00000000000E+00  0.00000000000E+00  0.42878392730E+03  0.42878392730E+03  0.00000000000E+00 0. -1.
          2   -1    0    0  503    0 -0.00000000000E+00 -0.00000000000E+00 -0.21702417329E+04  0.21702417329E+04  0.00000000000E+00 0. -1.
         25    1    1    2    0    0  0.10941806033E+03 -0.38991398574E+03  0.29372293854E+03  0.51565821318E+03  0.12500000000E+03 0.  0.
         21    1    1    2  503  502  0.43384107046E+02  0.74849846594E+02 -0.26109854846E+03  0.27505841614E+03  0.00000000000E+00 0.  1.
          2    1    1    2  501    0 -0.15280216738E+03  0.31506413914E+03 -0.17740821956E+04  0.18083090308E+04  0.00000000000E+00 0. -1.
<mgrwt>
<rscale>  4 0.42048114E+03</rscale>
<asrwt>0</asrwt>
<pdfrwt beam="1">  1       21 0.65966758E-01 0.42048114E+03</pdfrwt>
<pdfrwt beam="2">  1        2 0.33388335E+00 0.42048114E+03</pdfrwt>
<totfact> 0.14362657E+02</totfact>
</mgrwt>
</event>
<event>
 5    0  0.1141006E+000  0.2266265E+03  0.7546771E-02  0.1129037E+00
          1   -1    0    0  503    0 -0.00000000000E+00  0.00000000000E+00  0.22329040788E+04  0.22329040788E+04  0.00000000000E+00 0. -1.
         21   -1    0    0  501  502  0.00000000000E+00 -0.00000000000E+00 -0.92775447589E+02  0.92775447589E+02  0.00000000000E+00 0. -1.
         25    1    1    2    0    0 -0.20125822395E+03  0.11224297537E+03  0.22341011073E+03  0.34444220967E+03  0.12500000000E+03 0.  0.
         21    1    1    2  503  502  0.19292902570E+03  0.82102963794E+02  0.15677960102E+04  0.15817543536E+04  0.00000000000E+00 0. -1.
          1    1    1    2  501    0  0.83291982479E+01 -0.19434593917E+03  0.34892251027E+03  0.39948296308E+03  0.00000000000E+00 0. -1.
<mgrwt>
<rscale>  4 0.22662652E+03</rscale>
<asrwt>0</asrwt>
<pdfrwt beam="1">  1       21 0.14273147E-01 0.22662652E+03</pdfrwt>
<pdfrwt beam="2">  1        1 0.34352366E+00 0.22662652E+03</pdfrwt>
<totfact> 0.11490252E+03</totfact>
</mgrwt>
</event>
<event>
 5    0  0.1141006E+000  0.3300803E+03  0.7546771E-02  0.1071101E+00
          1   -1    0    0  503    0 -0.00000000000E+00  0.00000000000E+00  0.55687701412E+03  0.55687701412E+03  0.00000000000E+00 0.  1.
         21   -1    0    0  501  502  0.00000000000E+00 -0.00000000000E+00 -0.26713513299E+03  0.26713513299E+03  0.00000000000E+00 0.  1.
         25    1    1    2    0    0  0.92114949186E+02  0.28012387341E+03  0.37333839403E+02  0.32244900974E+03  0.12500000000E+03 0.  0.
         21    1    1    2  503  502 -0.65666966498E+02  0.42689322025E+02  0.13683702740E+03  0.15766705671E+03  0.00000000000E+00 0.  1.
          1    1    1    2  501    0 -0.26447982688E+02 -0.32281319544E+03  0.11557101432E+03  0.34389608066E+03  0.00000000000E+00 0.  1.
<mgrwt>
<rscale>  4 0.33008032E+03</rscale>
<asrwt>0</asrwt>
<pdfrwt beam="1">  1       21 0.41097713E-01 0.33008032E+03</pdfrwt>
<pdfrwt beam="2">  1        1 0.85673387E-01 0.33008032E+03</pdfrwt>
<totfact> 0.23563482E+03</totfact>
</mgrwt>
</event>
<event>
 5    0  0.1141006E+000  0.3732977E+03  0.7546771E-02  0.1053439E+00
          2   -1    0    0  503    0 -0.00000000000E+00  0.00000000000E+00  0.35685831919E+04  0.35685831919E+04  0.00000000000E+00 0. -1.
         21   -1    0    0  501  502  0.00000000000E+00 -0.00000000000E+00 -0.43793303605E+02  0.43793303605E+02  0.00000000000E+00 0. -1.
         25    1    1    2    0    0  0.54677392146E+02 -0.34747167562E+03  0.11073608008E+04  0.11685885185E+04  0.12500000000E+03 0.  0.
         21    1    1    2  503  502 -0.35008502067E+02  0.61555527340E+02  0.53550620078E+03  0.54016809350E+03  0.00000000000E+00 0.  1.
          2    1    1    2  501    0 -0.19668890079E+02  0.28591614828E+03  0.18819228867E+04  0.19036198834E+04  0.00000000000E+00 0. -1.
<mgrwt>
<rscale>  4 0.37329771E+03</rscale>
<asrwt>0</asrwt>
<pdfrwt beam="1">  1       21 0.67374341E-02 0.37329771E+03</pdfrwt>
<pdfrwt beam="2">  1        2 0.54901257E+00 0.37329771E+03</pdfrwt>
<totfact> 0.17785553E+03</totfact>
</mgrwt>
</event>
<event>
 5    0  0.1141006E+000  0.2838810E+03  0.7546771E-02  0.1093588E+00
          2   -1    0    0  503    0 -0.00000000000E+00  0.00000000000E+00  0.34111072724E+04  0.34111072724E+04  0.00000000000E+00 0.  1.
         21   -1    0    0  501  502  0.00000000000E+00 -0.00000000000E+00 -0.69684174897E+02  0.69684174897E+02  0.00000000000E+00 0. -1.
         25    1    1    2    0    0  0.53112076271E+02  0.24824603281E+03  0.25693426077E+03  0.38221355262E+03  0.12500000000E+03 0.  0.
         21    1    1    2  503  502 -0.20045869975E+02  0.14803841109E+02  0.14204904810E+03  0.14421831604E+03  0.00000000000E+00 0.  1.
          2    1    1    2  501    0 -0.33066206296E+02 -0.26304987391E+03  0.29424397886E+04  0.29543595787E+04  0.00000000000E+00 0.  1.
<mgrwt>
<rscale>  4 0.28388104E+03</rscale>
<asrwt>0</asrwt>
<pdfrwt beam="1">  1       21 0.10720645E-01 0.28388104E+03</pdfrwt>
<pdfrwt beam="2">  1        2 0.52478560E+00 0.28388104E+03</pdfrwt>
<totfact> 0.10378187E+03</totfact>
</mgrwt>
</event>
<event>
 5    0  0.1141006E+000  0.3053242E+03  0.7546771E-02  0.1082609E+00
          2   -1    0    0  503    0 -0.00000000000E+00  0.00000000000E+00  0.25447384172E+04  0.25447384172E+04  0.00000000000E+00 0. -1.
         21   -1    0    0  501  502  0.00000000000E+00 -0.00000000000E+00 -0.88602027990E+02  0.88602027990E+02  0.00000000000E+00 0. -1.
         25    1    1    2    0    0  0.28292376697E+03 -0.40608527203E+02  0.23561920973E+03  0.39094286333E+03  0.12500000000E+03 0.  0.
         21    1    1    2  503  502 -0.57739190164E+02 -0.30302117398E+02  0.27585745051E+03  0.28345963629E+03  0.00000000000E+00 0. -1.
          2    1    1    2  501    0 -0.22518457680E+03  0.70910644601E+02  0.19446597289E+04  0.19589379456E+04  0.00000000000E+00 0. -1.
<mgrwt>
<rscale>  4 0.30532419E+03</rscale>
<asrwt>0</asrwt>
<pdfrwt beam="1">  1       21 0.13631083E-01 0.30532419E+03</pdfrwt>
<pdfrwt beam="2">  1        2 0.39149816E+00 0.30532419E+03</pdfrwt>
<totfact> 0.21805964E+03</totfact>
</mgrwt>
</event>
<event>
 5    0  0.1141006E+000  0.3155702E+03  0.7546771E-02  0.1077706E+00
          1   -1    0    0  503    0 -0.00000000000E+00  0.00000000000E+00  0.12182461649E+04  0.12182461649E+04  0.00000000000E+00 0.  1.
         21   -1    0    0  501  502  0.00000000000E+00 -0.00000000000E+00 -0.10350169739E+03  0.10350169739E+03  0.00000000000E+00 0. -1.
         25    1    1    2    0    0 -0.23599783618E+03  0.16012728849E+03  0.35563689341E+03  0.47269263497E+03  0.12500000000E+03 0.  0.
         21    1    1    2  503  502 -0.28124357640E+02 -0.25350352452E+02  0.30089310791E+03  0.30326602554E+03  0.00000000000E+00 0. -1.
          1    1    1    2  501    0  0.26412219382E+03 -0.13477693604E+03  0.45821446621E+03  0.54578920180E+03  0.00000000000E+00 0.  1.
<mgrwt>
<rscale>  4 0.31557019E+03</rscale>
<asrwt>0</asrwt>
<pdfrwt beam="1">  1       21 0.15923339E-01 0.31557019E+03</pdfrwt>
<pdfrwt beam="2">  1        1 0.18742248E+00 0.31557019E+03</pdfrwt>
<totfact> 0.42395039E+03</totfact>
</mgrwt>
</event>
<event>
 5    0  0.1141006E+000  0.3512705E+03  0.7546771E-02  0.1062095E+00
          2   -1    0    0  503    0 -0.00000000000E+00  0.00000000000E+00  0.13057308376E+04  0.13057308376E+04  0.00000000000E+00 0. -1.
         21   -1    0    0  501  502  0.00000000000E+00 -0.00000000000E+00 -0.93368989895E+02  0.93368989895E+02  0.00000000000E+00 0. -1.
         25    1    1    2    0    0 -0.31385235270E+03 -0.96242857319E+02  0.53154011969E+03  0.63712313230E+03  0.12500000000E+03 0.  0.
         21    1    1    2  503  502  0.79911916012E+02  0.65658927271E+00  0.25047318245E+03  0.26291283833E+03  0.00000000000E+00 0. -1.
          2    1    1    2  501    0  0.23394043668E+03  0.95586268047E+02  0.43034854555E+03  0.49906385685E+03  0.00000000000E+00 0. -1.
<mgrwt>
<rscale>  4 0.35127053E+03</rscale>
<asrwt>0</asrwt>
<pdfrwt beam="1">  1       21 0.14364461E-01 0.35127053E+03</pdfrwt>
<pdfrwt beam="2">  1        2 0.20088165E+00 0.35127053E+03</pdfrwt>
<totfact> 0.90683324E+03</totfact>
</mgrwt>
</event>
<event>
 5    0  0.1141006E+000  0.3245476E+03  0.7546771E-02  0.1073575E+00
          2   -1    0    0  503    0 -0.00000000000E+00  0.00000000000E+00  0.31334936339E+03  0.31334936339E+03  0.00000000000E+00 0.  1.
         21   -1    0    0  501  502  0.00000000000E+00 -0.00000000000E+00 -0.10993151551E+04  0.10993151551E+04  0.00000000000E+00 0. -1.
         25    1    1    2    0    0  0.13773023983E+03 -0.26960092087E+03 -0.80067937255E+03  0.86508192278E+03  0.12500000000E+03 0.  0.
         21    1    1    2  503  502  0.10635569951E+02  0.18270311147E+02  0.20049996555E+03  0.20161139800E+03  0.00000000000E+00 0.  1.
          2    1    1    2  501    0 -0.14836580978E+03  0.25133060972E+03 -0.18578638471E+03  0.34597119770E+03  0.00000000000E+00 0.  1.
<mgrwt>
<rscale>  4 0.32454763E+03</rscale>
<asrwt>0</asrwt>
<pdfrwt beam="1">  1       21 0.16912541E+00 0.32454763E+03</pdfrwt>
<pdfrwt beam="2">  1        2 0.48207595E-01 0.32454763E+03</pdfrwt>
<totfact> 0.25899172E+02</totfact>
</mgrwt>
</event>
<event>
 5    0  0.1141006E+000  0.6549408E+03  0.7546771E-02  0.9797552E-01
          4   -1    0    0  503    0 -0.00000000000E+00  0.00000000000E+00  0.40628868524E+03  0.40628868524E+03  0.00000000000E+00 0. -1.
         21   -1    0    0  501  502  0.00000000000E+00 -0.00000000000E+00 -0.19493672077E+04  0.19493672077E+04  0.00000000000E+00 0. -1.
         25    1    1    2    0    0 -0.46813879464E+03  0.42905992085E+03 -0.14795774878E+04  0.16149368066E+04  0.12500000000E+03 0.  0.
         21    1    1    2  503  502 -0.15029503663E+02  0.46110705191E+02  0.29393346674E+02  0.56710245479E+02  0.00000000000E+00 0. -1.
          4    1    1    2  501    0  0.48316829830E+03 -0.47517062604E+03 -0.92894381294E+02  0.68400884088E+03  0.00000000000E+00 0. -1.
<mgrwt>
<rscale>  4 0.65494081E+03</rscale>
<asrwt>0</asrwt>
<pdfrwt beam="1">  1       21 0.29990265E+00 0.65494081E+03</pdfrwt>
<pdfrwt beam="2">  1        4 0.62505951E-01 0.65494081E+03</pdfrwt>
<totfact> 0.27335638E+00</totfact>
</mgrwt>
</event>
<event>
 5    0  0.1141006E+000  0.2715446E+03  0.7546771E-02  0.1100399E+00
          2   -1    0    0  503    0 -0.00000000000E+00  0.00000000000E+00  0.10682100188E+04  0.10682100188E+04  0.00000000000E+00 0.  1.
         21   -1    0    0  501  502  0.00000000000E+00 -0.00000000000E+00 -0.10169600100E+03  0.10169600100E+03  0.00000000000E+00 0. -1.
         25    1    1    2    0    0  0.22581134133E+03  0.49979133813E+02  0.16917396690E+03  0.31262358639E+03  0.12500000000E+03 0.  0.
         21    1    1    2  503  502  0.37735717500E+02  0.15626149820E+02  0.72212385705E+02  0.82962579412E+02  0.00000000000E+00 0. -1.
          2    1    1    2  501    0 -0.26354705883E+03 -0.65605283633E+02  0.72512766515E+03  0.77431985395E+03  0.00000000000E+00 0.  1.
<mgrwt>
<rscale>  4 0.27154465E+03</rscale>
<asrwt>0</asrwt>
<pdfrwt beam="1">  1       21 0.15645539E-01 0.27154465E+03</pdfrwt>
<pdfrwt beam="2">  1        2 0.16433999E+00 0.27154465E+03</pdfrwt>
<totfact> 0.10808734E+04</totfact>
</mgrwt>
</event>
<event>
 5    0  0.1141006E+000  0.4114684E+03  0.7546771E-02  0.1039879E+00
         21   -1    0    0  501  502  0.00000000000E+00  0.00000000000E+00  0.67643376666E+03  0.67643376666E+03  0.00000000000E+00 0.  1.
          2   -1    0    0  503    0 -0.00000000000E+00 -0.00000000000E+00 -0.81051796034E+03  0.81051796034E+03  0.00000000000E+00 0. -1.
         25    1    1    2    0    0  0.38895724413E+03  0.12060525869E+03  0.50491983074E+03  0.66060760037E+03  0.12500000000E+03 0.  0.
         21    1    1    2  503  502 -0.70410147448E+02 -0.25788229235E+02 -0.42382961509E+03  0.43041162189E+03  0.00000000000E+00 0. -1.
          2    1    1    2  501    0 -0.31854709668E+03 -0.94817029451E+02 -0.21517440934E+03  0.39593250475E+03  0.00000000000E+00 0. -1.
<mgrwt>
<rscale>  4 0.41146837E+03</rscale>
<asrwt>0</asrwt>
<pdfrwt beam="1">  1       21 0.10406673E+00 0.41146837E+03</pdfrwt>
<pdfrwt beam="2">  1        2 0.12469507E+00 0.41146837E+03</pdfrwt>
<totfact> 0.29552770E+02</totfact>
</mgrwt>
</event>
<event>
 5    0  0.1141006E+000  0.2903228E+03  0.7546771E-02  0.1090181E+00
          2   -1    0    0  503    0 -0.00000000000E+00  0.00000000000E+00  0.25705028870E+04  0.25705028870E+04  0.00000000000E+00 0. -1.
         21   -1    0    0  501  502  0.00000000000E+00 -0.00000000000E+00 -0.46162488750E+02  0.46162488750E+02  0.00000000000E+00 0. -1.
         25    1    1    2    0    0  0.24804917074E+03  0.76198876512E+02  0.64652787614E+03  0.70778383319E+03  0.12500000000E+03 0.  0.
         21    1    1    2  503  502  0.25451820921E+02 -0.64395288823E+02  0.37677595290E+03  0.38308571768E+03  0.00000000000E+00 0. -1.
          2    1    1    2  501    0 -0.27350099167E+03 -0.11803587690E+02  0.15010365692E+04  0.15257958249E+04  0.00000000000E+00 0. -1.
<mgrwt>
<rscale>  4 0.29032283E+03</rscale>
<asrwt>0</asrwt>
<pdfrwt beam="1">  1       21 0.71019234E-02 0.29032283E+03</pdfrwt>
<pdfrwt beam="2">  1        2 0.39546187E+00 0.29032283E+03</pdfrwt>
<totfact> 0.67860481E+03</totfact>
</mgrwt>
</event>
<event>
 5    0  0.1141006E+000  0.2590341E+03  0.7546771E-02  0.1107725E+00
          1   -1    0    0  503    0 -0.00000000000E+00  0.00000000000E+00  0.57537744655E+03  0.57537744655E+03  0.00000000000E+00 0. -1.
         21   -1    0    0  501  502  0.00000000000E+00 -0.00000000000E+00 -0.12293199928E+03  0.12293199928E+03  0.00000000000E+00 0. -1.
         25    1    1    2    0    0 -0.22480112217E+03 -0.33258681655E+02  0.19490643372E+03  0.32443058169E+03  0.12500000000E+03 0.  0.
         21    1    1    2  503  502  0.59309576221E+01 -0.28554940476E+02  0.80634012267E+02  0.85746165034E+02  0.00000000000E+00 0. -1.
          1    1    1    2  501    0  0.21887016454E+03  0.61813622131E+02  0.17690500128E+03  0.28813269909E+03  0.00000000000E+00 0. -1.
<mgrwt>
<rscale>  4 0.25903414E+03</rscale>
<asrwt>0</asrwt>
<pdfrwt beam="1">  1       21 0.18912616E-01 0.25903414E+03</pdfrwt>
<pdfrwt beam="2">  1        1 0.88519606E-01 0.25903414E+03</pdfrwt>
<totfact> 0.10438590E+04</totfact>
</mgrwt>
</event>
<event>
 5    0  0.1141006E+000  0.3645098E+03  0.7546771E-02  0.1056812E+00
          1   -1    0    0  503    0 -0.00000000000E+00  0.00000000000E+00  0.15408985705E+04  0.15408985705E+04  0.00000000000E+00 0.  1.
         21   -1    0    0  501  502  0.00000000000E+00 -0.00000000000E+00 -0.19744244885E+03  0.19744244885E+03  0.00000000000E+00 0.  1.
         25    1    1    2    0    0 -0.34520130998E+03 -0.27303239760E+02  0.66254757117E+02  0.37406430484E+03  0.12500000000E+03 0.  0.
         21    1    1    2  503  502  0.17976941025E+02 -0.30446016134E+02  0.67951948642E+03  0.68043872812E+03  0.00000000000E+00 0. -1.
          1    1    1    2  501    0  0.32722436895E+03  0.57749255893E+02  0.59768187808E+03  0.68383798635E+03  0.00000000000E+00 0.  1.
<mgrwt>
<rscale>  4 0.36450984E+03</rscale>
<asrwt>0</asrwt>
<pdfrwt beam="1">  1       21 0.30375762E-01 0.36450984E+03</pdfrwt>
<pdfrwt beam="2">  1        1 0.23706131E+00 0.36450984E+03</pdfrwt>
<totfact> 0.73229969E+02</totfact>
</mgrwt>
</event>
<event>
 5    0  0.1141006E+000  0.4399510E+03  0.7546771E-02  0.1030762E+00
         21   -1    0    0  501  502  0.00000000000E+00  0.00000000000E+00  0.88482395861E+02  0.88482395861E+02  0.00000000000E+00 0. -1.
          2   -1    0    0  503    0 -0.00000000000E+00 -0.00000000000E+00 -0.25012547611E+04  0.25012547611E+04  0.00000000000E+00 0. -1.
         25    1    1    2    0    0 -0.45200577203E+02 -0.42647018347E+03 -0.88974474063E+03  0.99558556289E+03  0.12500000000E+03 0.  0.
         21    1    1    2  503  502 -0.35174293634E+02  0.20896541408E+02 -0.30792746035E+03  0.31063357387E+03  0.00000000000E+00 0. -1.
          2    1    1    2  501    0  0.80374870837E+02  0.40557364206E+03 -0.12151001643E+04  0.12835180202E+04  0.00000000000E+00 0. -1.
<mgrwt>
<rscale>  4 0.43995104E+03</rscale>
<asrwt>0</asrwt>
<pdfrwt beam="1">  1       21 0.13612676E-01 0.43995104E+03</pdfrwt>
<pdfrwt beam="2">  1        2 0.38480845E+00 0.43995104E+03</pdfrwt>
<totfact> 0.22065921E+03</totfact>
</mgrwt>
</event>
<event>
 5    0  0.1141006E+000  0.3112742E+03  0.7546771E-02  0.1079737E+00
          2   -1    0    0  503    0 -0.00000000000E+00  0.00000000000E+00  0.18903500443E+04  0.18903500443E+04  0.00000000000E+00 0.  1.
         21   -1    0    0  501  502  0.00000000000E+00 -0.00000000000E+00 -0.11385704438E+03  0.11385704438E+03  0.00000000000E+00 0.  1.
         25    1    1    2    0    0  0.84132711231E+02  0.25085467694E+03  0.12321988748E+03  0.31751302762E+03  0.12500000000E+03 0.  0.
         21    1    1    2  503  502  0.58413010228E+01  0.22456556699E+02  0.29045539522E+02  0.37176082399E+02  0.00000000000E+00 0. -1.
          2    1    1    2  501    0 -0.89974012254E+02 -0.27331123363E+03  0.16242275729E+04  0.16495179787E+04  0.00000000000E+00 0.  1.
<mgrwt>
<rscale>  4 0.31127421E+03</rscale>
<asrwt>0</asrwt>
<pdfrwt beam="1">  1       21 0.17516470E-01 0.31127421E+03</pdfrwt>
<pdfrwt beam="2">  1        2 0.29082306E+00 0.31127421E+03</pdfrwt>
<totfact> 0.30773412E+03</totfact>
</mgrwt>
</event>
<event>
 5    0  0.1141006E+000  0.4104428E+03  0.7546771E-02  0.1040223E+00
          2   -1    0    0  503    0 -0.00000000000E+00  0.00000000000E+00  0.14697201518E+04  0.14697201518E+04  0.00000000000E+00 0. -1.
         21   -1    0    0  501  502  0.00000000000E+00 -0.00000000000E+00 -0.48399606897E+03  0.48399606897E+03  0.00000000000E+00 0. -1.
         25    1    1    2    0    0 -0.28993929537E+03  0.25654576312E+03 -0.33996567399E+03  0.53017184296E+03  0.12500000000E+03 0.  0.
         21    1    1    2  503  502 -0.33246186080E+01  0.63238173946E+02  0.35061717631E+03  0.35628994380E+03  0.00000000000E+00 0. -1.
          2    1    1    2  501    0  0.29326391398E+03 -0.31978393707E+03  0.97507258056E+03  0.10672544341E+04  0.00000000000E+00 0. -1.
<mgrwt>
<rscale>  4 0.41044279E+03</rscale>
<asrwt>0</asrwt>
<pdfrwt beam="1">  1       21 0.74460935E-01 0.41044279E+03</pdfrwt>
<pdfrwt beam="2">  1        2 0.22611079E+00 0.41044279E+03</pdfrwt>
<totfact> 0.26119308E+02</totfact>
</mgrwt>
</event>
<event>
 5    0  0.1141006E+000  0.2797081E+03  0.7546771E-02  0.1095848E+00
         21   -1    0    0  503  502  0.00000000000E+00  0.00000000000E+00  0.36224536421E+03  0.36224536421E+03  0.00000000000E+00 0.  1.
         -4   -1    0    0    0  501 -0.00000000000E+00 -0.00000000000E+00 -0.54331856794E+03  0.54331856794E+03  0.00000000000E+00 0. -1.
         25    1    1    2    0    0 -0.61623054373E+02 -0.24505912623E+03  0.25808906493E+03  0.38221242996E+03  0.12500000000E+03 0.  0.
         21    1    1    2  503  501 -0.28441465807E+02  0.24855066252E+02 -0.11644426996E+03  0.12241715281E+03  0.00000000000E+00 0. -1.
         -4    1    1    2    0  502  0.90064520180E+02  0.22020405998E+03 -0.32271799871E+03  0.40093434939E+03  0.00000000000E+00 0. -1.
<mgrwt>
<rscale>  4 0.27970808E+03</rscale>
<asrwt>0</asrwt>
<pdfrwt beam="1">  1       21 0.55730056E-01 0.27970808E+03</pdfrwt>
<pdfrwt beam="2">  1       -4 0.83587472E-01 0.27970808E+03</pdfrwt>
<totfact> 0.16180354E+02</totfact>
</mgrwt>
</event>
<event>
 5    0  0.1141006E+000  0.4005151E+03  0.7546771E-02  0.1043601E+00
          2   -1    0    0  503    0 -0.00000000000E+00  0.00000000000E+00  0.19395842782E+04  0.19395842782E+04  0.00000000000E+00 0.  1.
         21   -1    0    0  501  502  0.00000000000E+00 -0.00000000000E+00 -0.19076617422E+03  0.19076617422E+03  0.00000000000E+00 0.  1.
         25    1    1    2    0    0 -0.34481657625E+03 -0.15511008456E+03  0.88597310975E+02  0.40796089653E+03  0.12500000000E+03 0.  0.
         21    1    1    2  503  502 -0.19719785769E+01 -0.31170058701E+02  0.42077502290E+03  0.42193255522E+03  0.00000000000E+00 0.  1.
          2    1    1    2  501    0  0.34678855483E+03  0.18628014326E+03  0.12394457701E+04  0.13004570006E+04  0.00000000000E+00 0.  1.
<mgrwt>
<rscale>  4 0.40051514E+03</rscale>
<asrwt>0</asrwt>
<pdfrwt beam="1">  1       21 0.29348644E-01 0.40051514E+03</pdfrwt>
<pdfrwt beam="2">  1        2 0.29839757E+00 0.40051514E+03</pdfrwt>
<totfact> 0.10445491E+03</totfact>
</mgrwt>
</event>
<event>
 5    0  0.1141006E+000  0.3251760E+03  0.7546771E-02  0.1073291E+00
         21   -1    0    0  501  502  0.00000000000E+00  0.00000000000E+00  0.33728055237E+03  0.33728055237E+03  0.00000000000E+00 0. -1.
          2   -1    0    0  503    0 -0.00000000000E+00 -0.00000000000E+00 -0.12733651141E+04  0.12733651141E+04  0.00000000000E+00 0. -1.
         25    1    1    2    0    0  0.11784942552E+03  0.27608369395E+03  0.23149469568E+03  0.39915596863E+03  0.12500000000E+03 0.  0.
         21    1    1    2  503  502  0.18686546596E+02 -0.79284011731E+01 -0.46697115861E+02  0.50918240332E+02  0.00000000000E+00 0. -1.
          2    1    1    2  501    0 -0.13653597212E+03 -0.26815529278E+03 -0.11208821416E+04  0.11605714575E+04  0.00000000000E+00 0. -1.
<mgrwt>
<rscale>  4 0.32517602E+03</rscale>
<asrwt>0</asrwt>
<pdfrwt beam="1">  1       21 0.51889315E-01 0.32517602E+03</pdfrwt>
<pdfrwt beam="2">  1        2 0.19590233E+00 0.32517602E+03</pdfrwt>
<totfact> 0.76622276E+02</totfact>
</mgrwt>
</event>
<event>
 5    0  0.1141006E+000  0.3482351E+03  0.7546771E-02  0.1063342E+00
         -2   -1    0    0    0  501 -0.00000000000E+00  0.00000000000E+00  0.59582923876E+03  0.59582923876E+03  0.00000000000E+00 0. -1.
         21   -1    0    0  503  502  0.00000000000E+00 -0.00000000000E+00 -0.14765678575E+04  0.14765678575E+04  0.00000000000E+00 0.  1.
         25    1    1    2    0    0  0.26443900389E+03  0.19122722697E+03 -0.14029462998E+04  0.14458143585E+04  0.12500000000E+03 0.  0.
         21    1    1    2  503  501 -0.52912213459E+01 -0.43604659896E+02  0.10424549358E+03  0.11312155551E+03  0.00000000000E+00 0.  1.
         -2    1    1    2    0  502 -0.25914778254E+03 -0.14762256707E+03  0.41796218748E+03  0.51346118224E+03  0.00000000000E+00 0. -1.
<mgrwt>
<rscale>  4 0.34823509E+03</rscale>
<asrwt>0</asrwt>
<pdfrwt beam="1">  1       21 0.22716428E+00 0.34823509E+03</pdfrwt>
<pdfrwt beam="2">  1       -2 0.91666037E-01 0.34823509E+03</pdfrwt>
<totfact> 0.68753223E+00</totfact>
</mgrwt>
</event>
<event>
 5    0  0.1141006E+000  0.3175447E+03  0.7546771E-02  0.1076785E+00
          2   -1    0    0  503    0 -0.00000000000E+00  0.00000000000E+00  0.97664290788E+03  0.97664290788E+03  0.00000000000E+00 0.  1.
         21   -1    0    0  501  502  0.00000000000E+00 -0.00000000000E+00 -0.25500529011E+03  0.25500529011E+03  0.00000000000E+00 0.  1.
         25    1    1    2    0    0 -0.60611549272E+02  0.28273440981E+03 -0.10508944466E+03  0.33208628062E+03  0.12500000000E+03 0.  0.
         21    1    1    2  503  502  0.24116598461E+02  0.27813810766E+02  0.48669263697E+02  0.61023893840E+02  0.00000000000E+00 0.  1.
          2    1    1    2  501    0  0.36494950811E+02 -0.31054822058E+03  0.77805779873E+03  0.83853802353E+03  0.00000000000E+00 0.  1.
<mgrwt>
<rscale>  4 0.31754467E+03</rscale>
<asrwt>0</asrwt>
<pdfrwt beam="1">  1       21 0.39231584E-01 0.31754467E+03</pdfrwt>
<pdfrwt beam="2">  1        2 0.15025275E+00 0.31754467E+03</pdfrwt>
<totfact> 0.20571229E+03</totfact>
</mgrwt>
</event>
<event>
 5    0  0.1141006E+000  0.3004682E+03  0.7546771E-02  0.1085007E+00
         21   -1    0    0  501  502  0.00000000000E+00  0.00000000000E+00  0.60557029795E+03  0.60557029795E+03  0.00000000000E+00 0. -1.
          1   -1    0    0  503    0 -0.00000000000E+00 -0.00000000000E+00 -0.37835052086E+04  0.37835052086E+04  0.00000000000E+00 0. -1.
         25    1    1    2    0    0 -0.11160492118E+03 -0.25076666825E+03  0.56088629101E+03  0.63683436762E+03  0.12500000000E+03 0.  0.
         21    1    1    2  503  502  0.90151939910E+02  0.66013369832E+02 -0.83113062854E+03  0.83860792922E+03  0.00000000000E+00 0. -1.
          1    1    1    2  501    0  0.21452981267E+02  0.18475329842E+03 -0.29076905731E+04  0.29136332097E+04  0.00000000000E+00 0. -1.
<mgrwt>
<rscale>  4 0.30046817E+03</rscale>
<asrwt>0</asrwt>
<pdfrwt beam="1">  1       21 0.93164659E-01 0.30046817E+03</pdfrwt>
<pdfrwt beam="2">  1        1 0.58207774E+00 0.30046817E+03</pdfrwt>
<totfact> 0.18943952E+00</totfact>
</mgrwt>
</event>
<event>
 5    0  0.1141006E+000  0.2720444E+03  0.7546771E-02  0.1100115E+00
          1   -1    0    0  503    0 -0.00000000000E+00  0.00000000000E+00  0.51869595390E+03  0.51869595390E+03  0.00000000000E+00 0.  1.
         21   -1    0    0  501  502  0.00000000000E+00 -0.00000000000E+00 -0.25672073709E+03  0.25672073709E+03  0.00000000000E+00 0.  1.
         25    1    1    2    0    0  0.33607173063E+02 -0.23872497234E+03 -0.83808323736E+02  0.28419692051E+03  0.12500000000E+03 0.  0.
         21    1    1    2  503  502 -0.35914977080E+02 -0.58751264423E+01  0.20660482110E+03  0.20978549709E+03  0.00000000000E+00 0. -1.
          1    1    1    2  501    0  0.23078040175E+01  0.24460009879E+03  0.13917871945E+03  0.28143427338E+03  0.00000000000E+00 0.  1.
<mgrwt>
<rscale>  4 0.27204440E+03</rscale>
<asrwt>0</asrwt>
<pdfrwt beam="1">  1       21 0.39495498E-01 0.27204440E+03</pdfrwt>
<pdfrwt beam="2">  1        1 0.79799378E-01 0.27204440E+03</pdfrwt>
<totfact> 0.28595590E+03</totfact>
</mgrwt>
</event>
<event>
 5    0  0.1141006E+000  0.3030042E+03  0.7546771E-02  0.1083748E+00
         21   -1    0    0  501  502  0.00000000000E+00  0.00000000000E+00  0.61965458382E+02  0.61965458382E+02  0.00000000000E+00 0. -1.
          1   -1    0    0  503    0 -0.00000000000E+00 -0.00000000000E+00 -0.25809010471E+04  0.25809010471E+04  0.00000000000E+00 0. -1.
         25    1    1    2    0    0  0.28466812762E+03  0.27457346691E+02 -0.10840470470E+04  0.11280837065E+04  0.12500000000E+03 0.  0.
         21    1    1    2  503  502 -0.12351577346E+02 -0.33235991762E+02 -0.10065675621E+04  0.10071918634E+04  0.00000000000E+00 0. -1.
          1    1    1    2  501    0 -0.27231655028E+03  0.57786450710E+01 -0.42832097954E+03  0.50759093550E+03  0.00000000000E+00 0. -1.
<mgrwt>
<rscale>  4 0.30300425E+03</rscale>
<asrwt>0</asrwt>
<pdfrwt beam="1">  1       21 0.95331465E-02 0.30300425E+03</pdfrwt>
<pdfrwt beam="2">  1        1 0.39706174E+00 0.30300425E+03</pdfrwt>
<totfact> 0.13477911E+03</totfact>
</mgrwt>
</event>
<event>
 5    0  0.1141006E+000  0.2634466E+03  0.7546771E-02  0.1105090E+00
         21   -1    0    0  501  502  0.00000000000E+00  0.00000000000E+00  0.71095444924E+03  0.71095444924E+03  0.00000000000E+00 0. -1.
          2   -1    0    0  503    0 -0.00000000000E+00 -0.00000000000E+00 -0.49883285810E+03  0.49883285810E+03  0.00000000000E+00 0.  1.
         25    1    1    2    0    0  0.23174295522E+03  0.26774722868E+02  0.63892025688E+03  0.69156762339E+03  0.12500000000E+03 0.  0.
         21    1    1    2  503  502 -0.17744398504E+02  0.18908830179E+02 -0.20505110922E+03  0.20668421548E+03  0.00000000000E+00 0. -1.
          2    1    1    2  501    0 -0.21399855672E+03 -0.45683553047E+02 -0.22174755651E+03  0.31153546847E+03  0.00000000000E+00 0.  1.
<mgrwt>
<rscale>  4 0.26344662E+03</rscale>
<asrwt>0</asrwt>
<pdfrwt beam="1">  1       21 0.10937761E+00 0.26344662E+03</pdfrwt>
<pdfrwt beam="2">  1        2 0.76743517E-01 0.26344662E+03</pdfrwt>
<totfact> 0.49728817E+02</totfact>
</mgrwt>
</event>
<event>
 5    0  0.1141006E+000  0.3257586E+03  0.7546771E-02  0.1073029E+00
          2   -1    0    0  503    0 -0.00000000000E+00  0.00000000000E+00  0.23617511228E+04  0.23617511228E+04  0.00000000000E+00 0.  1.
         21   -1    0    0  501  502  0.00000000000E+00 -0.00000000000E+00 -0.18384896842E+03  0.18384896842E+03  0.00000000000E+00 0.  1.
         25    1    1    2    0    0  0.10410838317E+03 -0.28387754841E+03  0.86720809069E-01  0.32718500189E+03  0.12500000000E+03 0.  0.
         21    1    1    2  503  502 -0.64417948680E+02 -0.96515522742E+01  0.10607018617E+04  0.10626999878E+04  0.00000000000E+00 0.  1.
          2    1    1    2  501    0 -0.39690434491E+02  0.29352910069E+03  0.11171135718E+04  0.11557151015E+04  0.00000000000E+00 0.  1.
<mgrwt>
<rscale>  4 0.32575865E+03</rscale>
<asrwt>0</asrwt>
<pdfrwt beam="1">  1       21 0.28284458E-01 0.32575865E+03</pdfrwt>
<pdfrwt beam="2">  1        2 0.36334630E+00 0.32575865E+03</pdfrwt>
<totfact> 0.68629531E+02</totfact>
</mgrwt>
</event>
<event>
 5    0  0.1141006E+000  0.2681627E+03  0.7546771E-02  0.1102336E+00
          1   -1    0    0  503    0 -0.00000000000E+00  0.00000000000E+00  0.73476264493E+03  0.73476264493E+03  0.00000000000E+00 0. -1.
         21   -1    0    0  501  502  0.00000000000E+00 -0.00000000000E+00 -0.13070897415E+04  0.13070897415E+04  0.00000000000E+00 0.  1.
         25    1    1    2    0    0  0.22559349435E+03  0.81141765725E+02 -0.11594838311E+04  0.11905898393E+04  0.12500000000E+03 0.  0.
         21    1    1    2  503  502 -0.65801581335E+02 -0.21978630299E+03  0.59691011781E+03  0.63948225607E+03  0.00000000000E+00 0. -1.
          1    1    1    2  501    0 -0.15979191301E+03  0.13864453726E+03 -0.97533832252E+01  0.21178029101E+03  0.00000000000E+00 0. -1.
<mgrwt>
<rscale>  4 0.26816266E+03</rscale>
<asrwt>0</asrwt>
<pdfrwt beam="1">  1       21 0.20109073E+00 0.26816266E+03</pdfrwt>
<pdfrwt beam="2">  1        1 0.11304041E+00 0.26816266E+03</pdfrwt>
<totfact> 0.35982334E+01</totfact>
</mgrwt>
</event>
<event>
 5    0  0.1141006E+000  0.2658900E+03  0.7546771E-02  0.1103655E+00
          2   -1    0    0  503    0 -0.00000000000E+00  0.00000000000E+00  0.10889145536E+04  0.10889145536E+04  0.00000000000E+00 0. -1.
         21   -1    0    0  501  502  0.00000000000E+00 -0.00000000000E+00 -0.13787477405E+03  0.13787477405E+03  0.00000000000E+00 0.  1.
         25    1    1    2    0    0  0.47941547661E+02 -0.22753309801E+03  0.27993586263E+02  0.26547757637E+03  0.12500000000E+03 0.  0.
         21    1    1    2  503  502 -0.11339346720E+02 -0.17396956375E+02  0.79074004874E+02  0.81755324732E+02  0.00000000000E+00 0. -1.
          2    1    1    2  501    0 -0.36602200941E+02  0.24493005439E+03  0.84397218838E+03  0.87955642651E+03  0.00000000000E+00 0. -1.
<mgrwt>
<rscale>  4 0.26589005E+03</rscale>
<asrwt>0</asrwt>
<pdfrwt beam="1">  1       21 0.21211504E-01 0.26589005E+03</pdfrwt>
<pdfrwt beam="2">  1        2 0.16752531E+00 0.26589005E+03</pdfrwt>
<totfact> 0.59627949E+03</totfact>
</mgrwt>
</event>
<event>
 5    0  0.1141006E+000  0.3834005E+03  0.7546771E-02  0.1049684E+00
          1   -1    0    0  503    0 -0.00000000000E+00  0.00000000000E+00  0.28743782091E+03  0.28743782091E+03  0.00000000000E+00 0.  1.
         21   -1    0    0  501  502  0.00000000000E+00 -0.00000000000E+00 -0.49798861050E+03  0.49798861050E+03  0.00000000000E+00 0.  1.
         25    1    1    2    0    0  0.28666380085E+03  0.22179902671E+03 -0.14204337447E+03  0.40886704832E+03  0.12500000000E+03 0.  0.
         21    1    1    2  503  502 -0.52514076971E+02 -0.78496606638E+01 -0.93944746061E+01  0.53922181018E+02  0.00000000000E+00 0. -1.
          1    1    1    2  501    0 -0.23414972388E+03 -0.21394936605E+03 -0.59112940512E+02  0.32263720207E+03  0.00000000000E+00 0.  1.
<mgrwt>
<rscale>  4 0.38340050E+03</rscale>
<asrwt>0</asrwt>
<pdfrwt beam="1">  1       21 0.76613633E-01 0.38340050E+03</pdfrwt>
<pdfrwt beam="2">  1        1 0.44221203E-01 0.38340050E+03</pdfrwt>
<totfact> 0.14399124E+03</totfact>
</mgrwt>
</event>
<event>
 5    0  0.1141006E+000  0.5414815E+03  0.7546771E-02  0.1003485E+00
         21   -1    0    0  501  502  0.00000000000E+00  0.00000000000E+00  0.54479377761E+03  0.54479377761E+03  0.00000000000E+00 0.  1.
          2   -1    0    0  503    0 -0.00000000000E+00 -0.00000000000E+00 -0.75617382378E+03  0.75617382378E+03  0.00000000000E+00 0.  1.
         25    1    1    2    0    0  0.15082365402E+03  0.49842991372E+03  0.17116795572E+03  0.56223093349E+03  0.12500000000E+03 0.  0.
         21    1    1    2  503  502  0.18173091272E+02  0.14237474120E+02 -0.14865913199E+03  0.15044103309E+03  0.00000000000E+00 0. -1.
          2    1    1    2  501    0 -0.16899674529E+03 -0.51266738784E+03 -0.23388886990E+03  0.58829563481E+03  0.00000000000E+00 0.  1.
<mgrwt>
<rscale>  4 0.54148149E+03</rscale>
<asrwt>0</asrwt>
<pdfrwt beam="1">  1       21 0.83814427E-01 0.54148149E+03</pdfrwt>
<pdfrwt beam="2">  1        2 0.11633443E+00 0.54148149E+03</pdfrwt>
<totfact> 0.52367848E+02</totfact>
</mgrwt>
</event>
<event>
 5    0  0.1141006E+000  0.3675936E+03  0.7546771E-02  0.1055617E+00
         21   -1    0    0  503  502  0.00000000000E+00  0.00000000000E+00  0.65084243399E+03  0.65084243399E+03  0.00000000000E+00 0.  1.
         -2   -1    0    0    0  501 -0.00000000000E+00 -0.00000000000E+00 -0.26993006358E+03  0.26993006358E+03  0.00000000000E+00 0.  1.
         25    1    1    2    0    0 -0.16760563599E+03  0.28495743185E+03  0.24279970947E+02  0.35426953605E+03  0.12500000000E+03 0.  0.
         21    1    1    2  503  501 -0.53559523783E+02 -0.95237436431E+01 -0.12254663856E+02  0.55762900454E+02  0.00000000000E+00 0.  1.
         -2    1    1    2    0  502  0.22116515978E+03 -0.27543368820E+03  0.36888706332E+03  0.51074006107E+03  0.00000000000E+00 0.  1.
<mgrwt>
<rscale>  4 0.36759363E+03</rscale>
<asrwt>0</asrwt>
<pdfrwt beam="1">  1       21 0.10012960E+00 0.36759363E+03</pdfrwt>
<pdfrwt beam="2">  1       -2 0.41527702E-01 0.36759363E+03</pdfrwt>
<totfact> 0.34281201E+02</totfact>
</mgrwt>
</event>
<event>
 5    0  0.1141006E+000  0.3642286E+03  0.7546771E-02  0.1056922E+00
         21   -1    0    0  501  502  0.00000000000E+00  0.00000000000E+00  0.35821850774E+03  0.35821850774E+03  0.00000000000E+00 0.  1.
          2   -1    0    0  503    0 -0.00000000000E+00 -0.00000000000E+00 -0.44777352300E+03  0.44777352300E+03  0.00000000000E+00 0.  1.
         25    1    1    2    0    0 -0.29380234490E+03  0.16079960126E+03  0.11146163706E+03  0.37446632181E+03  0.12500000000E+03 0.  0.
         21    1    1    2  503  502 -0.19835448570E+02  0.11951232122E+02 -0.18414001318E+02  0.29586355195E+02  0.00000000000E+00 0.  1.
          2    1    1    2  501    0  0.31363779347E+03 -0.17275083338E+03 -0.18260265100E+03  0.40193935373E+03  0.00000000000E+00 0.  1.
<mgrwt>
<rscale>  4 0.36422861E+03</rscale>
<asrwt>0</asrwt>
<pdfrwt beam="1">  1       21 0.55110540E-01 0.36422861E+03</pdfrwt>
<pdfrwt beam="2">  1        2 0.68888234E-01 0.36422861E+03</pdfrwt>
<totfact> 0.25970373E+03</totfact>
</mgrwt>
</event>
<event>
 5    0  0.1141006E+000  0.2803351E+03  0.7546771E-02  0.1095506E+00
         21   -1    0    0  501  502  0.00000000000E+00  0.00000000000E+00  0.20600181393E+03  0.20600181393E+03  0.00000000000E+00 0.  1.
          2   -1    0    0  503    0 -0.00000000000E+00 -0.00000000000E+00 -0.19775262582E+04  0.19775262582E+04  0.00000000000E+00 0. -1.
         25    1    1    2    0    0 -0.23005466482E+03  0.97148490732E+02  0.90907672217E+02  0.29368721955E+03  0.12500000000E+03 0.  0.
         21    1    1    2  503  502 -0.26799296682E+02 -0.50744269550E+01 -0.49740181116E+02  0.56727750960E+02  0.00000000000E+00 0.  1.
          2    1    1    2  501    0  0.25685396150E+03 -0.92074063777E+02 -0.18126919354E+04  0.18331131016E+04  0.00000000000E+00 0. -1.
<mgrwt>
<rscale>  4 0.28033513E+03</rscale>
<asrwt>0</asrwt>
<pdfrwt beam="1">  1       21 0.31692587E-01 0.28033513E+03</pdfrwt>
<pdfrwt beam="2">  1        2 0.30423481E+00 0.28033513E+03</pdfrwt>
<totfact> 0.89893010E+02</totfact>
</mgrwt>
</event>
<event>
 5    0  0.1141006E+000  0.2811861E+03  0.7546771E-02  0.1095043E+00
          2   -1    0    0  503    0 -0.00000000000E+00  0.00000000000E+00  0.34557501628E+03  0.34557501628E+03  0.00000000000E+00 0.  1.
         21   -1    0    0  501  502  0.00000000000E+00 -0.00000000000E+00 -0.26688333104E+03  0.26688333104E+03  0.00000000000E+00 0.  1.
         25    1    1    2    0    0 -0.20233060484E+03 -0.12180171495E+03  0.14411417598E+03  0.30359055838E+03  0.12500000000E+03 0.  0.
         21    1    1    2  503  502 -0.15784683911E+02 -0.16552863044E+02  0.26222806582E+02  0.34796395017E+02  0.00000000000E+00 0.  1.
          2    1    1    2  501    0  0.21811528875E+03  0.13835457800E+03 -0.91645297324E+02  0.27407139392E+03  0.00000000000E+00 0.  1.
<mgrwt>
<rscale>  4 0.28118610E+03</rscale>
<asrwt>0</asrwt>
<pdfrwt beam="1">  1       21 0.41058974E-01 0.28118610E+03</pdfrwt>
<pdfrwt beam="2">  1        2 0.53165387E-01 0.28118610E+03</pdfrwt>
<totfact> 0.65156718E+03</totfact>
</mgrwt>
</event>
<event>
 5    0  0.1141006E+000  0.2592582E+03  0.7546771E-02  0.1107590E+00
          1   -1    0    0  503    0 -0.00000000000E+00  0.00000000000E+00  0.39398052591E+03  0.39398052591E+03  0.00000000000E+00 0. -1.
         21   -1    0    0  501  502  0.00000000000E+00 -0.00000000000E+00 -0.53027737478E+03  0.53027737478E+03  0.00000000000E+00 0. -1.
         25    1    1    2    0    0 -0.20292274591E+03  0.98068338712E+02 -0.44187918194E+03  0.51154398765E+03  0.12500000000E+03 0.  0.
         21    1    1    2  503  502 -0.27769163167E+02 -0.17662484078E+02  0.41375414171E+02  0.52867898243E+02  0.00000000000E+00 0.  1.
          1    1    1    2  501    0  0.23069190908E+03 -0.80405854634E+02  0.26420691889E+03  0.35984601480E+03  0.00000000000E+00 0. -1.
<mgrwt>
<rscale>  4 0.25925824E+03</rscale>
<asrwt>0</asrwt>
<pdfrwt beam="1">  1       21 0.81581134E-01 0.25925824E+03</pdfrwt>
<pdfrwt beam="2">  1        1 0.60612389E-01 0.25925824E+03</pdfrwt>
<totfact> 0.86618618E+02</totfact>
</mgrwt>
</event>
<event>
 5    0  0.1141006E+000  0.3043674E+03  0.7546771E-02  0.1083078E+00
         21   -1    0    0  501  502  0.00000000000E+00  0.00000000000E+00  0.25369257364E+03  0.25369257364E+03  0.00000000000E+00 0. -1.
          1   -1    0    0  503    0 -0.00000000000E+00 -0.00000000000E+00 -0.95329943470E+03  0.95329943470E+03  0.00000000000E+00 0.  1.
         25    1    1    2    0    0  0.19404171884E+03 -0.19849811245E+03  0.11738752802E+03  0.32627982014E+03  0.12500000000E+03 0.  0.
         21    1    1    2  503  502  0.23485750642E+02  0.24151291948E+02 -0.27635622500E+02  0.43572847244E+02  0.00000000000E+00 0.  1.
          1    1    1    2  501    0 -0.21752746949E+03  0.17434682050E+03 -0.78935876658E+03  0.83713934096E+03  0.00000000000E+00 0.  1.
<mgrwt>
<rscale>  4 0.30436737E+03</rscale>
<asrwt>0</asrwt>
<pdfrwt beam="1">  1       21 0.39029627E-01 0.30436737E+03</pdfrwt>
<pdfrwt beam="2">  1        1 0.14666145E+00 0.30436737E+03</pdfrwt>
<totfact> 0.11734454E+03</totfact>
</mgrwt>
</event>
<event>
 5    0  0.1141006E+000  0.4071769E+03  0.7546771E-02  0.1041323E+00
          2   -1    0    0  503    0 -0.00000000000E+00  0.00000000000E+00  0.11640186847E+04  0.11640186847E+04  0.00000000000E+00 0.  1.
         21   -1    0    0  501  502  0.00000000000E+00 -0.00000000000E+00 -0.29275104041E+03  0.29275104041E+03  0.00000000000E+00 0.  1.
         25    1    1    2    0    0  0.35484151316E+03  0.17074828205E+03 -0.60069039038E+02  0.41749343077E+03  0.12500000000E+03 0.  0.
         21    1    1    2  503  502 -0.28420403678E+01 -0.64542954199E+02  0.31538580102E+03  0.32193489033E+03  0.00000000000E+00 0.  1.
          2    1    1    2  501    0 -0.35199947279E+03 -0.10620532785E+03  0.61595088233E+03  0.71734140404E+03  0.00000000000E+00 0.  1.
<mgrwt>
<rscale>  4 0.40717689E+03</rscale>
<asrwt>0</asrwt>
<pdfrwt beam="1">  1       21 0.45038622E-01 0.40717689E+03</pdfrwt>
<pdfrwt beam="2">  1        2 0.17907980E+00 0.40717689E+03</pdfrwt>
<totfact> 0.11610979E+03</totfact>
</mgrwt>
</event>
<event>
 5    0  0.1141006E+000  0.2693567E+03  0.7546771E-02  0.1101648E+00
          2   -1    0    0  503    0 -0.00000000000E+00  0.00000000000E+00  0.37001358862E+04  0.37001358862E+04  0.00000000000E+00 0.  1.
         21   -1    0    0  501  502  0.00000000000E+00 -0.00000000000E+00 -0.99603140589E+02  0.99603140589E+02  0.00000000000E+00 0. -1.
         25    1    1    2    0    0  0.22399361439E+03 -0.73961281394E+02  0.10171238068E+03  0.28568132388E+03  0.12500000000E+03 0.  0.
         21    1    1    2  503  502  0.46301945418E+02 -0.71175021196E+00  0.53582381489E+03  0.53782110161E+03  0.00000000000E+00 0.  1.
          2    1    1    2  501    0 -0.27029555981E+03  0.74673031606E+02  0.29629965501E+04  0.29762366013E+04  0.00000000000E+00 0.  1.
<mgrwt>
<rscale>  4 0.26935668E+03</rscale>
<asrwt>0</asrwt>
<pdfrwt beam="1">  1       21 0.15323563E-01 0.26935668E+03</pdfrwt>
<pdfrwt beam="2">  1        2 0.56925157E+00 0.26935668E+03</pdfrwt>
<totfact> 0.35018128E+02</totfact>
</mgrwt>
</event>
<event>
 5    0  0.1141006E+000  0.2915604E+03  0.7546771E-02  0.1089537E+00
          2   -1    0    0  503    0 -0.00000000000E+00  0.00000000000E+00  0.69907179282E+03  0.69907179282E+03  0.00000000000E+00 0. -1.
         21   -1    0    0  501  502  0.00000000000E+00 -0.00000000000E+00 -0.32163456349E+03  0.32163456349E+03  0.00000000000E+00 0.  1.
         25    1    1    2    0    0  0.25608844841E+03  0.61653584288E+02 -0.21906990111E+03  0.36469038846E+03  0.12500000000E+03 0.  0.
         21    1    1    2  503  502 -0.19220905052E+03 -0.26165375531E+02  0.48855097951E+03  0.52565293260E+03  0.00000000000E+00 0. -1.
          2    1    1    2  501    0 -0.63879397884E+02 -0.35488208757E+02  0.10795615094E+03  0.13036303525E+03  0.00000000000E+00 0. -1.
<mgrwt>
<rscale>  4 0.29156038E+03</rscale>
<asrwt>0</asrwt>
<pdfrwt beam="1">  1       21 0.49482241E-01 0.29156038E+03</pdfrwt>
<pdfrwt beam="2">  1        2 0.10754951E+00 0.29156038E+03</pdfrwt>
<totfact> 0.19845595E+03</totfact>
</mgrwt>
</event>
<event>
 5    0  0.1141006E+000  0.2976028E+03  0.7546771E-02  0.1086445E+00
          1   -1    0    0  503    0 -0.00000000000E+00  0.00000000000E+00  0.10552866998E+04  0.10552866998E+04  0.00000000000E+00 0. -1.
         21   -1    0    0  501  502  0.00000000000E+00 -0.00000000000E+00 -0.17203523343E+03  0.17203523343E+03  0.00000000000E+00 0.  1.
         25    1    1    2    0    0  0.12449244404E+03  0.24635121504E+03  0.89088758660E+01  0.30313636839E+03  0.12500000000E+03 0.  0.
         21    1    1    2  503  502  0.18403360490E+02 -0.49888273503E+02  0.11024646902E+03  0.12240019380E+03  0.00000000000E+00 0. -1.
          1    1    1    2  501    0 -0.14289580453E+03 -0.19646294153E+03  0.76409612145E+03  0.80178537101E+03  0.00000000000E+00 0. -1.
<mgrwt>
<rscale>  4 0.29760277E+03</rscale>
<asrwt>0</asrwt>
<pdfrwt beam="1">  1       21 0.26466960E-01 0.29760277E+03</pdfrwt>
<pdfrwt beam="2">  1        1 0.16235180E+00 0.29760277E+03</pdfrwt>
<totfact> 0.21319432E+03</totfact>
</mgrwt>
</event>
<event>
 5    0  0.1141006E+000  0.5797803E+03  0.7546771E-02  0.9948267E-01
          1   -1    0    0  503    0 -0.00000000000E+00  0.00000000000E+00  0.15864478524E+04  0.15864478524E+04  0.00000000000E+00 0.  1.
         21   -1    0    0  501  502  0.00000000000E+00 -0.00000000000E+00 -0.94086379320E+03  0.94086379320E+03  0.00000000000E+00 0.  1.
         25    1    1    2    0    0  0.51263649496E+03 -0.43124512659E+03 -0.13421180338E+03  0.69455478066E+03  0.12500000000E+03 0.  0.
         21    1    1    2  503  502  0.13258628071E+02  0.31843200930E+03  0.11411261992E+04  0.11847969186E+04  0.00000000000E+00 0.  1.
          1    1    1    2  501    0 -0.52589512303E+03  0.11281311729E+03 -0.36133033666E+03  0.64795994633E+03  0.00000000000E+00 0.  1.
<mgrwt>
<rscale>  4 0.57978029E+03</rscale>
<asrwt>0</asrwt>
<pdfrwt beam="1">  1       21 0.14474828E+00 0.57978029E+03</pdfrwt>
<pdfrwt beam="2">  1        1 0.24406890E+00 0.57978029E+03</pdfrwt>
<totfact> 0.18379820E+01</totfact>
</mgrwt>
</event>
<event>
 5    0  0.1141006E+000  0.2788794E+03  0.7546771E-02  0.1096303E+00
          1   -1    0    0  503    0 -0.00000000000E+00  0.00000000000E+00  0.11197553345E+04  0.11197553345E+04  0.00000000000E+00 0.  1.
         21   -1    0    0  501  502  0.00000000000E+00 -0.00000000000E+00 -0.26516380240E+03  0.26516380240E+03  0.00000000000E+00 0. -1.
         25    1    1    2    0    0  0.19975594407E+03 -0.15008451158E+03 -0.16162303282E+03  0.32276121598E+03  0.12500000000E+03 0.  0.
         21    1    1    2  503  502  0.18155789241E+02  0.36874549042E+02  0.47551490384E+02  0.62853076995E+02  0.00000000000E+00 0.  1.
          1    1    1    2  501    0 -0.21791173331E+03  0.11320996253E+03  0.96866307456E+03  0.99930484396E+03  0.00000000000E+00 0.  1.
<mgrwt>
<rscale>  4 0.27887942E+03</rscale>
<asrwt>0</asrwt>
<pdfrwt beam="1">  1       21 0.40794432E-01 0.27887942E+03</pdfrwt>
<pdfrwt beam="2">  1        1 0.17227005E+00 0.27887942E+03</pdfrwt>
<totfact> 0.81476589E+02</totfact>
</mgrwt>
</event>
<event>
 5    0  0.1141006E+000  0.2915535E+03  0.7546771E-02  0.1089541E+00
         -1   -1    0    0    0  501 -0.00000000000E+00  0.00000000000E+00  0.10347753547E+03  0.10347753547E+03  0.00000000000E+00 0. -1.
         21   -1    0    0  503  502  0.00000000000E+00 -0.00000000000E+00 -0.15242678353E+04  0.15242678353E+04  0.00000000000E+00 0. -1.
         25    1    1    2    0    0  0.21570740843E+03 -0.20172423763E+03 -0.74637580099E+03  0.81235718154E+03  0.12500000000E+03 0.  0.
         21    1    1    2  503  501 -0.14818588501E+03 -0.45291351333E+02 -0.94613605972E+02  0.18155466796E+03  0.00000000000E+00 0. -1.
         -1    1    1    2    0  502 -0.67521523418E+02  0.24701558896E+03 -0.57980089283E+03  0.63383352124E+03  0.00000000000E+00 0. -1.
<mgrwt>
<rscale>  4 0.29155349E+03</rscale>
<asrwt>0</asrwt>
<pdfrwt beam="1">  1       21 0.23450271E+00 0.29155349E+03</pdfrwt>
<pdfrwt beam="2">  1       -1 0.15919623E-01 0.29155349E+03</pdfrwt>
<totfact> 0.20227035E+02</totfact>
</mgrwt>
</event>
<event>
 5    0  0.1141006E+000  0.3371058E+03  0.7546771E-02  0.1068035E+00
          2   -1    0    0  503    0 -0.00000000000E+00  0.00000000000E+00  0.46100794143E+04  0.46100794143E+04  0.00000000000E+00 0.  1.
         21   -1    0    0  501  502  0.00000000000E+00 -0.00000000000E+00 -0.88114484035E+02  0.88114484035E+02  0.00000000000E+00 0.  1.
         25    1    1    2    0    0  0.30641552889E+03 -0.76855149621E+02  0.27890201202E+03  0.43955491429E+03  0.12500000000E+03 0.  0.
         21    1    1    2  503  502 -0.19400896539E+02  0.25094242271E+02  0.14584939404E+04  0.14588388156E+04  0.00000000000E+00 0.  1.
          2    1    1    2  501    0 -0.28701463235E+03  0.51760907350E+02  0.27845689778E+04  0.27998001684E+04  0.00000000000E+00 0.  1.
<mgrwt>
<rscale>  4 0.33710577E+03</rscale>
<asrwt>0</asrwt>
<pdfrwt beam="1">  1       21 0.13556078E-01 0.33710577E+03</pdfrwt>
<pdfrwt beam="2">  1        2 0.70924279E+00 0.33710577E+03</pdfrwt>
<totfact> 0.74956121E+01</totfact>
</mgrwt>
</event>
<event>
 5    0  0.1141006E+000  0.3860154E+03  0.7546771E-02  0.1048733E+00
          1   -1    0    0  503    0 -0.00000000000E+00  0.00000000000E+00  0.96425618615E+03  0.96425618615E+03  0.00000000000E+00 0.  1.
         21   -1    0    0  501  502  0.00000000000E+00 -0.00000000000E+00 -0.97186524354E+03  0.97186524354E+03  0.00000000000E+00 0. -1.
         25    1    1    2    0    0 -0.57905096402E+02  0.36185797717E+03 -0.88963851005E+03  0.97024526507E+03  0.12500000000E+03 0.  0.
         21    1    1    2  503  502 -0.63526671837E+01 -0.30464949535E+02  0.13256002934E+02  0.33825894583E+02  0.00000000000E+00 0.  1.
          1    1    1    2  501    0  0.64257763586E+02 -0.33139302764E+03  0.86877344972E+03  0.93205027004E+03  0.00000000000E+00 0.  1.
<mgrwt>
<rscale>  4 0.38601539E+03</rscale>
<asrwt>0</asrwt>
<pdfrwt beam="1">  1       21 0.14951773E+00 0.38601539E+03</pdfrwt>
<pdfrwt beam="2">  1        1 0.14834711E+00 0.38601539E+03</pdfrwt>
<totfact> 0.50374301E+01</totfact>
</mgrwt>
</event>
<event>
 5    0  0.1141006E+000  0.2306312E+03  0.7546771E-02  0.1126196E+00
         21   -1    0    0  501  502  0.00000000000E+00  0.00000000000E+00  0.71392315218E+02  0.71392315218E+02  0.00000000000E+00 0. -1.
          1   -1    0    0  503    0 -0.00000000000E+00 -0.00000000000E+00 -0.11552273638E+04  0.11552273638E+04  0.00000000000E+00 0. -1.
         25    1    1    2    0    0 -0.23354439641E+03  0.41258033295E+02 -0.68257804083E+03  0.73333688863E+03  0.12500000000E+03 0.  0.
         21    1    1    2  503  502  0.51185775865E+02 -0.41916902588E+02 -0.24294460014E+03  0.25179175743E+03  0.00000000000E+00 0. -1.
          1    1    1    2  501    0  0.18235862055E+03  0.65886929378E+00 -0.15831240764E+03  0.24149103298E+03  0.00000000000E+00 0. -1.
<mgrwt>
<rscale>  4 0.23063117E+03</rscale>
<asrwt>0</asrwt>
<pdfrwt beam="1">  1       21 0.10983434E-01 0.23063117E+03</pdfrwt>
<pdfrwt beam="2">  1        1 0.17772727E+00 0.23063117E+03</pdfrwt>
<totfact> 0.94381921E+03</totfact>
</mgrwt>
</event>
<event>
 5    0  0.1141006E+000  0.2599957E+03  0.7546771E-02  0.1107146E+00
          1   -1    0    0  503    0 -0.00000000000E+00  0.00000000000E+00  0.14035354845E+04  0.14035354845E+04  0.00000000000E+00 0. -1.
         21   -1    0    0  501  502  0.00000000000E+00 -0.00000000000E+00 -0.63684284090E+02  0.63684284090E+02  0.00000000000E+00 0. -1.
         25    1    1    2    0    0 -0.16719209603E+03 -0.14554168193E+03  0.31514984822E+03  0.40506790170E+03  0.12500000000E+03 0.  0.
         21    1    1    2  503  502 -0.12023399793E+02 -0.17167056710E+02  0.24125682512E+03  0.24216549227E+03  0.00000000000E+00 0. -1.
          1    1    1    2  501    0  0.17921549582E+03  0.16270873864E+03  0.78344452710E+03  0.81998637465E+03  0.00000000000E+00 0. -1.
<mgrwt>
<rscale>  4 0.25999569E+03</rscale>
<asrwt>0</asrwt>
<pdfrwt beam="1">  1       21 0.97975832E-02 0.25999569E+03</pdfrwt>
<pdfrwt beam="2">  1        1 0.21592851E+00 0.25999569E+03</pdfrwt>
<totfact> 0.77461571E+03</totfact>
</mgrwt>
</event>
<event>
 5    0  0.1141006E+000  0.3034293E+03  0.7546771E-02  0.1083539E+00
          2   -1    0    0  503    0 -0.00000000000E+00  0.00000000000E+00  0.11825797608E+04  0.11825797608E+04  0.00000000000E+00 0.  1.
         21   -1    0    0  501  502  0.00000000000E+00 -0.00000000000E+00 -0.10713639016E+03  0.10713639016E+03  0.00000000000E+00 0.  1.
         25    1    1    2    0    0 -0.95968429691E+02 -0.22700679249E+03  0.42928379518E+03  0.51054049804E+03  0.12500000000E+03 0.  0.
         21    1    1    2  503  502  0.97836195698E+01 -0.59891233457E+02  0.35938781499E+03  0.36447534981E+03  0.00000000000E+00 0.  1.
          2    1    1    2  501    0  0.86184810121E+02  0.28689802595E+03  0.28677176047E+03  0.41470030310E+03  0.00000000000E+00 0.  1.
<mgrwt>
<rscale>  4 0.30342932E+03</rscale>
<asrwt>0</asrwt>
<pdfrwt beam="1">  1       21 0.16482522E-01 0.30342932E+03</pdfrwt>
<pdfrwt beam="2">  1        2 0.18193534E+00 0.30342932E+03</pdfrwt>
<totfact> 0.83505395E+03</totfact>
</mgrwt>
</event>
<event>
 5    0  0.1141006E+000  0.2551032E+03  0.7546771E-02  0.1110122E+00
         21   -1    0    0  501  502  0.00000000000E+00  0.00000000000E+00  0.20147332977E+03  0.20147332977E+03  0.00000000000E+00 0.  1.
          2   -1    0    0  503    0 -0.00000000000E+00 -0.00000000000E+00 -0.51824513312E+03  0.51824513312E+03  0.00000000000E+00 0. -1.
         25    1    1    2    0    0  0.22059481639E+03 -0.28117269412E+02  0.75801167142E+02  0.26612679459E+03  0.12500000000E+03 0.  0.
         21    1    1    2  503  502 -0.39147283863E+02 -0.80783519115E+01 -0.96625233633E+02  0.10456675083E+03  0.00000000000E+00 0.  1.
          2    1    1    2  501    0 -0.18144753253E+03  0.36195621324E+02 -0.29594773686E+03  0.34902491747E+03  0.00000000000E+00 0. -1.
<mgrwt>
<rscale>  4 0.25510322E+03</rscale>
<asrwt>0</asrwt>
<pdfrwt beam="1">  1       21 0.30995898E-01 0.25510322E+03</pdfrwt>
<pdfrwt beam="2">  1        2 0.79730017E-01 0.25510322E+03</pdfrwt>
<totfact> 0.73674943E+03</totfact>
</mgrwt>
</event>
<event>
 5    0  0.1141006E+000  0.3145756E+03  0.7546771E-02  0.1078173E+00
          1   -1    0    0  503    0 -0.00000000000E+00  0.00000000000E+00  0.56588803921E+03  0.56588803921E+03  0.00000000000E+00 0. -1.
         21   -1    0    0  501  502  0.00000000000E+00 -0.00000000000E+00 -0.87975548578E+03  0.87975548578E+03  0.00000000000E+00 0. -1.
         25    1    1    2    0    0 -0.17395675858E+03 -0.23200459166E+03 -0.79310499983E+03  0.85365544874E+03  0.12500000000E+03 0.  0.
         21    1    1    2  503  502  0.44485138997E+02 -0.40059921363E+01  0.27889441112E+01  0.44752137086E+02  0.00000000000E+00 0. -1.
          1    1    1    2  501    0  0.12947161959E+03  0.23601058379E+03  0.47644860916E+03  0.54723593916E+03  0.00000000000E+00 0. -1.
<mgrwt>
<rscale>  4 0.31457556E+03</rscale>
<asrwt>0</asrwt>
<pdfrwt beam="1">  1       21 0.13534700E+00 0.31457556E+03</pdfrwt>
<pdfrwt beam="2">  1        1 0.87059699E-01 0.31457556E+03</pdfrwt>
<totfact> 0.15275296E+02</totfact>
</mgrwt>
</event>
<event>
 5    0  0.1141006E+000  0.2436241E+03  0.7546771E-02  0.1117402E+00
         -3   -1    0    0    0  501 -0.00000000000E+00  0.00000000000E+00  0.50946131465E+03  0.50946131465E+03  0.00000000000E+00 0.  1.
         21   -1    0    0  503  502  0.00000000000E+00 -0.00000000000E+00 -0.14319056381E+03  0.14319056381E+03  0.00000000000E+00 0.  1.
         25    1    1    2    0    0 -0.72584694927E+02  0.19283266553E+03  0.54745466447E+02  0.24713364994E+03  0.12500000000E+03 0.  0.
         21    1    1    2  503  501  0.24573093081E+02  0.17387209055E+02  0.96139427989E+02  0.10074195529E+03  0.00000000000E+00 0. -1.
         -3    1    1    2    0  502  0.48011601846E+02 -0.21021987459E+03  0.21538585641E+03  0.30477627323E+03  0.00000000000E+00 0.  1.
<mgrwt>
<rscale>  4 0.24362407E+03</rscale>
<asrwt>0</asrwt>
<pdfrwt beam="1">  1       21 0.22029318E-01 0.24362407E+03</pdfrwt>
<pdfrwt beam="2">  1       -3 0.78378663E-01 0.24362407E+03</pdfrwt>
<totfact> 0.14793932E+03</totfact>
</mgrwt>
</event>
<event>
 5    0  0.1141006E+000  0.2434928E+03  0.7546771E-02  0.1117488E+00
         -2   -1    0    0    0  501 -0.00000000000E+00  0.00000000000E+00  0.22544226513E+03  0.22544226513E+03  0.00000000000E+00 0.  1.
         21   -1    0    0  503  502  0.00000000000E+00 -0.00000000000E+00 -0.98473665695E+03  0.98473665695E+03  0.00000000000E+00 0. -1.
         25    1    1    2    0    0 -0.18832848829E+03  0.96577656261E+02 -0.88781449618E+03  0.92121357069E+03  0.12500000000E+03 0.  0.
         21    1    1    2  503  501  0.40857985454E+02  0.36147132034E+01 -0.29664319359E+02  0.50620282200E+02  0.00000000000E+00 0.  1.
         -2    1    1    2    0  502  0.14747050284E+03 -0.10019236946E+03  0.15818442372E+03  0.23834506920E+03  0.00000000000E+00 0.  1.
<mgrwt>
<rscale>  4 0.24349276E+03</rscale>
<asrwt>0</asrwt>
<pdfrwt beam="1">  1       21 0.15149795E+00 0.24349276E+03</pdfrwt>
<pdfrwt beam="2">  1       -2 0.34683425E-01 0.24349276E+03</pdfrwt>
<totfact> 0.17757628E+02</totfact>
</mgrwt>
</event>
<event>
 5    0  0.1141006E+000  0.2838526E+03  0.7546771E-02  0.1093603E+00
         21   -1    0    0  501  502  0.00000000000E+00  0.00000000000E+00  0.33887589975E+03  0.33887589975E+03  0.00000000000E+00 0. -1.
          2   -1    0    0  503    0 -0.00000000000E+00 -0.00000000000E+00 -0.22021640763E+03  0.22021640763E+03  0.00000000000E+00 0.  1.
         25    1    1    2    0    0 -0.23168751715E+03 -0.10615182230E+03  0.50349546100E+02  0.28828352671E+03  0.12500000000E+03 0.  0.
         21    1    1    2  503  502  0.22561288424E+02 -0.30139821124E+01 -0.58877564909E+01  0.23510880460E+02  0.00000000000E+00 0.  1.
          2    1    1    2  501    0  0.20912622872E+03  0.10916580441E+03  0.74197702513E+02  0.24729790021E+03  0.00000000000E+00 0.  1.
<mgrwt>
<rscale>  4 0.28385263E+03</rscale>
<asrwt>0</asrwt>
<pdfrwt beam="1">  1       21 0.52134754E-01 0.28385263E+03</pdfrwt>
<pdfrwt beam="2">  1        2 0.33879447E-01 0.28385263E+03</pdfrwt>
<totfact> 0.64651274E+03</totfact>
</mgrwt>
</event>
<event>
 5    0  0.1141006E+000  0.2494953E+03  0.7546771E-02  0.1113624E+00
         21   -1    0    0  501  502  0.00000000000E+00  0.00000000000E+00  0.15286770918E+03  0.15286770918E+03  0.00000000000E+00 0.  1.
          1   -1    0    0  503    0 -0.00000000000E+00 -0.00000000000E+00 -0.11752149023E+04  0.11752149023E+04  0.00000000000E+00 0. -1.
         25    1    1    2    0    0 -0.19523504009E+03  0.81362549768E+02  0.12464959862E+02  0.24600195245E+03  0.12500000000E+03 0.  0.
         21    1    1    2  503  502 -0.31887865563E+02 -0.38898917422E+01 -0.43297285657E+03  0.43416294379E+03  0.00000000000E+00 0.  1.
          1    1    1    2  501    0  0.22712290566E+03 -0.77472658026E+02 -0.60183929639E+03  0.64791771522E+03  0.00000000000E+00 0. -1.
<mgrwt>
<rscale>  4 0.24949528E+03</rscale>
<asrwt>0</asrwt>
<pdfrwt beam="1">  1       21 0.23518108E-01 0.24949528E+03</pdfrwt>
<pdfrwt beam="2">  1        1 0.18080230E+00 0.24949528E+03</pdfrwt>
<totfact> 0.22318537E+03</totfact>
</mgrwt>
</event>
<event>
 5    0  0.1141006E+000  0.2555562E+03  0.7546771E-02  0.1109843E+00
         21   -1    0    0  501  502  0.00000000000E+00  0.00000000000E+00  0.53681608363E+03  0.53681608363E+03  0.00000000000E+00 0.  1.
          2   -1    0    0  503    0 -0.00000000000E+00 -0.00000000000E+00 -0.81982066298E+03  0.81982066298E+03  0.00000000000E+00 0.  1.
         25    1    1    2    0    0  0.10918749167E+03  0.19441046287E+03  0.47733017407E+03  0.54146692557E+03  0.12500000000E+03 0.  0.
         21    1    1    2  503  502  0.45245384877E+02 -0.27311056950E+02 -0.26299488171E+03  0.26825239326E+03  0.00000000000E+00 0.  1.
          2    1    1    2  501    0 -0.15443287655E+03 -0.16709940592E+03 -0.49733987171E+03  0.54691742778E+03  0.00000000000E+00 0.  1.
<mgrwt>
<rscale>  4 0.25555615E+03</rscale>
<asrwt>0</asrwt>
<pdfrwt beam="1">  1       21 0.82587090E-01 0.25555615E+03</pdfrwt>
<pdfrwt beam="2">  1        2 0.12612626E+00 0.25555615E+03</pdfrwt>
<totfact> 0.53658615E+02</totfact>
</mgrwt>
</event>
<event>
 5    0  0.1141006E+000  0.3060390E+03  0.7546771E-02  0.1082260E+00
         21   -1    0    0  501  502  0.00000000000E+00  0.00000000000E+00  0.89728993767E+03  0.89728993767E+03  0.00000000000E+00 0.  1.
          3   -1    0    0  503    0 -0.00000000000E+00 -0.00000000000E+00 -0.16041639861E+03  0.16041639861E+03  0.00000000000E+00 0. -1.
         25    1    1    2    0    0  0.24276658890E+03  0.12368562066E+03  0.55863027642E+03  0.63397676234E+03  0.12500000000E+03 0.  0.
         21    1    1    2  503  502  0.11072358342E+02  0.22106617721E+02 -0.47846029689E+02  0.53856682253E+02  0.00000000000E+00 0. -1.
          3    1    1    2  501    0 -0.25383894724E+03 -0.14579223838E+03  0.22608929232E+03  0.36987289170E+03  0.00000000000E+00 0. -1.
<mgrwt>
<rscale>  4 0.30603897E+03</rscale>
<asrwt>0</asrwt>
<pdfrwt beam="1">  1       21 0.13804460E+00 0.30603897E+03</pdfrwt>
<pdfrwt beam="2">  1        3 0.24679446E-01 0.30603897E+03</pdfrwt>
<totfact> 0.27208811E+02</totfact>
</mgrwt>
</event>
<event>
 5    0  0.1141006E+000  0.2577399E+03  0.7546771E-02  0.1108509E+00
          2   -1    0    0  503    0 -0.00000000000E+00  0.00000000000E+00  0.20318708053E+04  0.20318708053E+04  0.00000000000E+00 0.  1.
         21   -1    0    0  501  502  0.00000000000E+00 -0.00000000000E+00 -0.11666915195E+03  0.11666915195E+03  0.00000000000E+00 0.  1.
         25    1    1    2    0    0 -0.48585514335E+02 -0.21795300298E+03  0.54312855524E+02  0.26160839051E+03  0.12500000000E+03 0.  0.
         21    1    1    2  503  502 -0.60057132926E+02 -0.89185049181E+01  0.33872328210E+03  0.34412186908E+03  0.00000000000E+00 0. -1.
          2    1    1    2  501    0  0.10864264726E+03  0.22687150790E+03  0.15221655157E+04  0.15428096977E+04  0.00000000000E+00 0.  1.
<mgrwt>
<rscale>  4 0.25773987E+03</rscale>
<asrwt>0</asrwt>
<pdfrwt beam="1">  1       21 0.17949102E-01 0.25773987E+03</pdfrwt>
<pdfrwt beam="2">  1        2 0.31259548E+00 0.25773987E+03</pdfrwt>
<totfact> 0.25299958E+03</totfact>
</mgrwt>
</event>
<event>
 5    0  0.1141006E+000  0.2432444E+03  0.7546771E-02  0.1117650E+00
          1   -1    0    0  503    0 -0.00000000000E+00  0.00000000000E+00  0.59223225494E+03  0.59223225494E+03  0.00000000000E+00 0. -1.
         21   -1    0    0  501  502  0.00000000000E+00 -0.00000000000E+00 -0.29572940448E+03  0.29572940448E+03  0.00000000000E+00 0. -1.
         25    1    1    2    0    0 -0.19951095182E+03 -0.19894698325E+03  0.44911848956E+02  0.31149092478E+03  0.12500000000E+03 0.  0.
         21    1    1    2  503  502  0.11072993448E+03  0.33559366269E+02  0.34708771705E+03  0.36586504722E+03  0.00000000000E+00 0. -1.
          1    1    1    2  501    0  0.88781017337E+02  0.16538761698E+03 -0.95496715547E+02  0.21060568741E+03  0.00000000000E+00 0. -1.
<mgrwt>
<rscale>  4 0.24324443E+03</rscale>
<asrwt>0</asrwt>
<pdfrwt beam="1">  1       21 0.45496832E-01 0.24324443E+03</pdfrwt>
<pdfrwt beam="2">  1        1 0.91112654E-01 0.24324443E+03</pdfrwt>
<totfact> 0.18024503E+03</totfact>
</mgrwt>
</event>
<event>
 5    0  0.1141006E+000  0.2550738E+03  0.7546771E-02  0.1110140E+00
         21   -1    0    0  501  502  0.00000000000E+00  0.00000000000E+00  0.49931754766E+03  0.49931754766E+03  0.00000000000E+00 0.  1.
          1   -1    0    0  503    0 -0.00000000000E+00 -0.00000000000E+00 -0.97659709738E+03  0.97659709738E+03  0.00000000000E+00 0.  1.
         25    1    1    2    0    0 -0.22310036249E+03  0.25321790432E+02  0.44733427892E+03  0.51589526254E+03  0.12500000000E+03 0.  0.
         21    1    1    2  503  502  0.49872147174E+02 -0.42270935582E+02 -0.11858955160E+03  0.13541619108E+03  0.00000000000E+00 0. -1.
          1    1    1    2  501    0  0.17322821532E+03  0.16949145150E+02 -0.80602427705E+03  0.82460319141E+03  0.00000000000E+00 0.  1.
<mgrwt>
<rscale>  4 0.25507382E+03</rscale>
<asrwt>0</asrwt>
<pdfrwt beam="1">  1       21 0.76818086E-01 0.25507382E+03</pdfrwt>
<pdfrwt beam="2">  1        1 0.15024570E+00 0.25507382E+03</pdfrwt>
<totfact> 0.27061334E+02</totfact>
</mgrwt>
</event>
<event>
 5    0  0.1141006E+000  0.3489928E+03  0.7546771E-02  0.1063029E+00
         21   -1    0    0  501  502  0.00000000000E+00  0.00000000000E+00  0.74253679389E+03  0.74253679389E+03  0.00000000000E+00 0.  1.
          3   -1    0    0  503    0 -0.00000000000E+00 -0.00000000000E+00 -0.20516021339E+03  0.20516021339E+03  0.00000000000E+00 0.  1.
         25    1    1    2    0    0  0.24903382855E+03  0.25162219740E+03  0.37941210964E+03  0.53376973212E+03  0.12500000000E+03 0.  0.
         21    1    1    2  503  502 -0.34784906799E+02 -0.47421250601E+02 -0.27208577330E+02  0.64800242514E+02  0.00000000000E+00 0.  1.
          3    1    1    2  501    0 -0.21424892176E+03 -0.20420094679E+03  0.18517304819E+03  0.34912703264E+03  0.00000000000E+00 0.  1.
<mgrwt>
<rscale>  4 0.34899276E+03</rscale>
<asrwt>0</asrwt>
<pdfrwt beam="1">  1       21 0.11423643E+00 0.34899276E+03</pdfrwt>
<pdfrwt beam="2">  1        3 0.31563110E-01 0.34899276E+03</pdfrwt>
<totfact> 0.27585154E+02</totfact>
</mgrwt>
</event>
<event>
 5    0  0.1141006E+000  0.3846235E+03  0.7546771E-02  0.1049238E+00
          1   -1    0    0  503    0 -0.00000000000E+00  0.00000000000E+00  0.18684723936E+04  0.18684723936E+04  0.00000000000E+00 0. -1.
         21   -1    0    0  501  502  0.00000000000E+00 -0.00000000000E+00 -0.54093072708E+03  0.54093072708E+03  0.00000000000E+00 0. -1.
         25    1    1    2    0    0  0.20622549629E+03  0.30031283039E+03 -0.44831564727E+03  0.59104032943E+03  0.12500000000E+03 0.  0.
         21    1    1    2  503  502 -0.23567776333E+02 -0.12275963072E+01  0.32701077091E+02  0.40327503232E+02  0.00000000000E+00 0. -1.
          1    1    1    2  501    0 -0.18265771996E+03 -0.29908523408E+03  0.17431562367E+04  0.17780352880E+04  0.00000000000E+00 0. -1.
<mgrwt>
<rscale>  4 0.38462348E+03</rscale>
<asrwt>0</asrwt>
<pdfrwt beam="1">  1       21 0.83220113E-01 0.38462348E+03</pdfrwt>
<pdfrwt beam="2">  1        1 0.28745729E+00 0.38462348E+03</pdfrwt>
<totfact> 0.51544346E+01</totfact>
</mgrwt>
</event>
<event>
 5    0  0.1141006E+000  0.2708019E+03  0.7546771E-02  0.1100822E+00
         21   -1    0    0  503  502  0.00000000000E+00  0.00000000000E+00  0.17244579202E+04  0.17244579202E+04  0.00000000000E+00 0.  1.
         -1   -1    0    0    0  501 -0.00000000000E+00 -0.00000000000E+00 -0.46456087680E+02  0.46456087680E+02  0.00000000000E+00 0. -1.
         25    1    1    2    0    0  0.15913511779E+03  0.16580153096E+03  0.10176478308E+04  0.10507360472E+04  0.12500000000E+03 0.  0.
         21    1    1    2  503  501  0.92127489712E+01  0.28004169555E+02  0.50154850383E+02  0.58177463618E+02  0.00000000000E+00 0. -1.
         -1    1    1    2    0  502 -0.16834786676E+03 -0.19380570052E+03  0.61019915137E+03  0.66200049708E+03  0.00000000000E+00 0. -1.
<mgrwt>
<rscale>  4 0.27080189E+03</rscale>
<asrwt>0</asrwt>
<pdfrwt beam="1">  1       21 0.26530117E+00 0.27080189E+03</pdfrwt>
<pdfrwt beam="2">  1       -1 0.71470917E-02 0.27080189E+03</pdfrwt>
<totfact> 0.46646113E+02</totfact>
</mgrwt>
</event>
<event>
 5    0  0.1141006E+000  0.3308790E+03  0.7546771E-02  0.1070749E+00
         21   -1    0    0  501  502  0.00000000000E+00  0.00000000000E+00  0.23516901792E+03  0.23516901792E+03  0.00000000000E+00 0. -1.
          2   -1    0    0  503    0 -0.00000000000E+00 -0.00000000000E+00 -0.12171247124E+04  0.12171247124E+04  0.00000000000E+00 0.  1.
         25    1    1    2    0    0 -0.22877179810E+03 -0.21003820925E+03  0.76453987753E+02  0.34339888933E+03  0.12500000000E+03 0.  0.
         21    1    1    2  503  502  0.45252429484E+02  0.38053877467E+01 -0.76971261314E+02  0.89369113336E+02  0.00000000000E+00 0.  1.
          2    1    1    2  501    0  0.18351936861E+03  0.20623282150E+03 -0.98143842096E+03  0.10195257277E+04  0.00000000000E+00 0.  1.
<mgrwt>
<rscale>  4 0.33087900E+03</rscale>
<asrwt>0</asrwt>
<pdfrwt beam="1">  1       21 0.36179849E-01 0.33087900E+03</pdfrwt>
<pdfrwt beam="2">  1        2 0.18724996E+00 0.33087900E+03</pdfrwt>
<totfact> 0.17357092E+03</totfact>
</mgrwt>
</event>
<event>
 5    0  0.1141006E+000  0.2372275E+03  0.7546771E-02  0.1121654E+00
          2   -1    0    0  503    0 -0.00000000000E+00  0.00000000000E+00  0.15723867984E+04  0.15723867984E+04  0.00000000000E+00 0. -1.
         21   -1    0    0  501  502  0.00000000000E+00 -0.00000000000E+00 -0.47731104834E+02  0.47731104834E+02  0.00000000000E+00 0.  1.
         25    1    1    2    0    0  0.14549216972E+03  0.13958478630E+03  0.32453302155E+03  0.40199324135E+03  0.12500000000E+03 0.  0.
         21    1    1    2  503  502 -0.30460028064E+02 -0.21748717281E+02  0.12564000943E+03  0.13109626991E+03  0.00000000000E+00 0.  1.
          2    1    1    2  501    0 -0.11503214165E+03 -0.11783606902E+03  0.10744826626E+04  0.10870283920E+04  0.00000000000E+00 0. -1.
<mgrwt>
<rscale>  4 0.23722749E+03</rscale>
<asrwt>0</asrwt>
<pdfrwt beam="1">  1       21 0.73432481E-02 0.23722749E+03</pdfrwt>
<pdfrwt beam="2">  1        2 0.24190562E+00 0.23722749E+03</pdfrwt>
<totfact> 0.22115262E+04</totfact>
</mgrwt>
</event>
<event>
 5    0  0.1141006E+000  0.3821702E+03  0.7546771E-02  0.1050135E+00
         21   -1    0    0  501  502  0.00000000000E+00  0.00000000000E+00  0.31685694406E+03  0.31685694406E+03  0.00000000000E+00 0.  1.
          2   -1    0    0  503    0 -0.00000000000E+00 -0.00000000000E+00 -0.13543424005E+04  0.13543424005E+04  0.00000000000E+00 0.  1.
         25    1    1    2    0    0  0.14163162482E+03 -0.32989419370E+03  0.15437853932E+03  0.41030163245E+03  0.12500000000E+03 0.  0.
         21    1    1    2  503  502 -0.48131108121E+01 -0.25820221981E+02 -0.42175610558E+02  0.49685330077E+02  0.00000000000E+00 0.  1.
          2    1    1    2  501    0 -0.13681851401E+03  0.35571441568E+03 -0.11496883852E+04  0.12112123820E+04  0.00000000000E+00 0.  1.
<mgrwt>
<rscale>  4 0.38217019E+03</rscale>
<asrwt>0</asrwt>
<pdfrwt beam="1">  1       21 0.48747222E-01 0.38217019E+03</pdfrwt>
<pdfrwt beam="2">  1        2 0.20836037E+00 0.38217019E+03</pdfrwt>
<totfact> 0.77192870E+02</totfact>
</mgrwt>
</event>
<event>
 5    0  0.1141006E+000  0.2451031E+03  0.7546771E-02  0.1116439E+00
         21   -1    0    0  501  502  0.00000000000E+00  0.00000000000E+00  0.10609695866E+03  0.10609695866E+03  0.00000000000E+00 0.  1.
          2   -1    0    0  503    0 -0.00000000000E+00 -0.00000000000E+00 -0.10463783667E+04  0.10463783667E+04  0.00000000000E+00 0.  1.
         25    1    1    2    0    0 -0.19746762044E+03 -0.73871841685E+02 -0.69065263241E+02  0.25464783664E+03  0.12500000000E+03 0.  0.
         21    1    1    2  503  502  0.75783681713E+02  0.26288573787E+02 -0.23437215760E+03  0.24771871908E+03  0.00000000000E+00 0.  1.
          2    1    1    2  501    0  0.12168393873E+03  0.47583267898E+02 -0.63684398724E+03  0.65010876968E+03  0.00000000000E+00 0.  1.
<mgrwt>
<rscale>  4 0.24510306E+03</rscale>
<asrwt>0</asrwt>
<pdfrwt beam="1">  1       21 0.16322609E-01 0.24510306E+03</pdfrwt>
<pdfrwt beam="2">  1        2 0.16098129E+00 0.24510306E+03</pdfrwt>
<totfact> 0.10369472E+04</totfact>
</mgrwt>
</event>
<event>
 5    0  0.1141006E+000  0.2534560E+03  0.7546771E-02  0.1111140E+00
         21   -1    0    0  503  502  0.00000000000E+00  0.00000000000E+00  0.12036789643E+04  0.12036789643E+04  0.00000000000E+00 0.  1.
         -3   -1    0    0    0  501 -0.00000000000E+00 -0.00000000000E+00 -0.29803340560E+03  0.29803340560E+03  0.00000000000E+00 0.  1.
         25    1    1    2    0    0  0.21954797413E+03  0.80008743851E+01  0.11184155487E+04  0.11466227220E+04  0.12500000000E+03 0.  0.
         21    1    1    2  503  501  0.15874192976E+02 -0.42946602278E+02 -0.26854331062E+02  0.53080653224E+02  0.00000000000E+00 0. -1.
         -3    1    1    2    0  502 -0.23542216711E+03  0.34945727892E+02 -0.18591565893E+03  0.30200899473E+03  0.00000000000E+00 0.  1.
<mgrwt>
<rscale>  4 0.25345604E+03</rscale>
<asrwt>0</asrwt>
<pdfrwt beam="1">  1       21 0.18518138E+00 0.25345604E+03</pdfrwt>
<pdfrwt beam="2">  1       -3 0.45851294E-01 0.25345604E+03</pdfrwt>
<totfact> 0.38015160E+01</totfact>
</mgrwt>
</event>
<event>
 5    0  0.1141006E+000  0.3352763E+03  0.7546771E-02  0.1068826E+00
          4   -1    0    0  503    0 -0.00000000000E+00  0.00000000000E+00  0.17261741687E+03  0.17261741687E+03  0.00000000000E+00 0. -1.
         21   -1    0    0  501  502  0.00000000000E+00 -0.00000000000E+00 -0.74264265234E+03  0.74264265234E+03  0.00000000000E+00 0. -1.
         25    1    1    2    0    0 -0.10145898712E+01 -0.30253116128E+03 -0.40957959981E+03  0.52431534550E+03  0.12500000000E+03 0.  0.
         21    1    1    2  503  502  0.16519449879E+02 -0.24032317261E+02 -0.81399431005E+01  0.30277106383E+02  0.00000000000E+00 0.  1.
          4    1    1    2  501    0 -0.15504860008E+02  0.32656347854E+03 -0.15230569256E+03  0.36066761733E+03  0.00000000000E+00 0. -1.
<mgrwt>
<rscale>  4 0.33527626E+03</rscale>
<asrwt>0</asrwt>
<pdfrwt beam="1">  1       21 0.11425271E+00 0.33527626E+03</pdfrwt>
<pdfrwt beam="2">  1        4 0.26556526E-01 0.33527626E+03</pdfrwt>
<totfact> 0.32751229E+02</totfact>
</mgrwt>
</event>
<event>
 5    0  0.1141006E+000  0.2606878E+03  0.7546771E-02  0.1106731E+00
          1   -1    0    0  503    0 -0.00000000000E+00  0.00000000000E+00  0.73552315266E+03  0.73552315266E+03  0.00000000000E+00 0. -1.
         21   -1    0    0  501  502  0.00000000000E+00 -0.00000000000E+00 -0.11563802198E+03  0.11563802198E+03  0.00000000000E+00 0. -1.
         25    1    1    2    0    0 -0.14756537924E+03  0.17601818893E+03  0.19351845637E+03  0.32531882352E+03  0.12500000000E+03 0.  0.
         21    1    1    2  503  502 -0.16199106165E+02 -0.16786924338E+02  0.20976172343E+03  0.21105495134E+03  0.00000000000E+00 0.  1.
          1    1    1    2  501    0  0.16376448540E+03 -0.15923126459E+03  0.21660495088E+03  0.31478739976E+03  0.00000000000E+00 0. -1.
<mgrwt>
<rscale>  4 0.26068781E+03</rscale>
<asrwt>0</asrwt>
<pdfrwt beam="1">  1       21 0.17790465E-01 0.26068781E+03</pdfrwt>
<pdfrwt beam="2">  1        1 0.11315741E+00 0.26068781E+03</pdfrwt>
<totfact> 0.82340177E+03</totfact>
</mgrwt>
</event>
<event>
 5    0  0.1141006E+000  0.2809841E+03  0.7546771E-02  0.1095153E+00
          1   -1    0    0  503    0 -0.00000000000E+00  0.00000000000E+00  0.10027457930E+04  0.10027457930E+04  0.00000000000E+00 0. -1.
         21   -1    0    0  501  502  0.00000000000E+00 -0.00000000000E+00 -0.27920057026E+03  0.27920057026E+03  0.00000000000E+00 0.  1.
         25    1    1    2    0    0 -0.23907817283E+03 -0.85395276403E+02 -0.18284441536E+03  0.33690919576E+03  0.12500000000E+03 0.  0.
         21    1    1    2  503  502  0.25711067544E+02  0.10653295079E+02  0.34567335288E+02  0.44378512359E+02  0.00000000000E+00 0.  1.
          1    1    1    2  501    0  0.21336710529E+03  0.74741981323E+02  0.87182230277E+03  0.90065865510E+03  0.00000000000E+00 0. -1.
<mgrwt>
<rscale>  4 0.28098406E+03</rscale>
<asrwt>0</asrwt>
<pdfrwt beam="1">  1       21 0.42953934E-01 0.28098406E+03</pdfrwt>
<pdfrwt beam="2">  1        1 0.15426858E+00 0.28098406E+03</pdfrwt>
<totfact> 0.89237575E+02</totfact>
</mgrwt>
</event>
<event>
 5    0  0.1141006E+000  0.2577218E+03  0.7546771E-02  0.1108520E+00
          2   -1    0    0  503    0 -0.00000000000E+00  0.00000000000E+00  0.57042490739E+03  0.57042490739E+03  0.00000000000E+00 0.  1.
         21   -1    0    0  501  502  0.00000000000E+00 -0.00000000000E+00 -0.92497320022E+03  0.92497320022E+03  0.00000000000E+00 0.  1.
         25    1    1    2    0    0 -0.16559621554E+03 -0.15441205979E+03 -0.87733533390E+03  0.91466249454E+03  0.12500000000E+03 0.  0.
         21    1    1    2  503  502  0.26869810649E+02  0.34731739273E+01  0.17451595173E+03  0.17660653179E+03  0.00000000000E+00 0. -1.
          2    1    1    2  501    0  0.13872640489E+03  0.15093888586E+03  0.34827108933E+03  0.40412908128E+03  0.00000000000E+00 0.  1.
<mgrwt>
<rscale>  4 0.25772177E+03</rscale>
<asrwt>0</asrwt>
<pdfrwt beam="1">  1       21 0.14230357E+00 0.25772177E+03</pdfrwt>
<pdfrwt beam="2">  1        2 0.87757680E-01 0.25772177E+03</pdfrwt>
<totfact> 0.22038711E+02</totfact>
</mgrwt>
</event>
<event>
 5    0  0.1141006E+000  0.2936213E+03  0.7546771E-02  0.1088473E+00
          2   -1    0    0  503    0 -0.00000000000E+00  0.00000000000E+00  0.16094043208E+04  0.16094043208E+04  0.00000000000E+00 0.  1.
         21   -1    0    0  501  502  0.00000000000E+00 -0.00000000000E+00 -0.14023070971E+03  0.14023070971E+03  0.00000000000E+00 0.  1.
         25    1    1    2    0    0  0.18963088621E+03 -0.18657567811E+03  0.72382507148E+02  0.30271204801E+03  0.12500000000E+03 0.  0.
         21    1    1    2  503  502 -0.72415370197E+02 -0.66442551757E+02  0.39556186839E+03  0.40758777000E+03  0.00000000000E+00 0.  1.
          2    1    1    2  501    0 -0.11721551602E+03  0.25301822986E+03  0.10012292355E+04  0.10393352125E+04  0.00000000000E+00 0.  1.
<mgrwt>
<rscale>  4 0.29362127E+03</rscale>
<asrwt>0</asrwt>
<pdfrwt beam="1">  1       21 0.21573956E-01 0.29362127E+03</pdfrwt>
<pdfrwt beam="2">  1        2 0.24760065E+00 0.29362127E+03</pdfrwt>
<totfact> 0.29459016E+03</totfact>
</mgrwt>
</event>
<event>
 5    0  0.1141006E+000  0.4356971E+03  0.7546771E-02  0.1032075E+00
         21   -1    0    0  501  502  0.00000000000E+00  0.00000000000E+00  0.30700858870E+03  0.30700858870E+03  0.00000000000E+00 0. -1.
          1   -1    0    0  503    0 -0.00000000000E+00 -0.00000000000E+00 -0.92540150213E+03  0.92540150213E+03  0.00000000000E+00 0. -1.
         25    1    1    2    0    0  0.40631505432E+03 -0.71858761201E+02  0.17541578967E+02  0.43149543673E+03  0.12500000000E+03 0.  0.
         21    1    1    2  503  502  0.15401143205E+02 -0.14874623614E+02 -0.15067925623E+03  0.15219292985E+03  0.00000000000E+00 0.  1.
          1    1    1    2  501    0 -0.42171619752E+03  0.86733384815E+02 -0.48525523617E+03  0.64872172426E+03  0.00000000000E+00 0. -1.
<mgrwt>
<rscale>  4 0.43569715E+03</rscale>
<asrwt>0</asrwt>
<pdfrwt beam="1">  1       21 0.47232091E-01 0.43569715E+03</pdfrwt>
<pdfrwt beam="2">  1        1 0.14236946E+00 0.43569715E+03</pdfrwt>
<totfact> 0.79869953E+02</totfact>
</mgrwt>
</event>
<event>
 5    0  0.1141006E+000  0.2364951E+03  0.7546771E-02  0.1122150E+00
         21   -1    0    0  501  502  0.00000000000E+00  0.00000000000E+00  0.27109931275E+03  0.27109931275E+03  0.00000000000E+00 0.  1.
          3   -1    0    0  503    0 -0.00000000000E+00 -0.00000000000E+00 -0.26318091273E+03  0.26318091273E+03  0.00000000000E+00 0.  1.
         25    1    1    2    0    0  0.62666738422E+02  0.20587321561E+03  0.62441800582E+02  0.25658308492E+03  0.12500000000E+03 0.  0.
         21    1    1    2  503  502 -0.44883867861E+01 -0.26383674990E+02 -0.82699519717E+02  0.86922117343E+02  0.00000000000E+00 0. -1.
          3    1    1    2  501    0 -0.58178351636E+02 -0.17948954062E+03  0.28176119159E+02  0.19077502321E+03  0.00000000000E+00 0.  1.
<mgrwt>
<rscale>  4 0.23649510E+03</rscale>
<asrwt>0</asrwt>
<pdfrwt beam="1">  1       21 0.41707587E-01 0.23649510E+03</pdfrwt>
<pdfrwt beam="2">  1        3 0.40489371E-01 0.23649510E+03</pdfrwt>
<totfact> 0.16522749E+03</totfact>
</mgrwt>
</event>
<event>
 5    0  0.1141006E+000  0.2281962E+03  0.7546771E-02  0.1127916E+00
         -3   -1    0    0    0  501 -0.00000000000E+00  0.00000000000E+00  0.34906181950E+03  0.34906181950E+03  0.00000000000E+00 0. -1.
         21   -1    0    0  503  502  0.00000000000E+00 -0.00000000000E+00 -0.54185542982E+03  0.54185542982E+03  0.00000000000E+00 0. -1.
         25    1    1    2    0    0  0.10256244228E+01  0.20466954149E+03 -0.41220714089E+03  0.47689663463E+03  0.12500000000E+03 0.  0.
         21    1    1    2  503  501 -0.89644297138E+02 -0.56296543962E+02  0.21670396060E+03  0.24117629944E+03  0.00000000000E+00 0. -1.
         -3    1    1    2    0  502  0.88618672715E+02 -0.14837299753E+03  0.27095699693E+01  0.17284431526E+03  0.00000000000E+00 0. -1.
<mgrwt>
<rscale>  4 0.22819624E+03</rscale>
<asrwt>0</asrwt>
<pdfrwt beam="1">  1       21 0.83362374E-01 0.22819624E+03</pdfrwt>
<pdfrwt beam="2">  1       -3 0.53701818E-01 0.22819624E+03</pdfrwt>
<totfact> 0.21157834E+02</totfact>
</mgrwt>
</event>
<event>
 5    0  0.1141006E+000  0.2820055E+03  0.7546771E-02  0.1094599E+00
         -1   -1    0    0    0  501 -0.00000000000E+00  0.00000000000E+00  0.32595425413E+03  0.32595425413E+03  0.00000000000E+00 0. -1.
         21   -1    0    0  503  502  0.00000000000E+00 -0.00000000000E+00 -0.23928653603E+03  0.23928653603E+03  0.00000000000E+00 0. -1.
         25    1    1    2    0    0 -0.25202484123E+03 -0.19635571239E+02  0.83983615932E+02  0.29424534661E+03  0.12500000000E+03 0.  0.
         21    1    1    2  503  501  0.46952999237E+02  0.15673458112E+02  0.38591761322E+02  0.62765957879E+02  0.00000000000E+00 0.  1.
         -1    1    1    2    0  502  0.20507184200E+03  0.39621131274E+01 -0.35907659154E+02  0.20822948568E+03  0.00000000000E+00 0. -1.
<mgrwt>
<rscale>  4 0.28200545E+03</rscale>
<asrwt>0</asrwt>
<pdfrwt beam="1">  1       21 0.36813313E-01 0.28200545E+03</pdfrwt>
<pdfrwt beam="2">  1       -1 0.50146808E-01 0.28200545E+03</pdfrwt>
<totfact> 0.26288889E+03</totfact>
</mgrwt>
</event>
<event>
 5    0  0.1141006E+000  0.6134478E+03  0.7546771E-02  0.9877892E-01
         21   -1    0    0  501  502  0.00000000000E+00  0.00000000000E+00  0.87750596027E+03  0.87750596027E+03  0.00000000000E+00 0.  1.
          1   -1    0    0  503    0 -0.00000000000E+00 -0.00000000000E+00 -0.19361030489E+04  0.19361030489E+04  0.00000000000E+00 0.  1.
         25    1    1    2    0    0  0.40197568624E+03  0.59788633444E+03  0.55525633432E+03  0.91814329930E+03  0.12500000000E+03 0.  0.
         21    1    1    2  503  502 -0.11996125672E+03 -0.76940717836E+02  0.32161999290E+02  0.14609918334E+03  0.00000000000E+00 0. -1.
          1    1    1    2  501    0 -0.28201442952E+03 -0.52094561661E+03 -0.16460154223E+04  0.17493665265E+04  0.00000000000E+00 0.  1.
<mgrwt>
<rscale>  4 0.61344783E+03</rscale>
<asrwt>0</asrwt>
<pdfrwt beam="1">  1       21 0.13500092E+00 0.61344783E+03</pdfrwt>
<pdfrwt beam="2">  1        1 0.29786201E+00 0.61344783E+03</pdfrwt>
<totfact> 0.12788992E+01</totfact>
</mgrwt>
</event>
<event>
 5    0  0.1141006E+000  0.2547219E+03  0.7546771E-02  0.1110357E+00
         21   -1    0    0  501  502  0.00000000000E+00  0.00000000000E+00  0.11848787738E+04  0.11848787738E+04  0.00000000000E+00 0.  1.
          2   -1    0    0  503    0 -0.00000000000E+00 -0.00000000000E+00 -0.20577385405E+03  0.20577385405E+03  0.00000000000E+00 0.  1.
         25    1    1    2    0    0  0.14383943443E+03  0.16902201225E+03  0.11022678642E+04  0.11313167850E+04  0.12500000000E+03 0.  0.
         21    1    1    2  503  502 -0.56468124584E+02 -0.43363306577E+02 -0.17379864814E+02  0.73287687590E+02  0.00000000000E+00 0.  1.
          2    1    1    2  501    0 -0.87371309846E+02 -0.12565870567E+03 -0.10578307972E+03  0.18604815519E+03  0.00000000000E+00 0.  1.
<mgrwt>
<rscale>  4 0.25472186E+03</rscale>
<asrwt>0</asrwt>
<pdfrwt beam="1">  1       21 0.18228904E+00 0.25472186E+03</pdfrwt>
<pdfrwt beam="2">  1        2 0.31657517E-01 0.25472186E+03</pdfrwt>
<totfact> 0.34311737E+02</totfact>
</mgrwt>
</event>
<event>
 5    0  0.1141006E+000  0.2583516E+03  0.7546771E-02  0.1108138E+00
         21   -1    0    0  501  502  0.00000000000E+00  0.00000000000E+00  0.15151077287E+04  0.15151077287E+04  0.00000000000E+00 0. -1.
          2   -1    0    0  503    0 -0.00000000000E+00 -0.00000000000E+00 -0.25773195588E+03  0.25773195588E+03  0.00000000000E+00 0. -1.
         25    1    1    2    0    0 -0.22803786650E+03 -0.12118608742E+02  0.14397330298E+04  0.14630804238E+04  0.12500000000E+03 0.  0.
         21    1    1    2  503  502  0.44562357110E+02  0.19525421548E+02  0.31317018430E+01  0.48752982619E+02  0.00000000000E+00 0. -1.
          2    1    1    2  501    0  0.18347550939E+03 -0.74068128058E+01 -0.18548895883E+03  0.26100627822E+03  0.00000000000E+00 0. -1.
<mgrwt>
<rscale>  4 0.25835156E+03</rscale>
<asrwt>0</asrwt>
<pdfrwt beam="1">  1       21 0.23309349E+00 0.25835156E+03</pdfrwt>
<pdfrwt beam="2">  1        2 0.39651071E-01 0.25835156E+03</pdfrwt>
<totfact> 0.12644358E+02</totfact>
</mgrwt>
</event>
<event>
 5    0  0.1141006E+000  0.4659948E+03  0.7546771E-02  0.1023057E+00
          1   -1    0    0  503    0 -0.00000000000E+00  0.00000000000E+00  0.11834098190E+04  0.11834098190E+04  0.00000000000E+00 0.  1.
         21   -1    0    0  501  502  0.00000000000E+00 -0.00000000000E+00 -0.67119718787E+03  0.67119718787E+03  0.00000000000E+00 0. -1.
         25    1    1    2    0    0 -0.30161805030E+03 -0.29201827710E+03 -0.51297274646E+03  0.67454737494E+03  0.12500000000E+03 0.  0.
         21    1    1    2  503  502 -0.44092450675E+02  0.19362269866E+01 -0.14660738175E+02  0.46506240714E+02  0.00000000000E+00 0. -1.
          1    1    1    2  501    0  0.34571050098E+03  0.29008205011E+03  0.10398461158E+04  0.11335533912E+04  0.00000000000E+00 0.  1.
<mgrwt>
<rscale>  4 0.46599484E+03</rscale>
<asrwt>0</asrwt>
<pdfrwt beam="1">  1       21 0.10326111E+00 0.46599484E+03</pdfrwt>
<pdfrwt beam="2">  1        1 0.18206305E+00 0.46599484E+03</pdfrwt>
<totfact> 0.86567820E+01</totfact>
</mgrwt>
</event>
<event>
 5    0  0.1141006E+000  0.3666689E+03  0.7546771E-02  0.1055974E+00
         21   -1    0    0  503  502  0.00000000000E+00  0.00000000000E+00  0.27511655623E+03  0.27511655623E+03  0.00000000000E+00 0.  1.
         -3   -1    0    0    0  501 -0.00000000000E+00 -0.00000000000E+00 -0.62114808060E+03  0.62114808060E+03  0.00000000000E+00 0. -1.
         25    1    1    2    0    0 -0.60463385603E+01 -0.34403345237E+03  0.13359125974E+02  0.36633187249E+03  0.12500000000E+03 0.  0.
         21    1    1    2  503  501  0.32996924735E+02 -0.19762019025E+01 -0.72385957919E+02  0.79576562628E+02  0.00000000000E+00 0.  1.
         -3    1    1    2    0  502 -0.26950586175E+02  0.34600965427E+03 -0.28700469243E+03  0.45035620171E+03  0.00000000000E+00 0. -1.
<mgrwt>
<rscale>  4 0.36666894E+03</rscale>
<asrwt>0</asrwt>
<pdfrwt beam="1">  1       21 0.42325625E-01 0.36666894E+03</pdfrwt>
<pdfrwt beam="2">  1       -3 0.95561242E-01 0.36666894E+03</pdfrwt>
<totfact> 0.25746543E+02</totfact>
</mgrwt>
</event>
<event>
 5    0  0.1141006E+000  0.5034967E+03  0.7546771E-02  0.1012870E+00
         -4   -1    0    0    0  501 -0.00000000000E+00  0.00000000000E+00  0.26939046009E+03  0.26939046009E+03  0.00000000000E+00 0.  1.
         21   -1    0    0  503  502  0.00000000000E+00 -0.00000000000E+00 -0.94390304756E+03  0.94390304756E+03  0.00000000000E+00 0.  1.
         25    1    1    2    0    0  0.26326888731E+03  0.41057696065E+03 -0.37483663236E+03  0.62770331256E+03  0.12500000000E+03 0.  0.
         21    1    1    2  503  501  0.49123335303E+00 -0.47763320910E+02 -0.31257786598E+01  0.47868012563E+02  0.00000000000E+00 0. -1.
         -4    1    1    2    0  502 -0.26376012066E+03 -0.36281363974E+03 -0.29655017645E+03  0.53772218253E+03  0.00000000000E+00 0.  1.
<mgrwt>
<rscale>  4 0.50349672E+03</rscale>
<asrwt>0</asrwt>
<pdfrwt beam="1">  1       21 0.14521585E+00 0.50349672E+03</pdfrwt>
<pdfrwt beam="2">  1       -4 0.41444686E-01 0.50349672E+03</pdfrwt>
<totfact> 0.71750261E+01</totfact>
</mgrwt>
</event>
<event>
 5    0  0.1141006E+000  0.3546743E+03  0.7546771E-02  0.1060713E+00
         21   -1    0    0  503  502  0.00000000000E+00  0.00000000000E+00  0.60532103861E+03  0.60532103861E+03  0.00000000000E+00 0.  1.
         -4   -1    0    0    0  501 -0.00000000000E+00 -0.00000000000E+00 -0.26066168980E+03  0.26066168980E+03  0.00000000000E+00 0.  1.
         25    1    1    2    0    0 -0.13657771588E+03 -0.29884463783E+03  0.31309296142E+03  0.47075874132E+03  0.12500000000E+03 0.  0.
         21    1    1    2  503  501 -0.50073255327E+02  0.13083814848E+02  0.13206191939E+02  0.53412738326E+02  0.00000000000E+00 0. -1.
         -4    1    1    2    0  502  0.18665097121E+03  0.28576082298E+03  0.18360195452E+02  0.34181124876E+03  0.00000000000E+00 0.  1.
<mgrwt>
<rscale>  4 0.35467431E+03</rscale>
<asrwt>0</asrwt>
<pdfrwt beam="1">  1       21 0.93126314E-01 0.35467431E+03</pdfrwt>
<pdfrwt beam="2">  1       -4 0.40101798E-01 0.35467431E+03</pdfrwt>
<totfact> 0.24056147E+02</totfact>
</mgrwt>
</event>
<event>
 5    0  0.1141006E+000  0.2960353E+03  0.7546771E-02  0.1087239E+00
          2   -1    0    0  503    0 -0.00000000000E+00  0.00000000000E+00  0.31961473194E+03  0.31961473194E+03  0.00000000000E+00 0.  1.
         21   -1    0    0  501  502  0.00000000000E+00 -0.00000000000E+00 -0.85880507103E+03  0.85880507103E+03  0.00000000000E+00 0.  1.
         25    1    1    2    0    0 -0.70539486050E+02 -0.25026413896E+03 -0.66655144002E+03  0.72630832332E+03  0.12500000000E+03 0.  0.
         21    1    1    2  503  502  0.46376999754E+02 -0.73081555699E+02  0.91394292505E+02  0.12587555995E+03  0.00000000000E+00 0. -1.
          2    1    1    2  501    0  0.24162486296E+02  0.32334569466E+03  0.35966808420E+02  0.32623591970E+03  0.00000000000E+00 0.  1.
<mgrwt>
<rscale>  4 0.29603533E+03</rscale>
<asrwt>0</asrwt>
<pdfrwt beam="1">  1       21 0.13212385E+00 0.29603533E+03</pdfrwt>
<pdfrwt beam="2">  1        2 0.49171499E-01 0.29603533E+03</pdfrwt>
<totfact> 0.49792157E+02</totfact>
</mgrwt>
</event>
<event>
 5    0  0.1141006E+000  0.3622949E+03  0.7546771E-02  0.1057679E+00
          2   -1    0    0  503    0 -0.00000000000E+00  0.00000000000E+00  0.97923517405E+03  0.97923517405E+03  0.00000000000E+00 0. -1.
         21   -1    0    0  501  502  0.00000000000E+00 -0.00000000000E+00 -0.24803726304E+03  0.24803726304E+03  0.00000000000E+00 0. -1.
         25    1    1    2    0    0 -0.28524521441E+03 -0.13561711503E+03  0.73209147909E+03  0.80705623595E+03  0.12500000000E+03 0.  0.
         21    1    1    2  503  502 -0.22241094426E+02 -0.19880471387E+02  0.63062801425E+02  0.69762571250E+02  0.00000000000E+00 0. -1.
          2    1    1    2  501    0  0.30748630884E+03  0.15549758641E+03 -0.63956369504E+02  0.35045362989E+03  0.00000000000E+00 0. -1.
<mgrwt>
<rscale>  4 0.36229486E+03</rscale>
<asrwt>0</asrwt>
<pdfrwt beam="1">  1       21 0.38159579E-01 0.36229486E+03</pdfrwt>
<pdfrwt beam="2">  1        2 0.15065156E+00 0.36229486E+03</pdfrwt>
<totfact> 0.21406962E+03</totfact>
</mgrwt>
</event>
<event>
 5    0  0.1141006E+000  0.3268281E+03  0.7546771E-02  0.1072549E+00
          2   -1    0    0  503    0 -0.00000000000E+00  0.00000000000E+00  0.70175667807E+03  0.70175667807E+03  0.00000000000E+00 0. -1.
         21   -1    0    0  501  502  0.00000000000E+00 -0.00000000000E+00 -0.24385369861E+03  0.24385369861E+03  0.00000000000E+00 0. -1.
         25    1    1    2    0    0  0.32907279792E+02 -0.30616410074E+03 -0.50156462507E+02  0.33609524896E+03  0.12500000000E+03 0.  0.
         21    1    1    2  503  502  0.18480257995E+02  0.25535728162E+02  0.14175808791E+03  0.14522034581E+03  0.00000000000E+00 0. -1.
          2    1    1    2  501    0 -0.51387537787E+02  0.28062837257E+03  0.36630135405E+03  0.46429478191E+03  0.00000000000E+00 0. -1.
<mgrwt>
<rscale>  4 0.32682813E+03</rscale>
<asrwt>0</asrwt>
<pdfrwt beam="1">  1       21 0.37515954E-01 0.32682813E+03</pdfrwt>
<pdfrwt beam="2">  1        2 0.10796256E+00 0.32682813E+03</pdfrwt>
<totfact> 0.34639582E+03</totfact>
</mgrwt>
</event>
<event>
 5    0  0.1141006E+000  0.2610601E+03  0.7546771E-02  0.1106508E+00
         21   -1    0    0  503  502  0.00000000000E+00  0.00000000000E+00  0.10699242877E+04  0.10699242877E+04  0.00000000000E+00 0. -1.
         -3   -1    0    0    0  501 -0.00000000000E+00 -0.00000000000E+00 -0.52730765209E+03  0.52730765209E+03  0.00000000000E+00 0.  1.
         25    1    1    2    0    0  0.46971022559E+02  0.22428076271E+03  0.84540997805E+03  0.88478877054E+03  0.12500000000E+03 0.  0.
         21    1    1    2  503  501  0.26621533565E+02 -0.57751223305E+01 -0.44218066480E+03  0.44301895943E+03  0.00000000000E+00 0.  1.
         -3    1    1    2    0  502 -0.73592556124E+02 -0.21850564038E+03  0.13938732234E+03  0.26942420979E+03  0.00000000000E+00 0.  1.
<mgrwt>
<rscale>  4 0.26106014E+03</rscale>
<asrwt>0</asrwt>
<pdfrwt beam="1">  1       21 0.16460374E+00 0.26106014E+03</pdfrwt>
<pdfrwt beam="2">  1       -3 0.81124255E-01 0.26106014E+03</pdfrwt>
<totfact> 0.15974344E+01</totfact>
</mgrwt>
</event>
<event>
 5    0  0.1141006E+000  0.2750475E+03  0.7546771E-02  0.1098425E+00
          2   -1    0    0  503    0 -0.00000000000E+00  0.00000000000E+00  0.29433383297E+04  0.29433383297E+04  0.00000000000E+00 0. -1.
         21   -1    0    0  501  502  0.00000000000E+00 -0.00000000000E+00 -0.62626804048E+02  0.62626804048E+02  0.00000000000E+00 0.  1.
         25    1    1    2    0    0  0.24776061744E+03 -0.18338743108E+02  0.32390541963E+03  0.42692078179E+03  0.12500000000E+03 0.  0.
         21    1    1    2  503  502 -0.13793279249E+02  0.15221836044E+02  0.13279917006E+04  0.13281505621E+04  0.00000000000E+00 0. -1.
          2    1    1    2  501    0 -0.23396733819E+03  0.31169070642E+01  0.12288144055E+04  0.12508937899E+04  0.00000000000E+00 0. -1.
<mgrwt>
<rscale>  4 0.27504752E+03</rscale>
<asrwt>0</asrwt>
<pdfrwt beam="1">  1       21 0.96348952E-02 0.27504752E+03</pdfrwt>
<pdfrwt beam="2">  1        2 0.45282118E+00 0.27504752E+03</pdfrwt>
<totfact> 0.24486378E+03</totfact>
</mgrwt>
</event>
<event>
 5    0  0.1141006E+000  0.3778742E+03  0.7546771E-02  0.1051722E+00
         21   -1    0    0  501  502  0.00000000000E+00  0.00000000000E+00  0.15370901629E+04  0.15370901629E+04  0.00000000000E+00 0. -1.
          2   -1    0    0  503    0 -0.00000000000E+00 -0.00000000000E+00 -0.76562344027E+03  0.76562344027E+03  0.00000000000E+00 0. -1.
         25    1    1    2    0    0  0.32747859521E+03  0.12908803234E+03  0.13648220656E+04  0.14150159791E+04  0.12500000000E+03 0.  0.
         21    1    1    2  503  502  0.99102122353E+02  0.92558022218E+02 -0.16210017170E+02  0.13656860103E+03  0.00000000000E+00 0. -1.
          2    1    1    2  501    0 -0.42658071756E+03 -0.22164605456E+03 -0.57714532581E+03  0.75112902300E+03  0.00000000000E+00 0. -1.
<mgrwt>
<rscale>  4 0.37787423E+03</rscale>
<asrwt>0</asrwt>
<pdfrwt beam="1">  1       21 0.23647541E+00 0.37787423E+03</pdfrwt>
<pdfrwt beam="2">  1        2 0.11778822E+00 0.37787423E+03</pdfrwt>
<totfact> 0.32457464E+01</totfact>
</mgrwt>
</event>
<event>
 5    0  0.1141006E+000  0.2843880E+03  0.7546771E-02  0.1093316E+00
         21   -1    0    0  501  502  0.00000000000E+00  0.00000000000E+00  0.38086753084E+03  0.38086753084E+03  0.00000000000E+00 0.  1.
          2   -1    0    0  503    0 -0.00000000000E+00 -0.00000000000E+00 -0.20693596372E+04  0.20693596372E+04  0.00000000000E+00 0.  1.
         25    1    1    2    0    0 -0.22572213420E+03 -0.12168345510E+03  0.31449169977E+03  0.42460260755E+03  0.12500000000E+03 0.  0.
         21    1    1    2  503  502  0.32023020256E+02  0.16458057678E+02 -0.58543161830E+02  0.68728766073E+02  0.00000000000E+00 0.  1.
          2    1    1    2  501    0  0.19369911394E+03  0.10522539743E+03 -0.19444406443E+04  0.19568957944E+04  0.00000000000E+00 0.  1.
<mgrwt>
<rscale>  4 0.28438804E+03</rscale>
<asrwt>0</asrwt>
<pdfrwt beam="1">  1       21 0.58595003E-01 0.28438804E+03</pdfrwt>
<pdfrwt beam="2">  1        2 0.31836303E+00 0.28438804E+03</pdfrwt>
<totfact> 0.22581339E+02</totfact>
</mgrwt>
</event>
<event>
 5    0  0.1141006E+000  0.2778938E+03  0.7546771E-02  0.1096845E+00
         -1   -1    0    0    0  501 -0.00000000000E+00  0.00000000000E+00  0.97613754960E+03  0.97613754960E+03  0.00000000000E+00 0.  1.
         21   -1    0    0  503  502  0.00000000000E+00 -0.00000000000E+00 -0.32151039693E+03  0.32151039693E+03  0.00000000000E+00 0.  1.
         25    1    1    2    0    0  0.13044741213E+03  0.21114789610E+03 -0.23949752891E+03  0.36685695811E+03  0.12500000000E+03 0.  0.
         21    1    1    2  503  501 -0.52936814457E+02 -0.40812652696E+02  0.16481726873E+03  0.17785587147E+03  0.00000000000E+00 0.  1.
         -1    1    1    2    0  502 -0.77510597671E+02 -0.17033524340E+03  0.72930741285E+03  0.75293511695E+03  0.00000000000E+00 0.  1.
<mgrwt>
<rscale>  4 0.27789380E+03</rscale>
<asrwt>0</asrwt>
<pdfrwt beam="1">  1       21 0.49463138E-01 0.27789380E+03</pdfrwt>
<pdfrwt beam="2">  1       -1 0.15017501E+00 0.27789380E+03</pdfrwt>
<totfact> 0.13273876E+02</totfact>
</mgrwt>
</event>
<event>
 5    0  0.1141006E+000  0.2498371E+03  0.7546771E-02  0.1113408E+00
         21   -1    0    0  503  502  0.00000000000E+00  0.00000000000E+00  0.43678562497E+02  0.43678562497E+02  0.00000000000E+00 0.  1.
         -2   -1    0    0    0  501 -0.00000000000E+00 -0.00000000000E+00 -0.17123099546E+04  0.17123099546E+04  0.00000000000E+00 0.  1.
         25    1    1    2    0    0  0.20734705998E+03 -0.26670935676E+02 -0.50857238509E+03  0.56389273179E+03  0.12500000000E+03 0.  0.
         21    1    1    2  503  501  0.14288531513E+02 -0.40365915584E+02 -0.19513862645E+03  0.19978151267E+03  0.00000000000E+00 0.  1.
         -2    1    1    2    0  502 -0.22163559149E+03  0.67036851260E+02 -0.96492038057E+03  0.99231427264E+03  0.00000000000E+00 0.  1.
<mgrwt>
<rscale>  4 0.24983710E+03</rscale>
<asrwt>0</asrwt>
<pdfrwt beam="1">  1       21 0.67197802E-02 0.24983710E+03</pdfrwt>
<pdfrwt beam="2">  1       -2 0.26343225E+00 0.24983710E+03</pdfrwt>
<totfact> 0.79962497E+02</totfact>
</mgrwt>
</event>
<event>
 5    0  0.1141006E+000  0.3164646E+03  0.7546771E-02  0.1077288E+00
          3   -1    0    0  503    0 -0.00000000000E+00  0.00000000000E+00  0.28808518073E+03  0.28808518073E+03  0.00000000000E+00 0. -1.
         21   -1    0    0  501  502  0.00000000000E+00 -0.00000000000E+00 -0.74263468805E+03  0.74263468805E+03  0.00000000000E+00 0.  1.
         25    1    1    2    0    0 -0.10737232244E+03  0.27017775656E+03 -0.60484219998E+03  0.68263015070E+03  0.12500000000E+03 0.  0.
         21    1    1    2  503  502  0.25717326130E+01 -0.10207722808E+03  0.46447425983E+01  0.10221520403E+03  0.00000000000E+00 0. -1.
          3    1    1    2  501    0  0.10480058983E+03 -0.16810052849E+03  0.14564795006E+03  0.24587451406E+03  0.00000000000E+00 0. -1.
<mgrwt>
<rscale>  4 0.31646459E+03</rscale>
<asrwt>0</asrwt>
<pdfrwt beam="1">  1       21 0.11425149E+00 0.31646459E+03</pdfrwt>
<pdfrwt beam="2">  1        3 0.44320797E-01 0.31646459E+03</pdfrwt>
<totfact> 0.14368897E+02</totfact>
</mgrwt>
</event>
<event>
 5    0  0.1141006E+000  0.3061986E+03  0.7546771E-02  0.1082182E+00
          2   -1    0    0  503    0 -0.00000000000E+00  0.00000000000E+00  0.12031066314E+04  0.12031066314E+04  0.00000000000E+00 0. -1.
         21   -1    0    0  501  502  0.00000000000E+00 -0.00000000000E+00 -0.50032305513E+03  0.50032305513E+03  0.00000000000E+00 0. -1.
         25    1    1    2    0    0 -0.22809303161E+03  0.16151149903E+03 -0.42235430725E+03  0.52165175764E+03  0.12500000000E+03 0.  0.
         21    1    1    2  503  502  0.12833214359E+02  0.18963764616E+02  0.44934611471E+03  0.44992915728E+03  0.00000000000E+00 0. -1.
          2    1    1    2  501    0  0.21525981725E+03 -0.18047526365E+03  0.67579176885E+03  0.73184877164E+03  0.00000000000E+00 0. -1.
<mgrwt>
<rscale>  4 0.30619856E+03</rscale>
<asrwt>0</asrwt>
<pdfrwt beam="1">  1       21 0.76972778E-01 0.30619856E+03</pdfrwt>
<pdfrwt beam="2">  1        2 0.18509333E+00 0.30619856E+03</pdfrwt>
<totfact> 0.35644213E+02</totfact>
</mgrwt>
</event>
<event>
 5    0  0.1141006E+000  0.3699582E+03  0.7546771E-02  0.1054709E+00
         21   -1    0    0  501  502  0.00000000000E+00  0.00000000000E+00  0.58348869500E+03  0.58348869500E+03  0.00000000000E+00 0.  1.
          2   -1    0    0  503    0 -0.00000000000E+00 -0.00000000000E+00 -0.84455617806E+03  0.84455617806E+03  0.00000000000E+00 0. -1.
         25    1    1    2    0    0  0.14824480491E+03  0.31403847922E+03  0.46566460937E+03  0.59419291230E+03  0.12500000000E+03 0.  0.
         21    1    1    2  503  502  0.33195926132E+02 -0.26871693993E+01 -0.15925383064E+02  0.36916232431E+02  0.00000000000E+00 0.  1.
          2    1    1    2  501    0 -0.18144073104E+03 -0.31135130982E+03 -0.71080670937E+03  0.79693572833E+03  0.00000000000E+00 0. -1.
<mgrwt>
<rscale>  4 0.36995819E+03</rscale>
<asrwt>0</asrwt>
<pdfrwt beam="1">  1       21 0.89767492E-01 0.36995819E+03</pdfrwt>
<pdfrwt beam="2">  1        2 0.12993172E+00 0.36995819E+03</pdfrwt>
<totfact> 0.40509493E+02</totfact>
</mgrwt>
</event>
<event>
 5    0  0.1141006E+000  0.5553625E+03  0.7546771E-02  0.1000260E+00
         21   -1    0    0  501  502  0.00000000000E+00  0.00000000000E+00  0.16820894496E+04  0.16820894496E+04  0.00000000000E+00 0.  1.
          1   -1    0    0  503    0 -0.00000000000E+00 -0.00000000000E+00 -0.23541667520E+03  0.23541667520E+03  0.00000000000E+00 0. -1.
         25    1    1    2    0    0 -0.45078080161E+03  0.25587665564E+03  0.85524890199E+03  0.10078451659E+04  0.12500000000E+03 0.  0.
         21    1    1    2  503  502 -0.88361146282E+01  0.10228997281E+03  0.49769080842E+02  0.11409766373E+03  0.00000000000E+00 0. -1.
          1    1    1    2  501    0  0.45961691623E+03 -0.35816662845E+03  0.54165479153E+03  0.79556329517E+03  0.00000000000E+00 0. -1.
<mgrwt>
<rscale>  4 0.55536248E+03</rscale>
<asrwt>0</asrwt>
<pdfrwt beam="1">  1       21 0.25878299E+00 0.55536248E+03</pdfrwt>
<pdfrwt beam="2">  1        1 0.36217951E-01 0.55536248E+03</pdfrwt>
<totfact> 0.61648034E+01</totfact>
</mgrwt>
</event>
<event>
 5    0  0.1141006E+000  0.3324202E+03  0.7546771E-02  0.1070071E+00
         21   -1    0    0  501  502  0.00000000000E+00  0.00000000000E+00  0.11267339157E+04  0.11267339157E+04  0.00000000000E+00 0. -1.
          2   -1    0    0  503    0 -0.00000000000E+00 -0.00000000000E+00 -0.31747037955E+04  0.31747037955E+04  0.00000000000E+00 0.  1.
         25    1    1    2    0    0 -0.25302107326E+02 -0.30669887894E+03  0.10889134717E+04  0.11384471651E+04  0.12500000000E+03 0.  0.
         21    1    1    2  503  502 -0.45971256954E+01 -0.34889534851E+02 -0.86340614140E+02  0.93236874984E+02  0.00000000000E+00 0. -1.
          2    1    1    2  501    0  0.29899233021E+02  0.34158841379E+03 -0.30505427373E+04  0.30697536711E+04  0.00000000000E+00 0.  1.
<mgrwt>
<rscale>  4 0.33242016E+03</rscale>
<asrwt>0</asrwt>
<pdfrwt beam="1">  1       21 0.17334368E+00 0.33242016E+03</pdfrwt>
<pdfrwt beam="2">  1        2 0.48841597E+00 0.33242016E+03</pdfrwt>
<totfact> 0.36981335E+00</totfact>
</mgrwt>
</event>
<event>
 5    0  0.1141006E+000  0.2330876E+03  0.7546771E-02  0.1124485E+00
          1   -1    0    0  503    0 -0.00000000000E+00  0.00000000000E+00  0.34231219982E+03  0.34231219982E+03  0.00000000000E+00 0. -1.
         21   -1    0    0  501  502  0.00000000000E+00 -0.00000000000E+00 -0.17944685364E+03  0.17944685364E+03  0.00000000000E+00 0. -1.
         25    1    1    2    0    0 -0.19664158653E+03  0.57350797690E+02  0.14134289996E+03  0.27849567845E+03  0.12500000000E+03 0.  0.
         21    1    1    2  503  502  0.20459746847E+02  0.23720800195E+02  0.37269117132E+02  0.48685364277E+02  0.00000000000E+00 0. -1.
          1    1    1    2  501    0  0.17618183968E+03 -0.81071597885E+02 -0.15746670917E+02  0.19457801074E+03  0.00000000000E+00 0. -1.
<mgrwt>
<rscale>  4 0.23308756E+03</rscale>
<asrwt>0</asrwt>
<pdfrwt beam="1">  1       21 0.27607208E-01 0.23308756E+03</pdfrwt>
<pdfrwt beam="2">  1        1 0.52663415E-01 0.23308756E+03</pdfrwt>
<totfact> 0.10078728E+04</totfact>
</mgrwt>
</event>
<event>
 5    0  0.1141006E+000  0.3296175E+03  0.7546771E-02  0.1071306E+00
         -4   -1    0    0    0  501 -0.00000000000E+00  0.00000000000E+00  0.38129792995E+03  0.38129792995E+03  0.00000000000E+00 0. -1.
         21   -1    0    0  503  502  0.00000000000E+00 -0.00000000000E+00 -0.13074918795E+04  0.13074918795E+04  0.00000000000E+00 0.  1.
         25    1    1    2    0    0  0.23102432006E+03  0.20035906336E+03 -0.12140201963E+04  0.12581677264E+04  0.12500000000E+03 0.  0.
         21    1    1    2  503  501  0.39145512904E+01 -0.24790475882E+02  0.11297574906E+02  0.27523201213E+02  0.00000000000E+00 0.  1.
         -4    1    1    2    0  502 -0.23493887135E+03 -0.17556858748E+03  0.27652867184E+03  0.40309888183E+03  0.00000000000E+00 0. -1.
<mgrwt>
<rscale>  4 0.32961754E+03</rscale>
<asrwt>0</asrwt>
<pdfrwt beam="1">  1       21 0.20115260E+00 0.32961754E+03</pdfrwt>
<pdfrwt beam="2">  1       -4 0.58661220E-01 0.32961754E+03</pdfrwt>
<totfact> 0.14401527E+01</totfact>
</mgrwt>
</event>
<event>
 5    0  0.1141006E+000  0.3343827E+03  0.7546771E-02  0.1069214E+00
         21   -1    0    0  501  502  0.00000000000E+00  0.00000000000E+00  0.82081789349E+03  0.82081789349E+03  0.00000000000E+00 0. -1.
          2   -1    0    0  503    0 -0.00000000000E+00 -0.00000000000E+00 -0.61503916556E+03  0.61503916556E+03  0.00000000000E+00 0.  1.
         25    1    1    2    0    0 -0.16503151388E+03  0.26258602804E+03  0.73893030686E+03  0.81106708791E+03  0.12500000000E+03 0.  0.
         21    1    1    2  503  502  0.85518134569E+02 -0.70182990077E+02 -0.24960372548E+03  0.27302201964E+03  0.00000000000E+00 0.  1.
          2    1    1    2  501    0  0.79513379307E+02 -0.19240303797E+03 -0.28354785344E+03  0.35176795150E+03  0.00000000000E+00 0.  1.
<mgrwt>
<rscale>  4 0.33438275E+03</rscale>
<asrwt>0</asrwt>
<pdfrwt beam="1">  1       21 0.12627968E+00 0.33438275E+03</pdfrwt>
<pdfrwt beam="2">  1        2 0.94621410E-01 0.33438275E+03</pdfrwt>
<totfact> 0.26437639E+02</totfact>
</mgrwt>
</event>
<event>
 5    0  0.1141006E+000  0.2684488E+03  0.7546771E-02  0.1102171E+00
         -2   -1    0    0    0  501 -0.00000000000E+00  0.00000000000E+00  0.15966678811E+04  0.15966678811E+04  0.00000000000E+00 0. -1.
         21   -1    0    0  503  502  0.00000000000E+00 -0.00000000000E+00 -0.89080208863E+02  0.89080208863E+02  0.00000000000E+00 0. -1.
         25    1    1    2    0    0 -0.18889668013E+03 -0.13163920720E+03  0.19779959440E+03  0.32826896927E+03  0.12500000000E+03 0.  0.
         21    1    1    2  503  501 -0.42716657851E+02  0.13982971203E+02  0.59935858122E+03  0.60104155033E+03  0.00000000000E+00 0.  1.
         -2    1    1    2    0  502  0.23161333798E+03  0.11765623600E+03  0.71042949657E+03  0.75643757032E+03  0.00000000000E+00 0. -1.
<mgrwt>
<rscale>  4 0.26844878E+03</rscale>
<asrwt>0</asrwt>
<pdfrwt beam="1">  1       21 0.13704649E-01 0.26844878E+03</pdfrwt>
<pdfrwt beam="2">  1       -2 0.24564119E+00 0.26844878E+03</pdfrwt>
<totfact> 0.28544377E+02</totfact>
</mgrwt>
</event>
<event>
 5    0  0.1141006E+000  0.3676675E+03  0.7546771E-02  0.1055588E+00
         21   -1    0    0  503  502  0.00000000000E+00  0.00000000000E+00  0.70711698960E+03  0.70711698960E+03  0.00000000000E+00 0. -1.
         -4   -1    0    0    0  501 -0.00000000000E+00 -0.00000000000E+00 -0.89076315226E+03  0.89076315226E+03  0.00000000000E+00 0. -1.
         25    1    1    2    0    0  0.28786833003E+03  0.19227648368E+03  0.61706323435E+03  0.71849179313E+03  0.12500000000E+03 0.  0.
         21    1    1    2  503  501  0.67582223722E+01 -0.22307665203E+02 -0.57361476319E+02  0.61916431276E+02  0.00000000000E+00 0. -1.
         -4    1    1    2    0  502 -0.29462655241E+03 -0.16996881847E+03 -0.74334792069E+03  0.81747191746E+03  0.00000000000E+00 0. -1.
<mgrwt>
<rscale>  4 0.36766754E+03</rscale>
<asrwt>0</asrwt>
<pdfrwt beam="1">  1       21 0.10878723E+00 0.36766754E+03</pdfrwt>
<pdfrwt beam="2">  1       -4 0.13704048E+00 0.36766754E+03</pdfrwt>
<totfact> 0.10494613E+01</totfact>
</mgrwt>
</event>
<event>
 5    0  0.1141006E+000  0.3566508E+03  0.7546771E-02  0.1059918E+00
          1   -1    0    0  503    0 -0.00000000000E+00  0.00000000000E+00  0.29344251691E+04  0.29344251691E+04  0.00000000000E+00 0.  1.
         21   -1    0    0  501  502  0.00000000000E+00 -0.00000000000E+00 -0.48423108535E+03  0.48423108535E+03  0.00000000000E+00 0.  1.
         25    1    1    2    0    0  0.10524840529E+02  0.33395359808E+03 -0.40338661365E+03  0.53849933891E+03  0.12500000000E+03 0.  0.
         21    1    1    2  503  502 -0.54869860740E+02 -0.18711794660E+01  0.35706164406E+03  0.36125783118E+03  0.00000000000E+00 0. -1.
          1    1    1    2  501    0  0.44345020211E+02 -0.33208241861E+03  0.24965190533E+04  0.25188990844E+04  0.00000000000E+00 0.  1.
<mgrwt>
<rscale>  4 0.35665077E+03</rscale>
<asrwt>0</asrwt>
<pdfrwt beam="1">  1       21 0.74497092E-01 0.35665077E+03</pdfrwt>
<pdfrwt beam="2">  1        1 0.45145002E+00 0.35665077E+03</pdfrwt>
<totfact> 0.13031868E+01</totfact>
</mgrwt>
</event>
<event>
 5    0  0.1141006E+000  0.2558829E+03  0.7546771E-02  0.1109642E+00
         -3   -1    0    0    0  501 -0.00000000000E+00  0.00000000000E+00  0.15340023000E+04  0.15340023000E+04  0.00000000000E+00 0.  1.
         21   -1    0    0  503  502  0.00000000000E+00 -0.00000000000E+00 -0.16641133410E+03  0.16641133410E+03  0.00000000000E+00 0.  1.
         25    1    1    2    0    0 -0.22366481023E+03  0.31976314203E+02 -0.47986488869E+02  0.26263308078E+03  0.12500000000E+03 0.  0.
         21    1    1    2  503  501  0.28605595644E+02 -0.40175104912E+02  0.17049966858E+03  0.17748931276E+03  0.00000000000E+00 0.  1.
         -3    1    1    2    0  502  0.19505921459E+03  0.81987907089E+01  0.12450777862E+04  0.12602912406E+04  0.00000000000E+00 0.  1.
<mgrwt>
<rscale>  4 0.25588285E+03</rscale>
<asrwt>0</asrwt>
<pdfrwt beam="1">  1       21 0.25601745E-01 0.25588285E+03</pdfrwt>
<pdfrwt beam="2">  1       -3 0.23600034E+00 0.25588285E+03</pdfrwt>
<totfact> 0.69090763E+01</totfact>
</mgrwt>
</event>
<event>
 5    0  0.1141006E+000  0.3467220E+03  0.7546771E-02  0.1063969E+00
          1   -1    0    0  503    0 -0.00000000000E+00  0.00000000000E+00  0.15798139822E+04  0.15798139822E+04  0.00000000000E+00 0.  1.
         21   -1    0    0  501  502  0.00000000000E+00 -0.00000000000E+00 -0.76525639863E+03  0.76525639863E+03  0.00000000000E+00 0. -1.
         25    1    1    2    0    0 -0.26214616624E+03  0.18975089069E+03 -0.70314613556E+03  0.78406983167E+03  0.12500000000E+03 0.  0.
         21    1    1    2  503  502 -0.14277724568E+02 -0.33053122078E+02  0.68662309268E+02  0.77529833045E+02  0.00000000000E+00 0.  1.
          1    1    1    2  501    0  0.27642389081E+03 -0.15669776861E+03  0.14490414098E+04  0.14834707161E+04  0.00000000000E+00 0.  1.
<mgrwt>
<rscale>  4 0.34672196E+03</rscale>
<asrwt>0</asrwt>
<pdfrwt beam="1">  1       21 0.11773175E+00 0.34672196E+03</pdfrwt>
<pdfrwt beam="2">  1        1 0.24304830E+00 0.34672196E+03</pdfrwt>
<totfact> 0.35340404E+01</totfact>
</mgrwt>
</event>
<event>
 5    0  0.1141006E+000  0.3639684E+03  0.7546771E-02  0.1057024E+00
         21   -1    0    0  501  502  0.00000000000E+00  0.00000000000E+00  0.57697091041E+03  0.57697091041E+03  0.00000000000E+00 0. -1.
          1   -1    0    0  503    0 -0.00000000000E+00 -0.00000000000E+00 -0.10969442528E+04  0.10969442528E+04  0.00000000000E+00 0.  1.
         25    1    1    2    0    0 -0.22248215866E+03 -0.25957938132E+03  0.47309941891E+03  0.59693201145E+03  0.12500000000E+03 0.  0.
         21    1    1    2  503  502  0.36459772360E+02 -0.29956930284E+02 -0.34357201116E+02  0.58370796989E+02  0.00000000000E+00 0.  1.
          1    1    1    2  501    0  0.18602238630E+03  0.28953631160E+03 -0.95871556023E+03  0.10186123548E+04  0.00000000000E+00 0.  1.
<mgrwt>
<rscale>  4 0.36396835E+03</rscale>
<asrwt>0</asrwt>
<pdfrwt beam="1">  1       21 0.88764755E-01 0.36396835E+03</pdfrwt>
<pdfrwt beam="2">  1        1 0.16876066E+00 0.36396835E+03</pdfrwt>
<totfact> 0.14961331E+02</totfact>
</mgrwt>
</event>
<event>
 5    0  0.1141006E+000  0.2747260E+03  0.7546771E-02  0.1098605E+00
         21   -1    0    0  501  502  0.00000000000E+00  0.00000000000E+00  0.17835955326E+03  0.17835955326E+03  0.00000000000E+00 0. -1.
          2   -1    0    0  503    0 -0.00000000000E+00 -0.00000000000E+00 -0.38138012235E+04  0.38138012235E+04  0.00000000000E+00 0. -1.
         25    1    1    2    0    0  0.10305325077E+03  0.22112907205E+03  0.41885168534E+02  0.27730381596E+03  0.12500000000E+03 0.  0.
         21    1    1    2  503  502 -0.13675231680E+03  0.68374202241E+02 -0.23927815799E+04  0.23976613432E+04  0.00000000000E+00 0. -1.
          2    1    1    2  501    0  0.33699066025E+02 -0.28950327429E+03 -0.12845452589E+04  0.13171956176E+04  0.00000000000E+00 0. -1.
<mgrwt>
<rscale>  4 0.27472601E+03</rscale>
<asrwt>0</asrwt>
<pdfrwt beam="1">  1       21 0.27439932E-01 0.27472601E+03</pdfrwt>
<pdfrwt beam="2">  1        2 0.58673863E+00 0.27472601E+03</pdfrwt>
<totfact> 0.96368772E+01</totfact>
</mgrwt>
</event>
<event>
 5    0  0.1141006E+000  0.3051257E+03  0.7546771E-02  0.1082706E+00
          1   -1    0    0  503    0 -0.00000000000E+00  0.00000000000E+00  0.48019823409E+03  0.48019823409E+03  0.00000000000E+00 0.  1.
         21   -1    0    0  501  502  0.00000000000E+00 -0.00000000000E+00 -0.73240469150E+03  0.73240469150E+03  0.00000000000E+00 0.  1.
         25    1    1    2    0    0  0.28114911768E+03  0.35826649556E+02 -0.64172812707E+03  0.71257867234E+03  0.12500000000E+03 0.  0.
         21    1    1    2  503  502 -0.22800978379E+03 -0.72729905381E+02  0.24923225663E+03  0.34553555300E+03  0.00000000000E+00 0.  1.
          1    1    1    2  501    0 -0.53139333888E+02  0.36903255825E+02  0.14028941304E+03  0.15448870026E+03  0.00000000000E+00 0.  1.
<mgrwt>
<rscale>  4 0.30512575E+03</rscale>
<asrwt>0</asrwt>
<pdfrwt beam="1">  1       21 0.11267764E+00 0.30512575E+03</pdfrwt>
<pdfrwt beam="2">  1        1 0.73876652E-01 0.30512575E+03</pdfrwt>
<totfact> 0.30462862E+02</totfact>
</mgrwt>
</event>
<event>
 5    0  0.1141006E+000  0.4111971E+03  0.7546771E-02  0.1039970E+00
          2   -1    0    0  503    0 -0.00000000000E+00  0.00000000000E+00  0.23092107855E+04  0.23092107855E+04  0.00000000000E+00 0.  1.
         21   -1    0    0  501  502  0.00000000000E+00 -0.00000000000E+00 -0.38403201111E+03  0.38403201111E+03  0.00000000000E+00 0.  1.
         25    1    1    2    0    0  0.38016593693E+03  0.22396549523E+02 -0.20350646424E+03  0.44951932775E+03  0.12500000000E+03 0.  0.
         21    1    1    2  503  502  0.11473764268E+03  0.87614943717E+02  0.94602457280E+03  0.95697627836E+03  0.00000000000E+00 0. -1.
          2    1    1    2  501    0 -0.49490357961E+03 -0.11001149324E+03  0.11826606658E+04  0.12867471905E+04  0.00000000000E+00 0.  1.
<mgrwt>
<rscale>  4 0.41119710E+03</rscale>
<asrwt>0</asrwt>
<pdfrwt beam="1">  1       21 0.59081849E-01 0.41119710E+03</pdfrwt>
<pdfrwt beam="2">  1        2 0.35526319E+00 0.41119710E+03</pdfrwt>
<totfact> 0.15454468E+02</totfact>
</mgrwt>
</event>
<event>
 5    0  0.1141006E+000  0.3786330E+03  0.7546771E-02  0.1051440E+00
         21   -1    0    0  501  502  0.00000000000E+00  0.00000000000E+00  0.20417095564E+03  0.20417095564E+03  0.00000000000E+00 0.  1.
          2   -1    0    0  503    0 -0.00000000000E+00 -0.00000000000E+00 -0.98763000941E+03  0.98763000941E+03  0.00000000000E+00 0.  1.
         25    1    1    2    0    0  0.16962760501E+03 -0.28962985429E+03 -0.55480389578E+03  0.66037212210E+03  0.12500000000E+03 0.  0.
         21    1    1    2  503  502 -0.45742158004E+02 -0.56454081704E+02 -0.13307110596E+03  0.15161572346E+03  0.00000000000E+00 0.  1.
          2    1    1    2  501    0 -0.12388544700E+03  0.34608393600E+03 -0.95584052033E+02  0.37981311949E+03  0.00000000000E+00 0.  1.
<mgrwt>
<rscale>  4 0.37863301E+03</rscale>
<asrwt>0</asrwt>
<pdfrwt beam="1">  1       21 0.31410916E-01 0.37863301E+03</pdfrwt>
<pdfrwt beam="2">  1        2 0.15194308E+00 0.37863301E+03</pdfrwt>
<totfact> 0.31163169E+03</totfact>
</mgrwt>
</event>
<event>
 5    0  0.1141006E+000  0.5274270E+03  0.7546771E-02  0.1006858E+00
         21   -1    0    0  503  502  0.00000000000E+00  0.00000000000E+00  0.77275567642E+03  0.77275567642E+03  0.00000000000E+00 0.  1.
         -3   -1    0    0    0  501 -0.00000000000E+00 -0.00000000000E+00 -0.14412871667E+04  0.14412871667E+04  0.00000000000E+00 0.  1.
         25    1    1    2    0    0  0.47047719953E+03  0.16952098399E+03  0.55437938929E+03  0.75699911926E+03  0.12500000000E+03 0.  0.
         21    1    1    2  503  501  0.12602015592E+03  0.70561165704E+01 -0.43621609524E+03  0.45410940337E+03  0.00000000000E+00 0.  1.
         -3    1    1    2    0  502 -0.59649735545E+03 -0.17657710056E+03 -0.78669478431E+03  0.10029343205E+04  0.00000000000E+00 0.  1.
<mgrwt>
<rscale>  4 0.52742700E+03</rscale>
<asrwt>0</asrwt>
<pdfrwt beam="1">  1       21 0.11888549E+00 0.52742700E+03</pdfrwt>
<pdfrwt beam="2">  1       -3 0.22173648E+00 0.52742700E+03</pdfrwt>
<totfact> 0.26918593E+00</totfact>
</mgrwt>
</event>
<event>
 5    0  0.1141006E+000  0.3683136E+03  0.7546771E-02  0.1055340E+00
          2   -1    0    0  503    0 -0.00000000000E+00  0.00000000000E+00  0.14447586928E+04  0.14447586928E+04  0.00000000000E+00 0. -1.
         21   -1    0    0  501  502  0.00000000000E+00 -0.00000000000E+00 -0.28582213337E+03  0.28582213337E+03  0.00000000000E+00 0. -1.
         25    1    1    2    0    0  0.10287419319E+03  0.32989362183E+03 -0.12413837740E+03  0.38787657585E+03  0.12500000000E+03 0.  0.
         21    1    1    2  503  502 -0.24567955611E+02  0.17438915958E+02  0.42841560420E+02  0.52374607701E+02  0.00000000000E+00 0.  1.
          2    1    1    2  501    0 -0.78306237575E+02 -0.34733253779E+03  0.12402333764E+04  0.12903296426E+04  0.00000000000E+00 0. -1.
<mgrwt>
<rscale>  4 0.36831356E+03</rscale>
<asrwt>0</asrwt>
<pdfrwt beam="1">  1       21 0.43972637E-01 0.36831356E+03</pdfrwt>
<pdfrwt beam="2">  1        2 0.22227056E+00 0.36831356E+03</pdfrwt>
<totfact> 0.85810942E+02</totfact>
</mgrwt>
</event>
<event>
 5    0  0.1141006E+000  0.5050481E+03  0.7546771E-02  0.1012470E+00
          1   -1    0    0  503    0 -0.00000000000E+00  0.00000000000E+00  0.49724170344E+03  0.49724170344E+03  0.00000000000E+00 0. -1.
         21   -1    0    0  501  502  0.00000000000E+00 -0.00000000000E+00 -0.55087874974E+03  0.55087874974E+03  0.00000000000E+00 0.  1.
         25    1    1    2    0    0  0.30921822523E+03  0.38309888166E+03 -0.15257672079E+03  0.53036338454E+03  0.12500000000E+03 0.  0.
         21    1    1    2  503  502  0.10242999662E+02 -0.18159486636E+02  0.14635445654E+02  0.25473167578E+02  0.00000000000E+00 0.  1.
          1    1    1    2  501    0 -0.31946122489E+03 -0.36493939502E+03  0.84304228828E+02  0.49228390106E+03  0.00000000000E+00 0. -1.
<mgrwt>
<rscale>  4 0.50504812E+03</rscale>
<asrwt>0</asrwt>
<pdfrwt beam="1">  1       21 0.84750577E-01 0.50504812E+03</pdfrwt>
<pdfrwt beam="2">  1        1 0.76498724E-01 0.50504812E+03</pdfrwt>
<totfact> 0.54211469E+02</totfact>
</mgrwt>
</event>
<event>
 5    0  0.1141006E+000  0.2565608E+03  0.7546771E-02  0.1109227E+00
          2   -1    0    0  503    0 -0.00000000000E+00  0.00000000000E+00  0.15047913263E+04  0.15047913263E+04  0.00000000000E+00 0. -1.
         21   -1    0    0  501  502  0.00000000000E+00 -0.00000000000E+00 -0.12746889366E+03  0.12746889366E+03  0.00000000000E+00 0.  1.
         25    1    1    2    0    0 -0.22347428025E+03 -0.16052318591E+02  0.21826817379E+02  0.25748755469E+03  0.12500000000E+03 0.  0.
         21    1    1    2  503  502  0.43207433685E+02  0.23131302251E+02  0.28877667528E+03  0.29290597067E+03  0.00000000000E+00 0. -1.
          2    1    1    2  501    0  0.18026684656E+03 -0.70789836594E+01  0.10667189400E+04  0.10818666946E+04  0.00000000000E+00 0. -1.
<mgrwt>
<rscale>  4 0.25656077E+03</rscale>
<asrwt>0</asrwt>
<pdfrwt beam="1">  1       21 0.19610600E-01 0.25656077E+03</pdfrwt>
<pdfrwt beam="2">  1        2 0.23150635E+00 0.25656077E+03</pdfrwt>
<totfact> 0.40656415E+03</totfact>
</mgrwt>
</event>
<event>
 5    0  0.1141006E+000  0.2669135E+03  0.7546771E-02  0.1103059E+00
         21   -1    0    0  503  502  0.00000000000E+00  0.00000000000E+00  0.17835537762E+04  0.17835537762E+04  0.00000000000E+00 0. -1.
         -3   -1    0    0    0  501 -0.00000000000E+00 -0.00000000000E+00 -0.17226174666E+03  0.17226174666E+03  0.00000000000E+00 0. -1.
         25    1    1    2    0    0 -0.81811070381E+02  0.24405719448E+03  0.16047498326E+04  0.16300625726E+04  0.12500000000E+03 0.  0.
         21    1    1    2  503  501  0.13961557424E+02 -0.16045829851E+03  0.94485896046E+02  0.18673343353E+03  0.00000000000E+00 0. -1.
         -3    1    1    2    0  502  0.67849512957E+02 -0.83598895970E+02 -0.87943699110E+02  0.13901951672E+03  0.00000000000E+00 0. -1.
<mgrwt>
<rscale>  4 0.26691352E+03</rscale>
<asrwt>0</asrwt>
<pdfrwt beam="1">  1       21 0.27439288E+00 0.26691352E+03</pdfrwt>
<pdfrwt beam="2">  1       -3 0.26501808E-01 0.26691352E+03</pdfrwt>
<totfact> 0.30185481E+01</totfact>
</mgrwt>
</event>
<event>
 5    0  0.1141006E+000  0.3129829E+03  0.7546771E-02  0.1078925E+00
          2   -1    0    0  503    0 -0.00000000000E+00  0.00000000000E+00  0.71927665854E+03  0.71927665854E+03  0.00000000000E+00 0.  1.
         21   -1    0    0  501  502  0.00000000000E+00 -0.00000000000E+00 -0.21312603895E+03  0.21312603895E+03  0.00000000000E+00 0. -1.
         25    1    1    2    0    0  0.23705093910E+03  0.16857758587E+03 -0.22230105769E+02  0.31738104509E+03  0.12500000000E+03 0.  0.
         21    1    1    2  503  502  0.52794853818E+01 -0.37272290924E+02  0.84908309687E+02  0.92879048717E+02  0.00000000000E+00 0. -1.
          2    1    1    2  501    0 -0.24233042448E+03 -0.13130529494E+03  0.44347241567E+03  0.52214260367E+03  0.00000000000E+00 0.  1.
<mgrwt>
<rscale>  4 0.31298290E+03</rscale>
<asrwt>0</asrwt>
<pdfrwt beam="1">  1       21 0.32788622E-01 0.31298290E+03</pdfrwt>
<pdfrwt beam="2">  1        2 0.11065795E+00 0.31298290E+03</pdfrwt>
<totfact> 0.44194108E+03</totfact>
</mgrwt>
</event>
<event>
 5    0  0.1141006E+000  0.2447574E+03  0.7546771E-02  0.1116664E+00
          1   -1    0    0  503    0 -0.00000000000E+00  0.00000000000E+00  0.41490220670E+04  0.41490220670E+04  0.00000000000E+00 0. -1.
         21   -1    0    0  501  502  0.00000000000E+00 -0.00000000000E+00 -0.35123711416E+02  0.35123711416E+02  0.00000000000E+00 0. -1.
         25    1    1    2    0    0  0.20946229534E+03  0.16772488060E+02  0.47767147193E+03  0.53661047755E+03  0.12500000000E+03 0.  0.
         21    1    1    2  503  502 -0.48360037466E+01  0.63037203192E+02  0.11001634769E+04  0.11019785623E+04  0.00000000000E+00 0.  1.
          1    1    1    2  501    0 -0.20462629160E+03 -0.79809691252E+02  0.25360634067E+04  0.25455567385E+04  0.00000000000E+00 0. -1.
<mgrwt>
<rscale>  4 0.24475739E+03</rscale>
<asrwt>0</asrwt>
<pdfrwt beam="1">  1       21 0.54036512E-02 0.24475739E+03</pdfrwt>
<pdfrwt beam="2">  1        1 0.63831070E+00 0.24475739E+03</pdfrwt>
<totfact> 0.24966343E+02</totfact>
</mgrwt>
</event>
<event>
 5    0  0.1141006E+000  0.2455322E+03  0.7546771E-02  0.1116161E+00
          2   -1    0    0  503    0 -0.00000000000E+00  0.00000000000E+00  0.81314697578E+03  0.81314697578E+03  0.00000000000E+00 0.  1.
         21   -1    0    0  501  502  0.00000000000E+00 -0.00000000000E+00 -0.12964898060E+03  0.12964898060E+03  0.00000000000E+00 0. -1.
         25    1    1    2    0    0 -0.11017731181E+03 -0.18033860938E+03  0.23707306342E+02  0.24667405710E+03  0.12500000000E+03 0.  0.
         21    1    1    2  503  502  0.49406133144E+02  0.47825200531E+02  0.30284586172E+03  0.31055407220E+03  0.00000000000E+00 0.  1.
          2    1    1    2  501    0  0.60771178663E+02  0.13251340885E+03  0.35694482711E+03  0.38556782709E+03  0.00000000000E+00 0.  1.
<mgrwt>
<rscale>  4 0.24553219E+03</rscale>
<asrwt>0</asrwt>
<pdfrwt beam="1">  1       21 0.19945998E-01 0.24553219E+03</pdfrwt>
<pdfrwt beam="2">  1        2 0.12509953E+00 0.24553219E+03</pdfrwt>
<totfact> 0.10056076E+04</totfact>
</mgrwt>
</event>
<event>
 5    0  0.1141006E+000  0.4722486E+03  0.7546771E-02  0.1021287E+00
          1   -1    0    0  503    0 -0.00000000000E+00  0.00000000000E+00  0.12474673732E+04  0.12474673732E+04  0.00000000000E+00 0. -1.
         21   -1    0    0  501  502  0.00000000000E+00 -0.00000000000E+00 -0.39191410712E+03  0.39191410712E+03  0.00000000000E+00 0.  1.
         25    1    1    2    0    0  0.27925829600E+03 -0.35949694250E+03 -0.15543473346E+03  0.49699919911E+03  0.12500000000E+03 0.  0.
         21    1    1    2  503  502  0.56035675631E+02  0.43095835543E+02  0.14584570494E+03  0.16207472855E+03  0.00000000000E+00 0. -1.
          1    1    1    2  501    0 -0.33529397163E+03  0.31640110696E+03  0.86514229455E+03  0.98030755262E+03  0.00000000000E+00 0. -1.
<mgrwt>
<rscale>  4 0.47224860E+03</rscale>
<asrwt>0</asrwt>
<pdfrwt beam="1">  1       21 0.60294479E-01 0.47224860E+03</pdfrwt>
<pdfrwt beam="2">  1        1 0.19191805E+00 0.47224860E+03</pdfrwt>
<totfact> 0.26985032E+02</totfact>
</mgrwt>
</event>
<event>
 5    0  0.1141006E+000  0.2473587E+03  0.7546771E-02  0.1114985E+00
          1   -1    0    0  503    0 -0.00000000000E+00  0.00000000000E+00  0.14544608253E+04  0.14544608253E+04  0.00000000000E+00 0. -1.
         21   -1    0    0  501  502  0.00000000000E+00 -0.00000000000E+00 -0.43299607438E+02  0.43299607438E+02  0.00000000000E+00 0. -1.
         25    1    1    2    0    0  0.18399144054E+03  0.12204212114E+03  0.60626943437E+03  0.65721743477E+03  0.12500000000E+03 0.  0.
         21    1    1    2  503  502  0.16487252860E+01 -0.30913402677E+02  0.17072714043E+03  0.17351113290E+03  0.00000000000E+00 0. -1.
          1    1    1    2  501    0 -0.18564016583E+03 -0.91128718459E+02  0.63416464301E+03  0.66703186502E+03  0.00000000000E+00 0. -1.
<mgrwt>
<rscale>  4 0.24735875E+03</rscale>
<asrwt>0</asrwt>
<pdfrwt beam="1">  1       21 0.66614792E-02 0.24735875E+03</pdfrwt>
<pdfrwt beam="2">  1        1 0.22376317E+00 0.24735875E+03</pdfrwt>
<totfact> 0.14133187E+04</totfact>
</mgrwt>
</event>
<event>
 5    0  0.1141006E+000  0.3071097E+03  0.7546771E-02  0.1081740E+00
          1   -1    0    0  503    0 -0.00000000000E+00  0.00000000000E+00  0.16736459019E+03  0.16736459019E+03  0.00000000000E+00 0.  1.
         21   -1    0    0  501  502  0.00000000000E+00 -0.00000000000E+00 -0.14648550633E+04  0.14648550633E+04  0.00000000000E+00 0. -1.
         25    1    1    2    0    0  0.20264794484E+03  0.19130300354E+03 -0.11576681898E+04  0.11972817824E+04  0.12500000000E+03 0.  0.
         21    1    1    2  503  502 -0.63153714593E+02  0.78277461777E+02  0.40719884924E+00  0.10057792253E+03  0.00000000000E+00 0.  1.
          1    1    1    2  501    0 -0.13949423025E+03 -0.26958046531E+03 -0.14022948214E+03  0.33435994857E+03  0.00000000000E+00 0.  1.
<mgrwt>
<rscale>  4 0.30710971E+03</rscale>
<asrwt>0</asrwt>
<pdfrwt beam="1">  1       21 0.22536231E+00 0.30710971E+03</pdfrwt>
<pdfrwt beam="2">  1        1 0.25748399E-01 0.30710971E+03</pdfrwt>
<totfact> 0.17125178E+02</totfact>
</mgrwt>
</event>
<event>
 5    0  0.1141006E+000  0.1908875E+03  0.7546771E-02  0.1178197E+00
         21   -1    0    0  503  502  0.00000000000E+00  0.00000000000E+00  0.29959536369E+03  0.29959536369E+03  0.00000000000E+00 0. -1.
         -2   -1    0    0    0  501 -0.00000000000E+00 -0.00000000000E+00 -0.35457919582E+03  0.35457919582E+03  0.00000000000E+00 0.  1.
         25    1    1    2    0    0  0.18246811016E+03  0.97284279127E+02  0.86527913763E+02  0.25665331101E+03  0.12500000000E+03 0.  0.
         21    1    1    2  503  501 -0.25877361860E+03 -0.31126251943E+02 -0.14141019887E+03  0.29652904341E+03  0.00000000000E+00 0.  1.
         -2    1    1    2    0  502  0.76305508435E+02 -0.66158027183E+02 -0.10154703067E+00  0.10099220510E+03  0.00000000000E+00 0.  1.
<mgrwt>
<rscale>  4 0.16966526E+03</rscale>
<asrwt>0</asrwt>
<pdfrwt beam="1">  1       21 0.46091594E-01 0.19088746E+03</pdfrwt>
<pdfrwt beam="2">  1       -2 0.54550645E-01 0.19088746E+03</pdfrwt>
<totfact> 0.11802758E+03</totfact>
</mgrwt>
</event>
<event>
 5    0  0.1141006E+000  0.3459265E+03  0.7546771E-02  0.1064299E+00
          2   -1    0    0  503    0 -0.00000000000E+00  0.00000000000E+00  0.12732462099E+04  0.12732462099E+04  0.00000000000E+00 0. -1.
         21   -1    0    0  501  502  0.00000000000E+00 -0.00000000000E+00 -0.12428735370E+03  0.12428735370E+03  0.00000000000E+00 0.  1.
         25    1    1    2    0    0  0.18498316167E+03  0.24815094564E+03  0.29938189109E+03  0.44838842385E+03  0.12500000000E+03 0.  0.
         21    1    1    2  503  502 -0.24082814522E+02  0.65554025745E+02  0.11986942378E+03  0.13872992109E+03  0.00000000000E+00 0.  1.
          2    1    1    2  501    0 -0.16090034715E+03 -0.31370497139E+03  0.72970754136E+03  0.81041521870E+03  0.00000000000E+00 0. -1.
<mgrwt>
<rscale>  4 0.34592649E+03</rscale>
<asrwt>0</asrwt>
<pdfrwt beam="1">  1       21 0.19121132E-01 0.34592649E+03</pdfrwt>
<pdfrwt beam="2">  1        2 0.19588402E+00 0.34592649E+03</pdfrwt>
<totfact> 0.55607339E+03</totfact>
</mgrwt>
</event>
<event>
 5    0  0.1141006E+000  0.2787595E+03  0.7546771E-02  0.1096368E+00
         21   -1    0    0  503  502  0.00000000000E+00  0.00000000000E+00  0.40932547700E+02  0.40932547700E+02  0.00000000000E+00 0. -1.
         -4   -1    0    0    0  501 -0.00000000000E+00 -0.00000000000E+00 -0.29528511899E+04  0.29528511899E+04  0.00000000000E+00 0. -1.
         25    1    1    2    0    0  0.26902755888E+03  0.51518099553E+02 -0.11686160214E+04  0.12067801571E+04  0.12500000000E+03 0.  0.
         21    1    1    2  503  501 -0.35167417445E+02 -0.21089694091E+02 -0.11173018882E+04  0.11180541274E+04  0.00000000000E+00 0.  1.
         -4    1    1    2    0  502 -0.23386014143E+03 -0.30428405462E+02 -0.62600073253E+03  0.66894945305E+03  0.00000000000E+00 0. -1.
<mgrwt>
<rscale>  4 0.27875949E+03</rscale>
<asrwt>0</asrwt>
<pdfrwt beam="1">  1       21 0.62973137E-02 0.27875949E+03</pdfrwt>
<pdfrwt beam="2">  1       -4 0.45428489E+00 0.27875949E+03</pdfrwt>
<totfact> 0.27240995E+01</totfact>
</mgrwt>
</event>
<event>
 5    0  0.1141006E+000  0.2747949E+03  0.7546771E-02  0.1098566E+00
         21   -1    0    0  501  502  0.00000000000E+00  0.00000000000E+00  0.13346363471E+03  0.13346363471E+03  0.00000000000E+00 0. -1.
          2   -1    0    0  503    0 -0.00000000000E+00 -0.00000000000E+00 -0.82227546222E+03  0.82227546222E+03  0.00000000000E+00 0. -1.
         25    1    1    2    0    0  0.22838870287E+03  0.10210818970E+03 -0.86455085217E+02  0.29272335704E+03  0.12500000000E+03 0.  0.
         21    1    1    2  503  502 -0.37336734501E+01 -0.44927484474E+02 -0.90259861886E+02  0.10089232799E+03  0.00000000000E+00 0. -1.
          2    1    1    2  501    0 -0.22465502942E+03 -0.57180705224E+02 -0.51209688040E+03  0.56212341190E+03  0.00000000000E+00 0. -1.
<mgrwt>
<rscale>  4 0.27479488E+03</rscale>
<asrwt>0</asrwt>
<pdfrwt beam="1">  1       21 0.20532866E-01 0.27479488E+03</pdfrwt>
<pdfrwt beam="2">  1        2 0.12650392E+00 0.27479488E+03</pdfrwt>
<totfact> 0.93229134E+03</totfact>
</mgrwt>
</event>
<event>
 5    0  0.1141006E+000  0.3519415E+03  0.7546771E-02  0.1061821E+00
          2   -1    0    0  503    0 -0.00000000000E+00  0.00000000000E+00  0.10489936950E+04  0.10489936950E+04  0.00000000000E+00 0.  1.
         21   -1    0    0  501  502  0.00000000000E+00 -0.00000000000E+00 -0.20276235968E+03  0.20276235968E+03  0.00000000000E+00 0.  1.
         25    1    1    2    0    0  0.23819428003E+02 -0.32321801370E+03  0.17028289843E+03  0.38685722822E+03  0.12500000000E+03 0.  0.
         21    1    1    2  503  502 -0.24658390417E+02 -0.11505923316E+02  0.47231595255E+03  0.47309912441E+03  0.00000000000E+00 0.  1.
          2    1    1    2  501    0  0.83896241417E+00  0.33472393701E+03  0.20363248439E+03  0.39179970210E+03  0.00000000000E+00 0.  1.
<mgrwt>
<rscale>  4 0.35194146E+03</rscale>
<asrwt>0</asrwt>
<pdfrwt beam="1">  1       21 0.31194210E-01 0.35194146E+03</pdfrwt>
<pdfrwt beam="2">  1        2 0.16138364E+00 0.35194146E+03</pdfrwt>
<totfact> 0.29149200E+03</totfact>
</mgrwt>
</event>
<event>
 5    0  0.1141006E+000  0.2444397E+03  0.7546771E-02  0.1116870E+00
          2   -1    0    0  503    0 -0.00000000000E+00  0.00000000000E+00  0.13136092138E+04  0.13136092138E+04  0.00000000000E+00 0. -1.
         21   -1    0    0  501  502  0.00000000000E+00 -0.00000000000E+00 -0.18990198004E+03  0.18990198004E+03  0.00000000000E+00 0. -1.
         25    1    1    2    0    0 -0.18542828690E+03  0.82278560956E+02 -0.59401722479E+02  0.24557478659E+03  0.12500000000E+03 0.  0.
         21    1    1    2  503  502 -0.10221171649E+03 -0.11222104331E+02  0.14090039756E+03  0.17443076749E+03  0.00000000000E+00 0. -1.
          2    1    1    2  501    0  0.28764000340E+03 -0.71056456625E+02  0.10422085587E+04  0.10835056397E+04  0.00000000000E+00 0. -1.
<mgrwt>
<rscale>  4 0.24443972E+03</rscale>
<asrwt>0</asrwt>
<pdfrwt beam="1">  1       21 0.29215690E-01 0.24443972E+03</pdfrwt>
<pdfrwt beam="2">  1        2 0.20209372E+00 0.24443972E+03</pdfrwt>
<totfact> 0.24187487E+03</totfact>
</mgrwt>
</event>
<event>
 5    0  0.1141006E+000  0.5482653E+03  0.7546771E-02  0.1001896E+00
          2   -1    0    0  503    0 -0.00000000000E+00  0.00000000000E+00  0.12799745171E+04  0.12799745171E+04  0.00000000000E+00 0.  1.
         21   -1    0    0  501  502  0.00000000000E+00 -0.00000000000E+00 -0.74915227978E+03  0.74915227978E+03  0.00000000000E+00 0. -1.
         25    1    1    2    0    0  0.41455133993E+03 -0.33148697246E+03 -0.55911495383E+03  0.78100637510E+03  0.12500000000E+03 0.  0.
         21    1    1    2  503  502  0.12738200289E+02 -0.37850681178E+02  0.43899403222E+02  0.59347227530E+02  0.00000000000E+00 0.  1.
          2    1    1    2  501    0 -0.42728954021E+03  0.36933765364E+03  0.10460377879E+04  0.11887731942E+04  0.00000000000E+00 0.  1.
<mgrwt>
<rscale>  4 0.54826531E+03</rscale>
<asrwt>0</asrwt>
<pdfrwt beam="1">  1       21 0.11525420E+00 0.54826531E+03</pdfrwt>
<pdfrwt beam="2">  1        2 0.19691916E+00 0.54826531E+03</pdfrwt>
<totfact> 0.11198794E+02</totfact>
</mgrwt>
</event>
<event>
 5    0  0.1141006E+000  0.2348151E+03  0.7546771E-02  0.1123296E+00
         21   -1    0    0  501  502  0.00000000000E+00  0.00000000000E+00  0.54636434764E+03  0.54636434764E+03  0.00000000000E+00 0.  1.
          2   -1    0    0  503    0 -0.00000000000E+00 -0.00000000000E+00 -0.34838435538E+03  0.34838435538E+03  0.00000000000E+00 0. -1.
         25    1    1    2    0    0  0.14087946267E+03  0.14285107514E+03  0.46337464894E+03  0.52018700286E+03  0.12500000000E+03 0.  0.
         21    1    1    2  503  502  0.22869254843E+02 -0.42953134048E+02 -0.13264669941E+03  0.14129091056E+03  0.00000000000E+00 0.  1.
          2    1    1    2  501    0 -0.16374871751E+03 -0.99897941093E+02 -0.13274795727E+03  0.23327078960E+03  0.00000000000E+00 0. -1.
<mgrwt>
<rscale>  4 0.23481507E+03</rscale>
<asrwt>0</asrwt>
<pdfrwt beam="1">  1       21 0.84056054E-01 0.23481507E+03</pdfrwt>
<pdfrwt beam="2">  1        2 0.53597593E-01 0.23481507E+03</pdfrwt>
<totfact> 0.13931416E+03</totfact>
</mgrwt>
</event>
<event>
 5    0  0.1141006E+000  0.2511122E+03  0.7546771E-02  0.1112604E+00
         21   -1    0    0  501  502  0.00000000000E+00  0.00000000000E+00  0.20890295403E+03  0.20890295403E+03  0.00000000000E+00 0.  1.
          1   -1    0    0  503    0 -0.00000000000E+00 -0.00000000000E+00 -0.58157967983E+03  0.58157967983E+03  0.00000000000E+00 0.  1.
         25    1    1    2    0    0 -0.20362005608E+03 -0.50473854118E+02  0.65452324840E+02  0.25281958787E+03  0.12500000000E+03 0.  0.
         21    1    1    2  503  502  0.88175808836E+01 -0.51719888736E+02 -0.60567665397E+01  0.52814591207E+02  0.00000000000E+00 0.  1.
          1    1    1    2  501    0  0.19480247519E+03  0.10219374285E+03 -0.43207228410E+03  0.48484845478E+03  0.00000000000E+00 0.  1.
<mgrwt>
<rscale>  4 0.25111219E+03</rscale>
<asrwt>0</asrwt>
<pdfrwt beam="1">  1       21 0.32138916E-01 0.25111219E+03</pdfrwt>
<pdfrwt beam="2">  1        1 0.89473797E-01 0.25111219E+03</pdfrwt>
<totfact> 0.37211802E+03</totfact>
</mgrwt>
</event>
<event>
 5    0  0.1141006E+000  0.2789442E+03  0.7546771E-02  0.1096267E+00
         21   -1    0    0  503  502  0.00000000000E+00  0.00000000000E+00  0.93363578565E+03  0.93363578565E+03  0.00000000000E+00 0.  1.
         -1   -1    0    0    0  501 -0.00000000000E+00 -0.00000000000E+00 -0.35358696415E+03  0.35358696415E+03  0.00000000000E+00 0.  1.
         25    1    1    2    0    0  0.70365288794E+02  0.24495190656E+03  0.83252770161E+03  0.87959086190E+03  0.12500000000E+03 0.  0.
         21    1    1    2  503  501 -0.32122037527E+02 -0.34049217833E+02 -0.17268839804E+03  0.17892025416E+03  0.00000000000E+00 0.  1.
         -1    1    1    2    0  502 -0.38243251267E+02 -0.21090268873E+03 -0.79790482064E+02  0.22871163374E+03  0.00000000000E+00 0.  1.
<mgrwt>
<rscale>  4 0.27894417E+03</rscale>
<asrwt>0</asrwt>
<pdfrwt beam="1">  1       21 0.14363627E+00 0.27894417E+03</pdfrwt>
<pdfrwt beam="2">  1       -1 0.54397995E-01 0.27894417E+03</pdfrwt>
<totfact> 0.10295553E+02</totfact>
</mgrwt>
</event>
<event>
 5    0  0.1141006E+000  0.2425293E+03  0.7546771E-02  0.1118119E+00
         21   -1    0    0  501  502  0.00000000000E+00  0.00000000000E+00  0.39964944958E+03  0.39964944958E+03  0.00000000000E+00 0. -1.
          2   -1    0    0  503    0 -0.00000000000E+00 -0.00000000000E+00 -0.28657144670E+03  0.28657144670E+03  0.00000000000E+00 0. -1.
         25    1    1    2    0    0  0.22635893845E+03  0.12064357305E+03 -0.73860596999E+01  0.28543439634E+03  0.12500000000E+03 0.  0.
         21    1    1    2  503  502 -0.59206668988E+02 -0.19664645630E+02 -0.92670632668E+02  0.11171380443E+03  0.00000000000E+00 0. -1.
          2    1    1    2  501    0 -0.16715226946E+03 -0.10097892742E+03  0.21313469525E+03  0.28907269551E+03  0.00000000000E+00 0. -1.
<mgrwt>
<rscale>  4 0.24252932E+03</rscale>
<asrwt>0</asrwt>
<pdfrwt beam="1">  1       21 0.61484530E-01 0.24252932E+03</pdfrwt>
<pdfrwt beam="2">  1        2 0.44087915E-01 0.24252932E+03</pdfrwt>
<totfact> 0.34444446E+03</totfact>
</mgrwt>
</event>
<event>
 5    0  0.1141006E+000  0.3508232E+03  0.7546771E-02  0.1062278E+00
          1   -1    0    0  503    0 -0.00000000000E+00  0.00000000000E+00  0.65234547965E+03  0.65234547965E+03  0.00000000000E+00 0.  1.
         21   -1    0    0  501  502  0.00000000000E+00 -0.00000000000E+00 -0.15643133113E+04  0.15643133113E+04  0.00000000000E+00 0.  1.
         25    1    1    2    0    0  0.29486259185E+03 -0.17384568071E+03 -0.12093966029E+04  0.12631038801E+04  0.12500000000E+03 0.  0.
         21    1    1    2  503  502 -0.55530383324E-01  0.11089609441E+03  0.54951313529E+03  0.56059132414E+03  0.00000000000E+00 0.  1.
          1    1    1    2  501    0 -0.29480706147E+03  0.62949586303E+02 -0.25208436406E+03  0.39296358675E+03  0.00000000000E+00 0.  1.
<mgrwt>
<rscale>  4 0.35082319E+03</rscale>
<asrwt>0</asrwt>
<pdfrwt beam="1">  1       21 0.24066358E+00 0.35082319E+03</pdfrwt>
<pdfrwt beam="2">  1        1 0.10036084E+00 0.35082319E+03</pdfrwt>
<totfact> 0.22755967E+01</totfact>
</mgrwt>
</event>
<event>
 5    0  0.1141006E+000  0.2576254E+03  0.7546771E-02  0.1108578E+00
         21   -1    0    0  501  502  0.00000000000E+00  0.00000000000E+00  0.15644747133E+03  0.15644747133E+03  0.00000000000E+00 0.  1.
          2   -1    0    0  503    0 -0.00000000000E+00 -0.00000000000E+00 -0.11287952516E+04  0.11287952516E+04  0.00000000000E+00 0.  1.
         25    1    1    2    0    0  0.21639749578E+03 -0.39750073781E+02 -0.34333008245E+01  0.25307060694E+03  0.12500000000E+03 0.  0.
         21    1    1    2  503  502  0.15093248765E+02 -0.62268497329E+02 -0.45370230364E+03  0.45820405088E+03  0.00000000000E+00 0. -1.
          2    1    1    2  501    0 -0.23149074454E+03  0.10201857111E+03 -0.51521217585E+03  0.57396806514E+03  0.00000000000E+00 0.  1.
<mgrwt>
<rscale>  4 0.25762537E+03</rscale>
<asrwt>0</asrwt>
<pdfrwt beam="1">  1       21 0.24068842E-01 0.25762537E+03</pdfrwt>
<pdfrwt beam="2">  1        2 0.17366080E+00 0.25762537E+03</pdfrwt>
<totfact> 0.44534166E+03</totfact>
</mgrwt>
</event>
<event>
 5    0  0.1141006E+000  0.2647148E+03  0.7546771E-02  0.1104343E+00
         21   -1    0    0  501  502  0.00000000000E+00  0.00000000000E+00  0.55340948098E+03  0.55340948098E+03  0.00000000000E+00 0. -1.
          2   -1    0    0  503    0 -0.00000000000E+00 -0.00000000000E+00 -0.17895719503E+04  0.17895719503E+04  0.00000000000E+00 0.  1.
         25    1    1    2    0    0  0.18466843579E+03  0.14242601613E+03  0.51111581000E+03  0.57554493524E+03  0.12500000000E+03 0.  0.
         21    1    1    2  503  502 -0.81941329342E+01  0.21837389033E+02 -0.10526328851E+03  0.10781639617E+03  0.00000000000E+00 0. -1.
          2    1    1    2  501    0 -0.17647430286E+03 -0.16426340516E+03 -0.16420149908E+04  0.16596200999E+04  0.00000000000E+00 0.  1.
<mgrwt>
<rscale>  4 0.26471482E+03</rscale>
<asrwt>0</asrwt>
<pdfrwt beam="1">  1       21 0.85139920E-01 0.26471482E+03</pdfrwt>
<pdfrwt beam="2">  1        2 0.27531876E+00 0.26471482E+03</pdfrwt>
<totfact> 0.13950440E+02</totfact>
</mgrwt>
</event>
<event>
 5    0  0.1141006E+000  0.2674448E+03  0.7546771E-02  0.1102751E+00
          2   -1    0    0  503    0 -0.00000000000E+00  0.00000000000E+00  0.12132786028E+04  0.12132786028E+04  0.00000000000E+00 0.  1.
         21   -1    0    0  501  502  0.00000000000E+00 -0.00000000000E+00 -0.20565465754E+03  0.20565465754E+03  0.00000000000E+00 0. -1.
         25    1    1    2    0    0  0.23537341533E+03  0.97836390087E+01 -0.95820337929E+02  0.28337766567E+03  0.12500000000E+03 0.  0.
         21    1    1    2  503  502  0.10913403400E+02 -0.18601947896E+02  0.98665324667E+02  0.10099495597E+03  0.00000000000E+00 0. -1.
          2    1    1    2  501    0 -0.24628681873E+03  0.88183088870E+01  0.10047789585E+04  0.10345606387E+04  0.00000000000E+00 0.  1.
<mgrwt>
<rscale>  4 0.26744476E+03</rscale>
<asrwt>0</asrwt>
<pdfrwt beam="1">  1       21 0.31639179E-01 0.26744476E+03</pdfrwt>
<pdfrwt beam="2">  1        2 0.18665824E+00 0.26744476E+03</pdfrwt>
<totfact> 0.23316241E+03</totfact>
</mgrwt>
</event>
<event>
 5    0  0.1141006E+000  0.2503234E+03  0.7546771E-02  0.1113101E+00
         -4   -1    0    0    0  501 -0.00000000000E+00  0.00000000000E+00  0.28208181690E+03  0.28208181690E+03  0.00000000000E+00 0.  1.
         21   -1    0    0  503  502  0.00000000000E+00 -0.00000000000E+00 -0.10900148833E+04  0.10900148833E+04  0.00000000000E+00 0.  1.
         25    1    1    2    0    0  0.57673072342E+02 -0.23942256574E+03 -0.93022716798E+03  0.97035917696E+03  0.12500000000E+03 0.  0.
         21    1    1    2  503  501 -0.80062016973E+02  0.86296182682E+02  0.19731230149E+03  0.22975879097E+03  0.00000000000E+00 0.  1.
         -4    1    1    2    0  502  0.22388944631E+02  0.15312638306E+03 -0.75018199904E+02  0.17197873226E+03  0.00000000000E+00 0.  1.
<mgrwt>
<rscale>  4 0.25032345E+03</rscale>
<asrwt>0</asrwt>
<pdfrwt beam="1">  1       21 0.16769460E+00 0.25032345E+03</pdfrwt>
<pdfrwt beam="2">  1       -4 0.43397202E-01 0.25032345E+03</pdfrwt>
<totfact> 0.46988812E+01</totfact>
</mgrwt>
</event>
<event>
 5    0  0.1141006E+000  0.3406630E+03  0.7546771E-02  0.1066514E+00
         21   -1    0    0  501  502  0.00000000000E+00  0.00000000000E+00  0.16236561628E+04  0.16236561628E+04  0.00000000000E+00 0. -1.
          1   -1    0    0  503    0 -0.00000000000E+00 -0.00000000000E+00 -0.58035777875E+03  0.58035777875E+03  0.00000000000E+00 0. -1.
         25    1    1    2    0    0 -0.24191085163E+03  0.20419830772E+03  0.15421763672E+04  0.15792880537E+04  0.12500000000E+03 0.  0.
         21    1    1    2  503  502 -0.30402626859E+02 -0.20909029171E+02 -0.14597201788E+02  0.39681047376E+02  0.00000000000E+00 0. -1.
          1    1    1    2  501    0  0.27231347849E+03 -0.18328927855E+03 -0.48428078135E+03  0.58504484048E+03  0.00000000000E+00 0. -1.
<mgrwt>
<rscale>  4 0.34066303E+03</rscale>
<asrwt>0</asrwt>
<pdfrwt beam="1">  1       21 0.24979325E+00 0.34066303E+03</pdfrwt>
<pdfrwt beam="2">  1        1 0.89285813E-01 0.34066303E+03</pdfrwt>
<totfact> 0.23783391E+01</totfact>
</mgrwt>
</event>
<event>
 5    0  0.1141006E+000  0.5341844E+03  0.7546771E-02  0.1005222E+00
          2   -1    0    0  503    0 -0.00000000000E+00  0.00000000000E+00  0.72699048121E+03  0.72699048121E+03  0.00000000000E+00 0. -1.
         21   -1    0    0  501  502  0.00000000000E+00 -0.00000000000E+00 -0.60072160249E+03  0.60072160249E+03  0.00000000000E+00 0. -1.
         25    1    1    2    0    0 -0.16258960074E+03 -0.49247764032E+03  0.71624812616E+02  0.53826082735E+03  0.12500000000E+03 0.  0.
         21    1    1    2  503  502 -0.46183887227E+02  0.15506100331E+02  0.23380541629E+03  0.23882705725E+03  0.00000000000E+00 0.  1.
          2    1    1    2  501    0  0.20877348797E+03  0.47697153999E+03 -0.17916135018E+03  0.55062419910E+03  0.00000000000E+00 0. -1.
<mgrwt>
<rscale>  4 0.53418438E+03</rscale>
<asrwt>0</asrwt>
<pdfrwt beam="1">  1       21 0.92418708E-01 0.53418438E+03</pdfrwt>
<pdfrwt beam="2">  1        2 0.11184469E+00 0.53418438E+03</pdfrwt>
<totfact> 0.43759128E+02</totfact>
</mgrwt>
</event>
<event>
 5    0  0.1141006E+000  0.4706385E+03  0.7546771E-02  0.1021740E+00
          1   -1    0    0  503    0 -0.00000000000E+00  0.00000000000E+00  0.27384560209E+04  0.27384560209E+04  0.00000000000E+00 0.  1.
         21   -1    0    0  501  502  0.00000000000E+00 -0.00000000000E+00 -0.17944258515E+03  0.17944258515E+03  0.00000000000E+00 0.  1.
         25    1    1    2    0    0 -0.27282784793E+03  0.36591203209E+03  0.20644933973E+03  0.51630705952E+03  0.12500000000E+03 0.  0.
         21    1    1    2  503  502  0.38573881737E+02  0.41435863670E+01  0.10949383609E+03  0.11616373704E+03  0.00000000000E+00 0. -1.
          1    1    1    2  501    0  0.23425396620E+03 -0.37005561846E+03  0.22430702599E+04  0.22854278094E+04  0.00000000000E+00 0.  1.
<mgrwt>
<rscale>  4 0.47063847E+03</rscale>
<asrwt>0</asrwt>
<pdfrwt beam="1">  1       21 0.27606554E-01 0.47063847E+03</pdfrwt>
<pdfrwt beam="2">  1        1 0.42130089E+00 0.47063847E+03</pdfrwt>
<totfact> 0.13578196E+02</totfact>
</mgrwt>
</event>
<event>
 5    0  0.1141006E+000  0.2882249E+03  0.7546771E-02  0.1091280E+00
          1   -1    0    0  503    0 -0.00000000000E+00  0.00000000000E+00  0.66853228415E+03  0.66853228415E+03  0.00000000000E+00 0.  1.
         21   -1    0    0  501  502  0.00000000000E+00 -0.00000000000E+00 -0.13307653112E+03  0.13307653112E+03  0.00000000000E+00 0.  1.
         25    1    1    2    0    0  0.12912255461E+03  0.23079885004E+03  0.26754000396E+03  0.39641316453E+03  0.12500000000E+03 0.  0.
         21    1    1    2  503  502  0.27762352000E+02 -0.26969791626E+02  0.72440957316E+02  0.82132881027E+02  0.00000000000E+00 0. -1.
          1    1    1    2  501    0 -0.15688490661E+03 -0.20382905841E+03  0.19547479175E+03  0.32306276973E+03  0.00000000000E+00 0.  1.
<mgrwt>
<rscale>  4 0.28822486E+03</rscale>
<asrwt>0</asrwt>
<pdfrwt beam="1">  1       21 0.20473313E-01 0.28822486E+03</pdfrwt>
<pdfrwt beam="2">  1        1 0.10285112E+00 0.28822486E+03</pdfrwt>
<totfact> 0.72357267E+03</totfact>
</mgrwt>
</event>
<event>
 5    0  0.1141006E+000  0.3116626E+03  0.7546771E-02  0.1079552E+00
         21   -1    0    0  501  502  0.00000000000E+00  0.00000000000E+00  0.76542469622E+02  0.76542469622E+02  0.00000000000E+00 0.  1.
          2   -1    0    0  503    0 -0.00000000000E+00 -0.00000000000E+00 -0.17294489185E+04  0.17294489185E+04  0.00000000000E+00 0.  1.
         25    1    1    2    0    0 -0.27868395926E+03  0.14853276928E+02 -0.45500066474E+03  0.54821161416E+03  0.12500000000E+03 0.  0.
         21    1    1    2  503  502 -0.17766651970E+02 -0.65754295207E+02 -0.38567056256E+03  0.39163894608E+03  0.00000000000E+00 0.  1.
          2    1    1    2  501    0  0.29645061123E+03  0.50901018278E+02 -0.81223522163E+03  0.86614082793E+03  0.00000000000E+00 0.  1.
<mgrwt>
<rscale>  4 0.31166260E+03</rscale>
<asrwt>0</asrwt>
<pdfrwt beam="1">  1       21 0.11775765E-01 0.31166260E+03</pdfrwt>
<pdfrwt beam="2">  1        2 0.26606906E+00 0.31166260E+03</pdfrwt>
<totfact> 0.77548463E+03</totfact>
</mgrwt>
</event>
<event>
 5    0  0.1141006E+000  0.3226272E+03  0.7546771E-02  0.1074446E+00
          1   -1    0    0  503    0 -0.00000000000E+00  0.00000000000E+00  0.50991778413E+03  0.50991778413E+03  0.00000000000E+00 0.  1.
         21   -1    0    0  501  502  0.00000000000E+00 -0.00000000000E+00 -0.22365093653E+03  0.22365093653E+03  0.00000000000E+00 0.  1.
         25    1    1    2    0    0 -0.10716329066E+03  0.27181368836E+03  0.71247019282E+02  0.32568050264E+03  0.12500000000E+03 0.  0.
         21    1    1    2  503  502 -0.22861188950E+02  0.32798585350E+01  0.64317753295E+02  0.68338604179E+02  0.00000000000E+00 0.  1.
          1    1    1    2  501    0  0.13002447961E+03 -0.27509354689E+03  0.15070207502E+03  0.33954961384E+03  0.00000000000E+00 0.  1.
<mgrwt>
<rscale>  4 0.32262722E+03</rscale>
<asrwt>0</asrwt>
<pdfrwt beam="1">  1       21 0.34407837E-01 0.32262722E+03</pdfrwt>
<pdfrwt beam="2">  1        1 0.78448889E-01 0.32262722E+03</pdfrwt>
<totfact> 0.38160898E+03</totfact>
</mgrwt>
</event>
<event>
 5    0  0.1141006E+000  0.2667014E+03  0.7546771E-02  0.1103182E+00
         21   -1    0    0  501  502  0.00000000000E+00  0.00000000000E+00  0.31185974763E+03  0.31185974763E+03  0.00000000000E+00 0.  1.
          1   -1    0    0  503    0 -0.00000000000E+00 -0.00000000000E+00 -0.21020083019E+04  0.21020083019E+04  0.00000000000E+00 0. -1.
         25    1    1    2    0    0 -0.19131476878E+03  0.23079655904E+03  0.19337393927E+03  0.37800379999E+03  0.12500000000E+03 0.  0.
         21    1    1    2  503  502  0.15882086971E+02 -0.75812377811E+02 -0.59549668436E+02  0.97703225775E+02  0.00000000000E+00 0.  1.
          1    1    1    2  501    0  0.17543268181E+03 -0.15498418123E+03 -0.19239728251E+04  0.19381610237E+04  0.00000000000E+00 0. -1.
<mgrwt>
<rscale>  4 0.26670143E+03</rscale>
<asrwt>0</asrwt>
<pdfrwt beam="1">  1       21 0.47978422E-01 0.26670143E+03</pdfrwt>
<pdfrwt beam="2">  1        1 0.32338590E+00 0.26670143E+03</pdfrwt>
<totfact> 0.13008342E+02</totfact>
</mgrwt>
</event>
<event>
 5    0  0.1141006E+000  0.3025486E+03  0.7546771E-02  0.1083973E+00
         -3   -1    0    0    0  501 -0.00000000000E+00  0.00000000000E+00  0.50889714660E+03  0.50889714660E+03  0.00000000000E+00 0.  1.
         21   -1    0    0  503  502  0.00000000000E+00 -0.00000000000E+00 -0.81564835321E+03  0.81564835321E+03  0.00000000000E+00 0. -1.
         25    1    1    2    0    0 -0.67871522673E+02 -0.26792954139E+03 -0.73999122167E+03  0.79975295616E+03  0.12500000000E+03 0.  0.
         21    1    1    2  503  501  0.30969269260E+02  0.59647454469E+01  0.49738824273E+02  0.58895029220E+02  0.00000000000E+00 0.  1.
         -3    1    1    2    0  502  0.36902253413E+02  0.26196479594E+03  0.38350119079E+03  0.46589751443E+03  0.00000000000E+00 0.  1.
<mgrwt>
<rscale>  4 0.30254859E+03</rscale>
<asrwt>0</asrwt>
<pdfrwt beam="1">  1       21 0.12548436E+00 0.30254859E+03</pdfrwt>
<pdfrwt beam="2">  1       -3 0.78291869E-01 0.30254859E+03</pdfrwt>
<totfact> 0.34726368E+01</totfact>
</mgrwt>
</event>
<event>
 5    0  0.1141006E+000  0.2460605E+03  0.7546771E-02  0.1115820E+00
         21   -1    0    0  501  502  0.00000000000E+00  0.00000000000E+00  0.16952167549E+03  0.16952167549E+03  0.00000000000E+00 0.  1.
          2   -1    0    0  503    0 -0.00000000000E+00 -0.00000000000E+00 -0.43456352145E+03  0.43456352145E+03  0.00000000000E+00 0.  1.
         25    1    1    2    0    0  0.71395284514E+02  0.18784811355E+03 -0.18192872699E+02  0.23736086668E+03  0.12500000000E+03 0.  0.
         21    1    1    2  503  502  0.14468883571E+02  0.28486875218E+02 -0.61058827321E+02  0.68913213865E+02  0.00000000000E+00 0.  1.
          2    1    1    2  501    0 -0.85864168085E+02 -0.21633498876E+03 -0.18579014594E+03  0.29781111640E+03  0.00000000000E+00 0.  1.
<mgrwt>
<rscale>  4 0.24606047E+03</rscale>
<asrwt>0</asrwt>
<pdfrwt beam="1">  1       21 0.26080258E-01 0.24606047E+03</pdfrwt>
<pdfrwt beam="2">  1        2 0.66855926E-01 0.24606047E+03</pdfrwt>
<totfact> 0.12574394E+04</totfact>
</mgrwt>
</event>
<event>
 5    0  0.1141006E+000  0.2531039E+03  0.7546771E-02  0.1111359E+00
         21   -1    0    0  501  502  0.00000000000E+00  0.00000000000E+00  0.63617811467E+02  0.63617811467E+02  0.00000000000E+00 0. -1.
          2   -1    0    0  503    0 -0.00000000000E+00 -0.00000000000E+00 -0.33910047561E+04  0.33910047561E+04  0.00000000000E+00 0.  1.
         25    1    1    2    0    0 -0.14670263762E+03 -0.16399619757E+03 -0.22856564248E+03  0.34100391438E+03  0.12500000000E+03 0.  0.
         21    1    1    2  503  502  0.40979896723E+02 -0.36498671880E+02 -0.25812620501E+03  0.26389513579E+03  0.00000000000E+00 0.  1.
          2    1    1    2  501    0  0.10572274090E+03  0.20049486945E+03 -0.28406950971E+04  0.28497235174E+04  0.00000000000E+00 0.  1.
<mgrwt>
<rscale>  4 0.25310389E+03</rscale>
<asrwt>0</asrwt>
<pdfrwt beam="1">  1       21 0.97873576E-02 0.25310389E+03</pdfrwt>
<pdfrwt beam="2">  1        2 0.52169293E+00 0.25310389E+03</pdfrwt>
<totfact> 0.12808550E+03</totfact>
</mgrwt>
</event>
<event>
 5    0  0.1141006E+000  0.2857972E+03  0.7546771E-02  0.1092564E+00
         -1   -1    0    0    0  501 -0.00000000000E+00  0.00000000000E+00  0.13028508889E+04  0.13028508889E+04  0.00000000000E+00 0. -1.
         21   -1    0    0  503  502  0.00000000000E+00 -0.00000000000E+00 -0.20457004274E+03  0.20457004274E+03  0.00000000000E+00 0.  1.
         25    1    1    2    0    0  0.20728341763E+03  0.14649147887E+03 -0.66985134274E+02  0.29075449579E+03  0.12500000000E+03 0.  0.
         21    1    1    2  503  501  0.12923714547E+02  0.42329306686E+02  0.63827437256E+02  0.77670678823E+02  0.00000000000E+00 0. -1.
         -1    1    1    2    0  502 -0.22020713218E+03 -0.18882078556E+03  0.11014385431E+04  0.11389957570E+04  0.00000000000E+00 0. -1.
<mgrwt>
<rscale>  4 0.28579718E+03</rscale>
<asrwt>0</asrwt>
<pdfrwt beam="1">  1       21 0.31472315E-01 0.28579718E+03</pdfrwt>
<pdfrwt beam="2">  1       -1 0.20043859E+00 0.28579718E+03</pdfrwt>
<totfact> 0.14610305E+02</totfact>
</mgrwt>
</event>
<event>
 5    0  0.1141006E+000  0.2467395E+03  0.7546771E-02  0.1115383E+00
          2   -1    0    0  503    0 -0.00000000000E+00  0.00000000000E+00  0.31176954678E+03  0.31176954678E+03  0.00000000000E+00 0. -1.
         21   -1    0    0  501  502  0.00000000000E+00 -0.00000000000E+00 -0.41234580137E+03  0.41234580137E+03  0.00000000000E+00 0. -1.
         25    1    1    2    0    0 -0.16091270205E+03  0.12782299151E+03 -0.27774224803E+03  0.36741988403E+03  0.12500000000E+03 0.  0.
         21    1    1    2  503  502 -0.46360040025E+02 -0.20455331049E+01  0.85906589642E+02  0.97639027345E+02  0.00000000000E+00 0. -1.
          2    1    1    2  501    0  0.20727274208E+03 -0.12577745841E+03  0.91259403793E+02  0.25905643677E+03  0.00000000000E+00 0. -1.
<mgrwt>
<rscale>  4 0.24673951E+03</rscale>
<asrwt>0</asrwt>
<pdfrwt beam="1">  1       21 0.63437816E-01 0.24673951E+03</pdfrwt>
<pdfrwt beam="2">  1        2 0.47964546E-01 0.24673951E+03</pdfrwt>
<totfact> 0.29344477E+03</totfact>
</mgrwt>
</event>
<event>
 5    0  0.1141006E+000  0.2822526E+03  0.7546771E-02  0.1094465E+00
          2   -1    0    0  503    0 -0.00000000000E+00  0.00000000000E+00  0.81818296683E+03  0.81818296683E+03  0.00000000000E+00 0. -1.
         21   -1    0    0  501  502  0.00000000000E+00 -0.00000000000E+00 -0.38069536000E+03  0.38069536000E+03  0.00000000000E+00 0.  1.
         25    1    1    2    0    0 -0.96582008329E+01  0.25046808574E+03 -0.28427180278E+03  0.39907768751E+03  0.12500000000E+03 0.  0.
         21    1    1    2  503  502  0.52531365645E+02  0.30248816975E+02  0.12828150756E+03  0.14188262926E+03  0.00000000000E+00 0. -1.
          2    1    1    2  501    0 -0.42873164812E+02 -0.28071690271E+03  0.59347790205E+03  0.65791801005E+03  0.00000000000E+00 0. -1.
<mgrwt>
<rscale>  4 0.28225263E+03</rscale>
<asrwt>0</asrwt>
<pdfrwt beam="1">  1       21 0.58568517E-01 0.28225263E+03</pdfrwt>
<pdfrwt beam="2">  1        2 0.12587430E+00 0.28225263E+03</pdfrwt>
<totfact> 0.11411437E+03</totfact>
</mgrwt>
</event>
<event>
 5    0  0.1141006E+000  0.2670326E+03  0.7546771E-02  0.1102990E+00
         21   -1    0    0  501  502  0.00000000000E+00  0.00000000000E+00  0.29783726232E+03  0.29783726232E+03  0.00000000000E+00 0.  1.
          2   -1    0    0  503    0 -0.00000000000E+00 -0.00000000000E+00 -0.18626881340E+04  0.18626881340E+04  0.00000000000E+00 0. -1.
         25    1    1    2    0    0  0.19927059748E+03 -0.13744439753E+03  0.21209505902E+03  0.34526663247E+03  0.12500000000E+03 0.  0.
         21    1    1    2  503  502 -0.11716812269E+03  0.15687575575E+03 -0.52256305808E+03  0.55804168427E+03  0.00000000000E+00 0.  1.
          2    1    1    2  501    0 -0.82102474791E+02 -0.19431358225E+02 -0.12543828727E+04  0.12572170796E+04  0.00000000000E+00 0. -1.
<mgrwt>
<rscale>  4 0.26703259E+03</rscale>
<asrwt>0</asrwt>
<pdfrwt beam="1">  1       21 0.45821118E-01 0.26703259E+03</pdfrwt>
<pdfrwt beam="2">  1        2 0.28656740E+00 0.26703259E+03</pdfrwt>
<totfact> 0.49315197E+02</totfact>
</mgrwt>
</event>
<event>
 5    0  0.1141006E+000  0.5078327E+03  0.7546771E-02  0.1011754E+00
          2   -1    0    0  503    0 -0.00000000000E+00  0.00000000000E+00  0.34137573406E+03  0.34137573406E+03  0.00000000000E+00 0. -1.
         21   -1    0    0  501  502  0.00000000000E+00 -0.00000000000E+00 -0.81994354440E+03  0.81994354440E+03  0.00000000000E+00 0. -1.
         25    1    1    2    0    0  0.47975780983E+03 -0.92776532134E+01 -0.38138172248E+03  0.62556426463E+03  0.12500000000E+03 0.  0.
         21    1    1    2  503  502  0.19673408468E+02  0.13350475037E+02 -0.18547116549E+02  0.30154165827E+02  0.00000000000E+00 0. -1.
          2    1    1    2  501    0 -0.49943121830E+03 -0.40728218234E+01 -0.78638971310E+02  0.50560084800E+03  0.00000000000E+00 0. -1.
<mgrwt>
<rscale>  4 0.50783274E+03</rscale>
<asrwt>0</asrwt>
<pdfrwt beam="1">  1       21 0.12614516E+00 0.50783274E+03</pdfrwt>
<pdfrwt beam="2">  1        2 0.52519344E-01 0.50783274E+03</pdfrwt>
<totfact> 0.48854726E+02</totfact>
</mgrwt>
</event>
<event>
 5    0  0.1141006E+000  0.3163821E+03  0.7546771E-02  0.1077327E+00
         21   -1    0    0  501  502  0.00000000000E+00  0.00000000000E+00  0.91729237771E+03  0.91729237771E+03  0.00000000000E+00 0.  1.
          2   -1    0    0  503    0 -0.00000000000E+00 -0.00000000000E+00 -0.12423802241E+04  0.12423802241E+04  0.00000000000E+00 0.  1.
         25    1    1    2    0    0 -0.28597547809E+03 -0.53897187135E+02  0.86802366033E+03  0.92400051718E+03  0.12500000000E+03 0.  0.
         21    1    1    2  503  502  0.84612241341E+01  0.37333823900E+02 -0.85061963084E+02  0.93278852290E+02  0.00000000000E+00 0.  1.
          2    1    1    2  501    0  0.27751425395E+03  0.16563363234E+02 -0.11080495436E+04  0.11423932323E+04  0.00000000000E+00 0.  1.
<mgrwt>
<rscale>  4 0.31638208E+03</rscale>
<asrwt>0</asrwt>
<pdfrwt beam="1">  1       21 0.14112190E+00 0.31638208E+03</pdfrwt>
<pdfrwt beam="2">  1        2 0.19113542E+00 0.31638208E+03</pdfrwt>
<totfact> 0.77014381E+01</totfact>
</mgrwt>
</event>
<event>
 5    0  0.1141006E+000  0.2635845E+03  0.7546771E-02  0.1105009E+00
         21   -1    0    0  503  502  0.00000000000E+00  0.00000000000E+00  0.88295935922E+03  0.88295935922E+03  0.00000000000E+00 0. -1.
         -4   -1    0    0    0  501 -0.00000000000E+00 -0.00000000000E+00 -0.10273688368E+03  0.10273688368E+03  0.00000000000E+00 0. -1.
         25    1    1    2    0    0 -0.18926873449E+03 -0.11050185976E+03  0.27471449010E+03  0.37299646907E+03  0.12500000000E+03 0.  0.
         21    1    1    2  503  501 -0.32599351475E+02  0.19677335487E+02 -0.13978742651E+02  0.40562550395E+02  0.00000000000E+00 0. -1.
         -4    1    1    2    0  502  0.22186808597E+03  0.90824524275E+02  0.51948672810E+03  0.57213722344E+03  0.00000000000E+00 0. -1.
<mgrwt>
<rscale>  4 0.26358446E+03</rscale>
<asrwt>0</asrwt>
<pdfrwt beam="1">  1       21 0.13583990E+00 0.26358446E+03</pdfrwt>
<pdfrwt beam="2">  1       -4 0.15805675E-01 0.26358446E+03</pdfrwt>
<totfact> 0.55265482E+02</totfact>
</mgrwt>
</event>
<event>
 5    0  0.1141006E+000  0.2380590E+03  0.7546771E-02  0.1121093E+00
         -3   -1    0    0    0  501 -0.00000000000E+00  0.00000000000E+00  0.24344647014E+02  0.24344647014E+02  0.00000000000E+00 0.  1.
         21   -1    0    0  503  502  0.00000000000E+00 -0.00000000000E+00 -0.28926874145E+04  0.28926874145E+04  0.00000000000E+00 0. -1.
         25    1    1    2    0    0  0.57058308151E+02 -0.19603998530E+03 -0.20088222976E+04  0.20230371598E+04  0.12500000000E+03 0.  0.
         21    1    1    2  503  501  0.23077072147E+02  0.11732391153E+02 -0.26395021536E+02  0.36971575879E+02  0.00000000000E+00 0.  1.
         -3    1    1    2    0  502 -0.80135380298E+02  0.18430759415E+03 -0.83312544832E+03  0.85702332586E+03  0.00000000000E+00 0.  1.
<mgrwt>
<rscale>  4 0.23805901E+03</rscale>
<asrwt>0</asrwt>
<pdfrwt beam="1">  1       21 0.44502866E+00 0.23805901E+03</pdfrwt>
<pdfrwt beam="2">  1       -3 0.37453318E-02 0.23805901E+03</pdfrwt>
<totfact> 0.75980126E+01</totfact>
</mgrwt>
</event>
<event>
 5    0  0.1141006E+000  0.3257299E+03  0.7546771E-02  0.1073042E+00
          2   -1    0    0  503    0 -0.00000000000E+00  0.00000000000E+00  0.11769325468E+04  0.11769325468E+04  0.00000000000E+00 0. -1.
         21   -1    0    0  501  502  0.00000000000E+00 -0.00000000000E+00 -0.49809667190E+03  0.49809667190E+03  0.00000000000E+00 0. -1.
         25    1    1    2    0    0 -0.29657784148E+03 -0.29957349092E+02 -0.38002498197E+03  0.49889863273E+03  0.12500000000E+03 0.  0.
         21    1    1    2  503  502 -0.34189583703E+02  0.92203241451E+02  0.59474417302E+03  0.60281920732E+03  0.00000000000E+00 0. -1.
          2    1    1    2  501    0  0.33076742518E+03 -0.62245892359E+02  0.46411668389E+03  0.57331137869E+03  0.00000000000E+00 0. -1.
<mgrwt>
<rscale>  4 0.32572994E+03</rscale>
<asrwt>0</asrwt>
<pdfrwt beam="1">  1       21 0.76630257E-01 0.32572994E+03</pdfrwt>
<pdfrwt beam="2">  1        2 0.18106655E+00 0.32572994E+03</pdfrwt>
<totfact> 0.36945805E+02</totfact>
</mgrwt>
</event>
<event>
 5    0  0.1141006E+000  0.3768655E+03  0.7546771E-02  0.1052098E+00
          1   -1    0    0  503    0 -0.00000000000E+00  0.00000000000E+00  0.17683567181E+03  0.17683567181E+03  0.00000000000E+00 0.  1.
         21   -1    0    0  501  502  0.00000000000E+00 -0.00000000000E+00 -0.15298841669E+04  0.15298841669E+04  0.00000000000E+00 0.  1.
         25    1    1    2    0    0  0.24748232594E+03  0.25525502738E+03 -0.12872655403E+04  0.13412979542E+04  0.12500000000E+03 0.  0.
         21    1    1    2  503  502 -0.14138178006E+02 -0.35558801598E+02 -0.96453896923E-01  0.38266509532E+02  0.00000000000E+00 0. -1.
          1    1    1    2  501    0 -0.23334414794E+03 -0.21969622578E+03 -0.65686500915E+02  0.32715537502E+03  0.00000000000E+00 0.  1.
<mgrwt>
<rscale>  4 0.37686553E+03</rscale>
<asrwt>0</asrwt>
<pdfrwt beam="1">  1       21 0.23536680E+00 0.37686553E+03</pdfrwt>
<pdfrwt beam="2">  1        1 0.27205488E-01 0.37686553E+03</pdfrwt>
<totfact> 0.13344924E+02</totfact>
</mgrwt>
</event>
<event>
 5    0  0.1141006E+000  0.2793504E+03  0.7546771E-02  0.1096044E+00
          1   -1    0    0  503    0 -0.00000000000E+00  0.00000000000E+00  0.11647586850E+04  0.11647586850E+04  0.00000000000E+00 0.  1.
         21   -1    0    0  501  502  0.00000000000E+00 -0.00000000000E+00 -0.15618430299E+03  0.15618430299E+03  0.00000000000E+00 0. -1.
         25    1    1    2    0    0  0.23245467768E+03  0.71856469272E+01  0.60132422400E+02  0.27079091366E+03  0.12500000000E+03 0.  0.
         21    1    1    2  503  502  0.64707904929E+02 -0.12999518139E+02  0.54535468903E+03  0.54933399429E+03  0.00000000000E+00 0. -1.
          1    1    1    2  501    0 -0.29716258261E+03  0.58138712116E+01  0.40308727063E+03  0.50081808009E+03  0.00000000000E+00 0.  1.
<mgrwt>
<rscale>  4 0.27935043E+03</rscale>
<asrwt>0</asrwt>
<pdfrwt beam="1">  1       21 0.24028355E-01 0.27935043E+03</pdfrwt>
<pdfrwt beam="2">  1        1 0.17919364E+00 0.27935043E+03</pdfrwt>
<totfact> 0.21546580E+03</totfact>
</mgrwt>
</event>
<event>
 5    0  0.1141006E+000  0.2739539E+03  0.7546771E-02  0.1099038E+00
         21   -1    0    0  503  502  0.00000000000E+00  0.00000000000E+00  0.69320700043E+03  0.69320700043E+03  0.00000000000E+00 0. -1.
         -1   -1    0    0    0  501 -0.00000000000E+00 -0.00000000000E+00 -0.23154459580E+03  0.23154459580E+03  0.00000000000E+00 0.  1.
         25    1    1    2    0    0 -0.24488449130E+03  0.24959731662E+02  0.57007633158E+03  0.63340620940E+03  0.12500000000E+03 0.  0.
         21    1    1    2  503  501  0.19355397363E+02  0.25654379703E+02  0.71561948377E+01  0.32923999295E+02  0.00000000000E+00 0. -1.
         -1    1    1    2    0  502  0.22552909393E+03 -0.50614111365E+02 -0.11557012179E+03  0.25842138752E+03  0.00000000000E+00 0.  1.
<mgrwt>
<rscale>  4 0.27395389E+03</rscale>
<asrwt>0</asrwt>
<pdfrwt beam="1">  1       21 0.10664723E+00 0.27395389E+03</pdfrwt>
<pdfrwt beam="2">  1       -1 0.35622246E-01 0.27395389E+03</pdfrwt>
<totfact> 0.47185749E+02</totfact>
</mgrwt>
</event>
<event>
 5    0  0.1141006E+000  0.2889770E+03  0.7546771E-02  0.1090884E+00
         21   -1    0    0  501  502  0.00000000000E+00  0.00000000000E+00  0.52039750849E+03  0.52039750849E+03  0.00000000000E+00 0. -1.
          2   -1    0    0  503    0 -0.00000000000E+00 -0.00000000000E+00 -0.53956857421E+03  0.53956857421E+03  0.00000000000E+00 0. -1.
         25    1    1    2    0    0 -0.20238456107E+03 -0.16595933766E+03  0.36685449259E+03  0.46766358747E+03  0.12500000000E+03 0.  0.
         21    1    1    2  503  502  0.10594406566E+03 -0.10662729823E+03 -0.19309172786E+03  0.24469969584E+03  0.00000000000E+00 0. -1.
          2    1    1    2  501    0  0.96440495412E+02  0.27258663589E+03 -0.19293383044E+03  0.34760279939E+03  0.00000000000E+00 0. -1.
<mgrwt>
<rscale>  4 0.28897701E+03</rscale>
<asrwt>0</asrwt>
<pdfrwt beam="1">  1       21 0.80061155E-01 0.28897701E+03</pdfrwt>
<pdfrwt beam="2">  1        2 0.83010550E-01 0.28897701E+03</pdfrwt>
<totfact> 0.94024031E+02</totfact>
</mgrwt>
</event>
<event>
 5    0  0.1141006E+000  0.2721689E+03  0.7546771E-02  0.1100045E+00
         21   -1    0    0  501  502  0.00000000000E+00  0.00000000000E+00  0.17350174767E+03  0.17350174767E+03  0.00000000000E+00 0. -1.
          2   -1    0    0  503    0 -0.00000000000E+00 -0.00000000000E+00 -0.43200388147E+03  0.43200388147E+03  0.00000000000E+00 0. -1.
         25    1    1    2    0    0 -0.56274966686E+02 -0.23512555098E+03 -0.60113338840E+02  0.27872838052E+03  0.12500000000E+03 0.  0.
         21    1    1    2  503  502 -0.34465263828E+01  0.51803187239E+02 -0.94355275238E+02  0.10769571355E+03  0.00000000000E+00 0.  1.
          2    1    1    2  501    0  0.59721493069E+02  0.18332236374E+03 -0.10403351972E+03  0.21908153507E+03  0.00000000000E+00 0. -1.
<mgrwt>
<rscale>  4 0.27216888E+03</rscale>
<asrwt>0</asrwt>
<pdfrwt beam="1">  1       21 0.26692577E-01 0.27216888E+03</pdfrwt>
<pdfrwt beam="2">  1        2 0.66462135E-01 0.27216888E+03</pdfrwt>
<totfact> 0.12046760E+04</totfact>
</mgrwt>
</event>
<event>
 5    0  0.1141006E+000  0.2713725E+03  0.7546771E-02  0.1100497E+00
          2   -1    0    0  503    0 -0.00000000000E+00  0.00000000000E+00  0.19353167185E+04  0.19353167185E+04  0.00000000000E+00 0.  1.
         21   -1    0    0  501  502  0.00000000000E+00 -0.00000000000E+00 -0.40010997897E+02  0.40010997897E+02  0.00000000000E+00 0.  1.
         25    1    1    2    0    0  0.18123789641E+03  0.16409869745E+03  0.72582239348E+03  0.77602751528E+03  0.12500000000E+03 0.  0.
         21    1    1    2  503  502 -0.24812557353E+02  0.13671614796E+02  0.15295574978E+03  0.15555718384E+03  0.00000000000E+00 0. -1.
          2    1    1    2  501    0 -0.15642533905E+03 -0.17777031224E+03  0.10165275774E+04  0.10437430173E+04  0.00000000000E+00 0.  1.
<mgrwt>
<rscale>  4 0.27137246E+03</rscale>
<asrwt>0</asrwt>
<pdfrwt beam="1">  1       21 0.61555397E-02 0.27137246E+03</pdfrwt>
<pdfrwt beam="2">  1        2 0.29774096E+00 0.27137246E+03</pdfrwt>
<totfact> 0.19183920E+04</totfact>
</mgrwt>
</event>
<event>
 5    0  0.1141006E+000  0.2689630E+03  0.7546771E-02  0.1101875E+00
          3   -1    0    0  503    0 -0.00000000000E+00  0.00000000000E+00  0.92084741443E+02  0.92084741443E+02  0.00000000000E+00 0.  1.
         21   -1    0    0  501  502  0.00000000000E+00 -0.00000000000E+00 -0.15371096886E+04  0.15371096886E+04  0.00000000000E+00 0.  1.
         25    1    1    2    0    0 -0.45331528544E+01 -0.23483540387E+03 -0.12472744457E+04  0.12753379000E+04  0.12500000000E+03 0.  0.
         21    1    1    2  503  502 -0.18690028463E+02 -0.20220091765E+02 -0.52860402880E+02  0.59601941810E+02  0.00000000000E+00 0. -1.
          3    1    1    2  501    0  0.23223181317E+02  0.25505549564E+03 -0.14489009858E+03  0.29425458819E+03  0.00000000000E+00 0.  1.
<mgrwt>
<rscale>  4 0.26896296E+03</rscale>
<asrwt>0</asrwt>
<pdfrwt beam="1">  1       21 0.23647842E+00 0.26896296E+03</pdfrwt>
<pdfrwt beam="2">  1        3 0.14166883E-01 0.26896296E+03</pdfrwt>
<totfact> 0.15490250E+02</totfact>
</mgrwt>
</event>
<event>
 5    0  0.1141006E+000  0.2545562E+03  0.7546771E-02  0.1110459E+00
          2   -1    0    0  503    0 -0.00000000000E+00  0.00000000000E+00  0.37976035272E+03  0.37976035272E+03  0.00000000000E+00 0.  1.
         21   -1    0    0  501  502  0.00000000000E+00 -0.00000000000E+00 -0.20292285567E+04  0.20292285567E+04  0.00000000000E+00 0.  1.
         25    1    1    2    0    0  0.19549493418E+03  0.10721819304E+03 -0.19658796946E+04  0.19824283048E+04  0.12500000000E+03 0.  0.
         21    1    1    2  503  502 -0.46240932517E+02 -0.25445510756E+02 -0.14252808785E+02  0.54670288237E+02  0.00000000000E+00 0. -1.
          2    1    1    2  501    0 -0.14925400166E+03 -0.81772682286E+02  0.33066429934E+03  0.37189031641E+03  0.00000000000E+00 0.  1.
<mgrwt>
<rscale>  4 0.25455618E+03</rscale>
<asrwt>0</asrwt>
<pdfrwt beam="1">  1       21 0.31218901E+00 0.25455618E+03</pdfrwt>
<pdfrwt beam="2">  1        2 0.58424670E-01 0.25455618E+03</pdfrwt>
<totfact> 0.28418536E+01</totfact>
</mgrwt>
</event>
<event>
 5    0  0.1141006E+000  0.2880448E+03  0.7546771E-02  0.1091374E+00
         21   -1    0    0  501  502  0.00000000000E+00  0.00000000000E+00  0.29784155293E+03  0.29784155293E+03  0.00000000000E+00 0.  1.
          2   -1    0    0  503    0 -0.00000000000E+00 -0.00000000000E+00 -0.55175637067E+03  0.55175637067E+03  0.00000000000E+00 0.  1.
         25    1    1    2    0    0 -0.18759926563E+03  0.17832769908E+03  0.15169583419E+03  0.32500904423E+03  0.12500000000E+03 0.  0.
         21    1    1    2  503  502 -0.15808832772E+02 -0.12595634946E+02 -0.17230217730E+03  0.17348374424E+03  0.00000000000E+00 0.  1.
          2    1    1    2  501    0  0.20340809840E+03 -0.16573206413E+03 -0.23330847463E+03  0.35110513513E+03  0.00000000000E+00 0.  1.
<mgrwt>
<rscale>  4 0.28804479E+03</rscale>
<asrwt>0</asrwt>
<pdfrwt beam="1">  1       21 0.45821777E-01 0.28804479E+03</pdfrwt>
<pdfrwt beam="2">  1        2 0.84885596E-01 0.28804479E+03</pdfrwt>
<totfact> 0.30863370E+03</totfact>
</mgrwt>
</event>
<event>
 5    0  0.1141006E+000  0.4655866E+03  0.7546771E-02  0.1023173E+00
          2   -1    0    0  503    0 -0.00000000000E+00  0.00000000000E+00  0.79732892142E+03  0.79732892142E+03  0.00000000000E+00 0. -1.
         21   -1    0    0  501  502  0.00000000000E+00 -0.00000000000E+00 -0.30519649920E+03  0.30519649920E+03  0.00000000000E+00 0. -1.
         25    1    1    2    0    0 -0.36624772131E+03  0.22465554523E+03  0.28657809095E+03  0.53137511193E+03  0.12500000000E+03 0.  0.
         21    1    1    2  503  502 -0.14702454591E+02  0.37760698105E+02  0.83376461271E+02  0.92702032267E+02  0.00000000000E+00 0.  1.
          2    1    1    2  501    0  0.38095017590E+03 -0.26241624334E+03  0.12217787000E+03  0.47844827642E+03  0.00000000000E+00 0. -1.
<mgrwt>
<rscale>  4 0.46558661E+03</rscale>
<asrwt>0</asrwt>
<pdfrwt beam="1">  1       21 0.46953308E-01 0.46558661E+03</pdfrwt>
<pdfrwt beam="2">  1        2 0.12266599E+00 0.46558661E+03</pdfrwt>
<totfact> 0.17964941E+03</totfact>
</mgrwt>
</event>
<event>
 5    0  0.1141006E+000  0.2571852E+03  0.7546771E-02  0.1108846E+00
         21   -1    0    0  501  502  0.00000000000E+00  0.00000000000E+00  0.42077045929E+02  0.42077045929E+02  0.00000000000E+00 0.  1.
          1   -1    0    0  503    0 -0.00000000000E+00 -0.00000000000E+00 -0.17258527466E+04  0.17258527466E+04  0.00000000000E+00 0.  1.
         25    1    1    2    0    0  0.21263542820E+03 -0.89072204202E+02 -0.55835640145E+03  0.61687482841E+03  0.12500000000E+03 0.  0.
         21    1    1    2  503  502 -0.75338029947E+01  0.22284585885E+02 -0.16794788252E+03  0.16958729964E+03  0.00000000000E+00 0.  1.
          1    1    1    2  501    0 -0.20510162520E+03  0.66787618316E+02 -0.95747141666E+03  0.98146766444E+03  0.00000000000E+00 0.  1.
<mgrwt>
<rscale>  4 0.25718522E+03</rscale>
<asrwt>0</asrwt>
<pdfrwt beam="1">  1       21 0.64733929E-02 0.25718522E+03</pdfrwt>
<pdfrwt beam="2">  1        1 0.26551576E+00 0.25718522E+03</pdfrwt>
<totfact> 0.98230182E+03</totfact>
</mgrwt>
</event>
<event>
 5    0  0.1141006E+000  0.3766435E+03  0.7546771E-02  0.1052181E+00
          1   -1    0    0  503    0 -0.00000000000E+00  0.00000000000E+00  0.10906810165E+04  0.10906810165E+04  0.00000000000E+00 0.  1.
         21   -1    0    0  501  502  0.00000000000E+00 -0.00000000000E+00 -0.27410411050E+03  0.27410411050E+03  0.00000000000E+00 0. -1.
         25    1    1    2    0    0  0.35864033766E+03  0.21742104353E+02 -0.27740261109E+02  0.38143168849E+03  0.12500000000E+03 0.  0.
         21    1    1    2  503  502 -0.12280978504E+02 -0.34303840916E+02  0.47679442220E+03  0.47818458463E+03  0.00000000000E+00 0. -1.
          1    1    1    2  501    0 -0.34635935915E+03  0.12561736563E+02  0.36752274490E+03  0.50516885387E+03  0.00000000000E+00 0.  1.
<mgrwt>
<rscale>  4 0.37664350E+03</rscale>
<asrwt>0</asrwt>
<pdfrwt beam="1">  1       21 0.42169864E-01 0.37664350E+03</pdfrwt>
<pdfrwt beam="2">  1        1 0.16779708E+00 0.37664350E+03</pdfrwt>
<totfact> 0.77090711E+02</totfact>
</mgrwt>
</event>
<event>
 5    0  0.1141006E+000  0.2407886E+03  0.7546771E-02  0.1119269E+00
         -3   -1    0    0    0  501 -0.00000000000E+00  0.00000000000E+00  0.10632741661E+03  0.10632741661E+03  0.00000000000E+00 0. -1.
         21   -1    0    0  503  502  0.00000000000E+00 -0.00000000000E+00 -0.14027463197E+04  0.14027463197E+04  0.00000000000E+00 0. -1.
         25    1    1    2    0    0 -0.20968486136E+03 -0.32208893909E+02 -0.11031697907E+04  0.11303157705E+04  0.12500000000E+03 0.  0.
         21    1    1    2  503  501  0.16102001486E+02  0.66926221947E+02  0.35199908099E+02  0.77313822608E+02  0.00000000000E+00 0. -1.
         -3    1    1    2    0  502  0.19358285988E+03 -0.34717328038E+02 -0.22844902046E+03  0.30144414318E+03  0.00000000000E+00 0. -1.
<mgrwt>
<rscale>  4 0.24078863E+03</rscale>
<asrwt>0</asrwt>
<pdfrwt beam="1">  1       21 0.21580711E+00 0.24078863E+03</pdfrwt>
<pdfrwt beam="2">  1       -3 0.16358065E-01 0.24078863E+03</pdfrwt>
<totfact> 0.16395064E+02</totfact>
</mgrwt>
</event>
<event>
 5    0  0.1141006E+000  0.2635286E+03  0.7546771E-02  0.1105042E+00
         21   -1    0    0  501  502  0.00000000000E+00  0.00000000000E+00  0.10424930208E+04  0.10424930208E+04  0.00000000000E+00 0. -1.
          2   -1    0    0  503    0 -0.00000000000E+00 -0.00000000000E+00 -0.53286191945E+03  0.53286191945E+03  0.00000000000E+00 0. -1.
         25    1    1    2    0    0 -0.22629540710E+03 -0.48813944505E+02  0.97435277276E+03  0.10092476100E+04  0.12500000000E+03 0.  0.
         21    1    1    2  503  502 -0.36553451217E+01 -0.24345827460E+02 -0.22369259626E+03  0.22504323692E+03  0.00000000000E+00 0.  1.
          2    1    1    2  501    0  0.22995075222E+03  0.73159771964E+02 -0.24102907517E+03  0.34106409333E+03  0.00000000000E+00 0. -1.
<mgrwt>
<rscale>  4 0.26352864E+03</rscale>
<asrwt>0</asrwt>
<pdfrwt beam="1">  1       21 0.16038354E+00 0.26352864E+03</pdfrwt>
<pdfrwt beam="2">  1        2 0.81978757E-01 0.26352864E+03</pdfrwt>
<totfact> 0.17244319E+02</totfact>
</mgrwt>
</event>
<event>
 5    0  0.1141006E+000  0.4222191E+03  0.7546771E-02  0.1036346E+00
         21   -1    0    0  501  502  0.00000000000E+00  0.00000000000E+00  0.34187593220E+03  0.34187593220E+03  0.00000000000E+00 0.  1.
          2   -1    0    0  503    0 -0.00000000000E+00 -0.00000000000E+00 -0.19494003593E+04  0.19494003593E+04  0.00000000000E+00 0.  1.
         25    1    1    2    0    0  0.16731055471E+03  0.36867281843E+03  0.17510927865E+03  0.45847652965E+03  0.12500000000E+03 0.  0.
         21    1    1    2  503  502  0.17584132662E+02 -0.30690082172E+02 -0.86259249283E+02  0.93229506874E+02  0.00000000000E+00 0. -1.
          2    1    1    2  501    0 -0.18489468737E+03 -0.33798273626E+03 -0.16963744565E+04  0.17395702550E+04  0.00000000000E+00 0.  1.
<mgrwt>
<rscale>  4 0.42221908E+03</rscale>
<asrwt>0</asrwt>
<pdfrwt beam="1">  1       21 0.52596298E-01 0.42221908E+03</pdfrwt>
<pdfrwt beam="2">  1        2 0.29990774E+00 0.42221908E+03</pdfrwt>
<totfact> 0.30906964E+02</totfact>
</mgrwt>
</event>
<event>
 5    0  0.1141006E+000  0.4333857E+03  0.7546771E-02  0.1032796E+00
         21   -1    0    0  501  502  0.00000000000E+00  0.00000000000E+00  0.66137059127E+02  0.66137059127E+02  0.00000000000E+00 0.  1.
          1   -1    0    0  503    0 -0.00000000000E+00 -0.00000000000E+00 -0.29374811007E+04  0.29374811007E+04  0.00000000000E+00 0.  1.
         25    1    1    2    0    0 -0.37195308580E+03  0.19549817124E+03 -0.15002290780E+04  0.15629718230E+04  0.12500000000E+03 0.  0.
         21    1    1    2  503  502 -0.21240684250E+01 -0.25263105002E+02 -0.15247141082E+03  0.15456476719E+03  0.00000000000E+00 0. -1.
          1    1    1    2  501    0  0.37407715423E+03 -0.17023506623E+03 -0.12186435528E+04  0.12860815696E+04  0.00000000000E+00 0.  1.
<mgrwt>
<rscale>  4 0.43338573E+03</rscale>
<asrwt>0</asrwt>
<pdfrwt beam="1">  1       21 0.10174934E-01 0.43338573E+03</pdfrwt>
<pdfrwt beam="2">  1        1 0.45192009E+00 0.43338573E+03</pdfrwt>
<totfact> 0.65071196E+02</totfact>
</mgrwt>
</event>
<event>
 5    0  0.1141006E+000  0.3309180E+03  0.7546771E-02  0.1070731E+00
         21   -1    0    0  501  502  0.00000000000E+00  0.00000000000E+00  0.21960069246E+03  0.21960069246E+03  0.00000000000E+00 0. -1.
          2   -1    0    0  503    0 -0.00000000000E+00 -0.00000000000E+00 -0.13815512528E+04  0.13815512528E+04  0.00000000000E+00 0. -1.
         25    1    1    2    0    0 -0.28138150421E+03  0.15414735477E+03 -0.57126453681E+03  0.66701209053E+03  0.12500000000E+03 0.  0.
         21    1    1    2  503  502  0.32636992034E+02  0.19921011515E+02 -0.62718787016E+03  0.62835232508E+03  0.00000000000E+00 0. -1.
          2    1    1    2  501    0  0.24874451218E+03 -0.17406836629E+03  0.36501846640E+02  0.30578752965E+03  0.00000000000E+00 0. -1.
<mgrwt>
<rscale>  4 0.33091798E+03</rscale>
<asrwt>0</asrwt>
<pdfrwt beam="1">  1       21 0.33784721E-01 0.33091798E+03</pdfrwt>
<pdfrwt beam="2">  1        2 0.21254635E+00 0.33091798E+03</pdfrwt>
<totfact> 0.16111838E+03</totfact>
</mgrwt>
</event>
<event>
 5    0  0.1141006E+000  0.2632825E+03  0.7546771E-02  0.1105187E+00
         -3   -1    0    0    0  501 -0.00000000000E+00  0.00000000000E+00  0.99800425044E+03  0.99800425044E+03  0.00000000000E+00 0.  1.
         21   -1    0    0  503  502  0.00000000000E+00 -0.00000000000E+00 -0.31765773948E+03  0.31765773948E+03  0.00000000000E+00 0.  1.
         25    1    1    2    0    0  0.45921727575E+02  0.27018750336E+03 -0.21019688299E+03  0.36731161383E+03  0.12500000000E+03 0.  0.
         21    1    1    2  503  501 -0.24051751649E+02 -0.41680071281E+02  0.27766164647E+02  0.55557852718E+02  0.00000000000E+00 0.  1.
         -3    1    1    2    0  502 -0.21869975926E+02 -0.22850743208E+03  0.86277722931E+03  0.89279252337E+03  0.00000000000E+00 0.  1.
<mgrwt>
<rscale>  4 0.26328250E+03</rscale>
<asrwt>0</asrwt>
<pdfrwt beam="1">  1       21 0.48870422E-01 0.26328250E+03</pdfrwt>
<pdfrwt beam="2">  1       -3 0.15353911E+00 0.26328250E+03</pdfrwt>
<totfact> 0.62179916E+01</totfact>
</mgrwt>
</event>
<event>
 5    0  0.1141006E+000  0.2728999E+03  0.7546771E-02  0.1099631E+00
         21   -1    0    0  501  502  0.00000000000E+00  0.00000000000E+00  0.66787771160E+02  0.66787771160E+02  0.00000000000E+00 0. -1.
          2   -1    0    0  503    0 -0.00000000000E+00 -0.00000000000E+00 -0.29847401123E+04  0.29847401123E+04  0.00000000000E+00 0.  1.
         25    1    1    2    0    0 -0.17021158640E+03 -0.15873868713E+03 -0.32375406110E+03  0.41786558487E+03  0.12500000000E+03 0.  0.
         21    1    1    2  503  502 -0.23077902500E+02 -0.25077518665E+02 -0.17044660737E+04  0.17048067538E+04  0.00000000000E+00 0.  1.
          2    1    1    2  501    0  0.19328948890E+03  0.18381620580E+03 -0.88973220633E+03  0.92885554475E+03  0.00000000000E+00 0.  1.
<mgrwt>
<rscale>  4 0.27289995E+03</rscale>
<asrwt>0</asrwt>
<pdfrwt beam="1">  1       21 0.10275044E-01 0.27289995E+03</pdfrwt>
<pdfrwt beam="2">  1        2 0.45919070E+00 0.27289995E+03</pdfrwt>
<totfact> 0.20666867E+03</totfact>
</mgrwt>
</event>
<event>
 5    0  0.1141006E+000  0.3112109E+03  0.7546771E-02  0.1079767E+00
          2   -1    0    0  503    0 -0.00000000000E+00  0.00000000000E+00  0.64234954589E+03  0.64234954589E+03  0.00000000000E+00 0. -1.
         21   -1    0    0  501  502  0.00000000000E+00 -0.00000000000E+00 -0.21950595178E+03  0.21950595178E+03  0.00000000000E+00 0. -1.
         25    1    1    2    0    0  0.10781643767E+02  0.27450976958E+03  0.36302653034E+02  0.30399792771E+03  0.12500000000E+03 0.  0.
         21    1    1    2  503  502 -0.65735521097E+02  0.28413184001E+02  0.16102022409E+03  0.17622707035E+03  0.00000000000E+00 0. -1.
          2    1    1    2  501    0  0.54953877331E+02 -0.30292295358E+03  0.22552071698E+03  0.38163049961E+03  0.00000000000E+00 0. -1.
<mgrwt>
<rscale>  4 0.31121094E+03</rscale>
<asrwt>0</asrwt>
<pdfrwt beam="1">  1       21 0.33770147E-01 0.31121094E+03</pdfrwt>
<pdfrwt beam="2">  1        2 0.98823006E-01 0.31121094E+03</pdfrwt>
<totfact> 0.47828104E+03</totfact>
</mgrwt>
</event>
<event>
 5    0  0.1141006E+000  0.3040390E+03  0.7546771E-02  0.1083239E+00
         21   -1    0    0  501  502  0.00000000000E+00  0.00000000000E+00  0.97941028146E+03  0.97941028146E+03  0.00000000000E+00 0.  1.
          1   -1    0    0  503    0 -0.00000000000E+00 -0.00000000000E+00 -0.29414436180E+03  0.29414436180E+03  0.00000000000E+00 0. -1.
         25    1    1    2    0    0 -0.22934375992E+03  0.14946853971E+03  0.83207331957E+03  0.88482224978E+03  0.12500000000E+03 0.  0.
         21    1    1    2  503  502 -0.18569393332E+02  0.23493081834E+02 -0.71043220364E+02  0.77096604481E+02  0.00000000000E+00 0. -1.
          1    1    1    2  501    0  0.24791315325E+03 -0.17296162154E+03 -0.75764179548E+02  0.31163578900E+03  0.00000000000E+00 0. -1.
<mgrwt>
<rscale>  4 0.30403899E+03</rscale>
<asrwt>0</asrwt>
<pdfrwt beam="1">  1       21 0.15067850E+00 0.30403899E+03</pdfrwt>
<pdfrwt beam="2">  1        1 0.45252979E-01 0.30403899E+03</pdfrwt>
<totfact> 0.27179356E+02</totfact>
</mgrwt>
</event>
<event>
 5    0  0.1141006E+000  0.2343595E+03  0.7546771E-02  0.1123608E+00
         21   -1    0    0  501  502  0.00000000000E+00  0.00000000000E+00  0.12035296204E+03  0.12035296204E+03  0.00000000000E+00 0. -1.
          2   -1    0    0  503    0 -0.00000000000E+00 -0.00000000000E+00 -0.81771433804E+03  0.81771433804E+03  0.00000000000E+00 0. -1.
         25    1    1    2    0    0 -0.33561447917E+02 -0.20074324201E+03 -0.37676767376E+02  0.24180314059E+03  0.12500000000E+03 0.  0.
         21    1    1    2  503  502 -0.11012180264E+02  0.31605693183E+02 -0.38940035890E+02  0.51346999434E+02  0.00000000000E+00 0. -1.
          2    1    1    2  501    0  0.44573628182E+02  0.16913754883E+03 -0.62074457274E+03  0.64491716006E+03  0.00000000000E+00 0. -1.
<mgrwt>
<rscale>  4 0.23435950E+03</rscale>
<asrwt>0</asrwt>
<pdfrwt beam="1">  1       21 0.18515841E-01 0.23435950E+03</pdfrwt>
<pdfrwt beam="2">  1        2 0.12580220E+00 0.23435950E+03</pdfrwt>
<totfact> 0.11505464E+04</totfact>
</mgrwt>
</event>
<event>
 5    0  0.1141006E+000  0.3235453E+03  0.7546771E-02  0.1074029E+00
         21   -1    0    0  501  502  0.00000000000E+00  0.00000000000E+00  0.92645650147E+03  0.92645650147E+03  0.00000000000E+00 0. -1.
          2   -1    0    0  503    0 -0.00000000000E+00 -0.00000000000E+00 -0.37710701738E+03  0.37710701738E+03  0.00000000000E+00 0.  1.
         25    1    1    2    0    0  0.29628075762E+03 -0.18297433763E+01  0.79987729522E+03  0.86209878941E+03  0.12500000000E+03 0.  0.
         21    1    1    2  503  502  0.21424988181E+02  0.28299777705E+02 -0.61001497181E+02  0.70576838942E+02  0.00000000000E+00 0. -1.
          2    1    1    2  501    0 -0.31770574580E+03 -0.26470034329E+02 -0.18952631395E+03  0.37088789049E+03  0.00000000000E+00 0.  1.
<mgrwt>
<rscale>  4 0.32354532E+03</rscale>
<asrwt>0</asrwt>
<pdfrwt beam="1">  1       21 0.14253177E+00 0.32354532E+03</pdfrwt>
<pdfrwt beam="2">  1        2 0.58016464E-01 0.32354532E+03</pdfrwt>
<totfact> 0.33720969E+02</totfact>
</mgrwt>
</event>
<event>
 5    0  0.1141006E+000  0.2625945E+03  0.7546771E-02  0.1105594E+00
          2   -1    0    0  503    0 -0.00000000000E+00  0.00000000000E+00  0.18042376975E+04  0.18042376975E+04  0.00000000000E+00 0.  1.
         21   -1    0    0  501  502  0.00000000000E+00 -0.00000000000E+00 -0.47177581589E+02  0.47177581589E+02  0.00000000000E+00 0.  1.
         25    1    1    2    0    0  0.13220166635E+03  0.19614252859E+03  0.49835656990E+03  0.56562659314E+03  0.12500000000E+03 0.  0.
         21    1    1    2  503  502  0.10160759152E+02 -0.26168341807E+02  0.32119224511E+03  0.32241662714E+03  0.00000000000E+00 0. -1.
          2    1    1    2  501    0 -0.14236242551E+03 -0.16997418678E+03  0.93751130093E+03  0.96337205883E+03  0.00000000000E+00 0.  1.
<mgrwt>
<rscale>  4 0.26259448E+03</rscale>
<asrwt>0</asrwt>
<pdfrwt beam="1">  1       21 0.72580909E-02 0.26259448E+03</pdfrwt>
<pdfrwt beam="2">  1        2 0.27757498E+00 0.26259448E+03</pdfrwt>
<totfact> 0.16928666E+04</totfact>
</mgrwt>
</event>
<event>
 5    0  0.1141006E+000  0.2491506E+03  0.7546771E-02  0.1113843E+00
          2   -1    0    0  503    0 -0.00000000000E+00  0.00000000000E+00  0.94011218238E+03  0.94011218238E+03  0.00000000000E+00 0. -1.
         21   -1    0    0  501  502  0.00000000000E+00 -0.00000000000E+00 -0.19713523719E+03  0.19713523719E+03  0.00000000000E+00 0. -1.
         25    1    1    2    0    0  0.10866934313E+03  0.17924882710E+03 -0.45479804165E+02  0.24825910001E+03  0.12500000000E+03 0.  0.
         21    1    1    2  503  502  0.10721769747E+03 -0.39008345139E+02  0.44716091637E+03  0.46148691289E+03  0.00000000000E+00 0. -1.
          2    1    1    2  501    0 -0.21588704061E+03 -0.14024048196E+03  0.34129583299E+03  0.42750140666E+03  0.00000000000E+00 0. -1.
<mgrwt>
<rscale>  4 0.24915059E+03</rscale>
<asrwt>0</asrwt>
<pdfrwt beam="1">  1       21 0.30328498E-01 0.24915059E+03</pdfrwt>
<pdfrwt beam="2">  1        2 0.14463264E+00 0.24915059E+03</pdfrwt>
<totfact> 0.37104286E+03</totfact>
</mgrwt>
</event>
<event>
 5    0  0.1141006E+000  0.5128673E+03  0.7546771E-02  0.1010474E+00
         21   -1    0    0  501  502  0.00000000000E+00  0.00000000000E+00  0.15858190721E+04  0.15858190721E+04  0.00000000000E+00 0.  1.
          2   -1    0    0  503    0 -0.00000000000E+00 -0.00000000000E+00 -0.58081212281E+03  0.58081212281E+03  0.00000000000E+00 0. -1.
         25    1    1    2    0    0  0.63078867889E+02 -0.49863152811E+03  0.13048299414E+04  0.14038584403E+04  0.12500000000E+03 0.  0.
         21    1    1    2  503  502 -0.38680904300E+01  0.30340579432E+02 -0.28901569367E+03  0.29062963385E+03  0.00000000000E+00 0. -1.
          2    1    1    2  501    0 -0.59210777459E+02  0.46829094868E+03 -0.10807298447E+02  0.47214312076E+03  0.00000000000E+00 0. -1.
<mgrwt>
<rscale>  4 0.51286726E+03</rscale>
<asrwt>0</asrwt>
<pdfrwt beam="1">  1       21 0.24397216E+00 0.51286726E+03</pdfrwt>
<pdfrwt beam="2">  1        2 0.89355712E-01 0.51286726E+03</pdfrwt>
<totfact> 0.38275570E+01</totfact>
</mgrwt>
</event>
<event>
 5    0  0.1141006E+000  0.2507850E+03  0.7546771E-02  0.1112810E+00
         21   -1    0    0  501  502  0.00000000000E+00  0.00000000000E+00  0.10327813910E+03  0.10327813910E+03  0.00000000000E+00 0.  1.
          2   -1    0    0  503    0 -0.00000000000E+00 -0.00000000000E+00 -0.12063621460E+04  0.12063621460E+04  0.00000000000E+00 0.  1.
         25    1    1    2    0    0 -0.16977250783E+03  0.18861060375E+03 -0.18258185322E+03  0.33668649718E+03  0.12500000000E+03 0.  0.
         21    1    1    2  503  502  0.13613943243E+02 -0.45621932557E+02 -0.27054435328E+02  0.54759863512E+02  0.00000000000E+00 0. -1.
          2    1    1    2  501    0  0.15615856458E+03 -0.14298867119E+03 -0.89344771839E+03  0.91819392444E+03  0.00000000000E+00 0.  1.
<mgrwt>
<rscale>  4 0.25078505E+03</rscale>
<asrwt>0</asrwt>
<pdfrwt beam="1">  1       21 0.15888946E-01 0.25078505E+03</pdfrwt>
<pdfrwt beam="2">  1        2 0.18559416E+00 0.25078505E+03</pdfrwt>
<totfact> 0.87796841E+03</totfact>
</mgrwt>
</event>
<event>
 5    0  0.1141006E+000  0.2598067E+03  0.7546771E-02  0.1107259E+00
          2   -1    0    0  503    0 -0.00000000000E+00  0.00000000000E+00  0.89447678790E+03  0.89447678790E+03  0.00000000000E+00 0. -1.
         21   -1    0    0  501  502  0.00000000000E+00 -0.00000000000E+00 -0.71710594983E+03  0.71710594983E+03  0.00000000000E+00 0. -1.
         25    1    1    2    0    0  0.18059899651E+02  0.22768348757E+03 -0.67622063175E+03  0.72461387876E+03  0.12500000000E+03 0.  0.
         21    1    1    2  503  502  0.11659749168E+02 -0.23424721752E+02  0.41532825081E+02  0.49088113623E+02  0.00000000000E+00 0.  1.
          2    1    1    2  501    0 -0.29719648818E+02 -0.20425876582E+03  0.81205864473E+03  0.83788074535E+03  0.00000000000E+00 0. -1.
<mgrwt>
<rscale>  4 0.25980674E+03</rscale>
<asrwt>0</asrwt>
<pdfrwt beam="1">  1       21 0.11032399E+00 0.25980674E+03</pdfrwt>
<pdfrwt beam="2">  1        2 0.13761181E+00 0.25980674E+03</pdfrwt>
<totfact> 0.24056855E+02</totfact>
</mgrwt>
</event>
<event>
 5    0  0.1141006E+000  0.2612554E+03  0.7546771E-02  0.1106391E+00
         -2   -1    0    0    0  501 -0.00000000000E+00  0.00000000000E+00  0.15453442001E+04  0.15453442001E+04  0.00000000000E+00 0.  1.
         21   -1    0    0  503  502  0.00000000000E+00 -0.00000000000E+00 -0.97813491308E+03  0.97813491308E+03  0.00000000000E+00 0. -1.
         25    1    1    2    0    0  0.16237949032E+03  0.16280173947E+03 -0.94959382452E+03  0.98499996793E+03  0.12500000000E+03 0.  0.
         21    1    1    2  503  501 -0.48711529773E+02 -0.10370453544E+02  0.13972950267E+03  0.14833979020E+03  0.00000000000E+00 0. -1.
         -2    1    1    2    0  502 -0.11366796055E+03 -0.15243128593E+03  0.13770736089E+04  0.13901393551E+04  0.00000000000E+00 0.  1.
<mgrwt>
<rscale>  4 0.26125541E+03</rscale>
<asrwt>0</asrwt>
<pdfrwt beam="1">  1       21 0.15048229E+00 0.26125541E+03</pdfrwt>
<pdfrwt beam="2">  1       -2 0.23774526E+00 0.26125541E+03</pdfrwt>
<totfact> 0.19618992E+00</totfact>
</mgrwt>
</event>
<event>
 5    0  0.1141006E+000  0.3624494E+03  0.7546771E-02  0.1057618E+00
         21   -1    0    0  501  502  0.00000000000E+00  0.00000000000E+00  0.42369776471E+02  0.42369776471E+02  0.00000000000E+00 0. -1.
          2   -1    0    0  503    0 -0.00000000000E+00 -0.00000000000E+00 -0.33965555298E+04  0.33965555298E+04  0.00000000000E+00 0.  1.
         25    1    1    2    0    0  0.15138752403E+03 -0.28657833522E+03 -0.11827639661E+04  0.12327209433E+04  0.12500000000E+03 0.  0.
         21    1    1    2  503  502 -0.11888642765E+02 -0.34651478504E+02 -0.13471047631E+03  0.13960292697E+03  0.00000000000E+00 0.  1.
          2    1    1    2  501    0 -0.13949888126E+03  0.32122981373E+03 -0.20367113110E+04  0.20666014360E+04  0.00000000000E+00 0.  1.
<mgrwt>
<rscale>  4 0.36244943E+03</rscale>
<asrwt>0</asrwt>
<pdfrwt beam="1">  1       21 0.65184277E-02 0.36244943E+03</pdfrwt>
<pdfrwt beam="2">  1        2 0.52254696E+00 0.36244943E+03</pdfrwt>
<totfact> 0.24630539E+03</totfact>
</mgrwt>
</event>
<event>
 5    0  0.1141006E+000  0.4688587E+03  0.7546771E-02  0.1022243E+00
         21   -1    0    0  501  502  0.00000000000E+00  0.00000000000E+00  0.75118437430E+03  0.75118437430E+03  0.00000000000E+00 0. -1.
          2   -1    0    0  503    0 -0.00000000000E+00 -0.00000000000E+00 -0.35780518255E+03  0.35780518255E+03  0.00000000000E+00 0. -1.
         25    1    1    2    0    0 -0.21273396174E+03 -0.34585860239E+03  0.15953970533E+03  0.45381915881E+03  0.12500000000E+03 0.  0.
         21    1    1    2  503  502 -0.21190115494E+02 -0.10334153696E+03  0.36641665740E+02  0.11167410588E+03  0.00000000000E+00 0.  1.
          2    1    1    2  501    0  0.23392407724E+03  0.44920013935E+03  0.19719782068E+03  0.54349629216E+03  0.00000000000E+00 0. -1.
<mgrwt>
<rscale>  4 0.46885865E+03</rscale>
<asrwt>0</asrwt>
<pdfrwt beam="1">  1       21 0.11556683E+00 0.46885865E+03</pdfrwt>
<pdfrwt beam="2">  1        2 0.55046951E-01 0.46885865E+03</pdfrwt>
<totfact> 0.58543400E+02</totfact>
</mgrwt>
</event>
<event>
 5    0  0.1141006E+000  0.2809288E+03  0.7546771E-02  0.1095183E+00
         21   -1    0    0  501  502  0.00000000000E+00  0.00000000000E+00  0.18636523088E+04  0.18636523088E+04  0.00000000000E+00 0. -1.
          1   -1    0    0  503    0 -0.00000000000E+00 -0.00000000000E+00 -0.79785477608E+03  0.79785477608E+03  0.00000000000E+00 0. -1.
         25    1    1    2    0    0  0.12040254204E+03  0.22056440954E+03  0.18174893410E+04  0.18390317930E+04  0.12500000000E+03 0.  0.
         21    1    1    2  503  502  0.25936901442E+01  0.23453524047E+02 -0.10261994207E+01  0.23618808269E+02  0.00000000000E+00 0. -1.
          1    1    1    2  501    0 -0.12299623218E+03 -0.24401793359E+03 -0.75066560889E+03  0.79885648362E+03  0.00000000000E+00 0. -1.
<mgrwt>
<rscale>  4 0.28092875E+03</rscale>
<asrwt>0</asrwt>
<pdfrwt beam="1">  1       21 0.28671574E+00 0.28092875E+03</pdfrwt>
<pdfrwt beam="2">  1        1 0.12274689E+00 0.28092875E+03</pdfrwt>
<totfact> 0.94560495E+00</totfact>
</mgrwt>
</event>
