<event>
 5    0  0.3120399E-003  0.3660496E+03  0.7546771E-02  0.1056214E+00
         21   -1    0    0  504  501  0.00000000000E+00  0.00000000000E+00  0.50673885641E+02  0.50673885641E+02  0.00000000000E+00 0.  1.
         21   -1    0    0  501  502 -0.00000000000E+00 -0.00000000000E+00 -0.29055935181E+04  0.29055935181E+04  0.00000000000E+00 0.  1.
         25    1    1    2    0    0 -0.97764354311E+02 -0.19367023921E+03 -0.73922665622E+03  0.78047875038E+03  0.12500000000E+03 0.  0.
         21    1    1    2  503  502 -0.14733919238E+03 -0.32250838535E+02 -0.38905835149E+03  0.41727132068E+03  0.00000000000E+00 0.  1.
         21    1    1    2  504  503  0.24510354669E+03  0.22592107774E+03 -0.17266346247E+04  0.17585173327E+04  0.00000000000E+00 0.  1.
<mgrwt>
<rscale>  4 0.36604957E+03</rscale>
<asrwt>0</asrwt>
<pdfrwt beam="1">  1       21 0.77959777E-02 0.36604957E+03</pdfrwt>
<pdfrwt beam="2">  1       21 0.44701466E+00 0.36604957E+03</pdfrwt>
<totfact> 0.44690441E+02</totfact>
</mgrwt>
</event>
<event>
 5    0  0.3120399E-003  0.3030384E+03  0.7546771E-02  0.1083732E+00
         21   -1    0    0  504  501  0.00000000000E+00  0.00000000000E+00  0.23528957442E+03  0.23528957442E+03  0.00000000000E+00 0. -1.
         21   -1    0    0  501  502 -0.00000000000E+00 -0.00000000000E+00 -0.59749429493E+03  0.59749429493E+03  0.00000000000E+00 0. -1.
         25    1    1    2    0    0 -0.21454206756E+03  0.22776818082E+03 -0.57819562474E+02  0.34186948497E+03  0.12500000000E+03 0.  0.
         21    1    1    2  503  502  0.16501036811E+03 -0.10326456597E+03 -0.29903788054E+03  0.35681318104E+03  0.00000000000E+00 0. -1.
         21    1    1    2  504  503  0.49531699443E+02 -0.12450361485E+03 -0.53472774933E+01  0.13410120334E+03  0.00000000000E+00 0. -1.
<mgrwt>
<rscale>  4 0.30303841E+03</rscale>
<asrwt>0</asrwt>
<pdfrwt beam="1">  1       21 0.36198396E-01 0.30303841E+03</pdfrwt>
<pdfrwt beam="2">  1       21 0.91922199E-01 0.30303841E+03</pdfrwt>
<totfact> 0.68869567E+03</totfact>
</mgrwt>
</event>
<event>
 5    0  0.3120399E-003  0.2408169E+03  0.7546771E-02  0.1119250E+00
         21   -1    0    0  504  501  0.00000000000E+00  0.00000000000E+00  0.10339694056E+03  0.10339694056E+03  0.00000000000E+00 0.  1.
         21   -1    0    0  501  502 -0.00000000000E+00 -0.00000000000E+00 -0.80403658802E+03  0.80403658802E+03  0.00000000000E+00 0.  1.
         25    1    1    2    0    0 -0.38147452657E+02 -0.20081520931E+03 -0.45769856502E+03  0.51661876936E+03  0.12500000000E+03 0.  0.
         21    1    1    2  503  502 -0.55352019812E+02  0.12099388941E+03 -0.23192997893E+03  0.26738526978E+03  0.00000000000E+00 0.  1.
         21    1    1    2  504  503  0.93499472468E+02  0.79821319898E+02 -0.11011103513E+02  0.12342948944E+03  0.00000000000E+00 0.  1.
<mgrwt>
<rscale>  4 0.24081689E+03</rscale>
<asrwt>0</asrwt>
<pdfrwt beam="1">  1       21 0.15907221E-01 0.24081689E+03</pdfrwt>
<pdfrwt beam="2">  1       21 0.12369794E+00 0.24081689E+03</pdfrwt>
<totfact> 0.16754102E+04</totfact>
</mgrwt>
</event>
<event>
 5    0  0.3120399E-003  0.3818825E+03  0.7546771E-02  0.1050240E+00
         21   -1    0    0  503  501  0.00000000000E+00  0.00000000000E+00  0.11720544359E+03  0.11720544359E+03  0.00000000000E+00 0. -1.
         21   -1    0    0  501  502 -0.00000000000E+00 -0.00000000000E+00 -0.14166955011E+04  0.14166955011E+04  0.00000000000E+00 0. -1.
         25    1    1    2    0    0 -0.12806951197E+03  0.33642209291E+03 -0.94914454818E+03  0.10227815005E+04  0.12500000000E+03 0.  0.
         21    1    1    2  503  504 -0.11734328122E+02 -0.56712046184E+02 -0.38804093739E+02  0.69711608285E+02  0.00000000000E+00 0.  1.
         21    1    1    2  504  502  0.13980384009E+03 -0.27971004672E+03 -0.31154141556E+03  0.44140783585E+03  0.00000000000E+00 0. -1.
<mgrwt>
<rscale>  4 0.38188254E+03</rscale>
<asrwt>0</asrwt>
<pdfrwt beam="1">  1       21 0.18031606E-01 0.38188254E+03</pdfrwt>
<pdfrwt beam="2">  1       21 0.21795316E+00 0.38188254E+03</pdfrwt>
<totfact> 0.25259689E+03</totfact>
</mgrwt>
</event>
<event>
 5    0  0.3120399E-003  0.2665290E+03  0.7546771E-02  0.1103283E+00
         21   -1    0    0  502  501  0.00000000000E+00  0.00000000000E+00  0.53637915642E+03  0.53637915642E+03  0.00000000000E+00 0. -1.
         21   -1    0    0  504  502 -0.00000000000E+00 -0.00000000000E+00 -0.15806705422E+03  0.15806705422E+03  0.00000000000E+00 0. -1.
         25    1    1    2    0    0 -0.45145580125E+02  0.21880795540E+03  0.14827936271E+03  0.29584930989E+03  0.12500000000E+03 0.  0.
         21    1    1    2  503  501 -0.56427103564E+02 -0.18288923864E+03  0.21814518836E+03  0.29020650377E+03  0.00000000000E+00 0. -1.
         21    1    1    2  504  503  0.10157268369E+03 -0.35918716762E+02  0.11887551121E+02  0.10839039698E+03  0.00000000000E+00 0.  1.
<mgrwt>
<rscale>  4 0.26652901E+03</rscale>
<asrwt>0</asrwt>
<pdfrwt beam="1">  1       21 0.82519869E-01 0.26652901E+03</pdfrwt>
<pdfrwt beam="2">  1       21 0.24318009E-01 0.26652901E+03</pdfrwt>
<totfact> 0.19673733E+04</totfact>
</mgrwt>
</event>
<event>
 5    0  0.3120399E-003  0.3593764E+03  0.7546771E-02  0.1058831E+00
         21   -1    0    0  502  501  0.00000000000E+00  0.00000000000E+00  0.36072086804E+03  0.36072086804E+03  0.00000000000E+00 0. -1.
         21   -1    0    0  503  502 -0.00000000000E+00 -0.00000000000E+00 -0.38263833184E+03  0.38263833184E+03  0.00000000000E+00 0. -1.
         25    1    1    2    0    0 -0.26206416367E+03 -0.12528983436E+03 -0.99282112286E+02  0.33144698866E+03  0.12500000000E+03 0.  0.
         21    1    1    2  503  504  0.27650133322E+03  0.21337903801E+02 -0.67632954541E+01  0.27740590400E+03  0.00000000000E+00 0. -1.
         21    1    1    2  504  501 -0.14437169553E+02  0.10395193055E+03  0.84127943935E+02  0.13450630722E+03  0.00000000000E+00 0. -1.
<mgrwt>
<rscale>  4 0.35937642E+03</rscale>
<asrwt>0</asrwt>
<pdfrwt beam="1">  1       21 0.55495518E-01 0.35937642E+03</pdfrwt>
<pdfrwt beam="2">  1       21 0.58867436E-01 0.35937642E+03</pdfrwt>
<totfact> 0.75612485E+03</totfact>
</mgrwt>
</event>
<event>
 5    0  0.3120399E-003  0.2217325E+03  0.7546771E-02  0.1132598E+00
         21   -1    0    0  504  501  0.00000000000E+00  0.00000000000E+00  0.53286281848E+03  0.53286281848E+03  0.00000000000E+00 0.  1.
         21   -1    0    0  501  502 -0.00000000000E+00 -0.00000000000E+00 -0.23202814046E+03  0.23202814046E+03  0.00000000000E+00 0.  1.
         25    1    1    2    0    0  0.20646776260E+03  0.21208356632E+02  0.33763193116E+03  0.41557075489E+03  0.12500000000E+03 0.  0.
         21    1    1    2  503  502 -0.87908864030E+02  0.79397218913E+02 -0.12363484662E+03  0.17122342727E+03  0.00000000000E+00 0.  1.
         21    1    1    2  504  503 -0.11855889857E+03 -0.10060557554E+03  0.86837593484E+02  0.17809677679E+03  0.00000000000E+00 0.  1.
<mgrwt>
<rscale>  4 0.22173252E+03</rscale>
<asrwt>0</asrwt>
<pdfrwt beam="1">  1       21 0.81978895E-01 0.22173252E+03</pdfrwt>
<pdfrwt beam="2">  1       21 0.35696637E-01 0.22173252E+03</pdfrwt>
<totfact> 0.96558823E+03</totfact>
</mgrwt>
</event>
<event>
 5    0  0.3120399E-003  0.1195482E+03  0.7546771E-02  0.1243844E+00
         21   -1    0    0  502  501  0.00000000000E+00  0.00000000000E+00  0.10191788031E+03  0.10191788031E+03  0.00000000000E+00 0. -1.
         21   -1    0    0  504  502 -0.00000000000E+00 -0.00000000000E+00 -0.62825310853E+03  0.62825310853E+03  0.00000000000E+00 0. -1.
         25    1    1    2    0    0  0.17019229374E+03  0.10898316572E+03 -0.33165043711E+03  0.40799480352E+03  0.12500000000E+03 0.  0.
         21    1    1    2  503  501 -0.22096126817E+02  0.21950816905E+02 -0.96611176722E+02  0.10150761868E+03  0.00000000000E+00 0. -1.
         21    1    1    2  504  503 -0.14809616692E+03 -0.13093398263E+03 -0.98073614390E+02  0.22066856664E+03  0.00000000000E+00 0.  1.
<mgrwt>
<rscale>  4 0.11954816E+03</rscale>
<asrwt>0</asrwt>
<pdfrwt beam="1">  1       21 0.15679674E-01 0.11954816E+03</pdfrwt>
<pdfrwt beam="2">  1       21 0.96654326E-01 0.11954816E+03</pdfrwt>
<totfact> 0.33643339E+04</totfact>
</mgrwt>
</event>
<event>
 5    0  0.3120399E-003  0.2539965E+03  0.7546771E-02  0.1110805E+00
         21   -1    0    0  503  501  0.00000000000E+00  0.00000000000E+00  0.12474683918E+03  0.12474683918E+03  0.00000000000E+00 0.  1.
         21   -1    0    0  501  502 -0.00000000000E+00 -0.00000000000E+00 -0.18991186587E+04  0.18991186587E+04  0.00000000000E+00 0.  1.
         25    1    1    2    0    0  0.14923808082E+03  0.15086091129E+03 -0.22064444704E+02  0.24727082125E+03  0.12500000000E+03 0.  0.
         21    1    1    2  503  504  0.23815218933E+02 -0.27856662891E+02 -0.55202460150E+02  0.66260621238E+02  0.00000000000E+00 0.  1.
         21    1    1    2  504  502 -0.17305329975E+03 -0.12300424840E+03 -0.16971049146E+04  0.17103340554E+04  0.00000000000E+00 0. -1.
<mgrwt>
<rscale>  4 0.25399651E+03</rscale>
<asrwt>0</asrwt>
<pdfrwt beam="1">  1       21 0.19191822E-01 0.25399651E+03</pdfrwt>
<pdfrwt beam="2">  1       21 0.29217209E+00 0.25399651E+03</pdfrwt>
<totfact> 0.87827606E+02</totfact>
</mgrwt>
</event>
<event>
 5    0  0.3120399E-003  0.3471283E+03  0.7546771E-02  0.1063800E+00
         21   -1    0    0  504  501  0.00000000000E+00  0.00000000000E+00  0.14061666835E+04  0.14061666835E+04  0.00000000000E+00 0. -1.
         21   -1    0    0  501  502 -0.00000000000E+00 -0.00000000000E+00 -0.10024784586E+03  0.10024784586E+03  0.00000000000E+00 0. -1.
         25    1    1    2    0    0 -0.18175747191E+03  0.18036643814E+03  0.60280776741E+03  0.66676085297E+03  0.12500000000E+03 0.  0.
         21    1    1    2  503  502 -0.64097410857E+02 -0.10353285028E+03  0.39836014553E+02  0.12811884022E+03  0.00000000000E+00 0.  1.
         21    1    1    2  504  503  0.24585488277E+03 -0.76833587863E+02  0.66327505564E+03  0.71153483614E+03  0.00000000000E+00 0. -1.
<mgrwt>
<rscale>  4 0.34712829E+03</rscale>
<asrwt>0</asrwt>
<pdfrwt beam="1">  1       21 0.21633332E+00 0.34712829E+03</pdfrwt>
<pdfrwt beam="2">  1       21 0.15422747E-01 0.34712829E+03</pdfrwt>
<totfact> 0.35252673E+03</totfact>
</mgrwt>
</event>
<event>
 5    0  0.3120399E-003  0.3956232E+03  0.7546771E-02  0.1045306E+00
         21   -1    0    0  502  501  0.00000000000E+00  0.00000000000E+00  0.10079525354E+04  0.10079525354E+04  0.00000000000E+00 0. -1.
         21   -1    0    0  503  502 -0.00000000000E+00 -0.00000000000E+00 -0.15846362935E+03  0.15846362935E+03  0.00000000000E+00 0. -1.
         25    1    1    2    0    0 -0.32728959332E+03 -0.78317345595E+02  0.30613527337E+03  0.47180068898E+03  0.12500000000E+03 0.  0.
         21    1    1    2  503  504 -0.19934594845E+02  0.79763846162E+02  0.14034630481E+03  0.16265529349E+03  0.00000000000E+00 0.  1.
         21    1    1    2  504  501  0.34722418817E+03 -0.14465005673E+01  0.40300732784E+03  0.53196018226E+03  0.00000000000E+00 0. -1.
<mgrwt>
<rscale>  4 0.39562315E+03</rscale>
<asrwt>0</asrwt>
<pdfrwt beam="1">  1       21 0.15506962E+00 0.39562315E+03</pdfrwt>
<pdfrwt beam="2">  1       21 0.24379021E-01 0.39562315E+03</pdfrwt>
<totfact> 0.38471803E+03</totfact>
</mgrwt>
</event>
<event>
 5    0  0.3120399E-003  0.3329312E+03  0.7546771E-02  0.1069847E+00
         21   -1    0    0  504  501  0.00000000000E+00  0.00000000000E+00  0.64447562004E+03  0.64447562004E+03  0.00000000000E+00 0. -1.
         21   -1    0    0  501  502 -0.00000000000E+00 -0.00000000000E+00 -0.18982808952E+03  0.18982808952E+03  0.00000000000E+00 0. -1.
         25    1    1    2    0    0 -0.22110900980E+03  0.90333902581E+02  0.72045668411E+02  0.27904298326E+03  0.12500000000E+03 0.  0.
         21    1    1    2  503  502  0.61985431900E+02  0.12179091122E+03  0.11624103720E+03  0.17940791107E+03  0.00000000000E+00 0. -1.
         21    1    1    2  504  503  0.15912357790E+03 -0.21212481380E+03  0.26636082491E+03  0.37585281523E+03  0.00000000000E+00 0. -1.
<mgrwt>
<rscale>  4 0.33293116E+03</rscale>
<asrwt>0</asrwt>
<pdfrwt beam="1">  1       21 0.99150094E-01 0.33293116E+03</pdfrwt>
<pdfrwt beam="2">  1       21 0.29204322E-01 0.33293116E+03</pdfrwt>
<totfact> 0.87020188E+03</totfact>
</mgrwt>
</event>
<event>
 5    0  0.3120399E-003  0.3043995E+03  0.7546771E-02  0.1083062E+00
         21   -1    0    0  503  501  0.00000000000E+00  0.00000000000E+00  0.26005635183E+03  0.26005635183E+03  0.00000000000E+00 0.  1.
         21   -1    0    0  501  502 -0.00000000000E+00 -0.00000000000E+00 -0.36348999036E+03  0.36348999036E+03  0.00000000000E+00 0.  1.
         25    1    1    2    0    0 -0.27068619121E+03  0.10534655928E+03 -0.48602018996E+02  0.31993134876E+03  0.12500000000E+03 0.  0.
         21    1    1    2  503  504  0.25092946318E+03 -0.99900994889E+02 -0.68927897023E+02  0.27874156357E+03  0.00000000000E+00 0.  1.
         21    1    1    2  504  502  0.19756728033E+02 -0.54455643918E+01  0.14096277489E+02  0.24873429864E+02  0.00000000000E+00 0.  1.
<mgrwt>
<rscale>  4 0.30439948E+03</rscale>
<asrwt>0</asrwt>
<pdfrwt beam="1">  1       21 0.40008669E-01 0.30439948E+03</pdfrwt>
<pdfrwt beam="2">  1       21 0.55921537E-01 0.30439948E+03</pdfrwt>
<totfact> 0.17137678E+04</totfact>
</mgrwt>
</event>
<event>
 5    0  0.3120399E-003  0.3491747E+03  0.7546771E-02  0.1062954E+00
         21   -1    0    0  503  501  0.00000000000E+00  0.00000000000E+00  0.11385631140E+03  0.11385631140E+03  0.00000000000E+00 0. -1.
         21   -1    0    0  501  502 -0.00000000000E+00 -0.00000000000E+00 -0.13325637485E+04  0.13325637485E+04  0.00000000000E+00 0. -1.
         25    1    1    2    0    0  0.42898252058E+02 -0.23539224004E+03 -0.69851585712E+03  0.74886525447E+03  0.12500000000E+03 0.  0.
         21    1    1    2  503  504 -0.20600026684E+03  0.17628479717E+03 -0.21311739253E+03  0.34486441198E+03  0.00000000000E+00 0. -1.
         21    1    1    2  504  502  0.16310201478E+03  0.59107442870E+02 -0.30707418741E+03  0.35269039340E+03  0.00000000000E+00 0. -1.
<mgrwt>
<rscale>  4 0.34917468E+03</rscale>
<asrwt>0</asrwt>
<pdfrwt beam="1">  1       21 0.17516354E-01 0.34917468E+03</pdfrwt>
<pdfrwt beam="2">  1       21 0.20500982E+00 0.34917468E+03</pdfrwt>
<totfact> 0.32873526E+03</totfact>
</mgrwt>
</event>
<event>
 5    0  0.3120399E-003  0.3947284E+03  0.7546771E-02  0.1045620E+00
         21   -1    0    0  504  501  0.00000000000E+00  0.00000000000E+00  0.13289063842E+04  0.13289063842E+04  0.00000000000E+00 0.  1.
         21   -1    0    0  501  502 -0.00000000000E+00 -0.00000000000E+00 -0.12316536868E+03  0.12316536868E+03  0.00000000000E+00 0.  1.
         25    1    1    2    0    0 -0.18508543320E+03  0.17464376980E+03  0.70884884406E+03  0.76344531411E+03  0.12500000000E+03 0.  0.
         21    1    1    2  503  502 -0.11364899504E+03 -0.68400408948E+02  0.52359402937E+02  0.14260510893E+03  0.00000000000E+00 0. -1.
         21    1    1    2  504  503  0.29873442824E+03 -0.10624336085E+03  0.44453276851E+03  0.54602132982E+03  0.00000000000E+00 0.  1.
<mgrwt>
<rscale>  4 0.39472836E+03</rscale>
<asrwt>0</asrwt>
<pdfrwt beam="1">  1       21 0.20444713E+00 0.39472836E+03</pdfrwt>
<pdfrwt beam="2">  1       21 0.18948519E-01 0.39472836E+03</pdfrwt>
<totfact> 0.27949758E+03</totfact>
</mgrwt>
</event>
<event>
 5    0  0.3120399E-003  0.5106895E+03  0.7546771E-02  0.1011026E+00
         21   -1    0    0  502  501  0.00000000000E+00  0.00000000000E+00  0.42047150205E+03  0.42047150205E+03  0.00000000000E+00 0. -1.
         21   -1    0    0  504  502 -0.00000000000E+00 -0.00000000000E+00 -0.15483110403E+04  0.15483110403E+04  0.00000000000E+00 0. -1.
         25    1    1    2    0    0 -0.38690633156E+02 -0.32107415649E+03  0.24157822210E+03  0.42257616645E+03  0.12500000000E+03 0.  0.
         21    1    1    2  503  501  0.10331668258E+03 -0.12397916967E+03 -0.79030674821E+02  0.17969701994E+03  0.00000000000E+00 0.  1.
         21    1    1    2  504  503 -0.64626049426E+02  0.44505332616E+03 -0.12903870855E+04  0.13665093559E+04  0.00000000000E+00 0. -1.
<mgrwt>
<rscale>  4 0.51068953E+03</rscale>
<asrwt>0</asrwt>
<pdfrwt beam="1">  1       21 0.64687924E-01 0.51068953E+03</pdfrwt>
<pdfrwt beam="2">  1       21 0.23820170E+00 0.51068953E+03</pdfrwt>
<totfact> 0.13196100E+02</totfact>
</mgrwt>
</event>
<event>
 5    0  0.3120399E-003  0.6216560E+03  0.7546771E-02  0.9861468E-01
         21   -1    0    0  502  501  0.00000000000E+00  0.00000000000E+00  0.11559815867E+04  0.11559815867E+04  0.00000000000E+00 0. -1.
         21   -1    0    0  503  502 -0.00000000000E+00 -0.00000000000E+00 -0.33637432357E+03  0.33637432357E+03  0.00000000000E+00 0. -1.
         25    1    1    2    0    0  0.10708323629E+03  0.25497670344E+03  0.16425969630E+03  0.34508866487E+03  0.12500000000E+03 0.  0.
         21    1    1    2  503  504  0.81528812739E+02 -0.56891542650E+03  0.37857533276E+03  0.68820853845E+03  0.00000000000E+00 0. -1.
         21    1    1    2  504  501 -0.18861204903E+03  0.31393872306E+03  0.27677223409E+03  0.45905870697E+03  0.00000000000E+00 0. -1.
<mgrwt>
<rscale>  4 0.62165602E+03</rscale>
<asrwt>0</asrwt>
<pdfrwt beam="1">  1       21 0.17784332E+00 0.62165602E+03</pdfrwt>
<pdfrwt beam="2">  1       21 0.51749897E-01 0.62165602E+03</pdfrwt>
<totfact> 0.51741568E+02</totfact>
</mgrwt>
</event>
<event>
 5    0  0.3120399E-003  0.2277471E+03  0.7546771E-02  0.1128236E+00
         21   -1    0    0  503  501  0.00000000000E+00  0.00000000000E+00  0.23215420200E+04  0.23215420200E+04  0.00000000000E+00 0.  1.
         21   -1    0    0  501  502 -0.00000000000E+00 -0.00000000000E+00 -0.29029716447E+02  0.29029716447E+02  0.00000000000E+00 0.  1.
         25    1    1    2    0    0 -0.20409046657E+03 -0.83845619889E+02  0.81058952772E+03  0.84933114211E+03  0.12500000000E+03 0.  0.
         21    1    1    2  503  504  0.10375859893E+03  0.91759891641E+02  0.79318845121E+03  0.80519168134E+03  0.00000000000E+00 0.  1.
         21    1    1    2  504  502  0.10033186764E+03 -0.79142717519E+01  0.68873432462E+03  0.69604891299E+03  0.00000000000E+00 0. -1.
<mgrwt>
<rscale>  4 0.22774710E+03</rscale>
<asrwt>0</asrwt>
<pdfrwt beam="1">  1       21 0.35716016E+00 0.22774710E+03</pdfrwt>
<pdfrwt beam="2">  1       21 0.44661120E-02 0.22774710E+03</pdfrwt>
<totfact> 0.49514842E+03</totfact>
</mgrwt>
</event>
<event>
 5    0  0.3120399E-003  0.2103769E+03  0.7546771E-02  0.1141268E+00
         21   -1    0    0  503  501  0.00000000000E+00  0.00000000000E+00  0.84431521372E+02  0.84431521372E+02  0.00000000000E+00 0. -1.
         21   -1    0    0  501  502 -0.00000000000E+00 -0.00000000000E+00 -0.82759904035E+03  0.82759904035E+03  0.00000000000E+00 0. -1.
         25    1    1    2    0    0  0.15145075873E+03  0.13416407972E+03 -0.15939984119E+03  0.28630515535E+03  0.12500000000E+03 0.  0.
         21    1    1    2  503  504 -0.31910597634E+02 -0.72665529817E+02 -0.12857032547E+03  0.15109233620E+03  0.00000000000E+00 0.  1.
         21    1    1    2  504  502 -0.11954016109E+03 -0.61498549906E+02 -0.45519735231E+03  0.47463307017E+03  0.00000000000E+00 0. -1.
<mgrwt>
<rscale>  4 0.21037694E+03</rscale>
<asrwt>0</asrwt>
<pdfrwt beam="1">  1       21 0.12989465E-01 0.21037694E+03</pdfrwt>
<pdfrwt beam="2">  1       21 0.12732293E+00 0.21037694E+03</pdfrwt>
<totfact> 0.22933095E+04</totfact>
</mgrwt>
</event>
<event>
 5    0  0.3120399E-003  0.3946761E+03  0.7546771E-02  0.1045639E+00
         21   -1    0    0  504  501  0.00000000000E+00  0.00000000000E+00  0.22607838245E+03  0.22607838245E+03  0.00000000000E+00 0.  1.
         21   -1    0    0  501  502 -0.00000000000E+00 -0.00000000000E+00 -0.69164903868E+03  0.69164903868E+03  0.00000000000E+00 0.  1.
         25    1    1    2    0    0 -0.16114948111E+03 -0.19417582394E+03 -0.20884622368E+03  0.35059257124E+03  0.12500000000E+03 0.  0.
         21    1    1    2  503  502 -0.22009884093E+02 -0.12986510451E+03 -0.46722067544E+02  0.13975811949E+03  0.00000000000E+00 0.  1.
         21    1    1    2  504  503  0.18315936520E+03  0.32404092845E+03 -0.21000236500E+03  0.42737673039E+03  0.00000000000E+00 0.  1.
<mgrwt>
<rscale>  4 0.39467611E+03</rscale>
<asrwt>0</asrwt>
<pdfrwt beam="1">  1       21 0.34781290E-01 0.39467611E+03</pdfrwt>
<pdfrwt beam="2">  1       21 0.10640754E+00 0.39467611E+03</pdfrwt>
<totfact> 0.50457423E+03</totfact>
</mgrwt>
</event>
<event>
 5    0  0.3120399E-003  0.3242531E+03  0.7546771E-02  0.1073708E+00
         21   -1    0    0  502  501  0.00000000000E+00  0.00000000000E+00  0.55501639271E+03  0.55501639271E+03  0.00000000000E+00 0.  1.
         21   -1    0    0  504  502 -0.00000000000E+00 -0.00000000000E+00 -0.19548149466E+03  0.19548149466E+03  0.00000000000E+00 0.  1.
         25    1    1    2    0    0 -0.22207075486E+03 -0.12684404711E+03  0.82504528355E+02  0.29637278831E+03  0.12500000000E+03 0.  0.
         21    1    1    2  503  501 -0.48057405288E+02 -0.20286912320E+02  0.43503071045E+02  0.67923414260E+02  0.00000000000E+00 0.  1.
         21    1    1    2  504  503  0.27012816015E+03  0.14713095943E+03  0.23352729866E+03  0.38620168480E+03  0.00000000000E+00 0. -1.
<mgrwt>
<rscale>  4 0.32425310E+03</rscale>
<asrwt>0</asrwt>
<pdfrwt beam="1">  1       21 0.85387137E-01 0.32425310E+03</pdfrwt>
<pdfrwt beam="2">  1       21 0.30074076E-01 0.32425310E+03</pdfrwt>
<totfact> 0.11730141E+04</totfact>
</mgrwt>
</event>
<event>
 5    0  0.3120399E-003  0.2504002E+03  0.7546771E-02  0.1113052E+00
         21   -1    0    0  504  501  0.00000000000E+00  0.00000000000E+00  0.32716573434E+03  0.32716573434E+03  0.00000000000E+00 0. -1.
         21   -1    0    0  501  502 -0.00000000000E+00 -0.00000000000E+00 -0.36961515182E+03  0.36961515182E+03  0.00000000000E+00 0. -1.
         25    1    1    2    0    0  0.28489111203E+03  0.77766198231E+01  0.41977317674E+02  0.31402311496E+03  0.12500000000E+03 0.  0.
         21    1    1    2  503  502 -0.17044193500E+03 -0.27408948666E+02 -0.16706465472E+03  0.24023384968E+03  0.00000000000E+00 0. -1.
         21    1    1    2  504  503 -0.11444917703E+03  0.19632328843E+02  0.82637919555E+02  0.14252392153E+03  0.00000000000E+00 0. -1.
<mgrwt>
<rscale>  4 0.25040025E+03</rscale>
<asrwt>0</asrwt>
<pdfrwt beam="1">  1       21 0.50333190E-01 0.25040025E+03</pdfrwt>
<pdfrwt beam="2">  1       21 0.56863869E-01 0.25040025E+03</pdfrwt>
<totfact> 0.10540087E+04</totfact>
</mgrwt>
</event>
<event>
 5    0  0.3120399E-003  0.2992318E+03  0.7546771E-02  0.1085625E+00
         21   -1    0    0  502  501  0.00000000000E+00  0.00000000000E+00  0.10621355138E+03  0.10621355138E+03  0.00000000000E+00 0.  1.
         21   -1    0    0  503  502 -0.00000000000E+00 -0.00000000000E+00 -0.19184820138E+04  0.19184820138E+04  0.00000000000E+00 0.  1.
         25    1    1    2    0    0 -0.15323492499E+03  0.25072927966E+03 -0.45189219538E+03  0.55333323609E+03  0.12500000000E+03 0.  0.
         21    1    1    2  503  504  0.12519510953E+03 -0.14025776175E+03 -0.13429706307E+04  0.13560664328E+04  0.00000000000E+00 0.  1.
         21    1    1    2  504  501  0.28039815459E+02 -0.11047151792E+03 -0.17405636295E+02  0.11529589627E+03  0.00000000000E+00 0.  1.
<mgrwt>
<rscale>  4 0.29923178E+03</rscale>
<asrwt>0</asrwt>
<pdfrwt beam="1">  1       21 0.16340547E-01 0.29923178E+03</pdfrwt>
<pdfrwt beam="2">  1       21 0.29515107E+00 0.29923178E+03</pdfrwt>
<totfact> 0.10915994E+03</totfact>
</mgrwt>
</event>
<event>
 5    0  0.3120399E-003  0.3441699E+03  0.7546771E-02  0.1065034E+00
         21   -1    0    0  504  501  0.00000000000E+00  0.00000000000E+00  0.37843403918E+03  0.37843403918E+03  0.00000000000E+00 0.  1.
         21   -1    0    0  501  502 -0.00000000000E+00 -0.00000000000E+00 -0.31772751518E+03  0.31772751518E+03  0.00000000000E+00 0.  1.
         25    1    1    2    0    0  0.23109378738E+03 -0.14743106068E+03  0.85540571230E+01  0.30139414081E+03  0.12500000000E+03 0.  0.
         21    1    1    2  503  502 -0.29143387592E+03  0.89044616325E+02  0.21898993302E+02  0.30551957979E+03  0.00000000000E+00 0.  1.
         21    1    1    2  504  503  0.60340088537E+02  0.58386444359E+02  0.30253473576E+02  0.89247833772E+02  0.00000000000E+00 0.  1.
<mgrwt>
<rscale>  4 0.34416990E+03</rscale>
<asrwt>0</asrwt>
<pdfrwt beam="1">  1       21 0.58220621E-01 0.34416990E+03</pdfrwt>
<pdfrwt beam="2">  1       21 0.48881156E-01 0.34416990E+03</pdfrwt>
<totfact> 0.10207012E+04</totfact>
</mgrwt>
</event>
<event>
 5    0  0.3120399E-003  0.5973163E+03  0.7546771E-02  0.9910990E-01
         21   -1    0    0  502  501  0.00000000000E+00  0.00000000000E+00  0.20325390423E+03  0.20325390423E+03  0.00000000000E+00 0.  1.
         21   -1    0    0  503  502 -0.00000000000E+00 -0.00000000000E+00 -0.18494801830E+04  0.18494801830E+04  0.00000000000E+00 0.  1.
         25    1    1    2    0    0  0.16743303290E+03 -0.33742936876E+03 -0.33280801146E+03  0.51795614862E+03  0.12500000000E+03 0.  0.
         21    1    1    2  503  504 -0.14593806855E+03 -0.20332449781E+03 -0.35952491665E+03  0.43806042614E+03  0.00000000000E+00 0.  1.
         21    1    1    2  504  501 -0.21494964342E+02  0.54075386656E+03 -0.95389335067E+03  0.10967175125E+04  0.00000000000E+00 0.  1.
<mgrwt>
<rscale>  4 0.59731629E+03</rscale>
<asrwt>0</asrwt>
<pdfrwt beam="1">  1       21 0.31269831E-01 0.59731629E+03</pdfrwt>
<pdfrwt beam="2">  1       21 0.28453542E+00 0.59731629E+03</pdfrwt>
<totfact> 0.30428955E+02</totfact>
</mgrwt>
</event>
<event>
 5    0  0.3120399E-003  0.4257527E+03  0.7546771E-02  0.1035210E+00
         21   -1    0    0  502  501  0.00000000000E+00  0.00000000000E+00  0.50955571491E+03  0.50955571491E+03  0.00000000000E+00 0.  1.
         21   -1    0    0  503  502 -0.00000000000E+00 -0.00000000000E+00 -0.42393249593E+03  0.42393249593E+03  0.00000000000E+00 0.  1.
         25    1    1    2    0    0 -0.16586565970E+03  0.13889899356E+03 -0.10662720166E+03  0.27165917547E+03  0.12500000000E+03 0.  0.
         21    1    1    2  503  504  0.16681551535E+03  0.20609577901E+03 -0.34946680672E+01  0.26516994361E+03  0.00000000000E+00 0.  1.
         21    1    1    2  504  501 -0.94985565092E+00 -0.34499477257E+03  0.19574508870E+03  0.39665909176E+03  0.00000000000E+00 0.  1.
<mgrwt>
<rscale>  4 0.42575272E+03</rscale>
<asrwt>0</asrwt>
<pdfrwt beam="1">  1       21 0.78393187E-01 0.42575272E+03</pdfrwt>
<pdfrwt beam="2">  1       21 0.65220384E-01 0.42575272E+03</pdfrwt>
<totfact> 0.27310056E+03</totfact>
</mgrwt>
</event>
<event>
 5    0  0.3120399E-003  0.3292208E+03  0.7546771E-02  0.1071482E+00
         21   -1    0    0  504  501  0.00000000000E+00  0.00000000000E+00  0.99148649393E+03  0.99148649393E+03  0.00000000000E+00 0.  1.
         21   -1    0    0  501  502 -0.00000000000E+00 -0.00000000000E+00 -0.12902626145E+03  0.12902626145E+03  0.00000000000E+00 0.  1.
         25    1    1    2    0    0  0.15999180067E+03  0.16436079276E+03  0.17379473055E+03  0.31375381248E+03  0.12500000000E+03 0.  0.
         21    1    1    2  503  502 -0.24843361816E+03 -0.26776724892E+02  0.48467834158E+03  0.54529748800E+03  0.00000000000E+00 0.  1.
         21    1    1    2  504  503  0.88441817484E+02 -0.13758406787E+03  0.20398716034E+03  0.26146145490E+03  0.00000000000E+00 0.  1.
<mgrwt>
<rscale>  4 0.32922079E+03</rscale>
<asrwt>0</asrwt>
<pdfrwt beam="1">  1       21 0.15253638E+00 0.32922079E+03</pdfrwt>
<pdfrwt beam="2">  1       21 0.19850195E-01 0.32922079E+03</pdfrwt>
<totfact> 0.61414636E+03</totfact>
</mgrwt>
</event>
<event>
 5    0  0.3120399E-003  0.3398205E+03  0.7546771E-02  0.1066872E+00
         21   -1    0    0  504  501  0.00000000000E+00  0.00000000000E+00  0.58626047119E+03  0.58626047119E+03  0.00000000000E+00 0. -1.
         21   -1    0    0  501  502 -0.00000000000E+00 -0.00000000000E+00 -0.35034747782E+03  0.35034747782E+03  0.00000000000E+00 0. -1.
         25    1    1    2    0    0  0.18603655759E+03  0.25988179245E+03  0.43586407972E+03  0.55475277629E+03  0.12500000000E+03 0.  0.
         21    1    1    2  503  502 -0.28218912949E+02 -0.21484069685E+02 -0.50120592779E+01  0.35818892172E+02  0.00000000000E+00 0.  1.
         21    1    1    2  504  503 -0.15781764464E+03 -0.23839772277E+03 -0.19493902707E+03  0.34603628055E+03  0.00000000000E+00 0. -1.
<mgrwt>
<rscale>  4 0.33982050E+03</rscale>
<asrwt>0</asrwt>
<pdfrwt beam="1">  1       21 0.90193918E-01 0.33982050E+03</pdfrwt>
<pdfrwt beam="2">  1       21 0.53899612E-01 0.33982050E+03</pdfrwt>
<totfact> 0.30977275E+03</totfact>
</mgrwt>
</event>
<event>
 5    0  0.3120399E-003  0.2781949E+03  0.7546771E-02  0.1096679E+00
         21   -1    0    0  502  501  0.00000000000E+00  0.00000000000E+00  0.55243470180E+02  0.55243470180E+02  0.00000000000E+00 0. -1.
         21   -1    0    0  503  502 -0.00000000000E+00 -0.00000000000E+00 -0.16343162251E+04  0.16343162251E+04  0.00000000000E+00 0. -1.
         25    1    1    2    0    0  0.14479377646E+03 -0.16811542432E+03 -0.63089418665E+03  0.68035322322E+03  0.12500000000E+03 0.  0.
         21    1    1    2  503  504 -0.35571962990E+01  0.19108330581E+03 -0.41042601565E+03  0.45274164567E+03  0.00000000000E+00 0. -1.
         21    1    1    2  504  501 -0.14123658016E+03 -0.22967881489E+02 -0.53775255259E+03  0.55646482636E+03  0.00000000000E+00 0. -1.
<mgrwt>
<rscale>  4 0.27819489E+03</rscale>
<asrwt>0</asrwt>
<pdfrwt beam="1">  1       21 0.84989940E-02 0.27819489E+03</pdfrwt>
<pdfrwt beam="2">  1       21 0.25143331E+00 0.27819489E+03</pdfrwt>
<totfact> 0.65506530E+03</totfact>
</mgrwt>
</event>
<event>
 5    0  0.3120399E-003  0.5310820E+03  0.7546771E-02  0.1005970E+00
         21   -1    0    0  502  501  0.00000000000E+00  0.00000000000E+00  0.79063341577E+03  0.79063341577E+03  0.00000000000E+00 0. -1.
         21   -1    0    0  503  502 -0.00000000000E+00 -0.00000000000E+00 -0.36577708023E+03  0.36577708023E+03  0.00000000000E+00 0. -1.
         25    1    1    2    0    0 -0.23215359090E+03 -0.31920641322E+02  0.44761575024E+02  0.26933773540E+03  0.12500000000E+03 0.  0.
         21    1    1    2  503  504  0.47399321458E+03 -0.14717671207E+03  0.28043015878E+03  0.57006282635E+03  0.00000000000E+00 0. -1.
         21    1    1    2  504  501 -0.24183962368E+03  0.17909735339E+03  0.99664601740E+02  0.31700993425E+03  0.00000000000E+00 0. -1.
<mgrwt>
<rscale>  4 0.53108202E+03</rscale>
<asrwt>0</asrwt>
<pdfrwt beam="1">  1       21 0.12163591E+00 0.53108202E+03</pdfrwt>
<pdfrwt beam="2">  1       21 0.56273397E-01 0.53108202E+03</pdfrwt>
<totfact> 0.12559412E+03</totfact>
</mgrwt>
</event>
<event>
 5    0  0.3120399E-003  0.2571353E+03  0.7546771E-02  0.1108877E+00
         21   -1    0    0  503  501  0.00000000000E+00  0.00000000000E+00  0.69714420364E+03  0.69714420364E+03  0.00000000000E+00 0.  1.
         21   -1    0    0  501  502 -0.00000000000E+00 -0.00000000000E+00 -0.18023582837E+03  0.18023582837E+03  0.00000000000E+00 0.  1.
         25    1    1    2    0    0  0.40275183193E+02  0.24708959269E+03  0.50562673254E+03  0.57789164196E+03  0.12500000000E+03 0.  0.
         21    1    1    2  503  504  0.68775678769E+01 -0.59893241938E+02  0.74976570720E+02  0.96208042941E+02  0.00000000000E+00 0. -1.
         21    1    1    2  504  502 -0.47152751070E+02 -0.18719635075E+03 -0.63694927979E+02  0.20328034710E+03  0.00000000000E+00 0.  1.
<mgrwt>
<rscale>  4 0.25713530E+03</rscale>
<asrwt>0</asrwt>
<pdfrwt beam="1">  1       21 0.10725295E+00 0.25713530E+03</pdfrwt>
<pdfrwt beam="2">  1       21 0.27728589E-01 0.25713530E+03</pdfrwt>
<totfact> 0.82635789E+03</totfact>
</mgrwt>
</event>
<event>
 5    0  0.3120399E-003  0.4222318E+03  0.7546771E-02  0.1036342E+00
         21   -1    0    0  502  501  0.00000000000E+00  0.00000000000E+00  0.55077499397E+03  0.55077499397E+03  0.00000000000E+00 0.  1.
         21   -1    0    0  503  502 -0.00000000000E+00 -0.00000000000E+00 -0.35470490619E+03  0.35470490619E+03  0.00000000000E+00 0.  1.
         25    1    1    2    0    0  0.30230564870E+03  0.89562455193E+02 -0.44589850870E+02  0.34208682146E+03  0.12500000000E+03 0.  0.
         21    1    1    2  503  504  0.59164968557E+02 -0.12970286312E+03  0.40224198982E+02  0.14812600173E+03  0.00000000000E+00 0.  1.
         21    1    1    2  504  501 -0.36147061725E+03  0.40140407923E+02  0.20043573966E+03  0.41526707698E+03  0.00000000000E+00 0.  1.
<mgrwt>
<rscale>  4 0.42223178E+03</rscale>
<asrwt>0</asrwt>
<pdfrwt beam="1">  1       21 0.84734615E-01 0.42223178E+03</pdfrwt>
<pdfrwt beam="2">  1       21 0.54569985E-01 0.42223178E+03</pdfrwt>
<totfact> 0.33726167E+03</totfact>
</mgrwt>
</event>
<event>
 5    0  0.3120399E-003  0.4014776E+03  0.7546771E-02  0.1043269E+00
         21   -1    0    0  504  501  0.00000000000E+00  0.00000000000E+00  0.27005573292E+03  0.27005573292E+03  0.00000000000E+00 0. -1.
         21   -1    0    0  501  502 -0.00000000000E+00 -0.00000000000E+00 -0.82091393845E+03  0.82091393845E+03  0.00000000000E+00 0. -1.
         25    1    1    2    0    0 -0.19769650547E+03  0.22541344403E+03 -0.26400253920E+03  0.41858985861E+03  0.12500000000E+03 0.  0.
         21    1    1    2  503  502 -0.14044534075E+03 -0.18531220991E+03 -0.23018291670E+03  0.32718448010E+03  0.00000000000E+00 0. -1.
         21    1    1    2  504  503  0.33814184622E+03 -0.40101234121E+02 -0.56672749633E+02  0.34519533266E+03  0.00000000000E+00 0. -1.
<mgrwt>
<rscale>  4 0.40147765E+03</rscale>
<asrwt>0</asrwt>
<pdfrwt beam="1">  1       21 0.41547036E-01 0.40147765E+03</pdfrwt>
<pdfrwt beam="2">  1       21 0.12629445E+00 0.40147765E+03</pdfrwt>
<totfact> 0.22783155E+03</totfact>
</mgrwt>
</event>
<event>
 5    0  0.3120399E-003  0.4975649E+03  0.7546771E-02  0.1014416E+00
         21   -1    0    0  502  501  0.00000000000E+00  0.00000000000E+00  0.24492706189E+03  0.24492706189E+03  0.00000000000E+00 0.  1.
         21   -1    0    0  504  502 -0.00000000000E+00 -0.00000000000E+00 -0.10216241531E+04  0.10216241531E+04  0.00000000000E+00 0.  1.
         25    1    1    2    0    0  0.28989452793E+03  0.67979598624E+02 -0.28829750156E+03  0.43289780845E+03  0.12500000000E+03 0.  0.
         21    1    1    2  503  501 -0.44738485472E+03  0.85551333807E+02 -0.32050248434E+03  0.55695069927E+03  0.00000000000E+00 0. -1.
         21    1    1    2  504  503  0.15749032678E+03 -0.15353093243E+03 -0.16789710531E+03  0.27670270728E+03  0.00000000000E+00 0.  1.
<mgrwt>
<rscale>  4 0.49756491E+03</rscale>
<asrwt>0</asrwt>
<pdfrwt beam="1">  1       21 0.37681086E-01 0.49756491E+03</pdfrwt>
<pdfrwt beam="2">  1       21 0.15717295E+00 0.49756491E+03</pdfrwt>
<totfact> 0.14969563E+03</totfact>
</mgrwt>
</event>
<event>
 5    0  0.3120399E-003  0.5405674E+03  0.7546771E-02  0.1003701E+00
         21   -1    0    0  504  501  0.00000000000E+00  0.00000000000E+00  0.10092160142E+04  0.10092160142E+04  0.00000000000E+00 0. -1.
         21   -1    0    0  501  502 -0.00000000000E+00 -0.00000000000E+00 -0.58786081119E+03  0.58786081119E+03  0.00000000000E+00 0. -1.
         25    1    1    2    0    0  0.19252975453E+03 -0.60461617362E+02  0.10822374965E+03  0.26088444481E+03  0.12500000000E+03 0.  0.
         21    1    1    2  503  502 -0.47600443803E+03  0.11137018457E+02 -0.36473929163E+03  0.59978246812E+03  0.00000000000E+00 0. -1.
         21    1    1    2  504  503  0.28347468350E+03  0.49324598905E+02  0.67787074495E+03  0.73640991242E+03  0.00000000000E+00 0. -1.
<mgrwt>
<rscale>  4 0.54056739E+03</rscale>
<asrwt>0</asrwt>
<pdfrwt beam="1">  1       21 0.15526400E+00 0.54056739E+03</pdfrwt>
<pdfrwt beam="2">  1       21 0.90440125E-01 0.54056739E+03</pdfrwt>
<totfact> 0.22252781E+02</totfact>
</mgrwt>
</event>
<event>
 5    0  0.3120399E-003  0.2635262E+03  0.7546771E-02  0.1105043E+00
         21   -1    0    0  502  501  0.00000000000E+00  0.00000000000E+00  0.13318007878E+03  0.13318007878E+03  0.00000000000E+00 0. -1.
         21   -1    0    0  503  502 -0.00000000000E+00 -0.00000000000E+00 -0.66288144693E+03  0.66288144693E+03  0.00000000000E+00 0. -1.
         25    1    1    2    0    0 -0.18584521996E+03  0.74320806618E+02 -0.53529661160E+02  0.24197614077E+03  0.12500000000E+03 0.  0.
         21    1    1    2  503  504  0.22867391997E+03 -0.64239279774E+02 -0.42243315485E+03  0.48463204295E+03  0.00000000000E+00 0. -1.
         21    1    1    2  504  501 -0.42828700002E+02 -0.10081526845E+02 -0.53738552140E+02  0.69453341989E+02  0.00000000000E+00 0.  1.
<mgrwt>
<rscale>  4 0.26352618E+03</rscale>
<asrwt>0</asrwt>
<pdfrwt beam="1">  1       21 0.20489243E-01 0.26352618E+03</pdfrwt>
<pdfrwt beam="2">  1       21 0.10198176E+00 0.26352618E+03</pdfrwt>
<totfact> 0.16603046E+04</totfact>
</mgrwt>
</event>
<event>
 5    0  0.3120399E-003  0.3868540E+03  0.7546771E-02  0.1048429E+00
         21   -1    0    0  502  501  0.00000000000E+00  0.00000000000E+00  0.44236608806E+03  0.44236608806E+03  0.00000000000E+00 0.  1.
         21   -1    0    0  503  502 -0.00000000000E+00 -0.00000000000E+00 -0.64433222781E+03  0.64433222781E+03  0.00000000000E+00 0.  1.
         25    1    1    2    0    0  0.21328244250E+03 -0.21526468994E+03  0.14741691111E+03  0.35942319443E+03  0.12500000000E+03 0.  0.
         21    1    1    2  503  504 -0.30118089273E+03  0.13296031303E+03 -0.45871414077E+03  0.56463000091E+03  0.00000000000E+00 0.  1.
         21    1    1    2  504  501  0.87898450225E+02  0.82304376910E+02  0.10933108992E+03  0.16264512053E+03  0.00000000000E+00 0. -1.
<mgrwt>
<rscale>  4 0.38685397E+03</rscale>
<asrwt>0</asrwt>
<pdfrwt beam="1">  1       21 0.68056321E-01 0.38685397E+03</pdfrwt>
<pdfrwt beam="2">  1       21 0.99128035E-01 0.38685397E+03</pdfrwt>
<totfact> 0.14538198E+03</totfact>
</mgrwt>
</event>
<event>
 5    0  0.3120399E-003  0.4705829E+03  0.7546771E-02  0.1021756E+00
         21   -1    0    0  504  501  0.00000000000E+00  0.00000000000E+00  0.47699724959E+03  0.47699724959E+03  0.00000000000E+00 0.  1.
         21   -1    0    0  501  502 -0.00000000000E+00 -0.00000000000E+00 -0.60361563886E+03  0.60361563886E+03  0.00000000000E+00 0.  1.
         25    1    1    2    0    0  0.21945128862E+03  0.63000087962E+02  0.81116262282E+02  0.27264028896E+03  0.12500000000E+03 0.  0.
         21    1    1    2  503  502 -0.22952099566E+03 -0.34107280272E+03 -0.30641421967E+03  0.51273796253E+03  0.00000000000E+00 0.  1.
         21    1    1    2  504  503  0.10069707039E+02  0.27807271476E+03  0.98679568119E+02  0.29523463696E+03  0.00000000000E+00 0.  1.
<mgrwt>
<rscale>  4 0.47058287E+03</rscale>
<asrwt>0</asrwt>
<pdfrwt beam="1">  1       21 0.73384193E-01 0.47058287E+03</pdfrwt>
<pdfrwt beam="2">  1       21 0.92863944E-01 0.47058287E+03</pdfrwt>
<totfact> 0.13854294E+03</totfact>
</mgrwt>
</event>
<event>
 5    0  0.3120399E-003  0.2867225E+03  0.7546771E-02  0.1092073E+00
         21   -1    0    0  502  501  0.00000000000E+00  0.00000000000E+00  0.48183002288E+03  0.48183002288E+03  0.00000000000E+00 0.  1.
         21   -1    0    0  503  502 -0.00000000000E+00 -0.00000000000E+00 -0.20245178646E+03  0.20245178646E+03  0.00000000000E+00 0.  1.
         25    1    1    2    0    0 -0.23682903952E+03 -0.53445080983E+02  0.32584899398E+02  0.27501117488E+03  0.12500000000E+03 0.  0.
         21    1    1    2  503  504  0.25468264743E+02  0.10032154460E+03  0.43452130742E+02  0.11225476598E+03  0.00000000000E+00 0. -1.
         21    1    1    2  504  501  0.21136077478E+03 -0.46876463613E+02  0.20334120628E+03  0.29701586848E+03  0.00000000000E+00 0.  1.
<mgrwt>
<rscale>  4 0.28672252E+03</rscale>
<asrwt>0</asrwt>
<pdfrwt beam="1">  1       21 0.74127695E-01 0.28672252E+03</pdfrwt>
<pdfrwt beam="2">  1       21 0.31146429E-01 0.28672252E+03</pdfrwt>
<totfact> 0.15366116E+04</totfact>
</mgrwt>
</event>
<event>
 5    0  0.3120399E-003  0.4184679E+03  0.7546771E-02  0.1037566E+00
         21   -1    0    0  504  501  0.00000000000E+00  0.00000000000E+00  0.27656228116E+03  0.27656228116E+03  0.00000000000E+00 0. -1.
         21   -1    0    0  501  502 -0.00000000000E+00 -0.00000000000E+00 -0.84339035311E+03  0.84339035311E+03  0.00000000000E+00 0. -1.
         25    1    1    2    0    0 -0.20651081304E+03  0.10611359952E+03 -0.26283001815E+02  0.26499548692E+03  0.12500000000E+03 0.  0.
         21    1    1    2  503  502  0.35559168729E+03  0.58659977211E+02 -0.51879145312E+03  0.63168901592E+03  0.00000000000E+00 0. -1.
         21    1    1    2  504  503 -0.14908087426E+03 -0.16477357674E+03 -0.21753617012E+02  0.22326813143E+03  0.00000000000E+00 0.  1.
<mgrwt>
<rscale>  4 0.41846787E+03</rscale>
<asrwt>0</asrwt>
<pdfrwt beam="1">  1       21 0.42548044E-01 0.41846787E+03</pdfrwt>
<pdfrwt beam="2">  1       21 0.12975236E+00 0.41846787E+03</pdfrwt>
<totfact> 0.20083051E+03</totfact>
</mgrwt>
</event>
<event>
 5    0  0.3120399E-003  0.2901887E+03  0.7546771E-02  0.1090251E+00
         21   -1    0    0  503  501  0.00000000000E+00  0.00000000000E+00  0.23318973718E+03  0.23318973718E+03  0.00000000000E+00 0. -1.
         21   -1    0    0  501  502 -0.00000000000E+00 -0.00000000000E+00 -0.53315624990E+03  0.53315624990E+03  0.00000000000E+00 0. -1.
         25    1    1    2    0    0 -0.24671063090E+03 -0.11783247004E+03 -0.22618560827E+03  0.37621211542E+03  0.12500000000E+03 0.  0.
         21    1    1    2  503  504  0.20096396792E+03  0.94479651124E+02  0.73691502276E+02  0.23397298645E+03  0.00000000000E+00 0. -1.
         21    1    1    2  504  502  0.45746662980E+02  0.23352818914E+02 -0.14747240672E+03  0.15616088521E+03  0.00000000000E+00 0.  1.
<mgrwt>
<rscale>  4 0.29018866E+03</rscale>
<asrwt>0</asrwt>
<pdfrwt beam="1">  1       21 0.35875344E-01 0.29018866E+03</pdfrwt>
<pdfrwt beam="2">  1       21 0.82024039E-01 0.29018866E+03</pdfrwt>
<totfact> 0.91957661E+03</totfact>
</mgrwt>
</event>
<event>
 5    0  0.3120399E-003  0.3711782E+03  0.7546771E-02  0.1054243E+00
         21   -1    0    0  502  501  0.00000000000E+00  0.00000000000E+00  0.95624893933E+03  0.95624893933E+03  0.00000000000E+00 0. -1.
         21   -1    0    0  503  502 -0.00000000000E+00 -0.00000000000E+00 -0.16779691329E+03  0.16779691329E+03  0.00000000000E+00 0. -1.
         25    1    1    2    0    0  0.18089495263E+03 -0.10017749182E+03  0.21963815606E+03  0.32653396968E+03  0.12500000000E+03 0.  0.
         21    1    1    2  503  504  0.96017733273E+02  0.19636875438E+03  0.90639561879E+02  0.23663394299E+03  0.00000000000E+00 0. -1.
         21    1    1    2  504  501 -0.27691268590E+03 -0.96191262557E+02  0.47817430810E+03  0.56087793996E+03  0.00000000000E+00 0. -1.
<mgrwt>
<rscale>  4 0.37117820E+03</rscale>
<asrwt>0</asrwt>
<pdfrwt beam="1">  1       21 0.14711522E+00 0.37117820E+03</pdfrwt>
<pdfrwt beam="2">  1       21 0.25814910E-01 0.37117820E+03</pdfrwt>
<totfact> 0.40127418E+03</totfact>
</mgrwt>
</event>
<event>
 5    0  0.3120399E-003  0.5310818E+03  0.7546771E-02  0.1005970E+00
         21   -1    0    0  502  501  0.00000000000E+00  0.00000000000E+00  0.24809045804E+03  0.24809045804E+03  0.00000000000E+00 0. -1.
         21   -1    0    0  503  502 -0.00000000000E+00 -0.00000000000E+00 -0.11413085809E+04  0.11413085809E+04  0.00000000000E+00 0. -1.
         25    1    1    2    0    0  0.26978803258E+03 -0.17004897448E+03 -0.19736465808E+03  0.39532270932E+03  0.12500000000E+03 0.  0.
         21    1    1    2  503  504  0.12861157445E+03 -0.13811555156E+03 -0.29571319878E+03  0.35080356127E+03  0.00000000000E+00 0.  1.
         21    1    1    2  504  501 -0.39839960703E+03  0.30816452604E+03 -0.40014026596E+03  0.64327276830E+03  0.00000000000E+00 0. -1.
<mgrwt>
<rscale>  4 0.53108182E+03</rscale>
<asrwt>0</asrwt>
<pdfrwt beam="1">  1       21 0.38167762E-01 0.53108182E+03</pdfrwt>
<pdfrwt beam="2">  1       21 0.17558594E+00 0.53108182E+03</pdfrwt>
<totfact> 0.10516403E+03</totfact>
</mgrwt>
</event>
<event>
 5    0  0.3120399E-003  0.2942870E+03  0.7546771E-02  0.1088132E+00
         21   -1    0    0  504  501  0.00000000000E+00  0.00000000000E+00  0.77014983366E+03  0.77014983366E+03  0.00000000000E+00 0. -1.
         21   -1    0    0  501  502 -0.00000000000E+00 -0.00000000000E+00 -0.17257690612E+03  0.17257690612E+03  0.00000000000E+00 0. -1.
         25    1    1    2    0    0 -0.82137719702E+02  0.20005315463E+03  0.62774065538E+03  0.67561172288E+03  0.12500000000E+03 0.  0.
         21    1    1    2  503  502  0.35826112117E+02  0.16797367896E+02 -0.21890173492E+02  0.45219924515E+02  0.00000000000E+00 0.  1.
         21    1    1    2  504  503  0.46311607585E+02 -0.21685052252E+03 -0.82775543490E+01  0.22189509238E+03  0.00000000000E+00 0. -1.
<mgrwt>
<rscale>  4 0.29428698E+03</rscale>
<asrwt>0</asrwt>
<pdfrwt beam="1">  1       21 0.11848459E+00 0.29428698E+03</pdfrwt>
<pdfrwt beam="2">  1       21 0.26550294E-01 0.29428698E+03</pdfrwt>
<totfact> 0.68997839E+03</totfact>
</mgrwt>
</event>
