<event>
 5    0  0.1226227E+000  0.2946461E+03  0.7546771E-02  0.1087948E+00
          2   -1    0    0  501    0  0.00000000000E+00  0.00000000000E+00  0.64637975221E+03  0.64637975221E+03  0.00000000000E+00 0.  1.
         -3   -1    0    0    0  501 -0.00000000000E+00 -0.00000000000E+00 -0.63287489493E+03  0.63287489493E+03  0.00000000000E+00 0.  1.
         25    1    1    2    0    0 -0.64484466068E+02  0.30538688216E+03  0.25773458043E+03  0.42364077720E+03  0.12500000000E+03 0.  0.
          2    1    1    2  502    0 -0.37481008899E+01 -0.51737696696E+02  0.27173285164E+03  0.27663980224E+03  0.00000000000E+00 0.  1.
         -3    1    1    2    0  502  0.68232566958E+02 -0.25364918546E+03 -0.51596257479E+03  0.57897406770E+03  0.00000000000E+00 0.  1.
<mgrwt>
<rscale>  4 0.29464607E+03</rscale>
<asrwt>0</asrwt>
<pdfrwt beam="1">  1        2 0.99443039E-01 0.29464607E+03</pdfrwt>
<pdfrwt beam="2">  1       -3 0.97365369E-01 0.29464607E+03</pdfrwt>
<totfact> 0.27377186E+01</totfact>
</mgrwt>
</event>
<event>
 5    0  0.1226227E+000  0.1963330E+03  0.7546771E-02  0.1152870E+00
          2   -1    0    0  502    0  0.00000000000E+00  0.00000000000E+00  0.15372933189E+04  0.15372933189E+04  0.00000000000E+00 0.  1.
          2   -1    0    0  501    0 -0.00000000000E+00 -0.00000000000E+00 -0.13443055506E+04  0.13443055506E+04  0.00000000000E+00 0.  1.
         25    1    1    2    0    0 -0.13323129719E+03 -0.15922378950E+03  0.23208612937E+03  0.33554696413E+03  0.12500000000E+03 0.  0.
          2    1    1    2  501    0  0.93415576285E+02  0.11803949164E+03 -0.12875334568E+04  0.12963032801E+04  0.00000000000E+00 0.  1.
          2    1    1    2  502    0  0.39815720909E+02  0.41184297861E+02  0.12484350958E+04  0.12497486253E+04  0.00000000000E+00 0.  1.
<mgrwt>
<rscale>  4 0.19633303E+03</rscale>
<asrwt>0</asrwt>
<pdfrwt beam="1">  1        2 0.23650667E+00 0.19633303E+03</pdfrwt>
<pdfrwt beam="2">  1        2 0.20681624E+00 0.19633303E+03</pdfrwt>
<totfact> 0.35564057E+01</totfact>
</mgrwt>
</event>
<event>
 5    0  0.1226227E+000  0.2557020E+03  0.7546771E-02  0.1109753E+00
          4   -1    0    0  502    0  0.00000000000E+00  0.00000000000E+00  0.57772354314E+03  0.57772354314E+03  0.00000000000E+00 0. -1.
          1   -1    0    0  501    0 -0.00000000000E+00 -0.00000000000E+00 -0.53214271469E+03  0.53214271469E+03  0.00000000000E+00 0.  1.
         25    1    1    2    0    0  0.19874405098E+03  0.37449549905E+02 -0.17864571756E+03  0.29739024697E+03  0.12500000000E+03 0.  0.
          4    1    1    2  501    0  0.29680423824E+02  0.41269296508E+02  0.46712161518E+03  0.46987943748E+03  0.00000000000E+00 0. -1.
          1    1    1    2  502    0 -0.22842447481E+03 -0.78718846413E+02 -0.24289506917E+03  0.34259657339E+03  0.00000000000E+00 0.  1.
<mgrwt>
<rscale>  4 0.25570200E+03</rscale>
<asrwt>0</asrwt>
<pdfrwt beam="1">  1        4 0.88880545E-01 0.25570200E+03</pdfrwt>
<pdfrwt beam="2">  1        1 0.81868110E-01 0.25570200E+03</pdfrwt>
<totfact> 0.21661097E+01</totfact>
</mgrwt>
</event>
<event>
 5    0  0.1226227E+000  0.3337763E+03  0.7546771E-02  0.1069478E+00
          1   -1    0    0  501    0 -0.00000000000E+00  0.00000000000E+00  0.14373431605E+04  0.14373431605E+04  0.00000000000E+00 0.  1.
          2   -1    0    0  502    0  0.00000000000E+00 -0.00000000000E+00 -0.14759760205E+04  0.14759760205E+04  0.00000000000E+00 0. -1.
         25    1    1    2    0    0 -0.19796983933E+03 -0.18959690028E+03  0.12672117000E+03  0.32683680455E+03  0.12500000000E+03 0.  0.
          2    1    1    2  501    0  0.21257369519E+03  0.22876646272E+03 -0.13578278518E+04  0.13932760478E+04  0.00000000000E+00 0. -1.
          1    1    1    2  502    0 -0.14603855861E+02 -0.39169562441E+02  0.11924738218E+04  0.11932063287E+04  0.00000000000E+00 0.  1.
<mgrwt>
<rscale>  4 0.33377635E+03</rscale>
<asrwt>0</asrwt>
<pdfrwt beam="1">  1        2 0.22707323E+00 0.33377635E+03</pdfrwt>
<pdfrwt beam="2">  1        1 0.22112972E+00 0.33377635E+03</pdfrwt>
<totfact> 0.14823704E+01</totfact>
</mgrwt>
</event>
<event>
 5    0  0.1226227E+000  0.3182847E+03  0.7546771E-02  0.1076441E+00
          1   -1    0    0  501    0 -0.00000000000E+00  0.00000000000E+00  0.20875790401E+04  0.20875790401E+04  0.00000000000E+00 0.  1.
          2   -1    0    0  502    0  0.00000000000E+00 -0.00000000000E+00 -0.13098424192E+04  0.13098424192E+04  0.00000000000E+00 0.  1.
         25    1    1    2    0    0  0.32029752578E+03  0.49892360432E+02 -0.11779364304E+03  0.36685159805E+03  0.12500000000E+03 0.  0.
          2    1    1    2  501    0 -0.28862862384E+02 -0.46866699956E+02 -0.10559813250E+04  0.10574148245E+04  0.00000000000E+00 0.  1.
          1    1    1    2  502    0 -0.29143466340E+03 -0.30256604762E+01  0.19515115889E+04  0.19731550368E+04  0.00000000000E+00 0.  1.
<mgrwt>
<rscale>  4 0.31828472E+03</rscale>
<asrwt>0</asrwt>
<pdfrwt beam="1">  1        2 0.20151422E+00 0.31828472E+03</pdfrwt>
<pdfrwt beam="2">  1        1 0.32116601E+00 0.31828472E+03</pdfrwt>
<totfact> 0.68824022E+00</totfact>
</mgrwt>
</event>
<event>
 5    0  0.1226227E+000  0.2579802E+03  0.7546771E-02  0.1108363E+00
          2   -1    0    0  501    0  0.00000000000E+00  0.00000000000E+00  0.12600252239E+04  0.12600252239E+04  0.00000000000E+00 0. -1.
         -4   -1    0    0    0  501 -0.00000000000E+00 -0.00000000000E+00 -0.43765925707E+03  0.43765925707E+03  0.00000000000E+00 0.  1.
         25    1    1    2    0    0 -0.22037509937E+03  0.27959610942E+03  0.36880844390E+03  0.52762092179E+03  0.12500000000E+03 0.  0.
          2    1    1    2  502    0  0.96718190626E+02 -0.10241016386E+03  0.77227106259E+03  0.78501263950E+03  0.00000000000E+00 0. -1.
         -4    1    1    2    0  502  0.12365690875E+03 -0.17718594556E+03 -0.31871353966E+03  0.38505091968E+03  0.00000000000E+00 0.  1.
<mgrwt>
<rscale>  4 0.25798024E+03</rscale>
<asrwt>0</asrwt>
<pdfrwt beam="1">  1        2 0.19385003E+00 0.25798024E+03</pdfrwt>
<pdfrwt beam="2">  1       -4 0.67332194E-01 0.25798024E+03</pdfrwt>
<totfact> 0.20477985E+01</totfact>
</mgrwt>
</event>
<event>
 5    0  0.1226227E+000  0.2940788E+03  0.7546771E-02  0.1088239E+00
          1   -1    0    0  502    0  0.00000000000E+00  0.00000000000E+00  0.21410844133E+04  0.21410844133E+04  0.00000000000E+00 0. -1.
          1   -1    0    0  501    0 -0.00000000000E+00 -0.00000000000E+00 -0.73313400370E+02  0.73313400370E+02  0.00000000000E+00 0. -1.
         25    1    1    2    0    0  0.20112008255E+03 -0.20741271997E+03  0.52659251701E+03  0.61350957855E+03  0.12500000000E+03 0.  0.
          1    1    1    2  501    0 -0.49901373919E+02 -0.53925658529E+01  0.14775705173E+02  0.52321585878E+02  0.00000000000E+00 0. -1.
          1    1    1    2  502    0 -0.15121870863E+03  0.21280528583E+03  0.15264027908E+04  0.15485666493E+04  0.00000000000E+00 0. -1.
<mgrwt>
<rscale>  4 0.29407884E+03</rscale>
<asrwt>0</asrwt>
<pdfrwt beam="1">  1        1 0.32939755E+00 0.29407884E+03</pdfrwt>
<pdfrwt beam="2">  1        1 0.11278986E-01 0.29407884E+03</pdfrwt>
<totfact> 0.17643804E+02</totfact>
</mgrwt>
</event>
<event>
 5    0  0.1226227E+000  0.3059664E+03  0.7546771E-02  0.1082296E+00
          2   -1    0    0  502    0  0.00000000000E+00  0.00000000000E+00  0.95938976126E+03  0.95938976126E+03  0.00000000000E+00 0.  1.
          2   -1    0    0  501    0 -0.00000000000E+00 -0.00000000000E+00 -0.14739071709E+04  0.14739071709E+04  0.00000000000E+00 0. -1.
         25    1    1    2    0    0 -0.28868423913E+03  0.19840999106E+03  0.13934109780E+03  0.39717257711E+03  0.12500000000E+03 0.  0.
          2    1    1    2  501    0  0.22114761675E+03 -0.16436113829E+03 -0.13287450047E+04  0.13570129475E+04  0.00000000000E+00 0. -1.
          2    1    1    2  502    0  0.67536622373E+02 -0.34048852766E+02  0.67488649724E+03  0.67911140757E+03  0.00000000000E+00 0.  1.
<mgrwt>
<rscale>  4 0.30596645E+03</rscale>
<asrwt>0</asrwt>
<pdfrwt beam="1">  1        2 0.14759843E+00 0.30596645E+03</pdfrwt>
<pdfrwt beam="2">  1        2 0.22675495E+00 0.30596645E+03</pdfrwt>
<totfact> 0.60634177E+01</totfact>
</mgrwt>
</event>
<event>
 5    0  0.1226227E+000  0.2941075E+03  0.7546771E-02  0.1088224E+00
          1   -1    0    0  501    0 -0.00000000000E+00  0.00000000000E+00  0.11153183812E+04  0.11153183812E+04  0.00000000000E+00 0. -1.
          2   -1    0    0  502    0  0.00000000000E+00 -0.00000000000E+00 -0.28636095229E+03  0.28636095229E+03  0.00000000000E+00 0. -1.
         25    1    1    2    0    0 -0.15471712482E+03  0.28098618162E+03  0.27275316115E+03  0.43921510663E+03  0.12500000000E+03 0.  0.
          2    1    1    2  501    0  0.11884451614E+03 -0.22444441145E+03 -0.12144785007E+03  0.28151179928E+03  0.00000000000E+00 0. -1.
          1    1    1    2  502    0  0.35872608680E+02 -0.56541770171E+02  0.67765211786E+03  0.68095242761E+03  0.00000000000E+00 0. -1.
<mgrwt>
<rscale>  4 0.29410746E+03</rscale>
<asrwt>0</asrwt>
<pdfrwt beam="1">  1        2 0.44055532E-01 0.29410746E+03</pdfrwt>
<pdfrwt beam="2">  1        1 0.17158744E+00 0.29410746E+03</pdfrwt>
<totfact> 0.20578908E+02</totfact>
</mgrwt>
</event>
<event>
 5    0  0.1226227E+000  0.3260307E+03  0.7546771E-02  0.1072907E+00
         -1   -1    0    0    0  501 -0.00000000000E+00  0.00000000000E+00  0.77791057749E+03  0.77791057749E+03  0.00000000000E+00 0. -1.
          1   -1    0    0  502    0  0.00000000000E+00 -0.00000000000E+00 -0.38304047362E+03  0.38304047362E+03  0.00000000000E+00 0.  1.
         25    1    1    2    0    0 -0.29638315298E+03  0.13970730744E+03 -0.19674924208E+03  0.40211487088E+03  0.12500000000E+03 0.  0.
          1    1    1    2  502    0  0.34255714372E+02  0.25127704507E+01 -0.44538874102E+02  0.56244815661E+02  0.00000000000E+00 0.  1.
         -1    1    1    2    0  501  0.26212743860E+03 -0.14222007789E+03  0.63615822006E+03  0.70259136457E+03  0.00000000000E+00 0. -1.
<mgrwt>
<rscale>  4 0.32603068E+03</rscale>
<asrwt>0</asrwt>
<pdfrwt beam="1">  1        1 0.58929303E-01 0.32603068E+03</pdfrwt>
<pdfrwt beam="2">  1       -1 0.11967855E+00 0.32603068E+03</pdfrwt>
<totfact> 0.42696194E+01</totfact>
</mgrwt>
</event>
<event>
 5    0  0.1226227E+000  0.2336887E+03  0.7546771E-02  0.1124070E+00
          2   -1    0    0  502    0  0.00000000000E+00  0.00000000000E+00  0.76768318644E+02  0.76768318644E+02  0.00000000000E+00 0. -1.
          1   -1    0    0  501    0 -0.00000000000E+00 -0.00000000000E+00 -0.18138904080E+04  0.18138904080E+04  0.00000000000E+00 0.  1.
         25    1    1    2    0    0 -0.71157119231E+02 -0.23385888285E+03 -0.94763986497E+03  0.98661016941E+03  0.12500000000E+03 0.  0.
          2    1    1    2  501    0  0.65584274945E+02  0.17801657994E+03 -0.10414887871E+03  0.21642132240E+03  0.00000000000E+00 0. -1.
          1    1    1    2  502    0  0.55728442867E+01  0.55842302911E+02 -0.68533334564E+03  0.68762723480E+03  0.00000000000E+00 0.  1.
<mgrwt>
<rscale>  4 0.23368865E+03</rscale>
<asrwt>0</asrwt>
<pdfrwt beam="1">  1        2 0.11810511E-01 0.23368865E+03</pdfrwt>
<pdfrwt beam="2">  1        1 0.27906004E+00 0.23368865E+03</pdfrwt>
<totfact> 0.31788816E+02</totfact>
</mgrwt>
</event>
<event>
 5    0  0.1226227E+000  0.2731278E+03  0.7546771E-02  0.1099503E+00
          2   -1    0    0  502    0  0.00000000000E+00  0.00000000000E+00  0.18770712277E+04  0.18770712277E+04  0.00000000000E+00 0.  1.
          2   -1    0    0  501    0 -0.00000000000E+00 -0.00000000000E+00 -0.22564442532E+03  0.22564442532E+03  0.00000000000E+00 0. -1.
         25    1    1    2    0    0 -0.23140178480E+03 -0.26691401042E+03  0.60115833779E+03  0.70838282169E+03  0.12500000000E+03 0.  0.
          2    1    1    2  501    0  0.17871922065E+03  0.13277280015E+03  0.11797617052E+04  0.12005860475E+04  0.00000000000E+00 0.  1.
          2    1    1    2  502    0  0.52682564153E+02  0.13414121027E+03 -0.12949324067E+03  0.19374678381E+03  0.00000000000E+00 0. -1.
<mgrwt>
<rscale>  4 0.27312782E+03</rscale>
<asrwt>0</asrwt>
<pdfrwt beam="1">  1        2 0.28878018E+00 0.27312782E+03</pdfrwt>
<pdfrwt beam="2">  1        2 0.34714528E-01 0.27312782E+03</pdfrwt>
<totfact> 0.19976170E+02</totfact>
</mgrwt>
</event>
<event>
 5    0  0.1226227E+000  0.3222306E+03  0.7546771E-02  0.1074627E+00
          2   -1    0    0  502    0  0.00000000000E+00  0.00000000000E+00  0.20940957207E+03  0.20940957207E+03  0.00000000000E+00 0. -1.
          2   -1    0    0  501    0 -0.00000000000E+00 -0.00000000000E+00 -0.19126432758E+04  0.19126432758E+04  0.00000000000E+00 0.  1.
         25    1    1    2    0    0  0.21168662537E+03  0.39357657067E+02 -0.31717733955E+03  0.40322043258E+03  0.12500000000E+03 0.  0.
          2    1    1    2  501    0 -0.29380774607E+03 -0.17878514748E+03 -0.21376510438E+02  0.34459262298E+03  0.00000000000E+00 0. -1.
          2    1    1    2  502    0  0.82121120708E+02  0.13942749042E+03 -0.13646798537E+04  0.13742397923E+04  0.00000000000E+00 0.  1.
<mgrwt>
<rscale>  4 0.32223063E+03</rscale>
<asrwt>0</asrwt>
<pdfrwt beam="1">  1        2 0.32216856E-01 0.32223063E+03</pdfrwt>
<pdfrwt beam="2">  1        2 0.29425282E+00 0.32223063E+03</pdfrwt>
<totfact> 0.20489988E+02</totfact>
</mgrwt>
</event>
<event>
 5    0  0.1226227E+000  0.2960146E+03  0.7546771E-02  0.1087250E+00
          1   -1    0    0  501    0 -0.00000000000E+00  0.00000000000E+00  0.15587050037E+04  0.15587050037E+04  0.00000000000E+00 0.  1.
          2   -1    0    0  502    0  0.00000000000E+00 -0.00000000000E+00 -0.12703427875E+04  0.12703427875E+04  0.00000000000E+00 0. -1.
         25    1    1    2    0    0  0.79109392057E+02  0.29889072514E+03  0.21370235689E+03  0.39609046798E+03  0.12500000000E+03 0.  0.
          2    1    1    2  501    0 -0.25285824503E+02 -0.42238246976E+02 -0.11649114685E+04  0.11659511876E+04  0.00000000000E+00 0. -1.
          1    1    1    2  502    0 -0.53823567554E+02 -0.25665247816E+03  0.12395713278E+04  0.12670061356E+04  0.00000000000E+00 0.  1.
<mgrwt>
<rscale>  4 0.29601462E+03</rscale>
<asrwt>0</asrwt>
<pdfrwt beam="1">  1        2 0.19543735E+00 0.29601462E+03</pdfrwt>
<pdfrwt beam="2">  1        1 0.23980077E+00 0.29601462E+03</pdfrwt>
<totfact> 0.16260365E+01</totfact>
</mgrwt>
</event>
<event>
 5    0  0.1226227E+000  0.7711615E+03  0.7546771E-02  0.9602724E-01
         -3   -1    0    0    0  501 -0.00000000000E+00  0.00000000000E+00  0.31742238299E+03  0.31742238299E+03  0.00000000000E+00 0. -1.
          2   -1    0    0  501    0  0.00000000000E+00 -0.00000000000E+00 -0.36973587890E+04  0.36973587890E+04  0.00000000000E+00 0. -1.
         25    1    1    2    0    0  0.71029550196E+03  0.28701884584E+03 -0.29556888829E+04  0.30559157859E+04  0.12500000000E+03 0.  0.
          2    1    1    2  502    0 -0.68505233307E+03 -0.28141514161E+03 -0.49012456842E+03  0.88809530656E+03  0.00000000000E+00 0. -1.
         -3    1    1    2    0  502 -0.25243168894E+02 -0.56037042348E+01  0.65877045243E+02  0.70770079602E+02  0.00000000000E+00 0. -1.
<mgrwt>
<rscale>  4 0.77116154E+03</rscale>
<asrwt>0</asrwt>
<pdfrwt beam="1">  1        2 0.56882445E+00 0.77116154E+03</pdfrwt>
<pdfrwt beam="2">  1       -3 0.48834211E-01 0.77116154E+03</pdfrwt>
<totfact> 0.16805617E+00</totfact>
</mgrwt>
</event>
<event>
 5    0  0.1226227E+000  0.3250608E+03  0.7546771E-02  0.1073343E+00
          2   -1    0    0  502    0  0.00000000000E+00  0.00000000000E+00  0.74370438303E+03  0.74370438303E+03  0.00000000000E+00 0.  1.
         -2   -1    0    0    0  501 -0.00000000000E+00 -0.00000000000E+00 -0.24981530028E+03  0.24981530028E+03  0.00000000000E+00 0.  1.
         25    1    1    2    0    0 -0.26642816306E+03 -0.21063426521E+03  0.23755427357E+02  0.36268454624E+03  0.12500000000E+03 0.  0.
          2    1    1    2  502    0  0.24419750016E+03  0.15830949153E+03  0.49059062162E+03  0.57041517530E+03  0.00000000000E+00 0.  1.
         -2    1    1    2    0  501  0.22230662906E+02  0.52324773674E+02 -0.20456966219E+02  0.60419961769E+02  0.00000000000E+00 0.  1.
<mgrwt>
<rscale>  4 0.32506077E+03</rscale>
<asrwt>0</asrwt>
<pdfrwt beam="1">  1        2 0.11441606E+00 0.32506077E+03</pdfrwt>
<pdfrwt beam="2">  1       -2 0.38433123E-01 0.32506077E+03</pdfrwt>
<totfact> 0.25119540E+02</totfact>
</mgrwt>
</event>
<event>
 5    0  0.1226227E+000  0.2826312E+03  0.7546771E-02  0.1094260E+00
          2   -1    0    0  502    0  0.00000000000E+00  0.00000000000E+00  0.28601271626E+04  0.28601271626E+04  0.00000000000E+00 0.  1.
          2   -1    0    0  501    0 -0.00000000000E+00 -0.00000000000E+00 -0.92514628533E+03  0.92514628533E+03  0.00000000000E+00 0. -1.
         25    1    1    2    0    0 -0.23257630969E+03 -0.37455531814E+02  0.12697970808E+04  0.12974992421E+04  0.12500000000E+03 0.  0.
          2    1    1    2  501    0 -0.19676626848E+02  0.10050081564E+02  0.15587368018E+04  0.15588933867E+04  0.00000000000E+00 0.  1.
          2    1    1    2  502    0  0.25225293654E+03  0.27405450250E+02 -0.89355300540E+03  0.92888081913E+03  0.00000000000E+00 0. -1.
<mgrwt>
<rscale>  4 0.28263125E+03</rscale>
<asrwt>0</asrwt>
<pdfrwt beam="1">  1        2 0.44001956E+00 0.28263125E+03</pdfrwt>
<pdfrwt beam="2">  1        2 0.14233020E+00 0.28263125E+03</pdfrwt>
<totfact> 0.11459214E+01</totfact>
</mgrwt>
</event>
<event>
 5    0  0.1226227E+000  0.2729930E+03  0.7546771E-02  0.1099579E+00
         -3   -1    0    0    0  501 -0.00000000000E+00  0.00000000000E+00  0.45539044429E+02  0.45539044429E+02  0.00000000000E+00 0. -1.
          2   -1    0    0  501    0  0.00000000000E+00 -0.00000000000E+00 -0.32143623602E+04  0.32143623602E+04  0.00000000000E+00 0.  1.
         25    1    1    2    0    0 -0.33299201078E+01 -0.22817911212E+03 -0.10580563561E+04  0.10895802165E+04  0.12500000000E+03 0.  0.
          2    1    1    2  502    0  0.20029804526E+02  0.24876084837E+03 -0.21254294643E+04  0.21400312055E+04  0.00000000000E+00 0.  1.
         -3    1    1    2    0  502 -0.16699884418E+02 -0.20581736255E+02  0.14662504601E+02  0.30289982635E+02  0.00000000000E+00 0. -1.
<mgrwt>
<rscale>  4 0.27299303E+03</rscale>
<asrwt>0</asrwt>
<pdfrwt beam="1">  1        2 0.49451719E+00 0.27299303E+03</pdfrwt>
<pdfrwt beam="2">  1       -3 0.70060082E-02 0.27299303E+03</pdfrwt>
<totfact> 0.13084090E+02</totfact>
</mgrwt>
</event>
<event>
 5    0  0.1226227E+000  0.2991916E+03  0.7546771E-02  0.1085645E+00
          2   -1    0    0  502    0  0.00000000000E+00  0.00000000000E+00  0.29601050938E+04  0.29601050938E+04  0.00000000000E+00 0.  1.
          1   -1    0    0  501    0 -0.00000000000E+00 -0.00000000000E+00 -0.11977526369E+04  0.11977526369E+04  0.00000000000E+00 0. -1.
         25    1    1    2    0    0  0.26996933450E+03 -0.21282310359E+03  0.22442361540E+03  0.42914807950E+03  0.12500000000E+03 0.  0.
          2    1    1    2  501    0 -0.21442192437E+03  0.15922446114E+03  0.26251756031E+04  0.26387262339E+04  0.00000000000E+00 0.  1.
          1    1    1    2  502    0 -0.55547410131E+02  0.53598642451E+02 -0.10872467616E+04  0.10899834172E+04  0.00000000000E+00 0. -1.
<mgrwt>
<rscale>  4 0.29919158E+03</rscale>
<asrwt>0</asrwt>
<pdfrwt beam="1">  1        2 0.45540078E+00 0.29919158E+03</pdfrwt>
<pdfrwt beam="2">  1        1 0.18426964E+00 0.29919158E+03</pdfrwt>
<totfact> 0.34228801E+00</totfact>
</mgrwt>
</event>
<event>
 5    0  0.1226227E+000  0.2390840E+03  0.7546771E-02  0.1120405E+00
          2   -1    0    0  502    0  0.00000000000E+00  0.00000000000E+00  0.12401939521E+04  0.12401939521E+04  0.00000000000E+00 0. -1.
          4   -1    0    0  501    0 -0.00000000000E+00 -0.00000000000E+00 -0.48188037275E+03  0.48188037275E+03  0.00000000000E+00 0.  1.
         25    1    1    2    0    0 -0.21304911925E+03  0.38607676667E+02  0.11808126534E+03  0.27649351735E+03  0.12500000000E+03 0.  0.
          2    1    1    2  501    0  0.19400394194E+03 -0.57582118351E+02  0.10326252037E+04  0.10522680463E+04  0.00000000000E+00 0. -1.
          4    1    1    2  502    0  0.19045177307E+02  0.18974441684E+02 -0.39239288974E+03  0.39331276121E+03  0.00000000000E+00 0.  1.
<mgrwt>
<rscale>  4 0.23908405E+03</rscale>
<asrwt>0</asrwt>
<pdfrwt beam="1">  1        2 0.19079907E+00 0.23908405E+03</pdfrwt>
<pdfrwt beam="2">  1        4 0.74135442E-01 0.23908405E+03</pdfrwt>
<totfact> 0.17052790E+01</totfact>
</mgrwt>
</event>
<event>
 5    0  0.1226227E+000  0.2719495E+03  0.7546771E-02  0.1100169E+00
          2   -1    0    0  502    0  0.00000000000E+00  0.00000000000E+00  0.13521769455E+04  0.13521769455E+04  0.00000000000E+00 0. -1.
          3   -1    0    0  501    0 -0.00000000000E+00 -0.00000000000E+00 -0.18085499213E+03  0.18085499213E+03  0.00000000000E+00 0. -1.
         25    1    1    2    0    0  0.13805830869E+03  0.14901719230E+03  0.24911646363E+03  0.34489162450E+03  0.12500000000E+03 0.  0.
          2    1    1    2  501    0  0.59663975117E+02  0.17289794886E+02  0.92764129598E+03  0.92971882897E+03  0.00000000000E+00 0. -1.
          3    1    1    2  502    0 -0.19772228380E+03 -0.16630698718E+03 -0.54358062097E+01  0.25842148418E+03  0.00000000000E+00 0. -1.
<mgrwt>
<rscale>  4 0.27194948E+03</rscale>
<asrwt>0</asrwt>
<pdfrwt beam="1">  1        2 0.20802722E+00 0.27194948E+03</pdfrwt>
<pdfrwt beam="2">  1        3 0.27823846E-01 0.27194948E+03</pdfrwt>
<totfact> 0.12762007E+02</totfact>
</mgrwt>
</event>
<event>
 5    0  0.1226227E+000  0.4284461E+03  0.7546771E-02  0.1034352E+00
          2   -1    0    0  502    0  0.00000000000E+00  0.00000000000E+00  0.21738205977E+04  0.21738205977E+04  0.00000000000E+00 0.  1.
          2   -1    0    0  501    0 -0.00000000000E+00 -0.00000000000E+00 -0.23871786894E+04  0.23871786894E+04  0.00000000000E+00 0.  1.
         25    1    1    2    0    0 -0.20859087520E+03  0.42027352582E+03  0.24883335554E+03  0.54560336193E+03  0.12500000000E+03 0.  0.
          2    1    1    2  501    0  0.72032186585E+02 -0.36672301480E+02  0.17571512551E+04  0.17590093879E+04  0.00000000000E+00 0.  1.
          2    1    1    2  502    0  0.13655868861E+03 -0.38360122434E+03 -0.22193427024E+04  0.22563865372E+04  0.00000000000E+00 0.  1.
<mgrwt>
<rscale>  4 0.42844613E+03</rscale>
<asrwt>0</asrwt>
<pdfrwt beam="1">  1        2 0.33443394E+00 0.42844613E+03</pdfrwt>
<pdfrwt beam="2">  1        2 0.36725826E+00 0.42844613E+03</pdfrwt>
<totfact> 0.39551166E+00</totfact>
</mgrwt>
</event>
<event>
 5    0  0.1226227E+000  0.2418669E+03  0.7546771E-02  0.1118555E+00
          2   -1    0    0  502    0  0.00000000000E+00  0.00000000000E+00  0.73501843576E+03  0.73501843576E+03  0.00000000000E+00 0.  1.
          2   -1    0    0  501    0 -0.00000000000E+00 -0.00000000000E+00 -0.60549201312E+03  0.60549201312E+03  0.00000000000E+00 0.  1.
         25    1    1    2    0    0  0.32696312777E+03  0.55687507573E+02 -0.54879664043E+02  0.35866804004E+03  0.12500000000E+03 0.  0.
          2    1    1    2  501    0 -0.17826505332E+03 -0.62215576793E+02 -0.36591097642E+03  0.41175241335E+03  0.00000000000E+00 0.  1.
          2    1    1    2  502    0 -0.14869807444E+03  0.65280692205E+01  0.55031706310E+03  0.57008999550E+03  0.00000000000E+00 0.  1.
<mgrwt>
<rscale>  4 0.24186693E+03</rscale>
<asrwt>0</asrwt>
<pdfrwt beam="1">  1        2 0.11307976E+00 0.24186693E+03</pdfrwt>
<pdfrwt beam="2">  1        2 0.93152617E-01 0.24186693E+03</pdfrwt>
<totfact> 0.30894648E+02</totfact>
</mgrwt>
</event>
<event>
 5    0  0.1226227E+000  0.2778994E+03  0.7546771E-02  0.1096842E+00
          1   -1    0    0  501    0 -0.00000000000E+00  0.00000000000E+00  0.47434226557E+03  0.47434226557E+03  0.00000000000E+00 0. -1.
          2   -1    0    0  502    0  0.00000000000E+00 -0.00000000000E+00 -0.11681448289E+04  0.11681448289E+04  0.00000000000E+00 0. -1.
         25    1    1    2    0    0  0.87252513707E+02 -0.19534397080E+03 -0.37614776983E+03  0.45042692285E+03  0.12500000000E+03 0.  0.
          2    1    1    2  501    0  0.12421094720E+01 -0.39780031234E+02 -0.71817095934E+03  0.71927291105E+03  0.00000000000E+00 0. -1.
          1    1    1    2  502    0 -0.88494623179E+02  0.23512400203E+03  0.40051616584E+03  0.47278726058E+03  0.00000000000E+00 0. -1.
<mgrwt>
<rscale>  4 0.27789940E+03</rscale>
<asrwt>0</asrwt>
<pdfrwt beam="1">  1        2 0.17971459E+00 0.27789940E+03</pdfrwt>
<pdfrwt beam="2">  1        1 0.72975734E-01 0.27789940E+03</pdfrwt>
<totfact> 0.13827313E+02</totfact>
</mgrwt>
</event>
<event>
 5    0  0.1226227E+000  0.2604315E+03  0.7546771E-02  0.1106884E+00
          1   -1    0    0  501    0 -0.00000000000E+00  0.00000000000E+00  0.63313524164E+03  0.63313524164E+03  0.00000000000E+00 0. -1.
          2   -1    0    0  502    0  0.00000000000E+00 -0.00000000000E+00 -0.47394552083E+03  0.47394552083E+03  0.00000000000E+00 0.  1.
         25    1    1    2    0    0 -0.19980122019E+03 -0.51534150930E+02 -0.17243294707E+03  0.29653737966E+03  0.12500000000E+03 0.  0.
          2    1    1    2  501    0 -0.28196773154E+02  0.15894727595E+02 -0.21488631444E+03  0.21731044272E+03  0.00000000000E+00 0.  1.
          1    1    1    2  502    0  0.22799799335E+03  0.35639423335E+02  0.54650898231E+03  0.59323294009E+03  0.00000000000E+00 0. -1.
<mgrwt>
<rscale>  4 0.26043148E+03</rscale>
<asrwt>0</asrwt>
<pdfrwt beam="1">  1        2 0.72914695E-01 0.26043148E+03</pdfrwt>
<pdfrwt beam="2">  1        1 0.97405422E-01 0.26043148E+03</pdfrwt>
<totfact> 0.29528683E+02</totfact>
</mgrwt>
</event>
<event>
 5    0  0.1226227E+000  0.2043335E+03  0.7546771E-02  0.1146134E+00
          1   -1    0    0  502    0  0.00000000000E+00  0.00000000000E+00  0.14650758340E+04  0.14650758340E+04  0.00000000000E+00 0.  1.
          3   -1    0    0  501    0 -0.00000000000E+00 -0.00000000000E+00 -0.71192022479E+03  0.71192022479E+03  0.00000000000E+00 0.  1.
         25    1    1    2    0    0 -0.17794063896E+03 -0.14758281306E+03  0.75388417288E+03  0.79837954872E+03  0.12500000000E+03 0.  0.
          1    1    1    2  501    0  0.38753667567E+02  0.66992493851E+02  0.67733342266E+03  0.68174071789E+03  0.00000000000E+00 0.  1.
          3    1    1    2  502    0  0.13918697139E+03  0.80590319210E+02 -0.67806198627E+03  0.69687579222E+03  0.00000000000E+00 0.  1.
<mgrwt>
<rscale>  4 0.20433346E+03</rscale>
<asrwt>0</asrwt>
<pdfrwt beam="1">  1        1 0.22539628E+00 0.20433346E+03</pdfrwt>
<pdfrwt beam="2">  1        3 0.10952619E+00 0.20433346E+03</pdfrwt>
<totfact> 0.30971303E+00</totfact>
</mgrwt>
</event>
<event>
 5    0  0.1226227E+000  0.5254720E+03  0.7546771E-02  0.1007336E+00
          1   -1    0    0  502    0  0.00000000000E+00  0.00000000000E+00  0.19123440298E+04  0.19123440298E+04  0.00000000000E+00 0.  1.
          1   -1    0    0  501    0 -0.00000000000E+00 -0.00000000000E+00 -0.29000227191E+04  0.29000227191E+04  0.00000000000E+00 0.  1.
         25    1    1    2    0    0  0.39883383778E+03  0.35139114967E+03 -0.11618661316E+04  0.12837842802E+04  0.12500000000E+03 0.  0.
          1    1    1    2  501    0 -0.27690017922E+01 -0.49433392787E+02  0.18140664886E+04  0.18147420072E+04  0.00000000000E+00 0.  1.
          1    1    1    2  502    0 -0.39606483599E+03 -0.30195775688E+03 -0.16398790462E+04  0.17138404615E+04  0.00000000000E+00 0.  1.
<mgrwt>
<rscale>  4 0.52547201E+03</rscale>
<asrwt>0</asrwt>
<pdfrwt beam="1">  1        1 0.29420678E+00 0.52547201E+03</pdfrwt>
<pdfrwt beam="2">  1        1 0.44615734E+00 0.52547201E+03</pdfrwt>
<totfact> 0.33740017E-01</totfact>
</mgrwt>
</event>
<event>
 5    0  0.1226227E+000  0.3505146E+03  0.7546771E-02  0.1062404E+00
          1   -1    0    0  501    0 -0.00000000000E+00  0.00000000000E+00  0.31043944943E+03  0.31043944943E+03  0.00000000000E+00 0.  1.
          2   -1    0    0  502    0  0.00000000000E+00 -0.00000000000E+00 -0.16357159283E+04  0.16357159283E+04  0.00000000000E+00 0.  1.
         25    1    1    2    0    0 -0.16725159536E+03 -0.23633579251E+03 -0.14706010799E+03  0.34796462225E+03  0.12500000000E+03 0.  0.
          2    1    1    2  501    0  0.19208785479E+03  0.27460791453E+03 -0.13651952796E+04  0.14057259342E+04  0.00000000000E+00 0.  1.
          1    1    1    2  502    0 -0.24836259428E+02 -0.38272122010E+02  0.18697890873E+03  0.19246482125E+03  0.00000000000E+00 0.  1.
<mgrwt>
<rscale>  4 0.35051462E+03</rscale>
<asrwt>0</asrwt>
<pdfrwt beam="1">  1        2 0.25164860E+00 0.35051462E+03</pdfrwt>
<pdfrwt beam="2">  1        1 0.47759915E-01 0.35051462E+03</pdfrwt>
<totfact> 0.12979534E+02</totfact>
</mgrwt>
</event>
<event>
 5    0  0.1226227E+000  0.2604386E+03  0.7546771E-02  0.1106880E+00
          2   -1    0    0  502    0  0.00000000000E+00  0.00000000000E+00  0.95166933827E+03  0.95166933827E+03  0.00000000000E+00 0. -1.
          1   -1    0    0  501    0 -0.00000000000E+00 -0.00000000000E+00 -0.84985663555E+03  0.84985663555E+03  0.00000000000E+00 0.  1.
         25    1    1    2    0    0  0.17121035849E+03  0.12156013698E+03  0.88800855046E+03  0.92101793655E+03  0.12500000000E+03 0.  0.
          2    1    1    2  501    0  0.72179057890E+01  0.21677951838E+02  0.27211432152E+02  0.35531588758E+02  0.00000000000E+00 0. -1.
          1    1    1    2  502    0 -0.17842826428E+03 -0.14323808881E+03 -0.81340727988E+03  0.84497644852E+03  0.00000000000E+00 0.  1.
<mgrwt>
<rscale>  4 0.26043858E+03</rscale>
<asrwt>0</asrwt>
<pdfrwt beam="1">  1        2 0.14641067E+00 0.26043858E+03</pdfrwt>
<pdfrwt beam="2">  1        1 0.13074717E+00 0.26043858E+03</pdfrwt>
<totfact> 0.81458818E+01</totfact>
</mgrwt>
</event>
<event>
 5    0  0.1226227E+000  0.2781047E+03  0.7546771E-02  0.1096729E+00
          1   -1    0    0  501    0 -0.00000000000E+00  0.00000000000E+00  0.13442818708E+03  0.13442818708E+03  0.00000000000E+00 0. -1.
          2   -1    0    0  502    0  0.00000000000E+00 -0.00000000000E+00 -0.23682701218E+04  0.23682701218E+04  0.00000000000E+00 0.  1.
         25    1    1    2    0    0 -0.24072208684E+03 -0.89294587774E+02 -0.18781033605E+03  0.34178702261E+03  0.12500000000E+03 0.  0.
          2    1    1    2  501    0  0.21832209520E+03  0.11732298361E+03 -0.20897263679E+04  0.21043729500E+04  0.00000000000E+00 0.  1.
          1    1    1    2  502    0  0.22399991644E+02 -0.28028395839E+02  0.43694769315E+02  0.56538336237E+02  0.00000000000E+00 0. -1.
<mgrwt>
<rscale>  4 0.27810472E+03</rscale>
<asrwt>0</asrwt>
<pdfrwt beam="1">  1        2 0.36434921E+00 0.27810472E+03</pdfrwt>
<pdfrwt beam="2">  1        1 0.20681262E-01 0.27810472E+03</pdfrwt>
<totfact> 0.15702871E+02</totfact>
</mgrwt>
</event>
<event>
 5    0  0.1226227E+000  0.2132818E+03  0.7546771E-02  0.1138993E+00
          2   -1    0    0  501    0  0.00000000000E+00  0.00000000000E+00  0.16944986192E+04  0.16944986192E+04  0.00000000000E+00 0.  1.
         -3   -1    0    0    0  501 -0.00000000000E+00 -0.00000000000E+00 -0.55833481033E+02  0.55833481033E+02  0.00000000000E+00 0.  1.
         25    1    1    2    0    0  0.13366797209E+03 -0.15861860114E+03  0.31290015644E+03  0.39567473420E+03  0.12500000000E+03 0.  0.
          2    1    1    2  502    0 -0.93761932494E+02  0.13981749417E+03  0.12802577557E+04  0.12912784955E+04  0.00000000000E+00 0.  1.
         -3    1    1    2    0  502 -0.39906039595E+02  0.18801106964E+02  0.45507225984E+02  0.63378870580E+02  0.00000000000E+00 0.  1.
<mgrwt>
<rscale>  4 0.21328176E+03</rscale>
<asrwt>0</asrwt>
<pdfrwt beam="1">  1        2 0.26069206E+00 0.21328176E+03</pdfrwt>
<pdfrwt beam="2">  1       -3 0.85897676E-02 0.21328176E+03</pdfrwt>
<totfact> 0.64942360E+02</totfact>
</mgrwt>
</event>
<event>
 5    0  0.1226227E+000  0.3577828E+03  0.7546771E-02  0.1059465E+00
          2   -1    0    0  502    0  0.00000000000E+00  0.00000000000E+00  0.11688546360E+04  0.11688546360E+04  0.00000000000E+00 0.  1.
          2   -1    0    0  501    0 -0.00000000000E+00 -0.00000000000E+00 -0.18467171401E+04  0.18467171401E+04  0.00000000000E+00 0.  1.
         25    1    1    2    0    0 -0.17278277333E+03 -0.26936525098E+03 -0.14516863613E+03  0.37297514409E+03  0.12500000000E+03 0.  0.
          2    1    1    2  501    0  0.15712261759E+03  0.29903639563E+03 -0.15694023298E+04  0.16053454319E+04  0.00000000000E+00 0.  1.
          2    1    1    2  502    0  0.15660155736E+02 -0.29671144646E+02  0.10367084619E+04  0.10372512001E+04  0.00000000000E+00 0.  1.
<mgrwt>
<rscale>  4 0.35778278E+03</rscale>
<asrwt>0</asrwt>
<pdfrwt beam="1">  1        2 0.17982379E+00 0.35778278E+03</pdfrwt>
<pdfrwt beam="2">  1        2 0.28411033E+00 0.35778278E+03</pdfrwt>
<totfact> 0.28078638E+01</totfact>
</mgrwt>
</event>
<event>
 5    0  0.1226227E+000  0.2470511E+03  0.7546771E-02  0.1115183E+00
          2   -1    0    0  501    0  0.00000000000E+00  0.00000000000E+00  0.27886543967E+03  0.27886543967E+03  0.00000000000E+00 0.  1.
         -1   -1    0    0    0  501 -0.00000000000E+00 -0.00000000000E+00 -0.16426778030E+04  0.16426778030E+04  0.00000000000E+00 0.  1.
         25    1    1    2    0    0 -0.83966732479E+02 -0.22192040430E+03 -0.72815132681E+03  0.77596935039E+03  0.12500000000E+03 0.  0.
          2    1    1    2  502    0  0.76416871335E+01  0.35361051788E+02  0.24219066709E+03  0.24487776255E+03  0.00000000000E+00 0.  1.
         -1    1    1    2    0  502  0.76325045345E+02  0.18655935251E+03 -0.87785170358E+03  0.90069612969E+03  0.00000000000E+00 0.  1.
<mgrwt>
<rscale>  4 0.24705111E+03</rscale>
<asrwt>0</asrwt>
<pdfrwt beam="1">  1        2 0.42902375E-01 0.24705111E+03</pdfrwt>
<pdfrwt beam="2">  1       -1 0.25271967E+00 0.24705111E+03</pdfrwt>
<totfact> 0.10475777E+01</totfact>
</mgrwt>
</event>
<event>
 5    0  0.1226227E+000  0.2424919E+03  0.7546771E-02  0.1118144E+00
          2   -1    0    0  502    0  0.00000000000E+00  0.00000000000E+00  0.29226491735E+04  0.29226491735E+04  0.00000000000E+00 0. -1.
         -2   -1    0    0    0  501 -0.00000000000E+00 -0.00000000000E+00 -0.36780179697E+03  0.36780179697E+03  0.00000000000E+00 0. -1.
         25    1    1    2    0    0 -0.16958060280E+03  0.14649711186E+03  0.60527875828E+03  0.65742403352E+03  0.12500000000E+03 0.  0.
          2    1    1    2  502    0  0.14377747772E+03 -0.14617101616E+03  0.22862163053E+04  0.22953916711E+04  0.00000000000E+00 0. -1.
         -2    1    1    2    0  501  0.25803125085E+02 -0.32609570167E+00 -0.33664768701E+03  0.33763526589E+03  0.00000000000E+00 0. -1.
<mgrwt>
<rscale>  4 0.24249191E+03</rscale>
<asrwt>0</asrwt>
<pdfrwt beam="1">  1        2 0.44963832E+00 0.24249191E+03</pdfrwt>
<pdfrwt beam="2">  1       -2 0.56584894E-01 0.24249191E+03</pdfrwt>
<totfact> 0.71418649E+00</totfact>
</mgrwt>
</event>
<event>
 5    0  0.1226227E+000  0.2416073E+03  0.7546771E-02  0.1118727E+00
          2   -1    0    0  502    0  0.00000000000E+00  0.00000000000E+00  0.88404674091E+03  0.88404674091E+03  0.00000000000E+00 0. -1.
          2   -1    0    0  501    0 -0.00000000000E+00 -0.00000000000E+00 -0.11773734567E+04  0.11773734567E+04  0.00000000000E+00 0. -1.
         25    1    1    2    0    0 -0.11148649524E+03  0.24512871944E+03  0.47542953192E+02  0.30067035124E+03  0.12500000000E+03 0.  0.
          2    1    1    2  501    0  0.11098701796E+03 -0.16651691425E+03  0.69431817542E+03  0.72258129619E+03  0.00000000000E+00 0. -1.
          2    1    1    2  502    0  0.49947727596E+00 -0.78611805188E+02 -0.10351878444E+04  0.10381685502E+04  0.00000000000E+00 0. -1.
<mgrwt>
<rscale>  4 0.24160726E+03</rscale>
<asrwt>0</asrwt>
<pdfrwt beam="1">  1        2 0.13600719E+00 0.24160726E+03</pdfrwt>
<pdfrwt beam="2">  1        2 0.18113438E+00 0.24160726E+03</pdfrwt>
<totfact> 0.10144851E+02</totfact>
</mgrwt>
</event>
<event>
 5    0  0.1226227E+000  0.2539491E+03  0.7546771E-02  0.1110834E+00
          2   -1    0    0  502    0  0.00000000000E+00  0.00000000000E+00  0.20638850200E+04  0.20638850200E+04  0.00000000000E+00 0.  1.
          2   -1    0    0  501    0 -0.00000000000E+00 -0.00000000000E+00 -0.11851965474E+04  0.11851965474E+04  0.00000000000E+00 0. -1.
         25    1    1    2    0    0 -0.10359948105E+03 -0.23102296676E+03  0.10765580902E+04  0.11129720505E+04  0.12500000000E+03 0.  0.
          2    1    1    2  501    0  0.84058224525E+02  0.18411433745E+03  0.95798832137E+03  0.97913507660E+03  0.00000000000E+00 0.  1.
          2    1    1    2  502    0  0.19541256523E+02  0.46908629309E+02 -0.11558579390E+04  0.11569744402E+04  0.00000000000E+00 0. -1.
<mgrwt>
<rscale>  4 0.25394911E+03</rscale>
<asrwt>0</asrwt>
<pdfrwt beam="1">  1        2 0.31752077E+00 0.25394911E+03</pdfrwt>
<pdfrwt beam="2">  1        2 0.18233793E+00 0.25394911E+03</pdfrwt>
<totfact> 0.22225902E+01</totfact>
</mgrwt>
</event>
<event>
 5    0  0.1226227E+000  0.1922523E+03  0.7546771E-02  0.1156445E+00
          3   -1    0    0  501    0 -0.00000000000E+00  0.00000000000E+00  0.22765909317E+03  0.22765909317E+03  0.00000000000E+00 0. -1.
          2   -1    0    0  502    0  0.00000000000E+00 -0.00000000000E+00 -0.91055653303E+03  0.91055653303E+03  0.00000000000E+00 0.  1.
         25    1    1    2    0    0 -0.23500203717E+03  0.10271349588E+03 -0.15288627802E+03  0.32369002721E+03  0.12500000000E+03 0.  0.
          2    1    1    2  501    0  0.12632279210E+03 -0.28252382080E+02 -0.63375553021E+03  0.64683979235E+03  0.00000000000E+00 0.  1.
          3    1    1    2  502    0  0.10867924507E+03 -0.74461113799E+02  0.10374436837E+03  0.16768580663E+03  0.00000000000E+00 0. -1.
<mgrwt>
<rscale>  4 0.19225230E+03</rscale>
<asrwt>0</asrwt>
<pdfrwt beam="1">  1        2 0.14008562E+00 0.19225230E+03</pdfrwt>
<pdfrwt beam="2">  1        3 0.35024476E-01 0.19225230E+03</pdfrwt>
<totfact> 0.15009510E+02</totfact>
</mgrwt>
</event>
<event>
 5    0  0.1226227E+000  0.3899312E+03  0.7546771E-02  0.1047323E+00
          2   -1    0    0  502    0  0.00000000000E+00  0.00000000000E+00  0.81742187607E+03  0.81742187607E+03  0.00000000000E+00 0. -1.
          2   -1    0    0  501    0 -0.00000000000E+00 -0.00000000000E+00 -0.19240480774E+04  0.19240480774E+04  0.00000000000E+00 0.  1.
         25    1    1    2    0    0 -0.33199879683E+03  0.18202039537E+03 -0.12047753511E+04  0.12690402957E+04  0.12500000000E+03 0.  0.
          2    1    1    2  501    0  0.15823207957E+02 -0.18193063872E+02  0.73894400495E+03  0.73933727346E+03  0.00000000000E+00 0. -1.
          2    1    1    2  502    0  0.31617558887E+03 -0.16382733150E+03 -0.64079485515E+03  0.73309238431E+03  0.00000000000E+00 0.  1.
<mgrwt>
<rscale>  4 0.38993117E+03</rscale>
<asrwt>0</asrwt>
<pdfrwt beam="1">  1        2 0.12575721E+00 0.38993117E+03</pdfrwt>
<pdfrwt beam="2">  1        2 0.29600739E+00 0.38993117E+03</pdfrwt>
<totfact> 0.41997289E+01</totfact>
</mgrwt>
</event>
<event>
 5    0  0.1226227E+000  0.2908163E+03  0.7546771E-02  0.1089924E+00
          1   -1    0    0  502    0  0.00000000000E+00  0.00000000000E+00  0.10095812561E+04  0.10095812561E+04  0.00000000000E+00 0.  1.
         -1   -1    0    0    0  501 -0.00000000000E+00 -0.00000000000E+00 -0.39700258513E+03  0.39700258513E+03  0.00000000000E+00 0. -1.
         25    1    1    2    0    0  0.19675639773E+03  0.20493849989E+03  0.60954249763E+03  0.68401748896E+03  0.12500000000E+03 0.  0.
          1    1    1    2  502    0 -0.68322507955E+02  0.22961751233E+02  0.31056772026E+03  0.31882207574E+03  0.00000000000E+00 0.  1.
         -1    1    1    2    0  501 -0.12843388978E+03 -0.22790025112E+03 -0.30753154690E+03  0.40374427655E+03  0.00000000000E+00 0. -1.
<mgrwt>
<rscale>  4 0.29081626E+03</rscale>
<asrwt>0</asrwt>
<pdfrwt beam="1">  1        1 0.15532019E+00 0.29081626E+03</pdfrwt>
<pdfrwt beam="2">  1       -1 0.61077321E-01 0.29081626E+03</pdfrwt>
<totfact> 0.44635829E+01</totfact>
</mgrwt>
</event>
<event>
 5    0  0.1226227E+000  0.2303939E+03  0.7546771E-02  0.1126363E+00
          1   -1    0    0  501    0 -0.00000000000E+00  0.00000000000E+00  0.39072907832E+03  0.39072907832E+03  0.00000000000E+00 0.  1.
          2   -1    0    0  502    0  0.00000000000E+00 -0.00000000000E+00 -0.10890998990E+04  0.10890998990E+04  0.00000000000E+00 0.  1.
         25    1    1    2    0    0  0.28446155840E+02  0.22459330072E+03 -0.28039298666E+03  0.38144011519E+03  0.12500000000E+03 0.  0.
          2    1    1    2  501    0 -0.36297438799E+02 -0.33655016848E+02 -0.73044344710E+03  0.73211870187E+03  0.00000000000E+00 0.  1.
          1    1    1    2  502    0  0.78512829590E+01 -0.19093828387E+03  0.31246561311E+03  0.36627016022E+03  0.00000000000E+00 0.  1.
<mgrwt>
<rscale>  4 0.23039388E+03</rscale>
<asrwt>0</asrwt>
<pdfrwt beam="1">  1        2 0.16755383E+00 0.23039388E+03</pdfrwt>
<pdfrwt beam="2">  1        1 0.60112166E-01 0.23039388E+03</pdfrwt>
<totfact> 0.20049345E+02</totfact>
</mgrwt>
</event>
<event>
 5    0  0.1226227E+000  0.2469038E+03  0.7546771E-02  0.1115277E+00
          4   -1    0    0  502    0  0.00000000000E+00  0.00000000000E+00  0.76654083797E+03  0.76654083797E+03  0.00000000000E+00 0.  1.
          1   -1    0    0  501    0 -0.00000000000E+00 -0.00000000000E+00 -0.10621560457E+04  0.10621560457E+04  0.00000000000E+00 0. -1.
         25    1    1    2    0    0  0.25724974914E+03  0.32103695665E+02  0.18809064172E+03  0.34381851348E+03  0.12500000000E+03 0.  0.
          4    1    1    2  501    0 -0.19795448627E+03 -0.34646368576E+02  0.47946646235E+03  0.51987925330E+03  0.00000000000E+00 0.  1.
          1    1    1    2  502    0 -0.59295262868E+02  0.25426729104E+01 -0.96317231176E+03  0.96499911685E+03  0.00000000000E+00 0. -1.
<mgrwt>
<rscale>  4 0.24690378E+03</rscale>
<asrwt>0</asrwt>
<pdfrwt beam="1">  1        4 0.11792936E+00 0.24690378E+03</pdfrwt>
<pdfrwt beam="2">  1        1 0.16340862E+00 0.24690378E+03</pdfrwt>
<totfact> 0.38855957E+00</totfact>
</mgrwt>
</event>
<event>
 5    0  0.1226227E+000  0.2008772E+03  0.7546771E-02  0.1149001E+00
          2   -1    0    0  502    0  0.00000000000E+00  0.00000000000E+00  0.39890582202E+04  0.39890582202E+04  0.00000000000E+00 0. -1.
          2   -1    0    0  501    0 -0.00000000000E+00 -0.00000000000E+00 -0.86702429854E+03  0.86702429854E+03  0.00000000000E+00 0. -1.
         25    1    1    2    0    0 -0.10802682960E+03  0.22180196123E+03  0.42374285947E+03  0.50601276355E+03  0.12500000000E+03 0.  0.
          2    1    1    2  501    0  0.71503027059E+02 -0.13845974192E+03 -0.81794471296E+03  0.83265679393E+03  0.00000000000E+00 0. -1.
          2    1    1    2  502    0  0.36523802543E+02 -0.83342219315E+02  0.35162357752E+04  0.35174129613E+04  0.00000000000E+00 0. -1.
<mgrwt>
<rscale>  4 0.20087722E+03</rscale>
<asrwt>0</asrwt>
<pdfrwt beam="1">  1        2 0.61370125E+00 0.20087722E+03</pdfrwt>
<pdfrwt beam="2">  1        2 0.13338836E+00 0.20087722E+03</pdfrwt>
<totfact> 0.24508105E+00</totfact>
</mgrwt>
</event>
<event>
 5    0  0.1226227E+000  0.2780186E+03  0.7546771E-02  0.1096776E+00
          2   -1    0    0  502    0  0.00000000000E+00  0.00000000000E+00  0.17371518326E+04  0.17371518326E+04  0.00000000000E+00 0. -1.
          2   -1    0    0  501    0 -0.00000000000E+00 -0.00000000000E+00 -0.10086898323E+04  0.10086898323E+04  0.00000000000E+00 0.  1.
         25    1    1    2    0    0 -0.22883505723E+03 -0.13430831208E+03 -0.23621469586E+03  0.37659871037E+03  0.12500000000E+03 0.  0.
          2    1    1    2  501    0 -0.12523707684E+02  0.20028425411E+03 -0.67827957575E+03  0.70734278011E+03  0.00000000000E+00 0.  1.
          2    1    1    2  502    0  0.24135876492E+03 -0.65975942032E+02  0.16429562719E+04  0.16619001744E+04  0.00000000000E+00 0. -1.
<mgrwt>
<rscale>  4 0.27801860E+03</rscale>
<asrwt>0</asrwt>
<pdfrwt beam="1">  1        2 0.26725413E+00 0.27801860E+03</pdfrwt>
<pdfrwt beam="2">  1        2 0.15518305E+00 0.27801860E+03</pdfrwt>
<totfact> 0.41401240E+01</totfact>
</mgrwt>
</event>
<event>
 5    0  0.1226227E+000  0.1981623E+03  0.7546771E-02  0.1151299E+00
          1   -1    0    0  502    0  0.00000000000E+00  0.00000000000E+00  0.25865006749E+03  0.25865006749E+03  0.00000000000E+00 0. -1.
          1   -1    0    0  501    0 -0.00000000000E+00 -0.00000000000E+00 -0.67581462224E+03  0.67581462224E+03  0.00000000000E+00 0. -1.
         25    1    1    2    0    0 -0.22789705922E+03 -0.60329504299E+02 -0.33254149152E+03  0.42636318118E+03  0.12500000000E+03 0.  0.
          1    1    1    2  501    0  0.10223814893E+03  0.34442919977E+02  0.18236533248E+03  0.21188692344E+03  0.00000000000E+00 0. -1.
          1    1    1    2  502    0  0.12565891028E+03  0.25886584321E+02 -0.26698839571E+03  0.29621458510E+03  0.00000000000E+00 0. -1.
<mgrwt>
<rscale>  4 0.19816234E+03</rscale>
<asrwt>0</asrwt>
<pdfrwt beam="1">  1        1 0.39792319E-01 0.19816234E+03</pdfrwt>
<pdfrwt beam="2">  1        1 0.10397148E+00 0.19816234E+03</pdfrwt>
<totfact> 0.38042161E+02</totfact>
</mgrwt>
</event>
<event>
 5    0  0.1226227E+000  0.2240624E+03  0.7546771E-02  0.1130890E+00
          1   -1    0    0  502    0  0.00000000000E+00  0.00000000000E+00  0.33893384711E+03  0.33893384711E+03  0.00000000000E+00 0.  1.
          1   -1    0    0  501    0 -0.00000000000E+00 -0.00000000000E+00 -0.97495803704E+03  0.97495803704E+03  0.00000000000E+00 0.  1.
         25    1    1    2    0    0  0.26939611412E+03  0.83798651937E+02 -0.47070468377E+02  0.31214917806E+03  0.12500000000E+03 0.  0.
          1    1    1    2  501    0 -0.10573281861E+03 -0.12151491576E+02  0.18174115929E+03  0.21061086548E+03  0.00000000000E+00 0.  1.
          1    1    1    2  502    0 -0.16366329551E+03 -0.71647160362E+02 -0.77069488084E+03  0.79113184061E+03  0.00000000000E+00 0.  1.
<mgrwt>
<rscale>  4 0.22406239E+03</rscale>
<asrwt>0</asrwt>
<pdfrwt beam="1">  1        1 0.52143669E-01 0.22406239E+03</pdfrwt>
<pdfrwt beam="2">  1        1 0.14999354E+00 0.22406239E+03</pdfrwt>
<totfact> 0.15267368E+02</totfact>
</mgrwt>
</event>
<event>
 5    0  0.1226227E+000  0.3415138E+03  0.7546771E-02  0.1066153E+00
          1   -1    0    0  501    0  0.00000000000E+00  0.00000000000E+00  0.15149655580E+04  0.15149655580E+04  0.00000000000E+00 0.  1.
         -3   -1    0    0    0  501 -0.00000000000E+00 -0.00000000000E+00 -0.25082528360E+03  0.25082528360E+03  0.00000000000E+00 0.  1.
         25    1    1    2    0    0 -0.33494053687E+03 -0.59980291662E+02  0.77482803986E+02  0.37069041468E+03  0.12500000000E+03 0.  0.
          1    1    1    2  502    0  0.30240248510E+03  0.88493265727E+02  0.12660588959E+04  0.13046775268E+04  0.00000000000E+00 0.  1.
         -3    1    1    2    0  502  0.32538051765E+02 -0.28512974065E+02 -0.79401425459E+02  0.90422900128E+02  0.00000000000E+00 0.  1.
<mgrwt>
<rscale>  4 0.34151378E+03</rscale>
<asrwt>0</asrwt>
<pdfrwt beam="1">  1        1 0.23307162E+00 0.34151378E+03</pdfrwt>
<pdfrwt beam="2">  1       -3 0.38588506E-01 0.34151378E+03</pdfrwt>
<totfact> 0.25416078E+01</totfact>
</mgrwt>
</event>
<event>
 5    0  0.1226227E+000  0.2139419E+03  0.7546771E-02  0.1138482E+00
          2   -1    0    0  502    0  0.00000000000E+00  0.00000000000E+00  0.61717716795E+03  0.61717716795E+03  0.00000000000E+00 0.  1.
         -2   -1    0    0    0  501 -0.00000000000E+00 -0.00000000000E+00 -0.14156656964E+03  0.14156656964E+03  0.00000000000E+00 0.  1.
         25    1    1    2    0    0 -0.42390237032E+02 -0.21761593582E+03  0.10312682062E+03  0.27461567481E+03  0.12500000000E+03 0.  0.
          2    1    1    2  502    0  0.34812583621E+02  0.16060779245E+03  0.39065684277E+03  0.42381546430E+03  0.00000000000E+00 0.  1.
         -2    1    1    2    0  501  0.75776534114E+01  0.57008143371E+02 -0.18173065083E+02  0.60312598488E+02  0.00000000000E+00 0.  1.
<mgrwt>
<rscale>  4 0.21394189E+03</rscale>
<asrwt>0</asrwt>
<pdfrwt beam="1">  1        2 0.94950332E-01 0.21394189E+03</pdfrwt>
<pdfrwt beam="2">  1       -2 0.21779473E-01 0.21394189E+03</pdfrwt>
<totfact> 0.88702677E+02</totfact>
</mgrwt>
</event>
<event>
 5    0  0.1226227E+000  0.2885152E+03  0.7546771E-02  0.1091127E+00
          1   -1    0    0  502    0  0.00000000000E+00  0.00000000000E+00  0.74350312104E+03  0.74350312104E+03  0.00000000000E+00 0. -1.
          3   -1    0    0  501    0 -0.00000000000E+00 -0.00000000000E+00 -0.88749491889E+03  0.88749491889E+03  0.00000000000E+00 0.  1.
         25    1    1    2    0    0 -0.12940991025E+03  0.15585461906E+03 -0.23143436181E+03  0.33200067918E+03  0.12500000000E+03 0.  0.
          1    1    1    2  501    0 -0.50015865873E+02  0.89717835519E+02  0.65076221429E+03  0.65881889499E+03  0.00000000000E+00 0. -1.
          3    1    1    2  502    0  0.17942577612E+03 -0.24557245458E+03 -0.56331965032E+03  0.64017846576E+03  0.00000000000E+00 0.  1.
<mgrwt>
<rscale>  4 0.28851525E+03</rscale>
<asrwt>0</asrwt>
<pdfrwt beam="1">  1        1 0.11438510E+00 0.28851525E+03</pdfrwt>
<pdfrwt beam="2">  1        3 0.13653768E+00 0.28851525E+03</pdfrwt>
<totfact> 0.60334657E+00</totfact>
</mgrwt>
</event>
<event>
 5    0  0.1226227E+000  0.2314720E+03  0.7546771E-02  0.1125608E+00
          3   -1    0    0  501    0 -0.00000000000E+00  0.00000000000E+00  0.10146052199E+04  0.10146052199E+04  0.00000000000E+00 0. -1.
          2   -1    0    0  502    0  0.00000000000E+00 -0.00000000000E+00 -0.15349091928E+04  0.15349091928E+04  0.00000000000E+00 0. -1.
         25    1    1    2    0    0  0.13677695029E+03 -0.16668419800E+03 -0.29257007964E+02  0.25094327747E+03  0.12500000000E+03 0.  0.
          2    1    1    2  501    0 -0.17933154845E+02  0.14248425161E+02 -0.13843785146E+04  0.13845679786E+04  0.00000000000E+00 0. -1.
          3    1    1    2  502    0 -0.11884379545E+03  0.15243577284E+03  0.89333154976E+03  0.91400315664E+03  0.00000000000E+00 0. -1.
<mgrwt>
<rscale>  4 0.23147203E+03</rscale>
<asrwt>0</asrwt>
<pdfrwt beam="1">  1        2 0.23613988E+00 0.23147203E+03</pdfrwt>
<pdfrwt beam="2">  1        3 0.15609311E+00 0.23147203E+03</pdfrwt>
<totfact> 0.25415853E+00</totfact>
</mgrwt>
</event>
<event>
 5    0  0.1226227E+000  0.2662483E+03  0.7546771E-02  0.1103446E+00
         -2   -1    0    0    0  501 -0.00000000000E+00  0.00000000000E+00  0.60041913803E+02  0.60041913803E+02  0.00000000000E+00 0. -1.
          2   -1    0    0  502    0  0.00000000000E+00 -0.00000000000E+00 -0.21044736813E+04  0.21044736813E+04  0.00000000000E+00 0.  1.
         25    1    1    2    0    0 -0.24586248990E+03 -0.10381957235E+03 -0.53167332204E+03  0.60788846749E+03  0.12500000000E+03 0.  0.
          2    1    1    2  502    0  0.18084901018E+03  0.14066194274E+03 -0.14157769164E+04  0.14341953924E+04  0.00000000000E+00 0.  1.
         -2    1    1    2    0  501  0.65013479722E+02 -0.36842370391E+02 -0.96981529001E+02  0.12243173514E+03  0.00000000000E+00 0. -1.
<mgrwt>
<rscale>  4 0.26624832E+03</rscale>
<asrwt>0</asrwt>
<pdfrwt beam="1">  1        2 0.32376517E+00 0.26624832E+03</pdfrwt>
<pdfrwt beam="2">  1       -2 0.92372180E-02 0.26624832E+03</pdfrwt>
<totfact> 0.49406871E+02</totfact>
</mgrwt>
</event>
<event>
 5    0  0.1226227E+000  0.3145950E+03  0.7546771E-02  0.1078164E+00
          2   -1    0    0  502    0  0.00000000000E+00  0.00000000000E+00  0.79199649176E+03  0.79199649176E+03  0.00000000000E+00 0. -1.
          2   -1    0    0  501    0 -0.00000000000E+00 -0.00000000000E+00 -0.15197912039E+04  0.15197912039E+04  0.00000000000E+00 0. -1.
         25    1    1    2    0    0 -0.27465537827E+03  0.54514704528E+02  0.21809168276E+03  0.37629298680E+03  0.12500000000E+03 0.  0.
          2    1    1    2  501    0  0.27592685186E+03 -0.10408252608E+03  0.45038395371E+03  0.53834422591E+03  0.00000000000E+00 0. -1.
          2    1    1    2  502    0 -0.12714735934E+01  0.49567821552E+02 -0.13962703486E+04  0.13971504830E+04  0.00000000000E+00 0. -1.
<mgrwt>
<rscale>  4 0.31459496E+03</rscale>
<asrwt>0</asrwt>
<pdfrwt beam="1">  1        2 0.12184562E+00 0.31459496E+03</pdfrwt>
<pdfrwt beam="2">  1        2 0.23381403E+00 0.31459496E+03</pdfrwt>
<totfact> 0.73731888E+01</totfact>
</mgrwt>
</event>
<event>
 5    0  0.1226227E+000  0.2317854E+03  0.7546771E-02  0.1125389E+00
         -4   -1    0    0    0  501 -0.00000000000E+00  0.00000000000E+00  0.27879379239E+03  0.27879379239E+03  0.00000000000E+00 0.  1.
          2   -1    0    0  501    0  0.00000000000E+00 -0.00000000000E+00 -0.63761387824E+03  0.63761387824E+03  0.00000000000E+00 0. -1.
         25    1    1    2    0    0  0.21062919757E+03  0.33132208876E+02  0.38596521293E+02  0.25015413966E+03  0.12500000000E+03 0.  0.
          2    1    1    2  502    0 -0.19051133451E+03 -0.30900255566E+02 -0.51341997622E+03  0.54849746248E+03  0.00000000000E+00 0. -1.
         -4    1    1    2    0  502 -0.20117863058E+02 -0.22319533097E+01  0.11600336907E+03  0.11775606848E+03  0.00000000000E+00 0.  1.
<mgrwt>
<rscale>  4 0.23178539E+03</rscale>
<asrwt>0</asrwt>
<pdfrwt beam="1">  1        2 0.98094443E-01 0.23178539E+03</pdfrwt>
<pdfrwt beam="2">  1       -4 0.42891353E-01 0.23178539E+03</pdfrwt>
<totfact> 0.13233833E+02</totfact>
</mgrwt>
</event>
<event>
 5    0  0.1226227E+000  0.2614446E+03  0.7546771E-02  0.1106278E+00
         -2   -1    0    0    0  501 -0.00000000000E+00  0.00000000000E+00  0.48184696005E+03  0.48184696005E+03  0.00000000000E+00 0. -1.
          2   -1    0    0  502    0  0.00000000000E+00 -0.00000000000E+00 -0.38589017324E+03  0.38589017324E+03  0.00000000000E+00 0.  1.
         25    1    1    2    0    0 -0.23311235283E+03 -0.99308714349E+02  0.13895351676E+03  0.31485976181E+03  0.12500000000E+03 0.  0.
          2    1    1    2  502    0  0.20946464362E+03  0.82623842838E+02 -0.25426482084E+03  0.33963618101E+03  0.00000000000E+00 0.  1.
         -2    1    1    2    0  501  0.23647709209E+02  0.16684871511E+02  0.21126809089E+03  0.21324119048E+03  0.00000000000E+00 0. -1.
<mgrwt>
<rscale>  4 0.26144456E+03</rscale>
<asrwt>0</asrwt>
<pdfrwt beam="1">  1        2 0.59367719E-01 0.26144456E+03</pdfrwt>
<pdfrwt beam="2">  1       -2 0.74130302E-01 0.26144456E+03</pdfrwt>
<totfact> 0.14131037E+02</totfact>
</mgrwt>
</event>
<event>
 5    0  0.1226227E+000  0.3043531E+03  0.7546771E-02  0.1083085E+00
          2   -1    0    0  502    0  0.00000000000E+00  0.00000000000E+00  0.12689005493E+04  0.12689005493E+04  0.00000000000E+00 0. -1.
          2   -1    0    0  501    0 -0.00000000000E+00 -0.00000000000E+00 -0.20409957841E+04  0.20409957841E+04  0.00000000000E+00 0.  1.
         25    1    1    2    0    0 -0.19823308151E+03 -0.21651800133E+03 -0.10354393322E+04  0.10834832764E+04  0.12500000000E+03 0.  0.
          2    1    1    2  501    0  0.19680565258E+03  0.19531043222E+03  0.12293212318E+04  0.12602020952E+04  0.00000000000E+00 0. -1.
          2    1    1    2  502    0  0.14274289267E+01  0.21207569110E+02 -0.96597713437E+03  0.96621096178E+03  0.00000000000E+00 0.  1.
<mgrwt>
<rscale>  4 0.30435307E+03</rscale>
<asrwt>0</asrwt>
<pdfrwt beam="1">  1        2 0.19521547E+00 0.30435307E+03</pdfrwt>
<pdfrwt beam="2">  1        2 0.31399935E+00 0.30435307E+03</pdfrwt>
<totfact> 0.19905103E+01</totfact>
</mgrwt>
</event>
<event>
 5    0  0.1226227E+000  0.1903485E+03  0.7546771E-02  0.1158147E+00
          1   -1    0    0  501    0  0.00000000000E+00  0.00000000000E+00  0.99945939220E+03  0.99945939220E+03  0.00000000000E+00 0.  1.
         -2   -1    0    0    0  501 -0.00000000000E+00 -0.00000000000E+00 -0.79537808203E+02  0.79537808203E+02  0.00000000000E+00 0. -1.
         25    1    1    2    0    0 -0.39035397921E+02 -0.20143905531E+03  0.49245731698E+03  0.54794220894E+03  0.12500000000E+03 0.  0.
          1    1    1    2  502    0  0.64171468373E+02  0.69712996278E+02  0.37544415976E+03  0.38721595564E+03  0.00000000000E+00 0.  1.
         -2    1    1    2    0  502 -0.25136070452E+02  0.13172605903E+03  0.52020107249E+02  0.14383903581E+03  0.00000000000E+00 0. -1.
<mgrwt>
<rscale>  4 0.19034845E+03</rscale>
<asrwt>0</asrwt>
<pdfrwt beam="1">  1        1 0.15376297E+00 0.19034845E+03</pdfrwt>
<pdfrwt beam="2">  1       -2 0.12236587E-01 0.19034845E+03</pdfrwt>
<totfact> 0.67883926E+02</totfact>
</mgrwt>
</event>
<event>
 5    0  0.1226227E+000  0.1920321E+03  0.7546771E-02  0.1156641E+00
          2   -1    0    0  502    0  0.00000000000E+00  0.00000000000E+00  0.11871196024E+04  0.11871196024E+04  0.00000000000E+00 0. -1.
          2   -1    0    0  501    0 -0.00000000000E+00 -0.00000000000E+00 -0.19275533257E+03  0.19275533257E+03  0.00000000000E+00 0. -1.
         25    1    1    2    0    0  0.19725227481E+03  0.11461594677E+03  0.16650542931E+03  0.30885973056E+03  0.12500000000E+03 0.  0.
          2    1    1    2  501    0 -0.11223568463E+03 -0.83359141810E+02  0.92656102482E+03  0.93704905322E+03  0.00000000000E+00 0. -1.
          2    1    1    2  502    0 -0.85016590186E+02 -0.31256804959E+02 -0.98702184329E+02  0.13396615115E+03  0.00000000000E+00 0. -1.
<mgrwt>
<rscale>  4 0.19203214E+03</rscale>
<asrwt>0</asrwt>
<pdfrwt beam="1">  1        2 0.18263378E+00 0.19203214E+03</pdfrwt>
<pdfrwt beam="2">  1        2 0.29654667E-01 0.19203214E+03</pdfrwt>
<totfact> 0.56797307E+02</totfact>
</mgrwt>
</event>
<event>
 5    0  0.1226227E+000  0.2699230E+03  0.7546771E-02  0.1101324E+00
          1   -1    0    0  501    0 -0.00000000000E+00  0.00000000000E+00  0.15794326667E+03  0.15794326667E+03  0.00000000000E+00 0. -1.
          2   -1    0    0  502    0  0.00000000000E+00 -0.00000000000E+00 -0.10944094704E+04  0.10944094704E+04  0.00000000000E+00 0. -1.
         25    1    1    2    0    0 -0.98738107600E+02 -0.20579671256E+03 -0.15214814963E+03  0.30145573511E+03  0.12500000000E+03 0.  0.
          2    1    1    2  501    0 -0.19977546827E+02 -0.12349294823E+02 -0.68181407755E+03  0.68221847219E+03  0.00000000000E+00 0. -1.
          1    1    1    2  502    0  0.11871565443E+03  0.21814600738E+03 -0.10250397655E+03  0.26867852975E+03  0.00000000000E+00 0. -1.
<mgrwt>
<rscale>  4 0.26992298E+03</rscale>
<asrwt>0</asrwt>
<pdfrwt beam="1">  1        2 0.16837069E+00 0.26992298E+03</pdfrwt>
<pdfrwt beam="2">  1        1 0.24298964E-01 0.26992298E+03</pdfrwt>
<totfact> 0.62145864E+02</totfact>
</mgrwt>
</event>
<event>
 5    0  0.1226227E+000  0.3608139E+03  0.7546771E-02  0.1058262E+00
          2   -1    0    0  502    0  0.00000000000E+00  0.00000000000E+00  0.21362812244E+04  0.21362812244E+04  0.00000000000E+00 0.  1.
          1   -1    0    0  501    0 -0.00000000000E+00 -0.00000000000E+00 -0.34110872989E+03  0.34110872989E+03  0.00000000000E+00 0.  1.
         25    1    1    2    0    0 -0.17267688628E+03 -0.23232598422E+03  0.46332067580E+03  0.56043172521E+03  0.12500000000E+03 0.  0.
          2    1    1    2  501    0  0.25662309810E+03  0.25209042901E+03  0.15975831283E+04  0.16375826241E+04  0.00000000000E+00 0.  1.
          1    1    1    2  502    0 -0.83946211817E+02 -0.19764444784E+02 -0.26573130961E+03  0.27937560498E+03  0.00000000000E+00 0.  1.
<mgrwt>
<rscale>  4 0.36081387E+03</rscale>
<asrwt>0</asrwt>
<pdfrwt beam="1">  1        2 0.32865864E+00 0.36081387E+03</pdfrwt>
<pdfrwt beam="2">  1        1 0.52478268E-01 0.36081387E+03</pdfrwt>
<totfact> 0.62128520E+01</totfact>
</mgrwt>
</event>
<event>
 5    0  0.1226227E+000  0.2560826E+03  0.7546771E-02  0.1109520E+00
         -1   -1    0    0    0  501 -0.00000000000E+00  0.00000000000E+00  0.10498807252E+04  0.10498807252E+04  0.00000000000E+00 0. -1.
          4   -1    0    0  501    0  0.00000000000E+00 -0.00000000000E+00 -0.18923334031E+03  0.18923334031E+03  0.00000000000E+00 0.  1.
         25    1    1    2    0    0 -0.26288407453E+03 -0.40712004292E+02  0.87291712615E+02  0.30661106801E+03  0.12500000000E+03 0.  0.
          4    1    1    2  502    0  0.45814577186E+02  0.19691843787E+02 -0.55981404551E+02  0.74971073422E+02  0.00000000000E+00 0.  1.
         -1    1    1    2    0  502  0.21706949734E+03  0.21020160505E+02  0.82933707684E+03  0.85753192410E+03  0.00000000000E+00 0. -1.
<mgrwt>
<rscale>  4 0.25608257E+03</rscale>
<asrwt>0</asrwt>
<pdfrwt beam="1">  1        4 0.29112822E-01 0.25608257E+03</pdfrwt>
<pdfrwt beam="2">  1       -1 0.16152011E+00 0.25608257E+03</pdfrwt>
<totfact> 0.13933896E+01</totfact>
</mgrwt>
</event>
<event>
 5    0  0.1226227E+000  0.2734937E+03  0.7546771E-02  0.1099297E+00
          2   -1    0    0  502    0  0.00000000000E+00  0.00000000000E+00  0.16758494098E+04  0.16758494098E+04  0.00000000000E+00 0. -1.
          1   -1    0    0  501    0 -0.00000000000E+00 -0.00000000000E+00 -0.11528735666E+03  0.11528735666E+03  0.00000000000E+00 0. -1.
         25    1    1    2    0    0  0.23402088007E+03 -0.58087028565E+02  0.10065048564E+04  0.10425051084E+04  0.12500000000E+03 0.  0.
          2    1    1    2  501    0 -0.22657657748E+03  0.10159656472E+03  0.62079615935E+03  0.66861549405E+03  0.00000000000E+00 0. -1.
          1    1    1    2  502    0 -0.74443025884E+01 -0.43509536151E+02 -0.66738962559E+02  0.80016163995E+02  0.00000000000E+00 0. -1.
<mgrwt>
<rscale>  4 0.27349371E+03</rscale>
<asrwt>0</asrwt>
<pdfrwt beam="1">  1        2 0.25782297E+00 0.27349371E+03</pdfrwt>
<pdfrwt beam="2">  1        1 0.17736518E-01 0.27349371E+03</pdfrwt>
<totfact> 0.44663246E+02</totfact>
</mgrwt>
</event>
<event>
 5    0  0.1226227E+000  0.1922459E+03  0.7546771E-02  0.1156451E+00
          4   -1    0    0  502    0  0.00000000000E+00  0.00000000000E+00  0.33666143004E+03  0.33666143004E+03  0.00000000000E+00 0.  1.
          1   -1    0    0  501    0 -0.00000000000E+00 -0.00000000000E+00 -0.65647320144E+03  0.65647320144E+03  0.00000000000E+00 0. -1.
         25    1    1    2    0    0 -0.20751569481E+03 -0.16341705344E+02  0.19284956039E+03  0.31007381036E+03  0.12500000000E+03 0.  0.
          4    1    1    2  501    0  0.64315656851E+02  0.24336847545E+01  0.62777896680E+02  0.89908235714E+02  0.00000000000E+00 0.  1.
          1    1    1    2  502    0  0.14320003796E+03  0.13908020589E+02 -0.57543922847E+03  0.59315258541E+03  0.00000000000E+00 0. -1.
<mgrwt>
<rscale>  4 0.19224588E+03</rscale>
<asrwt>0</asrwt>
<pdfrwt beam="1">  1        4 0.51794067E-01 0.19224588E+03</pdfrwt>
<pdfrwt beam="2">  1        1 0.10099588E+00 0.19224588E+03</pdfrwt>
<totfact> 0.52214237E+01</totfact>
</mgrwt>
</event>
<event>
 5    0  0.1226227E+000  0.3959927E+03  0.7546771E-02  0.1045176E+00
          2   -1    0    0  502    0  0.00000000000E+00  0.00000000000E+00  0.46396932011E+03  0.46396932011E+03  0.00000000000E+00 0.  1.
          2   -1    0    0  501    0 -0.00000000000E+00 -0.00000000000E+00 -0.36291183838E+04  0.36291183838E+04  0.00000000000E+00 0.  1.
         25    1    1    2    0    0 -0.21863789717E+03 -0.38680160348E+03 -0.15260580439E+04  0.15943325136E+04  0.12500000000E+03 0.  0.
          2    1    1    2  501    0  0.19080364618E+03  0.31957928154E+03  0.34846529455E+03  0.50986763977E+03  0.00000000000E+00 0.  1.
          2    1    1    2  502    0  0.27834250990E+02  0.67222321939E+02 -0.19875563143E+04  0.19888875505E+04  0.00000000000E+00 0.  1.
<mgrwt>
<rscale>  4 0.39599274E+03</rscale>
<asrwt>0</asrwt>
<pdfrwt beam="1">  1        2 0.71379894E-01 0.39599274E+03</pdfrwt>
<pdfrwt beam="2">  1        2 0.55832592E+00 0.39599274E+03</pdfrwt>
<totfact> 0.81906772E+00</totfact>
</mgrwt>
</event>
<event>
 5    0  0.1226227E+000  0.3622245E+03  0.7546771E-02  0.1057706E+00
          1   -1    0    0  501    0 -0.00000000000E+00  0.00000000000E+00  0.18474227570E+03  0.18474227570E+03  0.00000000000E+00 0.  1.
          2   -1    0    0  502    0  0.00000000000E+00 -0.00000000000E+00 -0.82899180104E+03  0.82899180104E+03  0.00000000000E+00 0.  1.
         25    1    1    2    0    0  0.29953731033E+03  0.59184744319E+02 -0.36616125168E+03  0.49287371249E+03  0.12500000000E+03 0.  0.
          2    1    1    2  501    0  0.50096039936E+02  0.52526804434E+02 -0.57762336835E+02  0.92764033752E+02  0.00000000000E+00 0.  1.
          1    1    1    2  502    0 -0.34963335026E+03 -0.11171154875E+03 -0.22032593683E+03  0.42809633049E+03  0.00000000000E+00 0.  1.
<mgrwt>
<rscale>  4 0.36222455E+03</rscale>
<asrwt>0</asrwt>
<pdfrwt beam="1">  1        2 0.12753720E+00 0.36222455E+03</pdfrwt>
<pdfrwt beam="2">  1        1 0.28421889E-01 0.36222455E+03</pdfrwt>
<totfact> 0.74170391E+02</totfact>
</mgrwt>
</event>
<event>
 5    0  0.1226227E+000  0.3030015E+03  0.7546771E-02  0.1083750E+00
          2   -1    0    0  502    0  0.00000000000E+00  0.00000000000E+00  0.13592859025E+04  0.13592859025E+04  0.00000000000E+00 0.  1.
         -2   -1    0    0    0  501 -0.00000000000E+00 -0.00000000000E+00 -0.12208463372E+03  0.12208463372E+03  0.00000000000E+00 0.  1.
         25    1    1    2    0    0 -0.17170099142E+03 -0.23906127227E+03  0.67919923511E+03  0.75071174450E+03  0.12500000000E+03 0.  0.
          2    1    1    2  502    0  0.16272029416E+03  0.20579893866E+03  0.61242049940E+03  0.66625067758E+03  0.00000000000E+00 0.  1.
         -2    1    1    2    0  501  0.89806972580E+01  0.33262333605E+02 -0.54418465713E+02  0.64408114168E+02  0.00000000000E+00 0.  1.
<mgrwt>
<rscale>  4 0.30300146E+03</rscale>
<asrwt>0</asrwt>
<pdfrwt beam="1">  1        2 0.20912090E+00 0.30300146E+03</pdfrwt>
<pdfrwt beam="2">  1       -2 0.18782252E-01 0.30300146E+03</pdfrwt>
<totfact> 0.38163053E+02</totfact>
</mgrwt>
</event>
<event>
 5    0  0.1226227E+000  0.3469975E+03  0.7546771E-02  0.1063854E+00
         -2   -1    0    0    0  501 -0.00000000000E+00  0.00000000000E+00  0.10148707521E+04  0.10148707521E+04  0.00000000000E+00 0.  1.
          3   -1    0    0  501    0  0.00000000000E+00 -0.00000000000E+00 -0.45229925381E+03  0.45229925381E+03  0.00000000000E+00 0.  1.
         25    1    1    2    0    0  0.13613628527E+03  0.22911284668E+03  0.65929108861E+03  0.72202183083E+03  0.12500000000E+03 0.  0.
          3    1    1    2  502    0 -0.13851512720E+03 -0.29865398035E+03 -0.35117122122E+03  0.48135420124E+03  0.00000000000E+00 0.  1.
         -2    1    1    2    0  502  0.23788419255E+01  0.69541133666E+02  0.25445163091E+03  0.26379397383E+03  0.00000000000E+00 0.  1.
<mgrwt>
<rscale>  4 0.34699745E+03</rscale>
<asrwt>0</asrwt>
<pdfrwt beam="1">  1        3 0.69584501E-01 0.34699745E+03</pdfrwt>
<pdfrwt beam="2">  1       -2 0.15613396E+00 0.34699745E+03</pdfrwt>
<totfact> 0.23088057E+00</totfact>
</mgrwt>
</event>
<event>
 5    0  0.1226227E+000  0.1946608E+03  0.7546771E-02  0.1154324E+00
          1   -1    0    0  502    0  0.00000000000E+00  0.00000000000E+00  0.96180826316E+03  0.96180826316E+03  0.00000000000E+00 0. -1.
         -1   -1    0    0    0  501 -0.00000000000E+00 -0.00000000000E+00 -0.83890264059E+03  0.83890264059E+03  0.00000000000E+00 0. -1.
         25    1    1    2    0    0 -0.14729271569E+03  0.16267245531E+03 -0.21682495341E+03  0.33285962842E+03  0.12500000000E+03 0.  0.
          1    1    1    2  502    0  0.45001983742E+02 -0.68641483351E+02  0.89332456589E+03  0.89708729330E+03  0.00000000000E+00 0. -1.
         -1    1    1    2    0  501  0.10229073195E+03 -0.94030971961E+02 -0.55359398990E+03  0.57076398203E+03  0.00000000000E+00 0. -1.
<mgrwt>
<rscale>  4 0.19466076E+03</rscale>
<asrwt>0</asrwt>
<pdfrwt beam="1">  1        1 0.14797050E+00 0.19466076E+03</pdfrwt>
<pdfrwt beam="2">  1       -1 0.12906194E+00 0.19466076E+03</pdfrwt>
<totfact> 0.10026993E+01</totfact>
</mgrwt>
</event>
<event>
 5    0  0.1226227E+000  0.2430001E+03  0.7546771E-02  0.1117810E+00
          1   -1    0    0  501    0 -0.00000000000E+00  0.00000000000E+00  0.33654507329E+03  0.33654507329E+03  0.00000000000E+00 0. -1.
          4   -1    0    0  502    0  0.00000000000E+00 -0.00000000000E+00 -0.16635556493E+03  0.16635556493E+03  0.00000000000E+00 0. -1.
         25    1    1    2    0    0  0.17172264971E+03 -0.11012397974E+03  0.93081608322E+02  0.25671997418E+03  0.12500000000E+03 0.  0.
          4    1    1    2  501    0  0.16740646962E+02  0.11339193719E+02  0.11718396201E+01  0.20253389420E+02  0.00000000000E+00 0. -1.
          1    1    1    2  502    0 -0.18846329668E+03  0.98784786016E+02  0.75936060423E+02  0.22592727461E+03  0.00000000000E+00 0. -1.
<mgrwt>
<rscale>  4 0.24300008E+03</rscale>
<asrwt>0</asrwt>
<pdfrwt beam="1">  1        4 0.25593164E-01 0.24300008E+03</pdfrwt>
<pdfrwt beam="2">  1        1 0.51776165E-01 0.24300008E+03</pdfrwt>
<totfact> 0.50822980E+02</totfact>
</mgrwt>
</event>
<event>
 5    0  0.1226227E+000  0.2630745E+03  0.7546771E-02  0.1105310E+00
          2   -1    0    0  502    0  0.00000000000E+00  0.00000000000E+00  0.32369873624E+04  0.32369873624E+04  0.00000000000E+00 0.  1.
          1   -1    0    0  501    0 -0.00000000000E+00 -0.00000000000E+00 -0.36736294411E+03  0.36736294411E+03  0.00000000000E+00 0. -1.
         25    1    1    2    0    0 -0.13617912712E+03 -0.22052381061E+03  0.30420847508E+04  0.30556636164E+04  0.12500000000E+03 0.  0.
          2    1    1    2  501    0  0.56897846863E+02  0.11866142606E+03  0.15107447255E+03  0.20035317634E+03  0.00000000000E+00 0.  1.
          1    1    1    2  502    0  0.79281280258E+02  0.10186238455E+03 -0.32353480501E+03  0.34833351380E+03  0.00000000000E+00 0. -1.
<mgrwt>
<rscale>  4 0.26307452E+03</rscale>
<asrwt>0</asrwt>
<pdfrwt beam="1">  1        2 0.49799804E+00 0.26307452E+03</pdfrwt>
<pdfrwt beam="2">  1        1 0.56517378E-01 0.26307452E+03</pdfrwt>
<totfact> 0.13947618E+01</totfact>
</mgrwt>
</event>
<event>
 5    0  0.1226227E+000  0.2512579E+03  0.7546771E-02  0.1112512E+00
          2   -1    0    0  502    0  0.00000000000E+00  0.00000000000E+00  0.10097985353E+04  0.10097985353E+04  0.00000000000E+00 0.  1.
          1   -1    0    0  501    0 -0.00000000000E+00 -0.00000000000E+00 -0.31989314102E+03  0.31989314102E+03  0.00000000000E+00 0. -1.
         25    1    1    2    0    0 -0.20347917990E+03  0.26099155574E+02  0.30129222316E+03  0.38534003985E+03  0.12500000000E+03 0.  0.
          2    1    1    2  501    0 -0.15728044712E+02 -0.12509505932E+02  0.62289648405E+03  0.62322057810E+03  0.00000000000E+00 0.  1.
          1    1    1    2  502    0  0.21920722461E+03 -0.13589649642E+02 -0.23428331295E+03  0.32113105834E+03  0.00000000000E+00 0. -1.
<mgrwt>
<rscale>  4 0.25125789E+03</rscale>
<asrwt>0</asrwt>
<pdfrwt beam="1">  1        2 0.15535362E+00 0.25125789E+03</pdfrwt>
<pdfrwt beam="2">  1        1 0.49214330E-01 0.25125789E+03</pdfrwt>
<totfact> 0.28689255E+02</totfact>
</mgrwt>
</event>
<event>
 5    0  0.1226227E+000  0.2493659E+03  0.7546771E-02  0.1113706E+00
          2   -1    0    0  502    0  0.00000000000E+00  0.00000000000E+00  0.11381991655E+04  0.11381991655E+04  0.00000000000E+00 0.  1.
         -2   -1    0    0    0  501 -0.00000000000E+00 -0.00000000000E+00 -0.28482150141E+03  0.28482150141E+03  0.00000000000E+00 0. -1.
         25    1    1    2    0    0 -0.11988602321E+03  0.16493394839E+03 -0.19106894808E+03  0.30611796551E+03  0.12500000000E+03 0.  0.
          2    1    1    2  502    0  0.14658484408E+03 -0.15912607501E+03  0.10624021184E+04  0.10842077686E+04  0.00000000000E+00 0.  1.
         -2    1    1    2    0  501 -0.26698820872E+02 -0.58078733800E+01 -0.17955506223E+02  0.32694932832E+02  0.00000000000E+00 0. -1.
<mgrwt>
<rscale>  4 0.24936587E+03</rscale>
<asrwt>0</asrwt>
<pdfrwt beam="1">  1        2 0.17510756E+00 0.24936587E+03</pdfrwt>
<pdfrwt beam="2">  1       -2 0.43818693E-01 0.24936587E+03</pdfrwt>
<totfact> 0.11016356E+02</totfact>
</mgrwt>
</event>
<event>
 5    0  0.1226227E+000  0.2718264E+03  0.7546771E-02  0.1100239E+00
          2   -1    0    0  502    0  0.00000000000E+00  0.00000000000E+00  0.31094634668E+03  0.31094634668E+03  0.00000000000E+00 0.  1.
         -2   -1    0    0    0  501 -0.00000000000E+00 -0.00000000000E+00 -0.74858527386E+03  0.74858527386E+03  0.00000000000E+00 0.  1.
         25    1    1    2    0    0 -0.69812032631E+01  0.26912477436E+03 -0.61054396677E+03  0.67887098681E+03  0.12500000000E+03 0.  0.
          2    1    1    2  502    0 -0.31322911356E+02 -0.23723807552E+03  0.21012414536E+03  0.31845751006E+03  0.00000000000E+00 0.  1.
         -2    1    1    2    0  501  0.38304114619E+02 -0.31886698837E+02 -0.37219105766E+02  0.62203123664E+02  0.00000000000E+00 0.  1.
<mgrwt>
<rscale>  4 0.27182639E+03</rscale>
<asrwt>0</asrwt>
<pdfrwt beam="1">  1        2 0.47837899E-01 0.27182639E+03</pdfrwt>
<pdfrwt beam="2">  1       -2 0.11516697E+00 0.27182639E+03</pdfrwt>
<totfact> 0.65114749E+01</totfact>
</mgrwt>
</event>
<event>
 5    0  0.1226227E+000  0.3745369E+03  0.7546771E-02  0.1052972E+00
          2   -1    0    0  502    0  0.00000000000E+00  0.00000000000E+00  0.24496386340E+03  0.24496386340E+03  0.00000000000E+00 0. -1.
          2   -1    0    0  501    0 -0.00000000000E+00 -0.00000000000E+00 -0.16078274626E+04  0.16078274626E+04  0.00000000000E+00 0. -1.
         25    1    1    2    0    0 -0.21742663452E+03  0.25696292172E+03 -0.45813301158E+03  0.58207829443E+03  0.12500000000E+03 0.  0.
          2    1    1    2  501    0 -0.62574030525E+02 -0.30280311861E+02 -0.90778494985E+03  0.91044270647E+03  0.00000000000E+00 0. -1.
          2    1    1    2  502    0  0.28000066504E+03 -0.22668260986E+03  0.30543622241E+01  0.36027032512E+03  0.00000000000E+00 0. -1.
<mgrwt>
<rscale>  4 0.37453692E+03</rscale>
<asrwt>0</asrwt>
<pdfrwt beam="1">  1        2 0.37686749E-01 0.37453692E+03</pdfrwt>
<pdfrwt beam="2">  1        2 0.24735807E+00 0.37453692E+03</pdfrwt>
<totfact> 0.24758679E+02</totfact>
</mgrwt>
</event>
<event>
 5    0  0.1226227E+000  0.3278416E+03  0.7546771E-02  0.1072096E+00
          2   -1    0    0  502    0  0.00000000000E+00  0.00000000000E+00  0.12365997271E+04  0.12365997271E+04  0.00000000000E+00 0. -1.
          2   -1    0    0  501    0 -0.00000000000E+00 -0.00000000000E+00 -0.20331257345E+04  0.20331257345E+04  0.00000000000E+00 0. -1.
         25    1    1    2    0    0 -0.22846047726E+01 -0.33161944651E+03 -0.32791363831E+02  0.35591705532E+03  0.12500000000E+03 0.  0.
          2    1    1    2  501    0 -0.36325186553E+02  0.33035117832E+02  0.10621420385E+04  0.10632763273E+04  0.00000000000E+00 0. -1.
          2    1    1    2  502    0  0.38609791325E+02  0.29858432868E+03 -0.18258766821E+04  0.18505320790E+04  0.00000000000E+00 0. -1.
<mgrwt>
<rscale>  4 0.32784162E+03</rscale>
<asrwt>0</asrwt>
<pdfrwt beam="1">  1        2 0.19024611E+00 0.32784162E+03</pdfrwt>
<pdfrwt beam="2">  1        2 0.31278857E+00 0.32784162E+03</pdfrwt>
<totfact> 0.20713020E+01</totfact>
</mgrwt>
</event>
<event>
 5    0  0.1226227E+000  0.2741149E+03  0.7546771E-02  0.1098947E+00
          2   -1    0    0  502    0  0.00000000000E+00  0.00000000000E+00  0.12251205097E+03  0.12251205097E+03  0.00000000000E+00 0. -1.
          2   -1    0    0  501    0 -0.00000000000E+00 -0.00000000000E+00 -0.12825153017E+04  0.12825153017E+04  0.00000000000E+00 0. -1.
         25    1    1    2    0    0 -0.29197552091E+03  0.13877492665E+02 -0.53141959138E+03  0.61925283343E+03  0.12500000000E+03 0.  0.
          2    1    1    2  501    0  0.22046399000E+03 -0.42018052979E+02 -0.66418545300E+03  0.70107931338E+03  0.00000000000E+00 0. -1.
          2    1    1    2  502    0  0.71511530901E+02  0.28140560313E+02  0.35601793645E+02  0.84695205870E+02  0.00000000000E+00 0. -1.
<mgrwt>
<rscale>  4 0.27411495E+03</rscale>
<asrwt>0</asrwt>
<pdfrwt beam="1">  1        2 0.18848008E-01 0.27411495E+03</pdfrwt>
<pdfrwt beam="2">  1        2 0.19731004E+00 0.27411495E+03</pdfrwt>
<totfact> 0.82536109E+02</totfact>
</mgrwt>
</event>
<event>
 5    0  0.1226227E+000  0.2608906E+03  0.7546771E-02  0.1106609E+00
          2   -1    0    0  502    0  0.00000000000E+00  0.00000000000E+00  0.46426252393E+03  0.46426252393E+03  0.00000000000E+00 0.  1.
          1   -1    0    0  501    0 -0.00000000000E+00 -0.00000000000E+00 -0.54496723171E+03  0.54496723171E+03  0.00000000000E+00 0.  1.
         25    1    1    2    0    0 -0.94692163355E+02 -0.26397657017E+03 -0.24424009805E+03  0.39233717756E+03  0.12500000000E+03 0.  0.
          2    1    1    2  501    0  0.51242932984E+02  0.21795505998E+03  0.35250790948E+03  0.41760276891E+03  0.00000000000E+00 0.  1.
          1    1    1    2  502    0  0.43449230371E+02  0.46021510187E+02 -0.18897251922E+03  0.19928980917E+03  0.00000000000E+00 0.  1.
<mgrwt>
<rscale>  4 0.26089064E+03</rscale>
<asrwt>0</asrwt>
<pdfrwt beam="1">  1        2 0.71425004E-01 0.26089064E+03</pdfrwt>
<pdfrwt beam="2">  1        1 0.83841112E-01 0.26089064E+03</pdfrwt>
<totfact> 0.37189291E+02</totfact>
</mgrwt>
</event>
<event>
 5    0  0.1226227E+000  0.1907070E+03  0.7546771E-02  0.1157825E+00
          2   -1    0    0  502    0  0.00000000000E+00  0.00000000000E+00  0.44808751659E+03  0.44808751659E+03  0.00000000000E+00 0. -1.
          2   -1    0    0  501    0 -0.00000000000E+00 -0.00000000000E+00 -0.50476208148E+03  0.50476208148E+03  0.00000000000E+00 0. -1.
         25    1    1    2    0    0 -0.20222970194E+03  0.13339601522E+02  0.53655120343E+02  0.24408742133E+03  0.12500000000E+03 0.  0.
          2    1    1    2  501    0  0.13732007882E+03 -0.23967803528E+02 -0.39380913011E+03  0.41775218804E+03  0.00000000000E+00 0. -1.
          2    1    1    2  502    0  0.64909623117E+02  0.10628202006E+02  0.28347944488E+03  0.29100998869E+03  0.00000000000E+00 0. -1.
<mgrwt>
<rscale>  4 0.19070699E+03</rscale>
<asrwt>0</asrwt>
<pdfrwt beam="1">  1        2 0.68936541E-01 0.19070699E+03</pdfrwt>
<pdfrwt beam="2">  1        2 0.77655705E-01 0.19070699E+03</pdfrwt>
<totfact> 0.67879419E+02</totfact>
</mgrwt>
</event>
<event>
 5    0  0.1226227E+000  0.1818920E+03  0.7546771E-02  0.1165984E+00
          1   -1    0    0  502    0  0.00000000000E+00  0.00000000000E+00  0.38168593893E+03  0.38168593893E+03  0.00000000000E+00 0.  1.
          1   -1    0    0  501    0 -0.00000000000E+00 -0.00000000000E+00 -0.10640770597E+04  0.10640770597E+04  0.00000000000E+00 0.  1.
         25    1    1    2    0    0 -0.21423940135E+03 -0.10679865116E+03 -0.45486935263E+03  0.52899489689E+03  0.12500000000E+03 0.  0.
          1    1    1    2  501    0  0.11144203841E+03  0.27973235838E+02 -0.55386357657E+03  0.56565598317E+03  0.00000000000E+00 0.  1.
          1    1    1    2  502    0  0.10279736294E+03  0.78825415325E+02  0.32634180838E+03  0.35111211860E+03  0.00000000000E+00 0.  1.
<mgrwt>
<rscale>  4 0.18189196E+03</rscale>
<asrwt>0</asrwt>
<pdfrwt beam="1">  1        1 0.58720915E-01 0.18189196E+03</pdfrwt>
<pdfrwt beam="2">  1        1 0.16370416E+00 0.18189196E+03</pdfrwt>
<totfact> 0.11462073E+02</totfact>
</mgrwt>
</event>
<event>
 5    0  0.1226227E+000  0.2738087E+03  0.7546771E-02  0.1099119E+00
          2   -1    0    0  502    0  0.00000000000E+00  0.00000000000E+00  0.24686868580E+04  0.24686868580E+04  0.00000000000E+00 0.  1.
          2   -1    0    0  501    0 -0.00000000000E+00 -0.00000000000E+00 -0.32294512891E+03  0.32294512891E+03  0.00000000000E+00 0. -1.
         25    1    1    2    0    0 -0.28322968818E+03 -0.45897896386E+02  0.17372338542E+02  0.31345250248E+03  0.12500000000E+03 0.  0.
          2    1    1    2  501    0  0.48198486601E+02 -0.10851558631E+02 -0.16492935372E+03  0.17217009658E+03  0.00000000000E+00 0. -1.
          2    1    1    2  502    0  0.23503120158E+03  0.56749455017E+02  0.22932987443E+04  0.23060093879E+04  0.00000000000E+00 0.  1.
<mgrwt>
<rscale>  4 0.27380869E+03</rscale>
<asrwt>0</asrwt>
<pdfrwt beam="1">  1        2 0.37979796E+00 0.27380869E+03</pdfrwt>
<pdfrwt beam="2">  1        2 0.49683868E-01 0.27380869E+03</pdfrwt>
<totfact> 0.65475846E+01</totfact>
</mgrwt>
</event>
<event>
 5    0  0.1226227E+000  0.2601898E+03  0.7546771E-02  0.1107029E+00
          1   -1    0    0  501    0  0.00000000000E+00  0.00000000000E+00  0.56509035407E+03  0.56509035407E+03  0.00000000000E+00 0. -1.
         -2   -1    0    0    0  501 -0.00000000000E+00 -0.00000000000E+00 -0.68869054722E+03  0.68869054722E+03  0.00000000000E+00 0. -1.
         25    1    1    2    0    0  0.22422832842E+03 -0.10555095690E+03 -0.12759879598E+03  0.30549271760E+03  0.12500000000E+03 0.  0.
          1    1    1    2  502    0 -0.23053908534E+02  0.10706191027E+02  0.44957192421E+03  0.45028992911E+03  0.00000000000E+00 0. -1.
         -2    1    1    2    0  502 -0.20117441989E+03  0.94844765876E+02 -0.44557332138E+03  0.49799825458E+03  0.00000000000E+00 0. -1.
<mgrwt>
<rscale>  4 0.26018982E+03</rscale>
<asrwt>0</asrwt>
<pdfrwt beam="1">  1        1 0.86936978E-01 0.26018982E+03</pdfrwt>
<pdfrwt beam="2">  1       -2 0.10595239E+00 0.26018982E+03</pdfrwt>
<totfact> 0.25589357E+01</totfact>
</mgrwt>
</event>
<event>
 5    0  0.1226227E+000  0.2564565E+03  0.7546771E-02  0.1109291E+00
          1   -1    0    0  502    0  0.00000000000E+00  0.00000000000E+00  0.18341143874E+03  0.18341143874E+03  0.00000000000E+00 0.  1.
          3   -1    0    0  501    0 -0.00000000000E+00 -0.00000000000E+00 -0.14802240553E+04  0.14802240553E+04  0.00000000000E+00 0.  1.
         25    1    1    2    0    0 -0.38777326292E+02  0.23506130976E+03 -0.70988957004E+03  0.75916118317E+03  0.12500000000E+03 0.  0.
          1    1    1    2  501    0  0.83587663997E+01 -0.22281078290E+02  0.14227778484E+03  0.14425423212E+03  0.00000000000E+00 0.  1.
          3    1    1    2  502    0  0.30418559892E+02 -0.21278023147E+03 -0.72920083133E+03  0.76022007872E+03  0.00000000000E+00 0.  1.
<mgrwt>
<rscale>  4 0.25645647E+03</rscale>
<asrwt>0</asrwt>
<pdfrwt beam="1">  1        1 0.28217145E-01 0.25645647E+03</pdfrwt>
<pdfrwt beam="2">  1        3 0.22772678E+00 0.25645647E+03</pdfrwt>
<totfact> 0.96398418E+00</totfact>
</mgrwt>
</event>
<event>
 5    0  0.1226227E+000  0.1949179E+03  0.7546771E-02  0.1154099E+00
         -3   -1    0    0    0  501 -0.00000000000E+00  0.00000000000E+00  0.13855155922E+03  0.13855155922E+03  0.00000000000E+00 0.  1.
          2   -1    0    0  501    0  0.00000000000E+00 -0.00000000000E+00 -0.51781690083E+03  0.51781690083E+03  0.00000000000E+00 0.  1.
         25    1    1    2    0    0  0.22307995380E+03 -0.28285964935E+02 -0.10078831501E+03  0.27631150183E+03  0.12500000000E+03 0.  0.
          2    1    1    2  502    0 -0.12336590360E+03  0.55280284465E+02 -0.22803930251E+03  0.26509805641E+03  0.00000000000E+00 0.  1.
         -3    1    1    2    0  502 -0.99714050194E+02 -0.26994319530E+02 -0.50437724086E+02  0.11495890180E+03  0.00000000000E+00 0.  1.
<mgrwt>
<rscale>  4 0.19491789E+03</rscale>
<asrwt>0</asrwt>
<pdfrwt beam="1">  1        2 0.79664137E-01 0.19491789E+03</pdfrwt>
<pdfrwt beam="2">  1       -3 0.21315625E-01 0.19491789E+03</pdfrwt>
<totfact> 0.74064942E+02</totfact>
</mgrwt>
</event>
<event>
 5    0  0.1226227E+000  0.3347778E+03  0.7546771E-02  0.1069042E+00
          2   -1    0    0  502    0  0.00000000000E+00  0.00000000000E+00  0.68517148849E+03  0.68517148849E+03  0.00000000000E+00 0.  1.
         -2   -1    0    0    0  501 -0.00000000000E+00 -0.00000000000E+00 -0.70226556585E+03  0.70226556585E+03  0.00000000000E+00 0.  1.
         25    1    1    2    0    0  0.32314235634E+03 -0.70028350973E+02 -0.72473602957E+02  0.36083566277E+03  0.12500000000E+03 0.  0.
          2    1    1    2  502    0 -0.34314572780E+02 -0.26015291179E+02  0.49226251879E+03  0.49414236075E+03  0.00000000000E+00 0.  1.
         -2    1    1    2    0  501 -0.28882778356E+03  0.96043642152E+02 -0.43688299319E+03  0.53245903082E+03  0.00000000000E+00 0.  1.
<mgrwt>
<rscale>  4 0.33477784E+03</rscale>
<asrwt>0</asrwt>
<pdfrwt beam="1">  1        2 0.10541100E+00 0.33477784E+03</pdfrwt>
<pdfrwt beam="2">  1       -2 0.10804086E+00 0.33477784E+03</pdfrwt>
<totfact> 0.30812381E+01</totfact>
</mgrwt>
</event>
<event>
 5    0  0.1226227E+000  0.5525208E+03  0.7546771E-02  0.1000912E+00
          1   -1    0    0  501    0 -0.00000000000E+00  0.00000000000E+00  0.60774464894E+03  0.60774464894E+03  0.00000000000E+00 0. -1.
          2   -1    0    0  502    0  0.00000000000E+00 -0.00000000000E+00 -0.13024100895E+04  0.13024100895E+04  0.00000000000E+00 0. -1.
         25    1    1    2    0    0  0.35899467813E+03  0.38009748270E+03 -0.47018872546E+03  0.71418044837E+03  0.12500000000E+03 0.  0.
          2    1    1    2  501    0  0.19668848966E+02  0.78789050042E+01 -0.55869476578E+03  0.55909639784E+03  0.00000000000E+00 0. -1.
          1    1    1    2  502    0 -0.37866352710E+03 -0.38797638771E+03  0.33421805071E+03  0.63687789221E+03  0.00000000000E+00 0. -1.
<mgrwt>
<rscale>  4 0.55252079E+03</rscale>
<asrwt>0</asrwt>
<pdfrwt beam="1">  1        2 0.20037078E+00 0.55252079E+03</pdfrwt>
<pdfrwt beam="2">  1        1 0.93499177E-01 0.55252079E+03</pdfrwt>
<totfact> 0.77682833E+01</totfact>
</mgrwt>
</event>
<event>
 5    0  0.1226227E+000  0.1852710E+03  0.7546771E-02  0.1162797E+00
          4   -1    0    0  501    0 -0.00000000000E+00  0.00000000000E+00  0.16531262915E+03  0.16531262915E+03  0.00000000000E+00 0.  1.
          2   -1    0    0  502    0  0.00000000000E+00 -0.00000000000E+00 -0.12930783469E+04  0.12930783469E+04  0.00000000000E+00 0.  1.
         25    1    1    2    0    0  0.18466633645E+03 -0.95343344726E+02 -0.42551374845E+03  0.48977439635E+03  0.12500000000E+03 0.  0.
          2    1    1    2  501    0 -0.92539547646E+02  0.45343525847E+00 -0.79925925224E+03  0.80459873588E+03  0.00000000000E+00 0.  1.
          4    1    1    2  502    0 -0.92126788806E+02  0.94889909467E+02  0.97007282963E+02  0.16401784379E+03  0.00000000000E+00 0.  1.
<mgrwt>
<rscale>  4 0.18527097E+03</rscale>
<asrwt>0</asrwt>
<pdfrwt beam="1">  1        2 0.19893513E+00 0.18527097E+03</pdfrwt>
<pdfrwt beam="2">  1        4 0.25432712E-01 0.18527097E+03</pdfrwt>
<totfact> 0.13825068E+02</totfact>
</mgrwt>
</event>
<event>
 5    0  0.1226227E+000  0.2576246E+03  0.7546771E-02  0.1108579E+00
         -2   -1    0    0    0  501 -0.00000000000E+00  0.00000000000E+00  0.20657282599E+03  0.20657282599E+03  0.00000000000E+00 0. -1.
          2   -1    0    0  502    0  0.00000000000E+00 -0.00000000000E+00 -0.19840409783E+04  0.19840409783E+04  0.00000000000E+00 0.  1.
         25    1    1    2    0    0  0.41494510450E+02  0.20262059830E+03 -0.35665477410E+03  0.43081844104E+03  0.12500000000E+03 0.  0.
          2    1    1    2  502    0 -0.96091555642E+02 -0.20944844620E+03 -0.15772342648E+04  0.15939793489E+04  0.00000000000E+00 0.  1.
         -2    1    1    2    0  501  0.54597045192E+02  0.68278479046E+01  0.15642088659E+03  0.16581601434E+03  0.00000000000E+00 0. -1.
<mgrwt>
<rscale>  4 0.25762456E+03</rscale>
<asrwt>0</asrwt>
<pdfrwt beam="1">  1        2 0.30523707E+00 0.25762456E+03</pdfrwt>
<pdfrwt beam="2">  1       -2 0.31780435E-01 0.25762456E+03</pdfrwt>
<totfact> 0.70755474E+01</totfact>
</mgrwt>
</event>
<event>
 5    0  0.1226227E+000  0.2065605E+03  0.7546771E-02  0.1144319E+00
          1   -1    0    0  501    0 -0.00000000000E+00  0.00000000000E+00  0.28120741795E+03  0.28120741795E+03  0.00000000000E+00 0. -1.
          2   -1    0    0  502    0  0.00000000000E+00 -0.00000000000E+00 -0.18555355775E+04  0.18555355775E+04  0.00000000000E+00 0.  1.
         25    1    1    2    0    0 -0.22186385246E+03  0.61752030273E+01 -0.28241632589E+03  0.38032313011E+03  0.12500000000E+03 0.  0.
          2    1    1    2  501    0  0.62590643183E+02 -0.18577634247E+02 -0.14958974684E+04  0.14973215931E+04  0.00000000000E+00 0.  1.
          1    1    1    2  502    0  0.15927320928E+03  0.12402431220E+02  0.20398563477E+03  0.25909827226E+03  0.00000000000E+00 0. -1.
<mgrwt>
<rscale>  4 0.20656053E+03</rscale>
<asrwt>0</asrwt>
<pdfrwt beam="1">  1        2 0.28546701E+00 0.20656053E+03</pdfrwt>
<pdfrwt beam="2">  1        1 0.43262680E-01 0.20656053E+03</pdfrwt>
<totfact> 0.11814356E+02</totfact>
</mgrwt>
</event>
<event>
 5    0  0.1226227E+000  0.3336289E+03  0.7546771E-02  0.1069542E+00
         -4   -1    0    0    0  501 -0.00000000000E+00  0.00000000000E+00  0.22400978681E+04  0.22400978681E+04  0.00000000000E+00 0.  1.
          2   -1    0    0  501    0  0.00000000000E+00 -0.00000000000E+00 -0.35918543882E+04  0.35918543882E+04  0.00000000000E+00 0.  1.
         25    1    1    2    0    0  0.25606969706E+03  0.13868956827E+03 -0.25876181269E+04  0.26069520626E+04  0.12500000000E+03 0.  0.
          2    1    1    2  502    0  0.29948960896E+02 -0.20676874146E+02 -0.98350071538E+03  0.98417383146E+03  0.00000000000E+00 0.  1.
         -4    1    1    2    0  502 -0.28601865796E+03 -0.11801269413E+03  0.22193623221E+04  0.22408263622E+04  0.00000000000E+00 0.  1.
<mgrwt>
<rscale>  4 0.33362895E+03</rscale>
<asrwt>0</asrwt>
<pdfrwt beam="1">  1        2 0.55259297E+00 0.33362895E+03</pdfrwt>
<pdfrwt beam="2">  1       -4 0.34463045E+00 0.33362895E+03</pdfrwt>
<totfact> 0.84965311E-03</totfact>
</mgrwt>
</event>
<event>
 5    0  0.1226227E+000  0.2363752E+03  0.7546771E-02  0.1122231E+00
          2   -1    0    0  501    0  0.00000000000E+00  0.00000000000E+00  0.17832618669E+04  0.17832618669E+04  0.00000000000E+00 0.  1.
         -4   -1    0    0    0  501 -0.00000000000E+00 -0.00000000000E+00 -0.27049560139E+03  0.27049560139E+03  0.00000000000E+00 0.  1.
         25    1    1    2    0    0  0.18589025978E+03 -0.91286222151E+02 -0.20629672274E+03  0.31791775799E+03  0.12500000000E+03 0.  0.
          2    1    1    2  502    0 -0.18937797795E+03  0.65863642672E+02  0.16504635158E+04  0.16625979235E+04  0.00000000000E+00 0.  1.
         -4    1    1    2    0  502  0.34877181764E+01  0.25422579479E+02  0.68599472433E+02  0.73241786868E+02  0.00000000000E+00 0.  1.
<mgrwt>
<rscale>  4 0.23637524E+03</rscale>
<asrwt>0</asrwt>
<pdfrwt beam="1">  1        2 0.27434797E+00 0.23637524E+03</pdfrwt>
<pdfrwt beam="2">  1       -4 0.41614709E-01 0.23637524E+03</pdfrwt>
<totfact> 0.29330715E+01</totfact>
</mgrwt>
</event>
<event>
 5    0  0.1226227E+000  0.3714441E+03  0.7546771E-02  0.1054142E+00
          1   -1    0    0  501    0 -0.00000000000E+00  0.00000000000E+00  0.34735000577E+03  0.34735000577E+03  0.00000000000E+00 0. -1.
          2   -1    0    0  502    0  0.00000000000E+00 -0.00000000000E+00 -0.13526435116E+04  0.13526435116E+04  0.00000000000E+00 0.  1.
         25    1    1    2    0    0  0.26757213939E+03 -0.25091401412E+03 -0.15232967224E+03  0.41639166815E+03  0.12500000000E+03 0.  0.
          2    1    1    2  501    0 -0.24052283407E+03  0.24905282933E+03 -0.10392214768E+04  0.10953811315E+04  0.00000000000E+00 0.  1.
          1    1    1    2  502    0 -0.27049305322E+02  0.18611847902E+01  0.18625764318E+03  0.18822071770E+03  0.00000000000E+00 0. -1.
<mgrwt>
<rscale>  4 0.37144413E+03</rscale>
<asrwt>0</asrwt>
<pdfrwt beam="1">  1        2 0.20809900E+00 0.37144413E+03</pdfrwt>
<pdfrwt beam="2">  1        1 0.53438463E-01 0.37144413E+03</pdfrwt>
<totfact> 0.15947808E+02</totfact>
</mgrwt>
</event>
<event>
 5    0  0.1226227E+000  0.1948869E+03  0.7546771E-02  0.1154126E+00
         -3   -1    0    0    0  501 -0.00000000000E+00  0.00000000000E+00  0.14470209527E+03  0.14470209527E+03  0.00000000000E+00 0.  1.
          2   -1    0    0  501    0  0.00000000000E+00 -0.00000000000E+00 -0.88735514316E+03  0.88735514316E+03  0.00000000000E+00 0. -1.
         25    1    1    2    0    0 -0.18331852752E+03  0.10408211302E+03 -0.21230287052E+03  0.32424724766E+03  0.12500000000E+03 0.  0.
          2    1    1    2  502    0  0.57715058442E+02 -0.48841079115E+02 -0.56194213104E+03  0.56700567688E+03  0.00000000000E+00 0. -1.
         -3    1    1    2    0  502  0.12560346907E+03 -0.55241033908E+02  0.31591953671E+02  0.14080431388E+03  0.00000000000E+00 0.  1.
<mgrwt>
<rscale>  4 0.19488687E+03</rscale>
<asrwt>0</asrwt>
<pdfrwt beam="1">  1        2 0.13651617E+00 0.19488687E+03</pdfrwt>
<pdfrwt beam="2">  1       -3 0.22261861E-01 0.19488687E+03</pdfrwt>
<totfact> 0.35875137E+02</totfact>
</mgrwt>
</event>
<event>
 5    0  0.1226227E+000  0.2993993E+03  0.7546771E-02  0.1085541E+00
          1   -1    0    0  502    0  0.00000000000E+00  0.00000000000E+00  0.51947597049E+03  0.51947597049E+03  0.00000000000E+00 0.  1.
         -1   -1    0    0    0  501 -0.00000000000E+00 -0.00000000000E+00 -0.32885902420E+03  0.32885902420E+03  0.00000000000E+00 0.  1.
         25    1    1    2    0    0  0.14541127662E+03 -0.21264292161E+03 -0.75426995965E+02  0.29610079905E+03  0.12500000000E+03 0.  0.
          1    1    1    2  502    0  0.42455600504E+02 -0.11775457291E+02  0.25560561675E+03  0.25937496163E+03  0.00000000000E+00 0.  1.
         -1    1    1    2    0  501 -0.18786687712E+03  0.22441837890E+03  0.10438325514E+02  0.29285923401E+03  0.00000000000E+00 0.  1.
<mgrwt>
<rscale>  4 0.29939926E+03</rscale>
<asrwt>0</asrwt>
<pdfrwt beam="1">  1        1 0.79919380E-01 0.29939926E+03</pdfrwt>
<pdfrwt beam="2">  1       -1 0.50593696E-01 0.29939926E+03</pdfrwt>
<totfact> 0.17353280E+02</totfact>
</mgrwt>
</event>
<event>
 5    0  0.1226227E+000  0.3051922E+03  0.7546771E-02  0.1082674E+00
          1   -1    0    0  502    0  0.00000000000E+00  0.00000000000E+00  0.71934500538E+03  0.71934500538E+03  0.00000000000E+00 0. -1.
          1   -1    0    0  501    0 -0.00000000000E+00 -0.00000000000E+00 -0.83928011884E+03  0.83928011884E+03  0.00000000000E+00 0. -1.
         25    1    1    2    0    0  0.18089018403E+02  0.30325901892E+03 -0.15253724777E+03  0.36219588223E+03  0.12500000000E+03 0.  0.
          1    1    1    2  501    0 -0.52658490340E+01 -0.27078684787E+03 -0.54984871664E+03  0.61293299579E+03  0.00000000000E+00 0. -1.
          1    1    1    2  502    0 -0.12823169369E+02 -0.32472171055E+02  0.58245085095E+03  0.58349624620E+03  0.00000000000E+00 0. -1.
<mgrwt>
<rscale>  4 0.30519219E+03</rscale>
<asrwt>0</asrwt>
<pdfrwt beam="1">  1        1 0.11066846E+00 0.30519219E+03</pdfrwt>
<pdfrwt beam="2">  1        1 0.12912002E+00 0.30519219E+03</pdfrwt>
<totfact> 0.69237917E+01</totfact>
</mgrwt>
</event>
<event>
 5    0  0.1226227E+000  0.2045540E+03  0.7546771E-02  0.1145953E+00
         -1   -1    0    0    0  501 -0.00000000000E+00  0.00000000000E+00  0.78953032929E+03  0.78953032929E+03  0.00000000000E+00 0.  1.
          1   -1    0    0  502    0  0.00000000000E+00 -0.00000000000E+00 -0.43336718625E+03  0.43336718625E+03  0.00000000000E+00 0. -1.
         25    1    1    2    0    0  0.14375505698E+03 -0.15271046826E+03  0.28308169501E+03  0.37382649662E+03  0.12500000000E+03 0.  0.
          1    1    1    2  502    0 -0.42984981465E+02  0.42758300441E+02 -0.37342454365E+03  0.37831451292E+03  0.00000000000E+00 0. -1.
         -1    1    1    2    0  501 -0.10077007552E+03  0.10995216782E+03  0.44650599169E+03  0.47075650600E+03  0.00000000000E+00 0.  1.
<mgrwt>
<rscale>  4 0.20455404E+03</rscale>
<asrwt>0</asrwt>
<pdfrwt beam="1">  1        1 0.66671875E-01 0.20455404E+03</pdfrwt>
<pdfrwt beam="2">  1       -1 0.12146620E+00 0.20455404E+03</pdfrwt>
<totfact> 0.36251060E+01</totfact>
</mgrwt>
</event>
<event>
 5    0  0.1226227E+000  0.3652636E+03  0.7546771E-02  0.1056519E+00
          2   -1    0    0  501    0  0.00000000000E+00  0.00000000000E+00  0.67444060550E+03  0.67444060550E+03  0.00000000000E+00 0.  1.
         -1   -1    0    0    0  501 -0.00000000000E+00 -0.00000000000E+00 -0.70330605959E+03  0.70330605959E+03  0.00000000000E+00 0.  1.
         25    1    1    2    0    0  0.27415023334E+03 -0.17972629833E+03  0.15338452212E+03  0.38289907858E+03  0.12500000000E+03 0.  0.
          2    1    1    2  502    0  0.22721927237E+02  0.16672774325E+01  0.35499797430E+03  0.35572830580E+03  0.00000000000E+00 0.  1.
         -1    1    1    2    0  502 -0.29687216058E+03  0.17805902090E+03 -0.53724795051E+03  0.63911928071E+03  0.00000000000E+00 0.  1.
<mgrwt>
<rscale>  4 0.36526357E+03</rscale>
<asrwt>0</asrwt>
<pdfrwt beam="1">  1        2 0.10376009E+00 0.36526357E+03</pdfrwt>
<pdfrwt beam="2">  1       -1 0.10820093E+00 0.36526357E+03</pdfrwt>
<totfact> 0.41802633E+01</totfact>
</mgrwt>
</event>
<event>
 5    0  0.1226227E+000  0.3463092E+03  0.7546771E-02  0.1064140E+00
          1   -1    0    0  501    0 -0.00000000000E+00  0.00000000000E+00  0.12763076516E+04  0.12763076516E+04  0.00000000000E+00 0. -1.
          2   -1    0    0  502    0  0.00000000000E+00 -0.00000000000E+00 -0.45834658407E+03  0.45834658407E+03  0.00000000000E+00 0. -1.
         25    1    1    2    0    0  0.29838161685E+03 -0.20468513408E+03 -0.21130419695E+03  0.43726657434E+03  0.12500000000E+03 0.  0.
          2    1    1    2  501    0 -0.17529933238E+02  0.50449075371E+02 -0.10550252077E+03  0.11825053765E+03  0.00000000000E+00 0. -1.
          1    1    1    2  502    0 -0.28085168361E+03  0.15423605871E+03  0.11347677853E+04  0.11791371237E+04  0.00000000000E+00 0. -1.
<mgrwt>
<rscale>  4 0.34630920E+03</rscale>
<asrwt>0</asrwt>
<pdfrwt beam="1">  1        2 0.70514860E-01 0.34630920E+03</pdfrwt>
<pdfrwt beam="2">  1        1 0.19635502E+00 0.34630920E+03</pdfrwt>
<totfact> 0.93437334E+01</totfact>
</mgrwt>
</event>
<event>
 5    0  0.1226227E+000  0.2667345E+03  0.7546771E-02  0.1103163E+00
          1   -1    0    0  502    0  0.00000000000E+00  0.00000000000E+00  0.48685654147E+03  0.48685654147E+03  0.00000000000E+00 0.  1.
          1   -1    0    0  501    0 -0.00000000000E+00 -0.00000000000E+00 -0.37877871233E+03  0.37877871233E+03  0.00000000000E+00 0.  1.
         25    1    1    2    0    0 -0.29039649849E+03  0.46415187326E+02 -0.13599697587E+03  0.34728183568E+03  0.12500000000E+03 0.  0.
          1    1    1    2  501    0  0.95268895014E+02 -0.76630605167E+02  0.29079144967E+03  0.31544901206E+03  0.00000000000E+00 0.  1.
          1    1    1    2  502    0  0.19512760347E+03  0.30215417842E+02 -0.46716644662E+02  0.20290440607E+03  0.00000000000E+00 0.  1.
<mgrwt>
<rscale>  4 0.26673454E+03</rscale>
<asrwt>0</asrwt>
<pdfrwt beam="1">  1        1 0.74901007E-01 0.26673454E+03</pdfrwt>
<pdfrwt beam="2">  1        1 0.58273648E-01 0.26673454E+03</pdfrwt>
<totfact> 0.36489704E+02</totfact>
</mgrwt>
</event>
<event>
 5    0  0.1226227E+000  0.2397747E+03  0.7546771E-02  0.1119943E+00
          2   -1    0    0  502    0  0.00000000000E+00  0.00000000000E+00  0.29426817085E+03  0.29426817085E+03  0.00000000000E+00 0. -1.
          1   -1    0    0  501    0 -0.00000000000E+00 -0.00000000000E+00 -0.53166736898E+03  0.53166736898E+03  0.00000000000E+00 0.  1.
         25    1    1    2    0    0  0.19438351004E+03  0.10374586636E+03 -0.18843576259E+03  0.31572328135E+03  0.12500000000E+03 0.  0.
          2    1    1    2  501    0 -0.13164301804E+02 -0.28057932697E+02  0.19475989779E+03  0.19721045666E+03  0.00000000000E+00 0. -1.
          1    1    1    2  502    0 -0.18121920824E+03 -0.75687933665E+02 -0.24372333333E+03  0.31300180183E+03  0.00000000000E+00 0.  1.
<mgrwt>
<rscale>  4 0.23977471E+03</rscale>
<asrwt>0</asrwt>
<pdfrwt beam="1">  1        2 0.45272027E-01 0.23977471E+03</pdfrwt>
<pdfrwt beam="2">  1        1 0.81794979E-01 0.23977471E+03</pdfrwt>
<totfact> 0.63349722E+02</totfact>
</mgrwt>
</event>
<event>
 5    0  0.1226227E+000  0.2095742E+03  0.7546771E-02  0.1141904E+00
          1   -1    0    0  501    0 -0.00000000000E+00  0.00000000000E+00  0.83471313057E+03  0.83471313057E+03  0.00000000000E+00 0. -1.
          2   -1    0    0  502    0  0.00000000000E+00 -0.00000000000E+00 -0.32537383517E+03  0.32537383517E+03  0.00000000000E+00 0. -1.
         25    1    1    2    0    0 -0.34455656325E+02  0.21127044864E+03  0.15587860264E+03  0.29282338274E+03  0.12500000000E+03 0.  0.
          2    1    1    2  501    0 -0.33147288963E+02 -0.64085794551E+02 -0.24077343888E+03  0.25135150825E+03  0.00000000000E+00 0. -1.
          1    1    1    2  502    0  0.67602945288E+02 -0.14718465409E+03  0.59423413164E+03  0.61591207475E+03  0.00000000000E+00 0. -1.
<mgrwt>
<rscale>  4 0.20957425E+03</rscale>
<asrwt>0</asrwt>
<pdfrwt beam="1">  1        2 0.50057513E-01 0.20957425E+03</pdfrwt>
<pdfrwt beam="2">  1        1 0.12841740E+00 0.20957425E+03</pdfrwt>
<totfact> 0.29859044E+02</totfact>
</mgrwt>
</event>
<event>
 5    0  0.1226227E+000  0.2289215E+03  0.7546771E-02  0.1127401E+00
          2   -1    0    0  502    0  0.00000000000E+00  0.00000000000E+00  0.79758334698E+03  0.79758334698E+03  0.00000000000E+00 0.  1.
          2   -1    0    0  501    0 -0.00000000000E+00 -0.00000000000E+00 -0.10555220124E+04  0.10555220124E+04  0.00000000000E+00 0. -1.
         25    1    1    2    0    0 -0.77528847436E+02  0.23476264319E+03  0.38213349722E+03  0.47199071020E+03  0.12500000000E+03 0.  0.
          2    1    1    2  501    0  0.36087667227E+02 -0.48685204592E+02  0.35896853006E+03  0.36404803865E+03  0.00000000000E+00 0.  1.
          2    1    1    2  502    0  0.41441180210E+02 -0.18607743860E+03 -0.99904069272E+03  0.10170666105E+04  0.00000000000E+00 0. -1.
<mgrwt>
<rscale>  4 0.22892150E+03</rscale>
<asrwt>0</asrwt>
<pdfrwt beam="1">  1        2 0.12270513E+00 0.22892150E+03</pdfrwt>
<pdfrwt beam="2">  1        2 0.16238800E+00 0.22892150E+03</pdfrwt>
<totfact> 0.13722805E+02</totfact>
</mgrwt>
</event>
<event>
 5    0  0.1226227E+000  0.2550753E+03  0.7546771E-02  0.1110139E+00
          1   -1    0    0  501    0 -0.00000000000E+00  0.00000000000E+00  0.35834665891E+03  0.35834665891E+03  0.00000000000E+00 0.  1.
          2   -1    0    0  502    0  0.00000000000E+00 -0.00000000000E+00 -0.86549609051E+03  0.86549609051E+03  0.00000000000E+00 0.  1.
         25    1    1    2    0    0  0.22766810236E+03  0.11599180755E+02 -0.34681074019E+03  0.43343972515E+03  0.12500000000E+03 0.  0.
          2    1    1    2  501    0 -0.21724499398E+03  0.43781524154E+02 -0.44664579002E+03  0.49860271862E+03  0.00000000000E+00 0.  1.
          1    1    1    2  502    0 -0.10423108376E+02 -0.55380704909E+02  0.28630709861E+03  0.29180030565E+03  0.00000000000E+00 0.  1.
<mgrwt>
<rscale>  4 0.25507525E+03</rscale>
<asrwt>0</asrwt>
<pdfrwt beam="1">  1        2 0.13315324E+00 0.25507525E+03</pdfrwt>
<pdfrwt beam="2">  1        1 0.55130255E-01 0.25507525E+03</pdfrwt>
<totfact> 0.30640417E+02</totfact>
</mgrwt>
</event>
<event>
 5    0  0.1226227E+000  0.2671714E+03  0.7546771E-02  0.1102909E+00
          2   -1    0    0  502    0  0.00000000000E+00  0.00000000000E+00  0.13734546518E+03  0.13734546518E+03  0.00000000000E+00 0. -1.
          2   -1    0    0  501    0 -0.00000000000E+00 -0.00000000000E+00 -0.34969533473E+04  0.34969533473E+04  0.00000000000E+00 0.  1.
         25    1    1    2    0    0  0.20314590092E+03 -0.17612494876E+03 -0.27195284705E+04  0.27356440478E+04  0.12500000000E+03 0.  0.
          2    1    1    2  501    0 -0.28376379072E+02  0.19258885680E+02 -0.66191110463E+03  0.66279893935E+03  0.00000000000E+00 0.  1.
          2    1    1    2  502    0 -0.17476952185E+03  0.15686606308E+03  0.21831692993E+02  0.23585582531E+03  0.00000000000E+00 0. -1.
<mgrwt>
<rscale>  4 0.26717144E+03</rscale>
<asrwt>0</asrwt>
<pdfrwt beam="1">  1        2 0.21130073E-01 0.26717144E+03</pdfrwt>
<pdfrwt beam="2">  1        2 0.53799277E+00 0.26717144E+03</pdfrwt>
<totfact> 0.41235048E+01</totfact>
</mgrwt>
</event>
<event>
 5    0  0.1226227E+000  0.3339717E+03  0.7546771E-02  0.1069393E+00
          1   -1    0    0  502    0  0.00000000000E+00  0.00000000000E+00  0.15332824430E+04  0.15332824430E+04  0.00000000000E+00 0.  1.
         -1   -1    0    0    0  501 -0.00000000000E+00 -0.00000000000E+00 -0.78558940256E+03  0.78558940256E+03  0.00000000000E+00 0.  1.
         25    1    1    2    0    0  0.13919942017E+03 -0.23273179901E+03  0.11990295779E+03  0.32177987528E+03  0.12500000000E+03 0.  0.
          1    1    1    2  502    0  0.29944627249E+02 -0.34277336711E+02  0.12755337339E+04  0.12763455342E+04  0.00000000000E+00 0.  1.
         -1    1    1    2    0  501 -0.16914404742E+03  0.26700913572E+03 -0.64774365124E+03  0.72074643603E+03  0.00000000000E+00 0.  1.
<mgrwt>
<rscale>  4 0.33397172E+03</rscale>
<asrwt>0</asrwt>
<pdfrwt beam="1">  1        1 0.23588961E+00 0.33397172E+03</pdfrwt>
<pdfrwt beam="2">  1       -1 0.12085991E+00 0.33397172E+03</pdfrwt>
<totfact> 0.43864609E+00</totfact>
</mgrwt>
</event>
<event>
 5    0  0.1226227E+000  0.2589877E+03  0.7546771E-02  0.1107753E+00
          2   -1    0    0  502    0  0.00000000000E+00  0.00000000000E+00  0.27299587453E+04  0.27299587453E+04  0.00000000000E+00 0. -1.
          1   -1    0    0  501    0 -0.00000000000E+00 -0.00000000000E+00 -0.74305096003E+03  0.74305096003E+03  0.00000000000E+00 0. -1.
         25    1    1    2    0    0 -0.18711746293E+03 -0.14106279753E+03 -0.35744965932E+03  0.44531664771E+03  0.12500000000E+03 0.  0.
          2    1    1    2  501    0  0.15615972115E+03  0.16443907221E+03  0.26801200695E+04  0.26896969447E+04  0.00000000000E+00 0. -1.
          1    1    1    2  502    0  0.30957741783E+02 -0.23376274687E+02 -0.33576262500E+03  0.33799611291E+03  0.00000000000E+00 0. -1.
<mgrwt>
<rscale>  4 0.25898770E+03</rscale>
<asrwt>0</asrwt>
<pdfrwt beam="1">  1        2 0.41999365E+00 0.25898770E+03</pdfrwt>
<pdfrwt beam="2">  1        1 0.11431553E+00 0.25898770E+03</pdfrwt>
<totfact> 0.10706128E+01</totfact>
</mgrwt>
</event>
<event>
 5    0  0.1226227E+000  0.3183352E+03  0.7546771E-02  0.1076418E+00
          1   -1    0    0  501    0 -0.00000000000E+00  0.00000000000E+00  0.32967674284E+03  0.32967674284E+03  0.00000000000E+00 0. -1.
          2   -1    0    0  502    0  0.00000000000E+00 -0.00000000000E+00 -0.16337630848E+04  0.16337630848E+04  0.00000000000E+00 0.  1.
         25    1    1    2    0    0 -0.23116933500E+03  0.15309662261E+02 -0.42350792194E+03  0.49865580028E+03  0.12500000000E+03 0.  0.
          2    1    1    2  501    0  0.32432243475E+03 -0.74952940719E+02 -0.11374250868E+04  0.11851324032E+04  0.00000000000E+00 0.  1.
          1    1    1    2  502    0 -0.93153099747E+02  0.59643278459E+02  0.25684666679E+03  0.27965162417E+03  0.00000000000E+00 0. -1.
<mgrwt>
<rscale>  4 0.31833524E+03</rscale>
<asrwt>0</asrwt>
<pdfrwt beam="1">  1        2 0.25134816E+00 0.31833524E+03</pdfrwt>
<pdfrwt beam="2">  1        1 0.50719500E-01 0.31833524E+03</pdfrwt>
<totfact> 0.12151799E+02</totfact>
</mgrwt>
</event>
<event>
 5    0  0.1226227E+000  0.2835290E+03  0.7546771E-02  0.1093777E+00
         -1   -1    0    0    0  501 -0.00000000000E+00  0.00000000000E+00  0.47285676034E+03  0.47285676034E+03  0.00000000000E+00 0.  1.
          1   -1    0    0  502    0  0.00000000000E+00 -0.00000000000E+00 -0.85770766329E+03  0.85770766329E+03  0.00000000000E+00 0. -1.
         25    1    1    2    0    0  0.12110043529E+03 -0.19160431525E+03 -0.72393121964E+03  0.76881658399E+03  0.12500000000E+03 0.  0.
          1    1    1    2  502    0  0.21455430901E+02 -0.20855925663E+02 -0.71762466866E+02  0.77750606436E+02  0.00000000000E+00 0. -1.
         -1    1    1    2    0  501 -0.14255586619E+03  0.21246024091E+03  0.41084278356E+03  0.48399723321E+03  0.00000000000E+00 0.  1.
<mgrwt>
<rscale>  4 0.28352900E+03</rscale>
<asrwt>0</asrwt>
<pdfrwt beam="1">  1        1 0.13195502E+00 0.28352900E+03</pdfrwt>
<pdfrwt beam="2">  1       -1 0.72747195E-01 0.28352900E+03</pdfrwt>
<totfact> 0.41489502E+01</totfact>
</mgrwt>
</event>
<event>
 5    0  0.1226227E+000  0.5149654E+03  0.7546771E-02  0.1009945E+00
          2   -1    0    0  501    0  0.00000000000E+00  0.00000000000E+00  0.70208057016E+03  0.70208057016E+03  0.00000000000E+00 0. -1.
         -1   -1    0    0    0  501 -0.00000000000E+00 -0.00000000000E+00 -0.87805479273E+03  0.87805479273E+03  0.00000000000E+00 0.  1.
         25    1    1    2    0    0 -0.49986353104E+03 -0.23474600621E+03 -0.46601994656E+03  0.73332723097E+03  0.12500000000E+03 0.  0.
          2    1    1    2  502    0  0.45580220730E+03  0.18070111644E+03  0.45426054880E+03  0.66840196877E+03  0.00000000000E+00 0. -1.
         -1    1    1    2    0  502  0.44061323736E+02  0.54044889767E+02 -0.16421482481E+03  0.17840616314E+03  0.00000000000E+00 0.  1.
<mgrwt>
<rscale>  4 0.51496540E+03</rscale>
<asrwt>0</asrwt>
<pdfrwt beam="1">  1        2 0.10801240E+00 0.51496540E+03</pdfrwt>
<pdfrwt beam="2">  1       -1 0.13508535E+00 0.51496540E+03</pdfrwt>
<totfact> 0.22626942E+01</totfact>
</mgrwt>
</event>
<event>
 5    0  0.1226227E+000  0.3471400E+03  0.7546771E-02  0.1063795E+00
          1   -1    0    0  502    0  0.00000000000E+00  0.00000000000E+00  0.45456127229E+03  0.45456127229E+03  0.00000000000E+00 0.  1.
          1   -1    0    0  501    0 -0.00000000000E+00 -0.00000000000E+00 -0.92154837266E+03  0.92154837266E+03  0.00000000000E+00 0.  1.
         25    1    1    2    0    0 -0.26275423495E+03 -0.25428147653E+03  0.19066607489E+02  0.38689454999E+03  0.12500000000E+03 0.  0.
          1    1    1    2  501    0  0.23410025152E+01  0.72770779389E+02  0.21104254822E+03  0.22324879347E+03  0.00000000000E+00 0.  1.
          1    1    1    2  502    0  0.26041323243E+03  0.18151069714E+03 -0.69709625608E+03  0.76596630150E+03  0.00000000000E+00 0.  1.
<mgrwt>
<rscale>  4 0.34713995E+03</rscale>
<asrwt>0</asrwt>
<pdfrwt beam="1">  1        1 0.69932504E-01 0.34713995E+03</pdfrwt>
<pdfrwt beam="2">  1        1 0.14177667E+00 0.34713995E+03</pdfrwt>
<totfact> 0.11145819E+02</totfact>
</mgrwt>
</event>
<event>
 5    0  0.1226227E+000  0.2962770E+03  0.7546771E-02  0.1087117E+00
          2   -1    0    0  502    0  0.00000000000E+00  0.00000000000E+00  0.12446363732E+04  0.12446363732E+04  0.00000000000E+00 0. -1.
         -2   -1    0    0    0  501 -0.00000000000E+00 -0.00000000000E+00 -0.13306661341E+03  0.13306661341E+03  0.00000000000E+00 0. -1.
         25    1    1    2    0    0 -0.20689022324E+03 -0.19075921118E+03  0.17071032360E+03  0.35207904753E+03  0.12500000000E+03 0.  0.
          2    1    1    2  502    0  0.35622112428E+01  0.43355169210E+02  0.60342409977E+03  0.60499008606E+03  0.00000000000E+00 0. -1.
         -2    1    1    2    0  501  0.20332801200E+03  0.14740404197E+03  0.33743533644E+03  0.42063385305E+03  0.00000000000E+00 0. -1.
<mgrwt>
<rscale>  4 0.29627701E+03</rscale>
<asrwt>0</asrwt>
<pdfrwt beam="1">  1        2 0.19148251E+00 0.29627701E+03</pdfrwt>
<pdfrwt beam="2">  1       -2 0.20471788E-01 0.29627701E+03</pdfrwt>
<totfact> 0.38168829E+02</totfact>
</mgrwt>
</event>
<event>
 5    0  0.1226227E+000  0.3900974E+03  0.7546771E-02  0.1047264E+00
          1   -1    0    0  501    0 -0.00000000000E+00  0.00000000000E+00  0.40904436538E+03  0.40904436538E+03  0.00000000000E+00 0.  1.
          2   -1    0    0  502    0  0.00000000000E+00 -0.00000000000E+00 -0.74022567038E+03  0.74022567038E+03  0.00000000000E+00 0. -1.
         25    1    1    2    0    0 -0.35365301599E+03  0.71332814865E+02 -0.38754907642E+03  0.54403870527E+03  0.12500000000E+03 0.  0.
          2    1    1    2  501    0 -0.19081981560E+02 -0.11322494242E+03 -0.14063997383E+03  0.18155883853E+03  0.00000000000E+00 0. -1.
          1    1    1    2  502    0  0.37273499755E+03  0.41892127555E+02  0.19700774526E+03  0.42367249196E+03  0.00000000000E+00 0.  1.
<mgrwt>
<rscale>  4 0.39009742E+03</rscale>
<asrwt>0</asrwt>
<pdfrwt beam="1">  1        2 0.11388087E+00 0.39009742E+03</pdfrwt>
<pdfrwt beam="2">  1        1 0.62929902E-01 0.39009742E+03</pdfrwt>
<totfact> 0.30929948E+02</totfact>
</mgrwt>
</event>
<event>
 5    0  0.1226227E+000  0.3074326E+03  0.7546771E-02  0.1081583E+00
          4   -1    0    0  501    0 -0.00000000000E+00  0.00000000000E+00  0.11786667606E+03  0.11786667606E+03  0.00000000000E+00 0.  1.
          2   -1    0    0  502    0  0.00000000000E+00 -0.00000000000E+00 -0.14182507545E+04  0.14182507545E+04  0.00000000000E+00 0.  1.
         25    1    1    2    0    0  0.12271238940E+03 -0.23232550808E+03 -0.53737248198E+03  0.61108727413E+03  0.12500000000E+03 0.  0.
          2    1    1    2  501    0 -0.16484548260E+03  0.24379131074E+03 -0.80944923143E+03  0.86128757949E+03  0.00000000000E+00 0.  1.
          4    1    1    2  502    0  0.42133093206E+02 -0.11465802666E+02  0.46437634966E+02  0.63742576941E+02  0.00000000000E+00 0.  1.
<mgrwt>
<rscale>  4 0.30743256E+03</rscale>
<asrwt>0</asrwt>
<pdfrwt beam="1">  1        2 0.21819242E+00 0.30743256E+03</pdfrwt>
<pdfrwt beam="2">  1        4 0.18133335E-01 0.30743256E+03</pdfrwt>
<totfact> 0.22122676E+02</totfact>
</mgrwt>
</event>
