<event>
 5    0  0.1014204E+000  0.2597077E+03  0.7546771E-02  0.1107319E+00
          2   -1    0    0  503    0 -0.00000000000E+00  0.00000000000E+00  0.16160267691E+04  0.16160267691E+04  0.00000000000E+00 0.  1.
         21   -1    0    0  501  502  0.00000000000E+00 -0.00000000000E+00 -0.60765817692E+02  0.60765817692E+02  0.00000000000E+00 0.  1.
         25    1    1    2    0    0  0.22577997130E+03 -0.34725448981E+02  0.29994934995E+03  0.39721161210E+03  0.12500000000E+03 0.  0.
         21    1    1    2  503  502 -0.41836960918E+00  0.20386211418E+02  0.15505340747E+03  0.15638840052E+03  0.00000000000E+00 0. -1.
          2    1    1    2  501    0 -0.22536160169E+03  0.14339237563E+02  0.11002581940E+04  0.11231925742E+04  0.00000000000E+00 0.  1.
<mgrwt>
<rscale>  4 0.25970768E+03</rscale>
<asrwt>0</asrwt>
<pdfrwt beam="1">  1       21 0.93485886E-02 0.25970768E+03</pdfrwt>
<pdfrwt beam="2">  1        2 0.24861947E+00 0.25970768E+03</pdfrwt>
<totfact> 0.13647202E+04</totfact>
</mgrwt>
</event>
<event>
 5    0  0.1014204E+000  0.2884003E+03  0.7546771E-02  0.1091187E+00
         21   -1    0    0  501  502  0.00000000000E+00  0.00000000000E+00  0.11477697553E+03  0.11477697553E+03  0.00000000000E+00 0.  1.
          1   -1    0    0  503    0 -0.00000000000E+00 -0.00000000000E+00 -0.90940929395E+03  0.90940929395E+03  0.00000000000E+00 0.  1.
         25    1    1    2    0    0 -0.25144429380E+03  0.65768378844E+02 -0.14377117208E+03  0.32224968962E+03  0.12500000000E+03 0.  0.
         21    1    1    2  503  502  0.20580209413E+02  0.14751135740E+01 -0.77390446358E+02  0.80093708661E+02  0.00000000000E+00 0.  1.
          1    1    1    2  501    0  0.23086408438E+03 -0.67243492418E+02 -0.57347069998E+03  0.62184287120E+03  0.00000000000E+00 0.  1.
<mgrwt>
<rscale>  4 0.28840026E+03</rscale>
<asrwt>0</asrwt>
<pdfrwt beam="1">  1       21 0.17657996E-01 0.28840026E+03</pdfrwt>
<pdfrwt beam="2">  1        1 0.13990913E+00 0.28840026E+03</pdfrwt>
<totfact> 0.59532173E+03</totfact>
</mgrwt>
</event>
<event>
 5    0  0.1014204E+000  0.3453753E+03  0.7546771E-02  0.1064529E+00
         -1   -1    0    0    0  501 -0.00000000000E+00  0.00000000000E+00  0.17832391138E+04  0.17832391138E+04  0.00000000000E+00 0. -1.
         21   -1    0    0  503  502  0.00000000000E+00 -0.00000000000E+00 -0.80362994271E+02  0.80362994271E+02  0.00000000000E+00 0.  1.
         25    1    1    2    0    0  0.12263842258E+03  0.29557789229E+03  0.52863795140E+03  0.63046772857E+03  0.12500000000E+03 0.  0.
         21    1    1    2  503  501  0.43172417158E+02 -0.13455164540E+02  0.21214719677E+03  0.21691319037E+03  0.00000000000E+00 0. -1.
         -1    1    1    2    0  502 -0.16581083974E+03 -0.28212272775E+03  0.96209097138E+03  0.10162211892E+04  0.00000000000E+00 0. -1.
<mgrwt>
<rscale>  4 0.34537531E+03</rscale>
<asrwt>0</asrwt>
<pdfrwt beam="1">  1       21 0.12363539E-01 0.34537531E+03</pdfrwt>
<pdfrwt beam="2">  1       -1 0.27434445E+00 0.34537531E+03</pdfrwt>
<totfact> 0.28020803E+02</totfact>
</mgrwt>
</event>
<event>
 5    0  0.1014204E+000  0.3014147E+03  0.7546771E-02  0.1084536E+00
         21   -1    0    0  501  502  0.00000000000E+00  0.00000000000E+00  0.11867604935E+04  0.11867604935E+04  0.00000000000E+00 0. -1.
          3   -1    0    0  503    0 -0.00000000000E+00 -0.00000000000E+00 -0.26381241987E+03  0.26381241987E+03  0.00000000000E+00 0. -1.
         25    1    1    2    0    0  0.21855046743E+03  0.19005581516E+03  0.99486159872E+03  0.10436762526E+04  0.12500000000E+03 0.  0.
         21    1    1    2  503  502  0.98588835862E+01 -0.14216861632E+03 -0.96682036743E+02  0.17221071186E+03  0.00000000000E+00 0. -1.
          3    1    1    2  501    0 -0.22840935102E+03 -0.47887198845E+02  0.24768511693E+02  0.23468594892E+03  0.00000000000E+00 0. -1.
<mgrwt>
<rscale>  4 0.30141471E+03</rscale>
<asrwt>0</asrwt>
<pdfrwt beam="1">  1       21 0.18257853E+00 0.30141471E+03</pdfrwt>
<pdfrwt beam="2">  1        3 0.40586527E-01 0.30141471E+03</pdfrwt>
<totfact> 0.49339058E+01</totfact>
</mgrwt>
</event>
<event>
 5    0  0.1014204E+000  0.2500355E+03  0.7546771E-02  0.1113282E+00
         21   -1    0    0  501  502  0.00000000000E+00  0.00000000000E+00  0.12097425054E+03  0.12097425054E+03  0.00000000000E+00 0.  1.
          2   -1    0    0  503    0 -0.00000000000E+00 -0.00000000000E+00 -0.17166914395E+04  0.17166914395E+04  0.00000000000E+00 0.  1.
         25    1    1    2    0    0 -0.10995599044E+03  0.17789941728E+03 -0.51579975951E+02  0.24904621343E+03  0.12500000000E+03 0.  0.
         21    1    1    2  503  502 -0.53207690712E+02  0.55142008860E+02 -0.18898811270E+03  0.20393186664E+03  0.00000000000E+00 0. -1.
          2    1    1    2  501    0  0.16316368115E+03 -0.23304142614E+03 -0.13551491004E+04  0.13846876100E+04  0.00000000000E+00 0.  1.
<mgrwt>
<rscale>  4 0.25003548E+03</rscale>
<asrwt>0</asrwt>
<pdfrwt beam="1">  1       21 0.18611422E-01 0.25003548E+03</pdfrwt>
<pdfrwt beam="2">  1        2 0.26410639E+00 0.25003548E+03</pdfrwt>
<totfact> 0.34720457E+03</totfact>
</mgrwt>
</event>
<event>
 5    0  0.1014204E+000  0.4702289E+03  0.7546771E-02  0.1021856E+00
         21   -1    0    0  501  502  0.00000000000E+00  0.00000000000E+00  0.10336630619E+04  0.10336630619E+04  0.00000000000E+00 0.  1.
          1   -1    0    0  503    0 -0.00000000000E+00 -0.00000000000E+00 -0.24500067428E+03  0.24500067428E+03  0.00000000000E+00 0.  1.
         25    1    1    2    0    0  0.33873430195E+03 -0.30795425863E+03  0.27001757696E+03  0.54599564521E+03  0.12500000000E+03 0.  0.
         21    1    1    2  503  502  0.30694525725E+02  0.47803879831E+02  0.21163790535E+02  0.60624012291E+02  0.00000000000E+00 0. -1.
          1    1    1    2  501    0 -0.36942882767E+03  0.26015037880E+03  0.49748102012E+03  0.67204407868E+03  0.00000000000E+00 0.  1.
<mgrwt>
<rscale>  4 0.47022893E+03</rscale>
<asrwt>0</asrwt>
<pdfrwt beam="1">  1       21 0.15902508E+00 0.47022893E+03</pdfrwt>
<pdfrwt beam="2">  1        1 0.37692412E-01 0.47022893E+03</pdfrwt>
<totfact> 0.27871637E+02</totfact>
</mgrwt>
</event>
<event>
 5    0  0.1014204E+000  0.3842284E+03  0.7546771E-02  0.1049382E+00
         21   -1    0    0  501  502  0.00000000000E+00  0.00000000000E+00  0.11867556082E+03  0.11867556082E+03  0.00000000000E+00 0.  1.
          2   -1    0    0  503    0 -0.00000000000E+00 -0.00000000000E+00 -0.13241078693E+04  0.13241078693E+04  0.00000000000E+00 0. -1.
         25    1    1    2    0    0 -0.36950737471E+03  0.67164452725E+01 -0.50154447113E+03  0.63541535009E+03  0.12500000000E+03 0.  0.
         21    1    1    2  503  502  0.14315699470E+02  0.27905264842E+02 -0.11113080468E+03  0.11547163637E+03  0.00000000000E+00 0.  1.
          2    1    1    2  501    0  0.35519167524E+03 -0.34621710114E+02 -0.59275703263E+03  0.69189644363E+03  0.00000000000E+00 0. -1.
<mgrwt>
<rscale>  4 0.38422844E+03</rscale>
<asrwt>0</asrwt>
<pdfrwt beam="1">  1       21 0.18257778E-01 0.38422844E+03</pdfrwt>
<pdfrwt beam="2">  1        2 0.20370891E+00 0.38422844E+03</pdfrwt>
<totfact> 0.56303074E+03</totfact>
</mgrwt>
</event>
<event>
 5    0  0.1014204E+000  0.2866008E+03  0.7546771E-02  0.1092137E+00
         21   -1    0    0  501  502  0.00000000000E+00  0.00000000000E+00  0.12037485639E+03  0.12037485639E+03  0.00000000000E+00 0. -1.
          1   -1    0    0  503    0 -0.00000000000E+00 -0.00000000000E+00 -0.74790354466E+03  0.74790354466E+03  0.00000000000E+00 0. -1.
         25    1    1    2    0    0  0.24299377474E+03 -0.80457636423E+02 -0.18884791829E+03  0.34177176896E+03  0.12500000000E+03 0.  0.
         21    1    1    2  503  502  0.12819520496E+02  0.24602064839E+02 -0.60154182822E+02  0.66242942349E+02  0.00000000000E+00 0. -1.
          1    1    1    2  501    0 -0.25581329523E+03  0.55855571584E+02 -0.37852658717E+03  0.46026368973E+03  0.00000000000E+00 0. -1.
<mgrwt>
<rscale>  4 0.28660082E+03</rscale>
<asrwt>0</asrwt>
<pdfrwt beam="1">  1       21 0.18519208E-01 0.28660082E+03</pdfrwt>
<pdfrwt beam="2">  1        1 0.11506208E+00 0.28660082E+03</pdfrwt>
<totfact> 0.74088033E+03</totfact>
</mgrwt>
</event>
<event>
 5    0  0.1014204E+000  0.2584452E+03  0.7546771E-02  0.1108081E+00
          2   -1    0    0  503    0 -0.00000000000E+00  0.00000000000E+00  0.41250190720E+03  0.41250190720E+03  0.00000000000E+00 0.  1.
         21   -1    0    0  501  502  0.00000000000E+00 -0.00000000000E+00 -0.35808635933E+03  0.35808635933E+03  0.00000000000E+00 0.  1.
         25    1    1    2    0    0  0.13894846648E+03  0.18150711025E+03 -0.24772332728E+03  0.35950431748E+03  0.12500000000E+03 0.  0.
         21    1    1    2  503  502 -0.54004121735E+02  0.21896491418E+02  0.66323220466E+02  0.88287434404E+02  0.00000000000E+00 0.  1.
          2    1    1    2  501    0 -0.84944344744E+02 -0.20340360166E+03  0.23581565468E+03  0.32279651465E+03  0.00000000000E+00 0.  1.
<mgrwt>
<rscale>  4 0.25844522E+03</rscale>
<asrwt>0</asrwt>
<pdfrwt beam="1">  1       21 0.55090209E-01 0.25844522E+03</pdfrwt>
<pdfrwt beam="2">  1        2 0.63461832E-01 0.25844522E+03</pdfrwt>
<totfact> 0.29248349E+03</totfact>
</mgrwt>
</event>
<event>
 5    0  0.1014204E+000  0.2734101E+03  0.7546771E-02  0.1099344E+00
          2   -1    0    0  503    0 -0.00000000000E+00  0.00000000000E+00  0.43402643641E+03  0.43402643641E+03  0.00000000000E+00 0. -1.
         21   -1    0    0  501  502  0.00000000000E+00 -0.00000000000E+00 -0.24849688542E+03  0.24849688542E+03  0.00000000000E+00 0. -1.
         25    1    1    2    0    0 -0.56711557972E+02  0.26517721031E+03 -0.36515776922E+02  0.30082146805E+03  0.12500000000E+03 0.  0.
         21    1    1    2  503  502 -0.79405681358E+01 -0.21144261059E+03  0.10134370760E+03  0.23460941428E+03  0.00000000000E+00 0. -1.
          2    1    1    2  501    0  0.64652126108E+02 -0.53734599712E+02  0.12070162030E+03  0.14709243951E+03  0.00000000000E+00 0. -1.
<mgrwt>
<rscale>  4 0.27341012E+03</rscale>
<asrwt>0</asrwt>
<pdfrwt beam="1">  1       21 0.38230290E-01 0.27341012E+03</pdfrwt>
<pdfrwt beam="2">  1        2 0.66773298E-01 0.27341012E+03</pdfrwt>
<totfact> 0.58827252E+03</totfact>
</mgrwt>
</event>
<event>
 5    0  0.1014204E+000  0.2625776E+03  0.7546771E-02  0.1105604E+00
         21   -1    0    0  501  502  0.00000000000E+00  0.00000000000E+00  0.32776087810E+03  0.32776087810E+03  0.00000000000E+00 0.  1.
          2   -1    0    0  503    0 -0.00000000000E+00 -0.00000000000E+00 -0.95311263871E+03  0.95311263871E+03  0.00000000000E+00 0.  1.
         25    1    1    2    0    0 -0.19120485690E+02 -0.23080909667E+03  0.25216394884E+03  0.36448606170E+03  0.12500000000E+03 0.  0.
         21    1    1    2  503  502 -0.35050068242E+02  0.13631304934E+02 -0.86693027215E+02  0.94498681079E+02  0.00000000000E+00 0. -1.
          2    1    1    2  501    0  0.54170553932E+02  0.21717779173E+03 -0.79082268224E+03  0.82188877403E+03  0.00000000000E+00 0.  1.
<mgrwt>
<rscale>  4 0.26257757E+03</rscale>
<asrwt>0</asrwt>
<pdfrwt beam="1">  1       21 0.50424751E-01 0.26257757E+03</pdfrwt>
<pdfrwt beam="2">  1        2 0.14663271E+00 0.26257757E+03</pdfrwt>
<totfact> 0.12908241E+03</totfact>
</mgrwt>
</event>
<event>
 5    0  0.1014204E+000  0.2634481E+03  0.7546771E-02  0.1105089E+00
         21   -1    0    0  503  502  0.00000000000E+00  0.00000000000E+00  0.60239786573E+03  0.60239786573E+03  0.00000000000E+00 0.  1.
         -3   -1    0    0    0  501 -0.00000000000E+00 -0.00000000000E+00 -0.12393259222E+03  0.12393259222E+03  0.00000000000E+00 0.  1.
         25    1    1    2    0    0 -0.21757532632E+03  0.10176973195E+03  0.18869707947E+03  0.33004195001E+03  0.12500000000E+03 0.  0.
         21    1    1    2  503  501  0.23766700881E+00 -0.33160100104E+02  0.84232236195E+01  0.34214023743E+02  0.00000000000E+00 0.  1.
         -3    1    1    2    0  502  0.21733765931E+03 -0.68609631842E+02  0.28134497042E+03  0.36207448421E+03  0.00000000000E+00 0.  1.
<mgrwt>
<rscale>  4 0.26344814E+03</rscale>
<asrwt>0</asrwt>
<pdfrwt beam="1">  1       21 0.92676593E-01 0.26344814E+03</pdfrwt>
<pdfrwt beam="2">  1       -3 0.19066553E-01 0.26344814E+03</pdfrwt>
<totfact> 0.11698277E+03</totfact>
</mgrwt>
</event>
<event>
 5    0  0.1014204E+000  0.4461662E+03  0.7546771E-02  0.1028872E+00
         -1   -1    0    0    0  501 -0.00000000000E+00  0.00000000000E+00  0.38989486765E+03  0.38989486765E+03  0.00000000000E+00 0. -1.
         21   -1    0    0  503  502  0.00000000000E+00 -0.00000000000E+00 -0.75579005315E+03  0.75579005315E+03  0.00000000000E+00 0. -1.
         25    1    1    2    0    0  0.27527315502E+03 -0.30479181628E+03  0.61727202386E+02  0.43371489329E+03  0.12500000000E+03 0.  0.
         21    1    1    2  503  501  0.25587436968E+02 -0.83583304737E+01  0.55914291120E+02  0.62056317731E+02  0.00000000000E+00 0.  1.
         -1    1    1    2    0  502 -0.30086059199E+03  0.31315014675E+03 -0.48353667900E+03  0.64991370978E+03  0.00000000000E+00 0. -1.
<mgrwt>
<rscale>  4 0.44616625E+03</rscale>
<asrwt>0</asrwt>
<pdfrwt beam="1">  1       21 0.11627539E+00 0.44616625E+03</pdfrwt>
<pdfrwt beam="2">  1       -1 0.59983826E-01 0.44616625E+03</pdfrwt>
<totfact> 0.13780103E+02</totfact>
</mgrwt>
</event>
<event>
 5    0  0.1014204E+000  0.2556244E+03  0.7546771E-02  0.1109801E+00
         21   -1    0    0  501  502  0.00000000000E+00  0.00000000000E+00  0.24183451118E+04  0.24183451118E+04  0.00000000000E+00 0. -1.
          3   -1    0    0  503    0 -0.00000000000E+00 -0.00000000000E+00 -0.76126135393E+02  0.76126135393E+02  0.00000000000E+00 0.  1.
         25    1    1    2    0    0 -0.53127844217E+02  0.21515363819E+03  0.21231982714E+04  0.21383894770E+04  0.12500000000E+03 0.  0.
         21    1    1    2  503  502 -0.29768788875E+02  0.59495055215E+01  0.71444848523E+02  0.77626952713E+02  0.00000000000E+00 0. -1.
          3    1    1    2  501    0  0.82896633092E+02 -0.22110314371E+03  0.14757585649E+03  0.27845481744E+03  0.00000000000E+00 0.  1.
<mgrwt>
<rscale>  4 0.25562440E+03</rscale>
<asrwt>0</asrwt>
<pdfrwt beam="1">  1       21 0.37205304E+00 0.25562440E+03</pdfrwt>
<pdfrwt beam="2">  1        3 0.11711715E-01 0.25562440E+03</pdfrwt>
<totfact> 0.33919885E+01</totfact>
</mgrwt>
</event>
<event>
 5    0  0.1014204E+000  0.3593894E+03  0.7546771E-02  0.1058826E+00
          1   -1    0    0  503    0 -0.00000000000E+00  0.00000000000E+00  0.20231700367E+04  0.20231700367E+04  0.00000000000E+00 0. -1.
         21   -1    0    0  501  502  0.00000000000E+00 -0.00000000000E+00 -0.13887243206E+03  0.13887243206E+03  0.00000000000E+00 0. -1.
         25    1    1    2    0    0  0.39897915961E+02  0.34640320497E+03  0.21172405531E+03  0.42666040325E+03  0.12500000000E+03 0.  0.
         21    1    1    2  503  502  0.39811204669E-01 -0.40318151624E+02  0.93437509274E+03  0.93524455030E+03  0.00000000000E+00 0. -1.
          1    1    1    2  501    0 -0.39937727166E+02 -0.30608505334E+03  0.73819845664E+03  0.80013751525E+03  0.00000000000E+00 0. -1.
<mgrwt>
<rscale>  4 0.35938939E+03</rscale>
<asrwt>0</asrwt>
<pdfrwt beam="1">  1       21 0.21364991E-01 0.35938939E+03</pdfrwt>
<pdfrwt beam="2">  1        1 0.31125691E+00 0.35938939E+03</pdfrwt>
<totfact> 0.69944794E+02</totfact>
</mgrwt>
</event>
<event>
 5    0  0.1014204E+000  0.2455067E+03  0.7546771E-02  0.1116178E+00
          1   -1    0    0  503    0 -0.00000000000E+00  0.00000000000E+00  0.18722028003E+04  0.18722028003E+04  0.00000000000E+00 0.  1.
         21   -1    0    0  501  502  0.00000000000E+00 -0.00000000000E+00 -0.16451156102E+03  0.16451156102E+03  0.00000000000E+00 0.  1.
         25    1    1    2    0    0  0.18650709155E+03 -0.97882817218E+02 -0.59839955826E+02  0.25213441141E+03  0.12500000000E+03 0.  0.
         21    1    1    2  503  502  0.19490075726E+02  0.11798149241E+02  0.17368855354E+03  0.17517640540E+03  0.00000000000E+00 0.  1.
          1    1    1    2  501    0 -0.20599716728E+03  0.86084667977E+02  0.15938426416E+04  0.16094035445E+04  0.00000000000E+00 0.  1.
<mgrwt>
<rscale>  4 0.24550666E+03</rscale>
<asrwt>0</asrwt>
<pdfrwt beam="1">  1       21 0.25309472E-01 0.24550666E+03</pdfrwt>
<pdfrwt beam="2">  1        1 0.28803119E+00 0.24550666E+03</pdfrwt>
<totfact> 0.66779602E+02</totfact>
</mgrwt>
</event>
<event>
 5    0  0.1014204E+000  0.2302276E+03  0.7546771E-02  0.1126480E+00
          1   -1    0    0  503    0 -0.00000000000E+00  0.00000000000E+00  0.11693818045E+04  0.11693818045E+04  0.00000000000E+00 0. -1.
         21   -1    0    0  501  502  0.00000000000E+00 -0.00000000000E+00 -0.61175662386E+02  0.61175662386E+02  0.00000000000E+00 0. -1.
         25    1    1    2    0    0  0.19692913164E+03 -0.58539917068E+02  0.60031197188E+03  0.64668962290E+03  0.12500000000E+03 0.  0.
         21    1    1    2  503  502 -0.21394760269E+02 -0.11367639459E+02  0.30747418297E+03  0.30842719106E+03  0.00000000000E+00 0. -1.
          1    1    1    2  501    0 -0.17553437137E+03  0.69907556526E+02  0.20041998729E+03  0.27544065295E+03  0.00000000000E+00 0. -1.
<mgrwt>
<rscale>  4 0.23022759E+03</rscale>
<asrwt>0</asrwt>
<pdfrwt beam="1">  1       21 0.94116412E-02 0.23022759E+03</pdfrwt>
<pdfrwt beam="2">  1        1 0.17990488E+00 0.23022759E+03</pdfrwt>
<totfact> 0.12136002E+04</totfact>
</mgrwt>
</event>
<event>
 5    0  0.1014204E+000  0.2382540E+03  0.7546771E-02  0.1120961E+00
          1   -1    0    0  503    0 -0.00000000000E+00  0.00000000000E+00  0.45006854636E+04  0.45006854636E+04  0.00000000000E+00 0. -1.
         21   -1    0    0  501  502  0.00000000000E+00 -0.00000000000E+00 -0.14542696197E+02  0.14542696197E+02  0.00000000000E+00 0. -1.
         25    1    1    2    0    0 -0.21646251831E+03  0.31981452776E+02  0.22461152608E+04  0.22602074241E+04  0.12500000000E+03 0.  0.
         21    1    1    2  503  502  0.23176308268E+02 -0.17071578786E+02  0.95674904298E+03  0.95718196353E+03  0.00000000000E+00 0. -1.
          1    1    1    2  501    0  0.19328621004E+03 -0.14909873990E+02  0.12832784635E+04  0.12978387721E+04  0.00000000000E+00 0. -1.
<mgrwt>
<rscale>  4 0.23825401E+03</rscale>
<asrwt>0</asrwt>
<pdfrwt beam="1">  1       21 0.22373415E-02 0.23825401E+03</pdfrwt>
<pdfrwt beam="2">  1        1 0.69241204E+00 0.23825401E+03</pdfrwt>
<totfact> 0.51973152E+02</totfact>
</mgrwt>
</event>
<event>
 5    0  0.1014204E+000  0.3996815E+03  0.7546771E-02  0.1043890E+00
          1   -1    0    0  503    0 -0.00000000000E+00  0.00000000000E+00  0.94685627855E+03  0.94685627855E+03  0.00000000000E+00 0. -1.
         21   -1    0    0  501  502  0.00000000000E+00 -0.00000000000E+00 -0.69306082182E+03  0.69306082182E+03  0.00000000000E+00 0.  1.
         25    1    1    2    0    0 -0.20881913033E+03 -0.31617986051E+03 -0.51085332882E+03  0.64820618398E+03  0.12500000000E+03 0.  0.
         21    1    1    2  503  502 -0.15895760887E+03  0.10043793578E+03  0.13581576765E+03  0.23195090667E+03  0.00000000000E+00 0.  1.
          1    1    1    2  501    0  0.36777673920E+03  0.21574192472E+03  0.62883301789E+03  0.75976000972E+03  0.00000000000E+00 0. -1.
<mgrwt>
<rscale>  4 0.39968146E+03</rscale>
<asrwt>0</asrwt>
<pdfrwt beam="1">  1       21 0.10662474E+00 0.39968146E+03</pdfrwt>
<pdfrwt beam="2">  1        1 0.14567020E+00 0.39968146E+03</pdfrwt>
<totfact> 0.12308731E+02</totfact>
</mgrwt>
</event>
<event>
 5    0  0.1014204E+000  0.2691048E+03  0.7546771E-02  0.1101793E+00
          2   -1    0    0  503    0 -0.00000000000E+00  0.00000000000E+00  0.76179825322E+03  0.76179825322E+03  0.00000000000E+00 0. -1.
         21   -1    0    0  501  502  0.00000000000E+00 -0.00000000000E+00 -0.14666644078E+03  0.14666644078E+03  0.00000000000E+00 0. -1.
         25    1    1    2    0    0 -0.17921648266E+03  0.16122671713E+03  0.37714837649E+02  0.27415326179E+03  0.12500000000E+03 0.  0.
         21    1    1    2  503  502  0.24144414074E+02  0.93133262632E+01  0.11189202650E+03  0.11484561973E+03  0.00000000000E+00 0. -1.
          2    1    1    2  501    0  0.15507206858E+03 -0.17054004339E+03  0.46552494830E+03  0.51946581248E+03  0.00000000000E+00 0. -1.
<mgrwt>
<rscale>  4 0.26910476E+03</rscale>
<asrwt>0</asrwt>
<pdfrwt beam="1">  1       21 0.22564068E-01 0.26910476E+03</pdfrwt>
<pdfrwt beam="2">  1        2 0.11719973E+00 0.26910476E+03</pdfrwt>
<totfact> 0.86037581E+03</totfact>
</mgrwt>
</event>
<event>
 5    0  0.1014204E+000  0.5548706E+03  0.7546771E-02  0.1000471E+00
         21   -1    0    0  501  502  0.00000000000E+00  0.00000000000E+00  0.17753433812E+04  0.17753433812E+04  0.00000000000E+00 0. -1.
          2   -1    0    0  503    0 -0.00000000000E+00 -0.00000000000E+00 -0.32911601986E+03  0.32911601986E+03  0.00000000000E+00 0.  1.
         25    1    1    2    0    0  0.69639756745E+02  0.53433177934E+03  0.14474929747E+04  0.15495873832E+04  0.12500000000E+03 0.  0.
         21    1    1    2  503  502  0.29213933884E+02 -0.33849884355E+02 -0.81939820954E+00  0.44720688918E+02  0.00000000000E+00 0.  1.
          2    1    1    2  501    0 -0.98853690629E+02 -0.50048189499E+03 -0.44621517618E+00  0.51015132899E+03  0.00000000000E+00 0.  1.
<mgrwt>
<rscale>  4 0.55444225E+03</rscale>
<asrwt>0</asrwt>
<pdfrwt beam="1">  1       21 0.27312974E+00 0.55487057E+03</pdfrwt>
<pdfrwt beam="2">  1        2 0.50633235E-01 0.55487057E+03</pdfrwt>
<totfact> 0.47423321E+01</totfact>
</mgrwt>
</event>
<event>
 5    0  0.1014204E+000  0.2525622E+03  0.7546771E-02  0.1111696E+00
         21   -1    0    0  501  502  0.00000000000E+00  0.00000000000E+00  0.38904981516E+03  0.38904981516E+03  0.00000000000E+00 0.  1.
          1   -1    0    0  503    0 -0.00000000000E+00 -0.00000000000E+00 -0.60105134816E+03  0.60105134816E+03  0.00000000000E+00 0. -1.
         25    1    1    2    0    0  0.61990185742E+02  0.21060651685E+03  0.31455514614E+03  0.40344495044E+03  0.12500000000E+03 0.  0.
         21    1    1    2  503  502  0.31900823950E+02 -0.10648728499E+02 -0.39720002877E+02  0.52045524456E+02  0.00000000000E+00 0. -1.
          1    1    1    2  501    0 -0.93891009691E+02 -0.19995778835E+03 -0.48683667626E+03  0.53461068843E+03  0.00000000000E+00 0. -1.
<mgrwt>
<rscale>  4 0.25256223E+03</rscale>
<asrwt>0</asrwt>
<pdfrwt beam="1">  1       21 0.59853818E-01 0.25256223E+03</pdfrwt>
<pdfrwt beam="2">  1        1 0.92469437E-01 0.25256223E+03</pdfrwt>
<totfact> 0.98557453E+02</totfact>
</mgrwt>
</event>
<event>
 5    0  0.1014204E+000  0.2662187E+03  0.7546771E-02  0.1103463E+00
         21   -1    0    0  503  502  0.00000000000E+00  0.00000000000E+00  0.31097046808E+03  0.31097046808E+03  0.00000000000E+00 0. -1.
         -2   -1    0    0    0  501 -0.00000000000E+00 -0.00000000000E+00 -0.28554043539E+03  0.28554043539E+03  0.00000000000E+00 0. -1.
         25    1    1    2    0    0  0.19456971924E+03  0.14167866211E+03  0.13593838808E+03  0.30337182515E+03  0.12500000000E+03 0.  0.
         21    1    1    2  503  501 -0.33592801221E+02  0.17606244445E+02 -0.41891069013E+02  0.56509448771E+02  0.00000000000E+00 0.  1.
         -2    1    1    2    0  502 -0.16097691802E+03 -0.15928490655E+03 -0.68617286373E+02  0.23662962955E+03  0.00000000000E+00 0. -1.
<mgrwt>
<rscale>  4 0.26621868E+03</rscale>
<asrwt>0</asrwt>
<pdfrwt beam="1">  1       21 0.47841610E-01 0.26621868E+03</pdfrwt>
<pdfrwt beam="2">  1       -2 0.43929298E-01 0.26621868E+03</pdfrwt>
<totfact> 0.16443765E+03</totfact>
</mgrwt>
</event>
<event>
 5    0  0.1014204E+000  0.2430581E+03  0.7546771E-02  0.1117772E+00
         -1   -1    0    0    0  501 -0.00000000000E+00  0.00000000000E+00  0.10852133391E+04  0.10852133391E+04  0.00000000000E+00 0.  1.
         21   -1    0    0  503  502  0.00000000000E+00 -0.00000000000E+00 -0.18848831964E+03  0.18848831964E+03  0.00000000000E+00 0.  1.
         25    1    1    2    0    0  0.21929595171E+03  0.13990143612E+02 -0.71260885997E+02  0.26265862336E+03  0.12500000000E+03 0.  0.
         21    1    1    2  503  501 -0.99392787771E+02  0.78465992587E+02  0.29145962835E+03  0.31778066840E+03  0.00000000000E+00 0.  1.
         -1    1    1    2    0  502 -0.11990316394E+03 -0.92456136200E+02  0.67652627709E+03  0.69326236695E+03  0.00000000000E+00 0.  1.
<mgrwt>
<rscale>  4 0.24305810E+03</rscale>
<asrwt>0</asrwt>
<pdfrwt beam="1">  1       21 0.28998204E-01 0.24305810E+03</pdfrwt>
<pdfrwt beam="2">  1       -1 0.16695589E+00 0.24305810E+03</pdfrwt>
<totfact> 0.29823642E+02</totfact>
</mgrwt>
</event>
<event>
 5    0  0.1014204E+000  0.3273668E+03  0.7546771E-02  0.1072308E+00
         21   -1    0    0  501  502  0.00000000000E+00  0.00000000000E+00  0.75121305959E+02  0.75121305959E+02  0.00000000000E+00 0. -1.
          2   -1    0    0  503    0 -0.00000000000E+00 -0.00000000000E+00 -0.16350134088E+04  0.16350134088E+04  0.00000000000E+00 0. -1.
         25    1    1    2    0    0 -0.15614337010E+03 -0.26418730652E+03 -0.51212590164E+03  0.60997838002E+03  0.12500000000E+03 0.  0.
         21    1    1    2  503  502 -0.98026777402E+01  0.18694781155E+02 -0.21890207316E+03  0.21991749582E+03  0.00000000000E+00 0. -1.
          2    1    1    2  501    0  0.16594604784E+03  0.24549252537E+03 -0.82886412806E+03  0.88023883895E+03  0.00000000000E+00 0. -1.
<mgrwt>
<rscale>  4 0.32736681E+03</rscale>
<asrwt>0</asrwt>
<pdfrwt beam="1">  1       21 0.11557126E-01 0.32736681E+03</pdfrwt>
<pdfrwt beam="2">  1        2 0.25154049E+00 0.32736681E+03</pdfrwt>
<totfact> 0.89675090E+03</totfact>
</mgrwt>
</event>
<event>
 5    0  0.1014204E+000  0.2401468E+03  0.7546771E-02  0.1119695E+00
         21   -1    0    0  501  502  0.00000000000E+00  0.00000000000E+00  0.36344108915E+02  0.36344108915E+02  0.00000000000E+00 0.  1.
          2   -1    0    0  503    0 -0.00000000000E+00 -0.00000000000E+00 -0.23001150051E+04  0.23001150051E+04  0.00000000000E+00 0.  1.
         25    1    1    2    0    0  0.16810676141E+03  0.11124182090E+03 -0.10016647027E+04  0.10293647568E+04  0.12500000000E+03 0.  0.
         21    1    1    2  503  502  0.15999412290E+02 -0.16445380879E+02 -0.80435950512E+03  0.80468667518E+03  0.00000000000E+00 0.  1.
          2    1    1    2  501    0 -0.18410617370E+03 -0.94796440026E+02 -0.45774668844E+03  0.50240768208E+03  0.00000000000E+00 0.  1.
<mgrwt>
<rscale>  4 0.24014681E+03</rscale>
<asrwt>0</asrwt>
<pdfrwt beam="1">  1       21 0.55913993E-02 0.24014681E+03</pdfrwt>
<pdfrwt beam="2">  1        2 0.35386398E+00 0.24014681E+03</pdfrwt>
<totfact> 0.14653675E+04</totfact>
</mgrwt>
</event>
<event>
 5    0  0.1014204E+000  0.2406956E+03  0.7546771E-02  0.1119330E+00
         21   -1    0    0  501  502  0.00000000000E+00  0.00000000000E+00  0.17197507662E+03  0.17197507662E+03  0.00000000000E+00 0.  1.
          1   -1    0    0  503    0 -0.00000000000E+00 -0.00000000000E+00 -0.52335807962E+03  0.52335807962E+03  0.00000000000E+00 0. -1.
         25    1    1    2    0    0 -0.20679615317E+03 -0.33245928233E+02  0.35154556183E+02  0.24643616522E+03  0.12500000000E+03 0.  0.
         21    1    1    2  503  502  0.21058214326E+02 -0.17912067894E+02 -0.17846862741E+02  0.32905942875E+02  0.00000000000E+00 0. -1.
          1    1    1    2  501    0  0.18573793885E+03  0.51157996127E+02 -0.36869069644E+03  0.41599104815E+03  0.00000000000E+00 0. -1.
<mgrwt>
<rscale>  4 0.24069561E+03</rscale>
<asrwt>0</asrwt>
<pdfrwt beam="1">  1       21 0.26457704E-01 0.24069561E+03</pdfrwt>
<pdfrwt beam="2">  1        1 0.80516628E-01 0.24069561E+03</pdfrwt>
<totfact> 0.62995429E+03</totfact>
</mgrwt>
</event>
<event>
 5    0  0.1014204E+000  0.6839380E+03  0.7546771E-02  0.9757794E-01
         21   -1    0    0  503  502  0.00000000000E+00  0.00000000000E+00  0.40756101826E+03  0.40756101826E+03  0.00000000000E+00 0.  1.
         -1   -1    0    0    0  501 -0.00000000000E+00 -0.00000000000E+00 -0.16193920772E+04  0.16193920772E+04  0.00000000000E+00 0.  1.
         25    1    1    2    0    0  0.54669010985E+03  0.33984512050E+03 -0.23860083393E+02  0.65617001281E+03  0.12500000000E+03 0.  0.
         21    1    1    2  503  501 -0.18405961340E+03 -0.78232570098E+02 -0.18409844177E+03  0.27182809378E+03  0.00000000000E+00 0.  1.
         -1    1    1    2    0  502 -0.36263049645E+03 -0.26161255040E+03 -0.10038725338E+04  0.10989549889E+04  0.00000000000E+00 0.  1.
<mgrwt>
<rscale>  4 0.67677581E+03</rscale>
<asrwt>0</asrwt>
<pdfrwt beam="1">  1       21 0.62701696E-01 0.68393802E+03</pdfrwt>
<pdfrwt beam="2">  1       -1 0.24913724E+00 0.68393802E+03</pdfrwt>
<totfact> 0.14613639E+01</totfact>
</mgrwt>
</event>
<event>
 5    0  0.1014204E+000  0.3306308E+03  0.7546771E-02  0.1070858E+00
         21   -1    0    0  501  502  0.00000000000E+00  0.00000000000E+00  0.12297824433E+03  0.12297824433E+03  0.00000000000E+00 0.  1.
          2   -1    0    0  503    0 -0.00000000000E+00 -0.00000000000E+00 -0.14690677077E+04  0.14690677077E+04  0.00000000000E+00 0. -1.
         25    1    1    2    0    0 -0.13744123655E+03 -0.27006326609E+03 -0.17914885078E+03  0.37355531308E+03  0.12500000000E+03 0.  0.
         21    1    1    2  503  502  0.14490429824E+02 -0.23390680009E+02 -0.16399365286E+03  0.16628594242E+03  0.00000000000E+00 0.  1.
          2    1    1    2  501    0  0.12295080673E+03  0.29345394610E+03 -0.10029469597E+04  0.10522046965E+04  0.00000000000E+00 0. -1.
<mgrwt>
<rscale>  4 0.33063075E+03</rscale>
<asrwt>0</asrwt>
<pdfrwt beam="1">  1       21 0.18919731E-01 0.33063075E+03</pdfrwt>
<pdfrwt beam="2">  1        2 0.22601041E+00 0.33063075E+03</pdfrwt>
<totfact> 0.44393307E+03</totfact>
</mgrwt>
</event>
<event>
 5    0  0.1014204E+000  0.2584407E+03  0.7546771E-02  0.1108084E+00
          3   -1    0    0  503    0 -0.00000000000E+00  0.00000000000E+00  0.13864471289E+04  0.13864471289E+04  0.00000000000E+00 0. -1.
         21   -1    0    0  501  502  0.00000000000E+00 -0.00000000000E+00 -0.83454282151E+02  0.83454282151E+02  0.00000000000E+00 0. -1.
         25    1    1    2    0    0  0.12799288154E+03  0.18650584538E+03  0.16253893087E+03  0.30530396679E+03  0.12500000000E+03 0.  0.
         21    1    1    2  503  502 -0.61127547867E+02 -0.39086272286E+02  0.29547659082E+03  0.30425438290E+03  0.00000000000E+00 0. -1.
          3    1    1    2  501    0 -0.66865333671E+02 -0.14741957310E+03  0.84497732502E+03  0.86034306132E+03  0.00000000000E+00 0. -1.
<mgrwt>
<rscale>  4 0.25844072E+03</rscale>
<asrwt>0</asrwt>
<pdfrwt beam="1">  1       21 0.12839121E-01 0.25844072E+03</pdfrwt>
<pdfrwt beam="2">  1        3 0.21329954E+00 0.25844072E+03</pdfrwt>
<totfact> 0.34081359E+02</totfact>
</mgrwt>
</event>
<event>
 5    0  0.1014204E+000  0.2760961E+03  0.7546771E-02  0.1097840E+00
         -3   -1    0    0    0  501 -0.00000000000E+00  0.00000000000E+00  0.18698819323E+03  0.18698819323E+03  0.00000000000E+00 0. -1.
         21   -1    0    0  503  502  0.00000000000E+00 -0.00000000000E+00 -0.45991761912E+03  0.45991761912E+03  0.00000000000E+00 0. -1.
         25    1    1    2    0    0 -0.21542188506E+03  0.82686443939E+02 -0.17108545634E+02  0.26298543478E+03  0.12500000000E+03 0.  0.
         21    1    1    2  503  501 -0.20356176000E+02  0.80414085889E+01  0.31760977740E+01  0.22116187522E+02  0.00000000000E+00 0. -1.
         -3    1    1    2    0  502  0.23577806106E+03 -0.90727852528E+02 -0.25899697803E+03  0.36180419004E+03  0.00000000000E+00 0. -1.
<mgrwt>
<rscale>  4 0.27609606E+03</rscale>
<asrwt>0</asrwt>
<pdfrwt beam="1">  1       21 0.70756557E-01 0.27609606E+03</pdfrwt>
<pdfrwt beam="2">  1       -3 0.28767414E-01 0.27609606E+03</pdfrwt>
<totfact> 0.10246616E+03</totfact>
</mgrwt>
</event>
<event>
 5    0  0.1014204E+000  0.3222153E+03  0.7546771E-02  0.1074634E+00
         21   -1    0    0  501  502  0.00000000000E+00  0.00000000000E+00  0.36633733986E+03  0.36633733986E+03  0.00000000000E+00 0.  1.
          2   -1    0    0  503    0 -0.00000000000E+00 -0.00000000000E+00 -0.10477478472E+04  0.10477478472E+04  0.00000000000E+00 0. -1.
         25    1    1    2    0    0  0.13990999822E+03 -0.29667506335E+03  0.23939145031E+03  0.42488135672E+03  0.12500000000E+03 0.  0.
         21    1    1    2  503  502 -0.65204930191E+01  0.33777399851E+02 -0.16676108118E+02  0.38229859428E+02  0.00000000000E+00 0.  1.
          2    1    1    2  501    0 -0.13338950520E+03  0.26289766349E+03 -0.90412584953E+03  0.95097397091E+03  0.00000000000E+00 0. -1.
<mgrwt>
<rscale>  4 0.32221529E+03</rscale>
<asrwt>0</asrwt>
<pdfrwt beam="1">  1       21 0.56359592E-01 0.32221529E+03</pdfrwt>
<pdfrwt beam="2">  1        2 0.16119197E+00 0.32221529E+03</pdfrwt>
<totfact> 0.86996297E+02</totfact>
</mgrwt>
</event>
<event>
 5    0  0.1014204E+000  0.2580208E+03  0.7546771E-02  0.1108338E+00
          2   -1    0    0  503    0 -0.00000000000E+00  0.00000000000E+00  0.33498983920E+04  0.33498983920E+04  0.00000000000E+00 0. -1.
         21   -1    0    0  501  502  0.00000000000E+00 -0.00000000000E+00 -0.87358291523E+02  0.87358291523E+02  0.00000000000E+00 0.  1.
         25    1    1    2    0    0 -0.51263008795E+02 -0.21732295407E+03  0.12352027841E+03  0.28414683108E+03  0.12500000000E+03 0.  0.
         21    1    1    2  503  502  0.99026531223E+01 -0.36137415759E+02  0.58906654492E+03  0.59025703698E+03  0.00000000000E+00 0.  1.
          2    1    1    2  501    0  0.41360355672E+02  0.25346036983E+03  0.25499532771E+04  0.25628528155E+04  0.00000000000E+00 0. -1.
<mgrwt>
<rscale>  4 0.25802083E+03</rscale>
<asrwt>0</asrwt>
<pdfrwt beam="1">  1       21 0.13439740E-01 0.25802083E+03</pdfrwt>
<pdfrwt beam="2">  1        2 0.51536888E+00 0.25802083E+03</pdfrwt>
<totfact> 0.76777723E+02</totfact>
</mgrwt>
</event>
<event>
 5    0  0.1014204E+000  0.2704095E+03  0.7546771E-02  0.1101045E+00
         21   -1    0    0  501  502  0.00000000000E+00  0.00000000000E+00  0.74296944786E+03  0.74296944786E+03  0.00000000000E+00 0. -1.
          1   -1    0    0  503    0 -0.00000000000E+00 -0.00000000000E+00 -0.61964089227E+03  0.61964089227E+03  0.00000000000E+00 0. -1.
         25    1    1    2    0    0  0.16212560999E+03  0.17475980458E+03  0.66375270334E+03  0.71625299573E+03  0.12500000000E+03 0.  0.
         21    1    1    2  503  502  0.52338605848E+02 -0.21749044151E+02 -0.24080504414E+03  0.24738516500E+03  0.00000000000E+00 0. -1.
          1    1    1    2  501    0 -0.21446421584E+03 -0.15301076043E+03 -0.29961910361E+03  0.39897217940E+03  0.00000000000E+00 0. -1.
<mgrwt>
<rscale>  4 0.27040948E+03</rscale>
<asrwt>0</asrwt>
<pdfrwt beam="1">  1       21 0.11430299E+00 0.27040948E+03</pdfrwt>
<pdfrwt beam="2">  1        1 0.95329368E-01 0.27040948E+03</pdfrwt>
<totfact> 0.21120057E+02</totfact>
</mgrwt>
</event>
<event>
 5    0  0.1014204E+000  0.3540937E+03  0.7546771E-02  0.1060947E+00
          2   -1    0    0  503    0 -0.00000000000E+00  0.00000000000E+00  0.81423534214E+03  0.81423534214E+03  0.00000000000E+00 0. -1.
         21   -1    0    0  501  502  0.00000000000E+00 -0.00000000000E+00 -0.51332250597E+03  0.51332250597E+03  0.00000000000E+00 0. -1.
         25    1    1    2    0    0 -0.37291698464E+03  0.13046850909E+03  0.38646989591E+03  0.56663311740E+03  0.12500000000E+03 0.  0.
         21    1    1    2  503  502  0.10736849586E+03  0.55915852217E+02  0.26008311405E+03  0.28687593598E+03  0.00000000000E+00 0. -1.
          2    1    1    2  501    0  0.26554848878E+03 -0.18638436131E+03 -0.34564017379E+03  0.47404879472E+03  0.00000000000E+00 0. -1.
<mgrwt>
<rscale>  4 0.35409366E+03</rscale>
<asrwt>0</asrwt>
<pdfrwt beam="1">  1       21 0.78972693E-01 0.35409366E+03</pdfrwt>
<pdfrwt beam="2">  1        2 0.12526698E+00 0.35409366E+03</pdfrwt>
<totfact> 0.57550882E+02</totfact>
</mgrwt>
</event>
<event>
 5    0  0.1014204E+000  0.3797535E+03  0.7546771E-02  0.1051025E+00
         21   -1    0    0  501  502  0.00000000000E+00  0.00000000000E+00  0.23155493945E+03  0.23155493945E+03  0.00000000000E+00 0.  1.
          2   -1    0    0  503    0 -0.00000000000E+00 -0.00000000000E+00 -0.12401904142E+04  0.12401904142E+04  0.00000000000E+00 0.  1.
         25    1    1    2    0    0  0.13514312921E+03  0.33536002568E+03  0.96786788865E+01  0.38268614951E+03  0.12500000000E+03 0.  0.
         21    1    1    2  503  502 -0.20389947587E+02 -0.98070680160E+01 -0.19503978460E+03  0.19634776832E+03  0.00000000000E+00 0. -1.
          2    1    1    2  501    0 -0.11475318163E+03 -0.32555295767E+03 -0.82327436906E+03  0.89271143585E+03  0.00000000000E+00 0.  1.
<mgrwt>
<rscale>  4 0.37975354E+03</rscale>
<asrwt>0</asrwt>
<pdfrwt beam="1">  1       21 0.35623837E-01 0.37975354E+03</pdfrwt>
<pdfrwt beam="2">  1        2 0.19079852E+00 0.37975354E+03</pdfrwt>
<totfact> 0.17118729E+03</totfact>
</mgrwt>
</event>
<event>
 5    0  0.1014204E+000  0.2497654E+03  0.7546771E-02  0.1113453E+00
          2   -1    0    0  503    0 -0.00000000000E+00  0.00000000000E+00  0.33858589300E+03  0.33858589300E+03  0.00000000000E+00 0. -1.
         21   -1    0    0  501  502  0.00000000000E+00 -0.00000000000E+00 -0.12805544075E+04  0.12805544075E+04  0.00000000000E+00 0.  1.
         25    1    1    2    0    0  0.17171538728E+03 -0.13535728785E+03 -0.12088966854E+04  0.12348538236E+04  0.12500000000E+03 0.  0.
         21    1    1    2  503  502 -0.26499192394E+02  0.16490944303E+02  0.17043666225E+03  0.17327092739E+03  0.00000000000E+00 0. -1.
          2    1    1    2  501    0 -0.14521619489E+03  0.11886634355E+03  0.96491508694E+02  0.21101554951E+03  0.00000000000E+00 0. -1.
<mgrwt>
<rscale>  4 0.24976542E+03</rscale>
<asrwt>0</asrwt>
<pdfrwt beam="1">  1       21 0.19700838E+00 0.24976542E+03</pdfrwt>
<pdfrwt beam="2">  1        2 0.52090136E-01 0.24976542E+03</pdfrwt>
<totfact> 0.15983594E+02</totfact>
</mgrwt>
</event>
<event>
 5    0  0.1014204E+000  0.2735683E+03  0.7546771E-02  0.1099255E+00
          1   -1    0    0  503    0 -0.00000000000E+00  0.00000000000E+00  0.59849816908E+03  0.59849816908E+03  0.00000000000E+00 0. -1.
         21   -1    0    0  501  502  0.00000000000E+00 -0.00000000000E+00 -0.15291457957E+03  0.15291457957E+03  0.00000000000E+00 0. -1.
         25    1    1    2    0    0  0.24224109297E+03 -0.60418490792E+02  0.19075618484E+03  0.33814799010E+03  0.12500000000E+03 0.  0.
         21    1    1    2  503  502 -0.61122394296E+01  0.21553732084E+02  0.15058129444E+03  0.15223878964E+03  0.00000000000E+00 0. -1.
          1    1    1    2  501    0 -0.23612885354E+03  0.38864758708E+02  0.10424611024E+03  0.26102596891E+03  0.00000000000E+00 0. -1.
<mgrwt>
<rscale>  4 0.27356829E+03</rscale>
<asrwt>0</asrwt>
<pdfrwt beam="1">  1       21 0.23525320E-01 0.27356829E+03</pdfrwt>
<pdfrwt beam="2">  1        1 0.92076641E-01 0.27356829E+03</pdfrwt>
<totfact> 0.65210145E+03</totfact>
</mgrwt>
</event>
<event>
 5    0  0.1014204E+000  0.2433214E+03  0.7546771E-02  0.1117600E+00
          2   -1    0    0  503    0 -0.00000000000E+00  0.00000000000E+00  0.47196233919E+04  0.47196233919E+04  0.00000000000E+00 0.  1.
         21   -1    0    0  501  502  0.00000000000E+00 -0.00000000000E+00 -0.16913799956E+02  0.16913799956E+02  0.00000000000E+00 0.  1.
         25    1    1    2    0    0 -0.13348805600E+03 -0.18524061734E+03  0.16655992564E+04  0.16858170216E+04  0.12500000000E+03 0.  0.
         21    1    1    2  503  502  0.11127951683E+02  0.36610692929E+02  0.16357799167E+04  0.16362274016E+04  0.00000000000E+00 0.  1.
          2    1    1    2  501    0  0.12236010431E+03  0.14862992441E+03  0.14013304189E+04  0.14144927686E+04  0.00000000000E+00 0.  1.
<mgrwt>
<rscale>  4 0.24332145E+03</rscale>
<asrwt>0</asrwt>
<pdfrwt beam="1">  1       21 0.26021268E-02 0.24332145E+03</pdfrwt>
<pdfrwt beam="2">  1        2 0.72609486E+00 0.24332145E+03</pdfrwt>
<totfact> 0.10826231E+03</totfact>
</mgrwt>
</event>
<event>
 5    0  0.1014204E+000  0.3019064E+03  0.7546771E-02  0.1084291E+00
          1   -1    0    0  503    0 -0.00000000000E+00  0.00000000000E+00  0.13441142315E+04  0.13441142315E+04  0.00000000000E+00 0. -1.
         21   -1    0    0  501  502  0.00000000000E+00 -0.00000000000E+00 -0.19734501970E+03  0.19734501970E+03  0.00000000000E+00 0. -1.
         25    1    1    2    0    0 -0.44292831258E+02 -0.24597763100E+03  0.82626759376E+02  0.29140870135E+03  0.12500000000E+03 0.  0.
         21    1    1    2  503  502 -0.42989358410E+02 -0.52308164404E+02  0.89239403568E+03  0.89495885040E+03  0.00000000000E+00 0. -1.
          1    1    1    2  501    0  0.87282189668E+02  0.29828579541E+03  0.17174841676E+03  0.35509169947E+03  0.00000000000E+00 0. -1.
<mgrwt>
<rscale>  4 0.30190639E+03</rscale>
<asrwt>0</asrwt>
<pdfrwt beam="1">  1       21 0.30360773E-01 0.30190639E+03</pdfrwt>
<pdfrwt beam="2">  1        1 0.20678680E+00 0.30190639E+03</pdfrwt>
<totfact> 0.10178962E+03</totfact>
</mgrwt>
</event>
<event>
 5    0  0.1014204E+000  0.3326894E+03  0.7546771E-02  0.1069953E+00
         21   -1    0    0  501  502  0.00000000000E+00  0.00000000000E+00  0.88367787155E+03  0.88367787155E+03  0.00000000000E+00 0. -1.
          1   -1    0    0  503    0 -0.00000000000E+00 -0.00000000000E+00 -0.33835062642E+03  0.33835062642E+03  0.00000000000E+00 0.  1.
         25    1    1    2    0    0 -0.29117690361E+03  0.83675418366E+02  0.70208355131E+03  0.77481086586E+03  0.12500000000E+03 0.  0.
         21    1    1    2  503  502 -0.54435801281E+02 -0.24138232488E+02  0.73836086913E+01  0.60003569944E+02  0.00000000000E+00 0.  1.
          1    1    1    2  501    0  0.34561270489E+03 -0.59537185878E+02 -0.16413991488E+03  0.38721406217E+03  0.00000000000E+00 0.  1.
<mgrwt>
<rscale>  4 0.33268940E+03</rscale>
<asrwt>0</asrwt>
<pdfrwt beam="1">  1       21 0.13595044E+00 0.33268940E+03</pdfrwt>
<pdfrwt beam="2">  1        1 0.52053943E-01 0.33268940E+03</pdfrwt>
<totfact> 0.29489692E+02</totfact>
</mgrwt>
</event>
<event>
 5    0  0.1014204E+000  0.2879222E+03  0.7546771E-02  0.1091439E+00
         21   -1    0    0  501  502  0.00000000000E+00  0.00000000000E+00  0.46413588149E+02  0.46413588149E+02  0.00000000000E+00 0. -1.
          2   -1    0    0  503    0 -0.00000000000E+00 -0.00000000000E+00 -0.23327532635E+04  0.23327532635E+04  0.00000000000E+00 0. -1.
         25    1    1    2    0    0  0.21857392828E+03  0.15387870470E+03 -0.78021005445E+03  0.83414983483E+03  0.12500000000E+03 0.  0.
         21    1    1    2  503  502 -0.26805521366E+01 -0.24608752377E+02 -0.70196206091E+03  0.70239839907E+03  0.00000000000E+00 0. -1.
          2    1    1    2  501    0 -0.21589337615E+03 -0.12926995232E+03 -0.80416755997E+03  0.84261861773E+03  0.00000000000E+00 0. -1.
<mgrwt>
<rscale>  4 0.28792221E+03</rscale>
<asrwt>0</asrwt>
<pdfrwt beam="1">  1       21 0.71405497E-02 0.28792221E+03</pdfrwt>
<pdfrwt beam="2">  1        2 0.35888524E+00 0.28792221E+03</pdfrwt>
<totfact> 0.90739384E+03</totfact>
</mgrwt>
</event>
<event>
 5    0  0.1014204E+000  0.2471630E+03  0.7546771E-02  0.1115111E+00
          3   -1    0    0  503    0 -0.00000000000E+00  0.00000000000E+00  0.12275131168E+03  0.12275131168E+03  0.00000000000E+00 0.  1.
         21   -1    0    0  501  502  0.00000000000E+00 -0.00000000000E+00 -0.64159870256E+03  0.64159870256E+03  0.00000000000E+00 0.  1.
         25    1    1    2    0    0 -0.96687322305E+02 -0.17782586008E+03 -0.37675767550E+03  0.44558031920E+03  0.12500000000E+03 0.  0.
         21    1    1    2  503  502  0.60816729086E+01 -0.37759725561E+02  0.10347820245E+02  0.39621471497E+02  0.00000000000E+00 0.  1.
          3    1    1    2  501    0  0.90605649397E+02  0.21558558564E+03 -0.15243753562E+03  0.27914822354E+03  0.00000000000E+00 0.  1.
<mgrwt>
<rscale>  4 0.24716295E+03</rscale>
<asrwt>0</asrwt>
<pdfrwt beam="1">  1       21 0.98707493E-01 0.24716295E+03</pdfrwt>
<pdfrwt beam="2">  1        3 0.18884817E-01 0.24716295E+03</pdfrwt>
<totfact> 0.10273596E+03</totfact>
</mgrwt>
</event>
