<event>
 5    0  0.1911311E+001  0.3309689E+03  0.7546771E-02  0.1070709E+00
         21   -1    0    0  504  501  0.00000000000E+00  0.00000000000E+00  0.14132503151E+04  0.14132503151E+04  0.00000000000E+00 0. -1.
         21   -1    0    0  501  502 -0.00000000000E+00 -0.00000000000E+00 -0.88238425142E+02  0.88238425142E+02  0.00000000000E+00 0. -1.
         25    1    1    2    0    0  0.23730025308E+03 -0.17379512721E+03  0.72787211063E+03  0.79494588859E+03  0.12500000000E+03 0.  0.
         21    1    1    2  503  502 -0.26635104611E+03  0.18004992328E+03  0.59554617088E+03  0.67678364067E+03  0.00000000000E+00 0. -1.
         21    1    1    2  504  503  0.29050793028E+02 -0.62547960715E+01  0.15936084402E+01  0.29759210966E+02  0.00000000000E+00 0. -1.
<mgrwt>
<rscale>  4 0.33096891E+03</rscale>
<asrwt>0</asrwt>
<pdfrwt beam="1">  1       21 0.21742311E+00 0.33096891E+03</pdfrwt>
<pdfrwt beam="2">  1       21 0.13575143E-01 0.33096891E+03</pdfrwt>
<totfact> 0.44267984E+03</totfact>
</mgrwt>
</event>
<event>
 5    0  0.1911311E+001  0.2948672E+03  0.7546771E-02  0.1087835E+00
         21   -1    0    0  504  501  0.00000000000E+00  0.00000000000E+00  0.19928034468E+03  0.19928034468E+03  0.00000000000E+00 0. -1.
         21   -1    0    0  503  502 -0.00000000000E+00 -0.00000000000E+00 -0.31181038317E+04  0.31181038317E+04  0.00000000000E+00 0. -1.
         25    1    1    2    0    0 -0.20512745826E+03 -0.84622626570E+02 -0.11154229442E+04  0.11441291918E+04  0.12500000000E+03 0.  0.
         21    1    1    2  503  501 -0.47656823676E+02 -0.13174800136E+02 -0.18885150464E+04  0.18891622029E+04  0.00000000000E+00 0. -1.
         21    1    1    2  504  502  0.25278428193E+03  0.97797426706E+02  0.85114503652E+02  0.28409278167E+03  0.00000000000E+00 0. -1.
<mgrwt>
<rscale>  4 0.29486723E+03</rscale>
<asrwt>0</asrwt>
<pdfrwt beam="1">  1       21 0.30658518E-01 0.29486723E+03</pdfrwt>
<pdfrwt beam="2">  1       21 0.47970824E+00 0.29486723E+03</pdfrwt>
<totfact> 0.22700630E+01</totfact>
</mgrwt>
</event>
<event>
 5    0  0.3995308E+001  0.2598734E+03  0.7546771E-02  0.1107219E+00
         21   -1    0    0  502  501  0.00000000000E+00  0.00000000000E+00  0.76328308575E+03  0.76328308575E+03  0.00000000000E+00 0. -1.
         21   -1    0    0  504  502 -0.00000000000E+00 -0.00000000000E+00 -0.15870007275E+03  0.15870007275E+03  0.00000000000E+00 0.  1.
         25    1    1    2    0    0  0.16124870134E+03  0.18752100490E+03  0.31097971494E+02  0.27885005791E+03  0.12500000000E+03 0.  0.
         21    1    1    2  503  501 -0.14198637414E+03 -0.17394107371E+03  0.57714421295E+03  0.61928270612E+03  0.00000000000E+00 0. -1.
         21    1    1    2  504  503 -0.19262327206E+02 -0.13579931195E+02 -0.36591714346E+01  0.23850394468E+02  0.00000000000E+00 0.  1.
<mgrwt>
<rscale>  4 0.25987341E+03</rscale>
<asrwt>0</asrwt>
<pdfrwt beam="1">  1       21 0.11742817E+00 0.25987341E+03</pdfrwt>
<pdfrwt beam="2">  1       21 0.24415396E-01 0.25987341E+03</pdfrwt>
<totfact> 0.84477370E+03</totfact>
</mgrwt>
</event>
