<event>
 5    0  0.1911311E+001  0.3729544E+03  0.7546771E-02  0.1053569E+00
         21   -1    0    0  504  501  0.00000000000E+00  0.00000000000E+00  0.12452878667E+04  0.12452878667E+04  0.00000000000E+00 0.  1.
         21   -1    0    0  503  502 -0.00000000000E+00 -0.00000000000E+00 -0.24682854846E+03  0.24682854846E+03  0.00000000000E+00 0.  1.
         25    1    1    2    0    0  0.35332691579E+03 -0.20102718929E+03  0.28498786884E+03  0.51195207358E+03  0.12500000000E+03 0.  0.
         21    1    1    2  503  501 -0.10425542401E+03 -0.25609712857E+02 -0.69471928773E+02  0.12787259173E+03  0.00000000000E+00 0.  1.
         21    1    1    2  504  502 -0.24907149179E+03  0.22663690214E+03  0.78294337819E+03  0.85229174986E+03  0.00000000000E+00 0.  1.
<mgrwt>
<rscale>  4 0.37295436E+03</rscale>
<asrwt>0</asrwt>
<pdfrwt beam="1">  1       21 0.19158275E+00 0.37295436E+03</pdfrwt>
<pdfrwt beam="2">  1       21 0.37973623E-01 0.37295436E+03</pdfrwt>
<totfact> 0.88322869E+02</totfact>
</mgrwt>
</event>
<event>
 5    0  0.1911311E+001  0.3138419E+03  0.7546771E-02  0.1078519E+00
         21   -1    0    0  502  501  0.00000000000E+00  0.00000000000E+00  0.70873729459E+03  0.70873729459E+03  0.00000000000E+00 0. -1.
         21   -1    0    0  504  502 -0.00000000000E+00 -0.00000000000E+00 -0.56628607462E+03  0.56628607462E+03  0.00000000000E+00 0. -1.
         25    1    1    2    0    0  0.27919489049E+03 -0.55772562356E+02  0.53828330677E+03  0.62163838679E+03  0.12500000000E+03 0.  0.
         21    1    1    2  503  501  0.85910833662E+01  0.39073533157E+02  0.84328317905E+02  0.93337092880E+02  0.00000000000E+00 0. -1.
         21    1    1    2  504  503 -0.28778597386E+03  0.16699029199E+02 -0.48016040470E+03  0.56004788953E+03  0.00000000000E+00 0. -1.
<mgrwt>
<rscale>  4 0.31384190E+03</rscale>
<asrwt>0</asrwt>
<pdfrwt beam="1">  1       21 0.10903651E+00 0.31384190E+03</pdfrwt>
<pdfrwt beam="2">  1       21 0.87120935E-01 0.31384190E+03</pdfrwt>
<totfact> 0.68316552E+02</totfact>
</mgrwt>
</event>
<event>
 5    0  0.4492934E+001  0.3389805E+03  0.7546771E-02  0.1067231E+00
         21   -1    0    0  502  501  0.00000000000E+00  0.00000000000E+00  0.16849178934E+03  0.16849178934E+03  0.00000000000E+00 0. -1.
         21   -1    0    0  504  502 -0.00000000000E+00 -0.00000000000E+00 -0.76967941569E+03  0.76967941569E+03  0.00000000000E+00 0. -1.
         25    1    1    2    0    0 -0.30208839685E+03 -0.14048618787E+03 -0.21405000344E+03  0.41525434671E+03  0.12500000000E+03 0.  0.
         21    1    1    2  503  501  0.21615004785E+02  0.19070516952E+02  0.10634641670E+01  0.28844826307E+02  0.00000000000E+00 0.  1.
         21    1    1    2  504  503  0.28047339206E+03  0.12141567092E+03 -0.38820108708E+03  0.49407203201E+03  0.00000000000E+00 0. -1.
<mgrwt>
<rscale>  4 0.33898050E+03</rscale>
<asrwt>0</asrwt>
<pdfrwt beam="1">  1       21 0.25921814E-01 0.33898050E+03</pdfrwt>
<pdfrwt beam="2">  1       21 0.11841222E+00 0.33898050E+03</pdfrwt>
<totfact> 0.70876369E+03</totfact>
</mgrwt>
</event>
