<event>
 5    0  0.2159162E+000  0.2535519E+03  0.7546771E-02  0.1111080E+00
         21   -1    0    0  502  501  0.00000000000E+00  0.00000000000E+00  0.26085720436E+03  0.26085720436E+03  0.00000000000E+00 0.  1.
         21   -1    0    0  503  502 -0.00000000000E+00 -0.00000000000E+00 -0.32149033322E+03  0.32149033322E+03  0.00000000000E+00 0. -1.
         25    1    1    2    0    0  0.12563834782E+03 -0.20777316062E+03  0.54615760954E+02  0.27850056025E+03  0.12500000000E+03 0.  0.
         21    1    1    2  503  504 -0.14403099853E+03  0.15789689009E+03 -0.12808080621E+03  0.24916068983E+03  0.00000000000E+00 0. -1.
         21    1    1    2  504  501  0.18392650705E+02  0.49876270531E+02  0.12831916394E+02  0.54686287499E+02  0.00000000000E+00 0.  1.
<mgrwt>
<rscale>  4 0.25355194E+03</rscale>
<asrwt>0</asrwt>
<pdfrwt beam="1">  1       21 0.40131878E-01 0.25355194E+03</pdfrwt>
<pdfrwt beam="2">  1       21 0.49460051E-01 0.25355194E+03</pdfrwt>
<totfact> 0.22584621E+04</totfact>
</mgrwt>
</event>
<event>
 5    0  0.2159162E+000  0.2406696E+03  0.7546771E-02  0.1119348E+00
         21   -1    0    0  502  501  0.00000000000E+00  0.00000000000E+00  0.87987681063E+02  0.87987681063E+02  0.00000000000E+00 0.  1.
         21   -1    0    0  503  502 -0.00000000000E+00 -0.00000000000E+00 -0.83350844821E+03  0.83350844821E+03  0.00000000000E+00 0.  1.
         25    1    1    2    0    0  0.16229136927E+03 -0.15546889433E+03 -0.24373801874E+03  0.35431947085E+03  0.12500000000E+03 0.  0.
         21    1    1    2  503  504  0.49645258304E+01  0.75921340512E+02 -0.10911230962E+03  0.13301951952E+03  0.00000000000E+00 0.  1.
         21    1    1    2  504  501 -0.16725589510E+03  0.79547553823E+02 -0.39267043878E+03  0.43415713890E+03  0.00000000000E+00 0.  1.
<mgrwt>
<rscale>  4 0.24066960E+03</rscale>
<asrwt>0</asrwt>
<pdfrwt beam="1">  1       21 0.13536567E-01 0.24066960E+03</pdfrwt>
<pdfrwt beam="2">  1       21 0.12823206E+00 0.24066960E+03</pdfrwt>
<totfact> 0.20546196E+04</totfact>
</mgrwt>
</event>
<event>
 5    0  0.2159162E+000  0.2450931E+03  0.7546771E-02  0.1116446E+00
         21   -1    0    0  502  501  0.00000000000E+00  0.00000000000E+00  0.69918070970E+03  0.69918070970E+03  0.00000000000E+00 0. -1.
         21   -1    0    0  503  502 -0.00000000000E+00 -0.00000000000E+00 -0.10443526343E+03  0.10443526343E+03  0.00000000000E+00 0. -1.
         25    1    1    2    0    0 -0.21075857744E+03  0.51446961991E+01  0.51395185545E+03  0.56940069862E+03  0.12500000000E+03 0.  0.
         21    1    1    2  503  504  0.17230968178E+03 -0.27585597001E+02  0.56061419861E+02  0.18328795485E+03  0.00000000000E+00 0. -1.
         21    1    1    2  504  501  0.38448895663E+02  0.22440900802E+02  0.24732170953E+02  0.50927319648E+02  0.00000000000E+00 0. -1.
<mgrwt>
<rscale>  4 0.24509314E+03</rscale>
<asrwt>0</asrwt>
<pdfrwt beam="1">  1       21 0.10756626E+00 0.24509314E+03</pdfrwt>
<pdfrwt beam="2">  1       21 0.16066964E-01 0.24509314E+03</pdfrwt>
<totfact> 0.23163924E+04</totfact>
</mgrwt>
</event>
<event>
 5    0  0.2159162E+000  0.2752754E+03  0.7546771E-02  0.1098298E+00
         21   -1    0    0  502  501  0.00000000000E+00  0.00000000000E+00  0.22753596950E+03  0.22753596950E+03  0.00000000000E+00 0.  1.
         21   -1    0    0  503  502 -0.00000000000E+00 -0.00000000000E+00 -0.30344002888E+03  0.30344002888E+03  0.00000000000E+00 0.  1.
         25    1    1    2    0    0 -0.24447882830E+03  0.19535220148E+02 -0.45246057975E+02  0.27896904501E+03  0.12500000000E+03 0.  0.
         21    1    1    2  503  504  0.18578538151E+03 -0.34232397454E+02 -0.14995798502E+02  0.18950709483E+03  0.00000000000E+00 0.  1.
         21    1    1    2  504  501  0.58693446793E+02  0.14697177306E+02 -0.15662202905E+02  0.62499858537E+02  0.00000000000E+00 0.  1.
<mgrwt>
<rscale>  4 0.27527536E+03</rscale>
<asrwt>0</asrwt>
<pdfrwt beam="1">  1       21 0.35005534E-01 0.27527536E+03</pdfrwt>
<pdfrwt beam="2">  1       21 0.46683081E-01 0.27527536E+03</pdfrwt>
<totfact> 0.33263570E+04</totfact>
</mgrwt>
</event>
<event>
 5    0  0.2159162E+000  0.6317189E+03  0.7546771E-02  0.9842651E-01
         21   -1    0    0  502  501  0.00000000000E+00  0.00000000000E+00  0.90053472878E+03  0.90053472878E+03  0.00000000000E+00 0.  1.
         21   -1    0    0  503  502 -0.00000000000E+00 -0.00000000000E+00 -0.44203827839E+03  0.44203827839E+03  0.00000000000E+00 0. -1.
         25    1    1    2    0    0  0.75864412706E+02  0.61255560423E+03  0.21258240287E+03  0.66467740702E+03  0.12500000000E+03 0.  0.
         21    1    1    2  503  504 -0.89467760852E+02 -0.41268642927E+03  0.21924351418E+03  0.47579647712E+03  0.00000000000E+00 0. -1.
         21    1    1    2  504  501  0.13603348145E+02 -0.19986917496E+03  0.26670533342E+02  0.20209912303E+03  0.00000000000E+00 0. -1.
<mgrwt>
<rscale>  4 0.63123000E+03</rscale>
<asrwt>0</asrwt>
<pdfrwt beam="1">  1       21 0.13854380E+00 0.63171887E+03</pdfrwt>
<pdfrwt beam="2">  1       21 0.68005889E-01 0.63171887E+03</pdfrwt>
<totfact> 0.56836631E+02</totfact>
</mgrwt>
</event>
<event>
 5    0  0.2159162E+000  0.2562282E+03  0.7546771E-02  0.1109431E+00
         21   -1    0    0  502  501  0.00000000000E+00  0.00000000000E+00  0.19846127603E+04  0.19846127603E+04  0.00000000000E+00 0.  1.
         21   -1    0    0  503  502 -0.00000000000E+00 -0.00000000000E+00 -0.29684619931E+02  0.29684619931E+02  0.00000000000E+00 0.  1.
         25    1    1    2    0    0 -0.10894511764E+03  0.19534287340E+03  0.11387351581E+04  0.11672063387E+04  0.12500000000E+03 0.  0.
         21    1    1    2  503  504  0.21248230392E+02 -0.24608229034E+02  0.16622312873E+03  0.16937290443E+03  0.00000000000E+00 0.  1.
         21    1    1    2  504  501  0.87696887248E+02 -0.17073464437E+03  0.64996985351E+03  0.67771813705E+03  0.00000000000E+00 0.  1.
<mgrwt>
<rscale>  4 0.25622817E+03</rscale>
<asrwt>0</asrwt>
<pdfrwt beam="1">  1       21 0.30532494E+00 0.25622817E+03</pdfrwt>
<pdfrwt beam="2">  1       21 0.45668662E-02 0.25622817E+03</pdfrwt>
<totfact> 0.93851932E+03</totfact>
</mgrwt>
</event>
<event>
 5    0  0.2159162E+000  0.2600578E+03  0.7546771E-02  0.1107109E+00
         21   -1    0    0  502  501  0.00000000000E+00  0.00000000000E+00  0.33765509648E+03  0.33765509648E+03  0.00000000000E+00 0.  1.
         21   -1    0    0  503  502 -0.00000000000E+00 -0.00000000000E+00 -0.28676330562E+03  0.28676330562E+03  0.00000000000E+00 0.  1.
         25    1    1    2    0    0  0.22525143215E+03 -0.35592706039E+02  0.21866129794E+03  0.33976876199E+03  0.12500000000E+03 0.  0.
         21    1    1    2  503  504 -0.21695092498E+02 -0.16204566523E+01 -0.78564764520E+01  0.23130653698E+02  0.00000000000E+00 0.  1.
         21    1    1    2  504  501 -0.20355633965E+03  0.37213162691E+02 -0.15991303063E+03  0.26151898641E+03  0.00000000000E+00 0.  1.
<mgrwt>
<rscale>  4 0.26005778E+03</rscale>
<asrwt>0</asrwt>
<pdfrwt beam="1">  1       21 0.51946938E-01 0.26005778E+03</pdfrwt>
<pdfrwt beam="2">  1       21 0.44117432E-01 0.26005778E+03</pdfrwt>
<totfact> 0.16726180E+04</totfact>
</mgrwt>
</event>
<event>
 5    0  0.1063044E+001  0.3335210E+03  0.7546771E-02  0.1069589E+00
         21   -1    0    0  502  501  0.00000000000E+00  0.00000000000E+00  0.19419273328E+04  0.19419273328E+04  0.00000000000E+00 0.  1.
         21   -1    0    0  503  502 -0.00000000000E+00 -0.00000000000E+00 -0.73062876855E+02  0.73062876855E+02  0.00000000000E+00 0.  1.
         25    1    1    2    0    0  0.30426802709E+03 -0.55065903004E+02  0.14696605936E+04  0.15070297098E+04  0.12500000000E+03 0.  0.
         21    1    1    2  503  504 -0.28818337909E+03  0.39029585186E+02  0.36165802978E+03  0.46407919476E+03  0.00000000000E+00 0.  1.
         21    1    1    2  504  501 -0.16084647992E+02  0.16036317818E+02  0.37545832610E+02  0.43881305092E+02  0.00000000000E+00 0. -1.
<mgrwt>
<rscale>  4 0.33352104E+03</rscale>
<asrwt>0</asrwt>
<pdfrwt beam="1">  1       21 0.29875801E+00 0.33352104E+03</pdfrwt>
<pdfrwt beam="2">  1       21 0.11240444E-01 0.33352104E+03</pdfrwt>
<totfact> 0.20046288E+03</totfact>
</mgrwt>
</event>
<event>
 5    0  0.2593378E+000  0.2777675E+03  0.7546771E-02  0.1096915E+00
         21   -1    0    0  502  501  0.00000000000E+00  0.00000000000E+00  0.62671851581E+03  0.62671851581E+03  0.00000000000E+00 0. -1.
         21   -1    0    0  503  502 -0.00000000000E+00 -0.00000000000E+00 -0.17878767069E+03  0.17878767069E+03  0.00000000000E+00 0. -1.
         25    1    1    2    0    0  0.32377040128E+02  0.24592987041E+03  0.47788470671E+03  0.55274638560E+03  0.12500000000E+03 0.  0.
         21    1    1    2  503  504 -0.13553328460E+02 -0.20206217008E+02 -0.41141112257E+00  0.24334197691E+02  0.00000000000E+00 0. -1.
         21    1    1    2  504  501 -0.18823711668E+02 -0.22572365340E+03 -0.29542450462E+02  0.22842560322E+03  0.00000000000E+00 0. -1.
<mgrwt>
<rscale>  4 0.27776748E+03</rscale>
<asrwt>0</asrwt>
<pdfrwt beam="1">  1       21 0.96418232E-01 0.27776748E+03</pdfrwt>
<pdfrwt beam="2">  1       21 0.27505796E-01 0.27776748E+03</pdfrwt>
<totfact> 0.10726897E+04</totfact>
</mgrwt>
</event>
