<LesHouchesEvents version="3.0">
  <!--
  <scalesfunctionalform>
    muR  H_T/2 := sum_i mT(i)/2, i=final state
    muF1 H_T/2 := sum_i mT(i)/2, i=final state
    muF2 H_T/2 := sum_i mT(i)/2, i=final state
    QES  H_T/2 := sum_i mT(i)/2, i=final state
  </scalesfunctionalform>
HERWIG6   
  -->
  <header>
       38
  </header>
  <init>
   2212   2212 0.65000000D+04 0.65000000D+04 -1 -1   244800   244800 -4   1
 0.49112503D-04 0.25843154D-05 0.15113768D-05     66
  </init>
  <event>
  7     66 0.15113768E-05 0.12061095E+03 0.75467711E-02 0.90950425E-01
       -1 -1    0    0    0  501 0.00000000E+00 0.00000000E+00 0.40371078E+03 0.40371090E+03 0.32000000E+00 0.0000E+00 0.9000E+01
        1 -1    0    0  503    0 0.00000000E+00 0.00000000E+00 -.14636907E+04 0.14636907E+04 0.32000000E+00 0.0000E+00 0.9000E+01
       23  2    1    2    0    0 0.59846602E+03 -.33026498E+03 -.45172094E+03 0.82316682E+03 0.79468699E+02 0.0000E+00 0.0000E+00
       25  1    1    2    0    0 -.51209569E+03 0.21059936E+03 -.18665101E+03 0.59754304E+03 0.12500000E+03 0.0000E+00 0.9000E+01
        1  1    3    3  502    0 0.39734822E+03 -.25065468E+03 -.27931529E+03 0.54656244E+03 0.32000000E+00 0.0000E+00 0.9000E+01
       -1  1    3    3    0  502 0.20111780E+03 -.79610309E+02 -.17240565E+03 0.27660438E+03 0.32000000E+00 0.0000E+00 0.9000E+01
       21  1    1    2  503  501 -.86370327E+02 0.11966562E+03 -.42160797E+03 0.44669177E+03 0.75000000E+00 0.0000E+00 0.9000E+01
#aMCatNLO 2  0  0  2  1 0.21682965D+02 0.00000000D+00  -5  6  0 0.00000000D+00 0.00000000D+00 0.00000000D+00 0.00000000D+00 0.00000000D+00
  <mgrwgt>
 0.1024626123D-03    1    2    0
 0.630301132942254D+03 0.000000000000000D+00 0.000000000000000D+00 0.630301132942254D+03
 0.630301132942254D+03 0.000000000000000D+00 0.000000000000000D+00 -.630301132942254D+03
 0.633993703608493D+03 -.553371544427333D+03 0.267786835489228D+03 0.916141952537194D+02
 0.423519999649595D+03 0.366800682804582D+03 -.208329596074277D+03 -.377521998936992D+02
 0.203088562626420D+03 0.186570861622751D+03 -.594572394149510D+02 -.538619953600202D+02
 0.000000000000000D+00 -.000000000000000D+00 0.000000000000000D+00 -.000000000000000D+00
 0.654952381857365D+03 0.000000000000000D+00 0.000000000000000D+00 0.654952381857365D+03
 0.902213682836034D+03 0.000000000000000D+00 0.000000000000000D+00 -.902213682836034D+03
 0.574988910695143D+03 -.512095690104941D+03 0.210599360935270D+03 0.916141952537194D+02
 0.471319975660759D+03 0.397351398774999D+03 -.250657449024753D+03 -.377521998936992D+02
 0.222902588401770D+03 0.201114618070891D+03 -.796075358885427D+02 -.538619953600202D+02
 0.287954589935727D+03 -.863703267409487D+02 0.119665623978026D+03 -.247261300978669D+03
0.401497658584D-04 0.000000000000D+00 0.000000000000D+00 0.525425929534D-06 0.157234996870D-09  6 -1 1 25 1 -1 21 2 0.62109318D-01 0.22518303D+00 0.49092838D+06 0.49092838D+06 0.49092838D+06 0.10690728D+01  1  2  1  2  6  2        1 0.102462612345D-03 0.100000000000D+01
  </mgrwgt>
  </event>
  <event>
  7     66 0.15113768E-05 0.48338107E+02 0.75467711E-02 0.90835444E-01
       -1 -1    0    0    0  501 0.00000000E+00 0.00000000E+00 0.11776436E+04 0.11776436E+04 0.32000000E+00 0.0000E+00 0.9000E+01
        1 -1    0    0  503    0 0.00000000E+00 0.00000000E+00 -.46572869E+03 0.46572880E+03 0.32000000E+00 0.0000E+00 0.9000E+01
       23  2    1    2    0    0 -.44158047E+03 -.53304497E+03 0.34686369E+03 0.77968165E+03 0.91971693E+02 0.0000E+00 0.0000E+00
       25  1    1    2    0    0 0.39328772E+03 0.53564093E+03 0.41563574E+03 0.79370304E+03 0.12500000E+03 0.0000E+00 0.9000E+01
        1  1    3    3  502    0 -.26720800E+03 -.33166039E+03 0.16314877E+03 0.45608810E+03 0.32000000E+00 0.0000E+00 0.9000E+01
       -1  1    3    3    0  502 -.17437247E+03 -.20138458E+03 0.18371492E+03 0.32359355E+03 0.32000000E+00 0.0000E+00 0.9000E+01
       21  1    1    2  503  501 0.48292748E+02 -.25959574E+01 -.50584530E+02 0.69987754E+02 0.75000000E+00 0.0000E+00 0.9000E+01
#aMCatNLO 2  0  0  2  1 0.21682965D+02 0.00000000D+00  -5  6  0 0.00000000D+00 0.00000000D+00 0.00000000D+00 0.00000000D+00 0.00000000D+00
  <mgrwgt>
 0.3121059135D-03    1    2    0
 0.687712702693292D+03 0.000000000000000D+00 0.000000000000000D+00 0.687712702693292D+03
 0.687712702693292D+03 0.000000000000000D+00 0.000000000000000D+00 -.687712702693292D+03
 0.690317790463361D+03 0.417286131913886D+03 0.534350905534124D+03 0.354266241325052D+02
 0.422531540925481D+03 -.252229149328380D+03 -.332467211622609D+03 -.661733519011241D+02
 0.262576073997742D+03 -.165056982585506D+03 -.201883693911515D+03 0.307467277686189D+02
 0.000000000000000D+00 0.000000000000000D+00 -.000000000000000D+00 -.000000000000000D+00
 0.693852482845479D+03 0.000000000000000D+00 0.000000000000000D+00 0.693852482845479D+03
 0.790456912786294D+03 0.000000000000000D+00 0.000000000000000D+00 -.790456912786294D+03
 0.677101533188049D+03 0.393287724524671D+03 0.535640930368831D+03 0.354266241325052D+02
 0.431021217763834D+03 -.267209123998122D+03 -.331661969048224D+03 -.661733519011241D+02
 0.268152648194408D+03 -.174371348609173D+03 -.201383003874246D+03 0.307467277686189D+02
 0.108033996485481D+03 0.482927480826239D+02 -.259595744636075D+01 -.966044299408147D+02
0.236609836224D-03 0.000000000000D+00 0.000000000000D+00 0.510519114250D-04 0.134107092026D-06  6 -1 1 25 1 -1 21 2 0.18117561D+00 0.71650446D-01 0.50185316D+06 0.50185316D+06 0.50185316D+06 0.10683969D+01  1  2  1  2  6  2        1 0.312105913473D-03 0.100000000000D+01
  </mgrwgt>
  </event>
  <event>
  7     66 0.15113768E-05 0.34772638E+03 0.75467711E-02 0.88866903E-01
       21 -1    0    0  503  501 0.00000000E+00 0.00000000E+00 0.48550929E+03 0.48550986E+03 0.75000000E+00 0.0000E+00 0.9000E+01
        1 -1    0    0  501    0 0.00000000E+00 0.00000000E+00 -.25215339E+04 0.25215340E+04 0.32000000E+00 0.0000E+00 0.9000E+01
       23  2    1    2    0    0 -.21319331E+03 -.43588244E+03 -.15570760E+04 0.16334429E+04 0.90582218E+02 0.0000E+00 0.0000E+00
       25  1    1    2    0    0 0.47111269E+03 0.70705355E+03 -.50877586E+03 0.99817321E+03 0.12500000E+03 0.0000E+00 0.9000E+01
        1  1    3    3  502    0 -.16062693E+03 -.32221727E+03 -.10110997E+04 0.10732883E+04 0.32000000E+00 0.0000E+00 0.9000E+01
        1  1    1    2  503    0 -.25791938E+03 -.27117111E+03 0.29827239E+02 0.37542768E+03 0.32000000E+00 0.0000E+00 0.9000E+01
       -1  1    3    3    0  502 -.52566380E+02 -.11366517E+03 -.54597634E+03 0.56015468E+03 0.32000000E+00 0.0000E+00 0.9000E+01
#aMCatNLO 2  0  0  1  2 0.69874849D+01 0.00000000D+00  -5  6  0 0.00000000D+00 0.00000000D+00 0.00000000D+00 0.00000000D+00 0.00000000D+00
  <mgrwgt>
 0.1838577079D-04    1    2    0
 0.793347861420249D+03 0.000000000000000D+00 0.000000000000000D+00 0.793347861420249D+03
 0.793347861420249D+03 0.000000000000000D+00 0.000000000000000D+00 -.793347861420249D+03
 0.795686010351318D+03 0.329821721309122D+03 0.558503145599025D+03 0.443602407091620D+03
 0.544850029278579D+03 -.240494341093340D+03 -.406189404474982D+03 -.272092252736472D+03
 0.000000000000000D+00 -.000000000000000D+00 -.000000000000000D+00 0.000000000000000D+00
 0.246159683210601D+03 -.893273802157821D+02 -.152313741124043D+03 -.171510154355148D+03
 0.139898144995572D+04 0.000000000000000D+00 0.000000000000000D+00 0.139898144995572D+04
 0.875085898910477D+03 0.000000000000000D+00 0.000000000000000D+00 -.875085898910477D+03
 0.966581598507351D+03 0.471112688712630D+03 0.707053552094538D+03 0.443602407091620D+03
 0.451288474221378D+03 -.160628279820986D+03 -.322219876307471D+03 -.272092252736472D+03
 0.643834392188073D+03 -.257919377801903D+03 -.271171109658573D+03 0.523895551045248D+03
 0.212362883949400D+03 -.525650310897408D+02 -.113662566128494D+03 -.171510154355148D+03
0.751092567988D-05 0.000000000000D+00 0.000000000000D+00 0.198879842229D-04 0.381366182845D-10  6 21 1 25 1 1 -1 2 0.74693779D-01 0.38792833D+00 0.73812468D+06 0.73812468D+06 0.73812468D+06 0.10567566D+01  1  2  1  5  5  1       -1 0.183857707893D-04 0.100000000000D+01
  </mgrwgt>
  </event>
  <event>
  7     66 0.15113768E-05 0.41779527E+02 0.75467711E-02 0.88550961E-01
       -1 -1    0    0    0  503 0.00000000E+00 0.00000000E+00 0.35836210E+03 0.35836225E+03 0.32000000E+00 0.0000E+00 0.9000E+01
        1 -1    0    0  501    0 0.00000000E+00 0.00000000E+00 -.26072102E+04 0.26072102E+04 0.32000000E+00 0.0000E+00 0.9000E+01
       23  2    1    2    0    0 0.87091639E+03 0.18692642E+01 -.10962786E+04 0.14031065E+04 0.91554452E+02 0.0000E+00 0.0000E+00
       25  1    1    2    0    0 -.87653803E+03 -.14908346E+02 -.12121808E+04 0.15011824E+04 0.12500000E+03 0.0000E+00 0.9000E+01
        1  1    3    3  502    0 0.19127928E+03 -.30109555E+02 -.20780165E+03 0.28403517E+03 0.32000000E+00 0.0000E+00 0.9000E+01
       -1  1    3    3    0  502 0.67963711E+03 0.31978820E+02 -.88847691E+03 0.11190713E+04 0.32000000E+00 0.0000E+00 0.9000E+01
       21  1    1    2  501  503 0.56216485E+01 0.13039081E+02 0.59611262E+02 0.61283649E+02 0.75000000E+00 0.0000E+00 0.9000E+01
#aMCatNLO 2  0  0  1  2 0.69874849D+01 0.00000000D+00  -5  6  0 0.00000000D+00 0.00000000D+00 0.00000000D+00 0.00000000D+00 0.00000000D+00
  <mgrwgt>
 0.1622488746D-03    1    2    0
 0.881150855374207D+03 0.000000000000000D+00 0.000000000000000D+00 0.881150855374207D+03
 0.881150855374207D+03 0.000000000000000D+00 0.000000000000000D+00 -.881150855374207D+03
 0.883205776606765D+03 -.873716110729696D+03 -.836306127761824D+01 -.312675692850876D+02
 0.196272138779826D+03 0.191898773013141D+03 -.286595975507194D+02 0.296013656017634D+02
 0.682823795361824D+03 0.681817337716556D+03 0.370226588283377D+02 0.166620368332415D+01
 0.000000000000000D+00 0.000000000000000D+00 0.000000000000000D+00 0.000000000000000D+00
 0.105997147153037D+04 0.000000000000000D+00 0.000000000000000D+00 0.105997147153037D+04
 0.881461377345524D+03 0.000000000000000D+00 0.000000000000000D+00 -.881461377345524D+03
 0.886083429912752D+03 -.876538034033700D+03 -.149083456253745D+02 -.312675692850876D+02
 0.195878412047113D+03 0.191273313493024D+03 -.301103139473569D+02 0.296013656017634D+02
 0.680397071622295D+03 0.679643072074246D+03 0.319795781548518D+02 0.166620368332415D+01
 0.179073935293738D+03 0.562164846642949D+01 0.130390814178797D+02 0.178510094184849D+03
0.321816223094D-03 0.000000000000D+00 0.000000000000D+00 0.334372750727D-04 0.100124676258D-05  6 -1 1 25 1 -1 21 2 0.55132595D-01 0.40110892D+00 0.78655146D+06 0.78655146D+06 0.78655146D+06 0.10548764D+01  1  2  1  1  6  1       -1 0.162248874633D-03 0.100000000000D+01
  </mgrwgt>
  </event>
  <event>
  6     66 0.15113768E-05 0.40201329E+02 0.75467711E-02 0.90395591E-01
       -1 -1    0    0    0  501 0.00000000E+00 0.00000000E+00 0.52927778E+03 0.52927788E+03 0.32000000E+00 0.0000E+00 0.9000E+01
        1 -1    0    0  501    0 -.00000000E+00 -.00000000E+00 -.11205425E+04 0.11205426E+04 0.32000000E+00 0.0000E+00 0.9000E+01
       25  1    1    2    0    0 0.48406104E+03 0.53925797E+03 -.21071218E+03 0.76494370E+03 0.12500000E+03 0.0000E+00 0.9000E+01
        1  1    1    2  503    0 -.34596543E+03 -.42026868E+03 -.30745595E+03 0.62517766E+03 0.32000000E+00 0.0000E+00 0.9000E+01
       -1  1    1    2    0  502 -.14814708E+03 -.10645191E+03 -.11442977E+03 0.21534586E+03 0.32000000E+00 0.0000E+00 0.9000E+01
       21  1    1    2  502  503 0.10051471E+02 -.12537386E+02 0.41333145E+02 0.44353235E+02 0.75000000E+00 0.0000E+00 0.9000E+01
#aMCatNLO 2  0  0  0  0 0.00000000D+00 0.00000000D+00  -5  6  0 0.00000000D+00 0.00000000D+00 0.00000000D+00 0.00000000D+00 0.00000000D+00
  <mgrwgt>
 0.9547211673D-03    1    2    0
 0.770115825216296D+03 0.000000000000000D+00 0.000000000000000D+00 0.770115825216296D+03
 0.770115825216296D+03 -.000000000000000D+00 -.000000000000000D+00 -.770115825216296D+03
 0.771184440409891D+03 0.504433220864042D+03 0.565506365757237D+03 0.696427821607310D+02
 0.589907197663643D+03 -.361213077649965D+03 -.465410328195959D+03 -.301469865582422D+02
 0.179140012359057D+03 -.143220143214078D+03 -.100096037561278D+03 -.394957956024889D+02
 0.000000000000000D+00 0.000000000000000D+00 0.000000000000000D+00 0.000000000000000D+00
 0.770115825216296D+03 0.000000000000000D+00 0.000000000000000D+00 0.770115825216296D+03
 0.770115825216296D+03 -.000000000000000D+00 -.000000000000000D+00 -.770115825216296D+03
 0.738448298999355D+03 0.484040328271499D+03 0.539230841913779D+03 0.679407832661428D+02
 0.551581210129558D+03 -.345936771182213D+03 -.420210946532145D+03 -.893999000366943D+02
 0.186760924878406D+03 -.148162920565021D+03 -.106464632087446D+03 -.399083217583211D+02
 0.634412164252725D+02 0.100593634757341D+02 -.125552632941875D+02 0.613674385288726D+02
0.372091840786D-03 0.000000000000D+00 0.000000000000D+00 0.113713722525D-06 0.241490179309D-07  6 -1 1 25 1 -1 21 2 0.81427362D-01 0.17239117D+00 0.54622409D+06 0.54622409D+06 0.54622409D+06 0.10658070D+01  1  2  1  3  6  4        1 0.954721167330D-03 0.100000000000D+01
  </mgrwgt>
  </event>
  <event>
  6     66 0.15113768E-05 0.25342898E+02 0.75467711E-02 0.94253036E-01
       -1 -1    0    0    0  501 0.00000000E+00 0.00000000E+00 0.17921295E+03 0.17921324E+03 0.32000000E+00 0.0000E+00 0.9000E+01
        1 -1    0    0  501    0 0.00000000E+00 0.00000000E+00 -.13340777E+04 0.13340778E+04 0.32000000E+00 0.0000E+00 0.9000E+01
       23  2    1    2    0    0 -.41679952E+03 0.21977674E+03 -.68372842E+03 0.83533959E+03 0.91016608E+02 0.0000E+00 0.0000E+00
       25  1    1    2    0    0 0.41679952E+03 -.21977674E+03 -.47113637E+03 0.67795143E+03 0.12500000E+03 0.0000E+00 0.9000E+01
        1  1    3    3  502    0 -.32898058E+02 -.56260598E+01 -.65377588E+02 0.73404810E+02 0.32000000E+00 0.0000E+00 0.9000E+01
       -1  1    3    3    0  502 -.38390146E+03 0.22540280E+03 -.61835083E+03 0.76193478E+03 0.32000000E+00 0.0000E+00 0.9000E+01
#aMCatNLO 1  0  0  2  5 0.65420319D+02 0.00000000D+00  -5  6  0 0.00000000D+00 0.00000000D+00 0.00000000D+00 0.00000000D+00 0.00000000D+00
  <mgrwgt>
 0.1457348921D-03    7    2    0
 0.488962425076667D+03 0.000000000000000D+00 0.000000000000000D+00 0.488962425076667D+03
 0.488962425076667D+03 0.000000000000000D+00 0.000000000000000D+00 -.488962425076667D+03
 0.492715769244517D+03 0.416799520398581D+03 -.219776739612724D+03 0.715553896148338D+02
 0.363786438909105D+02 -.328937195068148D+02 -.562891561064828D+01 -.144818595973332D+02
 0.448830437017906D+03 -.383905800891766D+03 0.225405655223372D+03 -.570735300175007D+02
 0.000000000000000D+00 -.000000000000000D+00 -.000000000000000D+00 -.000000000000000D+00
 0.496294033674794D+03 0.000000000000000D+00 0.000000000000000D+00 0.496294033674794D+03
 0.661557486277899D+03 0.000000000000000D+00 0.000000000000000D+00 -.661557486277899D+03
 0.506404965333913D+03 0.442866160875053D+03 -.198923047140604D+03 0.715553896148338D+02
 0.345064328828871D+02 -.310443576154420D+02 -.414939913106376D+01 -.144818595973332D+02
 0.439199223450223D+03 -.360737479896372D+03 0.243940649848758D+03 -.570735300175007D+02
 0.177740898285670D+03 -.510843233632384D+02 -.408682035770908D+02 -.165263452603104D+03
0.254369000380D-05 0.000000000000D+00 0.000000000000D+00 0.195916005389D-04 0.000000000000D+00  6 -1 1 25 1 -1 21 0 0.27571248D-01 0.20524275D+00 0.23331362D+06 0.23331362D+06 0.23331362D+06 0.10927232D+01  1  2  2  2  6  2        1 0.303674762221D-04 0.100000000000D+01
0.666721728877D-06 0.000000000000D+00 -.976843938356D-08 0.195916005389D-04 0.000000000000D+00  6 -1 1 25 1 -1 21 2 0.27571248D-01 0.20524275D+00 0.23331362D+06 0.23331362D+06 0.23331362D+06 0.10927232D+01  1  2  3  2  6  2        1 0.950406608788D-05 0.100000000000D+01
-.713428849489D-06 0.000000000000D+00 0.000000000000D+00 0.195916005389D-04 0.000000000000D+00  6 -1 1 25 1 -1 21 2 0.27571248D-01 0.20524275D+00 0.23331362D+06 0.23331362D+06 0.23331362D+06 0.10927232D+01  1  2 15  2  6  2        1 -.101698724383D-04 0.100000000000D+01
-.211361634358D-05 0.000000000000D+00 0.000000000000D+00 0.195916005389D-04 0.000000000000D+00  6 -1 1 25 1 -1 21 2 0.27571248D-01 0.20524275D+00 0.23331362D+06 0.23331362D+06 0.23331362D+06 0.10927232D+01  1  2  4  2  6  2        1 -.301294356307D-04 0.100000000000D+01
-.207664816724D-04 0.000000000000D+00 -.167460390907D-05 0.195916005389D-04 0.000000000000D+00  6 -1 1 25 1 -1 21 2 0.27571248D-01 0.27905847D+00 0.23331362D+06 0.23331362D+06 0.23331362D+06 0.10927232D+01  1  2  5  2  6  2        1 -.141310159879D-03 0.100000000000D+01
0.203872477029D-04 0.000000000000D+00 0.159856515262D-05 0.195916005389D-04 0.000000000000D+00  6 -1 1 25 1 -1 21 2 0.27571248D-01 0.20524275D+00 0.23331362D+06 0.23331362D+06 0.23331362D+06 0.10927232D+01  1  2  6  2  6  2        1 0.290618621121D-03 0.100000000000D+01
-.777697823887D-06 0.000000000000D+00 -.658545713081D-07 0.195916005389D-04 0.000000000000D+00  6 -1 21 25 1 -1 -1 2 0.27571248D-01 0.27905847D+00 0.23331362D+06 0.23331362D+06 0.23331362D+06 0.10927232D+01  1  2  5  6  6  2        1 -.314580340461D-05 0.100000000000D+01
  </mgrwgt>
  </event>
  <event>
  7     66 0.15113768E-05 0.42542085E+02 0.75467711E-02 0.93911082E-01
       -1 -1    0    0    0  501 0.00000000E+00 0.00000000E+00 0.10267684E+04 0.10267685E+04 0.32000000E+00 0.0000E+00 0.9000E+01
        1 -1    0    0  503    0 0.00000000E+00 0.00000000E+00 -.46520142E+03 0.46520153E+03 0.32000000E+00 0.0000E+00 0.9000E+01
       23  2    1    2    0    0 -.37882530E+03 0.36088817E+03 0.67092598E+02 0.53536388E+03 0.91455951E+02 0.0000E+00 0.0000E+00
       25  1    1    2    0    0 0.36508888E+03 -.35117816E+03 0.63115043E+03 0.81889673E+03 0.12500000E+03 0.0000E+00 0.9000E+01
        1  1    3    3  502    0 -.27210048E+03 0.29601659E+03 0.22346795E+02 0.40269589E+03 0.32000000E+00 0.0000E+00 0.9000E+01
       -1  1    3    3    0  502 -.10672481E+03 0.64871581E+02 0.44745804E+02 0.13266799E+03 0.32000000E+00 0.0000E+00 0.9000E+01
       21  1    1    2  503  501 0.13736414E+02 -.97100062E+01 -.13667603E+03 0.13770938E+03 0.75000000E+00 0.0000E+00 0.9000E+01
#aMCatNLO 2  0  0  2  5 0.65420319D+02 0.00000000D+00  -5  6  0 0.00000000D+00 0.00000000D+00 0.00000000D+00 0.00000000D+00 0.00000000D+00
  <mgrwgt>
 0.4733022948D-03    1    2    0
 0.580128327241461D+03 0.000000000000000D+00 0.000000000000000D+00 0.580128327241461D+03
 0.580128327241461D+03 0.000000000000000D+00 0.000000000000000D+00 -.580128327241461D+03
 0.583257293995283D+03 0.371950429706802D+03 -.356028460485789D+03 0.243845615428584D+03
 0.450886695088321D+03 -.266731241316312D+03 0.292222573225171D+03 -.216238813378143D+03
 0.126112665399318D+03 -.105219188390490D+03 0.638058872606177D+02 -.276068020504405D+02
 0.000000000000000D+00 0.000000000000000D+00 -.000000000000000D+00 -.000000000000000D+00
 0.580480818407426D+03 0.000000000000000D+00 0.000000000000000D+00 0.580480818407426D+03
 0.822858003554101D+03 0.000000000000000D+00 0.000000000000000D+00 -.822858003554101D+03
 0.575935480704824D+03 0.365088880852824D+03 -.351178163968925D+03 0.243845615428584D+03
 0.456537508599956D+03 -.272102509703056D+03 0.296019419229155D+03 -.216238813378143D+03
 0.127905603038448D+03 -.106722785373433D+03 0.648687509615601D+02 -.276068020504405D+02
 0.242960229618300D+03 0.137364142236657D+02 -.971000622179027D+01 -.242377185146675D+03
0.216894663291D-03 0.000000000000D+00 0.000000000000D+00 0.444926935779D-04 0.105393485353D-05  6 -1 1 25 1 -1 21 2 0.15796423D+00 0.71569390D-01 0.28385371D+06 0.28385371D+06 0.28385371D+06 0.10863340D+01  1  2  1  2  6  2        1 0.473302294833D-03 0.100000000000D+01
  </mgrwgt>
  </event>
  <event>
  7     66 0.15113768E-05 0.38961718E+02 0.75467711E-02 0.94915850E-01
       -1 -1    0    0    0  501 0.00000000E+00 0.00000000E+00 0.41747767E+03 0.41747779E+03 0.32000000E+00 0.0000E+00 0.9000E+01
        1 -1    0    0  503    0 0.00000000E+00 0.00000000E+00 -.85498131E+03 0.85498137E+03 0.32000000E+00 0.0000E+00 0.9000E+01
       23  2    1    2    0    0 -.44076841E+03 0.18307078E+03 0.11257215E+03 0.49889377E+03 0.91819421E+02 0.0000E+00 0.0000E+00
       25  1    1    2    0    0 0.42277540E+03 -.18468274E+03 -.40248928E+03 0.62487549E+03 0.12500000E+03 0.0000E+00 0.9000E+01
        1  1    3    3  502    0 -.34013884E+03 0.15805898E+03 0.51595269E+02 0.37860170E+03 0.32000000E+00 0.0000E+00 0.9000E+01
       -1  1    3    3    0  502 -.10062957E+03 0.25011793E+02 0.60976883E+02 0.12029208E+03 0.32000000E+00 0.0000E+00 0.9000E+01
       21  1    1    2  503  501 0.17993013E+02 0.16119642E+01 -.14758651E+03 0.14868990E+03 0.75000000E+00 0.0000E+00 0.9000E+01
#aMCatNLO 2  0  0  2  5 0.65420319D+02 0.00000000D+00  -5  6  0 0.00000000D+00 0.00000000D+00 0.00000000D+00 0.00000000D+00 0.00000000D+00
  <mgrwgt>
 0.2238933045D-03    1    2    0
 0.542788877335583D+03 0.000000000000000D+00 0.000000000000000D+00 0.542788877335583D+03
 0.542788877335583D+03 0.000000000000000D+00 0.000000000000000D+00 -.542788877335583D+03
 0.546102409661431D+03 0.431769783717926D+03 -.183876949230271D+03 -.249733784754817D+03
 0.400300581444841D+03 -.333463075670550D+03 0.158658930759482D+03 0.154500085306360D+03
 0.139174763564894D+03 -.983067080473753D+02 0.252180184707883D+02 0.952336994484575D+02
 0.000000000000000D+00 0.000000000000000D+00 0.000000000000000D+00 -.000000000000000D+00
 0.543581144520799D+03 0.000000000000000D+00 0.000000000000000D+00 0.543581144520799D+03
 0.656634459885514D+03 0.000000000000000D+00 0.000000000000000D+00 -.656634459885514D+03
 0.539294645493856D+03 0.422775397153083D+03 -.184682741403823D+03 -.249733784754817D+03
 0.405647428482913D+03 -.340141744935429D+03 0.158060599857804D+03 0.154500085306360D+03
 0.140785980555363D+03 -.100626665655182D+03 0.250101773167677D+02 0.952336994484575D+02
 0.114487549874181D+03 0.179930134375280D+02 0.161196422925109D+01 -.113053315364715D+03
0.310866410837D-04 0.000000000000D+00 0.000000000000D+00 0.366597777047D-04 0.725341471016D-06  6 -1 1 25 1 -1 21 2 0.64227203D-01 0.13153530D+00 0.23756518D+06 0.23756518D+06 0.23756518D+06 0.10921299D+01  1  2  1  2  6  2        1 0.223893304479D-03 0.100000000000D+01
  </mgrwgt>
  </event>
  <event>
  7     66 0.15113768E-05 0.30645294E+02 0.75467711E-02 0.94061311E-01
       -1 -1    0    0    0  501 0.00000000E+00 0.00000000E+00 0.12758807E+04 0.12758807E+04 0.32000000E+00 0.0000E+00 0.9000E+01
        1 -1    0    0  503    0 0.00000000E+00 0.00000000E+00 -.26807623E+03 0.26807642E+03 0.32000000E+00 0.0000E+00 0.9000E+01
       23  2    1    2    0    0 0.49762527E+03 -.97785341E+02 0.73122656E+03 0.89425767E+03 0.88383319E+02 0.0000E+00 0.0000E+00
       25  1    1    2    0    0 -.50518460E+03 0.10475450E+03 0.30998611E+03 0.61473683E+03 0.12500000E+03 0.0000E+00 0.9000E+01
        1  1    3    3  502    0 0.42572572E+03 -.10334065E+03 0.58135931E+03 0.72794260E+03 0.32000000E+00 0.0000E+00 0.9000E+01
       -1  1    3    3    0  502 0.71899550E+02 0.55553076E+01 0.14986725E+03 0.16631507E+03 0.32000000E+00 0.0000E+00 0.9000E+01
       21  1    1    2  503  501 0.75593258E+01 -.69691584E+01 -.33408234E+02 0.34962625E+02 0.75000000E+00 0.0000E+00 0.9000E+01
#aMCatNLO 2  0  0  2  5 0.65420319D+02 0.00000000D+00  -5  6  0 0.00000000D+00 0.00000000D+00 0.00000000D+00 0.00000000D+00 0.00000000D+00
  <mgrwgt>
 0.6728397848D-03    1    2    0
 0.546084897538920D+03 0.000000000000000D+00 0.000000000000000D+00 0.546084897538920D+03
 0.546084897538920D+03 0.000000000000000D+00 0.000000000000000D+00 -.546084897538920D+03
 0.549661900389759D+03 -.501365933406058D+03 0.101233963299161D+03 -.157756426920420D+03
 0.455136522222929D+03 0.428867916664568D+03 -.106234678942413D+03 0.109250889730833D+03
 0.873713724651521D+02 0.724980167414893D+02 0.500071564325133D+01 0.485055371895869D+02
 0.000000000000000D+00 0.000000000000000D+00 -.000000000000000D+00 -.000000000000000D+00
 0.546440203462360D+03 0.000000000000000D+00 0.000000000000000D+00 0.546440203462360D+03
 0.625926235941054D+03 0.000000000000000D+00 0.000000000000000D+00 -.625926235941054D+03
 0.553802378037996D+03 -.505184598422921D+03 0.104754499674781D+03 -.157756426920420D+03
 0.451510444593106D+03 0.425730360585491D+03 -.103342076355341D+03 0.109250889730833D+03
 0.869053670433704D+02 0.718949120452844D+02 0.555673509295967D+01 0.485055371895869D+02
 0.801482497289420D+02 0.755932579214496D+01 -.696915841240024D+01 -.794860324786936D+02
0.300188323232D-03 0.000000000000D+00 0.000000000000D+00 0.605627147353D-05 0.364655144348D-06  6 -1 1 25 1 -1 21 2 0.19628872D+00 0.41242382D-01 0.27633015D+06 0.27633015D+06 0.27633015D+06 0.10872025D+01  1  2  1  2  6  2        1 0.672839784796D-03 0.100000000000D+01
  </mgrwgt>
  </event>
  <event>
  7     66 0.15113768E-05 0.42772648E+02 0.75467711E-02 0.93050579E-01
       -1 -1    0    0    0  503 0.00000000E+00 0.00000000E+00 0.45378911E+03 0.45378922E+03 0.32000000E+00 0.0000E+00 0.9000E+01
        1 -1    0    0  501    0 0.00000000E+00 0.00000000E+00 -.80626200E+03 0.80626206E+03 0.32000000E+00 0.0000E+00 0.9000E+01
       23  2    1    2    0    0 -.17028337E+03 -.53152092E+03 -.10660150E+03 0.57601344E+03 0.94428225E+02 0.0000E+00 0.0000E+00
       25  1    1    2    0    0 0.19309123E+03 0.50652998E+03 -.29084609E+03 0.62775257E+03 0.12500000E+03 0.0000E+00 0.9000E+01
        1  1    3    3  502    0 -.14887279E+03 -.37245436E+03 -.43129429E+02 0.40341741E+03 0.32000000E+00 0.0000E+00 0.9000E+01
       -1  1    3    3    0  502 -.21410586E+02 -.15906656E+03 -.63472074E+02 0.17259603E+03 0.32000000E+00 0.0000E+00 0.9000E+01
       21  1    1    2  501  503 -.22807861E+02 0.24990943E+02 0.44974701E+02 0.56285273E+02 0.75000000E+00 0.0000E+00 0.9000E+01
#aMCatNLO 2  0  0  1  5 0.34590655D+02 0.00000000D+00  -5  6  0 0.00000000D+00 0.00000000D+00 0.00000000D+00 0.00000000D+00 0.00000000D+00
  <mgrwgt>
 0.2144547881D-03    1    2    0
 0.567878347310018D+03 0.000000000000000D+00 0.000000000000000D+00 0.567878347310018D+03
 0.567878347310018D+03 0.000000000000000D+00 0.000000000000000D+00 -.567878347310018D+03
 0.570831581423575D+03 0.181706007455808D+03 0.519004951039754D+03 -.885464962673944D+02
 0.407278439380088D+03 -.157101678042634D+03 -.363441879848263D+03 0.954190228016896D+02
 0.157646673816372D+03 -.246043294131733D+02 -.155563071191492D+03 -.687252653429514D+01
 0.000000000000000D+00 -.000000000000000D+00 0.000000000000000D+00 0.000000000000000D+00
 0.639475763767943D+03 0.000000000000000D+00 0.000000000000000D+00 0.639475763767943D+03
 0.572141545682176D+03 0.000000000000000D+00 0.000000000000000D+00 -.572141545682176D+03
 0.563313697743697D+03 0.193091232727285D+03 0.506529975330487D+03 -.885464962673944D+02
 0.412301352677236D+03 -.148874248336826D+03 -.372456807816952D+03 0.954190228016896D+02
 0.160645489739957D+03 -.214091232514941D+02 -.159064110327969D+03 -.687252653429514D+01
 0.753567692892299D+02 -.228078611389649D+02 0.249909428144345D+02 0.673342180857667D+02
0.328847210335D-04 0.000000000000D+00 0.000000000000D+00 0.451156027438D-05 0.247282490475D-07  6 -1 1 25 1 -1 21 2 0.69813496D-01 0.12403992D+00 0.33163283D+06 0.33163283D+06 0.33163283D+06 0.10813455D+01  1  2  1  1  6  1       -1 0.214454788139D-03 0.100000000000D+01
  </mgrwgt>
  </event>
  <event>
  7     66 0.15113768E-05 0.60122504E+02 0.75467711E-02 0.93512926E-01
       -1 -1    0    0    0  501 0.00000000E+00 0.00000000E+00 0.25166428E+03 0.25166449E+03 0.32000000E+00 0.0000E+00 0.9000E+01
        1 -1    0    0  503    0 0.00000000E+00 0.00000000E+00 -.15999845E+04 0.15999845E+04 0.32000000E+00 0.0000E+00 0.9000E+01
       23  2    1    2    0    0 0.30784497E+03 0.44552679E+03 -.22270806E+03 0.59271911E+03 0.91947909E+02 0.0000E+00 0.0000E+00
       25  1    1    2    0    0 -.26882372E+03 -.40619257E+03 -.95150864E+03 0.10762213E+04 0.12500000E+03 0.0000E+00 0.9000E+01
        1  1    3    3  502    0 0.13220659E+03 0.25340280E+03 -.14821278E+03 0.32196071E+03 0.32000000E+00 0.0000E+00 0.9000E+01
       -1  1    3    3    0  502 0.17563837E+03 0.19212398E+03 -.74495277E+02 0.27075840E+03 0.32000000E+00 0.0000E+00 0.9000E+01
       21  1    1    2  503  501 -.39021243E+02 -.39334222E+02 -.17410348E+03 0.18270857E+03 0.75000000E+00 0.0000E+00 0.9000E+01
#aMCatNLO 2  0  0  2  5 0.65420319D+02 0.00000000D+00  -5  6  0 0.00000000D+00 0.00000000D+00 0.00000000D+00 0.00000000D+00 0.00000000D+00
  <mgrwgt>
 0.3038367228D-03    1    2    0
 0.592348585701985D+03 0.000000000000000D+00 0.000000000000000D+00 0.592348585701985D+03
 0.592348585701985D+03 0.000000000000000D+00 0.000000000000000D+00 -.592348585701985D+03
 0.595374921174901D+03 -.288045288111293D+03 -.425568303876878D+03 -.273437063135668D+03
 0.293891995671908D+03 0.122326567651870D+03 0.243444807031810D+03 0.110196832512437D+03
 0.295430254557162D+03 0.165718720459423D+03 0.182123496845068D+03 0.163240230623231D+03
 0.000000000000000D+00 -.000000000000000D+00 -.000000000000000D+00 -.000000000000000D+00
 0.603308820104526D+03 0.000000000000000D+00 0.000000000000000D+00 0.603308820104526D+03
 0.667414364180436D+03 0.000000000000000D+00 0.000000000000000D+00 -.667414364180436D+03
 0.572408441261351D+03 -.268823722992718D+03 -.406192567740135D+03 -.273437063135668D+03
 0.306325224874416D+03 0.132206066505109D+03 0.253403546695452D+03 0.110196832512437D+03
 0.307258419121840D+03 0.175638899115830D+03 0.192123242593669D+03 0.163240230623231D+03
 0.847310990273559D+02 -.390212426282211D+02 -.393342215489853D+02 -.641055440759100D+02
0.590589609709D-04 0.000000000000D+00 0.000000000000D+00 0.414580662455D-04 0.847432402165D-07  6 -1 1 25 1 -1 21 2 0.38717495D-01 0.24615081D+00 0.30492895D+06 0.30492895D+06 0.30492895D+06 0.10840286D+01  1  2  1  2  6  2        1 0.303836722770D-03 0.100000000000D+01
  </mgrwgt>
  </event>
  <event>
  6     66 0.15113768E-05 0.31347648E+02 0.75467711E-02 0.91028608E-01
       -1 -1    0    0    0  501 0.00000000E+00 0.00000000E+00 0.38525307E+03 0.38525320E+03 0.32000000E+00 0.0000E+00 0.9000E+01
        1 -1    0    0  501    0 -.00000000E+00 -.00000000E+00 -.14723031E+04 0.14723031E+04 0.32000000E+00 0.0000E+00 0.9000E+01
       25  1    1    2    0    0 -.57085150E+03 0.35782523E+03 -.20041280E+03 0.71393321E+03 0.12500000E+03 0.0000E+00 0.9000E+01
        1  1    1    2  502    0 0.39462159E+03 -.30911983E+03 -.70067602E+03 0.86152670E+03 0.32000000E+00 0.0000E+00 0.9000E+01
       -1  1    1    2    0  503 0.15069687E+03 -.74513254E+02 -.17816249E+03 0.24495662E+03 0.32000000E+00 0.0000E+00 0.9000E+01
       21  1    1    2  503  502 0.25533034E+02 0.25807851E+02 -.77986902E+01 0.37139777E+02 0.75000000E+00 0.0000E+00 0.9000E+01
#aMCatNLO 2  0  0  5  5 0.81887836D+02 0.00000000D+00  -5  6  0 0.00000000D+00 0.00000000D+00 0.00000000D+00 0.00000000D+00 0.00000000D+00
  <mgrwgt>
 0.2512606777D-01    1    2    0
 0.753133076305018D+03 0.000000000000000D+00 0.000000000000000D+00 0.753133076305018D+03
 0.753133076305018D+03 -.000000000000000D+00 -.000000000000000D+00 -.753133076305018D+03
 0.749112980965897D+03 -.584645894823856D+03 0.361637684990700D+03 0.270097428184336D+03
 0.547333281952606D+03 0.384380442326536D+03 -.306297326163355D+03 -.240847140475130D+03
 0.209819889691532D+03 0.200265452497320D+03 -.553403588273449D+02 -.292502877092055D+02
 0.000000000000000D+00 0.000000000000000D+00 0.000000000000000D+00 0.000000000000000D+00
 0.753133076305018D+03 0.000000000000000D+00 0.000000000000000D+00 0.753133076305018D+03
 0.753133076305018D+03 -.000000000000000D+00 -.000000000000000D+00 -.753133076305018D+03
 0.735754464557775D+03 -.570802532595953D+03 0.357812279143032D+03 0.268075500173391D+03
 0.556839879694841D+03 0.394674606351140D+03 -.309141964236697D+03 -.242350681179184D+03
 0.173333378761436D+03 0.150457151805570D+03 -.745687167184425D+02 -.429722253365578D+02
 0.403384295959834D+02 0.256707744392440D+02 0.258984018121081D+02 0.172474063423507D+02
0.911325540290D-02 0.000000000000D+00 0.000000000000D+00 0.958740777268D-08 0.106291293505D-07  6 -1 1 25 1 -1 21 2 0.59269716D-01 0.22650818D+00 0.48365165D+06 0.48365165D+06 0.48365165D+06 0.10695322D+01  1  2  1  4  6  5       -1 0.251260677714D-01 0.100000000000D+01
  </mgrwgt>
  </event>
  <event>
  7     66 0.15113768E-05 0.53946269E+02 0.75467711E-02 0.94589565E-01
       -1 -1    0    0    0  503 0.00000000E+00 0.00000000E+00 0.27445552E+03 0.27445570E+03 0.32000000E+00 0.0000E+00 0.9000E+01
        1 -1    0    0  501    0 0.00000000E+00 0.00000000E+00 -.10446166E+04 0.10446167E+04 0.32000000E+00 0.0000E+00 0.9000E+01
       23  2    1    2    0    0 0.43957562E+03 0.21439633E+03 -.49131703E+03 0.69684782E+03 0.70795152E+02 0.0000E+00 0.0000E+00
       25  1    1    2    0    0 -.42390574E+03 -.22426364E+03 -.31101083E+03 0.58510085E+03 0.12500000E+03 0.0000E+00 0.9000E+01
        1  1    3    3  502    0 0.24415028E+03 0.11830546E+03 -.32160533E+03 0.42075603E+03 0.32000000E+00 0.0000E+00 0.9000E+01
       -1  1    3    3    0  502 0.19542533E+03 0.96090875E+02 -.16971170E+03 0.27609180E+03 0.32000000E+00 0.0000E+00 0.9000E+01
       21  1    1    2  501  503 -.15669872E+02 0.98673102E+01 0.32166744E+02 0.37123720E+02 0.75000000E+00 0.0000E+00 0.9000E+01
#aMCatNLO 2  0  0  1  5 0.31530705D+03 0.00000000D+00  -5  6  0 0.00000000D+00 0.00000000D+00 0.00000000D+00 0.00000000D+00 0.00000000D+00
  <mgrwgt>
 0.5447838033D-03    1    2    0
 0.499829840147427D+03 0.000000000000000D+00 0.000000000000000D+00 0.499829840147427D+03
 0.499829840147427D+03 0.000000000000000D+00 0.000000000000000D+00 -.499829840147427D+03
 0.505138170021937D+03 -.431787809296901D+03 -.219300310359935D+03 0.707547343414572D+02
 0.278792429344447D+03 0.239761063320942D+03 0.121070429426627D+03 -.747114602550508D+02
 0.215729080928471D+03 0.192026745975959D+03 0.982298809333085D+02 0.395672591359358D+01
 0.000000000000000D+00 -.000000000000000D+00 0.000000000000000D+00 0.000000000000000D+00
 0.572135844111216D+03 0.000000000000000D+00 0.000000000000000D+00 0.572135844111216D+03
 0.501102613135204D+03 0.000000000000000D+00 0.000000000000000D+00 -.501102613135204D+03
 0.500621107444866D+03 -.423905743178703D+03 -.224263643258788D+03 0.707547343414572D+02
 0.281403515988962D+03 0.244151280323349D+03 0.118305912083789D+03 -.747114602550508D+02
 0.217806554868908D+03 0.195424334864780D+03 0.960904209927570D+02 0.395672591359358D+01
 0.734072789436842D+02 -.156698720094269D+02 0.986731018224266D+01 0.710332309760119D+02
0.496617190845D-04 0.000000000000D+00 0.000000000000D+00 0.323444101175D-06 0.604881205029D-08  6 -1 1 25 1 -1 21 2 0.42223783D-01 0.16070966D+00 0.25159693D+06 0.25159693D+06 0.25159693D+06 0.10902511D+01  1  2  1  1  6  1       -1 0.544783803317D-03 0.100000000000D+01
  </mgrwgt>
  </event>
  <event>
  7     66 0.15113768E-05 0.69458881E+02 0.75467711E-02 0.92569830E-01
       21 -1    0    0  503  501 0.00000000E+00 0.00000000E+00 0.63967383E+03 0.63967427E+03 0.75000000E+00 0.0000E+00 0.9000E+01
        1 -1    0    0  501    0 0.00000000E+00 0.00000000E+00 -.76589263E+03 0.76589269E+03 0.32000000E+00 0.0000E+00 0.9000E+01
       23  2    1    2    0    0 -.24784321E+03 0.53044648E+03 -.17839666E+03 0.61853486E+03 0.89220405E+02 0.0000E+00 0.0000E+00
       25  1    1    2    0    0 0.24513560E+03 -.54026323E+03 -.11705138E+03 0.61749644E+03 0.12500000E+03 0.0000E+00 0.9000E+01
        1  1    3    3  502    0 -.12591242E+03 0.32143593E+03 -.64907400E+02 0.35126637E+03 0.32000000E+00 0.0000E+00 0.9000E+01
        1  1    1    2  503    0 0.27076110E+01 0.98167578E+01 0.16922925E+03 0.16953566E+03 0.32000000E+00 0.0000E+00 0.9000E+01
       -1  1    3    3    0  502 -.12193079E+03 0.20901055E+03 -.11348926E+03 0.26726848E+03 0.32000000E+00 0.0000E+00 0.9000E+01
#aMCatNLO 2  0  0  1  5 0.31530705D+03 0.00000000D+00  -5  6  0 0.00000000D+00 0.00000000D+00 0.00000000D+00 0.00000000D+00 0.00000000D+00
  <mgrwgt>
 0.2048922996D-03    1    2    0
 0.600079185176407D+03 0.000000000000000D+00 0.000000000000000D+00 0.600079185176407D+03
 0.600079185176407D+03 0.000000000000000D+00 0.000000000000000D+00 -.600079185176407D+03
 0.603272396816487D+03 0.246500920231733D+03 -.535313102687146D+03 0.314605018567590D+02
 0.348133670301065D+03 -.125129740236351D+03 0.324275257728904D+03 0.196254358047628D+02
 0.000000000000000D+00 0.000000000000000D+00 0.000000000000000D+00 0.000000000000000D+00
 0.248752303235261D+03 -.121371179995382D+03 0.211037844958242D+03 -.510859376615218D+02
 0.816235765368355D+03 0.000000000000000D+00 0.000000000000000D+00 0.816235765368355D+03
 0.600220734146969D+03 0.000000000000000D+00 0.000000000000000D+00 -.600220734146969D+03
 0.607116616914304D+03 0.245135598899726D+03 -.540263233533861D+03 0.314605018567590D+02
 0.345776073946837D+03 -.125912471875156D+03 0.321437373386870D+03 0.196254358047628D+02
 0.216254927353747D+03 0.270761102160629D+01 0.981675780254640D+01 0.216015031221386D+03
 0.247308881300435D+03 -.121930738046177D+03 0.209009102344445D+03 -.510859376615218D+02
0.858695286151D-05 0.000000000000D+00 0.000000000000D+00 0.129325429260D-04 0.159557204989D-07  6 21 1 25 1 1 -1 2 0.98411378D-01 0.11782965D+00 0.36221015D+06 0.36221015D+06 0.36221015D+06 0.10785485D+01  1  2  1  5  5  1       -1 0.204892299565D-03 0.100000000000D+01
  </mgrwgt>
  </event>
  <event>
  7     66 0.15113768E-05 0.44067691E+02 0.75467711E-02 0.94032604E-01
       -1 -1    0    0    0  501 0.00000000E+00 0.00000000E+00 0.60179253E+03 0.60179261E+03 0.32000000E+00 0.0000E+00 0.9000E+01
        1 -1    0    0  503    0 0.00000000E+00 0.00000000E+00 -.82035838E+03 0.82035844E+03 0.32000000E+00 0.0000E+00 0.9000E+01
       23  2    1    2    0    0 0.50836376E+03 0.82367430E+02 -.19312609E+03 0.55701591E+03 0.88039412E+02 0.0000E+00 0.0000E+00
       25  1    1    2    0    0 -.49580146E+03 -.86348771E+02 0.25951892E+03 0.57987091E+03 0.12500000E+03 0.0000E+00 0.9000E+01
        1  1    3    3  502    0 0.11561358E+03 0.56564593E+02 -.41720642E+02 0.13530250E+03 0.32000000E+00 0.0000E+00 0.9000E+01
       -1  1    3    3    0  502 0.39275018E+03 0.25802837E+02 -.15140545E+03 0.42171341E+03 0.32000000E+00 0.0000E+00 0.9000E+01
       21  1    1    2  503  501 -.12562296E+02 0.39813409E+01 -.28495869E+03 0.28526423E+03 0.75000000E+00 0.0000E+00 0.9000E+01
#aMCatNLO 2  0  0  2  5 0.14823616D+02 0.00000000D+00  -5  6  0 0.00000000D+00 0.00000000D+00 0.00000000D+00 0.00000000D+00 0.00000000D+00
  <mgrwgt>
 0.1325893140D-02    1    2    0
 0.567435014424714D+03 0.000000000000000D+00 0.000000000000000D+00 0.567435014424714D+03
 0.567435014424714D+03 0.000000000000000D+00 0.000000000000000D+00 -.567435014424714D+03
 0.570904161430270D+03 -.502091890448526D+03 -.843551594660400D+02 0.226040930266365D+03
 0.136898550697165D+03 0.114088652871724D+03 0.570471292100272D+02 -.497053067367454D+02
 0.427067316721994D+03 0.388003237576802D+03 0.273080302560128D+02 -.176335623529620D+03
 0.000000000000000D+00 -.000000000000000D+00 0.000000000000000D+00 -.000000000000000D+00
 0.567616897712237D+03 0.000000000000000D+00 0.000000000000000D+00 0.567616897712237D+03
 0.869750073961682D+03 0.000000000000000D+00 0.000000000000000D+00 -.869750073961682D+03
 0.565680743342001D+03 -.495801463311789D+03 -.863487707507377D+02 0.226040930266365D+03
 0.137970537207953D+03 0.115609915350531D+03 0.565649988270164D+02 -.497053067367454D+02
 0.431295257719796D+03 0.392753843720485D+03 0.258024310635687D+02 -.176335623529620D+03
 0.302420433404168D+03 -.125622957592266D+02 0.398134086015263D+01 -.302133176249445D+03
0.366918408129D-03 0.000000000000D+00 0.000000000000D+00 0.480201585358D-05 0.191253497074D-06  6 -1 1 25 1 -1 21 2 0.92583401D-01 0.12620889D+00 0.27775037D+06 0.27775037D+06 0.27775037D+06 0.10870366D+01  1  2  1  2  6  2        1 0.132589314045D-02 0.100000000000D+01
  </mgrwgt>
  </event>
  <event>
  7     66 0.15113768E-05 0.58750684E+02 0.75467711E-02 0.95479734E-01
       -1 -1    0    0    0  501 0.00000000E+00 0.00000000E+00 0.44898108E+03 0.44898119E+03 0.32000000E+00 0.0000E+00 0.9000E+01
        1 -1    0    0  503    0 0.00000000E+00 0.00000000E+00 -.58303871E+03 0.58303880E+03 0.32000000E+00 0.0000E+00 0.9000E+01
       23  2    1    2    0    0 -.39476250E+03 -.20253210E+03 0.14139232E+03 0.47474518E+03 0.92382469E+02 0.0000E+00 0.0000E+00
       25  1    1    2    0    0 0.40796787E+03 0.19483788E+03 -.26837910E+03 0.54041828E+03 0.12500000E+03 0.0000E+00 0.9000E+01
        1  1    3    3  502    0 -.25744647E+03 -.13577263E+03 0.45884073E+02 0.29464953E+03 0.32000000E+00 0.0000E+00 0.9000E+01
       -1  1    3    3    0  502 -.13731603E+03 -.66759466E+02 0.95508251E+02 0.18009566E+03 0.32000000E+00 0.0000E+00 0.9000E+01
       21  1    1    2  503  501 -.13205369E+02 0.76942207E+01 -.70708576E+01 0.16856522E+02 0.75000000E+00 0.0000E+00 0.9000E+01
#aMCatNLO 2  0  0  2  5 0.14823616D+02 0.00000000D+00  -5  6  0 0.00000000D+00 0.00000000D+00 0.00000000D+00 0.00000000D+00 0.00000000D+00
  <mgrwgt>
 0.2144441070D-03    1    2    0
 0.503536900271053D+03 0.000000000000000D+00 0.000000000000000D+00 0.503536900271053D+03
 0.503536900271053D+03 0.000000000000000D+00 0.000000000000000D+00 -.503536900271053D+03
 0.507057237884647D+03 0.401294477781520D+03 0.198726183184709D+03 -.202367706687856D+03
 0.305141935865771D+03 -.261433331051961D+03 -.133451321443804D+03 0.833963982668826D+02
 0.194874626791688D+03 -.139861146729559D+03 -.652748617409046D+02 0.118971308420974D+03
 0.000000000000000D+00 -.000000000000000D+00 0.000000000000000D+00 -.000000000000000D+00
 0.509134629160281D+03 0.000000000000000D+00 0.000000000000000D+00 0.509134629160281D+03
 0.514136104430100D+03 0.000000000000000D+00 0.000000000000000D+00 -.514136104430100D+03
 0.510859341637578D+03 0.407967866584228D+03 0.194837876356194D+03 -.202367706687856D+03
 0.302768590369794D+03 -.257447912815889D+03 -.135773459326063D+03 0.833963982668826D+02
 0.193561832901497D+03 -.137314584886646D+03 -.667586376897923D+02 0.118971308420974D+03
 0.160809686815111D+02 -.132053688816929D+02 0.769422065966090D+01 -.500147526981844D+01
0.189122953717D-04 0.000000000000D+00 0.000000000000D+00 0.332868866325D-04 0.911930109453D-06  6 -1 1 25 1 -1 21 2 0.69072845D-01 0.89696744D-01 0.21533793D+06 0.21533793D+06 0.21533793D+06 0.10953692D+01  1  2  1  2  6  2        1 0.214444107021D-03 0.100000000000D+01
  </mgrwgt>
  </event>
  <event>
  7     66 0.15113768E-05 0.14795257E+03 0.75467711E-02 0.91000350E-01
       -1 -1    0    0    0  503 0.00000000E+00 0.00000000E+00 0.11820061E+04 0.11820061E+04 0.32000000E+00 0.0000E+00 0.9000E+01
        1 -1    0    0  501    0 0.00000000E+00 0.00000000E+00 -.48247927E+03 0.48247938E+03 0.32000000E+00 0.0000E+00 0.9000E+01
       23  2    1    2    0    0 0.56909123E+03 -.19014465E+02 0.22144950E+03 0.61651272E+03 0.82593461E+02 0.0000E+00 0.0000E+00
       25  1    1    2    0    0 -.59094264E+03 0.20277027E+03 0.12492907E+03 0.64927749E+03 0.12500000E+03 0.0000E+00 0.9000E+01
        1  1    3    3  502    0 0.25282120E+03 -.37815819E+02 0.68244669E+02 0.26458653E+03 0.32000000E+00 0.0000E+00 0.9000E+01
       -1  1    3    3    0  502 0.31627004E+03 0.18801354E+02 0.15320483E+03 0.35192620E+03 0.32000000E+00 0.0000E+00 0.9000E+01
       21  1    1    2  501  503 0.21851407E+02 -.18375581E+03 0.35314822E+03 0.39869526E+03 0.75000000E+00 0.0000E+00 0.9000E+01
#aMCatNLO 2  0  0  1  2 0.60758795D+01 0.00000000D+00  -5  6  0 0.00000000D+00 0.00000000D+00 0.00000000D+00 0.00000000D+00 0.00000000D+00
  <mgrwgt>
 0.2551281282D-04    1    2    0
 0.601664996146214D+03 0.000000000000000D+00 0.000000000000000D+00 0.601664996146214D+03
 0.601664996146214D+03 0.000000000000000D+00 0.000000000000000D+00 -.601664996146214D+03
 0.605322895591092D+03 -.579706235857891D+03 0.108279601106269D+03 -.548362655414051D+02
 0.269040779290343D+03 0.257556541509060D+03 -.776457892219378D+02 -.432438008844681D+01
 0.328966317410994D+03 0.322149694348831D+03 -.306338118843312D+02 0.591606456298519D+02
 0.000000000000000D+00 0.000000000000000D+00 -.000000000000000D+00 0.000000000000000D+00
 0.892625281432391D+03 0.000000000000000D+00 0.000000000000000D+00 0.892625281432391D+03
 0.638893814017130D+03 0.000000000000000D+00 0.000000000000000D+00 -.638893814017130D+03
 0.639500587505739D+03 -.590942637942889D+03 0.202770274110280D+03 -.548362655414051D+02
 0.255669466512842D+03 0.252820243246678D+03 -.378166689239347D+02 -.432438008844681D+01
 0.322305511124715D+03 0.316270987663563D+03 0.188022039223411D+02 0.591606456298519D+02
 0.314043530306224D+03 0.218514070326473D+02 -.183755809108686D+03 0.253731467415262D+03
0.205054932056D-04 0.000000000000D+00 0.000000000000D+00 0.151137390595D-05 0.288791027195D-09  6 -1 1 25 1 -1 21 2 0.18184697D+00 0.74227541D-01 0.48626770D+06 0.48626770D+06 0.48626770D+06 0.10693662D+01  1  2  1  1  6  1       -1 0.255128128157D-04 0.100000000000D+01
  </mgrwgt>
  </event>
  <event>
  7     66 0.15113768E-05 0.15317233E+03 0.75467711E-02 0.93030904E-01
       21 -1    0    0  503  501 0.00000000E+00 0.00000000E+00 0.15369888E+04 0.15369890E+04 0.75000000E+00 0.0000E+00 0.9000E+01
        1 -1    0    0  501    0 0.00000000E+00 0.00000000E+00 -.45623960E+03 0.45623971E+03 0.32000000E+00 0.0000E+00 0.9000E+01
       23  2    1    2    0    0 -.30440194E+03 0.26038486E+03 -.12706108E+03 0.43047064E+03 0.93271848E+02 0.0000E+00 0.0000E+00
       25  1    1    2    0    0 0.43502414E+03 -.36801547E+03 0.33297046E+03 0.67169615E+03 0.12500000E+03 0.0000E+00 0.9000E+01
        1  1    3    3  502    0 -.37687299E+02 0.22969200E+02 -.47107199E+02 0.64553135E+02 0.32000000E+00 0.0000E+00 0.9000E+01
        1  1    1    2  503    0 -.13062220E+03 0.10763062E+03 0.87483984E+03 0.89106192E+03 0.32000000E+00 0.0000E+00 0.9000E+01
       -1  1    3    3    0  502 -.26671464E+03 0.23741566E+03 -.79953883E+02 0.36591750E+03 0.32000000E+00 0.0000E+00 0.9000E+01
#aMCatNLO 2  0  0  1  2 0.88718967D+01 0.00000000D+00  -5  6  0 0.00000000D+00 0.00000000D+00 0.00000000D+00 0.00000000D+00 0.00000000D+00
  <mgrwgt>
 0.3352121972D-04    1    2    0
 0.534725733880636D+03 0.000000000000000D+00 0.000000000000000D+00 0.534725733880636D+03
 0.534725733880636D+03 0.000000000000000D+00 0.000000000000000D+00 -.534725733880636D+03
 0.537963544454299D+03 0.364719908373653D+03 -.310085904388456D+03 0.211201078352692D+03
 0.825081939583016D+02 -.472237500874430D+02 0.308267811433747D+02 -.602264814037640D+02
 0.000000000000000D+00 -.000000000000000D+00 0.000000000000000D+00 0.000000000000000D+00
 0.448979729348670D+03 -.317496158286210D+03 0.279259123245082D+03 -.150974596948929D+03
 0.127224451266314D+04 0.000000000000000D+00 0.000000000000000D+00 0.127224451266314D+04
 0.551179717091077D+03 0.000000000000000D+00 0.000000000000000D+00 -.551179717091077D+03
 0.620412995009258D+03 0.435024138691457D+03 -.368015472004606D+03 0.211201078352692D+03
 0.746647614910874D+02 -.376846034600768D+02 0.229666760394231D+02 -.602264814037640D+02
 0.740662506041037D+03 -.130622199907906D+03 0.107630615220872D+03 0.721064795572065D+03
 0.387683967212837D+03 -.266717335323475D+03 0.237418180744310D+03 -.150974596948929D+03
0.959260722935D-05 0.000000000000D+00 0.000000000000D+00 0.894042150873D-05 0.155826773551D-09  6 21 1 25 1 1 -1 2 0.23645983D+00 0.70190726D-01 0.33282596D+06 0.33282596D+06 0.33282596D+06 0.10812312D+01  1  2  1  5  5  1       -1 0.335212197202D-04 0.100000000000D+01
  </mgrwgt>
  </event>
  <event>
  7     66 0.15113768E-05 0.46135555E+02 0.75467711E-02 0.92595252E-01
       -1 -1    0    0    0  503 0.00000000E+00 0.00000000E+00 0.41692027E+03 0.41692040E+03 0.32000000E+00 0.0000E+00 0.9000E+01
        1 -1    0    0  501    0 0.00000000E+00 0.00000000E+00 -.90809371E+03 0.90809377E+03 0.32000000E+00 0.0000E+00 0.9000E+01
       23  2    1    2    0    0 0.47956244E+03 -.34546563E+03 -.16074216E+03 0.61935284E+03 0.91832780E+02 0.0000E+00 0.0000E+00
       25  1    1    2    0    0 -.46934242E+03 0.31807127E+03 -.34243429E+03 0.67404591E+03 0.12500000E+03 0.0000E+00 0.9000E+01
        1  1    3    3  502    0 0.33263919E+03 -.23956205E+03 -.15467995E+03 0.43813787E+03 0.32000000E+00 0.0000E+00 0.9000E+01
       -1  1    3    3    0  502 0.14692325E+03 -.10590358E+03 -.60622037E+01 0.18121496E+03 0.32000000E+00 0.0000E+00 0.9000E+01
       21  1    1    2  501  503 -.10220018E+02 0.27394358E+02 0.12003015E+02 0.31615415E+02 0.75000000E+00 0.0000E+00 0.9000E+01
#aMCatNLO 2  0  0  1  2 0.64085405D+01 0.00000000D+00  -5  6  0 0.00000000D+00 0.00000000D+00 0.00000000D+00 0.00000000D+00 0.00000000D+00
  <mgrwgt>
 0.2734161643D-03    1    2    0
 0.595575116235195D+03 0.000000000000000D+00 0.000000000000000D+00 0.595575116235195D+03
 0.595575116235195D+03 0.000000000000000D+00 0.000000000000000D+00 -.595575116235195D+03
 0.598593938046997D+03 -.474428150740885D+03 0.331703368935061D+03 -.870661098724837D+02
 0.402045421117622D+03 0.329157085240016D+03 -.230223989648352D+03 0.171186584853641D+02
 0.190510873305770D+03 0.145271065500869D+03 -.101479379286709D+03 0.699474513871197D+02
 0.000000000000000D+00 -.000000000000000D+00 0.000000000000000D+00 0.000000000000000D+00
 0.628635078388355D+03 0.000000000000000D+00 0.000000000000000D+00 0.628635078388355D+03
 0.602254554588000D+03 0.000000000000000D+00 0.000000000000000D+00 -.602254554588000D+03
 0.587075080996391D+03 -.469342421871724D+03 0.318071272312003D+03 -.870661098724837D+02
 0.410285426147517D+03 0.332641442488870D+03 -.239563672495716D+03 0.171186584853641D+02
 0.194148525942284D+03 0.146920997632121D+03 -.105901957606034D+03 0.699474513871197D+02
 0.393805998901641D+02 -.102200182492681D+02 0.273943577897476D+02 0.263805238003554D+02
0.435903527744D-04 0.000000000000D+00 0.000000000000D+00 0.525654295473D-04 0.381989290061D-06  6 -1 1 25 1 -1 21 2 0.64141217D-01 0.13970592D+00 0.36051637D+06 0.36051637D+06 0.36051637D+06 0.10786966D+01  1  2  1  1  6  1       -1 0.273416164296D-03 0.100000000000D+01
  </mgrwgt>
  </event>
  <event>
  6     66 0.15113768E-05 0.57733508E+02 0.75467711E-02 0.90762988E-01
       -1 -1    0    0    0  501 0.00000000E+00 0.00000000E+00 0.66500855E+03 0.66500862E+03 0.32000000E+00 0.0000E+00 0.9000E+01
        1 -1    0    0  501    0 -.00000000E+00 -.00000000E+00 -.79169814E+03 0.79169821E+03 0.32000000E+00 0.0000E+00 0.9000E+01
       25  1    1    2    0    0 0.42286835E+03 -.56386908E+03 -.14623161E+03 0.73059884E+03 0.12500000E+03 0.0000E+00 0.9000E+01
        1  1    1    2  503    0 -.14422318E+03 0.18337053E+03 -.44526893E+02 0.23750331E+03 0.32000000E+00 0.0000E+00 0.9000E+01
       -1  1    1    2    0  502 -.27275620E+03 0.33613766E+03 0.33028023E+02 0.43413756E+03 0.32000000E+00 0.0000E+00 0.9000E+01
       21  1    1    2  502  503 -.58889683E+01 0.44360887E+02 0.31040879E+02 0.54467118E+02 0.75000000E+00 0.0000E+00 0.9000E+01
#aMCatNLO 2  0  0  4  5 0.23966680D+03 0.00000000D+00  -5  6  0 0.00000000D+00 0.00000000D+00 0.00000000D+00 0.00000000D+00 0.00000000D+00
  <mgrwgt>
 0.1326240060D-01    1    2    0
 0.725593642949927D+03 0.000000000000000D+00 0.000000000000000D+00 0.725593642949927D+03
 0.725593642949927D+03 -.000000000000000D+00 -.000000000000000D+00 -.725593642949927D+03
 0.729927692785126D+03 0.428091758911712D+03 -.571793376204544D+03 -.834219250263567D+02
 0.288074684152497D+03 -.158378517188270D+03 0.240301316428500D+03 0.125915156170988D+02
 0.433184908962230D+03 -.269713241723442D+03 0.331492059776044D+03 0.708304094092579D+02
 0.000000000000000D+00 0.000000000000000D+00 0.000000000000000D+00 0.000000000000000D+00
 0.725593642949927D+03 0.000000000000000D+00 0.000000000000000D+00 0.725593642949927D+03
 0.725593642949927D+03 -.000000000000000D+00 -.000000000000000D+00 -.725593642949927D+03
 0.720595028453344D+03 0.422859480294234D+03 -.563854651546539D+03 -.830059448852706D+02
 0.234238921824290D+03 -.144081466420121D+03 0.183111175539228D+03 -.240562034468379D+02
 0.438837393111089D+03 -.272858772350640D+03 0.336264646134352D+03 0.710804875051991D+02
 0.575159425111300D+02 -.591924152347277D+01 0.444788298729593D+02 0.359816608269094D+02
0.461173558526D-02 0.000000000000D+00 0.000000000000D+00 0.110078765888D-06 0.824693550470D-08  6 -1 1 25 1 -1 21 2 0.10230902D+00 0.12179973D+00 0.50887689D+06 0.50887689D+06 0.50887689D+06 0.10679707D+01  1  2  1  3  6  4        1 0.132624005984D-01 0.100000000000D+01
  </mgrwgt>
  </event>
  <event>
  7     66 0.15113768E-05 0.50751283E+02 0.75467711E-02 0.93082512E-01
       -1 -1    0    0    0  503 0.00000000E+00 0.00000000E+00 0.36243537E+03 0.36243551E+03 0.32000000E+00 0.0000E+00 0.9000E+01
        1 -1    0    0  501    0 0.00000000E+00 0.00000000E+00 -.92810352E+03 0.92810358E+03 0.32000000E+00 0.0000E+00 0.9000E+01
       23  2    1    2    0    0 0.65035151E+02 -.55384058E+03 -.31815648E+03 0.64855366E+03 0.91811496E+02 0.0000E+00 0.0000E+00
       25  1    1    2    0    0 -.50153138E+02 0.55242495E+03 -.25728758E+03 0.62410781E+03 0.12500000E+03 0.0000E+00 0.9000E+01
        1  1    3    3  502    0 -.22016957E+02 -.15934818E+03 -.10034276E+03 0.18959262E+03 0.32000000E+00 0.0000E+00 0.9000E+01
       -1  1    3    3    0  502 0.87052108E+02 -.39449239E+03 -.21781372E+03 0.45896104E+03 0.32000000E+00 0.0000E+00 0.9000E+01
       21  1    1    2  501  503 -.14882013E+02 0.14156236E+01 0.97759046E+01 0.17877615E+02 0.75000000E+00 0.0000E+00 0.9000E+01
#aMCatNLO 2  0  0  1  2 0.16193288D-01 0.00000000D+00  -5  6  0 0.00000000D+00 0.00000000D+00 0.00000000D+00 0.00000000D+00 0.00000000D+00
  <mgrwgt>
 0.5529112799D-03    1    2    0
 0.567518257313782D+03 0.000000000000000D+00 0.000000000000000D+00 0.567518257313782D+03
 0.567518257313782D+03 0.000000000000000D+00 0.000000000000000D+00 -.567518257313782D+03
 0.570688044838226D+03 -.576262298854408D+02 0.553135816789796D+03 0.279254424271639D+02
 0.161795973825803D+03 -.241388935143533D+02 -.159143606330874D+03 -.163879080466873D+02
 0.402552495963535D+03 0.817651233997941D+02 -.393992210458922D+03 -.115375343804766D+02
 0.000000000000000D+00 -.000000000000000D+00 0.000000000000000D+00 0.000000000000000D+00
 0.590072928180890D+03 0.000000000000000D+00 0.000000000000000D+00 0.590072928180890D+03
 0.570049968886145D+03 0.000000000000000D+00 0.000000000000000D+00 -.570049968886145D+03
 0.569292100989746D+03 -.501531381246257D+02 0.552424952958154D+03 0.279254424271639D+02
 0.161691994344748D+03 -.220182817839601D+02 -.159345325542726D+03 -.163879080466873D+02
 0.404150860452002D+03 0.870534332254641D+02 -.394495251008390D+03 -.115375343804766D+02
 0.249879412805395D+02 -.148820133168783D+02 0.141562359296274D+01 0.200229592947444D+02
0.695722802139D-04 0.000000000000D+00 0.000000000000D+00 0.417142876787D-04 0.116506325918D-05  6 -1 1 25 1 -1 21 2 0.55758754D-01 0.14278377D+00 0.32970649D+06 0.32970649D+06 0.32970649D+06 0.10815310D+01  1  2  1  1  6  1       -1 0.552911279916D-03 0.100000000000D+01
  </mgrwgt>
  </event>
  <event>
  7     66 0.15113768E-05 0.79725088E+02 0.75467711E-02 0.95247264E-01
       -1 -1    0    0    0  503 0.00000000E+00 0.00000000E+00 0.90055181E+03 0.90055186E+03 0.32000000E+00 0.0000E+00 0.9000E+01
        1 -1    0    0  501    0 0.00000000E+00 0.00000000E+00 -.85103786E+03 0.85103792E+03 0.32000000E+00 0.0000E+00 0.9000E+01
       23  2    1    2    0    0 -.18351329E+03 -.30971252E+03 -.42916083E+03 0.56729830E+03 0.89718276E+02 0.0000E+00 0.0000E+00
       25  1    1    2    0    0 0.20477316E+03 0.40939730E+03 -.18760970E+03 0.51025542E+03 0.12500000E+03 0.0000E+00 0.9000E+01
        1  1    3    3  502    0 -.61110892E+02 -.36484787E+02 -.71816983E+02 0.10111114E+03 0.32000000E+00 0.0000E+00 0.9000E+01
       -1  1    3    3    0  502 -.12240240E+03 -.27322773E+03 -.35734385E+03 0.46618716E+03 0.32000000E+00 0.0000E+00 0.9000E+01
       21  1    1    2  501  503 -.21259875E+02 -.99684779E+02 0.66628448E+03 0.67403606E+03 0.75000000E+00 0.0000E+00 0.9000E+01
#aMCatNLO 2  0  0  1  2 0.16193288D-01 0.00000000D+00  -5  6  0 0.00000000D+00 0.00000000D+00 0.00000000D+00 0.00000000D+00 0.00000000D+00
  <mgrwgt>
 0.1131078329D-02    1    2    0
 0.438841397562680D+03 0.000000000000000D+00 0.000000000000000D+00 0.438841397562680D+03
 0.438841397562680D+03 0.000000000000000D+00 0.000000000000000D+00 -.438841397562680D+03
 0.443157097426277D+03 0.193493352402336D+03 0.356507732290672D+03 0.127380423897672D+03
 0.792896829730912D+02 -.629504734356728D+02 -.451109875297048D+02 -.170026622707385D+02
 0.355236014725991D+03 -.130542878966664D+03 -.311396744760968D+03 -.110377761626934D+03
 0.000000000000000D+00 -.000000000000000D+00 -.000000000000000D+00 0.000000000000000D+00
 0.172686575706686D+04 0.000000000000000D+00 0.000000000000000D+00 0.172686575706686D+04
 0.443811805589516D+03 0.000000000000000D+00 0.000000000000000D+00 -.443811805589516D+03
 0.491313511896578D+03 0.204773163960441D+03 0.409397295913674D+03 0.127380423897672D+03
 0.731741502089914D+02 -.611101123900039D+02 -.364817748772772D+02 -.170026622707385D+02
 0.319093758154521D+03 -.122403176454646D+03 -.273230742459951D+03 -.110377761626934D+03
 0.128709614239629D+04 -.212598751157910D+02 -.996847785764455D+02 0.128305395147735D+04
0.852113495732D-03 0.000000000000D+00 0.000000000000D+00 0.125808146029D-04 0.172698941323D-07  6 -1 1 25 1 -1 21 2 0.13854641D+00 0.13092888D+00 0.22420557D+06 0.22420557D+06 0.22420557D+06 0.10940349D+01  1  2  1  1  6  1       -1 0.113107832948D-02 0.100000000000D+01
  </mgrwgt>
  </event>
  <event>
  7     66 0.15113768E-05 0.58098537E+02 0.75467711E-02 0.94616144E-01
       21 -1    0    0  503  501 0.00000000E+00 0.00000000E+00 0.46527894E+03 0.46527954E+03 0.75000000E+00 0.0000E+00 0.9000E+01
        1 -1    0    0  501    0 0.00000000E+00 0.00000000E+00 -.84755541E+03 0.84755547E+03 0.32000000E+00 0.0000E+00 0.9000E+01
       23  2    1    2    0    0 0.45953479E+03 -.15470226E+03 -.53091819E+02 0.49610271E+03 0.90521527E+02 0.0000E+00 0.0000E+00
       25  1    1    2    0    0 -.45921985E+03 0.14398024E+03 -.46482876E+03 0.68066435E+03 0.12500000E+03 0.0000E+00 0.9000E+01
        1  1    3    3  502    0 0.32515501E+03 -.65772517E+02 -.26687765E+02 0.33281248E+03 0.32000000E+00 0.0000E+00 0.9000E+01
        1  1    1    2  503    0 -.31493670E+00 0.10722022E+02 0.13564411E+03 0.13606795E+03 0.32000000E+00 0.0000E+00 0.9000E+01
       -1  1    3    3    0  502 0.13437977E+03 -.88929745E+02 -.26404054E+02 0.16329023E+03 0.32000000E+00 0.0000E+00 0.9000E+01
#aMCatNLO 2  0  0  1  2 0.16193288D-01 0.00000000D+00  -5  6  0 0.00000000D+00 0.00000000D+00 0.00000000D+00 0.00000000D+00 0.00000000D+00
  <mgrwgt>
 0.3269221193D-03    1    2    0
 0.528304816307719D+03 0.000000000000000D+00 0.000000000000000D+00 0.528304816307719D+03
 0.528304816307719D+03 0.000000000000000D+00 0.000000000000000D+00 -.528304816307719D+03
 0.531821182684457D+03 -.459378118529348D+03 0.149368548350970D+03 -.184036820587226D+03
 0.356816254281665D+03 0.325050933358201D+03 -.621477178530874D+02 0.133406863422436D+03
 0.000000000000000D+00 -.000000000000000D+00 0.000000000000000D+00 0.000000000000000D+00
 0.167972195649317D+03 0.134327185171147D+03 -.872208304978827D+02 0.506299571647895D+02
 0.746219033286858D+03 0.000000000000000D+00 0.000000000000000D+00 0.746219033286858D+03
 0.528464058737969D+03 0.000000000000000D+00 0.000000000000000D+00 -.528464058737969D+03
 0.530195935459319D+03 -.459219848370599D+03 0.143980239992197D+03 -.184036820587226D+03
 0.357562175107779D+03 0.325157395660451D+03 -.657722274741130D+02 0.133406863422436D+03
 0.218019012637929D+03 -.314936699384070D+00 0.107220215307445D+02 0.217754974548888D+03
 0.168905968819801D+03 0.134377389409533D+03 -.889300340488288D+02 0.506299571647895D+02
0.700930247254D-05 0.000000000000D+00 0.000000000000D+00 0.334582282863D-04 0.418377950778D-07  6 21 1 25 1 1 -1 2 0.71581410D-01 0.13039316D+00 0.25041977D+06 0.25041977D+06 0.25041977D+06 0.10904043D+01  1  2  1  5  5  1       -1 0.326922119268D-03 0.100000000000D+01
  </mgrwgt>
  </event>
  <event>
  7     66 0.15113768E-05 0.31352672E+02 0.75467711E-02 0.94197784E-01
       -1 -1    0    0    0  501 0.00000000E+00 0.00000000E+00 0.28280394E+03 0.28280412E+03 0.32000000E+00 0.0000E+00 0.9000E+01
        1 -1    0    0  503    0 0.00000000E+00 0.00000000E+00 -.16372810E+04 0.16372811E+04 0.32000000E+00 0.0000E+00 0.9000E+01
       23  2    1    2    0    0 -.48273089E+03 -.14618175E+03 -.77894908E+02 0.51839672E+03 0.90935848E+02 0.0000E+00 0.0000E+00
       25  1    1    2    0    0 0.47870404E+03 0.12178582E+03 -.98428348E+03 0.11083449E+04 0.12500000E+03 0.0000E+00 0.9000E+01
        1  1    3    3  502    0 -.39064133E+03 -.11899460E+03 -.98761665E+02 0.42013609E+03 0.32000000E+00 0.0000E+00 0.9000E+01
       -1  1    3    3    0  502 -.92089557E+02 -.27187152E+02 0.20866758E+02 0.98260632E+02 0.32000000E+00 0.0000E+00 0.9000E+01
       21  1    1    2  503  501 0.40268544E+01 0.24395937E+02 -.29229871E+03 0.29334361E+03 0.75000000E+00 0.0000E+00 0.9000E+01
#aMCatNLO 2  0  0  2  1 0.49842941D+01 0.00000000D+00  -5  6  0 0.00000000D+00 0.00000000D+00 0.00000000D+00 0.00000000D+00 0.00000000D+00
  <mgrwgt>
 0.5790245383D-03    1    2    0
 0.615924881924007D+03 0.000000000000000D+00 0.000000000000000D+00 0.615924881924007D+03
 0.615924881924007D+03 0.000000000000000D+00 0.000000000000000D+00 -.615924881924007D+03
 0.618910502359055D+03 0.480720316680846D+03 0.134001079338969D+03 -.344059439336571D+03
 0.466030179346991D+03 -.389115969869064D+03 -.109732221473008D+03 0.231801056135742D+03
 0.146909082141969D+03 -.916043468117820D+02 -.242688578659611D+02 0.112258383200830D+03
 0.000000000000000D+00 0.000000000000000D+00 0.000000000000000D+00 -.000000000000000D+00
 0.617188103575729D+03 0.000000000000000D+00 0.000000000000000D+00 0.617188103575729D+03
 0.750222127280497D+03 0.000000000000000D+00 0.000000000000000D+00 -.750222127280497D+03
 0.614809918825664D+03 0.478704035030226D+03 0.121785817464941D+03 -.344059439336571D+03
 0.469569222443130D+03 -.390645029349451D+03 -.118995739775701D+03 0.231801056135742D+03
 0.147718751756951D+03 -.920858600339444D+02 -.271860148527904D+02 0.112258383200830D+03
 0.135312337830481D+03 0.402685435316963D+01 0.243959371635496D+02 -.133034023704768D+03
0.144471537848D-03 0.000000000000D+00 0.000000000000D+00 0.362235968691D-04 0.380568890856D-06  6 -1 1 25 1 -1 21 2 0.43508241D-01 0.25188898D+00 0.26968890D+06 0.26968890D+06 0.26968890D+06 0.10879909D+01  1  2  1  2  6  2        1 0.579024538275D-03 0.100000000000D+01
  </mgrwgt>
  </event>
  <event>
  7     66 0.15113768E-05 0.64481433E+02 0.75467711E-02 0.92079075E-01
       -1 -1    0    0    0  501 0.00000000E+00 0.00000000E+00 0.44480142E+03 0.44480154E+03 0.32000000E+00 0.0000E+00 0.9000E+01
        1 -1    0    0  503    0 0.00000000E+00 0.00000000E+00 -.15617529E+04 0.15617529E+04 0.32000000E+00 0.0000E+00 0.9000E+01
       23  2    1    2    0    0 0.45796945E+03 -.29252875E+03 -.45452461E+03 0.71404326E+03 0.89196778E+02 0.0000E+00 0.0000E+00
       25  1    1    2    0    0 -.45814285E+03 0.38862994E+03 0.95334012E+01 0.61371328E+03 0.12500000E+03 0.0000E+00 0.9000E+01
        1  1    3    3  502    0 0.32886166E+03 -.16283371E+03 -.28580794E+03 0.46513556E+03 0.32000000E+00 0.0000E+00 0.9000E+01
       -1  1    3    3    0  502 0.12910780E+03 -.12969504E+03 -.16871667E+03 0.24890770E+03 0.32000000E+00 0.0000E+00 0.9000E+01
       21  1    1    2  503  501 0.17339834E+00 -.96101184E+02 -.67196025E+03 0.67879792E+03 0.75000000E+00 0.0000E+00 0.9000E+01
#aMCatNLO 2  0  0  2  1 0.49842941D+01 0.00000000D+00  -5  6  0 0.00000000D+00 0.00000000D+00 0.00000000D+00 0.00000000D+00 0.00000000D+00
  <mgrwgt>
 0.2268323673D-03    1    2    0
 0.623635465653979D+03 0.000000000000000D+00 0.000000000000000D+00 0.623635465653979D+03
 0.623635465653979D+03 0.000000000000000D+00 0.000000000000000D+00 -.623635465653979D+03
 0.626709751548517D+03 -.458053905760597D+03 0.339334272263612D+03 0.228427195777542D+03
 0.405776602255938D+03 0.328919601919040D+03 -.193523543890404D+03 -.137895556026630D+03
 0.214784577503502D+03 0.129134303841557D+03 -.145810728373208D+03 -.905316397509117D+02
 0.000000000000000D+00 0.000000000000000D+00 -.000000000000000D+00 -.000000000000000D+00
 0.630328401981192D+03 0.000000000000000D+00 0.000000000000000D+00 0.630328401981192D+03
 0.110207537751095D+04 0.000000000000000D+00 0.000000000000000D+00 -.110207537751095D+04
 0.654776361325720D+03 -.458142851451297D+03 0.388629936114336D+03 0.228427195777542D+03
 0.392022730601262D+03 0.328864228074572D+03 -.162834137787787D+03 -.137895556026630D+03
 0.204168630976980D+03 0.129105225038342D+03 -.129694614178170D+03 -.905316397509117D+02
 0.481436056588179D+03 0.173398338382971D+00 -.961011841483791D+02 -.471746975529756D+03
0.122015711433D-03 0.000000000000D+00 0.000000000000D+00 0.119005861607D-04 0.899143567285D-08  6 -1 1 25 1 -1 21 2 0.68430968D-01 0.24026958D+00 0.39671713D+06 0.39671713D+06 0.39671713D+06 0.10756857D+01  1  2  1  2  6  2        1 0.226832367330D-03 0.100000000000D+01
  </mgrwgt>
  </event>
  <event>
  7     66 0.15113768E-05 0.72018655E+02 0.75467711E-02 0.94846337E-01
       -1 -1    0    0    0  503 0.00000000E+00 0.00000000E+00 0.43327006E+03 0.43327018E+03 0.32000000E+00 0.0000E+00 0.9000E+01
        1 -1    0    0  501    0 0.00000000E+00 0.00000000E+00 -.77913595E+03 0.77913602E+03 0.32000000E+00 0.0000E+00 0.9000E+01
       23  2    1    2    0    0 0.31919700E+02 0.48092379E+03 -.48706108E+03 0.69055459E+03 0.85618832E+02 0.0000E+00 0.0000E+00
       25  1    1    2    0    0 -.27673042E+02 -.46483653E+03 0.12383527E+03 0.49779410E+03 0.12500000E+03 0.0000E+00 0.9000E+01
        1  1    3    3  502    0 0.13595146E+02 0.22651557E+03 -.28999866E+03 0.36823016E+03 0.32000000E+00 0.0000E+00 0.9000E+01
       -1  1    3    3    0  502 0.18324553E+02 0.25440823E+03 -.19706242E+03 0.32232443E+03 0.32000000E+00 0.0000E+00 0.9000E+01
       21  1    1    2  501  503 -.42466573E+01 -.16087265E+02 0.17359921E+02 0.24057505E+02 0.75000000E+00 0.0000E+00 0.9000E+01
#aMCatNLO 2  0  0  1  2 0.17693890D+02 0.00000000D+00  -5  6  0 0.00000000D+00 0.00000000D+00 0.00000000D+00 0.00000000D+00 0.00000000D+00
  <mgrwgt>
 0.7513053617D-03    1    2    0
 0.565677204152875D+03 0.000000000000000D+00 0.000000000000000D+00 0.565677204152875D+03
 0.565677204152875D+03 0.000000000000000D+00 0.000000000000000D+00 -.565677204152875D+03
 0.569342905922099D+03 -.297973014080651D+02 -.472883684622623D+03 0.289861149812024D+03
 0.290403592556486D+03 0.124989978381655D+02 0.222362977326448D+03 -.186367185784603D+03
 0.271607909827165D+03 0.172983035698996D+02 0.250520707296175D+03 -.103493964027420D+03
 0.000000000000000D+00 -.000000000000000D+00 -.000000000000000D+00 0.000000000000000D+00
 0.594131122708597D+03 0.000000000000000D+00 0.000000000000000D+00 0.594131122708597D+03
 0.568175917066274D+03 0.000000000000000D+00 0.000000000000000D+00 -.568175917066274D+03
 0.562568467537915D+03 -.276730423074967D+02 -.464836527423412D+03 0.289861149812024D+03
 0.293643796457076D+03 0.135950801025240D+02 0.226515176218853D+03 -.186367185784603D+03
 0.275264484056281D+03 0.183246194872010D+02 0.254408616035917D+03 -.103493964027420D+03
 0.308302917235992D+02 -.424665728222835D+01 -.160872648313575D+02 0.259552056423234D+02
0.966347523420D-04 0.000000000000D+00 0.000000000000D+00 0.285713679743D-05 0.657495769459D-07  6 -1 1 25 1 -1 21 2 0.66656414D-01 0.11986612D+00 0.24047932D+06 0.24047932D+06 0.24047932D+06 0.10917299D+01  1  2  1  1  6  1       -1 0.751305361653D-03 0.100000000000D+01
  </mgrwgt>
  </event>
  <event>
  7     66 0.15113768E-05 0.67920547E+02 0.75467711E-02 0.94983909E-01
       -1 -1    0    0    0  501 0.00000000E+00 0.00000000E+00 0.14602742E+03 0.14602777E+03 0.32000000E+00 0.0000E+00 0.9000E+01
        1 -1    0    0  503    0 0.00000000E+00 0.00000000E+00 -.19239283E+04 0.19239283E+04 0.32000000E+00 0.0000E+00 0.9000E+01
       23  2    1    2    0    0 -.38225822E+03 -.26178059E+03 -.93104443E+03 0.10439529E+04 0.91342562E+02 0.0000E+00 0.0000E+00
       25  1    1    2    0    0 0.39718201E+03 0.24469063E+03 -.56522810E+03 0.74346141E+03 0.12500000E+03 0.0000E+00 0.9000E+01
        1  1    3    3  502    0 -.21466533E+03 -.15171674E+03 -.62555948E+03 0.67854546E+03 0.32000000E+00 0.0000E+00 0.9000E+01
       -1  1    3    3    0  502 -.16759289E+03 -.11006385E+03 -.30548495E+03 0.36540742E+03 0.32000000E+00 0.0000E+00 0.9000E+01
       21  1    1    2  503  501 -.14923790E+02 0.17089956E+02 -.28162835E+03 0.28254181E+03 0.75000000E+00 0.0000E+00 0.9000E+01
#aMCatNLO 2  0  0  2  1 0.23213406D+01 0.00000000D+00  -5  6  0 0.00000000D+00 0.00000000D+00 0.00000000D+00 0.00000000D+00 0.00000000D+00
  <mgrwgt>
 0.3598571843D-03    1    2    0
 0.488749315178152D+03 0.000000000000000D+00 0.000000000000000D+00 0.488749315178152D+03
 0.488749315178152D+03 0.000000000000000D+00 0.000000000000000D+00 -.488749315178152D+03
 0.492473891442968D+03 0.389651652640878D+03 0.253314016178062D+03 0.104446792937616D+03
 0.283832789041044D+03 -.218993343668641D+03 -.146761697069393D+03 -.105185416465203D+03
 0.201191949872292D+03 -.170658308972237D+03 -.106552319108669D+03 0.738623527586498D+00
 0.000000000000000D+00 -.000000000000000D+00 0.000000000000000D+00 -.000000000000000D+00
 0.490413190873949D+03 0.000000000000000D+00 0.000000000000000D+00 0.490413190873949D+03
 0.572873667049503D+03 0.000000000000000D+00 0.000000000000000D+00 -.572873667049503D+03
 0.494126695558320D+03 0.397182014561148D+03 0.244690633285338D+03 0.104446792937616D+03
 0.283131681725732D+03 -.214665910949607D+03 -.151717250291647D+03 -.105185416465203D+03
 0.200503535672729D+03 -.167592314052159D+03 -.110063338688195D+03 0.738623527586498D+00
 0.855249449666709D+02 -.149237895593823D+02 0.170899556945050D+02 -.824604761755546D+02
0.446201529079D-04 0.000000000000D+00 0.000000000000D+00 0.772563049738D-04 0.967298871052D-06  6 -1 1 25 1 -1 21 2 0.22465711D-01 0.29598801D+00 0.23475033D+06 0.23475033D+06 0.23475033D+06 0.10925214D+01  1  2  1  2  6  2        1 0.359857184317D-03 0.100000000000D+01
  </mgrwgt>
  </event>
  <event>
  7     66 0.15113768E-05 0.28357311E+02 0.75467711E-02 0.92675046E-01
       -1 -1    0    0    0  501 0.00000000E+00 0.00000000E+00 0.12919509E+04 0.12919509E+04 0.32000000E+00 0.0000E+00 0.9000E+01
        1 -1    0    0  503    0 0.00000000E+00 0.00000000E+00 -.37045727E+03 0.37045741E+03 0.32000000E+00 0.0000E+00 0.9000E+01
       23  2    1    2    0    0 0.54058263E+03 0.12382942E+03 0.29695422E+03 0.63558551E+03 0.90685277E+02 0.0000E+00 0.0000E+00
       25  1    1    2    0    0 -.56681974E+03 -.88627063E+02 0.71564014E+03 0.92569173E+03 0.12500000E+03 0.0000E+00 0.9000E+01
        1  1    3    3  502    0 0.13094577E+03 -.65605586E+01 0.54019144E+02 0.14180270E+03 0.32000000E+00 0.0000E+00 0.9000E+01
       -1  1    3    3    0  502 0.40963686E+03 0.13038997E+03 0.24293508E+03 0.49378280E+03 0.32000000E+00 0.0000E+00 0.9000E+01
       21  1    1    2  503  501 0.26237107E+02 -.35202353E+02 -.91100746E+02 0.10113110E+03 0.75000000E+00 0.0000E+00 0.9000E+01
#aMCatNLO 2  0  0  2  1 0.23213406D+01 0.00000000D+00  -5  6  0 0.00000000D+00 0.00000000D+00 0.00000000D+00 0.00000000D+00 0.00000000D+00
  <mgrwgt>
 0.1688698183D-03    1    2    0
 0.593782721742012D+03 0.000000000000000D+00 0.000000000000000D+00 0.593782721742012D+03
 0.593782721742012D+03 0.000000000000000D+00 0.000000000000000D+00 -.593782721742012D+03
 0.596898836534056D+03 -.553532141427973D+03 -.106455046629541D+03 0.151435506104001D+03
 0.143449733603021D+03 0.134075330241229D+03 -.107658499096684D+02 -.498570794091040D+02
 0.447216873346946D+03 0.419456811186744D+03 0.117220896539209D+03 -.101578426694897D+03
 0.000000000000000D+00 0.000000000000000D+00 -.000000000000000D+00 -.000000000000000D+00
 0.596503251125949D+03 0.000000000000000D+00 0.000000000000000D+00 0.596503251125949D+03
 0.802362239578642D+03 0.000000000000000D+00 0.000000000000000D+00 -.802362239578642D+03
 0.606380314158892D+03 -.566819739008376D+03 -.886270633663239D+02 0.151435506104001D+03
 0.140266454826705D+03 0.130942302849597D+03 -.656226385408356D+01 -.498570794091040D+02
 0.441729970096084D+03 0.409640329351055D+03 0.130391680257738D+03 -.101578426694897D+03
 0.210488751622909D+03 0.262371068077244D+02 -.352023530373305D+02 -.205858988452693D+03
0.125019310133D-03 0.000000000000D+00 0.000000000000D+00 0.391367469141D-04 0.131850562525D-06  6 -1 1 25 1 -1 21 2 0.19876147D+00 0.56993377D-01 0.35525739D+06 0.35525739D+06 0.35525739D+06 0.10791612D+01  1  2  1  2  6  2        1 0.168869818325D-03 0.100000000000D+01
  </mgrwgt>
  </event>
  <event>
  7     66 0.15113768E-05 0.28132196E+02 0.75467711E-02 0.93708536E-01
       -1 -1    0    0    0  501 0.00000000E+00 0.00000000E+00 0.46609674E+03 0.46609685E+03 0.32000000E+00 0.0000E+00 0.9000E+01
        1 -1    0    0  503    0 0.00000000E+00 0.00000000E+00 -.65486725E+03 0.65486732E+03 0.32000000E+00 0.0000E+00 0.9000E+01
       23  2    1    2    0    0 0.39423232E+03 -.35689248E+03 -.10609619E+03 0.55040139E+03 0.94307604E+02 0.0000E+00 0.0000E+00
       25  1    1    2    0    0 -.39296695E+03 0.34545143E+03 -.55205428E+02 0.54077015E+03 0.12500000E+03 0.0000E+00 0.9000E+01
        1  1    3    3  502    0 0.29343793E+02 -.53868569E+02 0.98480115E+01 0.62128630E+02 0.32000000E+00 0.0000E+00 0.9000E+01
       -1  1    3    3    0  502 0.36488853E+03 -.30302391E+03 -.11594420E+03 0.48827276E+03 0.32000000E+00 0.0000E+00 0.9000E+01
       21  1    1    2  503  501 -.12653702E+01 0.11441050E+02 -.27468889E+02 0.29792636E+02 0.75000000E+00 0.0000E+00 0.9000E+01
#aMCatNLO 2  0  0  2  1 0.23213406D+01 0.00000000D+00  -5  6  0 0.00000000D+00 0.00000000D+00 0.00000000D+00 0.00000000D+00 0.00000000D+00
  <mgrwgt>
 0.2193684571D-03    1    2    0
 0.539561074802205D+03 0.000000000000000D+00 0.000000000000000D+00 0.539561074802205D+03
 0.539561074802205D+03 0.000000000000000D+00 0.000000000000000D+00 -.539561074802205D+03
 0.542679848888786D+03 -.393600838336745D+03 0.351182837127650D+03 0.250082657843755D+02
 0.636841401127247D+02 0.292649033766910D+02 -.531873381857933D+02 0.192442767845439D+02
 0.472758160602899D+03 0.364335934960054D+03 -.297995498941857D+03 -.442525425689194D+02
 0.000000000000000D+00 -.000000000000000D+00 0.000000000000000D+00 -.000000000000000D+00
 0.540934816736405D+03 0.000000000000000D+00 0.000000000000000D+00 0.540934816736405D+03
 0.564255612278667D+03 0.000000000000000D+00 0.000000000000000D+00 -.564255612278667D+03
 0.538525883650963D+03 -.392966949659350D+03 0.345451429986813D+03 0.250082657843755D+02
 0.642859806958515D+02 0.293399296257980D+02 -.538657001682934D+02 0.192442767845439D+02
 0.476371675441200D+03 0.364892390256524D+03 -.303026779628010D+03 -.442525425689194D+02
 0.260068892270574D+02 -.126537022297156D+01 0.114410498094906D+02 -.233207955422624D+02
0.254163542610D-04 0.000000000000D+00 0.000000000000D+00 0.223362127716D-05 0.105872333117D-06  6 -1 1 25 1 -1 21 2 0.71706490D-01 0.10074782D+00 0.29436347D+06 0.29436347D+06 0.29436347D+06 0.10851618D+01  1  2  1  2  6  2        1 0.219368457091D-03 0.100000000000D+01
  </mgrwgt>
  </event>
  <event>
  7     66 0.15113768E-05 0.42214448E+02 0.75467711E-02 0.94926799E-01
       -1 -1    0    0    0  501 0.00000000E+00 0.00000000E+00 0.39103611E+03 0.39103624E+03 0.32000000E+00 0.0000E+00 0.9000E+01
        1 -1    0    0  503    0 0.00000000E+00 0.00000000E+00 -.75054558E+03 0.75054565E+03 0.32000000E+00 0.0000E+00 0.9000E+01
       23  2    1    2    0    0 0.31905427E+03 0.35354194E+03 -.37881593E+03 0.61482966E+03 0.87900365E+02 0.0000E+00 0.0000E+00
       25  1    1    2    0    0 -.30831593E+03 -.33190733E+03 0.65631296E+02 0.47450359E+03 0.12500000E+03 0.0000E+00 0.9000E+01
        1  1    3    3  502    0 0.67801388E+02 0.11400322E+03 -.14370670E+03 0.19556452E+03 0.32000000E+00 0.0000E+00 0.9000E+01
       -1  1    3    3    0  502 0.25125289E+03 0.23953872E+03 -.23510923E+03 0.41926514E+03 0.32000000E+00 0.0000E+00 0.9000E+01
       21  1    1    2  503  501 -.10738347E+02 -.21634608E+02 -.46324836E+02 0.52248648E+02 0.75000000E+00 0.0000E+00 0.9000E+01
#aMCatNLO 2  0  0  2  1 0.23213406D+01 0.00000000D+00  -5  6  0 0.00000000D+00 0.00000000D+00 0.00000000D+00 0.00000000D+00 0.00000000D+00
  <mgrwgt>
 0.3550015690D-03    1    2    0
 0.521531144484314D+03 0.000000000000000D+00 0.000000000000000D+00 0.521531144484314D+03
 0.521531144484314D+03 0.000000000000000D+00 0.000000000000000D+00 -.521531144484314D+03
 0.525317364115009D+03 -.313670875932379D+03 -.342695973044688D+03 0.210958253433017D+03
 0.158025962134560D+03 0.661567543071380D+02 0.110693000517641D+03 -.913375509004915D+02
 0.359718962719058D+03 0.247514121625241D+03 0.232002972527047D+03 -.119620702532525D+03
 0.000000000000000D+00 -.000000000000000D+00 -.000000000000000D+00 -.000000000000000D+00
 0.525649066029549D+03 0.000000000000000D+00 0.000000000000000D+00 0.525649066029549D+03
 0.558332012013320D+03 0.000000000000000D+00 0.000000000000000D+00 -.558332012013320D+03
 0.515120927587077D+03 -.308315927451620D+03 -.331907327768323D+03 0.210958253433017D+03
 0.161045339463487D+03 0.677989568244552D+02 0.114001555304853D+03 -.913375509004915D+02
 0.367175626587095D+03 0.251255317146130D+03 0.239540380502011D+03 -.119620702532525D+03
 0.406391844052109D+02 -.107383465189655D+02 -.216346080385407D+02 -.326829459837706D+02
0.353600164608D-04 0.000000000000D+00 0.000000000000D+00 0.651890343623D-05 0.714859847250D-07  6 -1 1 25 1 -1 21 2 0.60159024D-01 0.11546781D+00 0.23710978D+06 0.23710978D+06 0.23710978D+06 0.10921929D+01  1  2  1  2  6  2        1 0.355001568952D-03 0.100000000000D+01
  </mgrwgt>
  </event>
  <event>
  6     66 0.15113768E-05 0.15452184E+02 0.75467711E-02 0.90144069E-01
       -1 -1    0    0    0  501 0.00000000E+00 0.00000000E+00 0.41961588E+03 0.41961600E+03 0.32000000E+00 0.0000E+00 0.9000E+01
        1 -1    0    0  501    0 -.00000000E+00 -.00000000E+00 -.15178285E+04 0.15178286E+04 0.32000000E+00 0.0000E+00 0.9000E+01
       25  1    1    2    0    0 0.74481384E+03 -.34730826E+02 -.84225316E+03 0.11317991E+04 0.12500000E+03 0.0000E+00 0.9000E+01
        1  1    1    2  503    0 -.45456204E+02 0.20372085E+02 -.36500002E+02 0.61754683E+02 0.32000000E+00 0.0000E+00 0.9000E+01
       -1  1    1    2    0  502 -.67652892E+03 0.35745802E+02 -.22087096E+03 0.71256805E+03 0.32000000E+00 0.0000E+00 0.9000E+01
       21  1    1    2  502  503 -.22828719E+02 -.21387062E+02 0.14114665E+01 0.31322701E+02 0.75000000E+00 0.0000E+00 0.9000E+01
#aMCatNLO 2  0  0  4  5 0.17646442D+01 0.00000000D+00  -5  6  0 0.00000000D+00 0.00000000D+00 0.00000000D+00 0.00000000D+00 0.00000000D+00
  <mgrwgt>
 0.2224921022D-02    1    2    0
 0.798063345148868D+03 0.000000000000000D+00 0.000000000000000D+00 0.798063345148868D+03
 0.798063345148868D+03 -.000000000000000D+00 -.000000000000000D+00 -.798063345148868D+03
 0.802869750975917D+03 0.753092420430645D+03 -.346078048715269D+02 -.246229452267630D+03
 0.851404452268618D+02 -.812268963923920D+02 -.137820018532666D+01 0.254791538347928D+02
 0.708116494094958D+03 -.671865524038253D+03 0.359860050568536D+02 0.220750298432837D+03
 0.000000000000000D+00 0.000000000000000D+00 0.000000000000000D+00 0.000000000000000D+00
 0.798063345148868D+03 0.000000000000000D+00 0.000000000000000D+00 0.798063345148868D+03
 0.798063345148868D+03 -.000000000000000D+00 -.000000000000000D+00 -.798063345148868D+03
 0.794571369994646D+03 0.745061592261376D+03 -.347440662499963D+02 -.243710351878060D+03
 0.477835586352373D+02 -.434920115047122D+02 0.196915196120982D+02 -.198933820339544D+01
 0.715601466787077D+03 -.679022992413926D+03 0.358645622259695D+02 0.222995444387084D+03
 0.381702948807762D+02 -.225465883427379D+02 -.208120155880715D+02 0.227042456943716D+02
0.103984014780D-02 0.000000000000D+00 0.000000000000D+00 0.151037099403D-07 0.210830645711D-07  6 -1 1 25 1 -1 21 2 0.64556301D-01 0.23351209D+00 0.57355505D+06 0.57355505D+06 0.57355505D+06 0.10643232D+01  1  2  1  3  6  4        1 0.222492102179D-02 0.100000000000D+01
  </mgrwgt>
  </event>
  <event>
  7     66 0.15113768E-05 0.31700834E+02 0.75467711E-02 0.92475624E-01
       -1 -1    0    0    0  501 0.00000000E+00 0.00000000E+00 0.96507642E+03 0.96507647E+03 0.32000000E+00 0.0000E+00 0.9000E+01
        1 -1    0    0  503    0 0.00000000E+00 0.00000000E+00 -.46194804E+03 0.46194815E+03 0.32000000E+00 0.0000E+00 0.9000E+01
       23  2    1    2    0    0 -.31594697E+03 -.46935262E+03 0.97234274E+02 0.58118361E+03 0.90584301E+02 0.0000E+00 0.0000E+00
       25  1    1    2    0    0 0.26778043E+03 0.50249803E+03 0.47738661E+03 0.75348099E+03 0.12500000E+03 0.0000E+00 0.9000E+01
        1  1    3    3  502    0 -.13043097E+03 -.12010915E+03 0.37636561E+02 0.18125965E+03 0.32000000E+00 0.0000E+00 0.9000E+01
       -1  1    3    3    0  502 -.18551600E+03 -.34924347E+03 0.59597714E+02 0.39992396E+03 0.32000000E+00 0.0000E+00 0.9000E+01
       21  1    1    2  503  501 0.48166539E+02 -.33145411E+02 -.71492503E+02 0.92360025E+02 0.75000000E+00 0.0000E+00 0.9000E+01
#aMCatNLO 2  0  0  2  4 0.20034762D+03 0.00000000D+00  -5  6  0 0.00000000D+00 0.00000000D+00 0.00000000D+00 0.00000000D+00 0.00000000D+00
  <mgrwgt>
 0.2723427188D-03    1    2    0
 0.601606556671125D+03 0.000000000000000D+00 0.000000000000000D+00 0.601606556671125D+03
 0.601606556671125D+03 0.000000000000000D+00 0.000000000000000D+00 -.601606556671125D+03
 0.604689752976492D+03 0.292020991991385D+03 0.485817083657906D+03 0.169499849018414D+03
 0.181172552609803D+03 -.123147990924175D+03 -.125117540092553D+03 -.447623425624690D+02
 0.417350807755955D+03 -.168873001067211D+03 -.360699543565354D+03 -.124737506455945D+03
 0.000000000000000D+00 0.000000000000000D+00 -.000000000000000D+00 -.000000000000000D+00
 0.608898443853369D+03 0.000000000000000D+00 0.000000000000000D+00 0.608898443853369D+03
 0.732164429891062D+03 0.000000000000000D+00 0.000000000000000D+00 -.732164429891062D+03
 0.607096224611062D+03 0.267780431674024D+03 0.502498027391365D+03 0.169499849018414D+03
 0.182869481497012D+03 -.130430285858292D+03 -.120106288270974D+03 -.447623425624690D+02
 0.414667196419176D+03 -.185516684843359D+03 -.349246328418815D+03 -.124737506455945D+03
 0.136429971217181D+03 0.481665390276266D+02 -.331454107015764D+02 -.123265986037693D+03
0.106104308967D-03 0.000000000000D+00 0.000000000000D+00 0.361811376737D-04 0.667020825864D-07  6 -1 1 25 1 -1 21 2 0.14847306D+00 0.71068823D-01 0.36856483D+06 0.36856483D+06 0.36856483D+06 0.10779995D+01  1  2  1  2  6  2        1 0.272342718847D-03 0.100000000000D+01
  </mgrwgt>
  </event>
  <event>
  7     66 0.15113768E-05 0.38456800E+02 0.75467711E-02 0.92641188E-01
       -1 -1    0    0    0  501 0.00000000E+00 0.00000000E+00 0.61774221E+03 0.61774229E+03 0.32000000E+00 0.0000E+00 0.9000E+01
       21 -1    0    0  501  503 0.00000000E+00 0.00000000E+00 -.66961889E+03 0.66961931E+03 0.75000000E+00 0.0000E+00 0.9000E+01
       23  2    1    2    0    0 0.58452220E+03 -.69702122E+02 0.19901986E+03 0.62804799E+03 0.91163563E+02 0.0000E+00 0.0000E+00
       25  1    1    2    0    0 -.57818691E+03 0.58842903E+02 -.23544713E+03 0.63939263E+03 0.12500000E+03 0.0000E+00 0.9000E+01
        1  1    3    3  502    0 0.47046958E+03 -.51982725E+02 0.12043600E+03 0.48841454E+03 0.32000000E+00 0.0000E+00 0.9000E+01
       -1  1    3    3    0  502 0.11405261E+03 -.17719398E+02 0.78583860E+02 0.13963345E+03 0.32000000E+00 0.0000E+00 0.9000E+01
       -1  1    1    2    0  503 -.63352893E+01 0.10859219E+02 -.15449408E+02 0.19920972E+02 0.32000000E+00 0.0000E+00 0.9000E+01
#aMCatNLO 2  0  0  2  1 0.17436471D+01 0.00000000D+00  -5  6  0 0.00000000D+00 0.00000000D+00 0.00000000D+00 0.00000000D+00 0.00000000D+00
  <mgrwgt>
 0.9007483532D-05    1    2    0
 0.633427331683731D+03 0.000000000000000D+00 0.000000000000000D+00 0.633427331683731D+03
 0.633427331683731D+03 0.000000000000000D+00 0.000000000000000D+00 -.633427331683731D+03
 0.636314089353683D+03 -.581360340471330D+03 0.642824360609037D+02 -.217160178787784D+03
 0.489309459083346D+03 0.468020160057382D+03 -.477771003791876D+02 0.134529644345240D+03
 0.141231114930432D+03 0.113340180413948D+03 -.165053356817162D+02 0.826305344425446D+02
 0.000000000000000D+00 -.000000000000000D+00 0.000000000000000D+00 -.000000000000000D+00
 0.635758202621777D+03 0.000000000000000D+00 0.000000000000000D+00 0.635758202621777D+03
 0.650641183307918D+03 0.000000000000000D+00 0.000000000000000D+00 -.650641183307918D+03
 0.632887138038142D+03 -.578186906607496D+03 0.588429033157166D+02 -.217160178787784D+03
 0.492083564660620D+03 0.470473975723539D+03 -.519831469645061D+02 0.134529644345240D+03
 0.141946341398854D+03 0.114048220171549D+03 -.177189754207569D+02 0.826305344425446D+02
 0.194823418320780D+02 -.633528928759243D+01 0.108592190695464D+02 -.148829806861413D+02
0.932018666440D-06 0.000000000000D+00 0.000000000000D+00 0.468838687063D-04 0.447926648806D-08  6 -1 21 25 1 -1 -1 2 0.95037106D-01 0.10301812D+00 0.35747832D+06 0.35747832D+06 0.35747832D+06 0.10789641D+01  1  2  1  6  6  2        1 0.900748353191D-05 0.100000000000D+01
  </mgrwgt>
  </event>
  <event>
  7     66 0.15113768E-05 0.93293981E+02 0.75467711E-02 0.90959469E-01
       -1 -1    0    0    0  501 0.00000000E+00 0.00000000E+00 0.15379388E+04 0.15379388E+04 0.32000000E+00 0.0000E+00 0.9000E+01
        1 -1    0    0  503    0 0.00000000E+00 0.00000000E+00 -.32188809E+03 0.32188825E+03 0.32000000E+00 0.0000E+00 0.9000E+01
       23  2    1    2    0    0 -.65362357E+03 -.45188758E+02 0.60719894E+03 0.89776599E+03 0.89595923E+02 0.0000E+00 0.0000E+00
       25  1    1    2    0    0 0.59458045E+03 -.67945109E+02 0.54653933E+03 0.82004432E+03 0.12500000E+03 0.0000E+00 0.9000E+01
        1  1    3    3  502    0 -.24215750E+03 0.26025064E+02 0.21461853E+03 0.32462097E+03 0.32000000E+00 0.0000E+00 0.9000E+01
       -1  1    3    3    0  502 -.41146607E+03 -.71213822E+02 0.39258041E+03 0.57314502E+03 0.32000000E+00 0.0000E+00 0.9000E+01
       21  1    1    2  503  501 0.59043119E+02 0.11313387E+03 0.62312453E+02 0.14201678E+03 0.75000000E+00 0.0000E+00 0.9000E+01
#aMCatNLO 2  0  0  2  1 0.17436471D+01 0.00000000D+00  -5  6  0 0.00000000D+00 0.00000000D+00 0.00000000D+00 0.00000000D+00 0.00000000D+00
  <mgrwgt>
 0.7964675556D-04    1    2    0
 0.633141950596743D+03 0.000000000000000D+00 0.000000000000000D+00 0.633141950596743D+03
 0.633141950596743D+03 0.000000000000000D+00 0.000000000000000D+00 -.633141950596743D+03
 0.636141898161373D+03 0.623591404100166D+03 -.123565599132198D+02 -.570883139084720D+01
 0.235861537959695D+03 -.231005791393779D+03 0.473902173338190D+02 -.459964480149869D+01
 0.394280465072417D+03 -.392585612706387D+03 -.350336574205992D+02 0.103084761923459D+02
 0.000000000000000D+00 0.000000000000000D+00 0.000000000000000D+00 -.000000000000000D+00
 0.681628341977494D+03 0.000000000000000D+00 0.000000000000000D+00 0.681628341977494D+03
 0.726265116847952D+03 0.000000000000000D+00 0.000000000000000D+00 -.726265116847952D+03
 0.611391888635325D+03 0.594580451147770D+03 -.679451090670534D+02 -.570883139084720D+01
 0.243593382688613D+03 -.242155344450324D+03 0.260263042233445D+02 -.459964480149869D+01
 0.417712760508719D+03 -.411468225357291D+03 -.712150625340404D+02 0.103084761923459D+02
 0.135195426992789D+03 0.590431186598454D+02 0.113133867377749D+03 -.446367748704578D+02
0.103218875993D-03 0.000000000000D+00 0.000000000000D+00 0.220573586328D-04 0.836530651120D-08  6 -1 1 25 1 -1 21 2 0.23660563D+00 0.49521186D-01 0.49008039D+06 0.49008039D+06 0.49008039D+06 0.10691260D+01  1  2  1  2  6  2        1 0.796467555564D-04 0.100000000000D+01
  </mgrwgt>
  </event>
  <event>
  6     66 -.15113768E-05 0.41304544E+02 0.75467711E-02 0.95180089E-01
       -1 -1    0    0    0  501 0.00000000E+00 0.00000000E+00 0.45947268E+03 0.45947279E+03 0.32000000E+00 0.0000E+00 0.9000E+01
        1 -1    0    0  501    0 -.00000000E+00 -.00000000E+00 -.51041615E+03 0.51041625E+03 0.32000000E+00 0.0000E+00 0.9000E+01
       23  2    1    2    0    0 -.46017502E+03 -.80368519E+02 0.18727776E+02 0.48132048E+03 0.11444882E+03 0.0000E+00 0.0000E+00
       25  1    1    2    0    0 0.46017502E+03 0.80368519E+02 -.69671242E+02 0.48856855E+03 0.12500000E+03 0.0000E+00 0.9000E+01
        1  1    3    3  502    0 -.55525033E+02 0.38771254E+01 -.33096251E+02 0.64757437E+02 0.32000000E+00 0.0000E+00 0.9000E+01
       -1  1    3    3    0  502 -.40464999E+03 -.84245645E+02 0.51824027E+02 0.41656305E+03 0.32000000E+00 0.0000E+00 0.9000E+01
#aMCatNLO 1  0  0  4  5 0.29629615D+01 0.00000000D+00  -5  6  0 0.00000000D+00 0.00000000D+00 0.00000000D+00 0.00000000D+00 0.00000000D+00
  <mgrwgt>
 -.2299643386D-02    8    2    0
 0.484275103802894D+03 0.000000000000000D+00 0.000000000000000D+00 0.484275103802894D+03
 0.484275103802894D+03 -.000000000000000D+00 -.000000000000000D+00 -.484275103802894D+03
 0.485579382072707D+03 0.460175045379780D+03 0.803685239068798D+02 -.440699928393335D+02
 0.631033539668559D+02 -.555223154478923D+02 0.387778668464316D+01 -.297366531337919D+02
 0.419867471566225D+03 -.404652729931888D+03 -.842463105915229D+02 0.738066459731255D+02
 0.000000000000000D+00 0.000000000000000D+00 0.000000000000000D+00 -.000000000000000D+00
 0.484275103802894D+03 0.000000000000000D+00 0.000000000000000D+00 0.484275103802894D+03
 0.484275103802894D+03 -.000000000000000D+00 -.000000000000000D+00 -.484275103802894D+03
 0.485170337951426D+03 0.459714033940153D+03 0.804007218440089D+02 -.443169014410431D+02
 0.581583342573082D+02 -.524903371306292D+02 0.271254134314025D+01 -.248957520665561D+02
 0.420208923682179D+03 -.405051684286838D+03 -.842184468420930D+02 0.735929739175983D+02
 0.501261171487575D+01 -.217201252268499D+01 0.110518365494386D+01 -.438032040999904D+01
0.237198224385D-05 0.000000000000D+00 0.000000000000D+00 0.130602393927D-06 0.000000000000D+00  6 -1 1 25 1 -1 21 0 0.70688121D-01 0.78525577D-01 0.22684381D+06 0.22684381D+06 0.22684381D+06 0.10936491D+01  1  2  2  3  6  4        1 0.258416512139D-04 0.100000000000D+01
0.406917468446D-06 0.000000000000D+00 -.910903637365D-08 0.130602393927D-06 0.000000000000D+00  6 -1 1 25 1 -1 21 2 0.70688121D-01 0.78525577D-01 0.22684381D+06 0.22684381D+06 0.22684381D+06 0.10936491D+01  1  2  3  3  6  4        1 0.530238344549D-05 0.100000000000D+01
-.678950047342D-06 0.000000000000D+00 0.000000000000D+00 0.130602393927D-06 0.000000000000D+00  6 -1 1 25 1 -1 21 2 0.70688121D-01 0.78525577D-01 0.22684381D+06 0.22684381D+06 0.22684381D+06 0.10936491D+01  1  2 15  3  6  4        1 -.884713429749D-05 0.100000000000D+01
0.117851287839D-07 0.000000000000D+00 0.000000000000D+00 0.130602393927D-06 0.000000000000D+00  6 -1 1 25 1 -1 21 2 0.70688121D-01 0.78525577D-01 0.22650646D+06 0.22650646D+06 0.22650646D+06 0.10936981D+01  1  2 12  3  6  4        1 0.153587905498D-06 0.100000000000D+01
0.125385988963D-08 0.000000000000D+00 0.000000000000D+00 0.130602393927D-06 0.000000000000D+00  6 -1 1 25 1 -1 21 2 0.70688121D-01 0.78525577D-01 0.22650646D+06 0.22650646D+06 0.22650646D+06 0.10936981D+01  1  2 12  3  6  4        1 0.163407390592D-07 0.100000000000D+01
-.190841706282D-03 0.000000000000D+00 0.000000000000D+00 0.130602393927D-06 0.000000000000D+00  6 -1 1 25 1 -1 21 2 0.70688121D-01 0.78525577D-01 0.22684381D+06 0.22684381D+06 0.22684381D+06 0.10936491D+01  1  2  4  3  6  4        1 -.248678413331D-02 0.100000000000D+01
-.637551212079D-04 0.000000000000D+00 0.000000000000D+00 0.130602393927D-06 0.000000000000D+00  6 -1 1 25 1 -1 21 2 0.70688121D-01 0.78525577D-01 0.22684381D+06 0.22684381D+06 0.22684381D+06 0.10936491D+01  1  2  5  3  6  4        1 -.830768215847D-03 0.100000000000D+01
0.763925878374D-04 0.000000000000D+00 -.000000000000D+00 0.130602393927D-06 0.000000000000D+00  6 -1 1 25 1 -1 21 2 0.70688121D-01 0.78525577D-01 0.22684381D+06 0.22684381D+06 0.22684381D+06 0.10936491D+01  1  2  6  3  6  4        1 0.995442133890D-03 0.100000000000D+01
  </mgrwgt>
  </event>
  <event>
  7     66 0.15113768E-05 0.40725558E+02 0.75467711E-02 0.94392816E-01
       -1 -1    0    0    0  503 0.00000000E+00 0.00000000E+00 0.79743274E+03 0.79743280E+03 0.32000000E+00 0.0000E+00 0.9000E+01
        1 -1    0    0  501    0 0.00000000E+00 0.00000000E+00 -.36749331E+03 0.36749344E+03 0.32000000E+00 0.0000E+00 0.9000E+01
       23  2    1    2    0    0 0.33807436E+03 0.31114722E+03 0.18271296E+02 0.46875668E+03 0.91061120E+02 0.0000E+00 0.0000E+00
       25  1    1    2    0    0 -.28192358E+03 -.36654303E+03 0.37888207E+03 0.61074653E+03 0.12500000E+03 0.0000E+00 0.9000E+01
        1  1    3    3  502    0 0.18003869E+03 0.20336532E+03 -.24598351E+02 0.27272067E+03 0.32000000E+00 0.0000E+00 0.9000E+01
       -1  1    3    3    0  502 0.15803566E+03 0.10778189E+03 0.42869647E+02 0.19603601E+03 0.32000000E+00 0.0000E+00 0.9000E+01
       21  1    1    2  501  503 -.56150779E+02 0.55395816E+02 0.32786073E+02 0.85423038E+02 0.75000000E+00 0.0000E+00 0.9000E+01
#aMCatNLO 2  0  0  1  1 0.57355141D+02 0.00000000D+00  -5  6  0 0.00000000D+00 0.00000000D+00 0.00000000D+00 0.00000000D+00 0.00000000D+00
  <mgrwgt>
 0.1272158548D-03    1    2    0
 0.500343577688638D+03 0.000000000000000D+00 0.000000000000000D+00 0.500343577688638D+03
 0.500343577688638D+03 0.000000000000000D+00 0.000000000000000D+00 -.500343577688638D+03
 0.504007496267490D+03 -.310241984741024D+03 -.338605375429574D+03 0.165815762000997D+03
 0.305120175785785D+03 0.163003202889583D+03 0.220173213753133D+03 -.134357855985062D+03
 0.191559483324001D+03 0.147238781851441D+03 0.118432161676441D+03 -.314579060159347D+02
 0.000000000000000D+00 -.000000000000000D+00 0.000000000000000D+00 0.000000000000000D+00
 0.542071390278686D+03 0.000000000000000D+00 0.000000000000000D+00 0.542071390278686D+03
 0.540610309397188D+03 0.000000000000000D+00 0.000000000000000D+00 -.540610309397188D+03
 0.506906861345366D+03 -.281923577823646D+03 -.366543033514693D+03 0.165815762000997D+03
 0.303024745923642D+03 0.180038963859852D+03 0.203366503312261D+03 -.134357855985062D+03
 0.193859401502763D+03 0.158035392594946D+03 0.107780714357734D+03 -.314579060159347D+02
 0.788906909041024D+02 -.561507786311520D+02 0.553958158446981D+02 0.146108088149816D+01
0.210502623795D-04 0.000000000000D+00 0.000000000000D+00 0.665975070254D-04 0.681049772401D-07  6 -1 1 25 1 -1 21 2 0.12268157D+00 0.56537261D-01 0.26050644D+06 0.26050644D+06 0.26050644D+06 0.10891167D+01  1  2  1  1  6  1       -1 0.127215854838D-03 0.100000000000D+01
  </mgrwgt>
  </event>
  <event>
  7     66 0.15113768E-05 0.70812533E+02 0.75467711E-02 0.94540354E-01
       -3 -1    0    0    0  503 0.00000000E+00 0.00000000E+00 0.23472238E+03 0.23472291E+03 0.50000000E+00 0.0000E+00 0.9000E+01
        3 -1    0    0  501    0 0.00000000E+00 0.00000000E+00 -.11470762E+04 0.11470763E+04 0.50000000E+00 0.0000E+00 0.9000E+01
       23  2    1    2    0    0 -.21915285E+03 -.43670751E+03 -.32191828E+03 0.59242047E+03 0.92678020E+02 0.0000E+00 0.0000E+00
       25  1    1    2    0    0 0.22577173E+03 0.42755335E+03 -.59531953E+03 0.77704896E+03 0.12500000E+03 0.0000E+00 0.9000E+01
        3  1    3    3  502    0 -.17118978E+03 -.24262394E+03 -.17980983E+03 0.34713706E+03 0.50000000E+00 0.0000E+00 0.9000E+01
       -3  1    3    3    0  502 -.47963072E+02 -.19408358E+03 -.14210845E+03 0.24528341E+03 0.50000000E+00 0.0000E+00 0.9000E+01
       21  1    1    2  501  503 -.66188777E+01 0.91541592E+01 0.48839777E+01 0.12329798E+02 0.75000000E+00 0.0000E+00 0.9000E+01
#aMCatNLO 2  0  0  1  1 0.57355141D+02 0.00000000D+00  -5  6  0 0.00000000D+00 0.00000000D+00 0.00000000D+00 0.00000000D+00 0.00000000D+00
  <mgrwgt>
 0.6525344556D-04    1    2    0
 0.508427409046200D+03 0.000000000000000D+00 0.000000000000000D+00 0.508427409046200D+03
 0.508427409046200D+03 0.000000000000000D+00 0.000000000000000D+00 -.508427409046200D+03
 0.511886990873992D+03 0.222447716654418D+03 0.432150585630739D+03 -.100827457174503D+03
 0.304252235205621D+03 -.173177150524142D+03 -.239881697686514D+03 0.709638519176591D+02
 0.200715592012787D+03 -.492705661302756D+02 -.192268887944225D+03 0.298636052568436D+02
 0.000000000000000D+00 -.000000000000000D+00 0.000000000000000D+00 0.000000000000000D+00
 0.527805882176369D+03 0.000000000000000D+00 0.000000000000000D+00 0.527805882176369D+03
 0.510107712802518D+03 0.000000000000000D+00 0.000000000000000D+00 -.510107712802518D+03
 0.509476122706731D+03 0.225771725589032D+03 0.427553355047717D+03 -.100827457174503D+03
 0.305303286970798D+03 -.171193362413022D+03 -.242625351976882D+03 0.709638519176591D+02
 0.202138152985036D+03 -.479594854480873D+02 -.194082162314881D+03 0.298636052568436D+02
 0.209960323163223D+02 -.661887772792194D+01 0.915415924404612D+01 0.176981693738509D+02
0.930921636754D-04 0.000000000000D+00 0.000000000000D+00 0.206240007055D-04 0.102452550846D-05  6 -3 3 25 3 -3 21 2 0.36110712D-01 0.17647100D+00 0.25379288D+06 0.25379288D+06 0.25379288D+06 0.10899675D+01  1  2  1  1  6  1       -3 0.652534455615D-04 0.100000000000D+01
  </mgrwgt>
  </event>
  <event>
  7     66 0.15113768E-05 0.50110533E+02 0.75467711E-02 0.94144430E-01
       21 -1    0    0  503  501 0.00000000E+00 0.00000000E+00 0.18525989E+03 0.18526141E+03 0.75000000E+00 0.0000E+00 0.9000E+01
        1 -1    0    0  501    0 0.00000000E+00 0.00000000E+00 -.19552890E+04 0.19552890E+04 0.32000000E+00 0.0000E+00 0.9000E+01
       23  2    1    2    0    0 -.33964243E+03 -.35359757E+03 -.74076760E+03 0.89321110E+03 0.93280293E+02 0.0000E+00 0.0000E+00
       25  1    1    2    0    0 0.33946256E+03 0.38028677E+03 -.10739174E+04 0.11953144E+04 0.12500000E+03 0.0000E+00 0.9000E+01
        1  1    3    3  502    0 -.24587661E+03 -.22824316E+03 -.57117786E+03 0.66241565E+03 0.32000000E+00 0.0000E+00 0.9000E+01
        1  1    1    2  503    0 0.17987717E+00 -.26689197E+02 0.44655894E+02 0.52024964E+02 0.32000000E+00 0.0000E+00 0.9000E+01
       -1  1    3    3    0  502 -.93765822E+02 -.12535441E+03 -.16958974E+03 0.23079545E+03 0.32000000E+00 0.0000E+00 0.9000E+01
#aMCatNLO 2  0  0  1  5 0.37458760D+02 0.00000000D+00  -5  6  0 0.00000000D+00 0.00000000D+00 0.00000000D+00 0.00000000D+00 0.00000000D+00
  <mgrwgt>
 0.3072169945D-03    1    2    0
 0.516755416085803D+03 0.000000000000000D+00 0.000000000000000D+00 0.516755416085803D+03
 0.516755416085803D+03 0.000000000000000D+00 0.000000000000000D+00 -.516755416085803D+03
 0.520105060298171D+03 0.339553897891091D+03 0.366734167512921D+03 -.713685823968463D+02
 0.341567328407860D+03 -.245819482866190D+03 -.236986490846524D+03 0.885577976983232D+01
 0.000000000000000D+00 0.000000000000000D+00 -.000000000000000D+00 0.000000000000000D+00
 0.171838443465576D+03 -.937344150249004D+02 -.129747676666396D+03 0.625128026270140D+02
 0.699431630606008D+03 0.000000000000000D+00 0.000000000000000D+00 0.699431630606008D+03
 0.517903494319764D+03 0.000000000000000D+00 0.000000000000000D+00 -.517903494319764D+03
 0.529689839772610D+03 0.339462557454965D+03 0.380286765337860D+03 -.713685823968463D+02
 0.335604092276313D+03 -.245878402120697D+03 -.228244371864563D+03 0.885577976983232D+01
 0.183479726033862D+03 0.179877167591997D+00 -.266891971799203D+02 0.181528136286243D+03
 0.168561466842988D+03 -.937640325018596D+02 -.125353196293376D+03 0.625128026270140D+02
0.558881885236D-05 0.000000000000D+00 0.000000000000D+00 0.174998375465D-04 0.315995286827D-08  6 21 1 25 1 1 -1 2 0.28501633D-01 0.30081373D+00 0.27226375D+06 0.27226375D+06 0.27226375D+06 0.10876828D+01  1  2  1  5  5  1       -1 0.307216994509D-03 0.100000000000D+01
  </mgrwgt>
  </event>
</LesHouchesEvents>
