<event>
 5    0  0.1856407E+000  0.2366150E+03  0.7546771E-02  0.1122069E+00
         21   -1    0    0  502  501  0.00000000000E+00  0.00000000000E+00  0.12948032232E+03  0.12948032232E+03  0.00000000000E+00 0. -1.
         21   -1    0    0  503  502 -0.00000000000E+00 -0.00000000000E+00 -0.57170561387E+03  0.57170561387E+03  0.00000000000E+00 0.  1.
         25    1    1    2    0    0  0.73284171169E+02  0.18705908445E+03 -0.26287116567E+02  0.23807075275E+03  0.12500000000E+03 0.  0.
         21    1    1    2  503  504 -0.52319374717E+02 -0.15160082668E+03 -0.35519045142E+03  0.38971833983E+03  0.00000000000E+00 0.  1.
         21    1    1    2  504  501 -0.20964796453E+02 -0.35458257763E+02 -0.60747723562E+02  0.73396843610E+02  0.00000000000E+00 0.  1.
<mgrwt>
<rscale>  4 0.23661503E+03</rscale>
<asrwt>0</asrwt>
<pdfrwt beam="1">  1       21 0.19920050E-01 0.23661503E+03</pdfrwt>
<pdfrwt beam="2">  1       21 0.87954709E-01 0.23661503E+03</pdfrwt>
<totfact> 0.25150995E+04</totfact>
</mgrwt>
</event>
<event>
 5    0  0.1856407E+000  0.2224302E+03  0.7546771E-02  0.1132084E+00
         21   -1    0    0  502  501  0.00000000000E+00  0.00000000000E+00  0.47287971875E+02  0.47287971875E+02  0.00000000000E+00 0. -1.
         21   -1    0    0  503  502 -0.00000000000E+00 -0.00000000000E+00 -0.17147885694E+04  0.17147885694E+04  0.00000000000E+00 0. -1.
         25    1    1    2    0    0 -0.13191385041E+03  0.15646020247E+03 -0.41726870651E+03  0.48126835791E+03  0.12500000000E+03 0.  0.
         21    1    1    2  503  504  0.15299400344E+03 -0.49111083896E+02 -0.88784969407E+03  0.90227276525E+03  0.00000000000E+00 0. -1.
         21    1    1    2  504  501 -0.21080153023E+02 -0.10734911857E+03 -0.36238219691E+03  0.37853541809E+03  0.00000000000E+00 0.  1.
<mgrwt>
<rscale>  4 0.22243018E+03</rscale>
<asrwt>0</asrwt>
<pdfrwt beam="1">  1       21 0.72750735E-02 0.22243018E+03</pdfrwt>
<pdfrwt beam="2">  1       21 0.26381359E+00 0.22243018E+03</pdfrwt>
<totfact> 0.75918468E+03</totfact>
</mgrwt>
</event>
<event>
 5    0  0.1856407E+000  0.4238588E+03  0.7546771E-02  0.1035818E+00
         21   -1    0    0  502  501  0.00000000000E+00  0.00000000000E+00  0.35223768996E+03  0.35223768996E+03  0.00000000000E+00 0.  1.
         21   -1    0    0  503  502 -0.00000000000E+00 -0.00000000000E+00 -0.53325714369E+03  0.53325714369E+03  0.00000000000E+00 0.  1.
         25    1    1    2    0    0 -0.37410431115E+03  0.15516844926E+03 -0.20334726439E+03  0.47011317063E+03  0.12500000000E+03 0.  0.
         21    1    1    2  503  504  0.35850353478E+03 -0.13291975658E+03  0.37625807108E+02  0.38419805764E+03  0.00000000000E+00 0.  1.
         21    1    1    2  504  501  0.15600776370E+02 -0.22248692678E+02 -0.15297996450E+02  0.31183605382E+02  0.00000000000E+00 0.  1.
<mgrwt>
<rscale>  4 0.42385880E+03</rscale>
<asrwt>0</asrwt>
<pdfrwt beam="1">  1       21 0.54190414E-01 0.42385880E+03</pdfrwt>
<pdfrwt beam="2">  1       21 0.82039560E-01 0.42385880E+03</pdfrwt>
<totfact> 0.36888655E+03</totfact>
</mgrwt>
</event>
<event>
 5    0  0.1856407E+000  0.4561201E+03  0.7546771E-02  0.1026536E+00
         21   -1    0    0  502  501  0.00000000000E+00  0.00000000000E+00  0.47376409108E+03  0.47376409108E+03  0.00000000000E+00 0.  1.
         21   -1    0    0  503  502 -0.00000000000E+00 -0.00000000000E+00 -0.66327556053E+03  0.66327556053E+03  0.00000000000E+00 0. -1.
         25    1    1    2    0    0 -0.41946023494E+03 -0.94112395165E+02  0.24220173487E+03  0.50900954018E+03  0.12500000000E+03 0.  0.
         21    1    1    2  503  504  0.37942068605E+03  0.32732132292E+02 -0.33904104579E+03  0.50988261415E+03  0.00000000000E+00 0. -1.
         21    1    1    2  504  501  0.40039548898E+02  0.61380262873E+02 -0.92672158527E+02  0.11814749728E+03  0.00000000000E+00 0.  1.
<mgrwt>
<rscale>  4 0.45399856E+03</rscale>
<asrwt>0</asrwt>
<pdfrwt beam="1">  1       21 0.72886783E-01 0.45612008E+03</pdfrwt>
<pdfrwt beam="2">  1       21 0.10204239E+00 0.45612008E+03</pdfrwt>
<totfact> 0.11269627E+03</totfact>
</mgrwt>
</event>
<event>
 5    0  0.4925273E+000  0.3235493E+03  0.7546771E-02  0.1074027E+00
         21   -1    0    0  502  501  0.00000000000E+00  0.00000000000E+00  0.18967209402E+03  0.18967209402E+03  0.00000000000E+00 0. -1.
         21   -1    0    0  503  502 -0.00000000000E+00 -0.00000000000E+00 -0.52289282006E+03  0.52289282006E+03  0.00000000000E+00 0. -1.
         25    1    1    2    0    0  0.25217918511E+02 -0.29736036364E+03 -0.18877332710E+03  0.37459244294E+03  0.12500000000E+03 0.  0.
         21    1    1    2  503  504 -0.39096772258E+02  0.27514770087E+03 -0.12213507594E+03  0.30356513579E+03  0.00000000000E+00 0. -1.
         21    1    1    2  504  501  0.13878853747E+02  0.22212662772E+02 -0.22312322990E+02  0.34407335351E+02  0.00000000000E+00 0. -1.
<mgrwt>
<rscale>  4 0.32354927E+03</rscale>
<asrwt>0</asrwt>
<pdfrwt beam="1">  1       21 0.29180322E-01 0.32354927E+03</pdfrwt>
<pdfrwt beam="2">  1       21 0.80445050E-01 0.32354927E+03</pdfrwt>
<totfact> 0.14289063E+04</totfact>
</mgrwt>
</event>
<event>
 5    0  0.1856407E+000  0.2576803E+03  0.7546771E-02  0.1108545E+00
         21   -1    0    0  502  501  0.00000000000E+00  0.00000000000E+00  0.15998354680E+04  0.15998354680E+04  0.00000000000E+00 0.  1.
         21   -1    0    0  503  502 -0.00000000000E+00 -0.00000000000E+00 -0.69040142344E+02  0.69040142344E+02  0.00000000000E+00 0.  1.
         25    1    1    2    0    0 -0.21552759298E+03  0.90814370115E+02  0.11273263633E+04  0.11580971991E+04  0.12500000000E+03 0.  0.
         21    1    1    2  503  504  0.11248572685E+01 -0.90904950551E+02  0.17660662733E+03  0.19863251536E+03  0.00000000000E+00 0. -1.
         21    1    1    2  504  501  0.21440273571E+03  0.90580435698E-01  0.22686233509E+03  0.31214589596E+03  0.00000000000E+00 0.  1.
<mgrwt>
<rscale>  4 0.25768027E+03</rscale>
<asrwt>0</asrwt>
<pdfrwt beam="1">  1       21 0.24612851E+00 0.25768027E+03</pdfrwt>
<pdfrwt beam="2">  1       21 0.10621562E-01 0.25768027E+03</pdfrwt>
<totfact> 0.48198066E+03</totfact>
</mgrwt>
</event>
<event>
 5    0  0.1856407E+000  0.3253111E+03  0.7546771E-02  0.1073231E+00
         21   -1    0    0  502  501  0.00000000000E+00  0.00000000000E+00  0.15219913258E+04  0.15219913258E+04  0.00000000000E+00 0. -1.
         21   -1    0    0  503  502 -0.00000000000E+00 -0.00000000000E+00 -0.22911644197E+03  0.22911644197E+03  0.00000000000E+00 0. -1.
         25    1    1    2    0    0 -0.35628841843E+03  0.11628675779E+03  0.11511112788E+04  0.12170235097E+04  0.12500000000E+03 0.  0.
         21    1    1    2  503  504  0.21576125223E+03  0.13300125653E+02  0.23677992782E+03  0.32061588471E+03  0.00000000000E+00 0. -1.
         21    1    1    2  504  501  0.14052716620E+03 -0.12958688344E+03 -0.95016322785E+02  0.21346837329E+03  0.00000000000E+00 0. -1.
<mgrwt>
<rscale>  4 0.32531105E+03</rscale>
<asrwt>0</asrwt>
<pdfrwt beam="1">  1       21 0.23415251E+00 0.32531105E+03</pdfrwt>
<pdfrwt beam="2">  1       21 0.35248684E-01 0.32531105E+03</pdfrwt>
<totfact> 0.56393426E+02</totfact>
</mgrwt>
</event>
<event>
 5    0  0.1856407E+000  0.2771660E+03  0.7546771E-02  0.1097247E+00
         21   -1    0    0  502  501  0.00000000000E+00  0.00000000000E+00  0.96795056520E+03  0.96795056520E+03  0.00000000000E+00 0. -1.
         21   -1    0    0  503  502 -0.00000000000E+00 -0.00000000000E+00 -0.73155667460E+02  0.73155667460E+02  0.00000000000E+00 0. -1.
         25    1    1    2    0    0  0.14309071084E+03 -0.20179459947E+03  0.51877250826E+03  0.58817168177E+03  0.12500000000E+03 0.  0.
         21    1    1    2  503  504 -0.10516301531E+03  0.16194138457E+03  0.25381516877E+03  0.31891442695E+03  0.00000000000E+00 0. -1.
         21    1    1    2  504  501 -0.37927695530E+02  0.39853214902E+02  0.12220722072E+03  0.13402012394E+03  0.00000000000E+00 0. -1.
<mgrwt>
<rscale>  4 0.27716604E+03</rscale>
<asrwt>0</asrwt>
<pdfrwt beam="1">  1       21 0.14891546E+00 0.27716604E+03</pdfrwt>
<pdfrwt beam="2">  1       21 0.11254719E-01 0.27716604E+03</pdfrwt>
<totfact> 0.19084031E+04</totfact>
</mgrwt>
</event>
<event>
 5    0  0.1856407E+000  0.4105546E+03  0.7546771E-02  0.1040185E+00
         21   -1    0    0  502  501  0.00000000000E+00  0.00000000000E+00  0.11519293661E+04  0.11519293661E+04  0.00000000000E+00 0. -1.
         21   -1    0    0  503  502 -0.00000000000E+00 -0.00000000000E+00 -0.67872183739E+03  0.67872183739E+03  0.00000000000E+00 0. -1.
         25    1    1    2    0    0 -0.39215633415E+03  0.57132820315E+02  0.10334603391E+04  0.11138743296E+04  0.12500000000E+03 0.  0.
         21    1    1    2  503  504  0.31140013741E+03 -0.13076508363E+03 -0.42824787663E+03  0.54540425055E+03  0.00000000000E+00 0. -1.
         21    1    1    2  504  501  0.80756196742E+02  0.73632263313E+02 -0.13200493375E+03  0.17137262339E+03  0.00000000000E+00 0.  1.
<mgrwt>
<rscale>  4 0.41055464E+03</rscale>
<asrwt>0</asrwt>
<pdfrwt beam="1">  1       21 0.17721990E+00 0.41055464E+03</pdfrwt>
<pdfrwt beam="2">  1       21 0.10441874E+00 0.41055464E+03</pdfrwt>
<totfact> 0.11548486E+02</totfact>
</mgrwt>
</event>
<event>
 5    0  0.1856407E+000  0.2756655E+03  0.7546771E-02  0.1098080E+00
         21   -1    0    0  502  501  0.00000000000E+00  0.00000000000E+00  0.62798368095E+03  0.62798368095E+03  0.00000000000E+00 0. -1.
         21   -1    0    0  503  502 -0.00000000000E+00 -0.00000000000E+00 -0.25719795633E+03  0.25719795633E+03  0.00000000000E+00 0. -1.
         25    1    1    2    0    0  0.21998921223E+03 -0.10941308423E+03  0.51515923661E+03  0.58427777261E+03  0.12500000000E+03 0.  0.
         21    1    1    2  503  504 -0.30151889119E+02  0.53061190837E+02 -0.10637718964E+02  0.61949878573E+02  0.00000000000E+00 0. -1.
         21    1    1    2  504  501 -0.18983732311E+03  0.56351893397E+02 -0.13373579303E+03  0.23895398610E+03  0.00000000000E+00 0. -1.
<mgrwt>
<rscale>  4 0.27566552E+03</rscale>
<asrwt>0</asrwt>
<pdfrwt beam="1">  1       21 0.96612873E-01 0.27566552E+03</pdfrwt>
<pdfrwt beam="2">  1       21 0.39568917E-01 0.27566552E+03</pdfrwt>
<totfact> 0.51858090E+03</totfact>
</mgrwt>
</event>
