<event>
 5    0  0.1943430E+001  0.2431856E+03  0.7546771E-02  0.1117689E+00
         21   -1    0    0  503  501  0.00000000000E+00  0.00000000000E+00  0.21019256980E+03  0.21019256980E+03  0.00000000000E+00 0.  1.
         21   -1    0    0  504  502 -0.00000000000E+00 -0.00000000000E+00 -0.28724962470E+03  0.28724962470E+03  0.00000000000E+00 0.  1.
         25    1    1    2    0    0 -0.20921350004E+03  0.32736754420E+02  0.96190681976E+01  0.24608841940E+03  0.12500000000E+03 0.  0.
         21    1    1    2  503  502  0.20568963408E+03 -0.31548814864E+01 -0.80656077868E+02  0.22096058867E+03  0.00000000000E+00 0.  1.
         21    1    1    2  504  501  0.35238659546E+01 -0.29581872934E+02 -0.60200452289E+01  0.30393186442E+02  0.00000000000E+00 0. -1.
<mgrwt>
<rscale>  4 0.24318561E+03</rscale>
<asrwt>0</asrwt>
<pdfrwt beam="1">  1       21 0.32337318E-01 0.24318561E+03</pdfrwt>
<pdfrwt beam="2">  1       21 0.44192250E-01 0.24318561E+03</pdfrwt>
<totfact> 0.44200263E+04</totfact>
</mgrwt>
</event>
<event>
 5    0  0.1943430E+001  0.2629504E+03  0.7546771E-02  0.1105383E+00
         21   -1    0    0  504  501  0.00000000000E+00  0.00000000000E+00  0.11724568827E+04  0.11724568827E+04  0.00000000000E+00 0. -1.
         21   -1    0    0  501  502 -0.00000000000E+00 -0.00000000000E+00 -0.95220592959E+02  0.95220592959E+02  0.00000000000E+00 0. -1.
         25    1    1    2    0    0 -0.19182941149E+03  0.60458884873E+02  0.58746055295E+03  0.63339458566E+03  0.12500000000E+03 0.  0.
         21    1    1    2  503  502  0.26304986332E+03 -0.11024064822E+03  0.46220054418E+03  0.54311837950E+03  0.00000000000E+00 0. -1.
         21    1    1    2  504  503 -0.71220451828E+02  0.49781763349E+02  0.27575192564E+02  0.91164510451E+02  0.00000000000E+00 0. -1.
<mgrwt>
<rscale>  4 0.26295040E+03</rscale>
<asrwt>0</asrwt>
<pdfrwt beam="1">  1       21 0.18037797E+00 0.26295040E+03</pdfrwt>
<pdfrwt beam="2">  1       21 0.14649323E-01 0.26295040E+03</pdfrwt>
<totfact> 0.70320405E+03</totfact>
</mgrwt>
</event>
<event>
 5    0  0.1943430E+001  0.2454002E+03  0.7546771E-02  0.1116247E+00
         21   -1    0    0  503  501  0.00000000000E+00  0.00000000000E+00  0.48077547640E+03  0.48077547640E+03  0.00000000000E+00 0.  1.
         21   -1    0    0  504  502 -0.00000000000E+00 -0.00000000000E+00 -0.21560815792E+03  0.21560815792E+03  0.00000000000E+00 0.  1.
         25    1    1    2    0    0  0.21263296553E+03  0.54559272763E+02  0.26134212094E+03  0.36347516621E+03  0.12500000000E+03 0.  0.
         21    1    1    2  503  502 -0.19227194237E+03 -0.60025065642E+02  0.10666980516E+03  0.22792532914E+03  0.00000000000E+00 0.  1.
         21    1    1    2  504  501 -0.20361023152E+02  0.54657928793E+01 -0.10284460762E+03  0.10498313899E+03  0.00000000000E+00 0. -1.
<mgrwt>
<rscale>  4 0.24540020E+03</rscale>
<asrwt>0</asrwt>
<pdfrwt beam="1">  1       21 0.73965457E-01 0.24540020E+03</pdfrwt>
<pdfrwt beam="2">  1       21 0.33170486E-01 0.24540020E+03</pdfrwt>
<totfact> 0.13907553E+04</totfact>
</mgrwt>
</event>
<event>
 5    0  0.1943430E+001  0.3048137E+03  0.7546771E-02  0.1082859E+00
         21   -1    0    0  504  501  0.00000000000E+00  0.00000000000E+00  0.70517374883E+03  0.70517374883E+03  0.00000000000E+00 0. -1.
         21   -1    0    0  503  502 -0.00000000000E+00 -0.00000000000E+00 -0.22882448151E+03  0.22882448151E+03  0.00000000000E+00 0. -1.
         25    1    1    2    0    0 -0.27702111789E+03  0.29628917557E+02  0.34281303810E+03  0.45909078798E+03  0.12500000000E+03 0.  0.
         21    1    1    2  503  501  0.24933039817E+03 -0.13357890867E+03 -0.24297190984E+02  0.28390020391E+03  0.00000000000E+00 0. -1.
         21    1    1    2  504  502  0.27690719720E+02  0.10394999111E+03  0.15783342020E+03  0.19100723846E+03  0.00000000000E+00 0. -1.
<mgrwt>
<rscale>  4 0.30481366E+03</rscale>
<asrwt>0</asrwt>
<pdfrwt beam="1">  1       21 0.10848827E+00 0.30481366E+03</pdfrwt>
<pdfrwt beam="2">  1       21 0.35203767E-01 0.30481366E+03</pdfrwt>
<totfact> 0.48871648E+03</totfact>
</mgrwt>
</event>
<event>
 5    0  0.1943430E+001  0.2853406E+03  0.7546771E-02  0.1092807E+00
         21   -1    0    0  503  501  0.00000000000E+00  0.00000000000E+00  0.83734125875E+03  0.83734125875E+03  0.00000000000E+00 0.  1.
         21   -1    0    0  504  502 -0.00000000000E+00 -0.00000000000E+00 -0.42183633284E+03  0.42183633284E+03  0.00000000000E+00 0.  1.
         25    1    1    2    0    0  0.20801350361E+03  0.66254891593E+02  0.53745217349E+02  0.25724089242E+03  0.12500000000E+03 0.  0.
         21    1    1    2  503  502 -0.26000492285E+03 -0.58424612466E+02  0.65336904707E+03  0.70562533042E+03  0.00000000000E+00 0.  1.
         21    1    1    2  504  501  0.51991419244E+02 -0.78302791279E+01 -0.29160933852E+03  0.29631136876E+03  0.00000000000E+00 0.  1.
<mgrwt>
<rscale>  4 0.28534056E+03</rscale>
<asrwt>0</asrwt>
<pdfrwt beam="1">  1       21 0.12882173E+00 0.28534056E+03</pdfrwt>
<pdfrwt beam="2">  1       21 0.64897897E-01 0.28534056E+03</pdfrwt>
<totfact> 0.89319715E+02</totfact>
</mgrwt>
</event>
<event>
 5    0  0.1943430E+001  0.2803924E+03  0.7546771E-02  0.1095475E+00
         21   -1    0    0  504  501  0.00000000000E+00  0.00000000000E+00  0.25141357638E+03  0.25141357638E+03  0.00000000000E+00 0. -1.
         21   -1    0    0  501  502 -0.00000000000E+00 -0.00000000000E+00 -0.35443259407E+03  0.35443259407E+03  0.00000000000E+00 0. -1.
         25    1    1    2    0    0 -0.11678515040E+03  0.23870028506E+03  0.15854700222E+02  0.29409687003E+03  0.12500000000E+03 0.  0.
         21    1    1    2  503  502  0.44876484386E+02 -0.14594336071E+02 -0.44643457546E+02  0.64961002131E+02  0.00000000000E+00 0.  1.
         21    1    1    2  504  503  0.71908666016E+02 -0.22410594899E+03 -0.74230260368E+02  0.24678829829E+03  0.00000000000E+00 0. -1.
<mgrwt>
<rscale>  4 0.28039236E+03</rscale>
<asrwt>0</asrwt>
<pdfrwt beam="1">  1       21 0.38679012E-01 0.28039236E+03</pdfrwt>
<pdfrwt beam="2">  1       21 0.54528091E-01 0.28039236E+03</pdfrwt>
<totfact> 0.19569677E+04</totfact>
</mgrwt>
</event>
<event>
 5    0  0.1943430E+001  0.2290899E+03  0.7546771E-02  0.1127282E+00
         21   -1    0    0  504  501  0.00000000000E+00  0.00000000000E+00  0.60268475303E+02  0.60268475303E+02  0.00000000000E+00 0.  1.
         21   -1    0    0  501  502 -0.00000000000E+00 -0.00000000000E+00 -0.10726079098E+04  0.10726079098E+04  0.00000000000E+00 0.  1.
         25    1    1    2    0    0  0.13733049592E+03 -0.15488471443E+03 -0.59830819537E+03  0.64532676724E+03  0.12500000000E+03 0.  0.
         21    1    1    2  503  502  0.24318837500E+02  0.71332599963E+02 -0.12824718498E+03  0.14875176009E+03  0.00000000000E+00 0. -1.
         21    1    1    2  504  503 -0.16164933342E+03  0.83552114465E+02 -0.28578405416E+03  0.33879785778E+03  0.00000000000E+00 0.  1.
<mgrwt>
<rscale>  4 0.22908986E+03</rscale>
<asrwt>0</asrwt>
<pdfrwt beam="1">  1       21 0.92720739E-02 0.22908986E+03</pdfrwt>
<pdfrwt beam="2">  1       21 0.16501659E+00 0.22908986E+03</pdfrwt>
<totfact> 0.20952112E+04</totfact>
</mgrwt>
</event>
<event>
 5    0  0.1943430E+001  0.3210890E+03  0.7546771E-02  0.1075149E+00
         21   -1    0    0  503  501  0.00000000000E+00  0.00000000000E+00  0.39169638890E+04  0.39169638890E+04  0.00000000000E+00 0. -1.
         21   -1    0    0  504  502 -0.00000000000E+00 -0.00000000000E+00 -0.45880153022E+03  0.45880153022E+03  0.00000000000E+00 0.  1.
         25    1    1    2    0    0 -0.19347287252E+03 -0.20844285343E+03  0.20251291722E+04  0.20488175467E+04  0.12500000000E+03 0.  0.
         21    1    1    2  503  502  0.20212781295E+03  0.23231581730E+03  0.18670069480E+04  0.18922318134E+04  0.00000000000E+00 0. -1.
         21    1    1    2  504  501 -0.86549404315E+01 -0.23872963869E+02 -0.43397376146E+03  0.43471605909E+03  0.00000000000E+00 0.  1.
<mgrwt>
<rscale>  4 0.32108900E+03</rscale>
<asrwt>0</asrwt>
<pdfrwt beam="1">  1       21 0.60260981E+00 0.32108900E+03</pdfrwt>
<pdfrwt beam="2">  1       21 0.70584853E-01 0.32108900E+03</pdfrwt>
<totfact> 0.47080683E-01</totfact>
</mgrwt>
</event>
<event>
 5    0  0.1943430E+001  0.2570279E+03  0.7546771E-02  0.1108942E+00
         21   -1    0    0  502  501  0.00000000000E+00  0.00000000000E+00  0.16177590487E+03  0.16177590487E+03  0.00000000000E+00 0.  1.
         21   -1    0    0  503  502 -0.00000000000E+00 -0.00000000000E+00 -0.91320552871E+03  0.91320552871E+03  0.00000000000E+00 0.  1.
         25    1    1    2    0    0 -0.22347326679E+03  0.53160378938E+01  0.23425286687E+02  0.25718146373E+03  0.12500000000E+03 0.  0.
         21    1    1    2  503  504  0.23085247555E+03  0.19314095877E+02 -0.64291418687E+03  0.68337731265E+03  0.00000000000E+00 0.  1.
         21    1    1    2  504  501 -0.73792087567E+01 -0.24630133771E+02 -0.13194072366E+03  0.13442265721E+03  0.00000000000E+00 0. -1.
<mgrwt>
<rscale>  4 0.25702792E+03</rscale>
<asrwt>0</asrwt>
<pdfrwt beam="1">  1       21 0.24888601E-01 0.25702792E+03</pdfrwt>
<pdfrwt beam="2">  1       21 0.14049316E+00 0.25702792E+03</pdfrwt>
<totfact> 0.51678005E+03</totfact>
</mgrwt>
</event>
<event>
 5    0  0.1943430E+001  0.3894014E+03  0.7546771E-02  0.1047513E+00
         21   -1    0    0  504  501  0.00000000000E+00  0.00000000000E+00  0.82053911333E+03  0.82053911333E+03  0.00000000000E+00 0. -1.
         21   -1    0    0  503  502 -0.00000000000E+00 -0.00000000000E+00 -0.19192285924E+03  0.19192285924E+03  0.00000000000E+00 0.  1.
         25    1    1    2    0    0  0.35954081505E+03 -0.22394369576E+02  0.28162212726E+03  0.47403283435E+03  0.12500000000E+03 0.  0.
         21    1    1    2  503  501 -0.37674473283E+03 -0.43515700934E+01  0.33586012433E+03  0.50473513152E+03  0.00000000000E+00 0.  1.
         21    1    1    2  504  502  0.17203917777E+02  0.26745939670E+02  0.11134002489E+02  0.33694006694E+02  0.00000000000E+00 0. -1.
<mgrwt>
<rscale>  4 0.38940138E+03</rscale>
<asrwt>0</asrwt>
<pdfrwt beam="1">  1       21 0.12623679E+00 0.38940138E+03</pdfrwt>
<pdfrwt beam="2">  1       21 0.29526594E-01 0.38940138E+03</pdfrwt>
<totfact> 0.45695410E+03</totfact>
</mgrwt>
</event>
<event>
 5    0  0.1943430E+001  0.4625715E+03  0.7546771E-02  0.1024038E+00
         21   -1    0    0  503  501  0.00000000000E+00  0.00000000000E+00  0.76643646026E+03  0.76643646026E+03  0.00000000000E+00 0.  1.
         21   -1    0    0  504  502 -0.00000000000E+00 -0.00000000000E+00 -0.44045971332E+03  0.44045971332E+03  0.00000000000E+00 0. -1.
         25    1    1    2    0    0 -0.43303725489E+03 -0.13179822222E+03  0.48958781871E+03  0.67839020315E+03  0.12500000000E+03 0.  0.
         21    1    1    2  503  502  0.96970123876E+01  0.73179423429E+02 -0.38136358435E+02  0.83088157384E+02  0.00000000000E+00 0. -1.
         21    1    1    2  504  501  0.42334024250E+03  0.58618798795E+02 -0.12547471333E+03  0.44541781304E+03  0.00000000000E+00 0. -1.
<mgrwt>
<rscale>  4 0.46257154E+03</rscale>
<asrwt>0</asrwt>
<pdfrwt beam="1">  1       21 0.11791330E+00 0.46257154E+03</pdfrwt>
<pdfrwt beam="2">  1       21 0.67763033E-01 0.46257154E+03</pdfrwt>
<totfact> 0.92543415E+02</totfact>
</mgrwt>
</event>
