<event>
 5    0  0.2159162E+000  0.2516250E+03  0.7546771E-02  0.1112282E+00
         21   -1    0    0  502  501  0.00000000000E+00  0.00000000000E+00  0.90980216233E+02  0.90980216233E+02  0.00000000000E+00 0. -1.
         21   -1    0    0  503  502 -0.00000000000E+00 -0.00000000000E+00 -0.64211333044E+03  0.64211333044E+03  0.00000000000E+00 0. -1.
         25    1    1    2    0    0  0.64400987203E+02  0.20866878941E+03 -0.27941398321E+03  0.37601505933E+03  0.12500000000E+03 0.  0.
         21    1    1    2  503  504 -0.12509177051E+02 -0.55123982537E+02 -0.13009085693E+03  0.14184062894E+03  0.00000000000E+00 0. -1.
         21    1    1    2  504  501 -0.51891810153E+02 -0.15354480687E+03 -0.14162827406E+03  0.21523785841E+03  0.00000000000E+00 0. -1.
<mgrwt>
<rscale>  4 0.25162502E+03</rscale>
<asrwt>0</asrwt>
<pdfrwt beam="1">  1       21 0.13996956E-01 0.25162502E+03</pdfrwt>
<pdfrwt beam="2">  1       21 0.98786669E-01 0.25162502E+03</pdfrwt>
<totfact> 0.36500016E+04</totfact>
</mgrwt>
</event>
<event>
 5    0  0.3388508E+000  0.2242309E+03  0.7546771E-02  0.1130767E+00
         21   -1    0    0  502  501  0.00000000000E+00  0.00000000000E+00  0.72347768823E+02  0.72347768823E+02  0.00000000000E+00 0.  1.
         21   -1    0    0  503  502 -0.00000000000E+00 -0.00000000000E+00 -0.75676877533E+03  0.75676877533E+03  0.00000000000E+00 0.  1.
         25    1    1    2    0    0  0.27055937345E+02  0.20047698842E+03 -0.30201134213E+03  0.38439419533E+03  0.12500000000E+03 0.  0.
         21    1    1    2  503  504  0.33698236582E+02 -0.32438871831E+02 -0.59643924241E+02  0.75797422471E+02  0.00000000000E+00 0. -1.
         21    1    1    2  504  501 -0.60754173927E+02 -0.16803811659E+03 -0.32276574013E+03  0.36892492635E+03  0.00000000000E+00 0.  1.
<mgrwt>
<rscale>  4 0.22423090E+03</rscale>
<asrwt>0</asrwt>
<pdfrwt beam="1">  1       21 0.11130425E-01 0.22423090E+03</pdfrwt>
<pdfrwt beam="2">  1       21 0.11642598E+00 0.22423090E+03</pdfrwt>
<totfact> 0.37533319E+04</totfact>
</mgrwt>
</event>
<event>
 5    0  0.2159162E+000  0.2373836E+03  0.7546771E-02  0.1121548E+00
         21   -1    0    0  502  501  0.00000000000E+00  0.00000000000E+00  0.93219451308E+03  0.93219451308E+03  0.00000000000E+00 0.  1.
         21   -1    0    0  503  502 -0.00000000000E+00 -0.00000000000E+00 -0.21531955548E+03  0.21531955548E+03  0.00000000000E+00 0.  1.
         25    1    1    2    0    0 -0.35580933862E+02 -0.19864529313E+03  0.85826705151E+03  0.89049047555E+03  0.12500000000E+03 0.  0.
         21    1    1    2  503  504 -0.13374724849E+02  0.97677921556E+02 -0.42143032432E+02  0.10721891068E+03  0.00000000000E+00 0.  1.
         21    1    1    2  504  501  0.48955658712E+02  0.10096737157E+03 -0.99249061485E+02  0.14980468233E+03  0.00000000000E+00 0.  1.
<mgrwt>
<rscale>  4 0.23738356E+03</rscale>
<asrwt>0</asrwt>
<pdfrwt beam="1">  1       21 0.14341454E+00 0.23738356E+03</pdfrwt>
<pdfrwt beam="2">  1       21 0.33126086E-01 0.23738356E+03</pdfrwt>
<totfact> 0.28413515E+03</totfact>
</mgrwt>
</event>
<event>
 5    0  0.2159162E+000  0.2441214E+03  0.7546771E-02  0.1117077E+00
         21   -1    0    0  502  501  0.00000000000E+00  0.00000000000E+00  0.73052916989E+03  0.73052916989E+03  0.00000000000E+00 0. -1.
         21   -1    0    0  503  502 -0.00000000000E+00 -0.00000000000E+00 -0.16984728163E+03  0.16984728163E+03  0.00000000000E+00 0. -1.
         25    1    1    2    0    0 -0.15247291518E+03  0.14395230858E+03  0.62955605905E+03  0.67523039660E+03  0.12500000000E+03 0.  0.
         21    1    1    2  503  504  0.63716898133E+02 -0.31619154171E+02 -0.20438650201E+02  0.74009137545E+02  0.00000000000E+00 0. -1.
         21    1    1    2  504  501  0.88756017050E+02 -0.11233315440E+03 -0.48435520585E+02  0.15113691738E+03  0.00000000000E+00 0. -1.
<mgrwt>
<rscale>  4 0.24412140E+03</rscale>
<asrwt>0</asrwt>
<pdfrwt beam="1">  1       21 0.11238910E+00 0.24412140E+03</pdfrwt>
<pdfrwt beam="2">  1       21 0.26130351E-01 0.24412140E+03</pdfrwt>
<totfact> 0.83337293E+03</totfact>
</mgrwt>
</event>
<event>
 5    0  0.2159162E+000  0.2402833E+03  0.7546771E-02  0.1119604E+00
         21   -1    0    0  502  501  0.00000000000E+00  0.00000000000E+00  0.30639496600E+03  0.30639496600E+03  0.00000000000E+00 0. -1.
         21   -1    0    0  503  502 -0.00000000000E+00 -0.00000000000E+00 -0.51358086441E+03  0.51358086441E+03  0.00000000000E+00 0. -1.
         25    1    1    2    0    0  0.75322342904E+02  0.19088637365E+03  0.23182226623E+03  0.33388265320E+03  0.12500000000E+03 0.  0.
         21    1    1    2  503  504 -0.45546730169E+02 -0.15360154224E+03 -0.35505149725E+03  0.38952471565E+03  0.00000000000E+00 0. -1.
         21    1    1    2  504  501 -0.29775612735E+02 -0.37284831412E+02 -0.83956667396E+02  0.96568461556E+02  0.00000000000E+00 0. -1.
<mgrwt>
<rscale>  4 0.24028330E+03</rscale>
<asrwt>0</asrwt>
<pdfrwt beam="1">  1       21 0.47137687E-01 0.24028330E+03</pdfrwt>
<pdfrwt beam="2">  1       21 0.79012440E-01 0.24028330E+03</pdfrwt>
<totfact> 0.58912474E+03</totfact>
</mgrwt>
</event>
<event>
 5    0  0.5284888E+000  0.2997717E+03  0.7546771E-02  0.1085355E+00
         21   -1    0    0  502  501  0.00000000000E+00  0.00000000000E+00  0.19787535478E+03  0.19787535478E+03  0.00000000000E+00 0.  1.
         21   -1    0    0  503  502 -0.00000000000E+00 -0.00000000000E+00 -0.69407912714E+03  0.69407912714E+03  0.00000000000E+00 0.  1.
         25    1    1    2    0    0 -0.22240760122E+03 -0.15739425769E+03  0.24238855408E+02  0.30075008819E+03  0.12500000000E+03 0.  0.
         21    1    1    2  503  504  0.46529259815E+02  0.15516318590E+02 -0.54266197806E+02  0.73147442784E+02  0.00000000000E+00 0. -1.
         21    1    1    2  504  501  0.17587834140E+03  0.14187793910E+03 -0.46617642996E+03  0.51805695095E+03  0.00000000000E+00 0.  1.
<mgrwt>
<rscale>  4 0.29977174E+03</rscale>
<asrwt>0</asrwt>
<pdfrwt beam="1">  1       21 0.30442362E-01 0.29977174E+03</pdfrwt>
<pdfrwt beam="2">  1       21 0.10678140E+00 0.29977174E+03</pdfrwt>
<totfact> 0.68012629E+03</totfact>
</mgrwt>
</event>
<event>
 5    0  0.2159162E+000  0.4398870E+03  0.7546771E-02  0.1030781E+00
         21   -1    0    0  502  501  0.00000000000E+00  0.00000000000E+00  0.26798357490E+03  0.26798357490E+03  0.00000000000E+00 0. -1.
         21   -1    0    0  503  502 -0.00000000000E+00 -0.00000000000E+00 -0.19608202660E+04  0.19608202660E+04  0.00000000000E+00 0.  1.
         25    1    1    2    0    0  0.32861159765E+03  0.26436721822E+03  0.42338141700E+02  0.44191981900E+03  0.12500000000E+03 0.  0.
         21    1    1    2  503  504 -0.17844082563E+02 -0.11164254900E+02 -0.16546712313E+03  0.16680054169E+03  0.00000000000E+00 0. -1.
         21    1    1    2  504  501 -0.31076751509E+03 -0.25320296332E+03 -0.15697077097E+04  0.16200834803E+04  0.00000000000E+00 0.  1.
<mgrwt>
<rscale>  4 0.43988704E+03</rscale>
<asrwt>0</asrwt>
<pdfrwt beam="1">  1       21 0.41228242E-01 0.43988704E+03</pdfrwt>
<pdfrwt beam="2">  1       21 0.30166466E+00 0.43988704E+03</pdfrwt>
<totfact> 0.14820321E+02</totfact>
</mgrwt>
</event>
<event>
 5    0  0.2219431E+000  0.2378978E+03  0.7546771E-02  0.1121201E+00
         21   -1    0    0  502  501  0.00000000000E+00  0.00000000000E+00  0.16077095718E+03  0.16077095718E+03  0.00000000000E+00 0.  1.
         21   -1    0    0  503  502 -0.00000000000E+00 -0.00000000000E+00 -0.36016427012E+03  0.36016427012E+03  0.00000000000E+00 0.  1.
         25    1    1    2    0    0  0.14458767104E+03  0.14165008630E+03 -0.15531162225E+02  0.23840419158E+03  0.12500000000E+03 0.  0.
         21    1    1    2  503  504 -0.46846355843E+02 -0.66571943445E+01 -0.32594546070E+02  0.57456972822E+02  0.00000000000E+00 0.  1.
         21    1    1    2  504  501 -0.97741315193E+02 -0.13499289195E+03 -0.15126760464E+03  0.22507406289E+03  0.00000000000E+00 0.  1.
<mgrwt>
<rscale>  4 0.23789775E+03</rscale>
<asrwt>0</asrwt>
<pdfrwt beam="1">  1       21 0.24733993E-01 0.23789775E+03</pdfrwt>
<pdfrwt beam="2">  1       21 0.55409888E-01 0.23789775E+03</pdfrwt>
<totfact> 0.46477398E+04</totfact>
</mgrwt>
</event>
<event>
 5    0  0.2159162E+000  0.3666823E+03  0.7546771E-02  0.1055969E+00
         21   -1    0    0  502  501  0.00000000000E+00  0.00000000000E+00  0.11362199675E+04  0.11362199675E+04  0.00000000000E+00 0.  1.
         21   -1    0    0  503  502 -0.00000000000E+00 -0.00000000000E+00 -0.57015546232E+03  0.57015546232E+03  0.00000000000E+00 0.  1.
         25    1    1    2    0    0  0.26874302535E+03 -0.22275915513E+03  0.10285049526E+04  0.10932940557E+04  0.12500000000E+03 0.  0.
         21    1    1    2  503  504 -0.24797605174E+03  0.17404185173E+03 -0.24599578276E+03  0.39025198722E+03  0.00000000000E+00 0.  1.
         21    1    1    2  504  501 -0.20766973613E+02  0.48717303402E+02 -0.21644466458E+03  0.22282938691E+03  0.00000000000E+00 0.  1.
<mgrwt>
<rscale>  4 0.36668233E+03</rscale>
<asrwt>0</asrwt>
<pdfrwt beam="1">  1       21 0.17480307E+00 0.36668233E+03</pdfrwt>
<pdfrwt beam="2">  1       21 0.87716225E-01 0.36668233E+03</pdfrwt>
<totfact> 0.18760245E+02</totfact>
</mgrwt>
</event>
