<event>
 5    0  0.1257040E+001  0.2666354E+03  0.7546771E-02  0.1103221E+00
         21   -1    0    0  502  501  0.00000000000E+00  0.00000000000E+00  0.86355165838E+03  0.86355165838E+03  0.00000000000E+00 0.  1.
         21   -1    0    0  504  502 -0.00000000000E+00 -0.00000000000E+00 -0.94274712755E+02  0.94274712755E+02  0.00000000000E+00 0.  1.
         25    1    1    2    0    0 -0.13033722792E+02  0.23718158187E+03  0.20946507106E+03  0.34047848200E+03  0.12500000000E+03 0.  0.
         21    1    1    2  503  501 -0.13977347670E+02 -0.23220991554E+03  0.50695192465E+03  0.55777868821E+03  0.00000000000E+00 0.  1.
         21    1    1    2  504  503  0.27011070462E+02 -0.49716663307E+01  0.52859949916E+02  0.59569200924E+02  0.00000000000E+00 0. -1.
<mgrwt>
<rscale>  4 0.26663538E+03</rscale>
<asrwt>0</asrwt>
<pdfrwt beam="1">  1       21 0.13285410E+00 0.26663538E+03</pdfrwt>
<pdfrwt beam="2">  1       21 0.14503803E-01 0.26663538E+03</pdfrwt>
<totfact> 0.16331981E+04</totfact>
</mgrwt>
</event>
<event>
 5    0  0.1257040E+001  0.2372799E+03  0.7546771E-02  0.1121618E+00
         21   -1    0    0  504  501  0.00000000000E+00  0.00000000000E+00  0.53226055065E+03  0.53226055065E+03  0.00000000000E+00 0. -1.
         21   -1    0    0  501  502 -0.00000000000E+00 -0.00000000000E+00 -0.12416136183E+03  0.12416136183E+03  0.00000000000E+00 0. -1.
         25    1    1    2    0    0  0.19931261778E+03 -0.21775147816E+02  0.34733162381E+03  0.42007610449E+03  0.12500000000E+03 0.  0.
         21    1    1    2  503  502 -0.20042585781E+03  0.41864265683E+02  0.66746881138E+02  0.21535618719E+03  0.00000000000E+00 0. -1.
         21    1    1    2  504  503  0.11132400220E+01 -0.20089117867E+02 -0.59793161252E+01  0.20989620800E+02  0.00000000000E+00 0.  1.
<mgrwt>
<rscale>  4 0.23727990E+03</rscale>
<asrwt>0</asrwt>
<pdfrwt beam="1">  1       21 0.81886237E-01 0.23727990E+03</pdfrwt>
<pdfrwt beam="2">  1       21 0.19101748E-01 0.23727990E+03</pdfrwt>
<totfact> 0.32059060E+04</totfact>
</mgrwt>
</event>
<event>
 5    0  0.1257040E+001  0.2322944E+03  0.7546771E-02  0.1125035E+00
         21   -1    0    0  503  501  0.00000000000E+00  0.00000000000E+00  0.13152851609E+03  0.13152851609E+03  0.00000000000E+00 0. -1.
         21   -1    0    0  504  502 -0.00000000000E+00 -0.00000000000E+00 -0.54801551803E+03  0.54801551803E+03  0.00000000000E+00 0. -1.
         25    1    1    2    0    0  0.15974705743E+03 -0.14813714109E+03 -0.11626563205E+03  0.27677866992E+03  0.12500000000E+03 0.  0.
         21    1    1    2  503  502 -0.14316569309E+03  0.12290786296E+03 -0.31649198646E+03  0.36846972189E+03  0.00000000000E+00 0. -1.
         21    1    1    2  504  501 -0.16581364332E+02  0.25229278128E+02  0.16270616572E+02  0.34295642312E+02  0.00000000000E+00 0. -1.
<mgrwt>
<rscale>  4 0.23229437E+03</rscale>
<asrwt>0</asrwt>
<pdfrwt beam="1">  1       21 0.20235156E-01 0.23229437E+03</pdfrwt>
<pdfrwt beam="2">  1       21 0.84310079E-01 0.23229437E+03</pdfrwt>
<totfact> 0.26982352E+04</totfact>
</mgrwt>
</event>
<event>
 5    0  0.1257040E+001  0.2699093E+03  0.7546771E-02  0.1101332E+00
         21   -1    0    0  503  501  0.00000000000E+00  0.00000000000E+00  0.13549329705E+03  0.13549329705E+03  0.00000000000E+00 0.  1.
         21   -1    0    0  501  502 -0.00000000000E+00 -0.00000000000E+00 -0.56909259111E+03  0.56909259111E+03  0.00000000000E+00 0. -1.
         25    1    1    2    0    0  0.19988021455E+03  0.13143024636E+03 -0.97591398056E+02  0.28701061095E+03  0.12500000000E+03 0.  0.
         21    1    1    2  503  504 -0.17768010152E+03 -0.11659079181E+03 -0.32580555771E+03  0.38898957910E+03  0.00000000000E+00 0. -1.
         21    1    1    2  504  502 -0.22200113024E+02 -0.14839454549E+02 -0.10202338297E+02  0.28585698108E+02  0.00000000000E+00 0.  1.
<mgrwt>
<rscale>  4 0.26990926E+03</rscale>
<asrwt>0</asrwt>
<pdfrwt beam="1">  1       21 0.20845123E-01 0.26990926E+03</pdfrwt>
<pdfrwt beam="2">  1       21 0.87552704E-01 0.26990926E+03</pdfrwt>
<totfact> 0.22976459E+04</totfact>
</mgrwt>
</event>
<event>
 5    0  0.1257040E+001  0.2229656E+03  0.7546771E-02  0.1131691E+00
         21   -1    0    0  504  501  0.00000000000E+00  0.00000000000E+00  0.12671485275E+03  0.12671485275E+03  0.00000000000E+00 0.  1.
         21   -1    0    0  503  502 -0.00000000000E+00 -0.00000000000E+00 -0.69442033455E+03  0.69442033455E+03  0.00000000000E+00 0.  1.
         25    1    1    2    0    0 -0.19271544677E+02  0.21053734762E+03 -0.36867132982E+03  0.44299087644E+03  0.12500000000E+03 0.  0.
         21    1    1    2  503  501 -0.24783497199E+02 -0.37020109890E+02 -0.19400154542E+03  0.19905102335E+03  0.00000000000E+00 0.  1.
         21    1    1    2  504  502  0.44055041877E+02 -0.17351723773E+03 -0.50326065493E+01  0.17909328751E+03  0.00000000000E+00 0.  1.
<mgrwt>
<rscale>  4 0.22296565E+03</rscale>
<asrwt>0</asrwt>
<pdfrwt beam="1">  1       21 0.19494593E-01 0.22296565E+03</pdfrwt>
<pdfrwt beam="2">  1       21 0.10683390E+00 0.22296565E+03</pdfrwt>
<totfact> 0.16649915E+04</totfact>
</mgrwt>
</event>
<event>
 5    0  0.1257040E+001  0.2211609E+03  0.7546771E-02  0.1133021E+00
         21   -1    0    0  502  501  0.00000000000E+00  0.00000000000E+00  0.14087332521E+04  0.14087332521E+04  0.00000000000E+00 0.  1.
         21   -1    0    0  504  502 -0.00000000000E+00 -0.00000000000E+00 -0.11759769200E+03  0.11759769200E+03  0.00000000000E+00 0.  1.
         25    1    1    2    0    0 -0.15411520745E+03 -0.15411168712E+03  0.67867413800E+02  0.26025544208E+03  0.12500000000E+03 0.  0.
         21    1    1    2  503  501  0.11216111016E+03  0.23566994285E+02  0.98118158041E+03  0.98785262645E+03  0.00000000000E+00 0.  1.
         21    1    1    2  504  503  0.41954097290E+02  0.13054469283E+03  0.24208656593E+03  0.27822287561E+03  0.00000000000E+00 0.  1.
<mgrwt>
<rscale>  4 0.22116090E+03</rscale>
<asrwt>0</asrwt>
<pdfrwt beam="1">  1       21 0.21672818E+00 0.22116090E+03</pdfrwt>
<pdfrwt beam="2">  1       21 0.18091954E-01 0.22116090E+03</pdfrwt>
<totfact> 0.28499563E+03</totfact>
</mgrwt>
</event>
<event>
 5    0  0.1257040E+001  0.2253003E+03  0.7546771E-02  0.1129992E+00
         21   -1    0    0  503  501  0.00000000000E+00  0.00000000000E+00  0.23214903026E+03  0.23214903026E+03  0.00000000000E+00 0.  1.
         21   -1    0    0  504  502 -0.00000000000E+00 -0.00000000000E+00 -0.58621568921E+03  0.58621568921E+03  0.00000000000E+00 0.  1.
         25    1    1    2    0    0  0.13916004592E+03  0.22756337051E+03 -0.14763693692E+03  0.32950306694E+03  0.12500000000E+03 0.  0.
         21    1    1    2  503  502 -0.14732847117E+03 -0.88933324130E+02 -0.28229956603E+03  0.33061739147E+03  0.00000000000E+00 0.  1.
         21    1    1    2  504  501  0.81684252527E+01 -0.13863004638E+03  0.75869844004E+02  0.15824426107E+03  0.00000000000E+00 0.  1.
<mgrwt>
<rscale>  4 0.22530025E+03</rscale>
<asrwt>0</asrwt>
<pdfrwt beam="1">  1       21 0.35715236E-01 0.22530025E+03</pdfrwt>
<pdfrwt beam="2">  1       21 0.90187028E-01 0.22530025E+03</pdfrwt>
<totfact> 0.77252821E+03</totfact>
</mgrwt>
</event>
<event>
 5    0  0.1257040E+001  0.2983593E+03  0.7546771E-02  0.1086064E+00
         21   -1    0    0  502  501  0.00000000000E+00  0.00000000000E+00  0.25535983982E+03  0.25535983982E+03  0.00000000000E+00 0. -1.
         21   -1    0    0  504  502 -0.00000000000E+00 -0.00000000000E+00 -0.12858961420E+04  0.12858961420E+04  0.00000000000E+00 0. -1.
         25    1    1    2    0    0  0.40018266500E+03  0.47217127591E+02 -0.61732409457E+03  0.74772298362E+03  0.12500000000E+03 0.  0.
         21    1    1    2  503  501 -0.17502076959E+03 -0.62174987731E+02  0.11547132107E+03  0.21870442354E+03  0.00000000000E+00 0. -1.
         21    1    1    2  504  503 -0.22516189542E+03  0.14957860140E+02 -0.52868352869E+03  0.57482857465E+03  0.00000000000E+00 0. -1.
<mgrwt>
<rscale>  4 0.29835928E+03</rscale>
<asrwt>0</asrwt>
<pdfrwt beam="1">  1       21 0.39286130E-01 0.29835928E+03</pdfrwt>
<pdfrwt beam="2">  1       21 0.19783017E+00 0.29835928E+03</pdfrwt>
<totfact> 0.78553042E+02</totfact>
</mgrwt>
</event>
<event>
 5    0  0.1257040E+001  0.2566749E+03  0.7546771E-02  0.1109158E+00
         21   -1    0    0  504  501  0.00000000000E+00  0.00000000000E+00  0.11098937405E+04  0.11098937405E+04  0.00000000000E+00 0. -1.
         21   -1    0    0  503  502 -0.00000000000E+00 -0.00000000000E+00 -0.14081875820E+04  0.14081875820E+04  0.00000000000E+00 0.  1.
         25    1    1    2    0    0 -0.26232277551E+03  0.71038229942E+02 -0.11778492851E+04  0.12152422010E+04  0.12500000000E+03 0.  0.
         21    1    1    2  503  501  0.40688188178E+02 -0.40389860475E+02 -0.19602325341E+03  0.20423512275E+03  0.00000000000E+00 0. -1.
         21    1    1    2  504  502  0.22163458733E+03 -0.30648369467E+02  0.10755786969E+04  0.10986039988E+04  0.00000000000E+00 0. -1.
<mgrwt>
<rscale>  4 0.25667486E+03</rscale>
<asrwt>0</asrwt>
<pdfrwt beam="1">  1       21 0.17075288E+00 0.25667486E+03</pdfrwt>
<pdfrwt beam="2">  1       21 0.21664424E+00 0.25667486E+03</pdfrwt>
<totfact> 0.20179978E+01</totfact>
</mgrwt>
</event>
<event>
 5    0  0.1257040E+001  0.2508113E+03  0.7546771E-02  0.1112793E+00
         21   -1    0    0  502  501  0.00000000000E+00  0.00000000000E+00  0.45468488760E+03  0.45468488760E+03  0.00000000000E+00 0.  1.
         21   -1    0    0  504  502 -0.00000000000E+00 -0.00000000000E+00 -0.37958827809E+03  0.37958827809E+03  0.00000000000E+00 0.  1.
         25    1    1    2    0    0  0.24728117987E+03 -0.15992601461E+02 -0.20331213806E+03  0.34404152468E+03  0.12500000000E+03 0.  0.
         21    1    1    2  503  501 -0.10362614525E+03 -0.12021287822E+03  0.24130813995E+03  0.28882370484E+03  0.00000000000E+00 0.  1.
         21    1    1    2  504  503 -0.14365503462E+03  0.13620547968E+03  0.37100607632E+02  0.20140793618E+03  0.00000000000E+00 0.  1.
<mgrwt>
<rscale>  4 0.25081135E+03</rscale>
<asrwt>0</asrwt>
<pdfrwt beam="1">  1       21 0.69951521E-01 0.25081135E+03</pdfrwt>
<pdfrwt beam="2">  1       21 0.58398196E-01 0.25081135E+03</pdfrwt>
<totfact> 0.48913479E+03</totfact>
</mgrwt>
</event>
<event>
 5    0  0.1257040E+001  0.2178161E+03  0.7546771E-02  0.1135522E+00
         21   -1    0    0  504  501  0.00000000000E+00  0.00000000000E+00  0.12832574126E+03  0.12832574126E+03  0.00000000000E+00 0. -1.
         21   -1    0    0  503  502 -0.00000000000E+00 -0.00000000000E+00 -0.56688120223E+03  0.56688120223E+03  0.00000000000E+00 0. -1.
         25    1    1    2    0    0  0.12836033610E+03 -0.16772458843E+03 -0.21599214631E+03  0.32693351115E+03  0.12500000000E+03 0.  0.
         21    1    1    2  503  501 -0.69636626796E+02  0.10385842774E+02 -0.18251464717E+03  0.19562392991E+03  0.00000000000E+00 0. -1.
         21    1    1    2  504  502 -0.58723709308E+02  0.15733874565E+03 -0.40048667485E+02  0.17264950242E+03  0.00000000000E+00 0. -1.
<mgrwt>
<rscale>  4 0.21781613E+03</rscale>
<asrwt>0</asrwt>
<pdfrwt beam="1">  1       21 0.19742422E-01 0.21781613E+03</pdfrwt>
<pdfrwt beam="2">  1       21 0.87212491E-01 0.21781613E+03</pdfrwt>
<totfact> 0.26337940E+04</totfact>
</mgrwt>
</event>
<event>
 5    0  0.1257040E+001  0.3282974E+03  0.7546771E-02  0.1071893E+00
         21   -1    0    0  502  501  0.00000000000E+00  0.00000000000E+00  0.31281173340E+03  0.31281173340E+03  0.00000000000E+00 0.  1.
         21   -1    0    0  504  502 -0.00000000000E+00 -0.00000000000E+00 -0.39531136420E+03  0.39531136420E+03  0.00000000000E+00 0.  1.
         25    1    1    2    0    0  0.25566749474E+03 -0.15795384219E+03  0.80164529778E+01  0.32558339584E+03  0.12500000000E+03 0.  0.
         21    1    1    2  503  501 -0.27133754128E+03  0.14368975476E+03 -0.18635159014E+02  0.30760051379E+03  0.00000000000E+00 0.  1.
         21    1    1    2  504  503  0.15670046542E+02  0.14264087421E+02 -0.71880924764E+02  0.74939187970E+02  0.00000000000E+00 0.  1.
<mgrwt>
<rscale>  4 0.32829740E+03</rscale>
<asrwt>0</asrwt>
<pdfrwt beam="1">  1       21 0.48124882E-01 0.32829740E+03</pdfrwt>
<pdfrwt beam="2">  1       21 0.60817133E-01 0.32829740E+03</pdfrwt>
<totfact> 0.96542265E+03</totfact>
</mgrwt>
</event>
<event>
 5    0  0.1257040E+001  0.1978024E+03  0.7546771E-02  0.1151606E+00
         21   -1    0    0  504  501  0.00000000000E+00  0.00000000000E+00  0.22041165640E+03  0.22041165640E+03  0.00000000000E+00 0.  1.
         21   -1    0    0  501  502 -0.00000000000E+00 -0.00000000000E+00 -0.25333512672E+03  0.25333512672E+03  0.00000000000E+00 0. -1.
         25    1    1    2    0    0 -0.91925071618E+02  0.17800114559E+03 -0.45157992897E+02  0.24041395747E+03  0.12500000000E+03 0.  0.
         21    1    1    2  503  502 -0.13012277403E+02 -0.10203016887E+03  0.13760368689E+02  0.10377293707E+03  0.00000000000E+00 0. -1.
         21    1    1    2  504  503  0.10493734902E+03 -0.75970976719E+02 -0.15258461052E+01  0.12955988858E+03  0.00000000000E+00 0. -1.
<mgrwt>
<rscale>  4 0.19780243E+03</rscale>
<asrwt>0</asrwt>
<pdfrwt beam="1">  1       21 0.33909486E-01 0.19780243E+03</pdfrwt>
<pdfrwt beam="2">  1       21 0.38974635E-01 0.19780243E+03</pdfrwt>
<totfact> 0.53051485E+04</totfact>
</mgrwt>
</event>
<event>
 5    0  0.1257040E+001  0.5329957E+03  0.7546771E-02  0.1005508E+00
         21   -1    0    0  503  501  0.00000000000E+00  0.00000000000E+00  0.20759737304E+04  0.20759737304E+04  0.00000000000E+00 0.  1.
         21   -1    0    0  504  502 -0.00000000000E+00 -0.00000000000E+00 -0.53929461836E+03  0.53929461836E+03  0.00000000000E+00 0. -1.
         25    1    1    2    0    0  0.31166608630E+03 -0.38465315045E+03 -0.36251619737E+03  0.62620826316E+03  0.12500000000E+03 0.  0.
         21    1    1    2  503  502  0.20038478991E+02 -0.15508981750E+02  0.63138494675E+01  0.26113863182E+02  0.00000000000E+00 0.  1.
         21    1    1    2  504  501 -0.33170456529E+03  0.40016213220E+03  0.18928814599E+04  0.19629462224E+04  0.00000000000E+00 0.  1.
<mgrwt>
<rscale>  4 0.53299567E+03</rscale>
<asrwt>0</asrwt>
<pdfrwt beam="1">  1       21 0.31938057E+00 0.53299567E+03</pdfrwt>
<pdfrwt beam="2">  1       21 0.82968404E-01 0.53299567E+03</pdfrwt>
<totfact> 0.23614408E+01</totfact>
</mgrwt>
</event>
<event>
 5    0  0.1257040E+001  0.3471479E+03  0.7546771E-02  0.1063792E+00
         21   -1    0    0  502  501  0.00000000000E+00  0.00000000000E+00  0.41023086081E+03  0.41023086081E+03  0.00000000000E+00 0. -1.
         21   -1    0    0  504  502 -0.00000000000E+00 -0.00000000000E+00 -0.35049694922E+03  0.35049694922E+03  0.00000000000E+00 0. -1.
         25    1    1    2    0    0  0.10184419287E+03 -0.32402675905E+03 -0.95214564426E+02  0.37424109005E+03  0.12500000000E+03 0.  0.
         21    1    1    2  503  501 -0.85288265041E+02  0.30579981348E+03  0.16739164318E+03  0.35889772399E+03  0.00000000000E+00 0. -1.
         21    1    1    2  504  503 -0.16555927832E+02  0.18226945566E+02 -0.12443167158E+02  0.27588995995E+02  0.00000000000E+00 0. -1.
<mgrwt>
<rscale>  4 0.34714786E+03</rscale>
<asrwt>0</asrwt>
<pdfrwt beam="1">  1       21 0.63112440E-01 0.34714786E+03</pdfrwt>
<pdfrwt beam="2">  1       21 0.53922607E-01 0.34714786E+03</pdfrwt>
<totfact> 0.69407106E+03</totfact>
</mgrwt>
</event>
<event>
 5    0  0.1257040E+001  0.2771293E+03  0.7546771E-02  0.1097267E+00
         21   -1    0    0  504  501  0.00000000000E+00  0.00000000000E+00  0.20963383075E+03  0.20963383075E+03  0.00000000000E+00 0. -1.
         21   -1    0    0  503  502 -0.00000000000E+00 -0.00000000000E+00 -0.46899967847E+03  0.46899967847E+03  0.00000000000E+00 0. -1.
         25    1    1    2    0    0  0.33310746825E+02 -0.25548727816E+03  0.54877356653E+01  0.28642358562E+03  0.12500000000E+03 0.  0.
         21    1    1    2  503  501 -0.52783210005E+02  0.23849815946E+03 -0.27181565706E+03  0.36544656346E+03  0.00000000000E+00 0. -1.
         21    1    1    2  504  502  0.19472463179E+02  0.16989118705E+02  0.69620736632E+01  0.26763360147E+02  0.00000000000E+00 0. -1.
<mgrwt>
<rscale>  4 0.27712928E+03</rscale>
<asrwt>0</asrwt>
<pdfrwt beam="1">  1       21 0.32251359E-01 0.27712928E+03</pdfrwt>
<pdfrwt beam="2">  1       21 0.72153795E-01 0.27712928E+03</pdfrwt>
<totfact> 0.15303108E+04</totfact>
</mgrwt>
</event>
<event>
 5    0  0.1257040E+001  0.3100752E+03  0.7546771E-02  0.1080310E+00
         21   -1    0    0  502  501  0.00000000000E+00  0.00000000000E+00  0.62660579542E+03  0.62660579542E+03  0.00000000000E+00 0.  1.
         21   -1    0    0  504  502 -0.00000000000E+00 -0.00000000000E+00 -0.23113272591E+03  0.23113272591E+03  0.00000000000E+00 0.  1.
         25    1    1    2    0    0  0.22107373980E+03  0.14262035795E+03  0.57476202104E+02  0.29688832705E+03  0.12500000000E+03 0.  0.
         21    1    1    2  503  501  0.75069662105E+02 -0.89184240859E+02  0.11991296583E+02  0.11718819983E+03  0.00000000000E+00 0.  1.
         21    1    1    2  504  503 -0.29614340190E+03 -0.53436117096E+02  0.32600557083E+03  0.44366199445E+03  0.00000000000E+00 0.  1.
<mgrwt>
<rscale>  4 0.31007522E+03</rscale>
<asrwt>0</asrwt>
<pdfrwt beam="1">  1       21 0.96400891E-01 0.31007522E+03</pdfrwt>
<pdfrwt beam="2">  1       21 0.35558881E-01 0.31007522E+03</pdfrwt>
<totfact> 0.63566146E+03</totfact>
</mgrwt>
</event>
<event>
 5    0  0.1257040E+001  0.2689034E+03  0.7546771E-02  0.1101909E+00
         21   -1    0    0  502  501  0.00000000000E+00  0.00000000000E+00  0.45618484687E+02  0.45618484687E+02  0.00000000000E+00 0.  1.
         21   -1    0    0  504  502 -0.00000000000E+00 -0.00000000000E+00 -0.21284377997E+04  0.21284377997E+04  0.00000000000E+00 0.  1.
         25    1    1    2    0    0 -0.19727735715E+03  0.88982469779E+02 -0.12555927313E+04  0.12802243329E+04  0.12500000000E+03 0.  0.
         21    1    1    2  503  501  0.22242356362E+03 -0.10506192297E+03 -0.42925347047E+03  0.49474113557E+03  0.00000000000E+00 0.  1.
         21    1    1    2  504  503 -0.25146206475E+02  0.16079453186E+02 -0.39797311321E+03  0.39909081593E+03  0.00000000000E+00 0. -1.
<mgrwt>
<rscale>  4 0.26890336E+03</rscale>
<asrwt>0</asrwt>
<pdfrwt beam="1">  1       21 0.70182269E-02 0.26890336E+03</pdfrwt>
<pdfrwt beam="2">  1       21 0.32745204E+00 0.26890336E+03</pdfrwt>
<totfact> 0.32878840E+03</totfact>
</mgrwt>
</event>
<event>
 5    0  0.1257040E+001  0.2316967E+03  0.7546771E-02  0.1125451E+00
         21   -1    0    0  504  501  0.00000000000E+00  0.00000000000E+00  0.28776401766E+03  0.28776401766E+03  0.00000000000E+00 0. -1.
         21   -1    0    0  503  502 -0.00000000000E+00 -0.00000000000E+00 -0.55349781524E+03  0.55349781524E+03  0.00000000000E+00 0. -1.
         25    1    1    2    0    0  0.16482677454E+03  0.25973096278E+03 -0.49275741858E+02  0.33568011166E+03  0.12500000000E+03 0.  0.
         21    1    1    2  503  501 -0.10766773472E+03 -0.10510160205E+03 -0.28872835355E+03  0.32558063517E+03  0.00000000000E+00 0. -1.
         21    1    1    2  504  502 -0.57159039814E+02 -0.15462936073E+03  0.72270297836E+02  0.18000108606E+03  0.00000000000E+00 0. -1.
<mgrwt>
<rscale>  4 0.23169673E+03</rscale>
<asrwt>0</asrwt>
<pdfrwt beam="1">  1       21 0.44271387E-01 0.23169673E+03</pdfrwt>
<pdfrwt beam="2">  1       21 0.85153510E-01 0.23169673E+03</pdfrwt>
<totfact> 0.56845577E+03</totfact>
</mgrwt>
</event>
<event>
 5    0  0.1257040E+001  0.1801844E+03  0.7546771E-02  0.1167625E+00
         21   -1    0    0  504  501  0.00000000000E+00  0.00000000000E+00  0.90199131957E+03  0.90199131957E+03  0.00000000000E+00 0.  1.
         21   -1    0    0  503  502 -0.00000000000E+00 -0.00000000000E+00 -0.10428908289E+03  0.10428908289E+03  0.00000000000E+00 0.  1.
         25    1    1    2    0    0  0.58879541239E+02  0.21019022970E+03  0.13878281636E+03  0.28728453344E+03  0.12500000000E+03 0.  0.
         21    1    1    2  503  501 -0.36481303818E+02 -0.89979255883E+02  0.75757401527E+02  0.12315167844E+03  0.00000000000E+00 0.  1.
         21    1    1    2  504  502 -0.22398237421E+02 -0.12021097382E+03  0.58316201879E+03  0.59584419057E+03  0.00000000000E+00 0.  1.
<mgrwt>
<rscale>  4 0.18018440E+03</rscale>
<asrwt>0</asrwt>
<pdfrwt beam="1">  1       21 0.13876789E+00 0.18018440E+03</pdfrwt>
<pdfrwt beam="2">  1       21 0.16044475E-01 0.18018440E+03</pdfrwt>
<totfact> 0.12814527E+04</totfact>
</mgrwt>
</event>
<event>
 5    0  0.1383160E+001  0.3938697E+03  0.7546771E-02  0.1045923E+00
         21   -1    0    0  502  501  0.00000000000E+00  0.00000000000E+00  0.16666176312E+04  0.16666176312E+04  0.00000000000E+00 0.  1.
         21   -1    0    0  504  502 -0.00000000000E+00 -0.00000000000E+00 -0.16783122289E+04  0.16783122289E+04  0.00000000000E+00 0.  1.
         25    1    1    2    0    0  0.33950729127E+03 -0.15449893288E+03  0.14419803411E+04  0.14946797066E+04  0.12500000000E+03 0.  0.
         21    1    1    2  503  501 -0.26584863979E+02 -0.49555505168E+02  0.17264621829E+03  0.18157428171E+03  0.00000000000E+00 0.  1.
         21    1    1    2  504  503 -0.31292242729E+03  0.20405443805E+03 -0.16263211571E+04  0.16686758718E+04  0.00000000000E+00 0.  1.
<mgrwt>
<rscale>  4 0.39386967E+03</rscale>
<asrwt>0</asrwt>
<pdfrwt beam="1">  1       21 0.25640271E+00 0.39386967E+03</pdfrwt>
<pdfrwt beam="2">  1       21 0.25820188E+00 0.39386967E+03</pdfrwt>
<totfact> 0.26840434E+00</totfact>
</mgrwt>
</event>
<event>
 5    0  0.1257040E+001  0.2277227E+03  0.7546771E-02  0.1128253E+00
         21   -1    0    0  502  501  0.00000000000E+00  0.00000000000E+00  0.24730582875E+03  0.24730582875E+03  0.00000000000E+00 0.  1.
         21   -1    0    0  504  502 -0.00000000000E+00 -0.00000000000E+00 -0.40875479259E+03  0.40875479259E+03  0.00000000000E+00 0.  1.
         25    1    1    2    0    0  0.42806248459E+02  0.20207950885E+03 -0.21799858262E+03  0.32529507348E+03  0.12500000000E+03 0.  0.
         21    1    1    2  503  501 -0.52726199739E+02 -0.18013856573E+03  0.14621326449E+03  0.23792493294E+03  0.00000000000E+00 0.  1.
         21    1    1    2  504  503  0.99199512798E+01 -0.21940943122E+02 -0.89663645708E+02  0.92840614927E+02  0.00000000000E+00 0.  1.
<mgrwt>
<rscale>  4 0.22772271E+03</rscale>
<asrwt>0</asrwt>
<pdfrwt beam="1">  1       21 0.38047051E-01 0.22772271E+03</pdfrwt>
<pdfrwt beam="2">  1       21 0.62885352E-01 0.22772271E+03</pdfrwt>
<totfact> 0.15272250E+04</totfact>
</mgrwt>
</event>
<event>
 5    0  0.1257040E+001  0.1988775E+03  0.7546771E-02  0.1150690E+00
         21   -1    0    0  502  501  0.00000000000E+00  0.00000000000E+00  0.91976464919E+03  0.91976464919E+03  0.00000000000E+00 0. -1.
         21   -1    0    0  504  502 -0.00000000000E+00 -0.00000000000E+00 -0.91510409371E+02  0.91510409371E+02  0.00000000000E+00 0. -1.
         25    1    1    2    0    0  0.43203861456E+02  0.20181624027E+03  0.44886098019E+03  0.50960528649E+03  0.12500000000E+03 0.  0.
         21    1    1    2  503  501 -0.35131826819E+02 -0.13121593714E+03  0.40419162172E+03  0.42640677115E+03  0.00000000000E+00 0. -1.
         21    1    1    2  504  503 -0.80720346367E+01 -0.70600303135E+02 -0.24798362086E+02  0.75263000923E+02  0.00000000000E+00 0. -1.
<mgrwt>
<rscale>  4 0.19887751E+03</rscale>
<asrwt>0</asrwt>
<pdfrwt beam="1">  1       21 0.14150225E+00 0.19887751E+03</pdfrwt>
<pdfrwt beam="2">  1       21 0.14078525E-01 0.19887751E+03</pdfrwt>
<totfact> 0.15254779E+04</totfact>
</mgrwt>
</event>
<event>
 5    0  0.1257040E+001  0.2617024E+03  0.7546771E-02  0.1106125E+00
         21   -1    0    0  502  501  0.00000000000E+00  0.00000000000E+00  0.17676942169E+04  0.17676942169E+04  0.00000000000E+00 0. -1.
         21   -1    0    0  504  502 -0.00000000000E+00 -0.00000000000E+00 -0.11799540870E+03  0.11799540870E+03  0.00000000000E+00 0.  1.
         25    1    1    2    0    0  0.18596509649E+03 -0.14457799450E+03  0.80032813444E+02  0.27841706995E+03  0.12500000000E+03 0.  0.
         21    1    1    2  503  501 -0.20598270252E+03  0.38646586476E+02  0.13012011882E+04  0.13179707753E+04  0.00000000000E+00 0. -1.
         21    1    1    2  504  503  0.20017606029E+02  0.10593140803E+03  0.26846480653E+03  0.28930178033E+03  0.00000000000E+00 0.  1.
<mgrwt>
<rscale>  4 0.26170237E+03</rscale>
<asrwt>0</asrwt>
<pdfrwt beam="1">  1       21 0.27195294E+00 0.26170237E+03</pdfrwt>
<pdfrwt beam="2">  1       21 0.18153141E-01 0.26170237E+03</pdfrwt>
<totfact> 0.12706195E+03</totfact>
</mgrwt>
</event>
<event>
 5    0  0.1257040E+001  0.3322325E+03  0.7546771E-02  0.1070153E+00
         21   -1    0    0  504  501  0.00000000000E+00  0.00000000000E+00  0.10977547272E+03  0.10977547272E+03  0.00000000000E+00 0. -1.
         21   -1    0    0  501  502 -0.00000000000E+00 -0.00000000000E+00 -0.11626678090E+04  0.11626678090E+04  0.00000000000E+00 0. -1.
         25    1    1    2    0    0  0.14915748754E+03 -0.27058731545E+03 -0.74336348318E+03  0.81466540340E+03  0.12500000000E+03 0.  0.
         21    1    1    2  503  502 -0.17231184812E+03  0.25341713165E+03 -0.26728484722E+03  0.40663596148E+03  0.00000000000E+00 0. -1.
         21    1    1    2  504  503  0.23154360577E+02  0.17170183797E+02 -0.42244005889E+02  0.51141916848E+02  0.00000000000E+00 0.  1.
<mgrwt>
<rscale>  4 0.33223253E+03</rscale>
<asrwt>0</asrwt>
<pdfrwt beam="1">  1       21 0.16888535E-01 0.33223253E+03</pdfrwt>
<pdfrwt beam="2">  1       21 0.17887197E+00 0.33223253E+03</pdfrwt>
<totfact> 0.53257545E+03</totfact>
</mgrwt>
</event>
<event>
 5    0  0.1257040E+001  0.2938058E+03  0.7546771E-02  0.1088379E+00
         21   -1    0    0  502  501  0.00000000000E+00  0.00000000000E+00  0.50241176177E+03  0.50241176177E+03  0.00000000000E+00 0.  1.
         21   -1    0    0  504  502 -0.00000000000E+00 -0.00000000000E+00 -0.24785320259E+03  0.24785320259E+03  0.00000000000E+00 0.  1.
         25    1    1    2    0    0 -0.79801245307E+02  0.23018346588E+03  0.20767122864E+03  0.34366408879E+03  0.12500000000E+03 0.  0.
         21    1    1    2  503  501  0.46767160280E+02 -0.30378343942E+03  0.82763061406E+02  0.31831002133E+03  0.00000000000E+00 0.  1.
         21    1    1    2  504  503  0.33034085027E+02  0.73599973542E+02 -0.35875730860E+02  0.88290854247E+02  0.00000000000E+00 0.  1.
<mgrwt>
<rscale>  4 0.29380575E+03</rscale>
<asrwt>0</asrwt>
<pdfrwt beam="1">  1       21 0.77294117E-01 0.29380575E+03</pdfrwt>
<pdfrwt beam="2">  1       21 0.38131262E-01 0.29380575E+03</pdfrwt>
<totfact> 0.92957679E+03</totfact>
</mgrwt>
</event>
<event>
 5    0  0.1257040E+001  0.2706282E+03  0.7546771E-02  0.1100921E+00
         21   -1    0    0  503  501  0.00000000000E+00  0.00000000000E+00  0.12575006958E+03  0.12575006958E+03  0.00000000000E+00 0.  1.
         21   -1    0    0  504  502 -0.00000000000E+00 -0.00000000000E+00 -0.73268592923E+03  0.73268592923E+03  0.00000000000E+00 0.  1.
         25    1    1    2    0    0  0.22504537517E+03  0.29943750354E+02 -0.30460390589E+03  0.39993823092E+03  0.12500000000E+03 0.  0.
         21    1    1    2  503  502 -0.25020361829E+03 -0.26039139466E+02 -0.33382936061E+03  0.41799752319E+03  0.00000000000E+00 0.  1.
         21    1    1    2  504  501  0.25158243119E+02 -0.39046108882E+01  0.31497406843E+02  0.40500244701E+02  0.00000000000E+00 0.  1.
<mgrwt>
<rscale>  4 0.27062822E+03</rscale>
<asrwt>0</asrwt>
<pdfrwt beam="1">  1       21 0.19346165E-01 0.27062822E+03</pdfrwt>
<pdfrwt beam="2">  1       21 0.11272091E+00 0.27062822E+03</pdfrwt>
<totfact> 0.14446284E+04</totfact>
</mgrwt>
</event>
<event>
 5    0  0.1257040E+001  0.3225813E+03  0.7546771E-02  0.1074467E+00
         21   -1    0    0  502  501  0.00000000000E+00  0.00000000000E+00  0.17471768559E+03  0.17471768559E+03  0.00000000000E+00 0. -1.
         21   -1    0    0  504  502 -0.00000000000E+00 -0.00000000000E+00 -0.14915748200E+04  0.14915748200E+04  0.00000000000E+00 0.  1.
         25    1    1    2    0    0 -0.25518246090E+03 -0.18644490853E+03 -0.10560112952E+04  0.11093532565E+04  0.12500000000E+03 0.  0.
         21    1    1    2  503  501  0.26111153029E+03 -0.15036458676E+01 -0.35619922055E+02  0.26353419332E+03  0.00000000000E+00 0. -1.
         21    1    1    2  504  503 -0.59290693906E+01  0.18794855440E+03 -0.22522591722E+03  0.29340505577E+03  0.00000000000E+00 0.  1.
<mgrwt>
<rscale>  4 0.32258128E+03</rscale>
<asrwt>0</asrwt>
<pdfrwt beam="1">  1       21 0.26879644E-01 0.32258128E+03</pdfrwt>
<pdfrwt beam="2">  1       21 0.22947305E+00 0.32258128E+03</pdfrwt>
<totfact> 0.10327368E+03</totfact>
</mgrwt>
</event>
<event>
 5    0  0.1257040E+001  0.2988737E+03  0.7546771E-02  0.1085805E+00
         21   -1    0    0  502  501  0.00000000000E+00  0.00000000000E+00  0.59069018281E+03  0.59069018281E+03  0.00000000000E+00 0.  1.
         21   -1    0    0  504  502 -0.00000000000E+00 -0.00000000000E+00 -0.21994519715E+03  0.21994519715E+03  0.00000000000E+00 0. -1.
         25    1    1    2    0    0  0.21695517450E+03  0.12591386277E+03  0.23400698944E+03  0.36511384483E+03  0.12500000000E+03 0.  0.
         21    1    1    2  503  501  0.35714441181E+02 -0.38735971774E+01  0.15997800056E+03  0.16396184534E+03  0.00000000000E+00 0.  1.
         21    1    1    2  504  503 -0.25266961568E+03 -0.12204026559E+03 -0.23240004337E+02  0.28155968979E+03  0.00000000000E+00 0. -1.
<mgrwt>
<rscale>  4 0.29887367E+03</rscale>
<asrwt>0</asrwt>
<pdfrwt beam="1">  1       21 0.90875412E-01 0.29887367E+03</pdfrwt>
<pdfrwt beam="2">  1       21 0.33837723E-01 0.29887367E+03</pdfrwt>
<totfact> 0.81159435E+03</totfact>
</mgrwt>
</event>
<event>
 5    0  0.1257040E+001  0.2391345E+03  0.7546771E-02  0.1120371E+00
         21   -1    0    0  503  501  0.00000000000E+00  0.00000000000E+00  0.12467964924E+03  0.12467964924E+03  0.00000000000E+00 0.  1.
         21   -1    0    0  501  502 -0.00000000000E+00 -0.00000000000E+00 -0.70684277819E+03  0.70684277819E+03  0.00000000000E+00 0.  1.
         25    1    1    2    0    0 -0.96842275318E+02 -0.20629436419E+03 -0.46948050924E+03  0.53663091557E+03  0.12500000000E+03 0.  0.
         21    1    1    2  503  504  0.26568125823E+01  0.17119429822E+03 -0.60113510918E+02  0.18146123716E+03  0.00000000000E+00 0.  1.
         21    1    1    2  504  502  0.94185462736E+02  0.35100065971E+02 -0.52569108786E+02  0.11343027471E+03  0.00000000000E+00 0.  1.
<mgrwt>
<rscale>  4 0.23913446E+03</rscale>
<asrwt>0</asrwt>
<pdfrwt beam="1">  1       21 0.19181484E-01 0.23913446E+03</pdfrwt>
<pdfrwt beam="2">  1       21 0.10874504E+00 0.23913446E+03</pdfrwt>
<totfact> 0.16289579E+04</totfact>
</mgrwt>
</event>
<event>
 5    0  0.1257040E+001  0.2822938E+03  0.7546771E-02  0.1094443E+00
         21   -1    0    0  504  501  0.00000000000E+00  0.00000000000E+00  0.88624294988E+03  0.88624294988E+03  0.00000000000E+00 0.  1.
         21   -1    0    0  503  502 -0.00000000000E+00 -0.00000000000E+00 -0.89751229713E+03  0.89751229713E+03  0.00000000000E+00 0.  1.
         25    1    1    2    0    0 -0.15750732682E+03  0.22509501769E+03  0.50469053234E+03  0.58805940042E+03  0.12500000000E+03 0.  0.
         21    1    1    2  503  501  0.21357145365E+03 -0.13575426708E+03 -0.82826376832E+03  0.86606169339E+03  0.00000000000E+00 0.  1.
         21    1    1    2  504  502 -0.56064126831E+02 -0.89340750608E+02  0.31230388874E+03  0.32963415320E+03  0.00000000000E+00 0.  1.
<mgrwt>
<rscale>  4 0.28229376E+03</rscale>
<asrwt>0</asrwt>
<pdfrwt beam="1">  1       21 0.13634507E+00 0.28229376E+03</pdfrwt>
<pdfrwt beam="2">  1       21 0.13807882E+00 0.28229376E+03</pdfrwt>
<totfact> 0.12857959E+02</totfact>
</mgrwt>
</event>
<event>
 5    0  0.1257040E+001  0.3080136E+03  0.7546771E-02  0.1081302E+00
         21   -1    0    0  503  501  0.00000000000E+00  0.00000000000E+00  0.80093920073E+02  0.80093920073E+02  0.00000000000E+00 0.  1.
         21   -1    0    0  501  502 -0.00000000000E+00 -0.00000000000E+00 -0.11605662037E+04  0.11605662037E+04  0.00000000000E+00 0.  1.
         25    1    1    2    0    0  0.22601855702E+03  0.16781823245E+03 -0.42118504517E+03  0.52179420228E+03  0.12500000000E+03 0.  0.
         21    1    1    2  503  504 -0.41027818147E+02 -0.12462282708E+02 -0.13399825816E+03  0.14069159016E+03  0.00000000000E+00 0.  1.
         21    1    1    2  504  502 -0.18499073887E+03 -0.15535594974E+03 -0.52528898030E+03  0.57817433133E+03  0.00000000000E+00 0.  1.
<mgrwt>
<rscale>  4 0.30801355E+03</rscale>
<asrwt>0</asrwt>
<pdfrwt beam="1">  1       21 0.12322142E-01 0.30801355E+03</pdfrwt>
<pdfrwt beam="2">  1       21 0.17854865E+00 0.30801355E+03</pdfrwt>
<totfact> 0.96706220E+03</totfact>
</mgrwt>
</event>
<event>
 5    0  0.1257040E+001  0.3045442E+03  0.7546771E-02  0.1082991E+00
         21   -1    0    0  502  501  0.00000000000E+00  0.00000000000E+00  0.28214483177E+03  0.28214483177E+03  0.00000000000E+00 0.  1.
         21   -1    0    0  504  502 -0.00000000000E+00 -0.00000000000E+00 -0.39756174967E+03  0.39756174967E+03  0.00000000000E+00 0.  1.
         25    1    1    2    0    0 -0.28855009328E+03  0.87569876072E+02 -0.22502641790E+02  0.32720178547E+03  0.12500000000E+03 0.  0.
         21    1    1    2  503  501  0.37683449352E+02 -0.21588311300E+01  0.40877609968E+02  0.55638852465E+02  0.00000000000E+00 0.  1.
         21    1    1    2  504  503  0.25086664393E+03 -0.85411044942E+02 -0.13379188608E+03  0.29686594351E+03  0.00000000000E+00 0.  1.
<mgrwt>
<rscale>  4 0.30454419E+03</rscale>
<asrwt>0</asrwt>
<pdfrwt beam="1">  1       21 0.43406897E-01 0.30454419E+03</pdfrwt>
<pdfrwt beam="2">  1       21 0.61163346E-01 0.30454419E+03</pdfrwt>
<totfact> 0.11941174E+04</totfact>
</mgrwt>
</event>
