<event>
 5    0  0.2159162E+000  0.3182654E+03  0.7546771E-02  0.1076450E+00
         21   -1    0    0  502  501  0.00000000000E+00  0.00000000000E+00  0.37396979832E+03  0.37396979832E+03  0.00000000000E+00 0.  1.
         21   -1    0    0  503  502 -0.00000000000E+00 -0.00000000000E+00 -0.40974911654E+03  0.40974911654E+03  0.00000000000E+00 0.  1.
         25    1    1    2    0    0 -0.18597036260E+03  0.20144690242E+03 -0.62667043438E+02  0.30776287722E+03  0.12500000000E+03 0.  0.
         21    1    1    2  503  504  0.23268865624E+02  0.54954394857E+02 -0.12344607570E+03  0.13711440197E+03  0.00000000000E+00 0.  1.
         21    1    1    2  504  501  0.16270149697E+03 -0.25640129728E+03  0.15033380092E+03  0.33884163567E+03  0.00000000000E+00 0.  1.
<mgrwt>
<rscale>  4 0.31826544E+03</rscale>
<asrwt>0</asrwt>
<pdfrwt beam="1">  1       21 0.57533815E-01 0.31826544E+03</pdfrwt>
<pdfrwt beam="2">  1       21 0.63038325E-01 0.31826544E+03</pdfrwt>
<totfact> 0.61307124E+03</totfact>
</mgrwt>
</event>
<event>
 5    0  0.2159162E+000  0.2225031E+03  0.7546771E-02  0.1132031E+00
         21   -1    0    0  502  501  0.00000000000E+00  0.00000000000E+00  0.42155623694E+03  0.42155623694E+03  0.00000000000E+00 0. -1.
         21   -1    0    0  503  502 -0.00000000000E+00 -0.00000000000E+00 -0.50878584779E+03  0.50878584779E+03  0.00000000000E+00 0. -1.
         25    1    1    2    0    0  0.13457860127E+03  0.15104539153E+03  0.33204458079E+03  0.40841732806E+03  0.12500000000E+03 0.  0.
         21    1    1    2  503  504  0.13058583118E+02 -0.42289132501E+02  0.17983906033E+02  0.47773614024E+02  0.00000000000E+00 0. -1.
         21    1    1    2  504  501 -0.14763718438E+03 -0.10875625903E+03 -0.43725809768E+03  0.47415114265E+03  0.00000000000E+00 0. -1.
<mgrwt>
<rscale>  4 0.22250310E+03</rscale>
<asrwt>0</asrwt>
<pdfrwt beam="1">  1       21 0.64854806E-01 0.22250310E+03</pdfrwt>
<pdfrwt beam="2">  1       21 0.78274746E-01 0.22250310E+03</pdfrwt>
<totfact> 0.30885208E+03</totfact>
</mgrwt>
</event>
<event>
 5    0  0.2159162E+000  0.2372011E+03  0.7546771E-02  0.1121672E+00
         21   -1    0    0  502  501  0.00000000000E+00  0.00000000000E+00  0.65217767451E+02  0.65217767451E+02  0.00000000000E+00 0.  1.
         21   -1    0    0  503  502 -0.00000000000E+00 -0.00000000000E+00 -0.83544899341E+03  0.83544899341E+03  0.00000000000E+00 0.  1.
         25    1    1    2    0    0 -0.18110591885E+03 -0.88543898821E+02 -0.29985657090E+03  0.38233275948E+03  0.12500000000E+03 0.  0.
         21    1    1    2  503  504  0.82243682377E+02  0.65456699711E+02 -0.15711069975E+03  0.18903008968E+03  0.00000000000E+00 0.  1.
         21    1    1    2  504  501  0.98862236477E+02  0.23087199110E+02 -0.31326395531E+03  0.32930391170E+03  0.00000000000E+00 0.  1.
<mgrwt>
<rscale>  4 0.23720113E+03</rscale>
<asrwt>0</asrwt>
<pdfrwt beam="1">  1       21 0.10033503E-01 0.23720113E+03</pdfrwt>
<pdfrwt beam="2">  1       21 0.12853061E+00 0.23720113E+03</pdfrwt>
<totfact> 0.35021576E+04</totfact>
</mgrwt>
</event>
<event>
 5    0  0.2159162E+000  0.2770601E+03  0.7546771E-02  0.1097306E+00
         21   -1    0    0  502  501  0.00000000000E+00  0.00000000000E+00  0.75249555406E+03  0.75249555406E+03  0.00000000000E+00 0.  1.
         21   -1    0    0  503  502 -0.00000000000E+00 -0.00000000000E+00 -0.13284963844E+03  0.13284963844E+03  0.00000000000E+00 0. -1.
         25    1    1    2    0    0 -0.23756778485E+03  0.68548088292E+02  0.55949994012E+03  0.62434163388E+03  0.12500000000E+03 0.  0.
         21    1    1    2  503  504  0.47842319014E+02 -0.39502548736E+02  0.14650489468E+02  0.63749319109E+02  0.00000000000E+00 0. -1.
         21    1    1    2  504  501  0.18972546583E+03 -0.29045539557E+02  0.45495486039E+02  0.19725423951E+03  0.00000000000E+00 0. -1.
<mgrwt>
<rscale>  4 0.27706009E+03</rscale>
<asrwt>0</asrwt>
<pdfrwt beam="1">  1       21 0.11576854E+00 0.27706009E+03</pdfrwt>
<pdfrwt beam="2">  1       21 0.20438406E-01 0.27706009E+03</pdfrwt>
<totfact> 0.12160162E+04</totfact>
</mgrwt>
</event>
<event>
 5    0  0.2159162E+000  0.2975894E+03  0.7546771E-02  0.1086452E+00
         21   -1    0    0  502  501  0.00000000000E+00  0.00000000000E+00  0.76077028015E+03  0.76077028015E+03  0.00000000000E+00 0.  1.
         21   -1    0    0  503  502 -0.00000000000E+00 -0.00000000000E+00 -0.12388260781E+03  0.12388260781E+03  0.00000000000E+00 0.  1.
         25    1    1    2    0    0  0.26255053319E+03  0.63258833878E+02  0.47759817747E+03  0.56272504979E+03  0.12500000000E+03 0.  0.
         21    1    1    2  503  504 -0.15846494387E+03 -0.18385083106E+02  0.12746803743E+03  0.20419904575E+03  0.00000000000E+00 0.  1.
         21    1    1    2  504  501 -0.10408558932E+03 -0.44873750772E+02  0.31821457443E+02  0.11772879243E+03  0.00000000000E+00 0.  1.
<mgrwt>
<rscale>  4 0.29758942E+03</rscale>
<asrwt>0</asrwt>
<pdfrwt beam="1">  1       21 0.11704158E+00 0.29758942E+03</pdfrwt>
<pdfrwt beam="2">  1       21 0.19058863E-01 0.29758942E+03</pdfrwt>
<totfact> 0.13369740E+04</totfact>
</mgrwt>
</event>
<event>
 5    0  0.2159162E+000  0.2611687E+03  0.7546771E-02  0.1106443E+00
         21   -1    0    0  502  501  0.00000000000E+00  0.00000000000E+00  0.62991730323E+03  0.62991730323E+03  0.00000000000E+00 0. -1.
         21   -1    0    0  503  502 -0.00000000000E+00 -0.00000000000E+00 -0.38460464636E+03  0.38460464636E+03  0.00000000000E+00 0. -1.
         25    1    1    2    0    0 -0.18366507779E+03 -0.16491670038E+03  0.50420195767E+03  0.57513041389E+03  0.12500000000E+03 0.  0.
         21    1    1    2  503  504  0.12247666224E+03  0.13485846110E+03 -0.11228970004E+02  0.18251966221E+03  0.00000000000E+00 0. -1.
         21    1    1    2  504  501  0.61188415553E+02  0.30058239278E+02 -0.24766033079E+03  0.25687187349E+03  0.00000000000E+00 0. -1.
<mgrwt>
<rscale>  4 0.26116868E+03</rscale>
<asrwt>0</asrwt>
<pdfrwt beam="1">  1       21 0.96910354E-01 0.26116868E+03</pdfrwt>
<pdfrwt beam="2">  1       21 0.59169946E-01 0.26116868E+03</pdfrwt>
<totfact> 0.22371190E+03</totfact>
</mgrwt>
</event>
<event>
 5    0  0.2893838E+000  0.2306748E+03  0.7546771E-02  0.1126166E+00
         21   -1    0    0  502  501  0.00000000000E+00  0.00000000000E+00  0.61798342911E+02  0.61798342911E+02  0.00000000000E+00 0. -1.
         21   -1    0    0  503  502 -0.00000000000E+00 -0.00000000000E+00 -0.15982906543E+04  0.15982906543E+04  0.00000000000E+00 0. -1.
         25    1    1    2    0    0  0.13860600659E+03  0.17781973844E+03 -0.29547236466E+03  0.39212294337E+03  0.12500000000E+03 0.  0.
         21    1    1    2  503  504 -0.39645315401E+02 -0.65616508450E+02 -0.76880653360E+03  0.77261941687E+03  0.00000000000E+00 0. -1.
         21    1    1    2  504  501 -0.98960691193E+02 -0.11220322999E+03 -0.47221341313E+03  0.49534663697E+03  0.00000000000E+00 0. -1.
<mgrwt>
<rscale>  4 0.23067479E+03</rscale>
<asrwt>0</asrwt>
<pdfrwt beam="1">  1       21 0.95074367E-02 0.23067479E+03</pdfrwt>
<pdfrwt beam="2">  1       21 0.24589089E+00 0.23067479E+03</pdfrwt>
<totfact> 0.60178719E+03</totfact>
</mgrwt>
</event>
<event>
 5    0  0.2159162E+000  0.2788175E+03  0.7546771E-02  0.1096337E+00
         21   -1    0    0  502  501  0.00000000000E+00  0.00000000000E+00  0.12338883915E+04  0.12338883915E+04  0.00000000000E+00 0. -1.
         21   -1    0    0  503  502 -0.00000000000E+00 -0.00000000000E+00 -0.11518594909E+03  0.11518594909E+03  0.00000000000E+00 0.  1.
         25    1    1    2    0    0  0.26305684558E+03 -0.19613859330E+03  0.57838720157E+03  0.67662841111E+03  0.12500000000E+03 0.  0.
         21    1    1    2  503  504 -0.72375192485E+02  0.80662969879E+02  0.38700982606E+03  0.40189711204E+03  0.00000000000E+00 0.  1.
         21    1    1    2  504  501 -0.19068165310E+03  0.11547562342E+03  0.15330541482E+03  0.27054881749E+03  0.00000000000E+00 0.  1.
<mgrwt>
<rscale>  4 0.27881754E+03</rscale>
<asrwt>0</asrwt>
<pdfrwt beam="1">  1       21 0.18982897E+00 0.27881754E+03</pdfrwt>
<pdfrwt beam="2">  1       21 0.17720916E-01 0.27881754E+03</pdfrwt>
<totfact> 0.42246120E+03</totfact>
</mgrwt>
</event>
<event>
 5    0  0.3360538E+000  0.2426869E+03  0.7546771E-02  0.1118016E+00
         21   -1    0    0  502  501  0.00000000000E+00  0.00000000000E+00  0.10032342156E+03  0.10032342156E+03  0.00000000000E+00 0.  1.
         21   -1    0    0  503  502 -0.00000000000E+00 -0.00000000000E+00 -0.73101171793E+03  0.73101171793E+03  0.00000000000E+00 0.  1.
         25    1    1    2    0    0  0.12080490415E+03 -0.16934618252E+03 -0.10666893591E+03  0.26509473078E+03  0.12500000000E+03 0.  0.
         21    1    1    2  503  504 -0.24947695149E+02  0.85357254945E+01 -0.48674496816E+02  0.55357499431E+02  0.00000000000E+00 0.  1.
         21    1    1    2  504  501 -0.95857208996E+02  0.16081045703E+03 -0.47534486364E+03  0.51088290928E+03  0.00000000000E+00 0.  1.
<mgrwt>
<rscale>  4 0.24268695E+03</rscale>
<asrwt>0</asrwt>
<pdfrwt beam="1">  1       21 0.15434372E-01 0.24268695E+03</pdfrwt>
<pdfrwt beam="2">  1       21 0.11246334E+00 0.24268695E+03</pdfrwt>
<totfact> 0.22401081E+04</totfact>
</mgrwt>
</event>
<event>
 5    0  0.2159162E+000  0.5138969E+03  0.7546771E-02  0.1012756E+00
         21   -1    0    0  502  501  0.00000000000E+00  0.00000000000E+00  0.75609974868E+03  0.75609974868E+03  0.00000000000E+00 0.  1.
         21   -1    0    0  503  502 -0.00000000000E+00 -0.00000000000E+00 -0.10774133657E+04  0.10774133657E+04  0.00000000000E+00 0. -1.
         25    1    1    2    0    0  0.41936517320E+03  0.18529225314E+03  0.60793677105E+03  0.77162975912E+03  0.12500000000E+03 0.  0.
         21    1    1    2  503  504 -0.79682703845E+02 -0.15200056706E+03 -0.34221758163E+03  0.38283988671E+03  0.00000000000E+00 0. -1.
         21    1    1    2  504  501 -0.33968246936E+03 -0.33291686082E+02 -0.58703280643E+03  0.67904346855E+03  0.00000000000E+00 0. -1.
<mgrwt>
<rscale>  4 0.50393968E+03</rscale>
<asrwt>0</asrwt>
<pdfrwt beam="1">  1       21 0.11632304E+00 0.51389685E+03</pdfrwt>
<pdfrwt beam="2">  1       21 0.16575590E+00 0.51389685E+03</pdfrwt>
<totfact> 0.10110849E+02</totfact>
</mgrwt>
</event>
<event>
 5    0  0.2159162E+000  0.2448320E+03  0.7546771E-02  0.1116615E+00
         21   -1    0    0  502  501  0.00000000000E+00  0.00000000000E+00  0.33605127376E+03  0.33605127376E+03  0.00000000000E+00 0. -1.
         21   -1    0    0  503  502 -0.00000000000E+00 -0.00000000000E+00 -0.15906704696E+03  0.15906704696E+03  0.00000000000E+00 0. -1.
         25    1    1    2    0    0 -0.10571908897E+03 -0.18204715257E+03  0.13017083672E+03  0.27728530121E+03  0.12500000000E+03 0.  0.
         21    1    1    2  503  504  0.24459092292E+02  0.20817766470E+02  0.50105789270E+01  0.32507422194E+02  0.00000000000E+00 0. -1.
         21    1    1    2  504  501  0.81259996679E+02  0.16122938610E+03  0.41802811149E+02  0.18532559732E+03  0.00000000000E+00 0. -1.
<mgrwt>
<rscale>  4 0.24483197E+03</rscale>
<asrwt>0</asrwt>
<pdfrwt beam="1">  1       21 0.51700196E-01 0.24483197E+03</pdfrwt>
<pdfrwt beam="2">  1       21 0.24471853E-01 0.24483197E+03</pdfrwt>
<totfact> 0.54782627E+04</totfact>
</mgrwt>
</event>
<event>
 5    0  0.2159162E+000  0.3907393E+03  0.7546771E-02  0.1047374E+00
         21   -1    0    0  502  501  0.00000000000E+00  0.00000000000E+00  0.79450747165E+02  0.79450747165E+02  0.00000000000E+00 0.  1.
         21   -1    0    0  503  502 -0.00000000000E+00 -0.00000000000E+00 -0.23027661822E+04  0.23027661822E+04  0.00000000000E+00 0.  1.
         25    1    1    2    0    0 -0.11486974082E+03  0.34772652461E+03 -0.61096423804E+03  0.72319505905E+03  0.12500000000E+03 0.  0.
         21    1    1    2  503  504  0.55592210925E+02 -0.21555712985E+03 -0.12334241299E+04  0.12533516882E+04  0.00000000000E+00 0.  1.
         21    1    1    2  504  501  0.59277529899E+02 -0.13216939476E+03 -0.37892706712E+03  0.40567018212E+03  0.00000000000E+00 0.  1.
<mgrwt>
<rscale>  4 0.38978963E+03</rscale>
<asrwt>0</asrwt>
<pdfrwt beam="1">  1       21 0.12223192E-01 0.39073928E+03</pdfrwt>
<pdfrwt beam="2">  1       21 0.35427171E+00 0.39073928E+03</pdfrwt>
<totfact> 0.76823472E+02</totfact>
</mgrwt>
</event>
<event>
 5    0  0.2159162E+000  0.2773481E+03  0.7546771E-02  0.1097146E+00
         21   -1    0    0  502  501  0.00000000000E+00  0.00000000000E+00  0.10825926892E+04  0.10825926892E+04  0.00000000000E+00 0. -1.
         21   -1    0    0  503  502 -0.00000000000E+00 -0.00000000000E+00 -0.13344335673E+03  0.13344335673E+03  0.00000000000E+00 0. -1.
         25    1    1    2    0    0  0.24446517402E+03  0.39163394682E+02  0.91153175642E+03  0.95279175886E+03  0.12500000000E+03 0.  0.
         21    1    1    2  503  504 -0.20017708384E+03  0.15210423474E-01  0.18179385332E+02  0.20100088353E+03  0.00000000000E+00 0. -1.
         21    1    1    2  504  501 -0.44288090171E+02 -0.39178605105E+02  0.19438190739E+02  0.62243403572E+02  0.00000000000E+00 0. -1.
<mgrwt>
<rscale>  4 0.27734814E+03</rscale>
<asrwt>0</asrwt>
<pdfrwt beam="1">  1       21 0.16655272E+00 0.27734814E+03</pdfrwt>
<pdfrwt beam="2">  1       21 0.20529748E-01 0.27734814E+03</pdfrwt>
<totfact> 0.46592631E+03</totfact>
</mgrwt>
</event>
