<event>
 5    0  0.2159162E+000  0.2424642E+03  0.7546771E-02  0.1118162E+00
         21   -1    0    0  502  501  0.00000000000E+00  0.00000000000E+00  0.22390209835E+03  0.22390209835E+03  0.00000000000E+00 0. -1.
         21   -1    0    0  503  502 -0.00000000000E+00 -0.00000000000E+00 -0.25803792456E+03  0.25803792456E+03  0.00000000000E+00 0. -1.
         25    1    1    2    0    0  0.73773474187E+02 -0.19421988463E+03 -0.90937652148E+02  0.25895664822E+03  0.12500000000E+03 0.  0.
         21    1    1    2  503  504 -0.29715552578E+02  0.11179896788E+03  0.58241327728E+02  0.12951476958E+03  0.00000000000E+00 0. -1.
         21    1    1    2  504  501 -0.44057921609E+02  0.82420916749E+02 -0.14395017930E+01  0.93468605102E+02  0.00000000000E+00 0. -1.
<mgrwt>
<rscale>  4 0.24246420E+03</rscale>
<asrwt>0</asrwt>
<pdfrwt beam="1">  1       21 0.34446477E-01 0.24246420E+03</pdfrwt>
<pdfrwt beam="2">  1       21 0.39698142E-01 0.24246420E+03</pdfrwt>
<totfact> 0.48567186E+04</totfact>
</mgrwt>
</event>
<event>
 5    0  0.2159162E+000  0.2377062E+03  0.7546771E-02  0.1121330E+00
         21   -1    0    0  502  501  0.00000000000E+00  0.00000000000E+00  0.25795598972E+04  0.25795598972E+04  0.00000000000E+00 0.  1.
         21   -1    0    0  503  502 -0.00000000000E+00 -0.00000000000E+00 -0.28725943277E+02  0.28725943277E+02  0.00000000000E+00 0.  1.
         25    1    1    2    0    0  0.18271609995E+03 -0.95328892232E+02  0.62749973963E+03  0.67220063531E+03  0.12500000000E+03 0.  0.
         21    1    1    2  503  504 -0.17821183283E+03  0.75248091244E+02  0.15251109655E+04  0.15373305401E+04  0.00000000000E+00 0.  1.
         21    1    1    2  504  501 -0.45042671238E+01  0.20080800988E+02  0.39822324882E+03  0.39875466504E+03  0.00000000000E+00 0.  1.
<mgrwt>
<rscale>  4 0.23770617E+03</rscale>
<asrwt>0</asrwt>
<pdfrwt beam="1">  1       21 0.39685519E+00 0.23770617E+03</pdfrwt>
<pdfrwt beam="2">  1       21 0.44193779E-02 0.23770617E+03</pdfrwt>
<totfact> 0.28501170E+03</totfact>
</mgrwt>
</event>
<event>
 5    0  0.2159162E+000  0.3282128E+03  0.7546771E-02  0.1071930E+00
         21   -1    0    0  502  501  0.00000000000E+00  0.00000000000E+00  0.13398733717E+04  0.13398733717E+04  0.00000000000E+00 0.  1.
         21   -1    0    0  503  502 -0.00000000000E+00 -0.00000000000E+00 -0.10218093484E+03  0.10218093484E+03  0.00000000000E+00 0.  1.
         25    1    1    2    0    0 -0.67877218063E+02 -0.29578927427E+03  0.26470427342E+03  0.42165384366E+03  0.12500000000E+03 0.  0.
         21    1    1    2  503  504  0.15248572919E+02  0.19946141994E+02  0.11176236877E+03  0.11454778317E+03  0.00000000000E+00 0.  1.
         21    1    1    2  504  501  0.52628645144E+02  0.27584313228E+03  0.86122579471E+03  0.90585267974E+03  0.00000000000E+00 0.  1.
<mgrwt>
<rscale>  4 0.32821275E+03</rscale>
<asrwt>0</asrwt>
<pdfrwt beam="1">  1       21 0.20613435E+00 0.32821275E+03</pdfrwt>
<pdfrwt beam="2">  1       21 0.15720145E-01 0.32821275E+03</pdfrwt>
<totfact> 0.39988692E+03</totfact>
</mgrwt>
</event>
<event>
 5    0  0.2159162E+000  0.2481703E+03  0.7546771E-02  0.1114467E+00
         21   -1    0    0  502  501  0.00000000000E+00  0.00000000000E+00  0.92411456415E+02  0.92411456415E+02  0.00000000000E+00 0.  1.
         21   -1    0    0  503  502 -0.00000000000E+00 -0.00000000000E+00 -0.13321008274E+04  0.13321008274E+04  0.00000000000E+00 0. -1.
         25    1    1    2    0    0  0.39199161617E+01  0.21435517768E+03 -0.10610147713E+03  0.26990003963E+03  0.12500000000E+03 0.  0.
         21    1    1    2  503  504  0.23769046538E+00 -0.10307366936E+03 -0.66714734482E+03  0.67506282486E+03  0.00000000000E+00 0. -1.
         21    1    1    2  504  501 -0.41576066271E+01 -0.11128150832E+03 -0.46644054899E+03  0.47954941928E+03  0.00000000000E+00 0. -1.
<mgrwt>
<rscale>  4 0.24817032E+03</rscale>
<asrwt>0</asrwt>
<pdfrwt beam="1">  1       21 0.14217147E-01 0.24817032E+03</pdfrwt>
<pdfrwt beam="2">  1       21 0.20493859E+00 0.24817032E+03</pdfrwt>
<totfact> 0.51545740E+03</totfact>
</mgrwt>
</event>
<event>
 5    0  0.2159162E+000  0.2666485E+03  0.7546771E-02  0.1103213E+00
         21   -1    0    0  502  501  0.00000000000E+00  0.00000000000E+00  0.60667044138E+03  0.60667044138E+03  0.00000000000E+00 0.  1.
         21   -1    0    0  503  502 -0.00000000000E+00 -0.00000000000E+00 -0.35183862625E+03  0.35183862625E+03  0.00000000000E+00 0.  1.
         25    1    1    2    0    0 -0.24429786350E+03  0.74191477336E+02  0.44965117016E+03  0.53197461992E+03  0.12500000000E+03 0.  0.
         21    1    1    2  503  504  0.20958821655E+03 -0.10408122086E+03 -0.25811620418E+03  0.34840220423E+03  0.00000000000E+00 0.  1.
         21    1    1    2  504  501  0.34709646956E+02  0.29889743526E+02  0.63296849150E+02  0.78132243486E+02  0.00000000000E+00 0.  1.
<mgrwt>
<rscale>  4 0.26664851E+03</rscale>
<asrwt>0</asrwt>
<pdfrwt beam="1">  1       21 0.93333914E-01 0.26664851E+03</pdfrwt>
<pdfrwt beam="2">  1       21 0.54129020E-01 0.26664851E+03</pdfrwt>
<totfact> 0.29484109E+03</totfact>
</mgrwt>
</event>
<event>
 5    0  0.2159162E+000  0.2568161E+03  0.7546771E-02  0.1109071E+00
         21   -1    0    0  502  501  0.00000000000E+00  0.00000000000E+00  0.21355674302E+04  0.21355674302E+04  0.00000000000E+00 0. -1.
         21   -1    0    0  503  502 -0.00000000000E+00 -0.00000000000E+00 -0.12971775871E+03  0.12971775871E+03  0.00000000000E+00 0.  1.
         25    1    1    2    0    0  0.97217566769E+02 -0.20752483251E+03  0.19366800059E+04  0.19541935054E+04  0.12500000000E+03 0.  0.
         21    1    1    2  503  504 -0.17511108760E+02  0.65427775102E+02  0.12223219950E+03  0.13974313321E+03  0.00000000000E+00 0. -1.
         21    1    1    2  504  501 -0.79706458008E+02  0.14209705741E+03 -0.53062533910E+02  0.17134855027E+03  0.00000000000E+00 0.  1.
<mgrwt>
<rscale>  4 0.25681608E+03</rscale>
<asrwt>0</asrwt>
<pdfrwt beam="1">  1       21 0.32854881E+00 0.25681608E+03</pdfrwt>
<pdfrwt beam="2">  1       21 0.19956580E-01 0.25681608E+03</pdfrwt>
<totfact> 0.49803954E+02</totfact>
</mgrwt>
</event>
<event>
 5    0  0.2209331E+000  0.2475635E+03  0.7546771E-02  0.1114854E+00
         21   -1    0    0  502  501  0.00000000000E+00  0.00000000000E+00  0.11718194876E+04  0.11718194876E+04  0.00000000000E+00 0. -1.
         21   -1    0    0  503  502 -0.00000000000E+00 -0.00000000000E+00 -0.81641006400E+02  0.81641006400E+02  0.00000000000E+00 0. -1.
         25    1    1    2    0    0  0.21365585045E+03 -0.37241264668E+01  0.96929011018E+03  0.10004054224E+04  0.12500000000E+03 0.  0.
         21    1    1    2  503  504 -0.16565451170E+03 -0.18184204699E+02  0.10849400766E+03  0.19885429904E+03  0.00000000000E+00 0. -1.
         21    1    1    2  504  501 -0.48001338744E+02  0.21908331166E+02  0.12394363318E+02  0.54200772483E+02  0.00000000000E+00 0. -1.
<mgrwt>
<rscale>  4 0.24756351E+03</rscale>
<asrwt>0</asrwt>
<pdfrwt beam="1">  1       21 0.18027991E+00 0.24756351E+03</pdfrwt>
<pdfrwt beam="2">  1       21 0.12560156E-01 0.24756351E+03</pdfrwt>
<totfact> 0.94088572E+03</totfact>
</mgrwt>
</event>
<event>
 5    0  0.2159162E+000  0.5518915E+03  0.7546771E-02  0.1001057E+00
         21   -1    0    0  502  501  0.00000000000E+00  0.00000000000E+00  0.47781430646E+03  0.47781430646E+03  0.00000000000E+00 0. -1.
         21   -1    0    0  503  502 -0.00000000000E+00 -0.00000000000E+00 -0.10493972875E+04  0.10493972875E+04  0.00000000000E+00 0.  1.
         25    1    1    2    0    0  0.51860714537E+03  0.14144207431E+03  0.19473682468E+03  0.58524068766E+03  0.12500000000E+03 0.  0.
         21    1    1    2  503  504 -0.26540837395E+02  0.63893556310E+01 -0.80746266229E+02  0.85236139196E+02  0.00000000000E+00 0.  1.
         21    1    1    2  504  501 -0.49206630797E+03 -0.14783142994E+03 -0.68557353950E+03  0.85673476711E+03  0.00000000000E+00 0.  1.
<mgrwt>
<rscale>  4 0.55189150E+03</rscale>
<asrwt>0</asrwt>
<pdfrwt beam="1">  1       21 0.73509894E-01 0.55189150E+03</pdfrwt>
<pdfrwt beam="2">  1       21 0.16144573E+00 0.55189150E+03</pdfrwt>
<totfact> 0.32197469E+02</totfact>
</mgrwt>
</event>
<event>
 5    0  0.2159162E+000  0.4041720E+03  0.7546771E-02  0.1042345E+00
         21   -1    0    0  502  501  0.00000000000E+00  0.00000000000E+00  0.54213789184E+03  0.54213789184E+03  0.00000000000E+00 0. -1.
         21   -1    0    0  503  502 -0.00000000000E+00 -0.00000000000E+00 -0.38401955910E+03  0.38401955910E+03  0.00000000000E+00 0. -1.
         25    1    1    2    0    0  0.14900925404E+03  0.35429679708E+03  0.30653774273E+03  0.50726754867E+03  0.12500000000E+03 0.  0.
         21    1    1    2  503  504 -0.96868451031E+02 -0.30439263090E+03 -0.12482347914E+03  0.34295666125E+03  0.00000000000E+00 0. -1.
         21    1    1    2  504  501 -0.52140803006E+02 -0.49904166185E+02 -0.23595930848E+02  0.75933241030E+02  0.00000000000E+00 0. -1.
<mgrwt>
<rscale>  4 0.40417197E+03</rscale>
<asrwt>0</asrwt>
<pdfrwt beam="1">  1       21 0.83405830E-01 0.40417197E+03</pdfrwt>
<pdfrwt beam="2">  1       21 0.59079932E-01 0.40417197E+03</pdfrwt>
<totfact> 0.29666011E+03</totfact>
</mgrwt>
</event>
