<event>
 5    0  0.2720079E+000  0.4279696E+03  0.7546771E-02  0.1034503E+00
         21   -1    0    0  504  501  0.00000000000E+00  0.00000000000E+00  0.25275664952E+03  0.25275664952E+03  0.00000000000E+00 0. -1.
         21   -1    0    0  503  502 -0.00000000000E+00 -0.00000000000E+00 -0.49606092913E+03  0.49606092913E+03  0.00000000000E+00 0. -1.
         25    1    1    2    0    0  0.16495352112E+03  0.20873521184E+03 -0.18865950994E+03  0.34928135289E+03  0.12500000000E+03 0.  0.
         21    1    1    2  503  501 -0.12932283842E+03 -0.13951678400E+02 -0.13350631223E+03  0.18639469218E+03  0.00000000000E+00 0.  1.
         21    1    1    2  504  502 -0.35630682699E+02 -0.19478353344E+03  0.78861542553E+02  0.21314153359E+03  0.00000000000E+00 0. -1.
<mgrwt>
<rscale>  4 0.42796963E+03</rscale>
<asrwt>0</asrwt>
<pdfrwt beam="1">  1       21 0.38885639E-01 0.42796963E+03</pdfrwt>
<pdfrwt beam="2">  1       21 0.76317065E-01 0.42796963E+03</pdfrwt>
<totfact> 0.87320297E+03</totfact>
</mgrwt>
</event>
<event>
 5    0  0.2720079E+000  0.4228633E+03  0.7546771E-02  0.1036138E+00
         21   -1    0    0  502  501  0.00000000000E+00  0.00000000000E+00  0.93439788334E+02  0.93439788334E+02  0.00000000000E+00 0.  1.
         21   -1    0    0  503  502 -0.00000000000E+00 -0.00000000000E+00 -0.79626362741E+03  0.79626362741E+03  0.00000000000E+00 0.  1.
         25    1    1    2    0    0  0.11064671091E+03  0.16906972216E+03 -0.33733122822E+03  0.41260710503E+03  0.12500000000E+03 0.  0.
         21    1    1    2  503  504 -0.11327274412E+03 -0.13662546973E+03 -0.39507811909E+03  0.43310963245E+03  0.00000000000E+00 0.  1.
         21    1    1    2  504  501  0.26260332062E+01 -0.32444252435E+02  0.29585508240E+02  0.43986678260E+02  0.00000000000E+00 0.  1.
<mgrwt>
<rscale>  4 0.42286327E+03</rscale>
<asrwt>0</asrwt>
<pdfrwt beam="1">  1       21 0.14375353E-01 0.42286327E+03</pdfrwt>
<pdfrwt beam="2">  1       21 0.12250209E+00 0.42286327E+03</pdfrwt>
<totfact> 0.19240454E+04</totfact>
</mgrwt>
</event>
<event>
 5    0  0.2720079E+000  0.6083825E+03  0.7546771E-02  0.9888166E-01
         21   -1    0    0  503  501  0.00000000000E+00  0.00000000000E+00  0.70778525860E+03  0.70778525860E+03  0.00000000000E+00 0.  1.
         21   -1    0    0  504  502 -0.00000000000E+00 -0.00000000000E+00 -0.18219278896E+03  0.18219278896E+03  0.00000000000E+00 0. -1.
         25    1    1    2    0    0  0.17467187867E+03 -0.22415496468E+03  0.33999609099E+02  0.31230864030E+03  0.12500000000E+03 0.  0.
         21    1    1    2  503  502 -0.27607056383E+02  0.42496575183E+02  0.18694951674E+03  0.19369623196E+03  0.00000000000E+00 0.  1.
         21    1    1    2  504  501 -0.14706482229E+03  0.18165838949E+03  0.30464334380E+03  0.38397317530E+03  0.00000000000E+00 0.  1.
<mgrwt>
<rscale>  4 0.60838254E+03</rscale>
<asrwt>0</asrwt>
<pdfrwt beam="1">  1       21 0.10889004E+00 0.60838254E+03</pdfrwt>
<pdfrwt beam="2">  1       21 0.28029660E-01 0.60838254E+03</pdfrwt>
<totfact> 0.68856782E+03</totfact>
</mgrwt>
</event>
<event>
 5    0  0.2720079E+000  0.6333835E+03  0.7546771E-02  0.9838468E-01
         21   -1    0    0  503  501  0.00000000000E+00  0.00000000000E+00  0.13993737747E+04  0.13993737747E+04  0.00000000000E+00 0.  1.
         21   -1    0    0  504  502 -0.00000000000E+00 -0.00000000000E+00 -0.55802225986E+03  0.55802225986E+03  0.00000000000E+00 0. -1.
         25    1    1    2    0    0 -0.31397825722E+03 -0.34721316541E+02 -0.19755177472E+03  0.39298806537E+03  0.12500000000E+03 0.  0.
         21    1    1    2  503  502  0.25185315440E+02 -0.18160847693E+02  0.12193818764E+04  0.12197771424E+04  0.00000000000E+00 0.  1.
         21    1    1    2  504  501  0.28879294178E+03  0.52882164234E+02 -0.18047858683E+03  0.34463082686E+03  0.00000000000E+00 0.  1.
<mgrwt>
<rscale>  4 0.63338351E+03</rscale>
<asrwt>0</asrwt>
<pdfrwt beam="1">  1       21 0.21528827E+00 0.63338351E+03</pdfrwt>
<pdfrwt beam="2">  1       21 0.85849579E-01 0.63338351E+03</pdfrwt>
<totfact> 0.91444142E+01</totfact>
</mgrwt>
</event>
<event>
 5    0  0.2720079E+000  0.4603588E+03  0.7546771E-02  0.1024677E+00
         21   -1    0    0  503  501  0.00000000000E+00  0.00000000000E+00  0.27262750332E+03  0.27262750332E+03  0.00000000000E+00 0. -1.
         21   -1    0    0  504  502 -0.00000000000E+00 -0.00000000000E+00 -0.21327275607E+03  0.21327275607E+03  0.00000000000E+00 0. -1.
         25    1    1    2    0    0  0.11276862571E+03  0.16602128150E+03  0.64775491681E+02  0.24515442720E+03  0.12500000000E+03 0.  0.
         21    1    1    2  503  502 -0.11242795644E+03 -0.18780045428E+03 -0.58549343350E+01  0.21895966814E+03  0.00000000000E+00 0. -1.
         21    1    1    2  504  501 -0.34066927595E+00  0.21779172785E+02  0.43418990902E+00  0.21786164041E+02  0.00000000000E+00 0.  1.
<mgrwt>
<rscale>  4 0.46035884E+03</rscale>
<asrwt>0</asrwt>
<pdfrwt beam="1">  1       21 0.41942693E-01 0.46035884E+03</pdfrwt>
<pdfrwt beam="2">  1       21 0.32811193E-01 0.46035884E+03</pdfrwt>
<totfact> 0.44866023E+04</totfact>
</mgrwt>
</event>
<event>
 5    0  0.2720079E+000  0.5942399E+03  0.7546771E-02  0.9917429E-01
         21   -1    0    0  502  501  0.00000000000E+00  0.00000000000E+00  0.38159990168E+03  0.38159990168E+03  0.00000000000E+00 0. -1.
         21   -1    0    0  504  502 -0.00000000000E+00 -0.00000000000E+00 -0.54067964030E+03  0.54067964030E+03  0.00000000000E+00 0. -1.
         25    1    1    2    0    0 -0.12964819704E+03  0.19831244601E+03 -0.51792093311E+02  0.27284409865E+03  0.12500000000E+03 0.  0.
         21    1    1    2  503  501  0.34342187529E+01  0.56244574707E+02  0.21355777692E+03  0.22086686063E+03  0.00000000000E+00 0. -1.
         21    1    1    2  504  503  0.12621397829E+03 -0.25455702072E+03 -0.32084542223E+03  0.42856858270E+03  0.00000000000E+00 0. -1.
<mgrwt>
<rscale>  4 0.59423988E+03</rscale>
<asrwt>0</asrwt>
<pdfrwt beam="1">  1       21 0.58707678E-01 0.59423988E+03</pdfrwt>
<pdfrwt beam="2">  1       21 0.83181483E-01 0.59423988E+03</pdfrwt>
<totfact> 0.28467633E+03</totfact>
</mgrwt>
</event>
<event>
 5    0  0.2720079E+000  0.3571152E+03  0.7546771E-02  0.1059732E+00
         21   -1    0    0  502  501  0.00000000000E+00  0.00000000000E+00  0.41674026848E+03  0.41674026848E+03  0.00000000000E+00 0. -1.
         21   -1    0    0  503  502 -0.00000000000E+00 -0.00000000000E+00 -0.21987236155E+04  0.21987236155E+04  0.00000000000E+00 0.  1.
         25    1    1    2    0    0  0.22399431023E+03 -0.84531812195E+02 -0.20344777015E+04  0.20523263864E+04  0.12500000000E+03 0.  0.
         21    1    1    2  503  504 -0.43247136190E+02  0.34409542195E+02 -0.12772549228E+03  0.13916943903E+03  0.00000000000E+00 0. -1.
         21    1    1    2  504  501 -0.18074717404E+03  0.50122270000E+02  0.38021984672E+03  0.42396805860E+03  0.00000000000E+00 0. -1.
<mgrwt>
<rscale>  4 0.35711525E+03</rscale>
<asrwt>0</asrwt>
<pdfrwt beam="1">  1       21 0.64113887E-01 0.35711525E+03</pdfrwt>
<pdfrwt beam="2">  1       21 0.33826517E+00 0.35711525E+03</pdfrwt>
<totfact> 0.37152924E+01</totfact>
</mgrwt>
</event>
<event>
 5    0  0.2720079E+000  0.4440830E+03  0.7546771E-02  0.1029501E+00
         21   -1    0    0  504  501  0.00000000000E+00  0.00000000000E+00  0.20684704205E+03  0.20684704205E+03  0.00000000000E+00 0.  1.
         21   -1    0    0  503  502 -0.00000000000E+00 -0.00000000000E+00 -0.14201785544E+04  0.14201785544E+04  0.00000000000E+00 0.  1.
         25    1    1    2    0    0  0.27511517661E+03  0.11689334010E+03 -0.12097259368E+04  0.12523634678E+04  0.12500000000E+03 0.  0.
         21    1    1    2  503  501 -0.83163515374E+02  0.54133408790E+01 -0.97662417902E+02  0.12838778143E+03  0.00000000000E+00 0. -1.
         21    1    1    2  504  502 -0.19195166124E+03 -0.12230668098E+03  0.94056842402E+02  0.24627434716E+03  0.00000000000E+00 0.  1.
<mgrwt>
<rscale>  4 0.44408299E+03</rscale>
<asrwt>0</asrwt>
<pdfrwt beam="1">  1       21 0.31822622E-01 0.44408299E+03</pdfrwt>
<pdfrwt beam="2">  1       21 0.21848901E+00 0.44408299E+03</pdfrwt>
<totfact> 0.80885806E+02</totfact>
</mgrwt>
</event>
<event>
 5    0  0.2720079E+000  0.4871024E+03  0.7546771E-02  0.1017201E+00
         21   -1    0    0  502  501  0.00000000000E+00  0.00000000000E+00  0.55208335273E+03  0.55208335273E+03  0.00000000000E+00 0. -1.
         21   -1    0    0  504  502 -0.00000000000E+00 -0.00000000000E+00 -0.94275916242E+03  0.94275916242E+03  0.00000000000E+00 0. -1.
         25    1    1    2    0    0  0.12358932710E+03 -0.20505269526E+03 -0.35734415614E+03  0.44792943142E+03  0.12500000000E+03 0.  0.
         21    1    1    2  503  501  0.28557210696E+02  0.81711773982E+02  0.48507676100E+03  0.49273907126E+03  0.00000000000E+00 0. -1.
         21    1    1    2  504  503 -0.15214653780E+03  0.12334092128E+03 -0.51840841455E+03  0.55417401247E+03  0.00000000000E+00 0. -1.
<mgrwt>
<rscale>  4 0.48710240E+03</rscale>
<asrwt>0</asrwt>
<pdfrwt beam="1">  1       21 0.84935902E-01 0.48710240E+03</pdfrwt>
<pdfrwt beam="2">  1       21 0.14503987E+00 0.48710240E+03</pdfrwt>
<totfact> 0.31802371E+02</totfact>
</mgrwt>
</event>
<event>
 5    0  0.2720079E+000  0.4547527E+03  0.7546771E-02  0.1026314E+00
         21   -1    0    0  503  501  0.00000000000E+00  0.00000000000E+00  0.85238555249E+03  0.85238555249E+03  0.00000000000E+00 0. -1.
         21   -1    0    0  504  502 -0.00000000000E+00 -0.00000000000E+00 -0.82168491938E+02  0.82168491938E+02  0.00000000000E+00 0. -1.
         25    1    1    2    0    0 -0.71354106694E+02 -0.19539425325E+03  0.25299823176E+03  0.35057585202E+03  0.12500000000E+03 0.  0.
         21    1    1    2  503  502  0.68498291652E+02 -0.59604308311E+01  0.15449336800E+03  0.16910276003E+03  0.00000000000E+00 0. -1.
         21    1    1    2  504  501  0.28558150420E+01  0.20135468408E+03  0.36272546079E+03  0.41487543238E+03  0.00000000000E+00 0. -1.
<mgrwt>
<rscale>  4 0.45475268E+03</rscale>
<asrwt>0</asrwt>
<pdfrwt beam="1">  1       21 0.13113623E+00 0.45475268E+03</pdfrwt>
<pdfrwt beam="2">  1       21 0.12641307E-01 0.45475268E+03</pdfrwt>
<totfact> 0.20259219E+04</totfact>
</mgrwt>
</event>
<event>
 5    0  0.2720079E+000  0.1246843E+04  0.7546771E-02  0.9072815E-01
         21   -1    0    0  504  501  0.00000000000E+00  0.00000000000E+00  0.12317842631E+04  0.12317842631E+04  0.00000000000E+00 0.  1.
         21   -1    0    0  501  502 -0.00000000000E+00 -0.00000000000E+00 -0.41335875057E+03  0.41335875057E+03  0.00000000000E+00 0.  1.
         25    1    1    2    0    0 -0.61297426375E+03 -0.57713963390E+01  0.19809743046E+03  0.65623040846E+03  0.12500000000E+03 0.  0.
         21    1    1    2  503  502  0.61422859980E+03  0.27972988031E+02  0.33017266368E+03  0.69790633234E+03  0.00000000000E+00 0.  1.
         21    1    1    2  504  503 -0.12543360507E+01 -0.22201591692E+02  0.29015541837E+03  0.29100627286E+03  0.00000000000E+00 0.  1.
<mgrwt>
<rscale>  4 0.12468428E+04</rscale>
<asrwt>0</asrwt>
<pdfrwt beam="1">  1       21 0.18950527E+00 0.12468428E+04</pdfrwt>
<pdfrwt beam="2">  1       21 0.63593654E-01 0.12468428E+04</pdfrwt>
<totfact> 0.23417477E+02</totfact>
</mgrwt>
</event>
<event>
 5    0  0.2720079E+000  0.6331912E+03  0.7546771E-02  0.9838841E-01
         21   -1    0    0  503  501  0.00000000000E+00  0.00000000000E+00  0.21265696943E+03  0.21265696943E+03  0.00000000000E+00 0. -1.
         21   -1    0    0  504  502 -0.00000000000E+00 -0.00000000000E+00 -0.65428396447E+03  0.65428396447E+03  0.00000000000E+00 0.  1.
         25    1    1    2    0    0  0.19008344584E+03  0.11783883568E+03 -0.55057914398E+03  0.60727267464E+03  0.12500000000E+03 0.  0.
         21    1    1    2  503  502 -0.16382221897E+03 -0.68865351640E+02  0.66519440051E+02  0.18974981420E+03  0.00000000000E+00 0. -1.
         21    1    1    2  504  501 -0.26261226862E+02 -0.48973484044E+02  0.42432708882E+02  0.69918445055E+02  0.00000000000E+00 0. -1.
<mgrwt>
<rscale>  4 0.63319116E+03</rscale>
<asrwt>0</asrwt>
<pdfrwt beam="1">  1       21 0.32716457E-01 0.63319116E+03</pdfrwt>
<pdfrwt beam="2">  1       21 0.10065907E+00 0.63319116E+03</pdfrwt>
<totfact> 0.61054067E+03</totfact>
</mgrwt>
</event>
<event>
 5    0  0.2720079E+000  0.5433008E+03  0.7546771E-02  0.1003057E+00
         21   -1    0    0  503  501  0.00000000000E+00  0.00000000000E+00  0.11102540173E+03  0.11102540173E+03  0.00000000000E+00 0. -1.
         21   -1    0    0  504  502 -0.00000000000E+00 -0.00000000000E+00 -0.74150621876E+03  0.74150621876E+03  0.00000000000E+00 0. -1.
         25    1    1    2    0    0  0.22196045680E+03  0.42179375375E+02 -0.16945856765E+03  0.30884745464E+03  0.12500000000E+03 0.  0.
         21    1    1    2  503  502  0.24096978799E+02 -0.12320984843E+01 -0.61386623891E+01  0.24897100832E+02  0.00000000000E+00 0. -1.
         21    1    1    2  504  501 -0.24605743560E+03 -0.40947276891E+02 -0.45488358700E+03  0.51878706501E+03  0.00000000000E+00 0. -1.
<mgrwt>
<rscale>  4 0.54330081E+03</rscale>
<asrwt>0</asrwt>
<pdfrwt beam="1">  1       21 0.17080832E-01 0.54330081E+03</pdfrwt>
<pdfrwt beam="2">  1       21 0.11407788E+00 0.54330081E+03</pdfrwt>
<totfact> 0.16188104E+04</totfact>
</mgrwt>
</event>
<event>
 5    0  0.2720079E+000  0.1262266E+04  0.7546771E-02  0.9060036E-01
         21   -1    0    0  502  501  0.00000000000E+00  0.00000000000E+00  0.71341715287E+03  0.71341715287E+03  0.00000000000E+00 0. -1.
         21   -1    0    0  503  502 -0.00000000000E+00 -0.00000000000E+00 -0.61330541087E+03  0.61330541087E+03  0.00000000000E+00 0. -1.
         25    1    1    2    0    0 -0.25068233536E+03  0.20082042414E+03  0.55672968738E+03  0.65478501879E+03  0.12500000000E+03 0.  0.
         21    1    1    2  503  504  0.26320091273E+03 -0.18323460496E+03 -0.51667768198E+03  0.60811632766E+03  0.00000000000E+00 0. -1.
         21    1    1    2  504  501 -0.12518577365E+02 -0.17585819184E+02  0.60059736600E+02  0.63821217288E+02  0.00000000000E+00 0. -1.
<mgrwt>
<rscale>  4 0.12622661E+04</rscale>
<asrwt>0</asrwt>
<pdfrwt beam="1">  1       21 0.10975649E+00 0.12622661E+04</pdfrwt>
<pdfrwt beam="2">  1       21 0.94354679E-01 0.12622661E+04</pdfrwt>
<totfact> 0.42301259E+02</totfact>
</mgrwt>
</event>
<event>
 5    0  0.2720079E+000  0.4575834E+03  0.7546771E-02  0.1025484E+00
         21   -1    0    0  503  501  0.00000000000E+00  0.00000000000E+00  0.32469160681E+03  0.32469160681E+03  0.00000000000E+00 0.  1.
         21   -1    0    0  504  502 -0.00000000000E+00 -0.00000000000E+00 -0.23633203203E+03  0.23633203203E+03  0.00000000000E+00 0.  1.
         25    1    1    2    0    0 -0.20370838833E+03 -0.61977161160E+02  0.63894757910E+02  0.25504081255E+03  0.12500000000E+03 0.  0.
         21    1    1    2  503  502  0.16121849770E+02  0.34751829772E+02  0.96015753788E+02  0.10337615145E+03  0.00000000000E+00 0.  1.
         21    1    1    2  504  501  0.18758653856E+03  0.27225331388E+02 -0.71550936914E+02  0.20260667484E+03  0.00000000000E+00 0.  1.
<mgrwt>
<rscale>  4 0.45758344E+03</rscale>
<asrwt>0</asrwt>
<pdfrwt beam="1">  1       21 0.49952555E-01 0.45758344E+03</pdfrwt>
<pdfrwt beam="2">  1       21 0.36358774E-01 0.45758344E+03</pdfrwt>
<totfact> 0.25269604E+04</totfact>
</mgrwt>
</event>
<event>
 5    0  0.2720079E+000  0.4832361E+03  0.7546771E-02  0.1018250E+00
         21   -1    0    0  504  501  0.00000000000E+00  0.00000000000E+00  0.21433682231E+04  0.21433682231E+04  0.00000000000E+00 0.  1.
         21   -1    0    0  501  502 -0.00000000000E+00 -0.00000000000E+00 -0.63689815614E+02  0.63689815614E+02  0.00000000000E+00 0.  1.
         25    1    1    2    0    0 -0.19879240050E+03  0.14303318748E+03  0.80921885370E+03  0.85465610885E+03  0.12500000000E+03 0.  0.
         21    1    1    2  503  502  0.92493671816E+02 -0.10320580487E+03  0.87262272855E+02  0.16377185884E+03  0.00000000000E+00 0.  1.
         21    1    1    2  504  503  0.10629872868E+03 -0.39827382610E+02  0.11831972809E+04  0.11886300710E+04  0.00000000000E+00 0.  1.
<mgrwt>
<rscale>  4 0.48323609E+03</rscale>
<asrwt>0</asrwt>
<pdfrwt beam="1">  1       21 0.32974890E+00 0.48323609E+03</pdfrwt>
<pdfrwt beam="2">  1       21 0.97984348E-02 0.48323609E+03</pdfrwt>
<totfact> 0.15312534E+03</totfact>
</mgrwt>
</event>
<event>
 5    0  0.2720079E+000  0.4968224E+03  0.7546771E-02  0.1014612E+00
         21   -1    0    0  503  501  0.00000000000E+00  0.00000000000E+00  0.11860310357E+04  0.11860310357E+04  0.00000000000E+00 0.  1.
         21   -1    0    0  504  502 -0.00000000000E+00 -0.00000000000E+00 -0.79374391405E+02  0.79374391405E+02  0.00000000000E+00 0. -1.
         25    1    1    2    0    0 -0.20847066767E+03  0.33300196984E+02  0.17293831171E+03  0.30016925568E+03  0.12500000000E+03 0.  0.
         21    1    1    2  503  502  0.33036198085E+02  0.12479144382E+02  0.40012993001E+03  0.40168530010E+03  0.00000000000E+00 0.  1.
         21    1    1    2  504  501  0.17543446958E+03 -0.45779341367E+02  0.53358840259E+03  0.56355087135E+03  0.00000000000E+00 0.  1.
<mgrwt>
<rscale>  4 0.49682236E+03</rscale>
<asrwt>0</asrwt>
<pdfrwt beam="1">  1       21 0.18246630E+00 0.49682236E+03</pdfrwt>
<pdfrwt beam="2">  1       21 0.12211446E-01 0.49682236E+03</pdfrwt>
<totfact> 0.85609989E+03</totfact>
</mgrwt>
</event>
<event>
 5    0  0.2720079E+000  0.1243814E+04  0.7546771E-02  0.9075347E-01
         21   -1    0    0  504  501  0.00000000000E+00  0.00000000000E+00  0.64802352466E+03  0.64802352466E+03  0.00000000000E+00 0.  1.
         21   -1    0    0  501  502 -0.00000000000E+00 -0.00000000000E+00 -0.11081180316E+04  0.11081180316E+04  0.00000000000E+00 0. -1.
         25    1    1    2    0    0  0.28624157472E+03 -0.22815701359E+03  0.19740597077E+03  0.43426256947E+03  0.12500000000E+03 0.  0.
         21    1    1    2  503  502 -0.30269260103E+03  0.20174528740E+03 -0.95542646477E+03  0.10223324808E+04  0.00000000000E+00 0. -1.
         21    1    1    2  504  503  0.16451026313E+02  0.26411726198E+02  0.29792598701E+03  0.29954650605E+03  0.00000000000E+00 0.  1.
<mgrwt>
<rscale>  4 0.12438143E+04</rscale>
<asrwt>0</asrwt>
<pdfrwt beam="1">  1       21 0.99695928E-01 0.12438143E+04</pdfrwt>
<pdfrwt beam="2">  1       21 0.17047969E+00 0.12438143E+04</pdfrwt>
<totfact> 0.11141617E+02</totfact>
</mgrwt>
</event>
<event>
 5    0  0.2720079E+000  0.4830561E+03  0.7546771E-02  0.1018299E+00
         21   -1    0    0  503  501  0.00000000000E+00  0.00000000000E+00  0.16840307250E+03  0.16840307250E+03  0.00000000000E+00 0.  1.
         21   -1    0    0  504  502 -0.00000000000E+00 -0.00000000000E+00 -0.52815433146E+03  0.52815433146E+03  0.00000000000E+00 0.  1.
         25    1    1    2    0    0 -0.12686475768E+03  0.18997671636E+03 -0.15197862312E+03  0.30151006847E+03  0.12500000000E+03 0.  0.
         21    1    1    2  503  502 -0.65701666389E+01 -0.29789638992E+02  0.53017108718E+02  0.61167013151E+02  0.00000000000E+00 0.  1.
         21    1    1    2  504  501  0.13343492432E+03 -0.16018707737E+03 -0.26078974455E+03  0.33388032234E+03  0.00000000000E+00 0.  1.
<mgrwt>
<rscale>  4 0.48305613E+03</rscale>
<asrwt>0</asrwt>
<pdfrwt beam="1">  1       21 0.25908165E-01 0.48305613E+03</pdfrwt>
<pdfrwt beam="2">  1       21 0.81254514E-01 0.48305613E+03</pdfrwt>
<totfact> 0.16769564E+04</totfact>
</mgrwt>
</event>
<event>
 5    0  0.2720079E+000  0.4737670E+03  0.7546771E-02  0.1020862E+00
         21   -1    0    0  502  501  0.00000000000E+00  0.00000000000E+00  0.35030031342E+03  0.35030031342E+03  0.00000000000E+00 0. -1.
         21   -1    0    0  503  502 -0.00000000000E+00 -0.00000000000E+00 -0.19814281994E+03  0.19814281994E+03  0.00000000000E+00 0. -1.
         25    1    1    2    0    0 -0.94559620747E+02 -0.19361263490E+03  0.83046820569E+02  0.26258169905E+03  0.12500000000E+03 0.  0.
         21    1    1    2  503  504  0.11989509072E+03  0.18431067707E+03  0.91031626936E+01  0.22006391352E+03  0.00000000000E+00 0. -1.
         21    1    1    2  504  501 -0.25335469975E+02  0.93019578308E+01  0.60007510223E+02  0.65797520785E+02  0.00000000000E+00 0. -1.
<mgrwt>
<rscale>  4 0.47376700E+03</rscale>
<asrwt>0</asrwt>
<pdfrwt beam="1">  1       21 0.53892356E-01 0.47376700E+03</pdfrwt>
<pdfrwt beam="2">  1       21 0.30483511E-01 0.47376700E+03</pdfrwt>
<totfact> 0.30510058E+04</totfact>
</mgrwt>
</event>
<event>
 5    0  0.2720079E+000  0.4916405E+03  0.7546771E-02  0.1015984E+00
         21   -1    0    0  503  501  0.00000000000E+00  0.00000000000E+00  0.31604925086E+03  0.31604925086E+03  0.00000000000E+00 0. -1.
         21   -1    0    0  504  502 -0.00000000000E+00 -0.00000000000E+00 -0.43245748583E+03  0.43245748583E+03  0.00000000000E+00 0. -1.
         25    1    1    2    0    0  0.21076096229E+03 -0.53163760230E+01 -0.19077033158E+03  0.31059099551E+03  0.12500000000E+03 0.  0.
         21    1    1    2  503  502 -0.92804330185E+02 -0.17975633959E+03  0.82072056997E+02  0.21831355401E+03  0.00000000000E+00 0. -1.
         21    1    1    2  504  501 -0.11795663211E+03  0.18507271561E+03 -0.77099603841E+01  0.21960218717E+03  0.00000000000E+00 0. -1.
<mgrwt>
<rscale>  4 0.49164050E+03</rscale>
<asrwt>0</asrwt>
<pdfrwt beam="1">  1       21 0.48622962E-01 0.49164050E+03</pdfrwt>
<pdfrwt beam="2">  1       21 0.66531921E-01 0.49164050E+03</pdfrwt>
<totfact> 0.73301810E+03</totfact>
</mgrwt>
</event>
<event>
 5    0  0.2720079E+000  0.3579159E+03  0.7546771E-02  0.1059412E+00
         21   -1    0    0  502  501  0.00000000000E+00  0.00000000000E+00  0.18930616577E+03  0.18930616577E+03  0.00000000000E+00 0. -1.
         21   -1    0    0  504  502 -0.00000000000E+00 -0.00000000000E+00 -0.44262919660E+03  0.44262919660E+03  0.00000000000E+00 0. -1.
         25    1    1    2    0    0 -0.25748549777E+03  0.52076838422E+01 -0.17474709896E+03  0.33539148786E+03  0.12500000000E+03 0.  0.
         21    1    1    2  503  501  0.22009577011E+03  0.16748262087E+02 -0.10638627966E+03  0.24503202403E+03  0.00000000000E+00 0. -1.
         21    1    1    2  504  503  0.37389727667E+02 -0.21955945929E+02  0.27810347785E+02  0.51511850487E+02  0.00000000000E+00 0.  1.
<mgrwt>
<rscale>  4 0.35791589E+03</rscale>
<asrwt>0</asrwt>
<pdfrwt beam="1">  1       21 0.29124025E-01 0.35791589E+03</pdfrwt>
<pdfrwt beam="2">  1       21 0.68096800E-01 0.35791589E+03</pdfrwt>
<totfact> 0.20647292E+04</totfact>
</mgrwt>
</event>
<event>
 5    0  0.2720079E+000  0.5528763E+03  0.7546771E-02  0.1000830E+00
         21   -1    0    0  503  501  0.00000000000E+00  0.00000000000E+00  0.17331262388E+03  0.17331262388E+03  0.00000000000E+00 0. -1.
         21   -1    0    0  504  502 -0.00000000000E+00 -0.00000000000E+00 -0.15141336248E+04  0.15141336248E+04  0.00000000000E+00 0. -1.
         25    1    1    2    0    0  0.19521463965E+03 -0.65154620215E+02 -0.11092781217E+04  0.11351109335E+04  0.12500000000E+03 0.  0.
         21    1    1    2  503  502 -0.24030975911E+03  0.12291744669E+02 -0.34420294854E+03  0.41997087649E+03  0.00000000000E+00 0.  1.
         21    1    1    2  504  501  0.45095119460E+02  0.52862875546E+02  0.11266006933E+03  0.13236443869E+03  0.00000000000E+00 0. -1.
<mgrwt>
<rscale>  4 0.55287631E+03</rscale>
<asrwt>0</asrwt>
<pdfrwt beam="1">  1       21 0.26663480E-01 0.55287631E+03</pdfrwt>
<pdfrwt beam="2">  1       21 0.23294364E+00 0.55287631E+03</pdfrwt>
<totfact> 0.88654245E+02</totfact>
</mgrwt>
</event>
<event>
 5    0  0.2720079E+000  0.4053486E+03  0.7546771E-02  0.1041943E+00
         21   -1    0    0  503  501  0.00000000000E+00  0.00000000000E+00  0.18308814339E+04  0.18308814339E+04  0.00000000000E+00 0.  1.
         21   -1    0    0  504  502 -0.00000000000E+00 -0.00000000000E+00 -0.15770395273E+03  0.15770395273E+03  0.00000000000E+00 0.  1.
         25    1    1    2    0    0 -0.43218312954E+02  0.25875750712E+03  0.44006099009E+02  0.29391292387E+03  0.12500000000E+03 0.  0.
         21    1    1    2  503  502 -0.77123475992E+01 -0.16586440286E+03  0.15585096823E+04  0.15673298665E+04  0.00000000000E+00 0.  1.
         21    1    1    2  504  501  0.50930660553E+02 -0.92893104261E+02  0.70661699821E+02  0.12734259627E+03  0.00000000000E+00 0. -1.
<mgrwt>
<rscale>  4 0.40534863E+03</rscale>
<asrwt>0</asrwt>
<pdfrwt beam="1">  1       21 0.28167405E+00 0.40534863E+03</pdfrwt>
<pdfrwt beam="2">  1       21 0.24262148E-01 0.40534863E+03</pdfrwt>
<totfact> 0.57569318E+02</totfact>
</mgrwt>
</event>
<event>
 5    0  0.2720079E+000  0.5589397E+03  0.7546771E-02  0.9994457E-01
         21   -1    0    0  503  501  0.00000000000E+00  0.00000000000E+00  0.54575391109E+03  0.54575391109E+03  0.00000000000E+00 0. -1.
         21   -1    0    0  504  502 -0.00000000000E+00 -0.00000000000E+00 -0.16709152992E+03  0.16709152992E+03  0.00000000000E+00 0. -1.
         25    1    1    2    0    0  0.14146408850E+03 -0.21274737611E+03  0.96888677247E+02  0.30047620564E+03  0.12500000000E+03 0.  0.
         21    1    1    2  503  502  0.24979173464E+02  0.87784148049E+01  0.68895187149E+02  0.73807631622E+02  0.00000000000E+00 0.  1.
         21    1    1    2  504  501 -0.16644326196E+03  0.20396896130E+03  0.21287851678E+03  0.33856160375E+03  0.00000000000E+00 0. -1.
<mgrwt>
<rscale>  4 0.55893972E+03</rscale>
<asrwt>0</asrwt>
<pdfrwt beam="1">  1       21 0.83962139E-01 0.55893972E+03</pdfrwt>
<pdfrwt beam="2">  1       21 0.25706389E-01 0.55893972E+03</pdfrwt>
<totfact> 0.15495304E+04</totfact>
</mgrwt>
</event>
<event>
 5    0  0.2720079E+000  0.5350098E+03  0.7546771E-02  0.1005024E+00
         21   -1    0    0  503  501  0.00000000000E+00  0.00000000000E+00  0.25271302146E+03  0.25271302146E+03  0.00000000000E+00 0. -1.
         21   -1    0    0  504  502 -0.00000000000E+00 -0.00000000000E+00 -0.11762920090E+04  0.11762920090E+04  0.00000000000E+00 0. -1.
         25    1    1    2    0    0  0.22201010338E+03 -0.49220067725E+02 -0.25047930762E+03  0.36066048385E+03  0.12500000000E+03 0.  0.
         21    1    1    2  503  502 -0.14379385391E+03 -0.51502628383E+02 -0.84254214974E+03  0.85627476153E+03  0.00000000000E+00 0. -1.
         21    1    1    2  504  501 -0.78216249465E+02  0.10072269611E+03  0.16944246978E+03  0.21206978511E+03  0.00000000000E+00 0. -1.
<mgrwt>
<rscale>  4 0.53500980E+03</rscale>
<asrwt>0</asrwt>
<pdfrwt beam="1">  1       21 0.38878926E-01 0.53500980E+03</pdfrwt>
<pdfrwt beam="2">  1       21 0.18096800E+00 0.53500980E+03</pdfrwt>
<totfact> 0.92542084E+02</totfact>
</mgrwt>
</event>
<event>
 5    0  0.2720079E+000  0.4650055E+03  0.7546771E-02  0.1023339E+00
         21   -1    0    0  503  501  0.00000000000E+00  0.00000000000E+00  0.25843619403E+03  0.25843619403E+03  0.00000000000E+00 0.  1.
         21   -1    0    0  504  502 -0.00000000000E+00 -0.00000000000E+00 -0.63080914080E+03  0.63080914080E+03  0.00000000000E+00 0. -1.
         25    1    1    2    0    0  0.11279963711E+03  0.16533344852E+03 -0.45516439455E+03  0.51269731167E+03  0.12500000000E+03 0.  0.
         21    1    1    2  503  502  0.52314042392E+02 -0.11684457834E+03  0.14512358582E+03  0.19352072158E+03  0.00000000000E+00 0.  1.
         21    1    1    2  504  501 -0.16511367950E+03 -0.48488870174E+02 -0.62332138048E+02  0.18302730158E+03  0.00000000000E+00 0.  1.
<mgrwt>
<rscale>  4 0.46500546E+03</rscale>
<asrwt>0</asrwt>
<pdfrwt beam="1">  1       21 0.39759415E-01 0.46500546E+03</pdfrwt>
<pdfrwt beam="2">  1       21 0.97047559E-01 0.46500546E+03</pdfrwt>
<totfact> 0.46909812E+03</totfact>
</mgrwt>
</event>
<event>
 5    0  0.2720079E+000  0.5298212E+03  0.7546771E-02  0.1006276E+00
         21   -1    0    0  504  501  0.00000000000E+00  0.00000000000E+00  0.43380304983E+03  0.43380304983E+03  0.00000000000E+00 0. -1.
         21   -1    0    0  501  502 -0.00000000000E+00 -0.00000000000E+00 -0.23751228121E+03  0.23751228121E+03  0.00000000000E+00 0.  1.
         25    1    1    2    0    0 -0.13756465547E+02 -0.21154593962E+03 -0.42009261266E+02  0.24966117629E+03  0.12500000000E+03 0.  0.
         21    1    1    2  503  502  0.12009358745E+03  0.20938341501E+03  0.17048388551E+03  0.29551419500E+03  0.00000000000E+00 0. -1.
         21    1    1    2  504  503 -0.10633712190E+03  0.21625246078E+01  0.67816144373E+02  0.12613995975E+03  0.00000000000E+00 0. -1.
<mgrwt>
<rscale>  4 0.52982116E+03</rscale>
<asrwt>0</asrwt>
<pdfrwt beam="1">  1       21 0.66738931E-01 0.52982116E+03</pdfrwt>
<pdfrwt beam="2">  1       21 0.36540351E-01 0.52982116E+03</pdfrwt>
<totfact> 0.13063646E+04</totfact>
</mgrwt>
</event>
<event>
 5    0  0.2720079E+000  0.3730357E+03  0.7546771E-02  0.1053538E+00
         21   -1    0    0  504  501  0.00000000000E+00  0.00000000000E+00  0.82056462072E+03  0.82056462072E+03  0.00000000000E+00 0.  1.
         21   -1    0    0  503  502 -0.00000000000E+00 -0.00000000000E+00 -0.18701437841E+03  0.18701437841E+03  0.00000000000E+00 0.  1.
         25    1    1    2    0    0 -0.19080841742E+03 -0.77992438388E+02  0.24537336327E+02  0.24231746425E+03  0.12500000000E+03 0.  0.
         21    1    1    2  503  501  0.12737590369E+03 -0.26955689112E+02 -0.13398851381E+02  0.13088452634E+03  0.00000000000E+00 0.  1.
         21    1    1    2  504  502  0.63432513734E+02  0.10494812750E+03  0.62241175736E+03  0.63437700854E+03  0.00000000000E+00 0.  1.
<mgrwt>
<rscale>  4 0.37303574E+03</rscale>
<asrwt>0</asrwt>
<pdfrwt beam="1">  1       21 0.12624071E+00 0.37303574E+03</pdfrwt>
<pdfrwt beam="2">  1       21 0.28771443E-01 0.37303574E+03</pdfrwt>
<totfact> 0.48415774E+03</totfact>
</mgrwt>
</event>
<event>
 5    0  0.2720079E+000  0.4408483E+03  0.7546771E-02  0.1030487E+00
         21   -1    0    0  502  501  0.00000000000E+00  0.00000000000E+00  0.44452404900E+03  0.44452404900E+03  0.00000000000E+00 0.  1.
         21   -1    0    0  504  502 -0.00000000000E+00 -0.00000000000E+00 -0.19001063554E+03  0.19001063554E+03  0.00000000000E+00 0.  1.
         25    1    1    2    0    0  0.20977606461E+03 -0.16336230416E+02  0.87073825638E+02  0.25976859090E+03  0.12500000000E+03 0.  0.
         21    1    1    2  503  501 -0.25530504176E+02 -0.29685612132E+01  0.18674798705E+03  0.18850843394E+03  0.00000000000E+00 0.  1.
         21    1    1    2  504  503 -0.18424556043E+03  0.19304791629E+02 -0.19308399228E+02  0.18625765971E+03  0.00000000000E+00 0.  1.
<mgrwt>
<rscale>  4 0.44084834E+03</rscale>
<asrwt>0</asrwt>
<pdfrwt beam="1">  1       21 0.68388315E-01 0.44084834E+03</pdfrwt>
<pdfrwt beam="2">  1       21 0.29232406E-01 0.44084834E+03</pdfrwt>
<totfact> 0.19807810E+04</totfact>
</mgrwt>
</event>
<event>
 5    0  0.2720079E+000  0.4792898E+03  0.7546771E-02  0.1019331E+00
         21   -1    0    0  504  501  0.00000000000E+00  0.00000000000E+00  0.70625505469E+03  0.70625505469E+03  0.00000000000E+00 0. -1.
         21   -1    0    0  503  502 -0.00000000000E+00 -0.00000000000E+00 -0.13557780621E+04  0.13557780621E+04  0.00000000000E+00 0. -1.
         25    1    1    2    0    0 -0.40390973453E+02 -0.27489189640E+03 -0.12646897839E+04  0.13008697994E+04  0.12500000000E+03 0.  0.
         21    1    1    2  503  501  0.65622051062E+02 -0.59159716950E+01 -0.17795057234E+02  0.68248929433E+02  0.00000000000E+00 0.  1.
         21    1    1    2  504  502 -0.25231077610E+02  0.28080786809E+03  0.63296183375E+03  0.69291438796E+03  0.00000000000E+00 0. -1.
<mgrwt>
<rscale>  4 0.47928981E+03</rscale>
<asrwt>0</asrwt>
<pdfrwt beam="1">  1       21 0.10865462E+00 0.47928981E+03</pdfrwt>
<pdfrwt beam="2">  1       21 0.20858124E+00 0.47928981E+03</pdfrwt>
<totfact> 0.61536748E+01</totfact>
</mgrwt>
</event>
<event>
 5    0  0.2720079E+000  0.1002671E+04  0.7546771E-02  0.9305620E-01
         21   -1    0    0  502  501  0.00000000000E+00  0.00000000000E+00  0.90572943836E+03  0.90572943836E+03  0.00000000000E+00 0. -1.
         21   -1    0    0  503  502 -0.00000000000E+00 -0.00000000000E+00 -0.36521472589E+03  0.36521472589E+03  0.00000000000E+00 0. -1.
         25    1    1    2    0    0  0.25957504895E+03 -0.40560189516E+03  0.17241106128E+02  0.49780956111E+03  0.12500000000E+03 0.  0.
         21    1    1    2  503  504 -0.27086322124E+03  0.37535779871E+03  0.30923358461E+03  0.55667384663E+03  0.00000000000E+00 0. -1.
         21    1    1    2  504  501  0.11288172293E+02  0.30244096447E+02  0.21404002174E+03  0.21646075651E+03  0.00000000000E+00 0. -1.
<mgrwt>
<rscale>  4 0.10026712E+04</rscale>
<asrwt>0</asrwt>
<pdfrwt beam="1">  1       21 0.13934299E+00 0.10026712E+04</pdfrwt>
<pdfrwt beam="2">  1       21 0.56186881E-01 0.10026712E+04</pdfrwt>
<totfact> 0.78476721E+02</totfact>
</mgrwt>
</event>
<event>
 5    0  0.2720079E+000  0.4016815E+03  0.7546771E-02  0.1043199E+00
         21   -1    0    0  504  501  0.00000000000E+00  0.00000000000E+00  0.52639884157E+03  0.52639884157E+03  0.00000000000E+00 0. -1.
         21   -1    0    0  501  502 -0.00000000000E+00 -0.00000000000E+00 -0.41359488432E+03  0.41359488432E+03  0.00000000000E+00 0.  1.
         25    1    1    2    0    0  0.22851194853E+03 -0.93363682301E+02 -0.17467692463E+03  0.32721784149E+03  0.12500000000E+03 0.  0.
         21    1    1    2  503  502 -0.10394577371E+03 -0.65740115427E+02 -0.11120292144E+03  0.16580885497E+03  0.00000000000E+00 0.  1.
         21    1    1    2  504  503 -0.12456617482E+03  0.15910379773E+03  0.39868380333E+03  0.44696702943E+03  0.00000000000E+00 0. -1.
<mgrwt>
<rscale>  4 0.40168151E+03</rscale>
<asrwt>0</asrwt>
<pdfrwt beam="1">  1       21 0.80984437E-01 0.40168151E+03</pdfrwt>
<pdfrwt beam="2">  1       21 0.63629982E-01 0.40168151E+03</pdfrwt>
<totfact> 0.27016691E+03</totfact>
</mgrwt>
</event>
<event>
 5    0  0.2720079E+000  0.4656413E+03  0.7546771E-02  0.1023158E+00
         21   -1    0    0  504  501  0.00000000000E+00  0.00000000000E+00  0.30768880374E+03  0.30768880374E+03  0.00000000000E+00 0. -1.
         21   -1    0    0  501  502 -0.00000000000E+00 -0.00000000000E+00 -0.20982643423E+03  0.20982643423E+03  0.00000000000E+00 0. -1.
         25    1    1    2    0    0  0.21637344957E+03 -0.79501319029E+02  0.81976610577E+02  0.27474186810E+03  0.12500000000E+03 0.  0.
         21    1    1    2  503  502 -0.18874227525E+03  0.73736231635E+02  0.38923823915E+02  0.20633890179E+03  0.00000000000E+00 0. -1.
         21    1    1    2  504  503 -0.27631174317E+02  0.57650873936E+01 -0.23038064983E+02  0.36434468089E+02  0.00000000000E+00 0.  1.
<mgrwt>
<rscale>  4 0.46564127E+03</rscale>
<asrwt>0</asrwt>
<pdfrwt beam="1">  1       21 0.47336739E-01 0.46564127E+03</pdfrwt>
<pdfrwt beam="2">  1       21 0.32280990E-01 0.46564127E+03</pdfrwt>
<totfact> 0.35944229E+04</totfact>
</mgrwt>
</event>
<event>
 5    0  0.2720079E+000  0.5113701E+03  0.7546771E-02  0.1010853E+00
         21   -1    0    0  504  501  0.00000000000E+00  0.00000000000E+00  0.14470335579E+04  0.14470335579E+04  0.00000000000E+00 0.  1.
         21   -1    0    0  501  502 -0.00000000000E+00 -0.00000000000E+00 -0.82424018283E+02  0.82424018283E+02  0.00000000000E+00 0.  1.
         25    1    1    2    0    0  0.15534469097E+03 -0.18623245449E+03  0.44342012063E+03  0.52063509630E+03  0.12500000000E+03 0.  0.
         21    1    1    2  503  502 -0.12698814140E+03  0.19635569228E+03  0.27102409201E+03  0.35796033914E+03  0.00000000000E+00 0.  1.
         21    1    1    2  504  503 -0.28356549573E+02 -0.10123237792E+02  0.65016532698E+03  0.65086214075E+03  0.00000000000E+00 0.  1.
<mgrwt>
<rscale>  4 0.51137013E+03</rscale>
<asrwt>0</asrwt>
<pdfrwt beam="1">  1       21 0.22262053E+00 0.51137013E+03</pdfrwt>
<pdfrwt beam="2">  1       21 0.12680619E-01 0.51137013E+03</pdfrwt>
<totfact> 0.42887255E+03</totfact>
</mgrwt>
</event>
<event>
 5    0  0.2720079E+000  0.6549279E+03  0.7546771E-02  0.9797576E-01
         21   -1    0    0  503  501  0.00000000000E+00  0.00000000000E+00  0.16037650368E+03  0.16037650368E+03  0.00000000000E+00 0. -1.
         21   -1    0    0  504  502 -0.00000000000E+00 -0.00000000000E+00 -0.96718495285E+03  0.96718495285E+03  0.00000000000E+00 0. -1.
         25    1    1    2    0    0 -0.25508319037E+03  0.13550115290E+03 -0.21611910900E+03  0.38178588989E+03  0.12500000000E+03 0.  0.
         21    1    1    2  503  502  0.57503292992E+01 -0.20513225968E+02  0.46936570076E+02  0.51545129132E+02  0.00000000000E+00 0. -1.
         21    1    1    2  504  501  0.24933286107E+03 -0.11498792693E+03 -0.63762591024E+03  0.69423043750E+03  0.00000000000E+00 0. -1.
<mgrwt>
<rscale>  4 0.65492792E+03</rscale>
<asrwt>0</asrwt>
<pdfrwt beam="1">  1       21 0.24673308E-01 0.65492792E+03</pdfrwt>
<pdfrwt beam="2">  1       21 0.14879768E+00 0.65492792E+03</pdfrwt>
<totfact> 0.38750109E+03</totfact>
</mgrwt>
</event>
<event>
 5    0  0.2720079E+000  0.3356876E+03  0.7546771E-02  0.1068648E+00
         21   -1    0    0  503  501  0.00000000000E+00  0.00000000000E+00  0.73540079620E+02  0.73540079620E+02  0.00000000000E+00 0. -1.
         21   -1    0    0  504  502 -0.00000000000E+00 -0.00000000000E+00 -0.18040748343E+04  0.18040748343E+04  0.00000000000E+00 0. -1.
         25    1    1    2    0    0  0.21479084265E+03  0.10539386601E+03 -0.13619302527E+04  0.13884242818E+04  0.12500000000E+03 0.  0.
         21    1    1    2  503  502  0.41180448390E+02 -0.24607987958E+02 -0.92014325956E+02  0.10376906370E+03  0.00000000000E+00 0.  1.
         21    1    1    2  504  501 -0.25597129104E+03 -0.80785878050E+02 -0.27659017606E+03  0.38542156845E+03  0.00000000000E+00 0. -1.
<mgrwt>
<rscale>  4 0.33568757E+03</rscale>
<asrwt>0</asrwt>
<pdfrwt beam="1">  1       21 0.11313858E-01 0.33568757E+03</pdfrwt>
<pdfrwt beam="2">  1       21 0.27754997E+00 0.33568757E+03</pdfrwt>
<totfact> 0.26431096E+03</totfact>
</mgrwt>
</event>
<event>
 5    0  0.2720079E+000  0.8353116E+03  0.7546771E-02  0.9510266E-01
         21   -1    0    0  504  501  0.00000000000E+00  0.00000000000E+00  0.53196203745E+03  0.53196203745E+03  0.00000000000E+00 0.  1.
         21   -1    0    0  503  502 -0.00000000000E+00 -0.00000000000E+00 -0.17030331282E+04  0.17030331282E+04  0.00000000000E+00 0.  1.
         25    1    1    2    0    0  0.24450465273E+03 -0.43567958758E+03 -0.12305216624E+04  0.13339444478E+04  0.12500000000E+03 0.  0.
         21    1    1    2  503  501 -0.12942320034E+03  0.25650004763E+03 -0.34197184618E+03  0.44664010433E+03  0.00000000000E+00 0. -1.
         21    1    1    2  504  502 -0.11508145239E+03  0.17917953995E+03  0.40142241777E+03  0.45441061355E+03  0.00000000000E+00 0.  1.
<mgrwt>
<rscale>  4 0.83531163E+03</rscale>
<asrwt>0</asrwt>
<pdfrwt beam="1">  1       21 0.81840312E-01 0.83531163E+03</pdfrwt>
<pdfrwt beam="2">  1       21 0.26200510E+00 0.83531163E+03</pdfrwt>
<totfact> 0.47968359E+01</totfact>
</mgrwt>
</event>
<event>
 5    0  0.2720079E+000  0.4903352E+03  0.7546771E-02  0.1016333E+00
         21   -1    0    0  502  501  0.00000000000E+00  0.00000000000E+00  0.63845434347E+03  0.63845434347E+03  0.00000000000E+00 0. -1.
         21   -1    0    0  504  502 -0.00000000000E+00 -0.00000000000E+00 -0.13508339531E+03  0.13508339531E+03  0.00000000000E+00 0.  1.
         25    1    1    2    0    0 -0.11263941439E+03 -0.20678601747E+03  0.23009557235E+03  0.35216057006E+03  0.12500000000E+03 0.  0.
         21    1    1    2  503  501 -0.78251595018E+01  0.29346973518E+02  0.18822726706E+03  0.19066195751E+03  0.00000000000E+00 0. -1.
         21    1    1    2  504  503  0.12046457389E+03  0.17743904395E+03  0.85048108744E+02  0.23071521120E+03  0.00000000000E+00 0.  1.
<mgrwt>
<rscale>  4 0.49033523E+03</rscale>
<asrwt>0</asrwt>
<pdfrwt beam="1">  1       21 0.98223743E-01 0.49033523E+03</pdfrwt>
<pdfrwt beam="2">  1       21 0.20782061E-01 0.49033523E+03</pdfrwt>
<totfact> 0.16357601E+04</totfact>
</mgrwt>
</event>
<event>
 5    0  0.2720079E+000  0.7294662E+03  0.7546771E-02  0.9668127E-01
         21   -1    0    0  503  501  0.00000000000E+00  0.00000000000E+00  0.77096049955E+03  0.77096049955E+03  0.00000000000E+00 0. -1.
         21   -1    0    0  504  502 -0.00000000000E+00 -0.00000000000E+00 -0.54069719130E+03  0.54069719130E+03  0.00000000000E+00 0. -1.
         25    1    1    2    0    0 -0.40633035995E+03 -0.58797065130E+01 -0.96182623177E+01  0.42527219911E+03  0.12500000000E+03 0.  0.
         21    1    1    2  503  502  0.21187674895E+03  0.12217625867E+03 -0.24808907300E+03  0.34837764434E+03  0.00000000000E+00 0. -1.
         21    1    1    2  504  501  0.19445361099E+03 -0.11629655216E+03  0.48797064358E+03  0.53800784740E+03  0.00000000000E+00 0. -1.
<mgrwt>
<rscale>  4 0.72946625E+03</rscale>
<asrwt>0</asrwt>
<pdfrwt beam="1">  1       21 0.11860931E+00 0.72946625E+03</pdfrwt>
<pdfrwt beam="2">  1       21 0.83184183E-01 0.72946625E+03</pdfrwt>
<totfact> 0.52178719E+02</totfact>
</mgrwt>
</event>
<event>
 5    0  0.2720079E+000  0.6228916E+03  0.7546771E-02  0.9859019E-01
         21   -1    0    0  502  501  0.00000000000E+00  0.00000000000E+00  0.51731398107E+03  0.51731398107E+03  0.00000000000E+00 0.  1.
         21   -1    0    0  503  502 -0.00000000000E+00 -0.00000000000E+00 -0.38234257511E+03  0.38234257511E+03  0.00000000000E+00 0.  1.
         25    1    1    2    0    0  0.68701186159E+02 -0.19187871518E+03  0.15992925956E+03  0.28764502844E+03  0.12500000000E+03 0.  0.
         21    1    1    2  503  504  0.54496356228E+01  0.20497550720E+03 -0.27945322482E+03  0.34661038926E+03  0.00000000000E+00 0.  1.
         21    1    1    2  504  501 -0.74150821782E+02 -0.13096792017E+02  0.25449537122E+03  0.26540113848E+03  0.00000000000E+00 0.  1.
<mgrwt>
<rscale>  4 0.62289161E+03</rscale>
<asrwt>0</asrwt>
<pdfrwt beam="1">  1       21 0.79586766E-01 0.62289161E+03</pdfrwt>
<pdfrwt beam="2">  1       21 0.58821935E-01 0.62289161E+03</pdfrwt>
<totfact> 0.31198311E+03</totfact>
</mgrwt>
</event>
<event>
 5    0  0.2720079E+000  0.3988858E+03  0.7546771E-02  0.1044166E+00
         21   -1    0    0  503  501  0.00000000000E+00  0.00000000000E+00  0.33161822314E+03  0.33161822314E+03  0.00000000000E+00 0. -1.
         21   -1    0    0  504  502 -0.00000000000E+00 -0.00000000000E+00 -0.27629135631E+03  0.27629135631E+03  0.00000000000E+00 0. -1.
         25    1    1    2    0    0  0.25579634516E+02  0.19949648464E+03 -0.10919729324E+03  0.26077234121E+03  0.12500000000E+03 0.  0.
         21    1    1    2  503  502  0.88966203241E+02 -0.16220429483E+03  0.93345075788E+02  0.20721612330E+03  0.00000000000E+00 0. -1.
         21    1    1    2  504  501 -0.11454583776E+03 -0.37292189814E+02  0.71179084287E+02  0.13992111495E+03  0.00000000000E+00 0.  1.
<mgrwt>
<rscale>  4 0.39888578E+03</rscale>
<asrwt>0</asrwt>
<pdfrwt beam="1">  1       21 0.51018188E-01 0.39888578E+03</pdfrwt>
<pdfrwt beam="2">  1       21 0.42506362E-01 0.39888578E+03</pdfrwt>
<totfact> 0.17812005E+04</totfact>
</mgrwt>
</event>
<event>
 5    0  0.2720079E+000  0.3694283E+03  0.7546771E-02  0.1054912E+00
         21   -1    0    0  502  501  0.00000000000E+00  0.00000000000E+00  0.20680644573E+04  0.20680644573E+04  0.00000000000E+00 0. -1.
         21   -1    0    0  503  502 -0.00000000000E+00 -0.00000000000E+00 -0.22824846416E+03  0.22824846416E+03  0.00000000000E+00 0.  1.
         25    1    1    2    0    0  0.17468495483E+03 -0.14649285210E+03 -0.81265234389E+02  0.27240416201E+03  0.12500000000E+03 0.  0.
         21    1    1    2  503  504 -0.75529351387E+02  0.72198885799E+02  0.58243389854E+01  0.10464838726E+03  0.00000000000E+00 0.  1.
         21    1    1    2  504  501 -0.99155603445E+02  0.74293966298E+02  0.19152568886E+04  0.19192603722E+04  0.00000000000E+00 0. -1.
<mgrwt>
<rscale>  4 0.36942834E+03</rscale>
<asrwt>0</asrwt>
<pdfrwt beam="1">  1       21 0.31816375E+00 0.36942834E+03</pdfrwt>
<pdfrwt beam="2">  1       21 0.35115150E-01 0.36942834E+03</pdfrwt>
<totfact> 0.17223620E+02</totfact>
</mgrwt>
</event>
<event>
 5    0  0.2720079E+000  0.6676753E+03  0.7546771E-02  0.9774167E-01
         21   -1    0    0  503  501  0.00000000000E+00  0.00000000000E+00  0.75517067881E+02  0.75517067881E+02  0.00000000000E+00 0. -1.
         21   -1    0    0  504  502 -0.00000000000E+00 -0.00000000000E+00 -0.17253091949E+04  0.17253091949E+04  0.00000000000E+00 0. -1.
         25    1    1    2    0    0  0.28042080415E+03 -0.13863273212E+03 -0.80681476347E+03  0.87431683294E+03  0.12500000000E+03 0.  0.
         21    1    1    2  503  502 -0.24588274719E+01 -0.40685060167E+02 -0.36049320072E+02  0.54413908433E+02  0.00000000000E+00 0. -1.
         21    1    1    2  504  501 -0.27796197667E+03  0.17931779229E+03 -0.80692804352E+03  0.87209552145E+03  0.00000000000E+00 0. -1.
<mgrwt>
<rscale>  4 0.66767527E+03</rscale>
<asrwt>0</asrwt>
<pdfrwt beam="1">  1       21 0.11618011E-01 0.66767527E+03</pdfrwt>
<pdfrwt beam="2">  1       21 0.26543216E+00 0.66767527E+03</pdfrwt>
<totfact> 0.25794538E+03</totfact>
</mgrwt>
</event>
<event>
 5    0  0.2720079E+000  0.6680330E+03  0.7546771E-02  0.9773518E-01
         21   -1    0    0  504  501  0.00000000000E+00  0.00000000000E+00  0.50589378406E+03  0.50589378406E+03  0.00000000000E+00 0.  1.
         21   -1    0    0  503  502 -0.00000000000E+00 -0.00000000000E+00 -0.91738951033E+03  0.91738951033E+03  0.00000000000E+00 0.  1.
         25    1    1    2    0    0  0.25416771554E+03  0.14834651659E+03 -0.78622846826E+03  0.84875680905E+03  0.12500000000E+03 0.  0.
         21    1    1    2  503  501 -0.17624827261E+03 -0.30840902471E+02  0.51912063378E+01  0.17900157398E+03  0.00000000000E+00 0. -1.
         21    1    1    2  504  502 -0.77919442930E+02 -0.11750561412E+03  0.36954153565E+03  0.39552491136E+03  0.00000000000E+00 0.  1.
<mgrwt>
<rscale>  4 0.66803300E+03</rscale>
<asrwt>0</asrwt>
<pdfrwt beam="1">  1       21 0.77829814E-01 0.66803300E+03</pdfrwt>
<pdfrwt beam="2">  1       21 0.14113685E+00 0.66803300E+03</pdfrwt>
<totfact> 0.39267834E+02</totfact>
</mgrwt>
</event>
<event>
 5    0  0.2720079E+000  0.5579478E+03  0.7546771E-02  0.9996709E-01
         21   -1    0    0  503  501  0.00000000000E+00  0.00000000000E+00  0.11150996938E+04  0.11150996938E+04  0.00000000000E+00 0.  1.
         21   -1    0    0  504  502 -0.00000000000E+00 -0.00000000000E+00 -0.89002300869E+02  0.89002300869E+02  0.00000000000E+00 0.  1.
         25    1    1    2    0    0  0.15130277060E+03  0.16668295763E+03  0.33261697888E+03  0.42063617462E+03  0.12500000000E+03 0.  0.
         21    1    1    2  503  502 -0.17199277569E+03 -0.23575883951E+03  0.57363423545E+03  0.64359923972E+03  0.00000000000E+00 0.  1.
         21    1    1    2  504  501  0.20690005090E+02  0.69075881880E+02  0.11984617861E+03  0.13986658034E+03  0.00000000000E+00 0.  1.
<mgrwt>
<rscale>  4 0.55794781E+03</rscale>
<asrwt>0</asrwt>
<pdfrwt beam="1">  1       21 0.17155379E+00 0.55794781E+03</pdfrwt>
<pdfrwt beam="2">  1       21 0.13692662E-01 0.55794781E+03</pdfrwt>
<totfact> 0.81565235E+03</totfact>
</mgrwt>
</event>
<event>
 5    0  0.2720079E+000  0.5935563E+03  0.7546771E-02  0.9918866E-01
         21   -1    0    0  504  501  0.00000000000E+00  0.00000000000E+00  0.14042169132E+04  0.14042169132E+04  0.00000000000E+00 0. -1.
         21   -1    0    0  503  502 -0.00000000000E+00 -0.00000000000E+00 -0.41036364475E+03  0.41036364475E+03  0.00000000000E+00 0. -1.
         25    1    1    2    0    0 -0.54037382037E+02  0.22905778019E+03 -0.30086131563E+03  0.40190799514E+03  0.12500000000E+03 0.  0.
         21    1    1    2  503  501 -0.96124730088E+02  0.11031102541E+03  0.15101458765E+03  0.21027099596E+03  0.00000000000E+00 0.  1.
         21    1    1    2  504  502  0.15016211212E+03 -0.33936880559E+03  0.11436999964E+04  0.12024015668E+04  0.00000000000E+00 0. -1.
<mgrwt>
<rscale>  4 0.59355629E+03</rscale>
<asrwt>0</asrwt>
<pdfrwt beam="1">  1       21 0.21603337E+00 0.59355629E+03</pdfrwt>
<pdfrwt beam="2">  1       21 0.63132869E-01 0.59355629E+03</pdfrwt>
<totfact> 0.18578463E+02</totfact>
</mgrwt>
</event>
<event>
 5    0  0.2720079E+000  0.7946253E+03  0.7546771E-02  0.9567829E-01
         21   -1    0    0  503  501  0.00000000000E+00  0.00000000000E+00  0.12892825290E+04  0.12892825290E+04  0.00000000000E+00 0.  1.
         21   -1    0    0  504  502 -0.00000000000E+00 -0.00000000000E+00 -0.35633228458E+03  0.35633228458E+03  0.00000000000E+00 0.  1.
         25    1    1    2    0    0  0.30440362567E+03  0.22292417513E+03  0.20141136930E+03  0.44558758383E+03  0.12500000000E+03 0.  0.
         21    1    1    2  503  502 -0.32195565820E+03 -0.10564365999E+03 -0.10529851138E+03  0.35482926210E+03  0.00000000000E+00 0.  1.
         21    1    1    2  504  501  0.17552032531E+02 -0.11728051513E+03  0.83683738654E+03  0.84519796769E+03  0.00000000000E+00 0.  1.
<mgrwt>
<rscale>  4 0.79462535E+03</rscale>
<asrwt>0</asrwt>
<pdfrwt beam="1">  1       21 0.19835116E+00 0.79462535E+03</pdfrwt>
<pdfrwt beam="2">  1       21 0.54820352E-01 0.79462535E+03</pdfrwt>
<totfact> 0.31133046E+02</totfact>
</mgrwt>
</event>
<event>
 5    0  0.2720079E+000  0.4428936E+03  0.7546771E-02  0.1029863E+00
         21   -1    0    0  502  501  0.00000000000E+00  0.00000000000E+00  0.56166800915E+03  0.56166800915E+03  0.00000000000E+00 0. -1.
         21   -1    0    0  503  502 -0.00000000000E+00 -0.00000000000E+00 -0.20483148764E+03  0.20483148764E+03  0.00000000000E+00 0. -1.
         25    1    1    2    0    0  0.11874812049E+03 -0.16128645971E+03  0.19714694914E+03  0.30758146525E+03  0.12500000000E+03 0.  0.
         21    1    1    2  503  504  0.19152648927E+02  0.84462396690E+02 -0.11388032074E+03  0.14307147818E+03  0.00000000000E+00 0. -1.
         21    1    1    2  504  501 -0.13790076942E+03  0.76824063021E+02  0.27356989310E+03  0.31584655337E+03  0.00000000000E+00 0. -1.
<mgrwt>
<rscale>  4 0.44289360E+03</rscale>
<asrwt>0</asrwt>
<pdfrwt beam="1">  1       21 0.86410463E-01 0.44289360E+03</pdfrwt>
<pdfrwt beam="2">  1       21 0.31512537E-01 0.44289360E+03</pdfrwt>
<totfact> 0.99738655E+03</totfact>
</mgrwt>
</event>
<event>
 5    0  0.2720079E+000  0.6091832E+03  0.7546771E-02  0.9886535E-01
         21   -1    0    0  502  501  0.00000000000E+00  0.00000000000E+00  0.49327044963E+03  0.49327044963E+03  0.00000000000E+00 0.  1.
         21   -1    0    0  504  502 -0.00000000000E+00 -0.00000000000E+00 -0.91905674801E+03  0.91905674801E+03  0.00000000000E+00 0.  1.
         25    1    1    2    0    0  0.80238263611E+02  0.30902126784E+03 -0.43628524666E+03  0.55488930372E+03  0.12500000000E+03 0.  0.
         21    1    1    2  503  501 -0.11921046442E+02 -0.52293382491E+02  0.39028750692E+03  0.39395564123E+03  0.00000000000E+00 0.  1.
         21    1    1    2  504  503 -0.68317217169E+02 -0.25672788535E+03 -0.37978855864E+03  0.46348225268E+03  0.00000000000E+00 0.  1.
<mgrwt>
<rscale>  4 0.60918320E+03</rscale>
<asrwt>0</asrwt>
<pdfrwt beam="1">  1       21 0.75887762E-01 0.60918320E+03</pdfrwt>
<pdfrwt beam="2">  1       21 0.14139335E+00 0.60918320E+03</pdfrwt>
<totfact> 0.42211221E+02</totfact>
</mgrwt>
</event>
<event>
 5    0  0.2720079E+000  0.4335304E+03  0.7546771E-02  0.1032751E+00
         21   -1    0    0  503  501  0.00000000000E+00  0.00000000000E+00  0.22620568241E+03  0.22620568241E+03  0.00000000000E+00 0. -1.
         21   -1    0    0  504  502 -0.00000000000E+00 -0.00000000000E+00 -0.39483588931E+03  0.39483588931E+03  0.00000000000E+00 0.  1.
         25    1    1    2    0    0 -0.73638837616E+02  0.19065986931E+03 -0.94446803394E+02  0.25752487810E+03  0.12500000000E+03 0.  0.
         21    1    1    2  503  502  0.83957633143E+01 -0.21309603767E+02  0.10560265439E+03  0.10805789499E+03  0.00000000000E+00 0. -1.
         21    1    1    2  504  501  0.65243074302E+02 -0.16935026554E+03 -0.17978605789E+03  0.25545879863E+03  0.00000000000E+00 0.  1.
<mgrwt>
<rscale>  4 0.43353038E+03</rscale>
<asrwt>0</asrwt>
<pdfrwt beam="1">  1       21 0.34800874E-01 0.43353038E+03</pdfrwt>
<pdfrwt beam="2">  1       21 0.60743983E-01 0.43353038E+03</pdfrwt>
<totfact> 0.18213655E+04</totfact>
</mgrwt>
</event>
<event>
 5    0  0.2720079E+000  0.4303948E+03  0.7546771E-02  0.1033735E+00
         21   -1    0    0  502  501  0.00000000000E+00  0.00000000000E+00  0.33270064873E+03  0.33270064873E+03  0.00000000000E+00 0. -1.
         21   -1    0    0  504  502 -0.00000000000E+00 -0.00000000000E+00 -0.26727990228E+03  0.26727990228E+03  0.00000000000E+00 0.  1.
         25    1    1    2    0    0 -0.19372014903E+03  0.52123202066E+02 -0.16564327887E+03  0.28862955526E+03  0.12500000000E+03 0.  0.
         21    1    1    2  503  501  0.83073455499E+02 -0.15508350995E+02  0.13965213742E+03  0.16323120855E+03  0.00000000000E+00 0. -1.
         21    1    1    2  504  503  0.11064669353E+03 -0.36614851071E+02  0.91411887899E+02  0.14811978719E+03  0.00000000000E+00 0. -1.
<mgrwt>
<rscale>  4 0.43039481E+03</rscale>
<asrwt>0</asrwt>
<pdfrwt beam="1">  1       21 0.51184715E-01 0.43039481E+03</pdfrwt>
<pdfrwt beam="2">  1       21 0.41119985E-01 0.43039481E+03</pdfrwt>
<totfact> 0.18774515E+04</totfact>
</mgrwt>
</event>
<event>
 5    0  0.2720079E+000  0.5694738E+03  0.7546771E-02  0.9970844E-01
         21   -1    0    0  504  501  0.00000000000E+00  0.00000000000E+00  0.11393282386E+04  0.11393282386E+04  0.00000000000E+00 0.  1.
         21   -1    0    0  503  502 -0.00000000000E+00 -0.00000000000E+00 -0.92283844066E+03  0.92283844066E+03  0.00000000000E+00 0. -1.
         25    1    1    2    0    0 -0.23279919010E+03 -0.91917878767E+02 -0.20694785322E+03  0.34798961666E+03  0.12500000000E+03 0.  0.
         21    1    1    2  503  501  0.15811341168E+03  0.14171461569E+03 -0.62593758543E+03  0.66096954854E+03  0.00000000000E+00 0. -1.
         21    1    1    2  504  502  0.74685778419E+02 -0.49796736919E+02  0.10493752366E+04  0.10532075140E+04  0.00000000000E+00 0.  1.
<mgrwt>
<rscale>  4 0.56947383E+03</rscale>
<asrwt>0</asrwt>
<pdfrwt beam="1">  1       21 0.17528127E+00 0.56947383E+03</pdfrwt>
<pdfrwt beam="2">  1       21 0.14197514E+00 0.56947383E+03</pdfrwt>
<totfact> 0.49910592E+01</totfact>
</mgrwt>
</event>
<event>
 5    0  0.2720079E+000  0.5061268E+03  0.7546771E-02  0.1012192E+00
         21   -1    0    0  504  501  0.00000000000E+00  0.00000000000E+00  0.14478326133E+04  0.14478326133E+04  0.00000000000E+00 0. -1.
         21   -1    0    0  501  502 -0.00000000000E+00 -0.00000000000E+00 -0.20756852267E+03  0.20756852267E+03  0.00000000000E+00 0. -1.
         25    1    1    2    0    0  0.12198810519E+03  0.17462750597E+03  0.83778263165E+02  0.26080579178E+03  0.12500000000E+03 0.  0.
         21    1    1    2  503  502  0.47211342169E+02 -0.25248247328E+03  0.36749068537E+02  0.25947409154E+03  0.00000000000E+00 0. -1.
         21    1    1    2  504  503 -0.16919944736E+03  0.77854967308E+02  0.11197367589E+04  0.11351212526E+04  0.00000000000E+00 0. -1.
<mgrwt>
<rscale>  4 0.50612678E+03</rscale>
<asrwt>0</asrwt>
<pdfrwt beam="1">  1       21 0.22274347E+00 0.50612678E+03</pdfrwt>
<pdfrwt beam="2">  1       21 0.31933620E-01 0.50612678E+03</pdfrwt>
<totfact> 0.73310646E+02</totfact>
</mgrwt>
</event>
