<event>
 5    0  0.1911311E+001  0.2430983E+03  0.7546771E-02  0.1117746E+00
         21   -1    0    0  504  501  0.00000000000E+00  0.00000000000E+00  0.12087973559E+03  0.12087973559E+03  0.00000000000E+00 0. -1.
         21   -1    0    0  503  502 -0.00000000000E+00 -0.00000000000E+00 -0.96826003760E+03  0.96826003760E+03  0.00000000000E+00 0. -1.
         25    1    1    2    0    0 -0.40579296076E+02  0.22319345141E+03 -0.11626057401E+03  0.28390758547E+03  0.12500000000E+03 0.  0.
         21    1    1    2  503  501  0.32719088706E+02 -0.20285473641E+03 -0.74922511267E+03  0.77689050213E+03  0.00000000000E+00 0. -1.
         21    1    1    2  504  502  0.78602073697E+01 -0.20338715000E+02  0.18105384662E+02  0.28341685580E+02  0.00000000000E+00 0. -1.
<mgrwt>
<rscale>  4 0.24309832E+03</rscale>
<asrwt>0</asrwt>
<pdfrwt beam="1">  1       21 0.18596883E-01 0.24309832E+03</pdfrwt>
<pdfrwt beam="2">  1       21 0.14896308E+00 0.24309832E+03</pdfrwt>
<totfact> 0.77583045E+03</totfact>
</mgrwt>
</event>
<event>
 5    0  0.1911311E+001  0.4963015E+03  0.7546771E-02  0.1014749E+00
         21   -1    0    0  504  501  0.00000000000E+00  0.00000000000E+00  0.94058546496E+03  0.94058546496E+03  0.00000000000E+00 0.  1.
         21   -1    0    0  503  502 -0.00000000000E+00 -0.00000000000E+00 -0.45577509806E+03  0.45577509806E+03  0.00000000000E+00 0.  1.
         25    1    1    2    0    0 -0.46197589210E+03 -0.22018488206E+03  0.26365693458E+02  0.52746872605E+03  0.12500000000E+03 0.  0.
         21    1    1    2  503  501  0.10909954667E+02  0.84463940987E+02 -0.10453993994E+03  0.13483984382E+03  0.00000000000E+00 0.  1.
         21    1    1    2  504  502  0.45106593744E+03  0.13572094107E+03  0.56298461338E+03  0.73405199316E+03  0.00000000000E+00 0.  1.
<mgrwt>
<rscale>  4 0.49630155E+03</rscale>
<asrwt>0</asrwt>
<pdfrwt beam="1">  1       21 0.14470546E+00 0.49630155E+03</pdfrwt>
<pdfrwt beam="2">  1       21 0.70119246E-01 0.49630155E+03</pdfrwt>
<totfact> 0.49529478E+02</totfact>
</mgrwt>
</event>
<event>
 5    0  0.1911311E+001  0.2025481E+03  0.7546771E-02  0.1147607E+00
         21   -1    0    0  502  501  0.00000000000E+00  0.00000000000E+00  0.52990014863E+03  0.52990014863E+03  0.00000000000E+00 0. -1.
         21   -1    0    0  504  502 -0.00000000000E+00 -0.00000000000E+00 -0.28167519024E+03  0.28167519024E+03  0.00000000000E+00 0. -1.
         25    1    1    2    0    0 -0.26310465595E+03 -0.82689592096E+02  0.12605416417E+03  0.32798823291E+03  0.12500000000E+03 0.  0.
         21    1    1    2  503  501  0.12938599033E+03  0.51084402249E+02  0.25627126247E+03  0.29159099886E+03  0.00000000000E+00 0. -1.
         21    1    1    2  504  503  0.13371866561E+03  0.31605189847E+02 -0.13410046825E+03  0.19199610711E+03  0.00000000000E+00 0. -1.
<mgrwt>
<rscale>  4 0.20254809E+03</rscale>
<asrwt>0</asrwt>
<pdfrwt beam="1">  1       21 0.81523099E-01 0.20254809E+03</pdfrwt>
<pdfrwt beam="2">  1       21 0.43334645E-01 0.20254809E+03</pdfrwt>
<totfact> 0.66968119E+03</totfact>
</mgrwt>
</event>
