<event>
 5    0  0.2396052E+000  0.3566932E+03  0.7546771E-02  0.1059901E+00
          2   -1    0    0  503    0 -0.00000000000E+00  0.00000000000E+00  0.26581127371E+04  0.26581127371E+04  0.00000000000E+00 0.  1.
         21   -1    0    0  501  502  0.00000000000E+00 -0.00000000000E+00 -0.48982948660E+02  0.48982948660E+02  0.00000000000E+00 0. -1.
         25    1    1    2    0    0 -0.17597255496E+03 -0.15310546504E+03  0.49026550294E+03  0.55712914741E+03  0.12500000000E+03 0.  0.
         21    1    1    2  503  502  0.69186567528E+02  0.60015358376E+02  0.14820675884E+03  0.17422361417E+03  0.00000000000E+00 0.  1.
          2    1    1    2  501    0  0.10678598743E+03  0.93090106661E+02  0.19706575266E+04  0.19757429241E+04  0.00000000000E+00 0.  1.
<mgrwt>
<rscale>  4 0.35669319E+03</rscale>
<asrwt>0</asrwt>
<pdfrwt beam="1">  1       21 0.75358403E-02 0.35669319E+03</pdfrwt>
<pdfrwt beam="2">  1        2 0.40894031E+00 0.35669319E+03</pdfrwt>
<totfact> 0.53437795E+03</totfact>
</mgrwt>
</event>
<event>
 5    0  0.2396052E+000  0.5496338E+03  0.7546771E-02  0.1001579E+00
         21   -1    0    0  501  502  0.00000000000E+00  0.00000000000E+00  0.12438020502E+04  0.12438020502E+04  0.00000000000E+00 0. -1.
         -1   -1    0    0    0  501 -0.00000000000E+00 -0.00000000000E+00 -0.28289299545E+03  0.28289299545E+03  0.00000000000E+00 0.  1.
         25    1    1    2    0    0 -0.69302413488E+02 -0.23865987279E+03  0.63797188694E+03  0.69598454575E+03  0.12500000000E+03 0.  0.
         21    1    1    2  503  502  0.60488221541E+02  0.26363594998E+03  0.54428157081E+03  0.60778710697E+03  0.00000000000E+00 0. -1.
         -1    1    1    2    0  503  0.88141919475E+01 -0.24976077196E+02 -0.22134440297E+03  0.22292339298E+03  0.00000000000E+00 0.  1.
<mgrwt>
<rscale>  4 0.54963377E+03</rscale>
<asrwt>0</asrwt>
<pdfrwt beam="1">  1       21 0.19135416E+00 0.54963377E+03</pdfrwt>
<pdfrwt beam="2">  1       -1 0.43522000E-01 0.54963377E+03</pdfrwt>
<totfact> 0.62637069E+01</totfact>
</mgrwt>
</event>
<event>
 5    0  0.2396052E+000  0.7963657E+03  0.7546771E-02  0.9565293E-01
         21   -1    0    0  501  502  0.00000000000E+00  0.00000000000E+00  0.12330844553E+04  0.12330844553E+04  0.00000000000E+00 0.  1.
         -1   -1    0    0    0  501 -0.00000000000E+00 -0.00000000000E+00 -0.12222258882E+04  0.12222258882E+04  0.00000000000E+00 0.  1.
         25    1    1    2    0    0  0.10809570454E+03  0.27621850328E+03  0.10257175782E+04  0.10750362288E+04  0.12500000000E+03 0.  0.
         21    1    1    2  503  502 -0.18647911177E+03 -0.20062549102E+03  0.75792439252E+02  0.28419982516E+03  0.00000000000E+00 0. -1.
         -1    1    1    2    0  503  0.78383407229E+02 -0.75593012253E+02 -0.10906514504E+04  0.10960742896E+04  0.00000000000E+00 0.  1.
<mgrwt>
<rscale>  4 0.79636570E+03</rscale>
<asrwt>0</asrwt>
<pdfrwt beam="1">  1       21 0.18970530E+00 0.79636570E+03</pdfrwt>
<pdfrwt beam="2">  1       -1 0.18803475E+00 0.79636570E+03</pdfrwt>
<totfact> 0.21546808E+00</totfact>
</mgrwt>
</event>
<event>
 5    0  0.2396052E+000  0.4161964E+03  0.7546771E-02  0.1038311E+00
         -2   -1    0    0    0  501 -0.00000000000E+00  0.00000000000E+00  0.18801445163E+03  0.18801445163E+03  0.00000000000E+00 0. -1.
         21   -1    0    0  501  502  0.00000000000E+00 -0.00000000000E+00 -0.36686902442E+03  0.36686902442E+03  0.00000000000E+00 0. -1.
         25    1    1    2    0    0 -0.20081847051E+03  0.73788301555E+01 -0.11706761489E+03  0.26403092942E+03  0.12500000000E+03 0.  0.
         21    1    1    2  503  502  0.17715805484E+03 -0.11800106601E+02 -0.12899595873E+03  0.21946338255E+03  0.00000000000E+00 0.  1.
         -2    1    1    2    0  503  0.23660415676E+02  0.44212764456E+01  0.67209000838E+02  0.71389164086E+02  0.00000000000E+00 0. -1.
<mgrwt>
<rscale>  4 0.41619643E+03</rscale>
<asrwt>0</asrwt>
<pdfrwt beam="1">  1       21 0.56441388E-01 0.41619643E+03</pdfrwt>
<pdfrwt beam="2">  1       -2 0.28925301E-01 0.41619643E+03</pdfrwt>
<totfact> 0.24765661E+03</totfact>
</mgrwt>
</event>
<event>
 5    0  0.2396052E+000  0.4339034E+03  0.7546771E-02  0.1032634E+00
          1   -1    0    0  503    0 -0.00000000000E+00  0.00000000000E+00  0.21346203173E+04  0.21346203173E+04  0.00000000000E+00 0. -1.
         21   -1    0    0  501  502  0.00000000000E+00 -0.00000000000E+00 -0.12252486504E+03  0.12252486504E+03  0.00000000000E+00 0.  1.
         25    1    1    2    0    0  0.10112320273E+03  0.24511728749E+03  0.10757377377E+03  0.31225871254E+03  0.12500000000E+03 0.  0.
         21    1    1    2  503  502 -0.81252862268E+02  0.31750181514E+02  0.20415982371E+03  0.22201652027E+03  0.00000000000E+00 0. -1.
          1    1    1    2  501    0 -0.19870340457E+02 -0.27686746900E+03  0.17003618548E+04  0.17228699495E+04  0.00000000000E+00 0. -1.
<mgrwt>
<rscale>  4 0.43390343E+03</rscale>
<asrwt>0</asrwt>
<pdfrwt beam="1">  1       21 0.18849981E-01 0.43390343E+03</pdfrwt>
<pdfrwt beam="2">  1        1 0.32840310E+00 0.43390343E+03</pdfrwt>
<totfact> 0.73087531E+02</totfact>
</mgrwt>
</event>
<event>
 5    0  0.2396052E+000  0.8088585E+03  0.7546771E-02  0.9547283E-01
         21   -1    0    0  501  502  0.00000000000E+00  0.00000000000E+00  0.15671760881E+04  0.15671760881E+04  0.00000000000E+00 0.  1.
          2   -1    0    0  503    0 -0.00000000000E+00 -0.00000000000E+00 -0.17071866180E+03  0.17071866180E+03  0.00000000000E+00 0.  1.
         25    1    1    2    0    0 -0.33241712431E+03 -0.22093344745E+03  0.68031701266E+03  0.79860438920E+03  0.12500000000E+03 0.  0.
         21    1    1    2  503  502  0.36256251265E+03  0.13906353531E+03  0.75091024190E+03  0.84537354691E+03  0.00000000000E+00 0.  1.
          2    1    1    2  501    0 -0.30145388338E+02  0.81869912134E+02 -0.34769828273E+02  0.93916813771E+02  0.00000000000E+00 0.  1.
<mgrwt>
<rscale>  4 0.80885846E+03</rscale>
<asrwt>0</asrwt>
<pdfrwt beam="1">  1       21 0.24110400E+00 0.80885846E+03</pdfrwt>
<pdfrwt beam="2">  1        2 0.26264411E-01 0.80885846E+03</pdfrwt>
<totfact> 0.14574906E+02</totfact>
</mgrwt>
</event>
<event>
 5    0  0.2396052E+000  0.5064470E+03  0.7546771E-02  0.1012110E+00
         21   -1    0    0  501  502  0.00000000000E+00  0.00000000000E+00  0.10622105291E+04  0.10622105291E+04  0.00000000000E+00 0.  1.
         -3   -1    0    0    0  501 -0.00000000000E+00 -0.00000000000E+00 -0.56033568086E+03  0.56033568086E+03  0.00000000000E+00 0.  1.
         25    1    1    2    0    0  0.10462505685E+03 -0.40591884009E+03 -0.35634198445E+03  0.56419953664E+03  0.12500000000E+03 0.  0.
         21    1    1    2  503  502 -0.53202663500E+02  0.43356380269E+02 -0.46115986089E+02  0.82686052551E+02  0.00000000000E+00 0. -1.
         -3    1    1    2    0  503 -0.51422393350E+02  0.36256245983E+03  0.90433281873E+03  0.97566062073E+03  0.00000000000E+00 0.  1.
<mgrwt>
<rscale>  4 0.50644698E+03</rscale>
<asrwt>0</asrwt>
<pdfrwt beam="1">  1       21 0.16341700E+00 0.50644698E+03</pdfrwt>
<pdfrwt beam="2">  1       -3 0.86205489E-01 0.50644698E+03</pdfrwt>
<totfact> 0.12990990E+01</totfact>
</mgrwt>
</event>
<event>
 5    0  0.2396052E+000  0.5443210E+03  0.7546771E-02  0.1002817E+00
          1   -1    0    0  503    0 -0.00000000000E+00  0.00000000000E+00  0.56382664853E+03  0.56382664853E+03  0.00000000000E+00 0.  1.
         21   -1    0    0  501  502  0.00000000000E+00 -0.00000000000E+00 -0.31819455900E+03  0.31819455900E+03  0.00000000000E+00 0.  1.
         25    1    1    2    0    0  0.12731138519E+02  0.22115284322E+03 -0.14522845656E+03  0.29289412174E+03  0.12500000000E+03 0.  0.
         21    1    1    2  503  502  0.17179115003E+03 -0.13918943169E+03  0.12084813882E+03  0.25197255760E+03  0.00000000000E+00 0. -1.
          1    1    1    2  501    0 -0.18452228855E+03 -0.81963411530E+02  0.27001240727E+03  0.33715452819E+03  0.00000000000E+00 0.  1.
<mgrwt>
<rscale>  4 0.54432095E+03</rscale>
<asrwt>0</asrwt>
<pdfrwt beam="1">  1       21 0.48953009E-01 0.54432095E+03</pdfrwt>
<pdfrwt beam="2">  1        1 0.86742561E-01 0.54432095E+03</pdfrwt>
<totfact> 0.15379897E+03</totfact>
</mgrwt>
</event>
<event>
 5    0  0.2396052E+000  0.5067835E+03  0.7546771E-02  0.1012023E+00
          1   -1    0    0  503    0 -0.00000000000E+00  0.00000000000E+00  0.78378661865E+03  0.78378661865E+03  0.00000000000E+00 0. -1.
         21   -1    0    0  501  502  0.00000000000E+00 -0.00000000000E+00 -0.81702974510E+03  0.81702974510E+03  0.00000000000E+00 0.  1.
         25    1    1    2    0    0 -0.17234833504E+03  0.18054139295E+03 -0.49036270461E+03  0.56425147339E+03  0.12500000000E+03 0.  0.
         21    1    1    2  503  502  0.13535715224E+03 -0.17294214908E+03 -0.24752644399E+03  0.33090767000E+03  0.00000000000E+00 0.  1.
          1    1    1    2  501    0  0.36991182794E+02 -0.75992438623E+01  0.70464602214E+03  0.70565722035E+03  0.00000000000E+00 0. -1.
<mgrwt>
<rscale>  4 0.50678348E+03</rscale>
<asrwt>0</asrwt>
<pdfrwt beam="1">  1       21 0.12569688E+00 0.50678348E+03</pdfrwt>
<pdfrwt beam="2">  1        1 0.12058256E+00 0.50678348E+03</pdfrwt>
<totfact> 0.10656562E+02</totfact>
</mgrwt>
</event>
<event>
 5    0  0.2396052E+000  0.5117605E+03  0.7546771E-02  0.1010754E+00
         21   -1    0    0  501  502  0.00000000000E+00  0.00000000000E+00  0.12263259897E+03  0.12263259897E+03  0.00000000000E+00 0.  1.
          2   -1    0    0  503    0 -0.00000000000E+00 -0.00000000000E+00 -0.10480539405E+04  0.10480539405E+04  0.00000000000E+00 0. -1.
         25    1    1    2    0    0 -0.82730683054E+02 -0.20102404891E+03 -0.24666391704E+03  0.35174297737E+03  0.12500000000E+03 0.  0.
         21    1    1    2  503  502  0.99175191469E+02  0.23702537133E+03 -0.16873878151E+03  0.30739147945E+03  0.00000000000E+00 0.  1.
          2    1    1    2  501    0 -0.16444508415E+02 -0.36001322420E+02 -0.51001864294E+03  0.51155208260E+03  0.00000000000E+00 0. -1.
<mgrwt>
<rscale>  4 0.51176052E+03</rscale>
<asrwt>0</asrwt>
<pdfrwt beam="1">  1       21 0.18866554E-01 0.51176052E+03</pdfrwt>
<pdfrwt beam="2">  1        2 0.16123907E+00 0.51176052E+03</pdfrwt>
<totfact> 0.75071316E+03</totfact>
</mgrwt>
</event>
<event>
 5    0  0.2396052E+000  0.3979053E+03  0.7546771E-02  0.1044507E+00
         21   -1    0    0  501  502  0.00000000000E+00  0.00000000000E+00  0.36532399665E+02  0.36532399665E+02  0.00000000000E+00 0. -1.
          2   -1    0    0  503    0 -0.00000000000E+00 -0.00000000000E+00 -0.23813985922E+04  0.23813985922E+04  0.00000000000E+00 0. -1.
         25    1    1    2    0    0  0.71427046966E+02 -0.22159510344E+03 -0.14423508344E+04  0.14663584632E+04  0.12500000000E+03 0.  0.
         21    1    1    2  503  502  0.46893032266E+02  0.70427588250E+02 -0.12666070931E+03  0.15232182032E+03  0.00000000000E+00 0.  1.
          2    1    1    2  501    0 -0.11832007923E+03  0.15116751519E+03 -0.77585464881E+03  0.79925070840E+03  0.00000000000E+00 0. -1.
<mgrwt>
<rscale>  4 0.39790531E+03</rscale>
<asrwt>0</asrwt>
<pdfrwt beam="1">  1       21 0.56203689E-02 0.39790531E+03</pdfrwt>
<pdfrwt beam="2">  1        2 0.36636903E+00 0.39790531E+03</pdfrwt>
<totfact> 0.12566896E+04</totfact>
</mgrwt>
</event>
<event>
 5    0  0.2396052E+000  0.5075179E+03  0.7546771E-02  0.1011835E+00
         21   -1    0    0  501  502  0.00000000000E+00  0.00000000000E+00  0.12661454004E+03  0.12661454004E+03  0.00000000000E+00 0. -1.
          2   -1    0    0  503    0 -0.00000000000E+00 -0.00000000000E+00 -0.25359142016E+04  0.25359142016E+04  0.00000000000E+00 0. -1.
         25    1    1    2    0    0 -0.21635992488E+03 -0.51399495439E+02 -0.23525876854E+03  0.34702336146E+03  0.12500000000E+03 0.  0.
         21    1    1    2  503  502  0.48362284310E+02  0.24673084190E+03 -0.19086699816E+03  0.31566632680E+03  0.00000000000E+00 0. -1.
          2    1    1    2  501    0  0.16799764057E+03 -0.19533134646E+03 -0.19831738948E+04  0.19998390533E+04  0.00000000000E+00 0. -1.
<mgrwt>
<rscale>  4 0.50751793E+03</rscale>
<asrwt>0</asrwt>
<pdfrwt beam="1">  1       21 0.19479160E-01 0.50751793E+03</pdfrwt>
<pdfrwt beam="2">  1        2 0.39014065E+00 0.50751793E+03</pdfrwt>
<totfact> 0.10594059E+03</totfact>
</mgrwt>
</event>
<event>
 5    0  0.2396052E+000  0.4340130E+03  0.7546771E-02  0.1032600E+00
          2   -1    0    0  503    0 -0.00000000000E+00  0.00000000000E+00  0.68155576026E+03  0.68155576026E+03  0.00000000000E+00 0. -1.
         21   -1    0    0  501  502  0.00000000000E+00 -0.00000000000E+00 -0.14464291645E+03  0.14464291645E+03  0.00000000000E+00 0. -1.
         25    1    1    2    0    0 -0.20845134389E+03  0.80622677432E+02  0.11420278581E+03  0.28039125374E+03  0.12500000000E+03 0.  0.
         21    1    1    2  503  502  0.17575525744E+03 -0.27644525365E+02  0.75858477345E+02  0.19341313008E+03  0.00000000000E+00 0. -1.
          2    1    1    2  501    0  0.32696086444E+02 -0.52978152067E+02  0.34685158065E+03  0.35239429289E+03  0.00000000000E+00 0. -1.
<mgrwt>
<rscale>  4 0.43401303E+03</rscale>
<asrwt>0</asrwt>
<pdfrwt beam="1">  1       21 0.22252757E-01 0.43401303E+03</pdfrwt>
<pdfrwt beam="2">  1        2 0.10485473E+00 0.43401303E+03</pdfrwt>
<totfact> 0.98630260E+03</totfact>
</mgrwt>
</event>
<event>
 5    0  0.2396052E+000  0.6114649E+03  0.7546771E-02  0.9881901E-01
          2   -1    0    0  503    0 -0.00000000000E+00  0.00000000000E+00  0.22122987660E+04  0.22122987660E+04  0.00000000000E+00 0.  1.
         21   -1    0    0  501  502  0.00000000000E+00 -0.00000000000E+00 -0.25111252814E+03  0.25111252814E+03  0.00000000000E+00 0. -1.
         25    1    1    2    0    0 -0.26698386388E+03  0.10210192697E+03 -0.67944803921E+02  0.31929090723E+03  0.12500000000E+03 0.  0.
         21    1    1    2  503  502 -0.13157811946E+03 -0.14991587038E+03  0.24773761073E+03  0.31805894656E+03  0.00000000000E+00 0.  1.
          2    1    1    2  501    0  0.39856198333E+03  0.47813943413E+02  0.17813934310E+04  0.18260614403E+04  0.00000000000E+00 0.  1.
<mgrwt>
<rscale>  4 0.61146495E+03</rscale>
<asrwt>0</asrwt>
<pdfrwt beam="1">  1       21 0.38632698E-01 0.61146495E+03</pdfrwt>
<pdfrwt beam="2">  1        2 0.34035364E+00 0.61146495E+03</pdfrwt>
<totfact> 0.40240979E+02</totfact>
</mgrwt>
</event>
<event>
 5    0  0.2396052E+000  0.4340850E+03  0.7546771E-02  0.1032577E+00
         21   -1    0    0  501  502  0.00000000000E+00  0.00000000000E+00  0.14359030529E+03  0.14359030529E+03  0.00000000000E+00 0. -1.
          2   -1    0    0  503    0 -0.00000000000E+00 -0.00000000000E+00 -0.45566791230E+03  0.45566791230E+03  0.00000000000E+00 0. -1.
         25    1    1    2    0    0  0.92839511201E+02 -0.17754299180E+03 -0.86414146972E+02  0.25146191277E+03  0.12500000000E+03 0.  0.
         21    1    1    2  503  502 -0.67557237758E+02  0.18489602244E+03 -0.10267211956E+03  0.22201820561E+03  0.00000000000E+00 0. -1.
          2    1    1    2  501    0 -0.25282273442E+02 -0.73530306387E+01 -0.12299134047E+03  0.12577809921E+03  0.00000000000E+00 0. -1.
<mgrwt>
<rscale>  4 0.43408502E+03</rscale>
<asrwt>0</asrwt>
<pdfrwt beam="1">  1       21 0.22090817E-01 0.43408502E+03</pdfrwt>
<pdfrwt beam="2">  1        2 0.70102754E-01 0.43408502E+03</pdfrwt>
<totfact> 0.16024063E+04</totfact>
</mgrwt>
</event>
<event>
 5    0  0.2396052E+000  0.4017038E+03  0.7546771E-02  0.1043191E+00
         21   -1    0    0  501  502  0.00000000000E+00  0.00000000000E+00  0.63959955401E+03  0.63959955401E+03  0.00000000000E+00 0.  1.
         -1   -1    0    0    0  501 -0.00000000000E+00 -0.00000000000E+00 -0.13198742109E+03  0.13198742109E+03  0.00000000000E+00 0.  1.
         25    1    1    2    0    0 -0.21513415296E+03 -0.43193409098E+02  0.47693326502E+03  0.53966537192E+03  0.12500000000E+03 0.  0.
         21    1    1    2  503  502  0.85324441257E+02  0.50302442205E+02  0.23041689928E+02  0.10169324187E+03  0.00000000000E+00 0. -1.
         -1    1    1    2    0  503  0.12980971170E+03 -0.71090331070E+01  0.76371779685E+01  0.13022836132E+03  0.00000000000E+00 0.  1.
<mgrwt>
<rscale>  4 0.40170377E+03</rscale>
<asrwt>0</asrwt>
<pdfrwt beam="1">  1       21 0.98399930E-01 0.40170377E+03</pdfrwt>
<pdfrwt beam="2">  1       -1 0.20305757E-01 0.40170377E+03</pdfrwt>
<totfact> 0.14348401E+03</totfact>
</mgrwt>
</event>
<event>
 5    0  0.2396052E+000  0.6115030E+03  0.7546771E-02  0.9881824E-01
         21   -1    0    0  501  502  0.00000000000E+00  0.00000000000E+00  0.11721055842E+04  0.11721055842E+04  0.00000000000E+00 0.  1.
          1   -1    0    0  503    0 -0.00000000000E+00 -0.00000000000E+00 -0.32032002756E+03  0.32032002756E+03  0.00000000000E+00 0.  1.
         25    1    1    2    0    0  0.22268861413E+03  0.45702547214E+03  0.80420240943E+03  0.95959836202E+03  0.12500000000E+03 0.  0.
         21    1    1    2  503  502 -0.61803667159E+02 -0.41568376866E+02  0.45541398285E+02  0.87302017086E+02  0.00000000000E+00 0. -1.
          1    1    1    2  501    0 -0.16088494698E+03 -0.41545709528E+03  0.20417488959E+01  0.44552523264E+03  0.00000000000E+00 0.  1.
<mgrwt>
<rscale>  4 0.61150296E+03</rscale>
<asrwt>0</asrwt>
<pdfrwt beam="1">  1       21 0.18032393E+00 0.61150296E+03</pdfrwt>
<pdfrwt beam="2">  1        1 0.49280005E-01 0.61150296E+03</pdfrwt>
<totfact> 0.13256411E+02</totfact>
</mgrwt>
</event>
<event>
 5    0  0.2396052E+000  0.5231729E+03  0.7546771E-02  0.1007901E+00
          2   -1    0    0  503    0 -0.00000000000E+00  0.00000000000E+00  0.28210910815E+03  0.28210910815E+03  0.00000000000E+00 0. -1.
         21   -1    0    0  501  502  0.00000000000E+00 -0.00000000000E+00 -0.20468998022E+04  0.20468998022E+04  0.00000000000E+00 0. -1.
         25    1    1    2    0    0 -0.12644844714E+03  0.17613730795E+03 -0.18320800620E+04  0.18490959722E+04  0.12500000000E+03 0.  0.
         21    1    1    2  503  502 -0.13229895507E+02 -0.13613485574E+03 -0.15978686967E+03  0.21033205367E+03  0.00000000000E+00 0.  1.
          2    1    1    2  501    0  0.13967834264E+03 -0.40002452212E+02  0.22707623758E+03  0.26958088445E+03  0.00000000000E+00 0. -1.
<mgrwt>
<rscale>  4 0.52317294E+03</rscale>
<asrwt>0</asrwt>
<pdfrwt beam="1">  1       21 0.31490765E+00 0.52317294E+03</pdfrwt>
<pdfrwt beam="2">  1        2 0.43401402E-01 0.52317294E+03</pdfrwt>
<totfact> 0.31761200E+01</totfact>
</mgrwt>
</event>
<event>
 5    0  0.2396052E+000  0.4868232E+03  0.7546771E-02  0.1017277E+00
         21   -1    0    0  501  502  0.00000000000E+00  0.00000000000E+00  0.50302997634E+03  0.50302997634E+03  0.00000000000E+00 0.  1.
         -2   -1    0    0    0  501 -0.00000000000E+00 -0.00000000000E+00 -0.26196750831E+03  0.26196750831E+03  0.00000000000E+00 0.  1.
         25    1    1    2    0    0 -0.17891232849E+03 -0.13415453406E+03  0.35047431599E+03  0.43412475910E+03  0.12500000000E+03 0.  0.
         21    1    1    2  503  502  0.13669355371E+03  0.11938074212E+03  0.30459481104E+02  0.18402355611E+03  0.00000000000E+00 0.  1.
         -2    1    1    2    0  503  0.42218774776E+02  0.14773791949E+02 -0.13987132906E+03  0.14684916944E+03  0.00000000000E+00 0.  1.
<mgrwt>
<rscale>  4 0.48682315E+03</rscale>
<asrwt>0</asrwt>
<pdfrwt beam="1">  1       21 0.77389227E-01 0.48682315E+03</pdfrwt>
<pdfrwt beam="2">  1       -2 0.40302694E-01 0.48682315E+03</pdfrwt>
<totfact> 0.64891248E+02</totfact>
</mgrwt>
</event>
<event>
 5    0  0.2396052E+000  0.5483588E+03  0.7546771E-02  0.1001875E+00
          2   -1    0    0  503    0 -0.00000000000E+00  0.00000000000E+00  0.19097151639E+04  0.19097151639E+04  0.00000000000E+00 0. -1.
         21   -1    0    0  501  502  0.00000000000E+00 -0.00000000000E+00 -0.37856539732E+03  0.37856539732E+03  0.00000000000E+00 0.  1.
         25    1    1    2    0    0  0.20892957878E+03 -0.17413960958E+02  0.96750653144E+02  0.26256523724E+03  0.12500000000E+03 0.  0.
         21    1    1    2  503  502 -0.14960483591E+03 -0.19519213035E+02 -0.27565048727E+03  0.31423844090E+03  0.00000000000E+00 0.  1.
          2    1    1    2  501    0 -0.59324742864E+02  0.36933173993E+02  0.17100496007E+04  0.17114768830E+04  0.00000000000E+00 0. -1.
<mgrwt>
<rscale>  4 0.54835876E+03</rscale>
<asrwt>0</asrwt>
<pdfrwt beam="1">  1       21 0.58240831E-01 0.54835876E+03</pdfrwt>
<pdfrwt beam="2">  1        2 0.29380233E+00 0.54835876E+03</pdfrwt>
<totfact> 0.24984083E+02</totfact>
</mgrwt>
</event>
<event>
 5    0  0.2396052E+000  0.4606047E+03  0.7546771E-02  0.1024606E+00
         21   -1    0    0  501  502  0.00000000000E+00  0.00000000000E+00  0.70047567305E+03  0.70047567305E+03  0.00000000000E+00 0.  1.
          2   -1    0    0  503    0 -0.00000000000E+00 -0.00000000000E+00 -0.18159888350E+03  0.18159888350E+03  0.00000000000E+00 0. -1.
         25    1    1    2    0    0  0.96266726103E+02  0.19238790685E+03  0.22898445810E+03  0.33814090452E+03  0.12500000000E+03 0.  0.
         21    1    1    2  503  502 -0.80863101478E+02 -0.16995119689E+03  0.39383056019E+03  0.43649142104E+03  0.00000000000E+00 0.  1.
          2    1    1    2  501    0 -0.15403624625E+02 -0.22436709962E+02 -0.10393822874E+03  0.10744223099E+03  0.00000000000E+00 0. -1.
<mgrwt>
<rscale>  4 0.46060470E+03</rscale>
<asrwt>0</asrwt>
<pdfrwt beam="1">  1       21 0.10776549E+00 0.46060470E+03</pdfrwt>
<pdfrwt beam="2">  1        2 0.27938290E-01 0.46060470E+03</pdfrwt>
<totfact> 0.14783428E+03</totfact>
</mgrwt>
</event>
<event>
 5    0  0.2396052E+000  0.4248941E+03  0.7546771E-02  0.1035485E+00
          2   -1    0    0  503    0 -0.00000000000E+00  0.00000000000E+00  0.85835126837E+03  0.85835126837E+03  0.00000000000E+00 0.  1.
         21   -1    0    0  501  502  0.00000000000E+00 -0.00000000000E+00 -0.12391968091E+03  0.12391968091E+03  0.00000000000E+00 0.  1.
         25    1    1    2    0    0 -0.58575957062E+02  0.20131328792E+03  0.71153839038E+02  0.25425587791E+03  0.12500000000E+03 0.  0.
         21    1    1    2  503  502  0.65501536193E+02 -0.14519553784E+03  0.17564358019E+03  0.23711360718E+03  0.00000000000E+00 0.  1.
          2    1    1    2  501    0 -0.69255791315E+01 -0.56117750086E+02  0.48763416823E+03  0.49090146419E+03  0.00000000000E+00 0.  1.
<mgrwt>
<rscale>  4 0.42489411E+03</rscale>
<asrwt>0</asrwt>
<pdfrwt beam="1">  1       21 0.19064567E-01 0.42489411E+03</pdfrwt>
<pdfrwt beam="2">  1        2 0.13205404E+00 0.42489411E+03</pdfrwt>
<totfact> 0.98716121E+03</totfact>
</mgrwt>
</event>
<event>
 5    0  0.2396052E+000  0.5336657E+03  0.7546771E-02  0.1005347E+00
          2   -1    0    0  503    0 -0.00000000000E+00  0.00000000000E+00  0.17244039403E+04  0.17244039403E+04  0.00000000000E+00 0.  1.
         21   -1    0    0  501  502  0.00000000000E+00 -0.00000000000E+00 -0.85600808749E+02  0.85600808749E+02  0.00000000000E+00 0. -1.
         25    1    1    2    0    0  0.23979301959E+03 -0.26369439764E+02  0.18453617360E+03  0.32844274839E+03  0.12500000000E+03 0.  0.
         21    1    1    2  503  502 -0.14710023693E+03 -0.45411178480E+02  0.60681483030E+03  0.62603905078E+03  0.00000000000E+00 0.  1.
          2    1    1    2  501    0 -0.92692782659E+02  0.71780618243E+02  0.84745212767E+03  0.85552294990E+03  0.00000000000E+00 0.  1.
<mgrwt>
<rscale>  4 0.53366571E+03</rscale>
<asrwt>0</asrwt>
<pdfrwt beam="1">  1       21 0.13169357E-01 0.53366571E+03</pdfrwt>
<pdfrwt beam="2">  1        2 0.26529289E+00 0.53366571E+03</pdfrwt>
<totfact> 0.60700411E+03</totfact>
</mgrwt>
</event>
<event>
 5    0  0.2396052E+000  0.4299107E+03  0.7546771E-02  0.1033888E+00
         21   -1    0    0  501  502  0.00000000000E+00  0.00000000000E+00  0.35282111037E+03  0.35282111037E+03  0.00000000000E+00 0.  1.
         -3   -1    0    0    0  501 -0.00000000000E+00 -0.00000000000E+00 -0.32098504825E+03  0.32098504825E+03  0.00000000000E+00 0.  1.
         25    1    1    2    0    0 -0.29110370855E+03  0.81749241888E+02  0.62896747681E+02  0.33317459170E+03  0.12500000000E+03 0.  0.
         21    1    1    2  503  502  0.95828780630E+02 -0.12821634780E+02  0.60669265231E+02  0.11414161931E+03  0.00000000000E+00 0. -1.
         -3    1    1    2    0  503  0.19527492792E+03 -0.68927607108E+02 -0.91729950798E+02  0.22648994762E+03  0.00000000000E+00 0.  1.
<mgrwt>
<rscale>  4 0.42991073E+03</rscale>
<asrwt>0</asrwt>
<pdfrwt beam="1">  1       21 0.54280171E-01 0.42991073E+03</pdfrwt>
<pdfrwt beam="2">  1       -3 0.49382315E-01 0.42991073E+03</pdfrwt>
<totfact> 0.62859484E+02</totfact>
</mgrwt>
</event>
<event>
 5    0  0.2396052E+000  0.6025999E+03  0.7546771E-02  0.9900027E-01
         21   -1    0    0  501  502  0.00000000000E+00  0.00000000000E+00  0.10380228796E+04  0.10380228796E+04  0.00000000000E+00 0. -1.
          2   -1    0    0  503    0 -0.00000000000E+00 -0.00000000000E+00 -0.19902853225E+04  0.19902853225E+04  0.00000000000E+00 0.  1.
         25    1    1    2    0    0 -0.25040870962E+03 -0.25698895408E+03  0.96345994279E+03  0.10356775105E+04  0.12500000000E+03 0.  0.
         21    1    1    2  503  502  0.62175919156E+02  0.44202637877E+02 -0.24405375515E+02  0.80095820566E+02  0.00000000000E+00 0.  1.
          2    1    1    2  501    0  0.18823279047E+03  0.21278631620E+03 -0.18913170102E+04  0.19125348710E+04  0.00000000000E+00 0.  1.
<mgrwt>
<rscale>  4 0.60259991E+03</rscale>
<asrwt>0</asrwt>
<pdfrwt beam="1">  1       21 0.15969583E+00 0.60259991E+03</pdfrwt>
<pdfrwt beam="2">  1        2 0.30619774E+00 0.60259991E+03</pdfrwt>
<totfact> 0.18840436E+01</totfact>
</mgrwt>
</event>
<event>
 5    0  0.2396052E+000  0.4873961E+03  0.7546771E-02  0.1017122E+00
          2   -1    0    0  503    0 -0.00000000000E+00  0.00000000000E+00  0.35705722481E+03  0.35705722481E+03  0.00000000000E+00 0.  1.
         21   -1    0    0  501  502  0.00000000000E+00 -0.00000000000E+00 -0.68549979364E+03  0.68549979364E+03  0.00000000000E+00 0.  1.
         25    1    1    2    0    0 -0.20783854817E+03 -0.32794009655E+02 -0.26279681360E+03  0.35910927921E+03  0.12500000000E+03 0.  0.
         21    1    1    2  503  502  0.11946092395E+03  0.21061756525E+03 -0.29396975607E+03  0.38085284379E+03  0.00000000000E+00 0.  1.
          2    1    1    2  501    0  0.88377624226E+02 -0.17782355559E+03  0.22832400085E+03  0.30259489545E+03  0.00000000000E+00 0.  1.
<mgrwt>
<rscale>  4 0.48739607E+03</rscale>
<asrwt>0</asrwt>
<pdfrwt beam="1">  1       21 0.10546151E+00 0.48739607E+03</pdfrwt>
<pdfrwt beam="2">  1        2 0.54931881E-01 0.48739607E+03</pdfrwt>
<totfact> 0.73352412E+02</totfact>
</mgrwt>
</event>
<event>
 5    0  0.2396052E+000  0.5647677E+03  0.7546771E-02  0.9981324E-01
         21   -1    0    0  501  502  0.00000000000E+00  0.00000000000E+00  0.83781205984E+02  0.83781205984E+02  0.00000000000E+00 0.  1.
          2   -1    0    0  503    0 -0.00000000000E+00 -0.00000000000E+00 -0.15274501768E+04  0.15274501768E+04  0.00000000000E+00 0.  1.
         25    1    1    2    0    0  0.18498882102E+03  0.17930942961E+03 -0.31811502678E+03  0.42801274012E+03  0.12500000000E+03 0.  0.
         21    1    1    2  503  502 -0.15883914014E+03 -0.20240293537E+03 -0.55651822159E+03  0.61311446863E+03  0.00000000000E+00 0.  1.
          2    1    1    2  501    0 -0.26149680882E+02  0.23093505762E+02 -0.56903572240E+03  0.57010417398E+03  0.00000000000E+00 0.  1.
<mgrwt>
<rscale>  4 0.56476769E+03</rscale>
<asrwt>0</asrwt>
<pdfrwt beam="1">  1       21 0.12889417E-01 0.56476769E+03</pdfrwt>
<pdfrwt beam="2">  1        2 0.23499232E+00 0.56476769E+03</pdfrwt>
<totfact> 0.80445847E+03</totfact>
</mgrwt>
</event>
<event>
 5    0  0.2396052E+000  0.4215006E+03  0.7546771E-02  0.1036579E+00
         21   -1    0    0  501  502  0.00000000000E+00  0.00000000000E+00  0.62311637591E+03  0.62311637591E+03  0.00000000000E+00 0.  1.
          1   -1    0    0  503    0 -0.00000000000E+00 -0.00000000000E+00 -0.25460999431E+03  0.25460999431E+03  0.00000000000E+00 0. -1.
         25    1    1    2    0    0 -0.73026423191E+02 -0.20649174670E+03  0.45368220170E+03  0.51906092135E+03  0.12500000000E+03 0.  0.
         21    1    1    2  503  502  0.81388771684E+02 -0.46518283623E+02 -0.83477026241E+01  0.94115710732E+02  0.00000000000E+00 0. -1.
          1    1    1    2  501    0 -0.83623484929E+01  0.25301003032E+03 -0.76828117465E+02  0.26454973814E+03  0.00000000000E+00 0. -1.
<mgrwt>
<rscale>  4 0.42150061E+03</rscale>
<asrwt>0</asrwt>
<pdfrwt beam="1">  1       21 0.95864057E-01 0.42150061E+03</pdfrwt>
<pdfrwt beam="2">  1        1 0.39170769E-01 0.42150061E+03</pdfrwt>
<totfact> 0.98627893E+02</totfact>
</mgrwt>
</event>
<event>
 5    0  0.2396052E+000  0.3609585E+03  0.7546771E-02  0.1058205E+00
         21   -1    0    0  501  502  0.00000000000E+00  0.00000000000E+00  0.11700960134E+04  0.11700960134E+04  0.00000000000E+00 0. -1.
          1   -1    0    0  503    0 -0.00000000000E+00 -0.00000000000E+00 -0.97470109479E+02  0.97470109479E+02  0.00000000000E+00 0.  1.
         25    1    1    2    0    0 -0.18879623785E+03 -0.79726868397E+02  0.94170562361E+03  0.97182039210E+03  0.12500000000E+03 0.  0.
         21    1    1    2  503  502  0.79385381046E+02 -0.32791255885E+02  0.10665176580E+03  0.13693759284E+03  0.00000000000E+00 0.  1.
          1    1    1    2  501    0  0.10941085680E+03  0.11251812428E+03  0.24268514522E+02  0.15880813794E+03  0.00000000000E+00 0.  1.
<mgrwt>
<rscale>  4 0.36095852E+03</rscale>
<asrwt>0</asrwt>
<pdfrwt beam="1">  1       21 0.18001476E+00 0.36095852E+03</pdfrwt>
<pdfrwt beam="2">  1        1 0.14995402E-01 0.36095852E+03</pdfrwt>
<totfact> 0.67151848E+02</totfact>
</mgrwt>
</event>
<event>
 5    0  0.2396052E+000  0.4076043E+03  0.7546771E-02  0.1041178E+00
          2   -1    0    0  503    0 -0.00000000000E+00  0.00000000000E+00  0.11912301080E+04  0.11912301080E+04  0.00000000000E+00 0.  1.
         21   -1    0    0  501  502  0.00000000000E+00 -0.00000000000E+00 -0.14125240840E+03  0.14125240840E+03  0.00000000000E+00 0. -1.
         25    1    1    2    0    0 -0.13240017760E+03  0.22927953673E+03  0.68383917944E+02  0.30066638194E+03  0.12500000000E+03 0.  0.
         21    1    1    2  503  502 -0.16006636979E+02 -0.81591920719E+02  0.12588594321E+03  0.15086657897E+03  0.00000000000E+00 0.  1.
          2    1    1    2  501    0  0.14840681458E+03 -0.14768761602E+03  0.85570783849E+03  0.88094955553E+03  0.00000000000E+00 0.  1.
<mgrwt>
<rscale>  4 0.40760426E+03</rscale>
<asrwt>0</asrwt>
<pdfrwt beam="1">  1       21 0.21731141E-01 0.40760426E+03</pdfrwt>
<pdfrwt beam="2">  1        2 0.18326616E+00 0.40760426E+03</pdfrwt>
<totfact> 0.47923338E+03</totfact>
</mgrwt>
</event>
<event>
 5    0  0.2396052E+000  0.3312373E+03  0.7546771E-02  0.1070591E+00
          1   -1    0    0  503    0 -0.00000000000E+00  0.00000000000E+00  0.14955221875E+04  0.14955221875E+04  0.00000000000E+00 0.  1.
         21   -1    0    0  501  502  0.00000000000E+00 -0.00000000000E+00 -0.53318661622E+02  0.53318661622E+02  0.00000000000E+00 0. -1.
         25    1    1    2    0    0  0.14350114118E+03  0.14977127988E+03  0.42976153211E+03  0.49329908603E+03  0.12500000000E+03 0.  0.
         21    1    1    2  503  502  0.24274891675E+02 -0.85592872582E+02  0.14840945191E+03  0.17303403023E+03  0.00000000000E+00 0.  1.
          1    1    1    2  501    0 -0.16777603285E+03 -0.64178407300E+02  0.86403254185E+03  0.88250773285E+03  0.00000000000E+00 0.  1.
<mgrwt>
<rscale>  4 0.33123728E+03</rscale>
<asrwt>0</asrwt>
<pdfrwt beam="1">  1       21 0.82028721E-02 0.33123728E+03</pdfrwt>
<pdfrwt beam="2">  1        1 0.23008031E+00 0.33123728E+03</pdfrwt>
<totfact> 0.90423914E+03</totfact>
</mgrwt>
</event>
<event>
 5    0  0.2396052E+000  0.4342798E+03  0.7546771E-02  0.1032516E+00
         21   -1    0    0  501  502  0.00000000000E+00  0.00000000000E+00  0.47768158460E+02  0.47768158460E+02  0.00000000000E+00 0. -1.
          2   -1    0    0  503    0 -0.00000000000E+00 -0.00000000000E+00 -0.17489203919E+04  0.17489203919E+04  0.00000000000E+00 0.  1.
         25    1    1    2    0    0  0.27523553344E+02 -0.20639292536E+03 -0.57196586953E+03  0.62139000760E+03  0.12500000000E+03 0.  0.
         21    1    1    2  503  502 -0.33307926185E+02  0.18691900437E+03 -0.37027215553E+03  0.41611248636E+03  0.00000000000E+00 0. -1.
          2    1    1    2  501    0  0.57843728409E+01  0.19473920994E+02 -0.75891420840E+03  0.75918605643E+03  0.00000000000E+00 0.  1.
<mgrwt>
<rscale>  4 0.43427978E+03</rscale>
<asrwt>0</asrwt>
<pdfrwt beam="1">  1       21 0.73489474E-02 0.43427978E+03</pdfrwt>
<pdfrwt beam="2">  1        2 0.26906468E+00 0.43427978E+03</pdfrwt>
<totfact> 0.17106656E+04</totfact>
</mgrwt>
</event>
<event>
 5    0  0.2396052E+000  0.4630979E+03  0.7546771E-02  0.1023887E+00
          1   -1    0    0  503    0 -0.00000000000E+00  0.00000000000E+00  0.67422802888E+03  0.67422802888E+03  0.00000000000E+00 0.  1.
         21   -1    0    0  501  502  0.00000000000E+00 -0.00000000000E+00 -0.17505375523E+03  0.17505375523E+03  0.00000000000E+00 0.  1.
         25    1    1    2    0    0 -0.37421553446E+02 -0.20174356671E+03  0.21943597774E+03  0.32538897907E+03  0.12500000000E+03 0.  0.
         21    1    1    2  503  502  0.51414029692E+02  0.12885258985E+03 -0.77578249889E+02  0.15894897677E+03  0.00000000000E+00 0.  1.
          1    1    1    2  501    0 -0.13992476246E+02  0.72890976863E+02  0.35731654580E+03  0.36494382828E+03  0.00000000000E+00 0.  1.
<mgrwt>
<rscale>  4 0.46309787E+03</rscale>
<asrwt>0</asrwt>
<pdfrwt beam="1">  1       21 0.26931347E-01 0.46309787E+03</pdfrwt>
<pdfrwt beam="2">  1        1 0.10372739E+00 0.46309787E+03</pdfrwt>
<totfact> 0.40835173E+03</totfact>
</mgrwt>
</event>
<event>
 5    0  0.2396052E+000  0.8248484E+03  0.7546771E-02  0.9524731E-01
         21   -1    0    0  501  502  0.00000000000E+00  0.00000000000E+00  0.11863452316E+04  0.11863452316E+04  0.00000000000E+00 0. -1.
         -2   -1    0    0    0  501 -0.00000000000E+00 -0.00000000000E+00 -0.25714051157E+03  0.25714051157E+03  0.00000000000E+00 0. -1.
         25    1    1    2    0    0  0.24235438466E+03 -0.28064286109E+03  0.33187912738E+03  0.51309338179E+03  0.12500000000E+03 0.  0.
         21    1    1    2  503  502 -0.24309005681E+03  0.32045437014E+03  0.70716874531E+03  0.81355480049E+03  0.00000000000E+00 0. -1.
         -2    1    1    2    0  503  0.73567214939E+00 -0.39811509046E+02 -0.10984315262E+03  0.11683756093E+03  0.00000000000E+00 0. -1.
<mgrwt>
<rscale>  4 0.82484842E+03</rscale>
<asrwt>0</asrwt>
<pdfrwt beam="1">  1       21 0.18251465E+00 0.82484842E+03</pdfrwt>
<pdfrwt beam="2">  1       -2 0.39560079E-01 0.82484842E+03</pdfrwt>
<totfact> 0.68804448E+01</totfact>
</mgrwt>
</event>
<event>
 5    0  0.2396052E+000  0.3724794E+03  0.7546771E-02  0.1053749E+00
          4   -1    0    0  503    0 -0.00000000000E+00  0.00000000000E+00  0.68298538219E+02  0.68298538219E+02  0.00000000000E+00 0.  1.
         21   -1    0    0  501  502  0.00000000000E+00 -0.00000000000E+00 -0.11045012348E+04  0.11045012348E+04  0.00000000000E+00 0.  1.
         25    1    1    2    0    0  0.17435056648E+03  0.15007401408E+03 -0.68461119596E+03  0.73296508741E+03  0.12500000000E+03 0.  0.
         21    1    1    2  503  502 -0.98648720445E+02 -0.49615881910E+02 -0.26510568235E+03  0.28718344067E+03  0.00000000000E+00 0. -1.
          4    1    1    2  501    0 -0.75701846039E+02 -0.10045813217E+03 -0.86485818241E+02  0.15265124490E+03  0.00000000000E+00 0.  1.
<mgrwt>
<rscale>  4 0.37247936E+03</rscale>
<asrwt>0</asrwt>
<pdfrwt beam="1">  1       21 0.16992327E+00 0.37247936E+03</pdfrwt>
<pdfrwt beam="2">  1        4 0.10507467E-01 0.37247936E+03</pdfrwt>
<totfact> 0.60702298E+02</totfact>
</mgrwt>
</event>
<event>
 5    0  0.2396052E+000  0.4938532E+03  0.7546771E-02  0.1015396E+00
         21   -1    0    0  501  502  0.00000000000E+00  0.00000000000E+00  0.13940844953E+03  0.13940844953E+03  0.00000000000E+00 0. -1.
          1   -1    0    0  503    0 -0.00000000000E+00 -0.00000000000E+00 -0.69807807335E+03  0.69807807335E+03  0.00000000000E+00 0.  1.
         25    1    1    2    0    0  0.15434684405E+03  0.15264573636E+03 -0.43168781304E+02  0.25418932467E+03  0.12500000000E+03 0.  0.
         21    1    1    2  503  502 -0.15666859856E+03 -0.42311916949E+02 -0.32008223997E+03  0.35887043404E+03  0.00000000000E+00 0.  1.
          1    1    1    2  501    0  0.23217545066E+01 -0.11033381941E+03 -0.19541860255E+03  0.22442676416E+03  0.00000000000E+00 0.  1.
<mgrwt>
<rscale>  4 0.49385318E+03</rscale>
<asrwt>0</asrwt>
<pdfrwt beam="1">  1       21 0.21447454E-01 0.49385318E+03</pdfrwt>
<pdfrwt beam="2">  1        1 0.10739663E+00 0.49385318E+03</pdfrwt>
<totfact> 0.60064120E+03</totfact>
</mgrwt>
</event>
<event>
 5    0  0.2396052E+000  0.5899378E+03  0.7546771E-02  0.9926505E-01
         21   -1    0    0  501  502  0.00000000000E+00  0.00000000000E+00  0.76139479374E+02  0.76139479374E+02  0.00000000000E+00 0. -1.
          1   -1    0    0  503    0 -0.00000000000E+00 -0.00000000000E+00 -0.21404175207E+04  0.21404175207E+04  0.00000000000E+00 0. -1.
         25    1    1    2    0    0 -0.25499268820E+03  0.53977464495E+02 -0.89482309227E+03  0.94035536058E+03  0.12500000000E+03 0.  0.
         21    1    1    2  503  502  0.21257259636E+03 -0.62989872227E+02 -0.17940786947E+03  0.28520521796E+03  0.00000000000E+00 0. -1.
          1    1    1    2  501    0  0.42420091839E+02  0.90124077320E+01 -0.99004707955E+03  0.99099642150E+03  0.00000000000E+00 0. -1.
<mgrwt>
<rscale>  4 0.58993777E+03</rscale>
<asrwt>0</asrwt>
<pdfrwt beam="1">  1       21 0.11713767E-01 0.58993777E+03</pdfrwt>
<pdfrwt beam="2">  1        1 0.32929497E+00 0.58993777E+03</pdfrwt>
<totfact> 0.16889476E+03</totfact>
</mgrwt>
</event>
<event>
 5    0  0.2396052E+000  0.6892369E+03  0.7546771E-02  0.9735818E-01
         21   -1    0    0  501  502  0.00000000000E+00  0.00000000000E+00  0.22849311328E+03  0.22849311328E+03  0.00000000000E+00 0. -1.
          2   -1    0    0  503    0 -0.00000000000E+00 -0.00000000000E+00 -0.13547323158E+04  0.13547323158E+04  0.00000000000E+00 0. -1.
         25    1    1    2    0    0  0.49095722891E+01 -0.26638375357E+03 -0.33719846617E+03  0.44756252486E+03  0.12500000000E+03 0.  0.
         21    1    1    2  503  502  0.22418977460E+03  0.23525896485E+03 -0.12260797415E+02  0.32520480121E+03  0.00000000000E+00 0. -1.
          2    1    1    2  501    0 -0.22909934689E+03  0.31124788720E+02 -0.77677993895E+03  0.81045810303E+03  0.00000000000E+00 0. -1.
<mgrwt>
<rscale>  4 0.68923694E+03</rscale>
<asrwt>0</asrwt>
<pdfrwt beam="1">  1       21 0.35152786E-01 0.68923694E+03</pdfrwt>
<pdfrwt beam="2">  1        2 0.20842036E+00 0.68923694E+03</pdfrwt>
<totfact> 0.14187268E+03</totfact>
</mgrwt>
</event>
<event>
 5    0  0.2396052E+000  0.4660535E+03  0.7546771E-02  0.1023040E+00
         -2   -1    0    0    0  501 -0.00000000000E+00  0.00000000000E+00  0.11010432184E+04  0.11010432184E+04  0.00000000000E+00 0.  1.
         21   -1    0    0  501  502  0.00000000000E+00 -0.00000000000E+00 -0.13450356647E+03  0.13450356647E+03  0.00000000000E+00 0.  1.
         25    1    1    2    0    0  0.16707270402E+03 -0.14119679277E+03  0.91487420394E+02  0.26803874871E+03  0.12500000000E+03 0.  0.
         21    1    1    2  503  502 -0.14427817723E+03  0.14328734823E+03  0.17847977164E+03  0.27055957842E+03  0.00000000000E+00 0.  1.
         -2    1    1    2    0  503 -0.22794526793E+02 -0.20905554633E+01  0.69657245988E+03  0.69694845773E+03  0.00000000000E+00 0.  1.
<mgrwt>
<rscale>  4 0.46605351E+03</rscale>
<asrwt>0</asrwt>
<pdfrwt beam="1">  1       21 0.20692857E-01 0.46605351E+03</pdfrwt>
<pdfrwt beam="2">  1       -2 0.16939126E+00 0.46605351E+03</pdfrwt>
<totfact> 0.38451177E+02</totfact>
</mgrwt>
</event>
<event>
 5    0  0.2396052E+000  0.4753581E+03  0.7546771E-02  0.1020419E+00
          2   -1    0    0  503    0 -0.00000000000E+00  0.00000000000E+00  0.13416154434E+04  0.13416154434E+04  0.00000000000E+00 0. -1.
         21   -1    0    0  501  502  0.00000000000E+00 -0.00000000000E+00 -0.16355864778E+03  0.16355864778E+03  0.00000000000E+00 0. -1.
         25    1    1    2    0    0  0.28978730603E+03 -0.16742000791E+03  0.28672129398E+03  0.45808322629E+03  0.12500000000E+03 0.  0.
         21    1    1    2  503  502  0.25095434551E+02 -0.11422109381E+03  0.11949431358E+03  0.16719787703E+03  0.00000000000E+00 0. -1.
          2    1    1    2  501    0 -0.31488274058E+03  0.28164110172E+03  0.77184118810E+03  0.87989298790E+03  0.00000000000E+00 0. -1.
<mgrwt>
<rscale>  4 0.47535812E+03</rscale>
<asrwt>0</asrwt>
<pdfrwt beam="1">  1       21 0.25162870E-01 0.47535812E+03</pdfrwt>
<pdfrwt beam="2">  1        2 0.20640237E+00 0.47535812E+03</pdfrwt>
<totfact> 0.29218884E+03</totfact>
</mgrwt>
</event>
<event>
 5    0  0.2396052E+000  0.5469770E+03  0.7546771E-02  0.1002196E+00
         21   -1    0    0  501  502  0.00000000000E+00  0.00000000000E+00  0.63763061583E+03  0.63763061583E+03  0.00000000000E+00 0. -1.
          1   -1    0    0  503    0 -0.00000000000E+00 -0.00000000000E+00 -0.20853902312E+03  0.20853902312E+03  0.00000000000E+00 0. -1.
         25    1    1    2    0    0 -0.24899818522E+03  0.61291221057E+02  0.16684281120E+03  0.33048182048E+03  0.12500000000E+03 0.  0.
         21    1    1    2  503  502  0.23192646522E+03 -0.41151769430E+02  0.35121362241E+03  0.42288811991E+03  0.00000000000E+00 0.  1.
          1    1    1    2  501    0  0.17071719999E+02 -0.20139451627E+02 -0.88964840893E+02  0.92799698548E+02  0.00000000000E+00 0. -1.
<mgrwt>
<rscale>  4 0.54697696E+03</rscale>
<asrwt>0</asrwt>
<pdfrwt beam="1">  1       21 0.98097017E-01 0.54697696E+03</pdfrwt>
<pdfrwt beam="2">  1        1 0.32082927E-01 0.54697696E+03</pdfrwt>
<totfact> 0.11753555E+03</totfact>
</mgrwt>
</event>
<event>
 5    0  0.2396052E+000  0.4889869E+03  0.7546771E-02  0.1016694E+00
         21   -1    0    0  501  502  0.00000000000E+00  0.00000000000E+00  0.49757308910E+03  0.49757308910E+03  0.00000000000E+00 0. -1.
          1   -1    0    0  503    0 -0.00000000000E+00 -0.00000000000E+00 -0.20793358081E+04  0.20793358081E+04  0.00000000000E+00 0.  1.
         25    1    1    2    0    0  0.62930465778E+02  0.21404446976E+03  0.72990113625E+02  0.26594705347E+03  0.12500000000E+03 0.  0.
         21    1    1    2  503  502  0.15780220201E+03 -0.89173197540E+02  0.29421354579E+03  0.34556476186E+03  0.00000000000E+00 0. -1.
          1    1    1    2  501    0 -0.22073266778E+03 -0.12487127222E+03 -0.19489663784E+04  0.19653970819E+04  0.00000000000E+00 0.  1.
<mgrwt>
<rscale>  4 0.48898688E+03</rscale>
<asrwt>0</asrwt>
<pdfrwt beam="1">  1       21 0.76549707E-01 0.48898688E+03</pdfrwt>
<pdfrwt beam="2">  1        1 0.31989781E+00 0.48898688E+03</pdfrwt>
<totfact> 0.43357399E+01</totfact>
</mgrwt>
</event>
<event>
 5    0  0.2396052E+000  0.3485413E+03  0.7546771E-02  0.1063215E+00
         21   -1    0    0  501  502  0.00000000000E+00  0.00000000000E+00  0.73183387013E+03  0.73183387013E+03  0.00000000000E+00 0. -1.
          2   -1    0    0  503    0 -0.00000000000E+00 -0.00000000000E+00 -0.43614976506E+03  0.43614976506E+03  0.00000000000E+00 0. -1.
         25    1    1    2    0    0  0.14090347955E+03  0.22896143416E+03  0.49483351100E+03  0.57685555600E+03  0.12500000000E+03 0.  0.
         21    1    1    2  503  502 -0.30083020088E+02 -0.26770099181E+02  0.15963944809E+03  0.16464015213E+03  0.00000000000E+00 0.  1.
          2    1    1    2  501    0 -0.11082045946E+03 -0.20219133498E+03 -0.35878885401E+03  0.42648792707E+03  0.00000000000E+00 0. -1.
<mgrwt>
<rscale>  4 0.34854129E+03</rscale>
<asrwt>0</asrwt>
<pdfrwt beam="1">  1       21 0.11258983E+00 0.34854129E+03</pdfrwt>
<pdfrwt beam="2">  1        2 0.67099964E-01 0.34854129E+03</pdfrwt>
<totfact> 0.51973024E+02</totfact>
</mgrwt>
</event>
<event>
 5    0  0.2396052E+000  0.7550406E+03  0.7546771E-02  0.9627475E-01
         21   -1    0    0  501  502  0.00000000000E+00  0.00000000000E+00  0.55340318914E+03  0.55340318914E+03  0.00000000000E+00 0.  1.
          2   -1    0    0  503    0 -0.00000000000E+00 -0.00000000000E+00 -0.31122157225E+03  0.31122157225E+03  0.00000000000E+00 0.  1.
         25    1    1    2    0    0 -0.26677036772E+03 -0.22447943221E+03  0.21119147420E+03  0.42636168139E+03  0.12500000000E+03 0.  0.
         21    1    1    2  503  502  0.26673022094E+03  0.26157868079E+03  0.74645646407E+02  0.38097295118E+03  0.00000000000E+00 0.  1.
          2    1    1    2  501    0  0.40146779436E-01 -0.37099248573E+02 -0.43655503716E+02  0.57290128828E+02  0.00000000000E+00 0.  1.
<mgrwt>
<rscale>  4 0.75504063E+03</rscale>
<asrwt>0</asrwt>
<pdfrwt beam="1">  1       21 0.85138952E-01 0.75504063E+03</pdfrwt>
<pdfrwt beam="2">  1        2 0.47880242E-01 0.75504063E+03</pdfrwt>
<totfact> 0.13721895E+03</totfact>
</mgrwt>
</event>
<event>
 5    0  0.2396052E+000  0.1185498E+04  0.7546771E-02  0.9125646E-01
         21   -1    0    0  501  502  0.00000000000E+00  0.00000000000E+00  0.17674581220E+03  0.17674581220E+03  0.00000000000E+00 0.  1.
          2   -1    0    0  503    0 -0.00000000000E+00 -0.00000000000E+00 -0.27013178609E+04  0.27013178609E+04  0.00000000000E+00 0.  1.
         25    1    1    2    0    0  0.23169770302E+03  0.27713590620E+03 -0.18130434321E+04  0.18529003273E+04  0.12500000000E+03 0.  0.
         21    1    1    2  503  502 -0.19719202977E+03 -0.25029046648E+03 -0.64217632547E+01  0.31870245255E+03  0.00000000000E+00 0.  1.
          2    1    1    2  501    0 -0.34505673256E+02 -0.26845439721E+02 -0.70510685325E+03  0.70646089320E+03  0.00000000000E+00 0.  1.
<mgrwt>
<rscale>  4 0.11854978E+04</rscale>
<asrwt>0</asrwt>
<pdfrwt beam="1">  1       21 0.27191662E-01 0.11854978E+04</pdfrwt>
<pdfrwt beam="2">  1        2 0.41558738E+00 0.11854978E+04</pdfrwt>
<totfact> 0.39238063E+02</totfact>
</mgrwt>
</event>
<event>
 5    0  0.2396052E+000  0.4035578E+03  0.7546771E-02  0.1042555E+00
          2   -1    0    0  503    0 -0.00000000000E+00  0.00000000000E+00  0.72775695950E+03  0.72775695950E+03  0.00000000000E+00 0. -1.
         21   -1    0    0  501  502  0.00000000000E+00 -0.00000000000E+00 -0.12756676705E+03  0.12756676705E+03  0.00000000000E+00 0. -1.
         25    1    1    2    0    0 -0.22757669096E+03  0.84405037260E+02  0.30153835257E+03  0.40677480091E+03  0.12500000000E+03 0.  0.
         21    1    1    2  503  502  0.26660083536E+02 -0.11908404956E+03  0.64357742718E+02  0.13796263973E+03  0.00000000000E+00 0.  1.
          2    1    1    2  501    0  0.20091660742E+03  0.34679012302E+02  0.23429409715E+03  0.31058628591E+03  0.00000000000E+00 0. -1.
<mgrwt>
<rscale>  4 0.40355784E+03</rscale>
<asrwt>0</asrwt>
<pdfrwt beam="1">  1       21 0.19625657E-01 0.40355784E+03</pdfrwt>
<pdfrwt beam="2">  1        2 0.11196261E+00 0.40355784E+03</pdfrwt>
<totfact> 0.11602600E+04</totfact>
</mgrwt>
</event>
<event>
 5    0  0.2396052E+000  0.4078505E+03  0.7546771E-02  0.1041095E+00
          2   -1    0    0  503    0 -0.00000000000E+00  0.00000000000E+00  0.16792707986E+04  0.16792707986E+04  0.00000000000E+00 0. -1.
         21   -1    0    0  501  502  0.00000000000E+00 -0.00000000000E+00 -0.61970321861E+02  0.61970321861E+02  0.00000000000E+00 0. -1.
         25    1    1    2    0    0  0.21082663189E+03  0.15639677379E+03  0.43980327828E+03  0.52721887595E+03  0.12500000000E+03 0.  0.
         21    1    1    2  503  502 -0.59055272751E+02 -0.92886148170E+02  0.26730571259E+03  0.28908079449E+03  0.00000000000E+00 0. -1.
          2    1    1    2  501    0 -0.15177135914E+03 -0.63510625625E+02  0.91019148588E+03  0.92494145004E+03  0.00000000000E+00 0. -1.
<mgrwt>
<rscale>  4 0.40785050E+03</rscale>
<asrwt>0</asrwt>
<pdfrwt beam="1">  1       21 0.95338970E-02 0.40785050E+03</pdfrwt>
<pdfrwt beam="2">  1        2 0.25834932E+00 0.40785050E+03</pdfrwt>
<totfact> 0.11797107E+04</totfact>
</mgrwt>
</event>
<event>
 5    0  0.2396052E+000  0.3650846E+03  0.7546771E-02  0.1056589E+00
          1   -1    0    0  503    0 -0.00000000000E+00  0.00000000000E+00  0.12111237001E+04  0.12111237001E+04  0.00000000000E+00 0. -1.
         21   -1    0    0  501  502  0.00000000000E+00 -0.00000000000E+00 -0.30206025868E+03  0.30206025868E+03  0.00000000000E+00 0.  1.
         25    1    1    2    0    0  0.12308834822E+03 -0.16629248686E+03 -0.21986552549E+03  0.32675645663E+03  0.12500000000E+03 0.  0.
         21    1    1    2  503  502 -0.60613174318E+02  0.45396906373E+02  0.33891619435E+02  0.82966727530E+02  0.00000000000E+00 0. -1.
          1    1    1    2  501    0 -0.62475173902E+02  0.12089558049E+03  0.10950373475E+04  0.11034607746E+04  0.00000000000E+00 0. -1.
<mgrwt>
<rscale>  4 0.36508464E+03</rscale>
<asrwt>0</asrwt>
<pdfrwt beam="1">  1       21 0.46470810E-01 0.36508464E+03</pdfrwt>
<pdfrwt beam="2">  1        1 0.18632672E+00 0.36508464E+03</pdfrwt>
<totfact> 0.51799049E+02</totfact>
</mgrwt>
</event>
<event>
 5    0  0.2396052E+000  0.3515773E+03  0.7546771E-02  0.1061969E+00
         -3   -1    0    0    0  501 -0.00000000000E+00  0.00000000000E+00  0.37980924515E+03  0.37980924515E+03  0.00000000000E+00 0.  1.
         21   -1    0    0  501  502  0.00000000000E+00 -0.00000000000E+00 -0.91754409581E+03  0.91754409581E+03  0.00000000000E+00 0. -1.
         25    1    1    2    0    0  0.16377089615E+03 -0.14239391492E+03 -0.78220096909E+03  0.82131619336E+03  0.12500000000E+03 0.  0.
         21    1    1    2  503  502 -0.32025143838E+02 -0.60018274379E+02 -0.57708158102E+02  0.89207816972E+02  0.00000000000E+00 0.  1.
         -3    1    1    2    0  503 -0.13174575232E+03  0.20241218930E+03  0.30217427654E+03  0.38682933063E+03  0.00000000000E+00 0.  1.
<mgrwt>
<rscale>  4 0.35157735E+03</rscale>
<asrwt>0</asrwt>
<pdfrwt beam="1">  1       21 0.14116063E+00 0.35157735E+03</pdfrwt>
<pdfrwt beam="2">  1       -3 0.58432192E-01 0.35157735E+03</pdfrwt>
<totfact> 0.47140752E+01</totfact>
</mgrwt>
</event>
<event>
 5    0  0.2396052E+000  0.5047142E+03  0.7546771E-02  0.1012556E+00
         21   -1    0    0  501  502  0.00000000000E+00  0.00000000000E+00  0.11468076550E+03  0.11468076550E+03  0.00000000000E+00 0. -1.
         -1   -1    0    0    0  501 -0.00000000000E+00 -0.00000000000E+00 -0.68907705582E+03  0.68907705582E+03  0.00000000000E+00 0.  1.
         25    1    1    2    0    0  0.23451671302E+03  0.31158823732E+02 -0.24591546439E+03  0.36341213052E+03  0.12500000000E+03 0.  0.
         21    1    1    2  503  502 -0.23583203161E+03  0.21923871020E+02 -0.24024555175E+03  0.33736527442E+03  0.00000000000E+00 0.  1.
         -1    1    1    2    0  503  0.13153185840E+01 -0.53082694752E+02 -0.88235274191E+02  0.10298041637E+03  0.00000000000E+00 0.  1.
<mgrwt>
<rscale>  4 0.50471421E+03</rscale>
<asrwt>0</asrwt>
<pdfrwt beam="1">  1       21 0.17643194E-01 0.50471421E+03</pdfrwt>
<pdfrwt beam="2">  1       -1 0.10601186E+00 0.50471421E+03</pdfrwt>
<totfact> 0.22783691E+03</totfact>
</mgrwt>
</event>
<event>
 5    0  0.2396052E+000  0.5816259E+03  0.7546771E-02  0.9944277E-01
          1   -1    0    0  503    0 -0.00000000000E+00  0.00000000000E+00  0.81289855203E+03  0.81289855203E+03  0.00000000000E+00 0. -1.
         21   -1    0    0  501  502  0.00000000000E+00 -0.00000000000E+00 -0.24014664336E+03  0.24014664336E+03  0.00000000000E+00 0. -1.
         25    1    1    2    0    0 -0.23247115245E+03 -0.25845030276E+02  0.99845016449E+02  0.28338106786E+03  0.12500000000E+03 0.  0.
         21    1    1    2  503  502  0.30947391682E+03 -0.22594590479E+02  0.23548702610E+02  0.31118991325E+03  0.00000000000E+00 0. -1.
          1    1    1    2  501    0 -0.77002764369E+02  0.48439620755E+02  0.44935818962E+03  0.45847421428E+03  0.00000000000E+00 0. -1.
<mgrwt>
<rscale>  4 0.58162586E+03</rscale>
<asrwt>0</asrwt>
<pdfrwt beam="1">  1       21 0.36945638E-01 0.58162586E+03</pdfrwt>
<pdfrwt beam="2">  1        1 0.12506131E+00 0.58162586E+03</pdfrwt>
<totfact> 0.15965151E+03</totfact>
</mgrwt>
</event>
