<event>
 5    0  0.2720079E+000  0.5468088E+03  0.7546771E-02  0.1002235E+00
         21   -1    0    0  503  501  0.00000000000E+00  0.00000000000E+00  0.34761660004E+03  0.34761660004E+03  0.00000000000E+00 0. -1.
         21   -1    0    0  504  502 -0.00000000000E+00 -0.00000000000E+00 -0.30862635587E+03  0.30862635587E+03  0.00000000000E+00 0. -1.
         25    1    1    2    0    0  0.27677993553E+03  0.80872434952E+02  0.10551364389E+03  0.33152015398E+03  0.12500000000E+03 0.  0.
         21    1    1    2  503  502 -0.17245229011E+03 -0.10975695138E+03 -0.70950070656E+02  0.21637997427E+03  0.00000000000E+00 0.  1.
         21    1    1    2  504  501 -0.10432764542E+03  0.28884516429E+02  0.44266709401E+01  0.10834282765E+03  0.00000000000E+00 0. -1.
<mgrwt>
<rscale>  4 0.54680884E+03</rscale>
<asrwt>0</asrwt>
<pdfrwt beam="1">  1       21 0.53479477E-01 0.54680884E+03</pdfrwt>
<pdfrwt beam="2">  1       21 0.47480978E-01 0.54680884E+03</pdfrwt>
<totfact> 0.12281667E+04</totfact>
</mgrwt>
</event>
<event>
 5    0  0.2720079E+000  0.4969292E+03  0.7546771E-02  0.1014584E+00
         21   -1    0    0  502  501  0.00000000000E+00  0.00000000000E+00  0.14816281222E+04  0.14816281222E+04  0.00000000000E+00 0.  1.
         21   -1    0    0  504  502 -0.00000000000E+00 -0.00000000000E+00 -0.41859458912E+03  0.41859458912E+03  0.00000000000E+00 0.  1.
         25    1    1    2    0    0 -0.13255897146E+03  0.34637204013E+03 -0.28023910960E+03  0.48135686310E+03  0.12500000000E+03 0.  0.
         21    1    1    2  503  501  0.75789944403E+02 -0.32510462952E+03  0.13053516702E+04  0.13473604265E+04  0.00000000000E+00 0.  1.
         21    1    1    2  504  503  0.56769027057E+02 -0.21267410615E+02  0.37920972432E+02  0.71505421735E+02  0.00000000000E+00 0. -1.
<mgrwt>
<rscale>  4 0.49692920E+03</rscale>
<asrwt>0</asrwt>
<pdfrwt beam="1">  1       21 0.22794279E+00 0.49692920E+03</pdfrwt>
<pdfrwt beam="2">  1       21 0.64399168E-01 0.49692920E+03</pdfrwt>
<totfact> 0.15573707E+02</totfact>
</mgrwt>
</event>
<event>
 5    0  0.2720079E+000  0.8060401E+03  0.7546771E-02  0.9551315E-01
         21   -1    0    0  503  501  0.00000000000E+00  0.00000000000E+00  0.27978152466E+04  0.27978152466E+04  0.00000000000E+00 0. -1.
         21   -1    0    0  504  502 -0.00000000000E+00 -0.00000000000E+00 -0.87335276299E+02  0.87335276299E+02  0.00000000000E+00 0. -1.
         25    1    1    2    0    0  0.36354070199E+03  0.52629444919E+02  0.15489370963E+04  0.15967976794E+04  0.12500000000E+03 0.  0.
         21    1    1    2  503  502 -0.27980633404E+03 -0.52080868533E+02  0.26812011964E+03  0.39101457772E+03  0.00000000000E+00 0. -1.
         21    1    1    2  504  501 -0.83734367945E+02 -0.54857638666E+00  0.89342275433E+03  0.89733826580E+03  0.00000000000E+00 0. -1.
<mgrwt>
<rscale>  4 0.80604010E+03</rscale>
<asrwt>0</asrwt>
<pdfrwt beam="1">  1       21 0.43043305E+00 0.80604010E+03</pdfrwt>
<pdfrwt beam="2">  1       21 0.13436198E-01 0.80604010E+03</pdfrwt>
<totfact> 0.17127294E+02</totfact>
</mgrwt>
</event>
<event>
 5    0  0.2720079E+000  0.5240330E+03  0.7546771E-02  0.1007690E+00
         21   -1    0    0  504  501  0.00000000000E+00  0.00000000000E+00  0.16729380784E+03  0.16729380784E+03  0.00000000000E+00 0.  1.
         21   -1    0    0  503  502 -0.00000000000E+00 -0.00000000000E+00 -0.93331339875E+03  0.93331339875E+03  0.00000000000E+00 0.  1.
         25    1    1    2    0    0 -0.24492244753E+03  0.12220032855E+03 -0.58470156438E+03  0.65758713870E+03  0.12500000000E+03 0.  0.
         21    1    1    2  503  501  0.20897066197E+03 -0.37556662506E+02 -0.25018218472E+03  0.32813162910E+03  0.00000000000E+00 0. -1.
         21    1    1    2  504  502  0.35951785553E+02 -0.84643666040E+02  0.68864158182E+02  0.11488843879E+03  0.00000000000E+00 0.  1.
<mgrwt>
<rscale>  4 0.52403303E+03</rscale>
<asrwt>0</asrwt>
<pdfrwt beam="1">  1       21 0.25737508E-01 0.52403303E+03</pdfrwt>
<pdfrwt beam="2">  1       21 0.14358668E+00 0.52403303E+03</pdfrwt>
<totfact> 0.40731367E+03</totfact>
</mgrwt>
</event>
<event>
 5    0  0.2720079E+000  0.6614113E+03  0.7546771E-02  0.9785599E-01
         21   -1    0    0  502  501  0.00000000000E+00  0.00000000000E+00  0.11069562434E+04  0.11069562434E+04  0.00000000000E+00 0.  1.
         21   -1    0    0  504  502 -0.00000000000E+00 -0.00000000000E+00 -0.21417407033E+03  0.21417407033E+03  0.00000000000E+00 0. -1.
         25    1    1    2    0    0 -0.22112006954E+03  0.27336358828E+03  0.13420428647E+03  0.39655709179E+03  0.12500000000E+03 0.  0.
         21    1    1    2  503  501  0.12725935638E+03 -0.69267925231E+01  0.57201478183E+03  0.58604081332E+03  0.00000000000E+00 0.  1.
         21    1    1    2  504  503  0.93860713155E+02 -0.26643679575E+03  0.18656310473E+03  0.33853240857E+03  0.00000000000E+00 0.  1.
<mgrwt>
<rscale>  4 0.66141126E+03</rscale>
<asrwt>0</asrwt>
<pdfrwt beam="1">  1       21 0.17030096E+00 0.66141126E+03</pdfrwt>
<pdfrwt beam="2">  1       21 0.32949857E-01 0.66141126E+03</pdfrwt>
<totfact> 0.14874542E+03</totfact>
</mgrwt>
</event>
<event>
 5    0  0.2720079E+000  0.6895973E+03  0.7546771E-02  0.9735189E-01
         21   -1    0    0  502  501  0.00000000000E+00  0.00000000000E+00  0.13962168777E+04  0.13962168777E+04  0.00000000000E+00 0. -1.
         21   -1    0    0  503  502 -0.00000000000E+00 -0.00000000000E+00 -0.11233947811E+03  0.11233947811E+03  0.00000000000E+00 0.  1.
         25    1    1    2    0    0 -0.22055581007E+03 -0.22313390237E+03  0.76424744618E+03  0.83554339369E+03  0.12500000000E+03 0.  0.
         21    1    1    2  503  504  0.20535178995E+03  0.19605701538E+03  0.18932199269E+03  0.34124848400E+03  0.00000000000E+00 0.  1.
         21    1    1    2  504  501  0.15204020123E+02  0.27076886994E+02  0.33030796075E+03  0.33176447816E+03  0.00000000000E+00 0. -1.
<mgrwt>
<rscale>  4 0.68959731E+03</rscale>
<asrwt>0</asrwt>
<pdfrwt beam="1">  1       21 0.21480258E+00 0.68959731E+03</pdfrwt>
<pdfrwt beam="2">  1       21 0.17282998E-01 0.68959731E+03</pdfrwt>
<totfact> 0.25620214E+03</totfact>
</mgrwt>
</event>
<event>
 5    0  0.2720079E+000  0.6131340E+03  0.7546771E-02  0.9878526E-01
         21   -1    0    0  503  501  0.00000000000E+00  0.00000000000E+00  0.23586829496E+03  0.23586829496E+03  0.00000000000E+00 0. -1.
         21   -1    0    0  504  502 -0.00000000000E+00 -0.00000000000E+00 -0.76093592286E+03  0.76093592286E+03  0.00000000000E+00 0. -1.
         25    1    1    2    0    0  0.32397202317E+02  0.28084060775E+03 -0.49130304582E+03  0.58045215867E+03  0.12500000000E+03 0.  0.
         21    1    1    2  503  502 -0.39987202662E+02 -0.15710087385E+02  0.10755209836E+03  0.11581553041E+03  0.00000000000E+00 0. -1.
         21    1    1    2  504  501  0.75900003449E+01 -0.26513052037E+03 -0.14131668044E+03  0.30053652874E+03  0.00000000000E+00 0. -1.
<mgrwt>
<rscale>  4 0.61313404E+03</rscale>
<asrwt>0</asrwt>
<pdfrwt beam="1">  1       21 0.36287431E-01 0.61313404E+03</pdfrwt>
<pdfrwt beam="2">  1       21 0.11706706E+00 0.61313404E+03</pdfrwt>
<totfact> 0.34082894E+03</totfact>
</mgrwt>
</event>
<event>
 5    0  0.2720079E+000  0.5275788E+03  0.7546771E-02  0.1006821E+00
         21   -1    0    0  503  501  0.00000000000E+00  0.00000000000E+00  0.11996775000E+04  0.11996775000E+04  0.00000000000E+00 0. -1.
         21   -1    0    0  504  502 -0.00000000000E+00 -0.00000000000E+00 -0.68710537174E+03  0.68710537174E+03  0.00000000000E+00 0.  1.
         25    1    1    2    0    0 -0.10717990378E+03 -0.18443392916E+03 -0.15819724478E+03  0.29352133526E+03  0.12500000000E+03 0.  0.
         21    1    1    2  503  502 -0.26577143859E+02 -0.25714793958E+02  0.10980478767E+04  0.10986704395E+04  0.00000000000E+00 0. -1.
         21    1    1    2  504  501  0.13375704764E+03  0.21014872312E+03 -0.42727850358E+03  0.49459109701E+03  0.00000000000E+00 0.  1.
<mgrwt>
<rscale>  4 0.52757877E+03</rscale>
<asrwt>0</asrwt>
<pdfrwt beam="1">  1       21 0.18456577E+00 0.52757877E+03</pdfrwt>
<pdfrwt beam="2">  1       21 0.10570852E+00 0.52757877E+03</pdfrwt>
<totfact> 0.93367392E+01</totfact>
</mgrwt>
</event>
<event>
 5    0  0.2720079E+000  0.9490312E+03  0.7546771E-02  0.9366284E-01
         21   -1    0    0  503  501  0.00000000000E+00  0.00000000000E+00  0.13233225405E+04  0.13233225405E+04  0.00000000000E+00 0. -1.
         21   -1    0    0  504  502 -0.00000000000E+00 -0.00000000000E+00 -0.42320580047E+03  0.42320580047E+03  0.00000000000E+00 0. -1.
         25    1    1    2    0    0  0.45323225152E+02 -0.31831728106E+03 -0.26131852868E+03  0.43277298852E+03  0.12500000000E+03 0.  0.
         21    1    1    2  503  502 -0.97638383236E+02 -0.39768667724E+02  0.78326741362E+03  0.79033071689E+03  0.00000000000E+00 0. -1.
         21    1    1    2  504  501  0.52315158084E+02  0.35808594878E+03  0.37816785505E+03  0.52342463553E+03  0.00000000000E+00 0.  1.
<mgrwt>
<rscale>  4 0.94903115E+03</rscale>
<asrwt>0</asrwt>
<pdfrwt beam="1">  1       21 0.20358808E+00 0.94903115E+03</pdfrwt>
<pdfrwt beam="2">  1       21 0.65108585E-01 0.94903115E+03</pdfrwt>
<totfact> 0.18811740E+02</totfact>
</mgrwt>
</event>
<event>
 5    0  0.2720079E+000  0.8866512E+03  0.7546771E-02  0.9442424E-01
         21   -1    0    0  503  501  0.00000000000E+00  0.00000000000E+00  0.22918857688E+03  0.22918857688E+03  0.00000000000E+00 0. -1.
         21   -1    0    0  504  502 -0.00000000000E+00 -0.00000000000E+00 -0.92663360173E+03  0.92663360173E+03  0.00000000000E+00 0.  1.
         25    1    1    2    0    0  0.14777118886E+03 -0.37349535949E+03 -0.16072361493E+03  0.45032453654E+03  0.12500000000E+03 0.  0.
         21    1    1    2  503  502  0.27499082455E+02 -0.13315539056E+01  0.32686061560E+00  0.27533241900E+02  0.00000000000E+00 0. -1.
         21    1    1    2  504  501 -0.17527027132E+03  0.37482691339E+03 -0.53704827053E+03  0.67796440017E+03  0.00000000000E+00 0.  1.
<mgrwt>
<rscale>  4 0.88665118E+03</rscale>
<asrwt>0</asrwt>
<pdfrwt beam="1">  1       21 0.35259782E-01 0.88665118E+03</pdfrwt>
<pdfrwt beam="2">  1       21 0.14255901E+00 0.88665118E+03</pdfrwt>
<totfact> 0.20272821E+03</totfact>
</mgrwt>
</event>
<event>
 5    0  0.2720079E+000  0.9278338E+03  0.7546771E-02  0.9391441E-01
         21   -1    0    0  503  501  0.00000000000E+00  0.00000000000E+00  0.53607190848E+03  0.53607190848E+03  0.00000000000E+00 0. -1.
         21   -1    0    0  504  502 -0.00000000000E+00 -0.00000000000E+00 -0.59114904291E+03  0.59114904291E+03  0.00000000000E+00 0. -1.
         25    1    1    2    0    0  0.21744932446E+03 -0.17835093675E+03  0.24493920308E+03  0.39333634278E+03  0.12500000000E+03 0.  0.
         21    1    1    2  503  502  0.21378095823E+02 -0.13742458545E+02  0.17048015168E+03  0.17236403414E+03  0.00000000000E+00 0. -1.
         21    1    1    2  504  501 -0.23882742029E+03  0.19209339529E+03 -0.47049648920E+03  0.56152057446E+03  0.00000000000E+00 0. -1.
<mgrwt>
<rscale>  4 0.92783384E+03</rscale>
<asrwt>0</asrwt>
<pdfrwt beam="1">  1       21 0.82472602E-01 0.92783384E+03</pdfrwt>
<pdfrwt beam="2">  1       21 0.90946006E-01 0.92783384E+03</pdfrwt>
<totfact> 0.98643303E+02</totfact>
</mgrwt>
</event>
<event>
 5    0  0.2720079E+000  0.4577023E+03  0.7546771E-02  0.1025450E+00
         21   -1    0    0  502  501  0.00000000000E+00  0.00000000000E+00  0.93627774355E+03  0.93627774355E+03  0.00000000000E+00 0.  1.
         21   -1    0    0  504  502 -0.00000000000E+00 -0.00000000000E+00 -0.12290010599E+03  0.12290010599E+03  0.00000000000E+00 0.  1.
         25    1    1    2    0    0  0.18843690602E+03  0.12677920707E+03  0.24769940581E+03  0.35855464093E+03  0.12500000000E+03 0.  0.
         21    1    1    2  503  501 -0.20528406105E+02 -0.51494323880E+02  0.50327091336E+03  0.50631481618E+03  0.00000000000E+00 0.  1.
         21    1    1    2  504  503 -0.16790849992E+03 -0.75284883188E+02  0.62407318392E+02  0.19430839243E+03  0.00000000000E+00 0.  1.
<mgrwt>
<rscale>  4 0.45770225E+03</rscale>
<asrwt>0</asrwt>
<pdfrwt beam="1">  1       21 0.14404272E+00 0.45770225E+03</pdfrwt>
<pdfrwt beam="2">  1       21 0.18907709E-01 0.45770225E+03</pdfrwt>
<totfact> 0.74674987E+03</totfact>
</mgrwt>
</event>
<event>
 5    0  0.2720079E+000  0.4876767E+03  0.7546771E-02  0.1017046E+00
         21   -1    0    0  503  501  0.00000000000E+00  0.00000000000E+00  0.98057846600E+03  0.98057846600E+03  0.00000000000E+00 0.  1.
         21   -1    0    0  504  502 -0.00000000000E+00 -0.00000000000E+00 -0.86362739010E+02  0.86362739010E+02  0.00000000000E+00 0. -1.
         25    1    1    2    0    0  0.13041468618E+03 -0.16168982674E+03  0.21605931586E+03  0.32474331158E+03  0.12500000000E+03 0.  0.
         21    1    1    2  503  502 -0.14266665289E+03  0.18134242109E+03  0.39022745742E+03  0.45333907405E+03  0.00000000000E+00 0. -1.
         21    1    1    2  504  501  0.12251966705E+02 -0.19652594354E+02  0.28792895371E+03  0.28885881939E+03  0.00000000000E+00 0.  1.
<mgrwt>
<rscale>  4 0.48767668E+03</rscale>
<asrwt>0</asrwt>
<pdfrwt beam="1">  1       21 0.15085822E+00 0.48767668E+03</pdfrwt>
<pdfrwt beam="2">  1       21 0.13286576E-01 0.48767668E+03</pdfrwt>
<totfact> 0.12610132E+04</totfact>
</mgrwt>
</event>
<event>
 5    0  0.2720079E+000  0.5331014E+03  0.7546771E-02  0.1005483E+00
         21   -1    0    0  502  501  0.00000000000E+00  0.00000000000E+00  0.53233196987E+03  0.53233196987E+03  0.00000000000E+00 0. -1.
         21   -1    0    0  504  502 -0.00000000000E+00 -0.00000000000E+00 -0.17965991465E+03  0.17965991465E+03  0.00000000000E+00 0. -1.
         25    1    1    2    0    0 -0.16228155664E+02 -0.26755569096E+03  0.13517217522E+03  0.32518597411E+03  0.12500000000E+03 0.  0.
         21    1    1    2  503  501  0.32489933044E+02  0.30994407340E+02  0.12406658729E+03  0.13194228707E+03  0.00000000000E+00 0. -1.
         21    1    1    2  504  503 -0.16261777380E+02  0.23656128362E+03  0.93433292711E+02  0.25486362334E+03  0.00000000000E+00 0. -1.
<mgrwt>
<rscale>  4 0.53310137E+03</rscale>
<asrwt>0</asrwt>
<pdfrwt beam="1">  1       21 0.81897225E-01 0.53310137E+03</pdfrwt>
<pdfrwt beam="2">  1       21 0.27639987E-01 0.53310137E+03</pdfrwt>
<totfact> 0.14324254E+04</totfact>
</mgrwt>
</event>
<event>
 5    0  0.2720079E+000  0.4697912E+03  0.7546771E-02  0.1021979E+00
         21   -1    0    0  503  501  0.00000000000E+00  0.00000000000E+00  0.54002142663E+03  0.54002142663E+03  0.00000000000E+00 0. -1.
         21   -1    0    0  504  502 -0.00000000000E+00 -0.00000000000E+00 -0.37810009912E+03  0.37810009912E+03  0.00000000000E+00 0. -1.
         25    1    1    2    0    0 -0.12939771535E+02  0.30495600755E+03 -0.10214469874E+03  0.34528849345E+03  0.12500000000E+03 0.  0.
         21    1    1    2  503  502 -0.12222336676E+03 -0.32221339704E+03  0.26793240247E+03  0.43651780824E+03  0.00000000000E+00 0. -1.
         21    1    1    2  504  501  0.13516313830E+03  0.17257389497E+02 -0.38663762253E+01  0.13631522407E+03  0.00000000000E+00 0.  1.
<mgrwt>
<rscale>  4 0.46979122E+03</rscale>
<asrwt>0</asrwt>
<pdfrwt beam="1">  1       21 0.83080220E-01 0.46979122E+03</pdfrwt>
<pdfrwt beam="2">  1       21 0.58169246E-01 0.46979122E+03</pdfrwt>
<totfact> 0.30234407E+03</totfact>
</mgrwt>
</event>
<event>
 5    0  0.2720079E+000  0.5277347E+03  0.7546771E-02  0.1006783E+00
         21   -1    0    0  504  501  0.00000000000E+00  0.00000000000E+00  0.10209900167E+04  0.10209900167E+04  0.00000000000E+00 0.  1.
         21   -1    0    0  503  502 -0.00000000000E+00 -0.00000000000E+00 -0.75804993562E+02  0.75804993562E+02  0.00000000000E+00 0.  1.
         25    1    1    2    0    0 -0.22502524033E+03 -0.43952912907E+02  0.66554611970E+03  0.71494395220E+03  0.12500000000E+03 0.  0.
         21    1    1    2  503  501  0.21378967569E+03  0.67772939459E+02  0.20939178157E+03  0.30682912988E+03  0.00000000000E+00 0.  1.
         21    1    1    2  504  502  0.11235564643E+02 -0.23820026552E+02  0.70247121876E+02  0.75021928192E+02  0.00000000000E+00 0. -1.
<mgrwt>
<rscale>  4 0.52773469E+03</rscale>
<asrwt>0</asrwt>
<pdfrwt beam="1">  1       21 0.15707538E+00 0.52773469E+03</pdfrwt>
<pdfrwt beam="2">  1       21 0.11662307E-01 0.52773469E+03</pdfrwt>
<totfact> 0.14171970E+04</totfact>
</mgrwt>
</event>
<event>
 5    0  0.2720079E+000  0.6495791E+03  0.7546771E-02  0.9807569E-01
         21   -1    0    0  503  501  0.00000000000E+00  0.00000000000E+00  0.15778634703E+04  0.15778634703E+04  0.00000000000E+00 0.  1.
         21   -1    0    0  504  502 -0.00000000000E+00 -0.00000000000E+00 -0.93562139548E+02  0.93562139548E+02  0.00000000000E+00 0. -1.
         25    1    1    2    0    0 -0.12481507995E+02  0.20300884752E+03  0.88620254414E+02  0.25465060319E+03  0.12500000000E+03 0.  0.
         21    1    1    2  503  502  0.26356234076E+02 -0.61270320043E+01  0.44501121391E+03  0.44583312136E+03  0.00000000000E+00 0.  1.
         21    1    1    2  504  501 -0.13874726081E+02 -0.19688181551E+03  0.95066986247E+03  0.97094188534E+03  0.00000000000E+00 0.  1.
<mgrwt>
<rscale>  4 0.64957910E+03</rscale>
<asrwt>0</asrwt>
<pdfrwt beam="1">  1       21 0.24274821E+00 0.64957910E+03</pdfrwt>
<pdfrwt beam="2">  1       21 0.14394176E-01 0.64957910E+03</pdfrwt>
<totfact> 0.24171077E+03</totfact>
</mgrwt>
</event>
<event>
 5    0  0.2720079E+000  0.5436930E+03  0.7546771E-02  0.1002964E+00
         21   -1    0    0  503  501  0.00000000000E+00  0.00000000000E+00  0.38656459955E+03  0.38656459955E+03  0.00000000000E+00 0. -1.
         21   -1    0    0  504  502 -0.00000000000E+00 -0.00000000000E+00 -0.29955274172E+03  0.29955274172E+03  0.00000000000E+00 0. -1.
         25    1    1    2    0    0  0.21401086356E+03 -0.16567761341E+03  0.65117540196E+01  0.29818974537E+03  0.12500000000E+03 0.  0.
         21    1    1    2  503  502 -0.19635944912E+03  0.14026406815E+03 -0.56200267796E+02  0.24776907025E+03  0.00000000000E+00 0. -1.
         21    1    1    2  504  501 -0.17651414432E+02  0.25413545260E+02  0.13670037161E+03  0.14015852565E+03  0.00000000000E+00 0. -1.
<mgrwt>
<rscale>  4 0.54369300E+03</rscale>
<asrwt>0</asrwt>
<pdfrwt beam="1">  1       21 0.59471477E-01 0.54369300E+03</pdfrwt>
<pdfrwt beam="2">  1       21 0.46085037E-01 0.54369300E+03</pdfrwt>
<totfact> 0.10388689E+04</totfact>
</mgrwt>
</event>
<event>
 5    0  0.2720079E+000  0.4419073E+03  0.7546771E-02  0.1030163E+00
         21   -1    0    0  502  501  0.00000000000E+00  0.00000000000E+00  0.97157849799E+03  0.97157849799E+03  0.00000000000E+00 0.  1.
         21   -1    0    0  504  502 -0.00000000000E+00 -0.00000000000E+00 -0.20163790597E+03  0.20163790597E+03  0.00000000000E+00 0.  1.
         25    1    1    2    0    0 -0.17435941467E+03  0.12705802734E+03 -0.42554601465E+01  0.24937533305E+03  0.12500000000E+03 0.  0.
         21    1    1    2  503  501  0.21412865991E+02 -0.15876812419E+02  0.72892227059E+03  0.72940952871E+03  0.00000000000E+00 0.  1.
         21    1    1    2  504  503  0.15294654868E+03 -0.11118121492E+03  0.45273781581E+02  0.19443154220E+03  0.00000000000E+00 0.  1.
<mgrwt>
<rscale>  4 0.44190728E+03</rscale>
<asrwt>0</asrwt>
<pdfrwt beam="1">  1       21 0.14947361E+00 0.44190728E+03</pdfrwt>
<pdfrwt beam="2">  1       21 0.31021217E-01 0.44190728E+03</pdfrwt>
<totfact> 0.25994036E+03</totfact>
</mgrwt>
</event>
<event>
 5    0  0.2720079E+000  0.5562800E+03  0.7546771E-02  0.1000051E+00
         21   -1    0    0  503  501  0.00000000000E+00  0.00000000000E+00  0.46926627283E+03  0.46926627283E+03  0.00000000000E+00 0. -1.
         21   -1    0    0  504  502 -0.00000000000E+00 -0.00000000000E+00 -0.23744040910E+04  0.23744040910E+04  0.00000000000E+00 0. -1.
         25    1    1    2    0    0  0.24149393189E+03 -0.11300253978E+03 -0.79503682325E+03  0.84781922805E+03  0.12500000000E+03 0.  0.
         21    1    1    2  503  502 -0.63685678165E+02  0.29286818633E+02  0.43383277847E+03  0.43945928483E+03  0.00000000000E+00 0. -1.
         21    1    1    2  504  501 -0.17780825373E+03  0.83715721149E+02 -0.15439337734E+04  0.15563918510E+04  0.00000000000E+00 0. -1.
<mgrwt>
<rscale>  4 0.55628002E+03</rscale>
<asrwt>0</asrwt>
<pdfrwt beam="1">  1       21 0.72194810E-01 0.55628002E+03</pdfrwt>
<pdfrwt beam="2">  1       21 0.36529294E+00 0.55628002E+03</pdfrwt>
<totfact> 0.16733292E+01</totfact>
</mgrwt>
</event>
<event>
 5    0  0.2720079E+000  0.4603450E+03  0.7546771E-02  0.1024681E+00
         21   -1    0    0  503  501  0.00000000000E+00  0.00000000000E+00  0.62912746450E+03  0.62912746450E+03  0.00000000000E+00 0. -1.
         21   -1    0    0  504  502 -0.00000000000E+00 -0.00000000000E+00 -0.18610660039E+03  0.18610660039E+03  0.00000000000E+00 0. -1.
         25    1    1    2    0    0  0.27291518938E+03  0.86601823604E+02  0.30260062601E+03  0.43494219767E+03  0.12500000000E+03 0.  0.
         21    1    1    2  503  502 -0.11745089728E+03 -0.88860677962E+02  0.16688025786E+03  0.22257572604E+03  0.00000000000E+00 0. -1.
         21    1    1    2  504  501 -0.15546429210E+03  0.22588543577E+01 -0.26460019760E+02  0.15771614118E+03  0.00000000000E+00 0.  1.
<mgrwt>
<rscale>  4 0.46034500E+03</rscale>
<asrwt>0</asrwt>
<pdfrwt beam="1">  1       21 0.96788840E-01 0.46034500E+03</pdfrwt>
<pdfrwt beam="2">  1       21 0.28631785E-01 0.46034500E+03</pdfrwt>
<totfact> 0.91672317E+03</totfact>
</mgrwt>
</event>
<event>
 5    0  0.2720079E+000  0.6680778E+03  0.7546771E-02  0.9773437E-01
         21   -1    0    0  504  501  0.00000000000E+00  0.00000000000E+00  0.32936437831E+03  0.32936437831E+03  0.00000000000E+00 0. -1.
         21   -1    0    0  501  502 -0.00000000000E+00 -0.00000000000E+00 -0.46533261715E+03  0.46533261715E+03  0.00000000000E+00 0.  1.
         25    1    1    2    0    0  0.29291104071E+03  0.13039322946E+03 -0.15824472700E+03  0.37876861761E+03  0.12500000000E+03 0.  0.
         21    1    1    2  503  502 -0.30001777269E+03 -0.10862075379E+03 -0.65058276670E+02  0.32564046347E+03  0.00000000000E+00 0. -1.
         21    1    1    2  504  503  0.71067319735E+01 -0.21772475665E+02  0.87334764835E+02  0.90287914389E+02  0.00000000000E+00 0. -1.
<mgrwt>
<rscale>  4 0.66807778E+03</rscale>
<asrwt>0</asrwt>
<pdfrwt beam="1">  1       21 0.50671443E-01 0.66807778E+03</pdfrwt>
<pdfrwt beam="2">  1       21 0.71589633E-01 0.66807778E+03</pdfrwt>
<totfact> 0.54495336E+03</totfact>
</mgrwt>
</event>
<event>
 5    0  0.2720079E+000  0.5330120E+03  0.7546771E-02  0.1005504E+00
         21   -1    0    0  502  501  0.00000000000E+00  0.00000000000E+00  0.51249617739E+03  0.51249617739E+03  0.00000000000E+00 0.  1.
         21   -1    0    0  504  502 -0.00000000000E+00 -0.00000000000E+00 -0.39137832299E+03  0.39137832299E+03  0.00000000000E+00 0.  1.
         25    1    1    2    0    0  0.18290338851E+03 -0.12839213618E+03 -0.26889127277E+03  0.37130271576E+03  0.12500000000E+03 0.  0.
         21    1    1    2  503  501 -0.22733399538E+02  0.22631851378E+02  0.32988152944E+03  0.33143752295E+03  0.00000000000E+00 0.  1.
         21    1    1    2  504  503 -0.16016998897E+03  0.10576028480E+03  0.60127597719E+02  0.20113426167E+03  0.00000000000E+00 0.  1.
<mgrwt>
<rscale>  4 0.53301203E+03</rscale>
<asrwt>0</asrwt>
<pdfrwt beam="1">  1       21 0.78845566E-01 0.53301203E+03</pdfrwt>
<pdfrwt beam="2">  1       21 0.60212050E-01 0.53301203E+03</pdfrwt>
<totfact> 0.31028082E+03</totfact>
</mgrwt>
</event>
<event>
 5    0  0.2720079E+000  0.4527532E+03  0.7546771E-02  0.1026904E+00
         21   -1    0    0  503  501  0.00000000000E+00  0.00000000000E+00  0.25393868811E+03  0.25393868811E+03  0.00000000000E+00 0. -1.
         21   -1    0    0  504  502 -0.00000000000E+00 -0.00000000000E+00 -0.12159682679E+04  0.12159682679E+04  0.00000000000E+00 0.  1.
         25    1    1    2    0    0  0.23240491332E+03  0.20345222899E+03 -0.82752057329E+03  0.89208752510E+03  0.12500000000E+03 0.  0.
         21    1    1    2  503  502 -0.50947665768E+02  0.10170027168E+03 -0.18705403258E+03  0.21892423578E+03  0.00000000000E+00 0. -1.
         21    1    1    2  504  501 -0.18145724756E+03 -0.30515250067E+03  0.52545026048E+02  0.35889519517E+03  0.00000000000E+00 0. -1.
<mgrwt>
<rscale>  4 0.45275325E+03</rscale>
<asrwt>0</asrwt>
<pdfrwt beam="1">  1       21 0.39067491E-01 0.45275325E+03</pdfrwt>
<pdfrwt beam="2">  1       21 0.18707204E+00 0.45275325E+03</pdfrwt>
<totfact> 0.85918551E+02</totfact>
</mgrwt>
</event>
<event>
 5    0  0.2720079E+000  0.4460899E+03  0.7546771E-02  0.1028895E+00
         21   -1    0    0  502  501  0.00000000000E+00  0.00000000000E+00  0.88296507415E+03  0.88296507415E+03  0.00000000000E+00 0.  1.
         21   -1    0    0  503  502 -0.00000000000E+00 -0.00000000000E+00 -0.31475424095E+03  0.31475424095E+03  0.00000000000E+00 0. -1.
         25    1    1    2    0    0  0.87914941541E+02  0.18886077387E+03 -0.23526458350E+03  0.33818907892E+03  0.12500000000E+03 0.  0.
         21    1    1    2  503  504 -0.72496801880E+02 -0.69145256634E+02  0.86182998056E+02  0.13215279774E+03  0.00000000000E+00 0.  1.
         21    1    1    2  504  501 -0.15418139661E+02 -0.11971551723E+03  0.71729241864E+03  0.72737743843E+03  0.00000000000E+00 0.  1.
<mgrwt>
<rscale>  4 0.44608986E+03</rscale>
<asrwt>0</asrwt>
<pdfrwt beam="1">  1       21 0.13584078E+00 0.44608986E+03</pdfrwt>
<pdfrwt beam="2">  1       21 0.48423730E-01 0.44608986E+03</pdfrwt>
<totfact> 0.13436496E+03</totfact>
</mgrwt>
</event>
<event>
 5    0  0.2720079E+000  0.5791803E+03  0.7546771E-02  0.9949567E-01
         21   -1    0    0  503  501  0.00000000000E+00  0.00000000000E+00  0.10546034620E+04  0.10546034620E+04  0.00000000000E+00 0. -1.
         21   -1    0    0  504  502 -0.00000000000E+00 -0.00000000000E+00 -0.26439433607E+03  0.26439433607E+03  0.00000000000E+00 0. -1.
         25    1    1    2    0    0  0.29170463503E+02  0.22611411159E+03  0.14249662183E+03  0.29649417302E+03  0.12500000000E+03 0.  0.
         21    1    1    2  503  502  0.10024058038E+03  0.15227386168E+02  0.72964920124E+03  0.73666003293E+03  0.00000000000E+00 0. -1.
         21    1    1    2  504  501 -0.12941104388E+03 -0.24134149776E+03 -0.81936697146E+02  0.28584359212E+03  0.00000000000E+00 0. -1.
<mgrwt>
<rscale>  4 0.57918026E+03</rscale>
<asrwt>0</asrwt>
<pdfrwt beam="1">  1       21 0.16224668E+00 0.57918026E+03</pdfrwt>
<pdfrwt beam="2">  1       21 0.40676052E-01 0.57918026E+03</pdfrwt>
<totfact> 0.11370263E+03</totfact>
</mgrwt>
</event>
<event>
 5    0  0.2720079E+000  0.4548598E+03  0.7546771E-02  0.1026283E+00
         21   -1    0    0  503  501  0.00000000000E+00  0.00000000000E+00  0.34744522354E+03  0.34744522354E+03  0.00000000000E+00 0. -1.
         21   -1    0    0  504  502 -0.00000000000E+00 -0.00000000000E+00 -0.38727399286E+03  0.38727399286E+03  0.00000000000E+00 0.  1.
         25    1    1    2    0    0 -0.20065787252E+03  0.50897026532E+02 -0.23626908060E+03  0.33808603574E+03  0.12500000000E+03 0.  0.
         21    1    1    2  503  502  0.17914008975E+03 -0.27854463801E+02 -0.15878168344E+02  0.18198670045E+03  0.00000000000E+00 0. -1.
         21    1    1    2  504  501  0.21517782770E+02 -0.23042562731E+02  0.21231847963E+03  0.21464648021E+03  0.00000000000E+00 0. -1.
<mgrwt>
<rscale>  4 0.45485978E+03</rscale>
<asrwt>0</asrwt>
<pdfrwt beam="1">  1       21 0.53453112E-01 0.45485978E+03</pdfrwt>
<pdfrwt beam="2">  1       21 0.59580614E-01 0.45485978E+03</pdfrwt>
<totfact> 0.77265315E+03</totfact>
</mgrwt>
</event>
<event>
 5    0  0.2720079E+000  0.4264377E+03  0.7546771E-02  0.1034991E+00
         21   -1    0    0  502  501  0.00000000000E+00  0.00000000000E+00  0.27776974378E+03  0.27776974378E+03  0.00000000000E+00 0.  1.
         21   -1    0    0  503  502 -0.00000000000E+00 -0.00000000000E+00 -0.21250899788E+03  0.21250899788E+03  0.00000000000E+00 0.  1.
         25    1    1    2    0    0 -0.34132292350E+02  0.20693246304E+03 -0.15566304922E+02  0.24464947883E+03  0.12500000000E+03 0.  0.
         21    1    1    2  503  504  0.90877969193E+01 -0.17941608409E+03  0.29218382740E+02  0.18200668442E+03  0.00000000000E+00 0.  1.
         21    1    1    2  504  501  0.25044495431E+02 -0.27516378953E+02  0.51608668084E+02  0.63622578409E+02  0.00000000000E+00 0.  1.
<mgrwt>
<rscale>  4 0.42643769E+03</rscale>
<asrwt>0</asrwt>
<pdfrwt beam="1">  1       21 0.42733807E-01 0.42643769E+03</pdfrwt>
<pdfrwt beam="2">  1       21 0.32693692E-01 0.42643769E+03</pdfrwt>
<totfact> 0.43803718E+04</totfact>
</mgrwt>
</event>
<event>
 5    0  0.2720079E+000  0.5470705E+03  0.7546771E-02  0.1002174E+00
         21   -1    0    0  503  501  0.00000000000E+00  0.00000000000E+00  0.78150367240E+03  0.78150367240E+03  0.00000000000E+00 0. -1.
         21   -1    0    0  504  502 -0.00000000000E+00 -0.00000000000E+00 -0.12782812800E+03  0.12782812800E+03  0.00000000000E+00 0. -1.
         25    1    1    2    0    0  0.11628647377E+03  0.16560321232E+03  0.44139440779E+03  0.50139903384E+03  0.12500000000E+03 0.  0.
         21    1    1    2  503  502 -0.10025246452E+02  0.19025549569E+02  0.19282677266E+03  0.19402227026E+03  0.00000000000E+00 0. -1.
         21    1    1    2  504  501 -0.10626122732E+03 -0.18462876188E+03  0.19454363956E+02  0.21391049629E+03  0.00000000000E+00 0. -1.
<mgrwt>
<rscale>  4 0.54707050E+03</rscale>
<asrwt>0</asrwt>
<pdfrwt beam="1">  1       21 0.12023133E+00 0.54707050E+03</pdfrwt>
<pdfrwt beam="2">  1       21 0.19665866E-01 0.54707050E+03</pdfrwt>
<totfact> 0.10841598E+04</totfact>
</mgrwt>
</event>
<event>
 5    0  0.2720079E+000  0.9411392E+03  0.7546771E-02  0.9375568E-01
         21   -1    0    0  503  501  0.00000000000E+00  0.00000000000E+00  0.27833463395E+03  0.27833463395E+03  0.00000000000E+00 0. -1.
         21   -1    0    0  504  502 -0.00000000000E+00 -0.00000000000E+00 -0.21329480166E+04  0.21329480166E+04  0.00000000000E+00 0.  1.
         25    1    1    2    0    0 -0.17394403543E+03  0.10031942240E+03 -0.20438868605E+04  0.20575274026E+04  0.12500000000E+03 0.  0.
         21    1    1    2  503  502  0.15258476901E+02 -0.20443313517E+02  0.17354000661E+03  0.17540491464E+03  0.00000000000E+00 0. -1.
         21    1    1    2  504  501  0.15868555853E+03 -0.79876108885E+02  0.15733471277E+02  0.17835033326E+03  0.00000000000E+00 0. -1.
<mgrwt>
<rscale>  4 0.94113925E+03</rscale>
<asrwt>0</asrwt>
<pdfrwt beam="1">  1       21 0.42820714E-01 0.94113925E+03</pdfrwt>
<pdfrwt beam="2">  1       21 0.32814584E+00 0.94113925E+03</pdfrwt>
<totfact> 0.76128530E+01</totfact>
</mgrwt>
</event>
<event>
 5    0  0.2720079E+000  0.4190751E+03  0.7546771E-02  0.1037368E+00
         21   -1    0    0  503  501  0.00000000000E+00  0.00000000000E+00  0.70190536030E+03  0.70190536030E+03  0.00000000000E+00 0.  1.
         21   -1    0    0  504  502 -0.00000000000E+00 -0.00000000000E+00 -0.16952237825E+04  0.16952237825E+04  0.00000000000E+00 0. -1.
         25    1    1    2    0    0 -0.27274484321E+03  0.72957319745E+02 -0.12948305175E+04  0.13311362022E+04  0.12500000000E+03 0.  0.
         21    1    1    2  503  502  0.21881654755E+03  0.20770649557E+02  0.65785550152E+03  0.69360360599E+03  0.00000000000E+00 0.  1.
         21    1    1    2  504  501  0.53928295662E+02 -0.93727969302E+02 -0.35634340632E+03  0.37238933461E+03  0.00000000000E+00 0. -1.
<mgrwt>
<rscale>  4 0.41907509E+03</rscale>
<asrwt>0</asrwt>
<pdfrwt beam="1">  1       21 0.10798544E+00 0.41907509E+03</pdfrwt>
<pdfrwt beam="2">  1       21 0.26080366E+00 0.41907509E+03</pdfrwt>
<totfact> 0.30565387E+01</totfact>
</mgrwt>
</event>
<event>
 5    0  0.2720079E+000  0.7013650E+03  0.7546771E-02  0.9714901E-01
         21   -1    0    0  502  501  0.00000000000E+00  0.00000000000E+00  0.48246665020E+03  0.48246665020E+03  0.00000000000E+00 0.  1.
         21   -1    0    0  504  502 -0.00000000000E+00 -0.00000000000E+00 -0.27930598251E+03  0.27930598251E+03  0.00000000000E+00 0.  1.
         25    1    1    2    0    0  0.32980510737E+03  0.15632407478E+02  0.98972726272E+02  0.36665567165E+03  0.12500000000E+03 0.  0.
         21    1    1    2  503  501  0.16000913670E+02  0.24300632128E+02  0.24432063034E+02  0.37993100218E+02  0.00000000000E+00 0.  1.
         21    1    1    2  504  503 -0.34580602104E+03 -0.39933039606E+02  0.79755878388E+02  0.35712386083E+03  0.00000000000E+00 0.  1.
<mgrwt>
<rscale>  4 0.70136502E+03</rscale>
<asrwt>0</asrwt>
<pdfrwt beam="1">  1       21 0.74225639E-01 0.70136502E+03</pdfrwt>
<pdfrwt beam="2">  1       21 0.42970151E-01 0.70136502E+03</pdfrwt>
<totfact> 0.70722130E+03</totfact>
</mgrwt>
</event>
<event>
 5    0  0.2720079E+000  0.7433440E+03  0.7546771E-02  0.9645851E-01
         21   -1    0    0  502  501  0.00000000000E+00  0.00000000000E+00  0.26531643230E+03  0.26531643230E+03  0.00000000000E+00 0. -1.
         21   -1    0    0  504  502 -0.00000000000E+00 -0.00000000000E+00 -0.10644504028E+04  0.10644504028E+04  0.00000000000E+00 0.  1.
         25    1    1    2    0    0 -0.23226495062E+03 -0.19316284577E+03 -0.18122812857E+03  0.37380145380E+03  0.12500000000E+03 0.  0.
         21    1    1    2  503  501 -0.24348418485E+02 -0.64817700278E+01  0.13422516898E+03  0.13656959696E+03  0.00000000000E+00 0. -1.
         21    1    1    2  504  503  0.25661336911E+03  0.19964461580E+03 -0.75213101087E+03  0.81939578431E+03  0.00000000000E+00 0.  1.
<mgrwt>
<rscale>  4 0.74334404E+03</rscale>
<asrwt>0</asrwt>
<pdfrwt beam="1">  1       21 0.40817913E-01 0.74334404E+03</pdfrwt>
<pdfrwt beam="2">  1       21 0.16376160E+00 0.74334404E+03</pdfrwt>
<totfact> 0.10490354E+03</totfact>
</mgrwt>
</event>
<event>
 5    0  0.2720079E+000  0.3930363E+03  0.7546771E-02  0.1046218E+00
         21   -1    0    0  503  501  0.00000000000E+00  0.00000000000E+00  0.41446463751E+03  0.41446463751E+03  0.00000000000E+00 0.  1.
         21   -1    0    0  504  502 -0.00000000000E+00 -0.00000000000E+00 -0.81337229598E+03  0.81337229598E+03  0.00000000000E+00 0.  1.
         25    1    1    2    0    0  0.21156059059E+03 -0.10123921959E+03 -0.50221758115E+03  0.56820309915E+03  0.12500000000E+03 0.  0.
         21    1    1    2  503  502 -0.28927301163E+03  0.15621916785E+01  0.30579368025E+03  0.42094072098E+03  0.00000000000E+00 0.  1.
         21    1    1    2  504  501  0.77712421041E+02  0.99677027915E+02 -0.20248375758E+03  0.23869311335E+03  0.00000000000E+00 0. -1.
<mgrwt>
<rscale>  4 0.39303628E+03</rscale>
<asrwt>0</asrwt>
<pdfrwt beam="1">  1       21 0.63763791E-01 0.39303628E+03</pdfrwt>
<pdfrwt beam="2">  1       21 0.12513420E+00 0.39303628E+03</pdfrwt>
<totfact> 0.93924576E+02</totfact>
</mgrwt>
</event>
<event>
 5    0  0.2720079E+000  0.4482051E+03  0.7546771E-02  0.1028259E+00
         21   -1    0    0  502  501  0.00000000000E+00  0.00000000000E+00  0.14598184416E+03  0.14598184416E+03  0.00000000000E+00 0.  1.
         21   -1    0    0  504  502 -0.00000000000E+00 -0.00000000000E+00 -0.41802320289E+03  0.41802320289E+03  0.00000000000E+00 0.  1.
         25    1    1    2    0    0 -0.47569725967E+02 -0.21372553278E+03 -0.21751846433E+03  0.33298763418E+03  0.12500000000E+03 0.  0.
         21    1    1    2  503  501 -0.10293002777E+02  0.42942731176E+02 -0.11729130940E+02  0.45690224115E+02  0.00000000000E+00 0. -1.
         21    1    1    2  504  503  0.57862728744E+02  0.17078280161E+03 -0.42793763462E+02  0.18532718876E+03  0.00000000000E+00 0.  1.
<mgrwt>
<rscale>  4 0.44820509E+03</rscale>
<asrwt>0</asrwt>
<pdfrwt beam="1">  1       21 0.22458745E-01 0.44820509E+03</pdfrwt>
<pdfrwt beam="2">  1       21 0.64311263E-01 0.44820509E+03</pdfrwt>
<totfact> 0.37925513E+04</totfact>
</mgrwt>
</event>
<event>
 5    0  0.2720079E+000  0.5341921E+03  0.7546771E-02  0.1005221E+00
         21   -1    0    0  502  501  0.00000000000E+00  0.00000000000E+00  0.60085783151E+03  0.60085783151E+03  0.00000000000E+00 0.  1.
         21   -1    0    0  504  502 -0.00000000000E+00 -0.00000000000E+00 -0.48569931555E+03  0.48569931555E+03  0.00000000000E+00 0.  1.
         25    1    1    2    0    0 -0.92830854581E+02  0.19062436862E+03 -0.38520448871E+03  0.45712439838E+03  0.12500000000E+03 0.  0.
         21    1    1    2  503  501  0.11190026981E+02 -0.43808984412E+02  0.45250798281E+03  0.45476138614E+03  0.00000000000E+00 0.  1.
         21    1    1    2  504  503  0.81640827600E+02 -0.14681538421E+03  0.47855021864E+02  0.17467136253E+03  0.00000000000E+00 0. -1.
<mgrwt>
<rscale>  4 0.53419212E+03</rscale>
<asrwt>0</asrwt>
<pdfrwt beam="1">  1       21 0.92439666E-01 0.53419212E+03</pdfrwt>
<pdfrwt beam="2">  1       21 0.74722972E-01 0.53419212E+03</pdfrwt>
<totfact> 0.13143318E+03</totfact>
</mgrwt>
</event>
<event>
 5    0  0.2720079E+000  0.7471252E+03  0.7546771E-02  0.9639871E-01
         21   -1    0    0  502  501  0.00000000000E+00  0.00000000000E+00  0.34515887429E+03  0.34515887429E+03  0.00000000000E+00 0.  1.
         21   -1    0    0  504  502 -0.00000000000E+00 -0.00000000000E+00 -0.52435797193E+03  0.52435797193E+03  0.00000000000E+00 0. -1.
         25    1    1    2    0    0  0.29849414301E+03 -0.16151005988E+03  0.71978292243E+02  0.36876839264E+03  0.12500000000E+03 0.  0.
         21    1    1    2  503  501 -0.57459485634E+02  0.25277751665E+02  0.58178702416E+02  0.85588075299E+02  0.00000000000E+00 0.  1.
         21    1    1    2  504  503 -0.24103465738E+03  0.13623230821E+03 -0.30935609230E+03  0.41516037829E+03  0.00000000000E+00 0. -1.
<mgrwt>
<rscale>  4 0.74712522E+03</rscale>
<asrwt>0</asrwt>
<pdfrwt beam="1">  1       21 0.53101366E-01 0.74712522E+03</pdfrwt>
<pdfrwt beam="2">  1       21 0.80670457E-01 0.74712522E+03</pdfrwt>
<totfact> 0.36771276E+03</totfact>
</mgrwt>
</event>
<event>
 5    0  0.2720079E+000  0.7845738E+03  0.7546771E-02  0.9582618E-01
         21   -1    0    0  503  501  0.00000000000E+00  0.00000000000E+00  0.21777976219E+03  0.21777976219E+03  0.00000000000E+00 0.  1.
         21   -1    0    0  504  502 -0.00000000000E+00 -0.00000000000E+00 -0.10177968356E+04  0.10177968356E+04  0.00000000000E+00 0.  1.
         25    1    1    2    0    0 -0.14523082848E+03  0.27844523084E+03 -0.10950731152E+03  0.35530352010E+03  0.12500000000E+03 0.  0.
         21    1    1    2  503  502 -0.55485860917E+01 -0.20084810451E+02  0.64701870650E+02  0.67974395798E+02  0.00000000000E+00 0.  1.
         21    1    1    2  504  501  0.15077941457E+03 -0.25836042039E+03 -0.75521163257E+03  0.81229868193E+03  0.00000000000E+00 0.  1.
<mgrwt>
<rscale>  4 0.78457380E+03</rscale>
<asrwt>0</asrwt>
<pdfrwt beam="1">  1       21 0.33504579E-01 0.78457380E+03</pdfrwt>
<pdfrwt beam="2">  1       21 0.15658413E+00 0.78457380E+03</pdfrwt>
<totfact> 0.17721911E+03</totfact>
</mgrwt>
</event>
<event>
 5    0  0.2720079E+000  0.6022679E+03  0.7546771E-02  0.9900712E-01
         21   -1    0    0  504  501  0.00000000000E+00  0.00000000000E+00  0.72945962227E+03  0.72945962227E+03  0.00000000000E+00 0. -1.
         21   -1    0    0  501  502 -0.00000000000E+00 -0.00000000000E+00 -0.26998783151E+04  0.26998783151E+04  0.00000000000E+00 0. -1.
         25    1    1    2    0    0 -0.22548990669E+03 -0.12796785690E+03 -0.25835294999E+04  0.25995136366E+04  0.12500000000E+03 0.  0.
         21    1    1    2  503  502  0.80532340499E+02 -0.52214691616E+02 -0.63301300660E+02  0.11497341672E+03  0.00000000000E+00 0.  1.
         21    1    1    2  504  503  0.14495756620E+03  0.18018254852E+03  0.67641210775E+03  0.71485088396E+03  0.00000000000E+00 0. -1.
<mgrwt>
<rscale>  4 0.60226794E+03</rscale>
<asrwt>0</asrwt>
<pdfrwt beam="1">  1       21 0.11222456E+00 0.60226794E+03</pdfrwt>
<pdfrwt beam="2">  1       21 0.41536589E+00 0.60226794E+03</pdfrwt>
<totfact> 0.27066305E+00</totfact>
</mgrwt>
</event>
<event>
 5    0  0.2720079E+000  0.5885731E+03  0.7546771E-02  0.9929401E-01
         21   -1    0    0  502  501  0.00000000000E+00  0.00000000000E+00  0.43477243648E+03  0.43477243648E+03  0.00000000000E+00 0.  1.
         21   -1    0    0  504  502 -0.00000000000E+00 -0.00000000000E+00 -0.38629026818E+03  0.38629026818E+03  0.00000000000E+00 0.  1.
         25    1    1    2    0    0 -0.19126486098E+03 -0.17091737060E+03 -0.19249875536E+03  0.34420308748E+03  0.12500000000E+03 0.  0.
         21    1    1    2  503  501  0.13743823333E+02 -0.24448338465E+02  0.20909579357E+03  0.21096839769E+03  0.00000000000E+00 0.  1.
         21    1    1    2  504  503  0.17752103765E+03  0.19536570906E+03  0.31885130087E+02  0.26589121950E+03  0.00000000000E+00 0. -1.
<mgrwt>
<rscale>  4 0.58857313E+03</rscale>
<asrwt>0</asrwt>
<pdfrwt beam="1">  1       21 0.66888067E-01 0.58857313E+03</pdfrwt>
<pdfrwt beam="2">  1       21 0.59429272E-01 0.58857313E+03</pdfrwt>
<totfact> 0.45763310E+03</totfact>
</mgrwt>
</event>
<event>
 5    0  0.2720079E+000  0.1137378E+04  0.7546771E-02  0.9169507E-01
         21   -1    0    0  504  501  0.00000000000E+00  0.00000000000E+00  0.14549183614E+04  0.14549183614E+04  0.00000000000E+00 0.  1.
         21   -1    0    0  503  502 -0.00000000000E+00 -0.00000000000E+00 -0.34525271424E+03  0.34525271424E+03  0.00000000000E+00 0. -1.
         25    1    1    2    0    0  0.53376671368E+03 -0.22685350276E+03  0.37113953960E+03  0.69981352817E+03  0.12500000000E+03 0.  0.
         21    1    1    2  503  501 -0.50509574627E+03  0.18877637240E+03  0.22443697278E+03  0.58406351232E+03  0.00000000000E+00 0. -1.
         21    1    1    2  504  502 -0.28670967414E+02  0.38077130367E+02  0.51408913478E+03  0.51629403515E+03  0.00000000000E+00 0.  1.
<mgrwt>
<rscale>  4 0.11373781E+04</rscale>
<asrwt>0</asrwt>
<pdfrwt beam="1">  1       21 0.22383359E+00 0.11373781E+04</pdfrwt>
<pdfrwt beam="2">  1       21 0.53115803E-01 0.11373781E+04</pdfrwt>
<totfact> 0.20782319E+02</totfact>
</mgrwt>
</event>
<event>
 5    0  0.2720079E+000  0.6173273E+03  0.7546771E-02  0.9870096E-01
         21   -1    0    0  502  501  0.00000000000E+00  0.00000000000E+00  0.38098708073E+03  0.38098708073E+03  0.00000000000E+00 0. -1.
         21   -1    0    0  503  502 -0.00000000000E+00 -0.00000000000E+00 -0.32421285866E+03  0.32421285866E+03  0.00000000000E+00 0. -1.
         25    1    1    2    0    0 -0.28023929226E+03 -0.11573596877E+03 -0.13152030613E+01  0.32795671231E+03  0.12500000000E+03 0.  0.
         21    1    1    2  503  504  0.27210981880E+03  0.96685100324E+02 -0.26655333878E+02  0.29000391193E+03  0.00000000000E+00 0. -1.
         21    1    1    2  504  501  0.81294734555E+01  0.19050868446E+02  0.84744759011E+02  0.87239315146E+02  0.00000000000E+00 0. -1.
<mgrwt>
<rscale>  4 0.61732729E+03</rscale>
<asrwt>0</asrwt>
<pdfrwt beam="1">  1       21 0.58613397E-01 0.61732729E+03</pdfrwt>
<pdfrwt beam="2">  1       21 0.49878901E-01 0.61732729E+03</pdfrwt>
<totfact> 0.89163606E+03</totfact>
</mgrwt>
</event>
<event>
 5    0  0.2720079E+000  0.6599024E+03  0.7546771E-02  0.9788374E-01
         21   -1    0    0  502  501  0.00000000000E+00  0.00000000000E+00  0.59046808704E+03  0.59046808704E+03  0.00000000000E+00 0.  1.
         21   -1    0    0  503  502 -0.00000000000E+00 -0.00000000000E+00 -0.24329368896E+03  0.24329368896E+03  0.00000000000E+00 0.  1.
         25    1    1    2    0    0 -0.52086615486E+02  0.20940285872E+03  0.35015805201E+03  0.42988165131E+03  0.12500000000E+03 0.  0.
         21    1    1    2  503  504  0.75194962158E+02 -0.20573076244E+03 -0.14321776741E+03  0.26170738975E+03  0.00000000000E+00 0.  1.
         21    1    1    2  504  501 -0.23108346672E+02 -0.36720962786E+01  0.14023411348E+03  0.14217273494E+03  0.00000000000E+00 0.  1.
<mgrwt>
<rscale>  4 0.65990236E+03</rscale>
<asrwt>0</asrwt>
<pdfrwt beam="1">  1       21 0.90841244E-01 0.65990236E+03</pdfrwt>
<pdfrwt beam="2">  1       21 0.37429798E-01 0.65990236E+03</pdfrwt>
<totfact> 0.59157706E+03</totfact>
</mgrwt>
</event>
<event>
 5    0  0.5218037E+000  0.8458125E+03  0.7546771E-02  0.9495975E-01
         21   -1    0    0  504  501  0.00000000000E+00  0.00000000000E+00  0.49886722165E+03  0.49886722165E+03  0.00000000000E+00 0. -1.
         21   -1    0    0  503  502 -0.00000000000E+00 -0.00000000000E+00 -0.95263064414E+03  0.95263064414E+03  0.00000000000E+00 0. -1.
         25    1    1    2    0    0  0.95263789648E+02  0.23532057935E+03 -0.88999741251E+03  0.93390115053E+03  0.12500000000E+03 0.  0.
         21    1    1    2  503  501 -0.14215862019E+02 -0.34473341928E+02  0.17173591431E+03  0.17573766330E+03  0.00000000000E+00 0.  1.
         21    1    1    2  504  502 -0.81047927629E+02 -0.20084723742E+03  0.26449807572E+03  0.34185905196E+03  0.00000000000E+00 0. -1.
<mgrwt>
<rscale>  4 0.84581246E+03</rscale>
<asrwt>0</asrwt>
<pdfrwt beam="1">  1       21 0.76748804E-01 0.84581246E+03</pdfrwt>
<pdfrwt beam="2">  1       21 0.14655856E+00 0.84581246E+03</pdfrwt>
<totfact> 0.34878552E+02</totfact>
</mgrwt>
</event>
<event>
 5    0  0.2720079E+000  0.4807473E+03  0.7546771E-02  0.1018930E+00
         21   -1    0    0  502  501  0.00000000000E+00  0.00000000000E+00  0.20317637568E+03  0.20317637568E+03  0.00000000000E+00 0.  1.
         21   -1    0    0  504  502 -0.00000000000E+00 -0.00000000000E+00 -0.32672859052E+03  0.32672859052E+03  0.00000000000E+00 0.  1.
         25    1    1    2    0    0  0.19894010737E+03 -0.58968663040E+02 -0.50962201261E+02  0.24754113900E+03  0.12500000000E+03 0.  0.
         21    1    1    2  503  501  0.30107461842E+02 -0.41188981563E+01  0.81157617029E+01  0.31452983461E+02  0.00000000000E+00 0. -1.
         21    1    1    2  504  503 -0.22904756921E+03  0.63087561197E+02 -0.80705775283E+02  0.25091084374E+03  0.00000000000E+00 0. -1.
<mgrwt>
<rscale>  4 0.48074725E+03</rscale>
<asrwt>0</asrwt>
<pdfrwt beam="1">  1       21 0.31257904E-01 0.48074725E+03</pdfrwt>
<pdfrwt beam="2">  1       21 0.50265936E-01 0.48074725E+03</pdfrwt>
<totfact> 0.33639525E+04</totfact>
</mgrwt>
</event>
<event>
 5    0  0.2720079E+000  0.5192433E+03  0.7546771E-02  0.1008875E+00
         21   -1    0    0  504  501  0.00000000000E+00  0.00000000000E+00  0.23163981387E+04  0.23163981387E+04  0.00000000000E+00 0. -1.
         21   -1    0    0  503  502 -0.00000000000E+00 -0.00000000000E+00 -0.35032804392E+02  0.35032804392E+02  0.00000000000E+00 0.  1.
         25    1    1    2    0    0 -0.12882200617E+02  0.22696119728E+03  0.92721651495E+03  0.96282542642E+03  0.12500000000E+03 0.  0.
         21    1    1    2  503  501 -0.13402875396E+01 -0.25931998635E+03  0.10143795392E+04  0.10470026271E+04  0.00000000000E+00 0. -1.
         21    1    1    2  504  502  0.14222488156E+02  0.32358789068E+02  0.33976928014E+03  0.34160288952E+03  0.00000000000E+00 0. -1.
<mgrwt>
<rscale>  4 0.51924326E+03</rscale>
<asrwt>0</asrwt>
<pdfrwt beam="1">  1       21 0.35636882E+00 0.51924326E+03</pdfrwt>
<pdfrwt beam="2">  1       21 0.53896640E-02 0.51924326E+03</pdfrwt>
<totfact> 0.29708764E+03</totfact>
</mgrwt>
</event>
<event>
 5    0  0.2720079E+000  0.7803933E+03  0.7546771E-02  0.9588839E-01
         21   -1    0    0  502  501  0.00000000000E+00  0.00000000000E+00  0.18893373930E+04  0.18893373930E+04  0.00000000000E+00 0. -1.
         21   -1    0    0  503  502 -0.00000000000E+00 -0.00000000000E+00 -0.46884399819E+03  0.46884399819E+03  0.00000000000E+00 0. -1.
         25    1    1    2    0    0 -0.23938043567E+03 -0.38585215701E+02 -0.40864651067E+03  0.49133367739E+03  0.12500000000E+03 0.  0.
         21    1    1    2  503  504  0.75263648687E+02 -0.89746475000E+02  0.27639296284E+03  0.30018680266E+03  0.00000000000E+00 0.  1.
         21    1    1    2  504  501  0.16411678698E+03  0.12833169070E+03  0.15527469426E+04  0.15666609111E+04  0.00000000000E+00 0. -1.
<mgrwt>
<rscale>  4 0.78039328E+03</rscale>
<asrwt>0</asrwt>
<pdfrwt beam="1">  1       21 0.29066729E+00 0.78039328E+03</pdfrwt>
<pdfrwt beam="2">  1       21 0.72129847E-01 0.78039328E+03</pdfrwt>
<totfact> 0.43559456E+01</totfact>
</mgrwt>
</event>
<event>
 5    0  0.2720079E+000  0.5619814E+03  0.7546771E-02  0.9987581E-01
         21   -1    0    0  502  501  0.00000000000E+00  0.00000000000E+00  0.76991995798E+03  0.76991995798E+03  0.00000000000E+00 0.  1.
         21   -1    0    0  504  502 -0.00000000000E+00 -0.00000000000E+00 -0.22953422854E+03  0.22953422854E+03  0.00000000000E+00 0.  1.
         25    1    1    2    0    0 -0.83857762268E+02  0.18330236905E+03 -0.11375532080E+03  0.26305352270E+03  0.12500000000E+03 0.  0.
         21    1    1    2  503  501  0.54758121219E+02  0.21033518528E+02  0.42082732297E+03  0.42489586547E+03  0.00000000000E+00 0.  1.
         21    1    1    2  504  503  0.29099641049E+02 -0.20433588758E+03  0.23331372727E+03  0.31150479835E+03  0.00000000000E+00 0.  1.
<mgrwt>
<rscale>  4 0.56198136E+03</rscale>
<asrwt>0</asrwt>
<pdfrwt beam="1">  1       21 0.11844922E+00 0.56198136E+03</pdfrwt>
<pdfrwt beam="2">  1       21 0.35312959E-01 0.56198136E+03</pdfrwt>
<totfact> 0.35457657E+03</totfact>
</mgrwt>
</event>
<event>
 5    0  0.2720079E+000  0.1095279E+04  0.7546771E-02  0.9209806E-01
         21   -1    0    0  503  501  0.00000000000E+00  0.00000000000E+00  0.90739013499E+03  0.90739013499E+03  0.00000000000E+00 0. -1.
         21   -1    0    0  504  502 -0.00000000000E+00 -0.00000000000E+00 -0.43115319252E+03  0.43115319252E+03  0.00000000000E+00 0.  1.
         25    1    1    2    0    0  0.22819635359E+03 -0.52470555459E+03  0.39458232464E+03  0.70619381598E+03  0.12500000000E+03 0.  0.
         21    1    1    2  503  502 -0.14013906104E+03  0.67802393601E+02  0.59008078583E+02  0.16648746003E+03  0.00000000000E+00 0. -1.
         21    1    1    2  504  501 -0.88057292546E+02  0.45690316098E+03  0.22646539244E+02  0.46586205150E+03  0.00000000000E+00 0. -1.
<mgrwt>
<rscale>  4 0.10952785E+04</rscale>
<asrwt>0</asrwt>
<pdfrwt beam="1">  1       21 0.13959848E+00 0.10952785E+04</pdfrwt>
<pdfrwt beam="2">  1       21 0.66331260E-01 0.10952785E+04</pdfrwt>
<totfact> 0.52981714E+02</totfact>
</mgrwt>
</event>
<event>
 5    0  0.2720079E+000  0.5731321E+03  0.7546771E-02  0.9962772E-01
         21   -1    0    0  502  501  0.00000000000E+00  0.00000000000E+00  0.25701873965E+03  0.25701873965E+03  0.00000000000E+00 0.  1.
         21   -1    0    0  503  502 -0.00000000000E+00 -0.00000000000E+00 -0.17748925241E+04  0.17748925241E+04  0.00000000000E+00 0. -1.
         25    1    1    2    0    0  0.12850770728E+03  0.28057447868E+03 -0.90282952526E+03  0.96226941165E+03  0.12500000000E+03 0.  0.
         21    1    1    2  503  504 -0.23933021342E+03 -0.94781383994E+01 -0.71979449797E+03  0.75859930495E+03  0.00000000000E+00 0. -1.
         21    1    1    2  504  501  0.11082250614E+03 -0.27109634028E+03  0.10475023882E+03  0.31104254711E+03  0.00000000000E+00 0.  1.
<mgrwt>
<rscale>  4 0.57313211E+03</rscale>
<asrwt>0</asrwt>
<pdfrwt beam="1">  1       21 0.39541345E-01 0.57313211E+03</pdfrwt>
<pdfrwt beam="2">  1       21 0.27306039E+00 0.57313211E+03</pdfrwt>
<totfact> 0.22408435E+02</totfact>
</mgrwt>
</event>
<event>
 5    0  0.2720079E+000  0.4569974E+03  0.7546771E-02  0.1025656E+00
         21   -1    0    0  503  501  0.00000000000E+00  0.00000000000E+00  0.23312529371E+03  0.23312529371E+03  0.00000000000E+00 0.  1.
         21   -1    0    0  504  502 -0.00000000000E+00 -0.00000000000E+00 -0.27372302551E+03  0.27372302551E+03  0.00000000000E+00 0.  1.
         25    1    1    2    0    0  0.73291131645E+02 -0.19267536453E+03 -0.43017826346E+01  0.24112007674E+03  0.12500000000E+03 0.  0.
         21    1    1    2  503  502  0.37876912075E+02  0.75790369446E+01 -0.31364302109E+02  0.49757629728E+02  0.00000000000E+00 0.  1.
         21    1    1    2  504  501 -0.11116804372E+03  0.18509632758E+03 -0.49316470642E+01  0.21597061275E+03  0.00000000000E+00 0.  1.
<mgrwt>
<rscale>  4 0.45699742E+03</rscale>
<asrwt>0</asrwt>
<pdfrwt beam="1">  1       21 0.35865430E-01 0.45699742E+03</pdfrwt>
<pdfrwt beam="2">  1       21 0.42111235E-01 0.45699742E+03</pdfrwt>
<totfact> 0.37201412E+04</totfact>
</mgrwt>
</event>
<event>
 5    0  0.2720079E+000  0.4889402E+03  0.7546771E-02  0.1016707E+00
         21   -1    0    0  502  501  0.00000000000E+00  0.00000000000E+00  0.62115608183E+03  0.62115608183E+03  0.00000000000E+00 0. -1.
         21   -1    0    0  504  502 -0.00000000000E+00 -0.00000000000E+00 -0.11925566927E+03  0.11925566927E+03  0.00000000000E+00 0.  1.
         25    1    1    2    0    0 -0.11257705329E+03 -0.18342001966E+03  0.33848536300E+03  0.42013549898E+03  0.12500000000E+03 0.  0.
         21    1    1    2  503  501  0.34413994157E+02 -0.19253959284E+01  0.10544730534E+03  0.11093765973E+03  0.00000000000E+00 0.  1.
         21    1    1    2  504  503  0.78163059129E+02  0.18534541559E+03  0.57967744210E+02  0.20933859238E+03  0.00000000000E+00 0.  1.
<mgrwt>
<rscale>  4 0.48894025E+03</rscale>
<asrwt>0</asrwt>
<pdfrwt beam="1">  1       21 0.95562472E-01 0.48894025E+03</pdfrwt>
<pdfrwt beam="2">  1       21 0.18347026E-01 0.48894025E+03</pdfrwt>
<totfact> 0.22162578E+04</totfact>
</mgrwt>
</event>
<event>
 5    0  0.2720079E+000  0.3575853E+03  0.7546771E-02  0.1059544E+00
         21   -1    0    0  503  501  0.00000000000E+00  0.00000000000E+00  0.84198677336E+03  0.84198677336E+03  0.00000000000E+00 0.  1.
         21   -1    0    0  504  502 -0.00000000000E+00 -0.00000000000E+00 -0.18034764889E+03  0.18034764889E+03  0.00000000000E+00 0. -1.
         25    1    1    2    0    0  0.17636170642E+03 -0.11956895723E+03  0.55690053112E+01  0.24709552979E+03  0.12500000000E+03 0.  0.
         21    1    1    2  503  502 -0.10076129806E+03  0.38928858103E+02  0.65586671705E+03  0.66470252422E+03  0.00000000000E+00 0.  1.
         21    1    1    2  504  501 -0.75600408355E+02  0.80640099124E+02  0.20340210549E+00  0.11053636824E+03  0.00000000000E+00 0.  1.
<mgrwt>
<rscale>  4 0.35758531E+03</rscale>
<asrwt>0</asrwt>
<pdfrwt beam="1">  1       21 0.12953643E+00 0.35758531E+03</pdfrwt>
<pdfrwt beam="2">  1       21 0.27745792E-01 0.35758531E+03</pdfrwt>
<totfact> 0.48988807E+03</totfact>
</mgrwt>
</event>
<event>
 5    0  0.2720079E+000  0.5873139E+03  0.7546771E-02  0.9932081E-01
         21   -1    0    0  504  501  0.00000000000E+00  0.00000000000E+00  0.93817222094E+03  0.93817222094E+03  0.00000000000E+00 0.  1.
         21   -1    0    0  503  502 -0.00000000000E+00 -0.00000000000E+00 -0.12311721120E+03  0.12311721120E+03  0.00000000000E+00 0.  1.
         25    1    1    2    0    0  0.20246473075E+03  0.16652081146E+03  0.17028205232E+03  0.33666322221E+03  0.12500000000E+03 0.  0.
         21    1    1    2  503  501 -0.16135824257E+03 -0.20477260670E+03  0.43202375503E+03  0.50459174370E+03  0.00000000000E+00 0.  1.
         21    1    1    2  504  502 -0.41106488183E+02  0.38251795240E+02  0.21274920239E+03  0.22003446622E+03  0.00000000000E+00 0.  1.
<mgrwt>
<rscale>  4 0.58731391E+03</rscale>
<asrwt>0</asrwt>
<pdfrwt beam="1">  1       21 0.14433418E+00 0.58731391E+03</pdfrwt>
<pdfrwt beam="2">  1       21 0.18941110E-01 0.58731391E+03</pdfrwt>
<totfact> 0.71321314E+03</totfact>
</mgrwt>
</event>
<event>
 5    0  0.2720079E+000  0.7332795E+03  0.7546771E-02  0.9661954E-01
         21   -1    0    0  503  501  0.00000000000E+00  0.00000000000E+00  0.66483429195E+03  0.66483429195E+03  0.00000000000E+00 0.  1.
         21   -1    0    0  504  502 -0.00000000000E+00 -0.00000000000E+00 -0.42535533842E+03  0.42535533842E+03  0.00000000000E+00 0.  1.
         25    1    1    2    0    0  0.81122878042E+02 -0.29019052679E+03  0.14723454794E+03  0.35790288527E+03  0.12500000000E+03 0.  0.
         21    1    1    2  503  502 -0.23293682120E+03  0.20601811119E+03 -0.21592896809E+03  0.37858730046E+03  0.00000000000E+00 0. -1.
         21    1    1    2  504  501  0.15181394316E+03  0.84172415607E+02  0.30817337369E+03  0.35369944464E+03  0.00000000000E+00 0.  1.
<mgrwt>
<rscale>  4 0.73327953E+03</rscale>
<asrwt>0</asrwt>
<pdfrwt beam="1">  1       21 0.10228220E+00 0.73327953E+03</pdfrwt>
<pdfrwt beam="2">  1       21 0.65439283E-01 0.73327953E+03</pdfrwt>
<totfact> 0.13137713E+03</totfact>
</mgrwt>
</event>
<event>
 5    0  0.2720079E+000  0.6331400E+03  0.7546771E-02  0.9838940E-01
         21   -1    0    0  502  501  0.00000000000E+00  0.00000000000E+00  0.14897754602E+04  0.14897754602E+04  0.00000000000E+00 0.  1.
         21   -1    0    0  503  502 -0.00000000000E+00 -0.00000000000E+00 -0.32594011401E+03  0.32594011401E+03  0.00000000000E+00 0.  1.
         25    1    1    2    0    0 -0.23072881666E+01  0.29307190580E+03 -0.21928567807E+03  0.38679151252E+03  0.12500000000E+03 0.  0.
         21    1    1    2  503  504 -0.18071727044E+02 -0.12222414540E+03  0.21315922116E+03  0.24637812931E+03  0.00000000000E+00 0. -1.
         21    1    1    2  504  501  0.20379015210E+02 -0.17084776040E+03  0.11699618031E+04  0.11825459324E+04  0.00000000000E+00 0.  1.
<mgrwt>
<rscale>  4 0.63314000E+03</rscale>
<asrwt>0</asrwt>
<pdfrwt beam="1">  1       21 0.22919622E+00 0.63314000E+03</pdfrwt>
<pdfrwt beam="2">  1       21 0.50144634E-01 0.63314000E+03</pdfrwt>
<totfact> 0.24877230E+02</totfact>
</mgrwt>
</event>
<event>
 5    0  0.2720079E+000  0.7760029E+03  0.7546771E-02  0.9595416E-01
         21   -1    0    0  504  501  0.00000000000E+00  0.00000000000E+00  0.79272015034E+03  0.79272015034E+03  0.00000000000E+00 0.  1.
         21   -1    0    0  501  502 -0.00000000000E+00 -0.00000000000E+00 -0.58667176558E+03  0.58667176558E+03  0.00000000000E+00 0. -1.
         25    1    1    2    0    0 -0.32436102318E+03  0.39226699518E+02  0.14960023646E+02  0.35013941455E+03  0.12500000000E+03 0.  0.
         21    1    1    2  503  502  0.34678241485E+03 -0.64175865056E+02 -0.34426825984E+03  0.49284604050E+03  0.00000000000E+00 0. -1.
         21    1    1    2  504  503 -0.22421391664E+02  0.24949165538E+02  0.53535662096E+03  0.53640646087E+03  0.00000000000E+00 0.  1.
<mgrwt>
<rscale>  4 0.77600294E+03</rscale>
<asrwt>0</asrwt>
<pdfrwt beam="1">  1       21 0.12195695E+00 0.77600294E+03</pdfrwt>
<pdfrwt beam="2">  1       21 0.90257194E-01 0.77600294E+03</pdfrwt>
<totfact> 0.39508456E+02</totfact>
</mgrwt>
</event>
<event>
 5    0  0.2720079E+000  0.5227134E+03  0.7546771E-02  0.1008015E+00
         21   -1    0    0  503  501  0.00000000000E+00  0.00000000000E+00  0.36076069457E+03  0.36076069457E+03  0.00000000000E+00 0.  1.
         21   -1    0    0  504  502 -0.00000000000E+00 -0.00000000000E+00 -0.22256284673E+03  0.22256284673E+03  0.00000000000E+00 0.  1.
         25    1    1    2    0    0 -0.18081915726E+03  0.15301549839E+03  0.42032638667E+02  0.27111077642E+03  0.12500000000E+03 0.  0.
         21    1    1    2  503  502 -0.27240880935E+02 -0.60354975958E+01  0.44134017814E+02  0.52214024493E+02  0.00000000000E+00 0.  1.
         21    1    1    2  504  501  0.20806003820E+03 -0.14698000079E+03  0.52031191362E+02  0.25999874039E+03  0.00000000000E+00 0.  1.
<mgrwt>
<rscale>  4 0.52271342E+03</rscale>
<asrwt>0</asrwt>
<pdfrwt beam="1">  1       21 0.55501645E-01 0.52271342E+03</pdfrwt>
<pdfrwt beam="2">  1       21 0.34240438E-01 0.52271342E+03</pdfrwt>
<totfact> 0.22423993E+04</totfact>
</mgrwt>
</event>
<event>
 5    0  0.3589662E+000  0.4401516E+03  0.7546771E-02  0.1030700E+00
         21   -1    0    0  504  501  0.00000000000E+00  0.00000000000E+00  0.94497886266E+03  0.94497886266E+03  0.00000000000E+00 0. -1.
         21   -1    0    0  501  502 -0.00000000000E+00 -0.00000000000E+00 -0.14921523595E+03  0.14921523595E+03  0.00000000000E+00 0. -1.
         25    1    1    2    0    0 -0.20122629643E+03 -0.25317271168E+03  0.17012322969E+03  0.38620636659E+03  0.12500000000E+03 0.  0.
         21    1    1    2  503  502  0.14669725701E+02  0.55429126037E+02  0.14269309812E+03  0.15378201818E+03  0.00000000000E+00 0.  1.
         21    1    1    2  504  503  0.18655657073E+03  0.19774358564E+03  0.48294729890E+03  0.55420571384E+03  0.00000000000E+00 0. -1.
<mgrwt>
<rscale>  4 0.44015157E+03</rscale>
<asrwt>0</asrwt>
<pdfrwt beam="1">  1       21 0.14538136E+00 0.44015157E+03</pdfrwt>
<pdfrwt beam="2">  1       21 0.22956191E-01 0.44015157E+03</pdfrwt>
<totfact> 0.50579023E+03</totfact>
</mgrwt>
</event>
<event>
 5    0  0.2720079E+000  0.5615905E+03  0.7546771E-02  0.9988462E-01
         21   -1    0    0  504  501  0.00000000000E+00  0.00000000000E+00  0.24376762475E+03  0.24376762475E+03  0.00000000000E+00 0.  1.
         21   -1    0    0  503  502 -0.00000000000E+00 -0.00000000000E+00 -0.40062419698E+03  0.40062419698E+03  0.00000000000E+00 0.  1.
         25    1    1    2    0    0 -0.25701772594E+03 -0.69847753953E+02 -0.34767226231E+02  0.29626100014E+03  0.12500000000E+03 0.  0.
         21    1    1    2  503  501  0.24484657248E+03  0.51804670989E+02 -0.16517468319E+03  0.29986037411E+03  0.00000000000E+00 0.  1.
         21    1    1    2  504  502  0.12171153465E+02  0.18043082964E+02  0.43085337192E+02  0.48270447485E+02  0.00000000000E+00 0.  1.
<mgrwt>
<rscale>  4 0.56159053E+03</rscale>
<asrwt>0</asrwt>
<pdfrwt beam="1">  1       21 0.37502712E-01 0.56159053E+03</pdfrwt>
<pdfrwt beam="2">  1       21 0.61634490E-01 0.56159053E+03</pdfrwt>
<totfact> 0.14681629E+04</totfact>
</mgrwt>
</event>
<event>
 5    0  0.2720079E+000  0.4135410E+03  0.7546771E-02  0.1039189E+00
         21   -1    0    0  502  501  0.00000000000E+00  0.00000000000E+00  0.36753832135E+03  0.36753832135E+03  0.00000000000E+00 0.  1.
         21   -1    0    0  504  502 -0.00000000000E+00 -0.00000000000E+00 -0.25682966726E+03  0.25682966726E+03  0.00000000000E+00 0.  1.
         25    1    1    2    0    0  0.99244655797E+02 -0.18589568881E+03 -0.67899310632E+02  0.25424796008E+03  0.12500000000E+03 0.  0.
         21    1    1    2  503  501 -0.14080045720E+02  0.42021061012E+02  0.19699713601E+03  0.20192050131E+03  0.00000000000E+00 0.  1.
         21    1    1    2  504  503 -0.85164610078E+02  0.14387462780E+03 -0.18389171284E+02  0.16819952721E+03  0.00000000000E+00 0.  1.
<mgrwt>
<rscale>  4 0.41354102E+03</rscale>
<asrwt>0</asrwt>
<pdfrwt beam="1">  1       21 0.56544357E-01 0.41354102E+03</pdfrwt>
<pdfrwt beam="2">  1       21 0.39512257E-01 0.41354102E+03</pdfrwt>
<totfact> 0.16535374E+04</totfact>
</mgrwt>
</event>
<event>
 5    0  0.2720079E+000  0.5069204E+03  0.7546771E-02  0.1011988E+00
         21   -1    0    0  503  501  0.00000000000E+00  0.00000000000E+00  0.26715339347E+03  0.26715339347E+03  0.00000000000E+00 0. -1.
         21   -1    0    0  504  502 -0.00000000000E+00 -0.00000000000E+00 -0.32030481389E+03  0.32030481389E+03  0.00000000000E+00 0. -1.
         25    1    1    2    0    0  0.24633771537E+03  0.40748014030E+02 -0.29277296370E+02  0.28075760140E+03  0.12500000000E+03 0.  0.
         21    1    1    2  503  502 -0.27319031455E+02  0.19533464516E+01  0.61862078638E+02  0.67653985954E+02  0.00000000000E+00 0. -1.
         21    1    1    2  504  501 -0.21901868391E+03 -0.42701360482E+02 -0.85736202682E+02  0.23904662001E+03  0.00000000000E+00 0. -1.
<mgrwt>
<rscale>  4 0.50692043E+03</rscale>
<asrwt>0</asrwt>
<pdfrwt beam="1">  1       21 0.41100523E-01 0.50692043E+03</pdfrwt>
<pdfrwt beam="2">  1       21 0.49277663E-01 0.50692043E+03</pdfrwt>
<totfact> 0.19988453E+04</totfact>
</mgrwt>
</event>
<event>
 5    0  0.2720079E+000  0.5972870E+03  0.7546771E-02  0.9911051E-01
         21   -1    0    0  502  501  0.00000000000E+00  0.00000000000E+00  0.18131997000E+03  0.18131997000E+03  0.00000000000E+00 0. -1.
         21   -1    0    0  503  502 -0.00000000000E+00 -0.00000000000E+00 -0.14464361715E+04  0.14464361715E+04  0.00000000000E+00 0.  1.
         25    1    1    2    0    0  0.17774114598E+03 -0.12385645941E+03 -0.22700521265E+03  0.33777019419E+03  0.12500000000E+03 0.  0.
         21    1    1    2  503  504 -0.16818622809E+03  0.52942548957E+02 -0.11465706976E+04  0.11600490875E+04  0.00000000000E+00 0.  1.
         21    1    1    2  504  501 -0.95549178873E+01  0.70913910451E+02  0.10845970868E+03  0.12993685989E+03  0.00000000000E+00 0. -1.
<mgrwt>
<rscale>  4 0.59728705E+03</rscale>
<asrwt>0</asrwt>
<pdfrwt beam="1">  1       21 0.27895381E-01 0.59728705E+03</pdfrwt>
<pdfrwt beam="2">  1       21 0.22252863E+00 0.59728705E+03</pdfrwt>
<totfact> 0.92939085E+02</totfact>
</mgrwt>
</event>
<event>
 5    0  0.2720079E+000  0.4388442E+03  0.7546771E-02  0.1031102E+00
         21   -1    0    0  502  501  0.00000000000E+00  0.00000000000E+00  0.21230990840E+03  0.21230990840E+03  0.00000000000E+00 0. -1.
         21   -1    0    0  504  502 -0.00000000000E+00 -0.00000000000E+00 -0.30270300175E+03  0.30270300175E+03  0.00000000000E+00 0. -1.
         25    1    1    2    0    0  0.14839789199E+02  0.21943503576E+03  0.19049397168E+02  0.25369239995E+03  0.12500000000E+03 0.  0.
         21    1    1    2  503  501 -0.40882772149E+02 -0.47272142569E+02 -0.37770178511E+02  0.73024947151E+02  0.00000000000E+00 0. -1.
         21    1    1    2  504  503  0.26042982950E+02 -0.17216289319E+03 -0.71672312007E+02  0.18829556304E+03  0.00000000000E+00 0. -1.
<mgrwt>
<rscale>  4 0.43884415E+03</rscale>
<asrwt>0</asrwt>
<pdfrwt beam="1">  1       21 0.32663063E-01 0.43884415E+03</pdfrwt>
<pdfrwt beam="2">  1       21 0.46569692E-01 0.43884415E+03</pdfrwt>
<totfact> 0.36560912E+04</totfact>
</mgrwt>
</event>
<event>
 5    0  0.2720079E+000  0.7519175E+03  0.7546771E-02  0.9632347E-01
         21   -1    0    0  504  501  0.00000000000E+00  0.00000000000E+00  0.72805890729E+03  0.72805890729E+03  0.00000000000E+00 0.  1.
         21   -1    0    0  501  502 -0.00000000000E+00 -0.00000000000E+00 -0.57493139210E+03  0.57493139210E+03  0.00000000000E+00 0.  1.
         25    1    1    2    0    0 -0.24757642691E+03  0.13570092294E+03 -0.43030392973E+03  0.52961806955E+03  0.12500000000E+03 0.  0.
         21    1    1    2  503  502  0.23016080383E+03 -0.14635660175E+03  0.10152787803E+03  0.29103635599E+03  0.00000000000E+00 0.  1.
         21    1    1    2  504  503  0.17415623080E+02  0.10655678804E+02  0.48190356690E+03  0.48233587385E+03  0.00000000000E+00 0.  1.
<mgrwt>
<rscale>  4 0.75191754E+03</rscale>
<asrwt>0</asrwt>
<pdfrwt beam="1">  1       21 0.11200906E+00 0.75191754E+03</pdfrwt>
<pdfrwt beam="2">  1       21 0.88450984E-01 0.75191754E+03</pdfrwt>
<totfact> 0.51855701E+02</totfact>
</mgrwt>
</event>
<event>
 5    0  0.2720079E+000  0.7731432E+03  0.7546771E-02  0.9599726E-01
         21   -1    0    0  504  501  0.00000000000E+00  0.00000000000E+00  0.51175407273E+03  0.51175407273E+03  0.00000000000E+00 0. -1.
         21   -1    0    0  503  502 -0.00000000000E+00 -0.00000000000E+00 -0.10573012026E+04  0.10573012026E+04  0.00000000000E+00 0. -1.
         25    1    1    2    0    0 -0.20728849104E+03  0.19029372652E+03  0.47079850096E+02  0.31148311857E+03  0.12500000000E+03 0.  0.
         21    1    1    2  503  501 -0.33762413396E+03  0.23768239356E+03 -0.26932350914E+03  0.49296868929E+03  0.00000000000E+00 0. -1.
         21    1    1    2  504  502  0.54491262500E+03 -0.42797612008E+03 -0.32330347085E+03  0.76460346750E+03  0.00000000000E+00 0. -1.
<mgrwt>
<rscale>  4 0.77314324E+03</rscale>
<asrwt>0</asrwt>
<pdfrwt beam="1">  1       21 0.78731396E-01 0.77314324E+03</pdfrwt>
<pdfrwt beam="2">  1       21 0.16266172E+00 0.77314324E+03</pdfrwt>
<totfact> 0.25013581E+02</totfact>
</mgrwt>
</event>
