<event>
 5    0  0.1911311E+001  0.3256505E+03  0.7546771E-02  0.1073078E+00
         21   -1    0    0  504  501  0.00000000000E+00  0.00000000000E+00  0.32360036323E+03  0.32360036323E+03  0.00000000000E+00 0.  1.
         21   -1    0    0  503  502 -0.00000000000E+00 -0.00000000000E+00 -0.95050011388E+03  0.95050011388E+03  0.00000000000E+00 0.  1.
         25    1    1    2    0    0  0.21045853692E+03 -0.18467113929E+03  0.19797539424E+03  0.36498696165E+03  0.12500000000E+03 0.  0.
         21    1    1    2  503  501 -0.25247678746E+03  0.16745739530E+03 -0.80390376432E+03  0.85909706654E+03  0.00000000000E+00 0.  1.
         21    1    1    2  504  502  0.42018250534E+02  0.17213743990E+02 -0.20971380566E+02  0.50016448924E+02  0.00000000000E+00 0.  1.
<mgrwt>
<rscale>  4 0.32565053E+03</rscale>
<asrwt>0</asrwt>
<pdfrwt beam="1">  1       21 0.49784672E-01 0.32565053E+03</pdfrwt>
<pdfrwt beam="2">  1       21 0.14623078E+00 0.32565053E+03</pdfrwt>
<totfact> 0.11064888E+03</totfact>
</mgrwt>
</event>
<event>
 5    0  0.2702595E+001  0.3217788E+03  0.7546771E-02  0.1074834E+00
         21   -1    0    0  504  501  0.00000000000E+00  0.00000000000E+00  0.11786124884E+03  0.11786124884E+03  0.00000000000E+00 0.  1.
         21   -1    0    0  503  502 -0.00000000000E+00 -0.00000000000E+00 -0.15343455840E+04  0.15343455840E+04  0.00000000000E+00 0.  1.
         25    1    1    2    0    0  0.50009263849E+02 -0.31497753136E+03 -0.24685414109E+03  0.42222474905E+03  0.12500000000E+03 0.  0.
         21    1    1    2  503  501 -0.10436250533E+02  0.29200177331E+03 -0.11365770737E+04  0.11735337215E+04  0.00000000000E+00 0.  1.
         21    1    1    2  504  502 -0.39573013316E+02  0.22975758053E+02 -0.33053120287E+02  0.56448362259E+02  0.00000000000E+00 0. -1.
<mgrwt>
<rscale>  4 0.32177883E+03</rscale>
<asrwt>0</asrwt>
<pdfrwt beam="1">  1       21 0.18132500E-01 0.32177883E+03</pdfrwt>
<pdfrwt beam="2">  1       21 0.23605316E+00 0.32177883E+03</pdfrwt>
<totfact> 0.19948362E+03</totfact>
</mgrwt>
</event>
<event>
 5    0  0.1911311E+001  0.4104445E+03  0.7546771E-02  0.1040222E+00
         21   -1    0    0  504  501  0.00000000000E+00  0.00000000000E+00  0.10508625518E+04  0.10508625518E+04  0.00000000000E+00 0. -1.
         21   -1    0    0  503  502 -0.00000000000E+00 -0.00000000000E+00 -0.24196875342E+03  0.24196875342E+03  0.00000000000E+00 0. -1.
         25    1    1    2    0    0  0.52360150865E+01  0.37447966813E+03  0.21740524119E+03  0.45072439095E+03  0.12500000000E+03 0.  0.
         21    1    1    2  503  501  0.66066494593E+02  0.19875337434E+02 -0.50365161849E+02  0.85419320262E+02  0.00000000000E+00 0. -1.
         21    1    1    2  504  502 -0.71302509680E+02 -0.39435500557E+03  0.64185371909E+03  0.75668759406E+03  0.00000000000E+00 0. -1.
<mgrwt>
<rscale>  4 0.41044455E+03</rscale>
<asrwt>0</asrwt>
<pdfrwt beam="1">  1       21 0.16167116E+00 0.41044455E+03</pdfrwt>
<pdfrwt beam="2">  1       21 0.37225963E-01 0.41044455E+03</pdfrwt>
<totfact> 0.14706025E+03</totfact>
</mgrwt>
</event>
