<event>
 5    0  0.3001896E+000  0.2276816E+03  0.7546771E-02  0.1128282E+00
         21   -1    0    0  502  501  0.00000000000E+00  0.00000000000E+00  0.92964729649E+03  0.92964729649E+03  0.00000000000E+00 0. -1.
         21   -1    0    0  503  502 -0.00000000000E+00 -0.00000000000E+00 -0.10817722541E+03  0.10817722541E+03  0.00000000000E+00 0. -1.
         25    1    1    2    0    0 -0.86840611787E+02 -0.19054872551E+03  0.73828414779E+03  0.77752079813E+03  0.12500000000E+03 0.  0.
         21    1    1    2  503  504  0.77359070824E+01  0.58740831815E+02 -0.32810498820E+02  0.67726349478E+02  0.00000000000E+00 0. -1.
         21    1    1    2  504  501  0.79104704705E+02  0.13180789369E+03  0.11599642212E+03  0.19257737430E+03  0.00000000000E+00 0. -1.
<mgrwt>
<rscale>  4 0.22768158E+03</rscale>
<asrwt>0</asrwt>
<pdfrwt beam="1">  1       21 0.14302266E+00 0.22768158E+03</pdfrwt>
<pdfrwt beam="2">  1       21 0.16642651E-01 0.22768158E+03</pdfrwt>
<totfact> 0.10715297E+04</totfact>
</mgrwt>
</event>
<event>
 5    0  0.4042237E+000  0.2715745E+03  0.7546771E-02  0.1100382E+00
         21   -1    0    0  502  501  0.00000000000E+00  0.00000000000E+00  0.53837808811E+02  0.53837808811E+02  0.00000000000E+00 0. -1.
         21   -1    0    0  503  502 -0.00000000000E+00 -0.00000000000E+00 -0.16552814625E+04  0.16552814625E+04  0.00000000000E+00 0. -1.
         25    1    1    2    0    0 -0.21272970134E+03  0.12940220425E+03 -0.46956069715E+03  0.54599551701E+03  0.12500000000E+03 0.  0.
         21    1    1    2  503  504 -0.12082947590E+01 -0.23657237908E+02 -0.51339033596E+02  0.56540439087E+02  0.00000000000E+00 0. -1.
         21    1    1    2  504  501  0.21393799610E+03 -0.10574496634E+03 -0.10805439229E+04  0.11065833152E+04  0.00000000000E+00 0. -1.
<mgrwt>
<rscale>  4 0.27157446E+03</rscale>
<asrwt>0</asrwt>
<pdfrwt beam="1">  1       21 0.82827398E-02 0.27157446E+03</pdfrwt>
<pdfrwt beam="2">  1       21 0.25465869E+00 0.27157446E+03</pdfrwt>
<totfact> 0.65884685E+03</totfact>
</mgrwt>
</event>
<event>
 5    0  0.2159162E+000  0.3152803E+03  0.7546771E-02  0.1077842E+00
         21   -1    0    0  502  501  0.00000000000E+00  0.00000000000E+00  0.67874139436E+03  0.67874139436E+03  0.00000000000E+00 0.  1.
         21   -1    0    0  503  502 -0.00000000000E+00 -0.00000000000E+00 -0.40465403326E+03  0.40465403326E+03  0.00000000000E+00 0. -1.
         25    1    1    2    0    0  0.19551489987E+03  0.21342585233E+03  0.57984553650E+03  0.66001705790E+03  0.12500000000E+03 0.  0.
         21    1    1    2  503  504 -0.45176323432E+02 -0.24605607153E+02 -0.56646609093E+02  0.76519111494E+02  0.00000000000E+00 0. -1.
         21    1    1    2  504  501 -0.15033857644E+03 -0.18882024518E+03 -0.24911156630E+03  0.34685925823E+03  0.00000000000E+00 0. -1.
<mgrwt>
<rscale>  4 0.31528030E+03</rscale>
<asrwt>0</asrwt>
<pdfrwt beam="1">  1       21 0.10442175E+00 0.31528030E+03</pdfrwt>
<pdfrwt beam="2">  1       21 0.62254467E-01 0.31528030E+03</pdfrwt>
<totfact> 0.16188774E+03</totfact>
</mgrwt>
</event>
<event>
 5    0  0.2159162E+000  0.3932724E+03  0.7546771E-02  0.1046769E+00
         21   -1    0    0  502  501  0.00000000000E+00  0.00000000000E+00  0.37048001274E+03  0.37048001274E+03  0.00000000000E+00 0. -1.
         21   -1    0    0  503  502 -0.00000000000E+00 -0.00000000000E+00 -0.19025620101E+04  0.19025620101E+04  0.00000000000E+00 0.  1.
         25    1    1    2    0    0 -0.30093570492E+03 -0.20721014675E+03  0.24211002783E+03  0.45578570511E+03  0.12500000000E+03 0.  0.
         21    1    1    2  503  504  0.23070943687E+03  0.15447068511E+03 -0.15788872327E+04  0.16031135114E+04  0.00000000000E+00 0.  1.
         21    1    1    2  504  501  0.70226268048E+02  0.52739461639E+02 -0.19530479245E+03  0.21414280630E+03  0.00000000000E+00 0.  1.
<mgrwt>
<rscale>  4 0.39148336E+03</rscale>
<asrwt>0</asrwt>
<pdfrwt beam="1">  1       21 0.56996925E-01 0.39327240E+03</pdfrwt>
<pdfrwt beam="2">  1       21 0.29270185E+00 0.39327240E+03</pdfrwt>
<totfact> 0.87327425E+01</totfact>
</mgrwt>
</event>
<event>
 5    0  0.2159162E+000  0.3082737E+03  0.7546771E-02  0.1081176E+00
         21   -1    0    0  502  501  0.00000000000E+00  0.00000000000E+00  0.41255831546E+03  0.41255831546E+03  0.00000000000E+00 0.  1.
         21   -1    0    0  503  502 -0.00000000000E+00 -0.00000000000E+00 -0.16218014725E+04  0.16218014725E+04  0.00000000000E+00 0. -1.
         25    1    1    2    0    0 -0.20669863028E+03 -0.19152893702E+03  0.33927648050E+03  0.45841159202E+03  0.12500000000E+03 0.  0.
         21    1    1    2  503  504  0.76402357882E+00  0.25408935250E+02 -0.85605344045E+02  0.89299902865E+02  0.00000000000E+00 0.  1.
         21    1    1    2  504  501  0.20593460670E+03  0.16612000177E+03 -0.14629142935E+04  0.14866482931E+04  0.00000000000E+00 0. -1.
<mgrwt>
<rscale>  4 0.30827367E+03</rscale>
<asrwt>0</asrwt>
<pdfrwt beam="1">  1       21 0.63470509E-01 0.30827367E+03</pdfrwt>
<pdfrwt beam="2">  1       21 0.24950792E+00 0.30827367E+03</pdfrwt>
<totfact> 0.13437875E+02</totfact>
</mgrwt>
</event>
<event>
 5    0  0.2159162E+000  0.3207106E+03  0.7546771E-02  0.1075323E+00
         21   -1    0    0  502  501  0.00000000000E+00  0.00000000000E+00  0.10009339291E+04  0.10009339291E+04  0.00000000000E+00 0.  1.
         21   -1    0    0  503  502 -0.00000000000E+00 -0.00000000000E+00 -0.65044601077E+03  0.65044601077E+03  0.00000000000E+00 0.  1.
         25    1    1    2    0    0 -0.17386066153E+02 -0.29483554447E+03  0.93715236141E+03  0.99050987985E+03  0.12500000000E+03 0.  0.
         21    1    1    2  503  504  0.37316167865E+02  0.26826468861E+03 -0.52971563494E+03  0.59494293293E+03  0.00000000000E+00 0.  1.
         21    1    1    2  504  501 -0.19930101711E+02  0.26570855866E+02 -0.56948808152E+02  0.65927127085E+02  0.00000000000E+00 0. -1.
<mgrwt>
<rscale>  4 0.32071058E+03</rscale>
<asrwt>0</asrwt>
<pdfrwt beam="1">  1       21 0.15398984E+00 0.32071058E+03</pdfrwt>
<pdfrwt beam="2">  1       21 0.10006862E+00 0.32071058E+03</pdfrwt>
<totfact> 0.20172773E+02</totfact>
</mgrwt>
</event>
<event>
 5    0  0.2378289E+000  0.3028470E+03  0.7546771E-02  0.1083826E+00
         21   -1    0    0  502  501  0.00000000000E+00  0.00000000000E+00  0.10188957041E+03  0.10188957041E+03  0.00000000000E+00 0. -1.
         21   -1    0    0  503  502 -0.00000000000E+00 -0.00000000000E+00 -0.96454319113E+03  0.96454319113E+03  0.00000000000E+00 0. -1.
         25    1    1    2    0    0 -0.22373914403E+03  0.16934854566E+03 -0.39795054598E+03  0.50272037112E+03  0.12500000000E+03 0.  0.
         21    1    1    2  503  504  0.19544179148E+03 -0.19010786268E+03 -0.34943065927E+03  0.44321583788E+03  0.00000000000E+00 0. -1.
         21    1    1    2  504  501  0.28297352555E+02  0.20759317014E+02 -0.11527241547E+03  0.12049655254E+03  0.00000000000E+00 0. -1.
<mgrwt>
<rscale>  4 0.30284700E+03</rscale>
<asrwt>0</asrwt>
<pdfrwt beam="1">  1       21 0.15675319E-01 0.30284700E+03</pdfrwt>
<pdfrwt beam="2">  1       21 0.14839126E+00 0.30284700E+03</pdfrwt>
<totfact> 0.10409613E+04</totfact>
</mgrwt>
</event>
