<event>
 5    0  0.1911311E+001  0.2369179E+03  0.7546771E-02  0.1121863E+00
         21   -1    0    0  502  501  0.00000000000E+00  0.00000000000E+00  0.16075324183E+03  0.16075324183E+03  0.00000000000E+00 0. -1.
         21   -1    0    0  504  502 -0.00000000000E+00 -0.00000000000E+00 -0.49837050290E+03  0.49837050290E+03  0.00000000000E+00 0.  1.
         25    1    1    2    0    0  0.21373858067E+03  0.49690739126E+02 -0.20472355214E+02  0.25337219214E+03  0.12500000000E+03 0.  0.
         21    1    1    2  503  501 -0.23154955532E+02  0.13686185241E+00  0.89093608998E+01  0.24810227901E+02  0.00000000000E+00 0. -1.
         21    1    1    2  504  503 -0.19058362514E+03 -0.49827600979E+02 -0.32605426675E+03  0.38094132469E+03  0.00000000000E+00 0.  1.
<mgrwt>
<rscale>  4 0.23691791E+03</rscale>
<asrwt>0</asrwt>
<pdfrwt beam="1">  1       21 0.24731268E-01 0.23691791E+03</pdfrwt>
<pdfrwt beam="2">  1       21 0.76672385E-01 0.23691791E+03</pdfrwt>
<totfact> 0.22834450E+04</totfact>
</mgrwt>
</event>
<event>
 5    0  0.1911311E+001  0.2919395E+03  0.7546771E-02  0.1089341E+00
         21   -1    0    0  504  501  0.00000000000E+00  0.00000000000E+00  0.36588406465E+03  0.36588406465E+03  0.00000000000E+00 0. -1.
         21   -1    0    0  503  502 -0.00000000000E+00 -0.00000000000E+00 -0.14347141699E+04  0.14347141699E+04  0.00000000000E+00 0. -1.
         25    1    1    2    0    0  0.16730637340E+03 -0.22962454467E+03 -0.88768258013E+03  0.94038514299E+03  0.12500000000E+03 0.  0.
         21    1    1    2  503  501 -0.88654444720E+01  0.20084234970E+02 -0.46957247189E+03  0.47008539539E+03  0.00000000000E+00 0. -1.
         21    1    1    2  504  502 -0.15844092893E+03  0.20954030970E+03  0.28842494681E+03  0.39012769613E+03  0.00000000000E+00 0. -1.
<mgrwt>
<rscale>  4 0.29193947E+03</rscale>
<asrwt>0</asrwt>
<pdfrwt beam="1">  1       21 0.56289856E-01 0.29193947E+03</pdfrwt>
<pdfrwt beam="2">  1       21 0.22072526E+00 0.29193947E+03</pdfrwt>
<totfact> 0.26560831E+02</totfact>
</mgrwt>
</event>
<event>
 5    0  0.1911311E+001  0.2292706E+03  0.7546771E-02  0.1127154E+00
         21   -1    0    0  502  501  0.00000000000E+00  0.00000000000E+00  0.53389611499E+03  0.53389611499E+03  0.00000000000E+00 0. -1.
         21   -1    0    0  504  502 -0.00000000000E+00 -0.00000000000E+00 -0.10200245944E+03  0.10200245944E+03  0.00000000000E+00 0. -1.
         25    1    1    2    0    0 -0.94139432100E+02  0.17766359666E+03  0.15498681234E+03  0.28297084347E+03  0.12500000000E+03 0.  0.
         21    1    1    2  503  501  0.29734560507E+02 -0.60697532786E+01  0.71293944641E+02  0.77484272830E+02  0.00000000000E+00 0. -1.
         21    1    1    2  504  503  0.64404871593E+02 -0.17159384338E+03  0.20561289856E+03  0.27544345813E+03  0.00000000000E+00 0. -1.
<mgrwt>
<rscale>  4 0.22927063E+03</rscale>
<asrwt>0</asrwt>
<pdfrwt beam="1">  1       21 0.82137862E-01 0.22927063E+03</pdfrwt>
<pdfrwt beam="2">  1       21 0.15692686E-01 0.22927063E+03</pdfrwt>
<totfact> 0.45978683E+04</totfact>
</mgrwt>
</event>
<event>
 5    0  0.2108129E+001  0.2481151E+03  0.7546771E-02  0.1114502E+00
         21   -1    0    0  503  501  0.00000000000E+00  0.00000000000E+00  0.30968980409E+03  0.30968980409E+03  0.00000000000E+00 0. -1.
         21   -1    0    0  504  502 -0.00000000000E+00 -0.00000000000E+00 -0.62235374454E+03  0.62235374454E+03  0.00000000000E+00 0.  1.
         25    1    1    2    0    0 -0.22210115064E+03  0.78228414305E+02  0.16887519787E+03  0.31558269657E+03  0.12500000000E+03 0.  0.
         21    1    1    2  503  502  0.20193316324E+03 -0.66259309629E+02 -0.52538210764E+03  0.56673949709E+03  0.00000000000E+00 0.  1.
         21    1    1    2  504  501  0.20167987400E+02 -0.11969104675E+02  0.43842969315E+02  0.49721354978E+02  0.00000000000E+00 0.  1.
<mgrwt>
<rscale>  4 0.24811510E+03</rscale>
<asrwt>0</asrwt>
<pdfrwt beam="1">  1       21 0.47644585E-01 0.24811510E+03</pdfrwt>
<pdfrwt beam="2">  1       21 0.95746730E-01 0.24811510E+03</pdfrwt>
<totfact> 0.36753133E+03</totfact>
</mgrwt>
</event>
<event>
 5    0  0.1911311E+001  0.2444328E+03  0.7546771E-02  0.1116875E+00
         21   -1    0    0  502  501  0.00000000000E+00  0.00000000000E+00  0.52433181369E+02  0.52433181369E+02  0.00000000000E+00 0. -1.
         21   -1    0    0  504  502 -0.00000000000E+00 -0.00000000000E+00 -0.13140168317E+04  0.13140168317E+04  0.00000000000E+00 0. -1.
         25    1    1    2    0    0 -0.15776112532E+03 -0.16475176177E+03 -0.69702418279E+03  0.74397542100E+03  0.12500000000E+03 0.  0.
         21    1    1    2  503  501  0.10715246596E+03  0.17091261661E+03 -0.37080049974E+03  0.42212058003E+03  0.00000000000E+00 0. -1.
         21    1    1    2  504  503  0.50608659358E+02 -0.61608548439E+01 -0.19375896783E+03  0.20035401206E+03  0.00000000000E+00 0. -1.
<mgrwt>
<rscale>  4 0.24443276E+03</rscale>
<asrwt>0</asrwt>
<pdfrwt beam="1">  1       21 0.80666431E-02 0.24443276E+03</pdfrwt>
<pdfrwt beam="2">  1       21 0.20215644E+00 0.24443276E+03</pdfrwt>
<totfact> 0.14814421E+04</totfact>
</mgrwt>
</event>
