<event>
 5    0  0.4257006E+000  0.2657210E+03  0.7546771E-02  0.1103754E+00
         21   -1    0    0  504  501  0.00000000000E+00  0.00000000000E+00  0.26982421252E+03  0.26982421252E+03  0.00000000000E+00 0.  1.
         21   -1    0    0  503  502 -0.00000000000E+00 -0.00000000000E+00 -0.40018776216E+03  0.40018776216E+03  0.00000000000E+00 0.  1.
         25    1    1    2    0    0 -0.18381197450E+03 -0.13889048430E+03  0.13038695664E+03  0.29275103255E+03  0.12500000000E+03 0.  0.
         21    1    1    2  503  501  0.19032363760E+03  0.16097173046E+03 -0.23306001945E+03  0.34125057905E+03  0.00000000000E+00 0.  1.
         21    1    1    2  504  502 -0.65116630997E+01 -0.22081246164E+02 -0.27690486821E+02  0.36010363076E+02  0.00000000000E+00 0.  1.
<mgrwt>
<rscale>  4 0.26572099E+03</rscale>
<asrwt>0</asrwt>
<pdfrwt beam="1">  1       21 0.41511417E-01 0.26572099E+03</pdfrwt>
<pdfrwt beam="2">  1       21 0.61567348E-01 0.26572099E+03</pdfrwt>
<totfact> 0.13135138E+04</totfact>
</mgrwt>
</event>
<event>
 5    0  0.4257006E+000  0.2621457E+03  0.7546771E-02  0.1105861E+00
         21   -1    0    0  502  501  0.00000000000E+00  0.00000000000E+00  0.44583039568E+03  0.44583039568E+03  0.00000000000E+00 0.  1.
         21   -1    0    0  503  502 -0.00000000000E+00 -0.00000000000E+00 -0.18732493139E+03  0.18732493139E+03  0.00000000000E+00 0.  1.
         25    1    1    2    0    0 -0.29238442653E+01  0.23850279665E+03  0.25920043796E+03  0.37376730718E+03  0.12500000000E+03 0.  0.
         21    1    1    2  503  504  0.22536938435E+02 -0.21624717308E+03  0.26646539907E+02  0.21904518152E+03  0.00000000000E+00 0.  1.
         21    1    1    2  504  501 -0.19613094170E+02 -0.22255623575E+02 -0.27341513574E+02  0.40342838375E+02  0.00000000000E+00 0. -1.
<mgrwt>
<rscale>  4 0.26214567E+03</rscale>
<asrwt>0</asrwt>
<pdfrwt beam="1">  1       21 0.68589291E-01 0.26214567E+03</pdfrwt>
<pdfrwt beam="2">  1       21 0.28819220E-01 0.26214567E+03</pdfrwt>
<totfact> 0.21524282E+04</totfact>
</mgrwt>
</event>
<event>
 5    0  0.4257006E+000  0.2391441E+03  0.7546771E-02  0.1120364E+00
         21   -1    0    0  503  501  0.00000000000E+00  0.00000000000E+00  0.12142370329E+04  0.12142370329E+04  0.00000000000E+00 0. -1.
         21   -1    0    0  504  502 -0.00000000000E+00 -0.00000000000E+00 -0.59554101248E+02  0.59554101248E+02  0.00000000000E+00 0. -1.
         25    1    1    2    0    0 -0.66023613508E+02 -0.19442199555E+03  0.34335496630E+03  0.41913799968E+03  0.12500000000E+03 0.  0.
         21    1    1    2  503  502  0.10097309733E+03  0.17762620680E+03  0.77513253120E+03  0.80160905475E+03  0.00000000000E+00 0. -1.
         21    1    1    2  504  501 -0.34949483820E+02  0.16795788747E+02  0.36195434117E+02  0.53044079687E+02  0.00000000000E+00 0. -1.
<mgrwt>
<rscale>  4 0.23914412E+03</rscale>
<asrwt>0</asrwt>
<pdfrwt beam="1">  1       21 0.18680568E+00 0.23914412E+03</pdfrwt>
<pdfrwt beam="2">  1       21 0.91621703E-02 0.23914412E+03</pdfrwt>
<totfact> 0.14997759E+04</totfact>
</mgrwt>
</event>
<event>
 5    0  0.4257006E+000  0.4913902E+03  0.7546771E-02  0.1016051E+00
         21   -1    0    0  504  501  0.00000000000E+00  0.00000000000E+00  0.13674783745E+03  0.13674783745E+03  0.00000000000E+00 0.  1.
         21   -1    0    0  501  502 -0.00000000000E+00 -0.00000000000E+00 -0.18760806666E+04  0.18760806666E+04  0.00000000000E+00 0. -1.
         25    1    1    2    0    0  0.48537776342E+03  0.13601552318E+02 -0.74647737204E+03  0.89923859037E+03  0.12500000000E+03 0.  0.
         21    1    1    2  503  502 -0.23353176500E+02  0.28632714151E+02 -0.11328229412E+03  0.11915570206E+03  0.00000000000E+00 0.  1.
         21    1    1    2  504  503 -0.46202458692E+03 -0.42234266469E+02 -0.87957316299E+03  0.99443421161E+03  0.00000000000E+00 0. -1.
<mgrwt>
<rscale>  4 0.49139019E+03</rscale>
<asrwt>0</asrwt>
<pdfrwt beam="1">  1       21 0.21038130E-01 0.49139019E+03</pdfrwt>
<pdfrwt beam="2">  1       21 0.28862778E+00 0.49139019E+03</pdfrwt>
<totfact> 0.65599314E+02</totfact>
</mgrwt>
</event>
<event>
 5    0  0.4257006E+000  0.2660567E+03  0.7546771E-02  0.1103558E+00
         21   -1    0    0  503  501  0.00000000000E+00  0.00000000000E+00  0.88885467124E+03  0.88885467124E+03  0.00000000000E+00 0.  1.
         21   -1    0    0  504  502 -0.00000000000E+00 -0.00000000000E+00 -0.46548278706E+03  0.46548278706E+03  0.00000000000E+00 0. -1.
         25    1    1    2    0    0 -0.11489222486E+03 -0.20484376161E+03  0.83308811414E+03  0.87454102015E+03  0.12500000000E+03 0.  0.
         21    1    1    2  503  502  0.10262891269E+03  0.17001435226E+03 -0.26928829928E+03  0.33459492199E+03  0.00000000000E+00 0. -1.
         21    1    1    2  504  501  0.12263312179E+02  0.34829409354E+02 -0.14042793067E+03  0.14520151616E+03  0.00000000000E+00 0.  1.
<mgrwt>
<rscale>  4 0.26605674E+03</rscale>
<asrwt>0</asrwt>
<pdfrwt beam="1">  1       21 0.13674687E+00 0.26605674E+03</pdfrwt>
<pdfrwt beam="2">  1       21 0.71612737E-01 0.26605674E+03</pdfrwt>
<totfact> 0.62517000E+02</totfact>
</mgrwt>
</event>
<event>
 5    0  0.4257006E+000  0.2488517E+03  0.7546771E-02  0.1114033E+00
         21   -1    0    0  504  501  0.00000000000E+00  0.00000000000E+00  0.17188896690E+03  0.17188896690E+03  0.00000000000E+00 0.  1.
         21   -1    0    0  501  502 -0.00000000000E+00 -0.00000000000E+00 -0.43794627791E+03  0.43794627791E+03  0.00000000000E+00 0.  1.
         25    1    1    2    0    0  0.20039607172E+03  0.95625445861E+02 -0.12342558000E+03  0.28312839005E+03  0.12500000000E+03 0.  0.
         21    1    1    2  503  502 -0.42991225594E+00 -0.26643837069E+02 -0.10938020696E+03  0.11257934337E+03  0.00000000000E+00 0.  1.
         21    1    1    2  504  503 -0.19996615946E+03 -0.68981608792E+02 -0.33251524046E+02  0.21412751139E+03  0.00000000000E+00 0.  1.
<mgrwt>
<rscale>  4 0.24885166E+03</rscale>
<asrwt>0</asrwt>
<pdfrwt beam="1">  1       21 0.26444457E-01 0.24885166E+03</pdfrwt>
<pdfrwt beam="2">  1       21 0.67376350E-01 0.24885166E+03</pdfrwt>
<totfact> 0.26623642E+04</totfact>
</mgrwt>
</event>
<event>
 5    0  0.4257006E+000  0.2473700E+03  0.7546771E-02  0.1114978E+00
         21   -1    0    0  503  501  0.00000000000E+00  0.00000000000E+00  0.51192837633E+02  0.51192837633E+02  0.00000000000E+00 0.  1.
         21   -1    0    0  504  502 -0.00000000000E+00 -0.00000000000E+00 -0.15190644049E+04  0.15190644049E+04  0.00000000000E+00 0. -1.
         25    1    1    2    0    0  0.19994103300E+03 -0.75430217460E+02 -0.36929541595E+03  0.44460121302E+03  0.12500000000E+03 0.  0.
         21    1    1    2  503  502  0.62322746035E+01  0.19538093610E+02 -0.32803582431E+02  0.38686604515E+02  0.00000000000E+00 0. -1.
         21    1    1    2  504  501 -0.20617330760E+03  0.55892123851E+02 -0.10657725689E+04  0.10869694250E+04  0.00000000000E+00 0. -1.
<mgrwt>
<rscale>  4 0.24736999E+03</rscale>
<asrwt>0</asrwt>
<pdfrwt beam="1">  1       21 0.78758219E-02 0.24736999E+03</pdfrwt>
<pdfrwt beam="2">  1       21 0.23370220E+00 0.24736999E+03</pdfrwt>
<totfact> 0.97923958E+03</totfact>
</mgrwt>
</event>
<event>
 5    0  0.4257006E+000  0.2432211E+03  0.7546771E-02  0.1117665E+00
         21   -1    0    0  503  501  0.00000000000E+00  0.00000000000E+00  0.53867018739E+02  0.53867018739E+02  0.00000000000E+00 0. -1.
         21   -1    0    0  504  502 -0.00000000000E+00 -0.00000000000E+00 -0.14108598630E+04  0.14108598630E+04  0.00000000000E+00 0. -1.
         25    1    1    2    0    0 -0.18853468519E+02  0.20185197461E+03 -0.43880077909E+03  0.49927026414E+03  0.12500000000E+03 0.  0.
         21    1    1    2  503  502 -0.17759002192E+02  0.10214335995E+02 -0.44674460127E+03  0.44721410262E+03  0.00000000000E+00 0. -1.
         21    1    1    2  504  501  0.36612470711E+02 -0.21206631061E+03 -0.47144746388E+03  0.51824251496E+03  0.00000000000E+00 0. -1.
<mgrwt>
<rscale>  4 0.24322107E+03</rscale>
<asrwt>0</asrwt>
<pdfrwt beam="1">  1       21 0.82872339E-02 0.24322107E+03</pdfrwt>
<pdfrwt beam="2">  1       21 0.21705536E+00 0.24322107E+03</pdfrwt>
<totfact> 0.11374707E+04</totfact>
</mgrwt>
</event>
<event>
 5    0  0.4257006E+000  0.2601478E+03  0.7546771E-02  0.1107054E+00
         21   -1    0    0  502  501  0.00000000000E+00  0.00000000000E+00  0.21991347980E+03  0.21991347980E+03  0.00000000000E+00 0. -1.
         21   -1    0    0  503  502 -0.00000000000E+00 -0.00000000000E+00 -0.58226264349E+03  0.58226264349E+03  0.00000000000E+00 0. -1.
         25    1    1    2    0    0  0.11172558958E+03  0.17683261135E+03  0.10342296192E+03  0.26471435333E+03  0.12500000000E+03 0.  0.
         21    1    1    2  503  504 -0.13133150491E+03 -0.19004568740E+03 -0.45731893434E+03  0.51235333041E+03  0.00000000000E+00 0. -1.
         21    1    1    2  504  501  0.19605915326E+02  0.13213076043E+02 -0.84531912665E+01  0.25108439555E+02  0.00000000000E+00 0.  1.
<mgrwt>
<rscale>  4 0.26014784E+03</rscale>
<asrwt>0</asrwt>
<pdfrwt beam="1">  1       21 0.33832844E-01 0.26014784E+03</pdfrwt>
<pdfrwt beam="2">  1       21 0.89578867E-01 0.26014784E+03</pdfrwt>
<totfact> 0.85635580E+03</totfact>
</mgrwt>
</event>
<event>
 5    0  0.4257006E+000  0.2345159E+03  0.7546771E-02  0.1123501E+00
         21   -1    0    0  503  501  0.00000000000E+00  0.00000000000E+00  0.43355379961E+03  0.43355379961E+03  0.00000000000E+00 0.  1.
         21   -1    0    0  504  502 -0.00000000000E+00 -0.00000000000E+00 -0.42222396449E+03  0.42222396449E+03  0.00000000000E+00 0.  1.
         25    1    1    2    0    0 -0.47843467973E+02 -0.19516849385E+03  0.28088402085E+03  0.36728813156E+03  0.12500000000E+03 0.  0.
         21    1    1    2  503  502  0.37347125624E+02 -0.12715929226E+00 -0.28949870601E+03  0.29189779845E+03  0.00000000000E+00 0.  1.
         21    1    1    2  504  501  0.10496342349E+02  0.19529565314E+03  0.19944520271E+02  0.19659183408E+03  0.00000000000E+00 0.  1.
<mgrwt>
<rscale>  4 0.23451590E+03</rscale>
<asrwt>0</asrwt>
<pdfrwt beam="1">  1       21 0.66700584E-01 0.23451590E+03</pdfrwt>
<pdfrwt beam="2">  1       21 0.64957533E-01 0.23451590E+03</pdfrwt>
<totfact> 0.43582607E+03</totfact>
</mgrwt>
</event>
<event>
 5    0  0.4257006E+000  0.4193548E+03  0.7546771E-02  0.1037276E+00
         21   -1    0    0  504  501  0.00000000000E+00  0.00000000000E+00  0.15571523752E+04  0.15571523752E+04  0.00000000000E+00 0. -1.
         21   -1    0    0  503  502 -0.00000000000E+00 -0.00000000000E+00 -0.16474843684E+03  0.16474843684E+03  0.00000000000E+00 0.  1.
         25    1    1    2    0    0 -0.37934044503E+03 -0.26723006343E+03  0.78966311687E+03  0.92439381119E+03  0.12500000000E+03 0.  0.
         21    1    1    2  503  501  0.26207943663E+03  0.26453579201E+03  0.31846519971E+03  0.48998459137E+03  0.00000000000E+00 0.  1.
         21    1    1    2  504  502  0.11726100839E+03  0.26942714191E+01  0.28427562177E+03  0.30752240946E+03  0.00000000000E+00 0.  1.
<mgrwt>
<rscale>  4 0.41935483E+03</rscale>
<asrwt>0</asrwt>
<pdfrwt beam="1">  1       21 0.23956189E+00 0.41935483E+03</pdfrwt>
<pdfrwt beam="2">  1       21 0.25345914E-01 0.41935483E+03</pdfrwt>
<totfact> 0.94545912E+02</totfact>
</mgrwt>
</event>
<event>
 5    0  0.4257006E+000  0.2618032E+03  0.7546771E-02  0.1106065E+00
         21   -1    0    0  504  501  0.00000000000E+00  0.00000000000E+00  0.12708241975E+04  0.12708241975E+04  0.00000000000E+00 0. -1.
         21   -1    0    0  503  502 -0.00000000000E+00 -0.00000000000E+00 -0.21475325798E+03  0.21475325798E+03  0.00000000000E+00 0. -1.
         25    1    1    2    0    0 -0.20273658247E+03 -0.12315990449E+03  0.10930676833E+04  0.11254743196E+04  0.12500000000E+03 0.  0.
         21    1    1    2  503  501  0.13005274954E+03  0.16258225047E+03  0.74644875849E+02  0.22117541301E+03  0.00000000000E+00 0. -1.
         21    1    1    2  504  502  0.72683832925E+02 -0.39422345972E+02 -0.11164161963E+03  0.13892772280E+03  0.00000000000E+00 0. -1.
<mgrwt>
<rscale>  4 0.26180322E+03</rscale>
<asrwt>0</asrwt>
<pdfrwt beam="1">  1       21 0.19551141E+00 0.26180322E+03</pdfrwt>
<pdfrwt beam="2">  1       21 0.33038964E-01 0.26180322E+03</pdfrwt>
<totfact> 0.11855392E+03</totfact>
</mgrwt>
</event>
<event>
 5    0  0.4257006E+000  0.2630267E+03  0.7546771E-02  0.1105338E+00
         21   -1    0    0  504  501  0.00000000000E+00  0.00000000000E+00  0.38870305778E+02  0.38870305778E+02  0.00000000000E+00 0.  1.
         21   -1    0    0  501  502 -0.00000000000E+00 -0.00000000000E+00 -0.28132546278E+04  0.28132546278E+04  0.00000000000E+00 0.  1.
         25    1    1    2    0    0  0.13745021492E+03  0.19345950144E+03 -0.13719706215E+04  0.13979440355E+04  0.12500000000E+03 0.  0.
         21    1    1    2  503  502 -0.20043287072E+02  0.36883586999E+01 -0.91740817038E+03  0.91763450700E+03  0.00000000000E+00 0.  1.
         21    1    1    2  504  503 -0.11740692785E+03 -0.19714786014E+03 -0.48500553015E+03  0.53654639104E+03  0.00000000000E+00 0.  1.
<mgrwt>
<rscale>  4 0.26302672E+03</rscale>
<asrwt>0</asrwt>
<pdfrwt beam="1">  1       21 0.59800472E-02 0.26302672E+03</pdfrwt>
<pdfrwt beam="2">  1       21 0.43280839E+00 0.26302672E+03</pdfrwt>
<totfact> 0.97315948E+02</totfact>
</mgrwt>
</event>
<event>
 5    0  0.4257006E+000  0.2398789E+03  0.7546771E-02  0.1119874E+00
         21   -1    0    0  504  501  0.00000000000E+00  0.00000000000E+00  0.16837956277E+03  0.16837956277E+03  0.00000000000E+00 0. -1.
         21   -1    0    0  503  502 -0.00000000000E+00 -0.00000000000E+00 -0.67191547581E+03  0.67191547581E+03  0.00000000000E+00 0. -1.
         25    1    1    2    0    0 -0.55752475706E+02 -0.20327200081E+03  0.39009639169E+02  0.24814229146E+03  0.12500000000E+03 0.  0.
         21    1    1    2  503  501  0.26683733394E+02  0.18269783733E+03 -0.34380495138E+03  0.39024654513E+03  0.00000000000E+00 0. -1.
         21    1    1    2  504  502  0.29068742312E+02  0.20574163480E+02 -0.19874060083E+03  0.20190620199E+03  0.00000000000E+00 0. -1.
<mgrwt>
<rscale>  4 0.23987889E+03</rscale>
<asrwt>0</asrwt>
<pdfrwt beam="1">  1       21 0.25904549E-01 0.23987889E+03</pdfrwt>
<pdfrwt beam="2">  1       21 0.10337161E+00 0.23987889E+03</pdfrwt>
<totfact> 0.10408991E+04</totfact>
</mgrwt>
</event>
<event>
 5    0  0.4257006E+000  0.2851427E+03  0.7546771E-02  0.1092913E+00
         21   -1    0    0  504  501  0.00000000000E+00  0.00000000000E+00  0.67405611714E+03  0.67405611714E+03  0.00000000000E+00 0.  1.
         21   -1    0    0  501  502 -0.00000000000E+00 -0.00000000000E+00 -0.15010681582E+03  0.15010681582E+03  0.00000000000E+00 0.  1.
         25    1    1    2    0    0 -0.18033885656E+03  0.18225550962E+03  0.39820858973E+03  0.48983084315E+03  0.12500000000E+03 0.  0.
         21    1    1    2  503  502 -0.20757615434E+02 -0.21907876547E+02 -0.22341993172E+02  0.37549944237E+02  0.00000000000E+00 0.  1.
         21    1    1    2  504  503  0.20109647200E+03 -0.16034763307E+03  0.14808270476E+03  0.29678214557E+03  0.00000000000E+00 0.  1.
<mgrwt>
<rscale>  4 0.28514273E+03</rscale>
<asrwt>0</asrwt>
<pdfrwt beam="1">  1       21 0.10370094E+00 0.28514273E+03</pdfrwt>
<pdfrwt beam="2">  1       21 0.23093357E-01 0.28514273E+03</pdfrwt>
<totfact> 0.12573707E+04</totfact>
</mgrwt>
</event>
<event>
 5    0  0.4257006E+000  0.2320949E+03  0.7546771E-02  0.1125174E+00
         21   -1    0    0  504  501  0.00000000000E+00  0.00000000000E+00  0.75094961950E+03  0.75094961950E+03  0.00000000000E+00 0.  1.
         21   -1    0    0  501  502 -0.00000000000E+00 -0.00000000000E+00 -0.89698061006E+02  0.89698061006E+02  0.00000000000E+00 0.  1.
         25    1    1    2    0    0 -0.13379367865E+03  0.15102084772E+03  0.54500843897E+03  0.59444700642E+03  0.12500000000E+03 0.  0.
         21    1    1    2  503  502  0.22099961878E+02 -0.52213101018E+01 -0.84247461389E+01  0.24220791517E+02  0.00000000000E+00 0. -1.
         21    1    1    2  504  503  0.11169371678E+03 -0.14579953762E+03  0.12466786566E+03  0.22197988257E+03  0.00000000000E+00 0.  1.
<mgrwt>
<rscale>  4 0.23209488E+03</rscale>
<asrwt>0</asrwt>
<pdfrwt beam="1">  1       21 0.11553071E+00 0.23209488E+03</pdfrwt>
<pdfrwt beam="2">  1       21 0.13799702E-01 0.23209488E+03</pdfrwt>
<totfact> 0.25867933E+04</totfact>
</mgrwt>
</event>
<event>
 5    0  0.4257006E+000  0.5907387E+03  0.7546771E-02  0.9924809E-01
         21   -1    0    0  504  501  0.00000000000E+00  0.00000000000E+00  0.17353620411E+04  0.17353620411E+04  0.00000000000E+00 0.  1.
         21   -1    0    0  503  502 -0.00000000000E+00 -0.00000000000E+00 -0.34588170601E+03  0.34588170601E+03  0.00000000000E+00 0. -1.
         25    1    1    2    0    0 -0.39640143560E+03 -0.41360182391E+03  0.13148500891E+04  0.14396722973E+04  0.12500000000E+03 0.  0.
         21    1    1    2  503  501  0.39580232237E+03  0.44548077982E+03  0.95424819548E+02  0.60350517792E+03  0.00000000000E+00 0. -1.
         21    1    1    2  504  502  0.59911322997E+00 -0.31878955918E+02 -0.20794573536E+02  0.38066271890E+02  0.00000000000E+00 0. -1.
<mgrwt>
<rscale>  4 0.59073873E+03</rscale>
<asrwt>0</asrwt>
<pdfrwt beam="1">  1       21 0.26697877E+00 0.59073873E+03</pdfrwt>
<pdfrwt beam="2">  1       21 0.53212571E-01 0.59073873E+03</pdfrwt>
<totfact> 0.12933400E+02</totfact>
</mgrwt>
</event>
<event>
 5    0  0.4257006E+000  0.5100235E+03  0.7546771E-02  0.1011195E+00
         21   -1    0    0  504  501  0.00000000000E+00  0.00000000000E+00  0.72925012881E+03  0.72925012881E+03  0.00000000000E+00 0.  1.
         21   -1    0    0  503  502 -0.00000000000E+00 -0.00000000000E+00 -0.49517572290E+03  0.49517572290E+03  0.00000000000E+00 0. -1.
         25    1    1    2    0    0 -0.43277569207E+03  0.26419316704E+03  0.34574279453E+03  0.62630336829E+03  0.12500000000E+03 0.  0.
         21    1    1    2  503  501  0.40245430976E+03 -0.24967519760E+03  0.81463221723E+01  0.47368084013E+03  0.00000000000E+00 0. -1.
         21    1    1    2  504  502  0.30321382309E+02 -0.14517969439E+02 -0.11981471079E+03  0.12444164329E+03  0.00000000000E+00 0.  1.
<mgrwt>
<rscale>  4 0.51002351E+03</rscale>
<asrwt>0</asrwt>
<pdfrwt beam="1">  1       21 0.11219233E+00 0.51002351E+03</pdfrwt>
<pdfrwt beam="2">  1       21 0.76180880E-01 0.51002351E+03</pdfrwt>
<totfact> 0.78910135E+02</totfact>
</mgrwt>
</event>
<event>
 5    0  0.4257006E+000  0.2501517E+03  0.7546771E-02  0.1113209E+00
         21   -1    0    0  504  501  0.00000000000E+00  0.00000000000E+00  0.92714436538E+02  0.92714436538E+02  0.00000000000E+00 0. -1.
         21   -1    0    0  501  502 -0.00000000000E+00 -0.00000000000E+00 -0.19289319282E+04  0.19289319282E+04  0.00000000000E+00 0. -1.
         25    1    1    2    0    0  0.15694145272E+03 -0.15145371525E+03 -0.11732781831E+03  0.27741604928E+03  0.12500000000E+03 0.  0.
         21    1    1    2  503  502 -0.99068289079E+02  0.19228875878E+03 -0.14554045300E+04  0.14713911236E+04  0.00000000000E+00 0. -1.
         21    1    1    2  504  503 -0.57873163644E+02 -0.40835043529E+02 -0.26348514336E+03  0.27283919187E+03  0.00000000000E+00 0.  1.
<mgrwt>
<rscale>  4 0.25015169E+03</rscale>
<asrwt>0</asrwt>
<pdfrwt beam="1">  1       21 0.14263760E-01 0.25015169E+03</pdfrwt>
<pdfrwt beam="2">  1       21 0.29675875E+00 0.25015169E+03</pdfrwt>
<totfact> 0.14342553E+03</totfact>
</mgrwt>
</event>
<event>
 5    0  0.4257006E+000  0.2787580E+03  0.7546771E-02  0.1096369E+00
         21   -1    0    0  503  501  0.00000000000E+00  0.00000000000E+00  0.17094255614E+03  0.17094255614E+03  0.00000000000E+00 0.  1.
         21   -1    0    0  504  502 -0.00000000000E+00 -0.00000000000E+00 -0.54637913817E+03  0.54637913817E+03  0.00000000000E+00 0.  1.
         25    1    1    2    0    0  0.23441839584E+03  0.17758378498E+02 -0.22923916211E+03  0.35134447165E+03  0.12500000000E+03 0.  0.
         21    1    1    2  503  502 -0.25401050296E+03 -0.37523344182E+02 -0.44568072826E+02  0.26060631245E+03  0.00000000000E+00 0.  1.
         21    1    1    2  504  501  0.19592107121E+02  0.19764965684E+02 -0.10162934709E+03  0.10537091022E+03  0.00000000000E+00 0.  1.
<mgrwt>
<rscale>  4 0.27875797E+03</rscale>
<asrwt>0</asrwt>
<pdfrwt beam="1">  1       21 0.26298854E-01 0.27875797E+03</pdfrwt>
<pdfrwt beam="2">  1       21 0.84058330E-01 0.27875797E+03</pdfrwt>
<totfact> 0.16123454E+04</totfact>
</mgrwt>
</event>
<event>
 5    0  0.4257006E+000  0.2578155E+03  0.7546771E-02  0.1108463E+00
         21   -1    0    0  502  501  0.00000000000E+00  0.00000000000E+00  0.10835424580E+04  0.10835424580E+04  0.00000000000E+00 0.  1.
         21   -1    0    0  503  502 -0.00000000000E+00 -0.00000000000E+00 -0.17178159297E+04  0.17178159297E+04  0.00000000000E+00 0.  1.
         25    1    1    2    0    0 -0.17547007328E+03 -0.14039965088E+03  0.10267628295E+04  0.10584747123E+04  0.12500000000E+03 0.  0.
         21    1    1    2  503  504  0.18043565228E+03  0.25560554104E+03 -0.15552132706E+04  0.15863730754E+04  0.00000000000E+00 0.  1.
         21    1    1    2  504  501 -0.49655790022E+01 -0.11520589016E+03 -0.10582303068E+03  0.15651060004E+03  0.00000000000E+00 0.  1.
<mgrwt>
<rscale>  4 0.25781550E+03</rscale>
<asrwt>0</asrwt>
<pdfrwt beam="1">  1       21 0.16669884E+00 0.25781550E+03</pdfrwt>
<pdfrwt beam="2">  1       21 0.26427937E+00 0.25781550E+03</pdfrwt>
<totfact> 0.11088970E+01</totfact>
</mgrwt>
</event>
<event>
 5    0  0.4257006E+000  0.3329511E+03  0.7546771E-02  0.1069839E+00
         21   -1    0    0  504  501  0.00000000000E+00  0.00000000000E+00  0.92247843176E+03  0.92247843176E+03  0.00000000000E+00 0. -1.
         21   -1    0    0  501  502 -0.00000000000E+00 -0.00000000000E+00 -0.29945316908E+03  0.29945316908E+03  0.00000000000E+00 0. -1.
         25    1    1    2    0    0 -0.23409124466E+03  0.24693841758E+03  0.17680421652E+03  0.40331380324E+03  0.12500000000E+03 0.  0.
         21    1    1    2  503  502  0.59020368067E+02 -0.41686722758E+01 -0.14463825103E+03  0.15627221550E+03  0.00000000000E+00 0. -1.
         21    1    1    2  504  503  0.17507087659E+03 -0.24276974530E+03  0.59085929719E+03  0.66234558211E+03  0.00000000000E+00 0. -1.
<mgrwt>
<rscale>  4 0.33295108E+03</rscale>
<asrwt>0</asrwt>
<pdfrwt beam="1">  1       21 0.14191976E+00 0.33295108E+03</pdfrwt>
<pdfrwt beam="2">  1       21 0.46069719E-01 0.33295108E+03</pdfrwt>
<totfact> 0.14037109E+03</totfact>
</mgrwt>
</event>
<event>
 5    0  0.4257006E+000  0.2935139E+03  0.7546771E-02  0.1088529E+00
         21   -1    0    0  504  501  0.00000000000E+00  0.00000000000E+00  0.90293781000E+03  0.90293781000E+03  0.00000000000E+00 0.  1.
         21   -1    0    0  501  502 -0.00000000000E+00 -0.00000000000E+00 -0.22324325786E+03  0.22324325786E+03  0.00000000000E+00 0.  1.
         25    1    1    2    0    0  0.23646409643E+03 -0.12263541698E+03  0.77225256421E+03  0.82641015078E+03  0.12500000000E+03 0.  0.
         21    1    1    2  503  502 -0.14937376366E+02 -0.14684141430E+02  0.48978284903E+01  0.21511344592E+02  0.00000000000E+00 0. -1.
         21    1    1    2  504  503 -0.22152672006E+03  0.13731955841E+03 -0.97455840552E+02  0.27825957248E+03  0.00000000000E+00 0.  1.
<mgrwt>
<rscale>  4 0.29351393E+03</rscale>
<asrwt>0</asrwt>
<pdfrwt beam="1">  1       21 0.13891351E+00 0.29351393E+03</pdfrwt>
<pdfrwt beam="2">  1       21 0.34345117E-01 0.29351393E+03</pdfrwt>
<totfact> 0.27687467E+03</totfact>
</mgrwt>
</event>
<event>
 5    0  0.4257006E+000  0.2470804E+03  0.7546771E-02  0.1115164E+00
         21   -1    0    0  504  501  0.00000000000E+00  0.00000000000E+00  0.62933126543E+03  0.62933126543E+03  0.00000000000E+00 0. -1.
         21   -1    0    0  501  502 -0.00000000000E+00 -0.00000000000E+00 -0.22464871484E+04  0.22464871484E+04  0.00000000000E+00 0.  1.
         25    1    1    2    0    0  0.19991490418E+03  0.74995140099E+02  0.59823710202E+03  0.64738154915E+03  0.12500000000E+03 0.  0.
         21    1    1    2  503  502 -0.17062333794E+02 -0.21019832834E+02 -0.77604499139E+03  0.77651708627E+03  0.00000000000E+00 0.  1.
         21    1    1    2  504  503 -0.18285257038E+03 -0.53975307265E+02 -0.14393479936E+04  0.14519197784E+04  0.00000000000E+00 0.  1.
<mgrwt>
<rscale>  4 0.24708041E+03</rscale>
<asrwt>0</asrwt>
<pdfrwt beam="1">  1       21 0.96820196E-01 0.24708041E+03</pdfrwt>
<pdfrwt beam="2">  1       21 0.34561340E+00 0.24708041E+03</pdfrwt>
<totfact> 0.14945593E+01</totfact>
</mgrwt>
</event>
<event>
 5    0  0.4257006E+000  0.2135245E+03  0.7546771E-02  0.1138805E+00
         21   -1    0    0  504  501  0.00000000000E+00  0.00000000000E+00  0.32425377235E+03  0.32425377235E+03  0.00000000000E+00 0. -1.
         21   -1    0    0  503  502 -0.00000000000E+00 -0.00000000000E+00 -0.35988743280E+03  0.35988743280E+03  0.00000000000E+00 0.  1.
         25    1    1    2    0    0 -0.72865354611E+02 -0.18944963589E+03  0.21930219170E+03  0.32391198762E+03  0.12500000000E+03 0.  0.
         21    1    1    2  503  501  0.51722257344E+02  0.20013109076E+02 -0.25611140980E+01  0.55518246956E+02  0.00000000000E+00 0. -1.
         21    1    1    2  504  502  0.21143097267E+02  0.16943652681E+03 -0.25237473805E+03  0.30471097057E+03  0.00000000000E+00 0.  1.
<mgrwt>
<rscale>  4 0.21352449E+03</rscale>
<asrwt>0</asrwt>
<pdfrwt beam="1">  1       21 0.49885195E-01 0.21352449E+03</pdfrwt>
<pdfrwt beam="2">  1       21 0.55367298E-01 0.21352449E+03</pdfrwt>
<totfact> 0.11615089E+04</totfact>
</mgrwt>
</event>
<event>
 5    0  0.4257006E+000  0.2670389E+03  0.7546771E-02  0.1102986E+00
         21   -1    0    0  504  501  0.00000000000E+00  0.00000000000E+00  0.55803322220E+03  0.55803322220E+03  0.00000000000E+00 0. -1.
         21   -1    0    0  503  502 -0.00000000000E+00 -0.00000000000E+00 -0.89253417932E+03  0.89253417932E+03  0.00000000000E+00 0.  1.
         25    1    1    2    0    0 -0.21551845492E+03  0.92651550323E+02  0.32739772664E+03  0.42171884663E+03  0.12500000000E+03 0.  0.
         21    1    1    2  503  501  0.20385569886E+03 -0.12656708529E+03  0.10442315185E+03  0.26168792039E+03  0.00000000000E+00 0. -1.
         21    1    1    2  504  502  0.11662756066E+02  0.33915534964E+02 -0.76632183561E+03  0.76716063450E+03  0.00000000000E+00 0.  1.
<mgrwt>
<rscale>  4 0.26703891E+03</rscale>
<asrwt>0</asrwt>
<pdfrwt beam="1">  1       21 0.85851265E-01 0.26703891E+03</pdfrwt>
<pdfrwt beam="2">  1       21 0.13731295E+00 0.26703891E+03</pdfrwt>
<totfact> 0.40932838E+02</totfact>
</mgrwt>
</event>
<event>
 5    0  0.4257006E+000  0.2961042E+03  0.7546771E-02  0.1087204E+00
         21   -1    0    0  503  501  0.00000000000E+00  0.00000000000E+00  0.89547290281E+03  0.89547290281E+03  0.00000000000E+00 0.  1.
         21   -1    0    0  504  502 -0.00000000000E+00 -0.00000000000E+00 -0.11143720901E+03  0.11143720901E+03  0.00000000000E+00 0.  1.
         25    1    1    2    0    0 -0.26896765810E+03 -0.20690125560E+02  0.50102133202E+03  0.58259682246E+03  0.12500000000E+03 0.  0.
         21    1    1    2  503  502  0.14548642398E+01  0.31179484637E+02 -0.44070919945E+01  0.31522997193E+02  0.00000000000E+00 0. -1.
         21    1    1    2  504  501  0.26751279386E+03 -0.10489359077E+02  0.28742145378E+03  0.39279029217E+03  0.00000000000E+00 0.  1.
<mgrwt>
<rscale>  4 0.29610418E+03</rscale>
<asrwt>0</asrwt>
<pdfrwt beam="1">  1       21 0.13776506E+00 0.29610418E+03</pdfrwt>
<pdfrwt beam="2">  1       21 0.17144187E-01 0.29610418E+03</pdfrwt>
<totfact> 0.10764911E+04</totfact>
</mgrwt>
</event>
<event>
 5    0  0.4257006E+000  0.2584858E+03  0.7546771E-02  0.1108056E+00
         21   -1    0    0  504  501  0.00000000000E+00  0.00000000000E+00  0.73247075067E+02  0.73247075067E+02  0.00000000000E+00 0. -1.
         21   -1    0    0  501  502 -0.00000000000E+00 -0.00000000000E+00 -0.11202799881E+04  0.11202799881E+04  0.00000000000E+00 0. -1.
         25    1    1    2    0    0  0.40433951588E+01 -0.23863810045E+03 -0.65689257140E+03  0.70999812844E+03  0.12500000000E+03 0.  0.
         21    1    1    2  503  502 -0.56423729580E+02  0.21547044423E+03 -0.26690414968E+03  0.34763339126E+03  0.00000000000E+00 0. -1.
         21    1    1    2  504  503  0.52380334421E+02  0.23167656221E+02 -0.12323619198E+03  0.13589554350E+03  0.00000000000E+00 0. -1.
<mgrwt>
<rscale>  4 0.25848580E+03</rscale>
<asrwt>0</asrwt>
<pdfrwt beam="1">  1       21 0.11268781E-01 0.25848580E+03</pdfrwt>
<pdfrwt beam="2">  1       21 0.17235076E+00 0.25848580E+03</pdfrwt>
<totfact> 0.12902449E+04</totfact>
</mgrwt>
</event>
<event>
 5    0  0.4257006E+000  0.2737091E+03  0.7546771E-02  0.1099175E+00
         21   -1    0    0  504  501  0.00000000000E+00  0.00000000000E+00  0.23070506451E+03  0.23070506451E+03  0.00000000000E+00 0.  1.
         21   -1    0    0  503  502 -0.00000000000E+00 -0.00000000000E+00 -0.33734683594E+03  0.33734683594E+03  0.00000000000E+00 0.  1.
         25    1    1    2    0    0 -0.24645416980E+03 -0.17176244271E+02  0.17127307295E+02  0.27740408403E+03  0.12500000000E+03 0.  0.
         21    1    1    2  503  501  0.23628451946E+03  0.36212980918E+02 -0.10169609146E+03  0.25977653693E+03  0.00000000000E+00 0.  1.
         21    1    1    2  504  502  0.10169650343E+02 -0.19036736648E+02 -0.22072987267E+02  0.30871279487E+02  0.00000000000E+00 0.  1.
<mgrwt>
<rscale>  4 0.27370907E+03</rscale>
<asrwt>0</asrwt>
<pdfrwt beam="1">  1       21 0.35493087E-01 0.27370907E+03</pdfrwt>
<pdfrwt beam="2">  1       21 0.51899513E-01 0.27370907E+03</pdfrwt>
<totfact> 0.25921859E+04</totfact>
</mgrwt>
</event>
<event>
 5    0  0.4257006E+000  0.5472879E+03  0.7546771E-02  0.1002124E+00
         21   -1    0    0  504  501  0.00000000000E+00  0.00000000000E+00  0.14869472334E+04  0.14869472334E+04  0.00000000000E+00 0. -1.
         21   -1    0    0  503  502 -0.00000000000E+00 -0.00000000000E+00 -0.30214413336E+03  0.30214413336E+03  0.00000000000E+00 0. -1.
         25    1    1    2    0    0  0.52262753531E+03 -0.10838104807E+01  0.89293864678E+03  0.10421636830E+04  0.12500000000E+03 0.  0.
         21    1    1    2  503  501 -0.55304323360E+03 -0.15833513391E+02  0.36713533689E+03  0.66399990510E+03  0.00000000000E+00 0. -1.
         21    1    1    2  504  502  0.30415698295E+02  0.16917323871E+02 -0.75270883618E+02  0.82927778642E+02  0.00000000000E+00 0.  1.
<mgrwt>
<rscale>  4 0.54728790E+03</rscale>
<asrwt>0</asrwt>
<pdfrwt beam="1">  1       21 0.22876111E+00 0.54728790E+03</pdfrwt>
<pdfrwt beam="2">  1       21 0.46483713E-01 0.54728790E+03</pdfrwt>
<totfact> 0.30455899E+02</totfact>
</mgrwt>
</event>
<event>
 5    0  0.4257006E+000  0.3903466E+03  0.7546771E-02  0.1047175E+00
         21   -1    0    0  504  501  0.00000000000E+00  0.00000000000E+00  0.17979217789E+03  0.17979217789E+03  0.00000000000E+00 0. -1.
         21   -1    0    0  503  502 -0.00000000000E+00 -0.00000000000E+00 -0.10228933643E+04  0.10228933643E+04  0.00000000000E+00 0. -1.
         25    1    1    2    0    0  0.20598145407E+03 -0.29783506834E+03 -0.23636911110E+03  0.45014380373E+03  0.12500000000E+03 0.  0.
         21    1    1    2  503  501 -0.23103904964E+03  0.30334071031E+03 -0.43314697165E+03  0.57707099047E+03  0.00000000000E+00 0. -1.
         21    1    1    2  504  502  0.25057595569E+02 -0.55056419730E+01 -0.17358510368E+03  0.17547074802E+03  0.00000000000E+00 0. -1.
<mgrwt>
<rscale>  4 0.39034661E+03</rscale>
<asrwt>0</asrwt>
<pdfrwt beam="1">  1       21 0.27660336E-01 0.39034661E+03</pdfrwt>
<pdfrwt beam="2">  1       21 0.15736821E+00 0.39034661E+03</pdfrwt>
<totfact> 0.28954974E+03</totfact>
</mgrwt>
</event>
<event>
 5    0  0.4257006E+000  0.3503849E+03  0.7546771E-02  0.1062457E+00
         21   -1    0    0  503  501  0.00000000000E+00  0.00000000000E+00  0.11093066157E+03  0.11093066157E+03  0.00000000000E+00 0. -1.
         21   -1    0    0  504  502 -0.00000000000E+00 -0.00000000000E+00 -0.15759981818E+04  0.15759981818E+04  0.00000000000E+00 0. -1.
         25    1    1    2    0    0 -0.34277525279E+03  0.84994531324E+02 -0.37314331894E+03  0.52875313782E+03  0.12500000000E+03 0.  0.
         21    1    1    2  503  502  0.78428432655E+02  0.30625523258E+02 -0.39525696989E+03  0.40412499795E+03  0.00000000000E+00 0. -1.
         21    1    1    2  504  501  0.26434682013E+03 -0.11562005458E+03 -0.69666723135E+03  0.75405070756E+03  0.00000000000E+00 0. -1.
<mgrwt>
<rscale>  4 0.35038492E+03</rscale>
<asrwt>0</asrwt>
<pdfrwt beam="1">  1       21 0.17066256E-01 0.35038492E+03</pdfrwt>
<pdfrwt beam="2">  1       21 0.24246126E+00 0.35038492E+03</pdfrwt>
<totfact> 0.20042498E+03</totfact>
</mgrwt>
</event>
<event>
 5    0  0.4257006E+000  0.2277241E+03  0.7546771E-02  0.1128252E+00
         21   -1    0    0  504  501  0.00000000000E+00  0.00000000000E+00  0.11271682133E+04  0.11271682133E+04  0.00000000000E+00 0.  1.
         21   -1    0    0  503  502 -0.00000000000E+00 -0.00000000000E+00 -0.50320658052E+03  0.50320658052E+03  0.00000000000E+00 0. -1.
         25    1    1    2    0    0 -0.15993540094E+03 -0.12909664414E+03  0.40030797198E+03  0.46702970830E+03  0.12500000000E+03 0.  0.
         21    1    1    2  503  501  0.14650398853E+03  0.11257686574E+03  0.68094123095E+03  0.70556213714E+03  0.00000000000E+00 0.  1.
         21    1    1    2  504  502  0.13431412411E+02  0.16519778398E+02 -0.45728757020E+03  0.45778294832E+03  0.00000000000E+00 0. -1.
<mgrwt>
<rscale>  4 0.22772410E+03</rscale>
<asrwt>0</asrwt>
<pdfrwt beam="1">  1       21 0.17341049E+00 0.22772410E+03</pdfrwt>
<pdfrwt beam="2">  1       21 0.77416397E-01 0.22772410E+03</pdfrwt>
<totfact> 0.28714095E+02</totfact>
</mgrwt>
</event>
<event>
 5    0  0.4257006E+000  0.2715843E+03  0.7546771E-02  0.1100376E+00
         21   -1    0    0  503  501  0.00000000000E+00  0.00000000000E+00  0.23203995231E+04  0.23203995231E+04  0.00000000000E+00 0.  1.
         21   -1    0    0  504  502 -0.00000000000E+00 -0.00000000000E+00 -0.12681766234E+03  0.12681766234E+03  0.00000000000E+00 0.  1.
         25    1    1    2    0    0 -0.22724844345E+03 -0.64390292658E+01  0.27739624280E+03  0.37981178453E+03  0.12500000000E+03 0.  0.
         21    1    1    2  503  502  0.23465525039E+03  0.67051419700E+02  0.19705763210E+04  0.19856308863E+04  0.00000000000E+00 0.  1.
         21    1    1    2  504  501 -0.74068069386E+01 -0.60612390434E+02 -0.54390703089E+02  0.81774514646E+02  0.00000000000E+00 0.  1.
<mgrwt>
<rscale>  4 0.27158432E+03</rscale>
<asrwt>0</asrwt>
<pdfrwt beam="1">  1       21 0.35698451E+00 0.27158432E+03</pdfrwt>
<pdfrwt beam="2">  1       21 0.19510411E-01 0.27158432E+03</pdfrwt>
<totfact> 0.34586790E+02</totfact>
</mgrwt>
</event>
<event>
 5    0  0.4257006E+000  0.2556511E+03  0.7546771E-02  0.1109785E+00
         21   -1    0    0  504  501  0.00000000000E+00  0.00000000000E+00  0.36818874745E+03  0.36818874745E+03  0.00000000000E+00 0.  1.
         21   -1    0    0  501  502 -0.00000000000E+00 -0.00000000000E+00 -0.18362124405E+03  0.18362124405E+03  0.00000000000E+00 0.  1.
         25    1    1    2    0    0  0.79572853395E+02 -0.19878204284E+03  0.33315096053E+02  0.25016201786E+03  0.12500000000E+03 0.  0.
         21    1    1    2  503  502 -0.98773034263E+02  0.20552387980E+03  0.16094831686E+03  0.27910667882E+03  0.00000000000E+00 0.  1.
         21    1    1    2  504  503  0.19200180869E+02 -0.67418369601E+01 -0.96959095135E+01  0.22541294823E+02  0.00000000000E+00 0. -1.
<mgrwt>
<rscale>  4 0.25565109E+03</rscale>
<asrwt>0</asrwt>
<pdfrwt beam="1">  1       21 0.56644422E-01 0.25565109E+03</pdfrwt>
<pdfrwt beam="2">  1       21 0.28249422E-01 0.25565109E+03</pdfrwt>
<totfact> 0.34044345E+04</totfact>
</mgrwt>
</event>
<event>
 5    0  0.4257006E+000  0.3328748E+03  0.7546771E-02  0.1069872E+00
         21   -1    0    0  502  501  0.00000000000E+00  0.00000000000E+00  0.16148308089E+03  0.16148308089E+03  0.00000000000E+00 0. -1.
         21   -1    0    0  503  502 -0.00000000000E+00 -0.00000000000E+00 -0.17965265272E+04  0.17965265272E+04  0.00000000000E+00 0.  1.
         25    1    1    2    0    0 -0.30055088865E+03 -0.70367805627E+02 -0.33449861113E+03  0.47201354386E+03  0.12500000000E+03 0.  0.
         21    1    1    2  503  504  0.31409695313E+03 -0.49923456675E+02 -0.19334441858E+03  0.37219794691E+03  0.00000000000E+00 0. -1.
         21    1    1    2  504  501 -0.13546064476E+02  0.12029126230E+03 -0.11072004166E+04  0.11137981173E+04  0.00000000000E+00 0.  1.
<mgrwt>
<rscale>  4 0.33287485E+03</rscale>
<asrwt>0</asrwt>
<pdfrwt beam="1">  1       21 0.24843552E-01 0.33287485E+03</pdfrwt>
<pdfrwt beam="2">  1       21 0.27638869E+00 0.33287485E+03</pdfrwt>
<totfact> 0.62139139E+02</totfact>
</mgrwt>
</event>
<event>
 5    0  0.4257006E+000  0.2757204E+03  0.7546771E-02  0.1098050E+00
         21   -1    0    0  502  501  0.00000000000E+00  0.00000000000E+00  0.98120393177E+03  0.98120393177E+03  0.00000000000E+00 0. -1.
         21   -1    0    0  503  502 -0.00000000000E+00 -0.00000000000E+00 -0.15870613146E+03  0.15870613146E+03  0.00000000000E+00 0. -1.
         25    1    1    2    0    0  0.24268517073E+03  0.14189801613E+03  0.69848566781E+03  0.76324201090E+03  0.12500000000E+03 0.  0.
         21    1    1    2  503  504 -0.84781951779E+02 -0.13791060760E+03 -0.19749937387E+02  0.16308701684E+03  0.00000000000E+00 0. -1.
         21    1    1    2  504  501 -0.15790321895E+03 -0.39874085322E+01  0.14376206989E+03  0.21358103548E+03  0.00000000000E+00 0. -1.
<mgrwt>
<rscale>  4 0.27572043E+03</rscale>
<asrwt>0</asrwt>
<pdfrwt beam="1">  1       21 0.15095445E+00 0.27572043E+03</pdfrwt>
<pdfrwt beam="2">  1       21 0.24416329E-01 0.27572043E+03</pdfrwt>
<totfact> 0.43828582E+03</totfact>
</mgrwt>
</event>
<event>
 5    0  0.4257006E+000  0.2558668E+03  0.7546771E-02  0.1109652E+00
         21   -1    0    0  504  501  0.00000000000E+00  0.00000000000E+00  0.13558511264E+04  0.13558511264E+04  0.00000000000E+00 0. -1.
         21   -1    0    0  501  502 -0.00000000000E+00 -0.00000000000E+00 -0.92556199853E+02  0.92556199853E+02  0.00000000000E+00 0.  1.
         25    1    1    2    0    0 -0.19279926093E+03 -0.98203936973E+02  0.99486907468E+03  0.10257704636E+04  0.12500000000E+03 0.  0.
         21    1    1    2  503  502 -0.29286778037E+01 -0.68265925631E+02  0.71561887055E+02  0.98944011617E+02  0.00000000000E+00 0.  1.
         21    1    1    2  504  503  0.19572793874E+03  0.16646986260E+03  0.19686396478E+03  0.32369285100E+03  0.00000000000E+00 0.  1.
<mgrwt>
<rscale>  4 0.25586677E+03</rscale>
<asrwt>0</asrwt>
<pdfrwt beam="1">  1       21 0.20859247E+00 0.25586677E+03</pdfrwt>
<pdfrwt beam="2">  1       21 0.14239416E-01 0.25586677E+03</pdfrwt>
<totfact> 0.48435680E+03</totfact>
</mgrwt>
</event>
<event>
 5    0  0.4257006E+000  0.2782461E+03  0.7546771E-02  0.1096651E+00
         21   -1    0    0  504  501  0.00000000000E+00  0.00000000000E+00  0.50809470363E+03  0.50809470363E+03  0.00000000000E+00 0. -1.
         21   -1    0    0  503  502 -0.00000000000E+00 -0.00000000000E+00 -0.17575598326E+03  0.17575598326E+03  0.00000000000E+00 0. -1.
         25    1    1    2    0    0 -0.22286296975E+03 -0.44822209467E+02  0.71152544787E+02  0.26900672552E+03  0.12500000000E+03 0.  0.
         21    1    1    2  503  501  0.24706102459E+03  0.83840032450E+02  0.26084740974E+03  0.36893044342E+03  0.00000000000E+00 0. -1.
         21    1    1    2  504  502 -0.24198054844E+02 -0.39017822983E+02  0.33876584607E+00  0.45913517954E+02  0.00000000000E+00 0. -1.
<mgrwt>
<rscale>  4 0.27824605E+03</rscale>
<asrwt>0</asrwt>
<pdfrwt beam="1">  1       21 0.78168415E-01 0.27824605E+03</pdfrwt>
<pdfrwt beam="2">  1       21 0.27039382E-01 0.27824605E+03</pdfrwt>
<totfact> 0.18046192E+04</totfact>
</mgrwt>
</event>
<event>
 5    0  0.4257006E+000  0.2542702E+03  0.7546771E-02  0.1110636E+00
         21   -1    0    0  503  501  0.00000000000E+00  0.00000000000E+00  0.71654084937E+03  0.71654084937E+03  0.00000000000E+00 0.  1.
         21   -1    0    0  504  502 -0.00000000000E+00 -0.00000000000E+00 -0.10825033562E+03  0.10825033562E+03  0.00000000000E+00 0.  1.
         25    1    1    2    0    0 -0.55515349097E+02  0.19494542832E+03  0.25248382523E+03  0.34707168713E+03  0.12500000000E+03 0.  0.
         21    1    1    2  503  502  0.38303773745E+02  0.42528180709E+02  0.10355017115E+02  0.58164006198E+02  0.00000000000E+00 0.  1.
         21    1    1    2  504  501  0.17211575353E+02 -0.23747360903E+03  0.34545167141E+03  0.41955549167E+03  0.00000000000E+00 0.  1.
<mgrwt>
<rscale>  4 0.25427021E+03</rscale>
<asrwt>0</asrwt>
<pdfrwt beam="1">  1       21 0.11023705E+00 0.25427021E+03</pdfrwt>
<pdfrwt beam="2">  1       21 0.16653898E-01 0.25427021E+03</pdfrwt>
<totfact> 0.20330630E+04</totfact>
</mgrwt>
</event>
<event>
 5    0  0.4257006E+000  0.2780204E+03  0.7546771E-02  0.1096775E+00
         21   -1    0    0  504  501  0.00000000000E+00  0.00000000000E+00  0.14691084067E+03  0.14691084067E+03  0.00000000000E+00 0.  1.
         21   -1    0    0  503  502 -0.00000000000E+00 -0.00000000000E+00 -0.58692243470E+03  0.58692243470E+03  0.00000000000E+00 0.  1.
         25    1    1    2    0    0  0.25756614754E+03 -0.99963078423E+01 -0.29337665468E+03  0.41004281245E+03  0.12500000000E+03 0.  0.
         21    1    1    2  503  501 -0.24240550564E+03  0.27413228423E+02 -0.85598883957E+02  0.25853255731E+03  0.00000000000E+00 0.  1.
         21    1    1    2  504  502 -0.15160641907E+02 -0.17416920581E+02 -0.61036055394E+02  0.65257905603E+02  0.00000000000E+00 0. -1.
<mgrwt>
<rscale>  4 0.27802037E+03</rscale>
<asrwt>0</asrwt>
<pdfrwt beam="1">  1       21 0.22601668E-01 0.27802037E+03</pdfrwt>
<pdfrwt beam="2">  1       21 0.90295759E-01 0.27802037E+03</pdfrwt>
<totfact> 0.18271589E+04</totfact>
</mgrwt>
</event>
<event>
 5    0  0.4257006E+000  0.2539284E+03  0.7546771E-02  0.1110847E+00
         21   -1    0    0  503  501  0.00000000000E+00  0.00000000000E+00  0.10443674008E+04  0.10443674008E+04  0.00000000000E+00 0.  1.
         21   -1    0    0  504  502 -0.00000000000E+00 -0.00000000000E+00 -0.50140939262E+03  0.50140939262E+03  0.00000000000E+00 0. -1.
         25    1    1    2    0    0  0.14606577482E+03  0.16258638389E+03  0.96575853734E+03  0.99804012708E+03  0.12500000000E+03 0.  0.
         21    1    1    2  503  502 -0.20919641538E+03 -0.18273019627E+03 -0.30462505140E+03  0.41224978687E+03  0.00000000000E+00 0. -1.
         21    1    1    2  504  501  0.63130640559E+02  0.20143812380E+02 -0.11817547778E+03  0.13548687945E+03  0.00000000000E+00 0. -1.
<mgrwt>
<rscale>  4 0.25392843E+03</rscale>
<asrwt>0</asrwt>
<pdfrwt beam="1">  1       21 0.16067191E+00 0.25392843E+03</pdfrwt>
<pdfrwt beam="2">  1       21 0.77139906E-01 0.25392843E+03</pdfrwt>
<totfact> 0.34821465E+02</totfact>
</mgrwt>
</event>
<event>
 5    0  0.4257006E+000  0.2663662E+03  0.7546771E-02  0.1103378E+00
         21   -1    0    0  504  501  0.00000000000E+00  0.00000000000E+00  0.14814289783E+04  0.14814289783E+04  0.00000000000E+00 0.  1.
         21   -1    0    0  501  502 -0.00000000000E+00 -0.00000000000E+00 -0.17300648342E+03  0.17300648342E+03  0.00000000000E+00 0.  1.
         25    1    1    2    0    0  0.54517387437E+02 -0.23790477244E+03  0.10553674331E+04  0.10904110441E+04  0.12500000000E+03 0.  0.
         21    1    1    2  503  502  0.21852609856E+02  0.30353656859E+02 -0.12255923895E+03  0.12813917471E+03  0.00000000000E+00 0.  1.
         21    1    1    2  504  503 -0.76369997293E+02  0.20755111558E+03  0.37561430081E+03  0.43588524297E+03  0.00000000000E+00 0.  1.
<mgrwt>
<rscale>  4 0.26636621E+03</rscale>
<asrwt>0</asrwt>
<pdfrwt beam="1">  1       21 0.22791214E+00 0.26636621E+03</pdfrwt>
<pdfrwt beam="2">  1       21 0.26616383E-01 0.26636621E+03</pdfrwt>
<totfact> 0.11235730E+03</totfact>
</mgrwt>
</event>
<event>
 5    0  0.4257006E+000  0.2798545E+03  0.7546771E-02  0.1095768E+00
         21   -1    0    0  504  501  0.00000000000E+00  0.00000000000E+00  0.26074291924E+03  0.26074291924E+03  0.00000000000E+00 0. -1.
         21   -1    0    0  501  502 -0.00000000000E+00 -0.00000000000E+00 -0.20293444178E+04  0.20293444178E+04  0.00000000000E+00 0.  1.
         25    1    1    2    0    0 -0.25049079499E+03 -0.34006208355E+02  0.15065147264E+03  0.31972320340E+03  0.12500000000E+03 0.  0.
         21    1    1    2  503  502  0.15501016490E+02  0.19280613286E+02 -0.14000520114E+04  0.14002705660E+04  0.00000000000E+00 0.  1.
         21    1    1    2  504  503  0.23498977850E+03  0.14725595069E+02 -0.51920095980E+03  0.57009356759E+03  0.00000000000E+00 0. -1.
<mgrwt>
<rscale>  4 0.27985449E+03</rscale>
<asrwt>0</asrwt>
<pdfrwt beam="1">  1       21 0.40114294E-01 0.27985449E+03</pdfrwt>
<pdfrwt beam="2">  1       21 0.31220684E+00 0.27985449E+03</pdfrwt>
<totfact> 0.15489607E+02</totfact>
</mgrwt>
</event>
<event>
 5    0  0.4257006E+000  0.2393238E+03  0.7546771E-02  0.1120244E+00
         21   -1    0    0  503  501  0.00000000000E+00  0.00000000000E+00  0.22552282055E+03  0.22552282055E+03  0.00000000000E+00 0.  1.
         21   -1    0    0  504  502 -0.00000000000E+00 -0.00000000000E+00 -0.32031653333E+03  0.32031653333E+03  0.00000000000E+00 0.  1.
         25    1    1    2    0    0  0.20357681334E+03  0.81226920252E+01  0.70712948254E+02  0.24926856622E+03  0.12500000000E+03 0.  0.
         21    1    1    2  503  502  0.14741923504E+01 -0.38678228676E+02 -0.28677355859E+02  0.48172288254E+02  0.00000000000E+00 0.  1.
         21    1    1    2  504  501 -0.20505100569E+03  0.30555536650E+02 -0.13682930517E+03  0.24839849941E+03  0.00000000000E+00 0.  1.
<mgrwt>
<rscale>  4 0.23932377E+03</rscale>
<asrwt>0</asrwt>
<pdfrwt beam="1">  1       21 0.34695819E-01 0.23932377E+03</pdfrwt>
<pdfrwt beam="2">  1       21 0.49279466E-01 0.23932377E+03</pdfrwt>
<totfact> 0.30706923E+04</totfact>
</mgrwt>
</event>
