<event>
 5    0  0.1781295E-001  0.2533570E+03  0.7546771E-02  0.1111201E+00
         21   -1    0    0  501  502  0.00000000000E+00  0.00000000000E+00  0.45399505300E+03  0.45399505300E+03  0.00000000000E+00 0. -1.
         21   -1    0    0  502  503 -0.00000000000E+00 -0.00000000000E+00 -0.13093181310E+03  0.13093181310E+03  0.00000000000E+00 0. -1.
         25    1    1    2    0    0 -0.97092977628E+02 -0.19783256906E+03  0.18367000207E+03  0.31292881195E+03  0.12500000000E+03 0.  0.
          2    1    1    2  501    0  0.71516911825E+02  0.16815227430E+03  0.76927079231E+02  0.19826152312E+03  0.00000000000E+00 0. -1.
         -2    1    1    2    0  503  0.25576065803E+02  0.29680294762E+02  0.62466158599E+02  0.73736531036E+02  0.00000000000E+00 0.  1.
<mgrwt>
<rscale>  4 0.25335700E+03</rscale>
<asrwt>0</asrwt>
<pdfrwt beam="1">  1       21 0.69845392E-01 0.25335700E+03</pdfrwt>
<pdfrwt beam="2">  1       21 0.20143356E-01 0.25335700E+03</pdfrwt>
<totfact> 0.41222327E+04</totfact>
</mgrwt>
</event>
<event>
 5    0  0.1781295E-001  0.3405283E+03  0.7546771E-02  0.1066837E+00
         21   -1    0    0  501  502  0.00000000000E+00  0.00000000000E+00  0.40961766159E+03  0.40961766159E+03  0.00000000000E+00 0. -1.
         21   -1    0    0  502  503 -0.00000000000E+00 -0.00000000000E+00 -0.28276503758E+03  0.28276503758E+03  0.00000000000E+00 0. -1.
         25    1    1    2    0    0 -0.16693599895E+03  0.26603190770E+03  0.36003599603E+02  0.33994391132E+03  0.12500000000E+03 0.  0.
          1    1    1    2  501    0  0.14840874117E+03 -0.15888556081E+03  0.11297861379E+02  0.21770947972E+03  0.00000000000E+00 0. -1.
         -1    1    1    2    0  503  0.18527257782E+02 -0.10714634688E+03  0.79551163020E+02  0.13472930813E+03  0.00000000000E+00 0.  1.
<mgrwt>
<rscale>  4 0.33990253E+03</rscale>
<asrwt>0</asrwt>
<pdfrwt beam="1">  1       21 0.63018102E-01 0.34052835E+03</pdfrwt>
<pdfrwt beam="2">  1       21 0.43502313E-01 0.34052835E+03</pdfrwt>
<totfact> 0.10971714E+04</totfact>
</mgrwt>
</event>
<event>
 5    0  0.1781295E-001  0.2528174E+03  0.7546771E-02  0.1111537E+00
         21   -1    0    0  501  502  0.00000000000E+00  0.00000000000E+00  0.11262092095E+03  0.11262092095E+03  0.00000000000E+00 0.  1.
         21   -1    0    0  502  503 -0.00000000000E+00 -0.00000000000E+00 -0.10233791912E+04  0.10233791912E+04  0.00000000000E+00 0.  1.
         25    1    1    2    0    0  0.13120818089E+03 -0.17628400012E+03 -0.87293502665E+03  0.90880811846E+03  0.12500000000E+03 0.  0.
          4    1    1    2  501    0 -0.63387709834E+01  0.34434286658E+02 -0.72168759837E+01  0.35748893887E+02  0.00000000000E+00 0. -1.
         -4    1    1    2    0  503 -0.12486940990E+03  0.14184971346E+03 -0.30606367662E+02  0.19144309985E+03  0.00000000000E+00 0.  1.
<mgrwt>
<rscale>  4 0.25281740E+03</rscale>
<asrwt>0</asrwt>
<pdfrwt beam="1">  1       21 0.17326296E-01 0.25281740E+03</pdfrwt>
<pdfrwt beam="2">  1       21 0.15744295E+00 0.25281740E+03</pdfrwt>
<totfact> 0.75834224E+03</totfact>
</mgrwt>
</event>
<event>
 5    0  0.1781295E-001  0.2925068E+03  0.7546771E-02  0.1089048E+00
         21   -1    0    0  501  502  0.00000000000E+00  0.00000000000E+00  0.65356813960E+03  0.65356813960E+03  0.00000000000E+00 0.  1.
         21   -1    0    0  502  503 -0.00000000000E+00 -0.00000000000E+00 -0.23358246655E+03  0.23358246655E+03  0.00000000000E+00 0. -1.
         25    1    1    2    0    0  0.25205090279E+03  0.80034885142E+02  0.51380540001E+03  0.59123280484E+03  0.12500000000E+03 0.  0.
          3    1    1    2  501    0 -0.17658991436E+03 -0.27811123504E+02 -0.98352968035E+02  0.20403618004E+03  0.00000000000E+00 0. -1.
         -3    1    1    2    0  503 -0.75460988422E+02 -0.52223761638E+02  0.45332410708E+01  0.91881621273E+02  0.00000000000E+00 0.  1.
<mgrwt>
<rscale>  4 0.29250682E+03</rscale>
<asrwt>0</asrwt>
<pdfrwt beam="1">  1       21 0.10054894E+00 0.29250682E+03</pdfrwt>
<pdfrwt beam="2">  1       21 0.35935764E-01 0.29250682E+03</pdfrwt>
<totfact> 0.56760816E+03</totfact>
</mgrwt>
</event>
<event>
 5    0  0.1781295E-001  0.3037581E+03  0.7546771E-02  0.1083377E+00
         21   -1    0    0  501  502  0.00000000000E+00  0.00000000000E+00  0.82695779796E+02  0.82695779796E+02  0.00000000000E+00 0. -1.
         21   -1    0    0  502  503 -0.00000000000E+00 -0.00000000000E+00 -0.11136991113E+04  0.11136991113E+04  0.00000000000E+00 0. -1.
         25    1    1    2    0    0 -0.25159396508E+03  0.11551821523E+03 -0.46672135205E+03  0.55686425795E+03  0.12500000000E+03 0.  0.
          3    1    1    2  501    0  0.13093959996E+03 -0.11590107913E+03 -0.39163930671E+03  0.42890510085E+03  0.00000000000E+00 0. -1.
         -3    1    1    2    0  503  0.12065436512E+03  0.38286389246E+00 -0.17264267279E+03  0.21062553234E+03  0.00000000000E+00 0.  1.
<mgrwt>
<rscale>  4 0.30375810E+03</rscale>
<asrwt>0</asrwt>
<pdfrwt beam="1">  1       21 0.12722428E-01 0.30375810E+03</pdfrwt>
<pdfrwt beam="2">  1       21 0.17133832E+00 0.30375810E+03</pdfrwt>
<totfact> 0.10282516E+04</totfact>
</mgrwt>
</event>
<event>
 5    0  0.1781295E-001  0.5531516E+03  0.7546771E-02  0.1000767E+00
         21   -1    0    0  501  502  0.00000000000E+00  0.00000000000E+00  0.10010596120E+04  0.10010596120E+04  0.00000000000E+00 0. -1.
         21   -1    0    0  502  503 -0.00000000000E+00 -0.00000000000E+00 -0.36400146794E+03  0.36400146794E+03  0.00000000000E+00 0. -1.
         25    1    1    2    0    0  0.38613956159E+03  0.41180636716E+03  0.17606907910E+03  0.60441175176E+03  0.12500000000E+03 0.  0.
          2    1    1    2  501    0 -0.45552195785E+02 -0.32933549523E+02  0.15847110140E+03  0.16814491133E+03  0.00000000000E+00 0.  1.
         -2    1    1    2    0  503 -0.34058736580E+03 -0.37887281764E+03  0.30251796351E+03  0.59250441681E+03  0.00000000000E+00 0. -1.
<mgrwt>
<rscale>  4 0.55315161E+03</rscale>
<asrwt>0</asrwt>
<pdfrwt beam="1">  1       21 0.15400917E+00 0.55315161E+03</pdfrwt>
<pdfrwt beam="2">  1       21 0.56000226E-01 0.55315161E+03</pdfrwt>
<totfact> 0.67302003E+02</totfact>
</mgrwt>
</event>
<event>
 5    0  0.1781295E-001  0.3469162E+03  0.7546771E-02  0.1063888E+00
         21   -1    0    0  501  502  0.00000000000E+00  0.00000000000E+00  0.27087606062E+03  0.27087606062E+03  0.00000000000E+00 0.  1.
         21   -1    0    0  502  503 -0.00000000000E+00 -0.00000000000E+00 -0.11064505819E+04  0.11064505819E+04  0.00000000000E+00 0. -1.
         25    1    1    2    0    0  0.32345616866E+03  0.38384724234E+02  0.89105920393E+02  0.36008630236E+03  0.12500000000E+03 0.  0.
          4    1    1    2  501    0 -0.31784879704E+03  0.14118984938E+02 -0.52350435140E+03  0.61260428455E+03  0.00000000000E+00 0. -1.
         -4    1    1    2    0  503 -0.56073716230E+01 -0.52503709171E+02 -0.40117609026E+03  0.40463605559E+03  0.00000000000E+00 0.  1.
<mgrwt>
<rscale>  4 0.34691621E+03</rscale>
<asrwt>0</asrwt>
<pdfrwt beam="1">  1       21 0.41673240E-01 0.34691621E+03</pdfrwt>
<pdfrwt beam="2">  1       21 0.17022317E+00 0.34691621E+03</pdfrwt>
<totfact> 0.10439622E+03</totfact>
</mgrwt>
</event>
<event>
 5    0  0.1781295E-001  0.3315394E+03  0.7546771E-02  0.1070458E+00
         21   -1    0    0  501  502  0.00000000000E+00  0.00000000000E+00  0.44778725992E+03  0.44778725992E+03  0.00000000000E+00 0. -1.
         21   -1    0    0  502  503 -0.00000000000E+00 -0.00000000000E+00 -0.43045521296E+03  0.43045521296E+03  0.00000000000E+00 0. -1.
         25    1    1    2    0    0  0.18078581968E+03  0.24821339343E+03  0.30254008726E+03  0.44883059797E+03  0.12500000000E+03 0.  0.
          3    1    1    2  501    0 -0.12876996069E+03 -0.12771080767E+03 -0.21249232365E+03  0.27936488825E+03  0.00000000000E+00 0. -1.
         -3    1    1    2    0  503 -0.52015858987E+02 -0.12050258575E+03 -0.72715716652E+02  0.15004698667E+03  0.00000000000E+00 0.  1.
<mgrwt>
<rscale>  4 0.33153944E+03</rscale>
<asrwt>0</asrwt>
<pdfrwt beam="1">  1       21 0.68890348E-01 0.33153944E+03</pdfrwt>
<pdfrwt beam="2">  1       21 0.66223879E-01 0.33153944E+03</pdfrwt>
<totfact> 0.36813988E+03</totfact>
</mgrwt>
</event>
<event>
 5    0  0.1781295E-001  0.2993675E+03  0.7546771E-02  0.1085557E+00
         21   -1    0    0  501  502  0.00000000000E+00  0.00000000000E+00  0.24845996949E+03  0.24845996949E+03  0.00000000000E+00 0. -1.
         21   -1    0    0  502  503 -0.00000000000E+00 -0.00000000000E+00 -0.51807982277E+03  0.51807982277E+03  0.00000000000E+00 0. -1.
         25    1    1    2    0    0 -0.31044865943E+03  0.76913811995E+02 -0.15134546040E+03  0.37526597634E+03  0.12500000000E+03 0.  0.
          3    1    1    2  501    0  0.24558171451E+03 -0.12909797142E+00 -0.14765319742E+03  0.28655167401E+03  0.00000000000E+00 0. -1.
         -3    1    1    2    0  503  0.64866944918E+02 -0.76784714023E+02  0.29378804537E+02  0.10472214191E+03  0.00000000000E+00 0.  1.
<mgrwt>
<rscale>  4 0.29936746E+03</rscale>
<asrwt>0</asrwt>
<pdfrwt beam="1">  1       21 0.38224611E-01 0.29936746E+03</pdfrwt>
<pdfrwt beam="2">  1       21 0.79704588E-01 0.29936746E+03</pdfrwt>
<totfact> 0.86025171E+03</totfact>
</mgrwt>
</event>
<event>
 5    0  0.1781295E-001  0.8312023E+03  0.7546771E-02  0.9521503E-01
         21   -1    0    0  501  502  0.00000000000E+00  0.00000000000E+00  0.20352732158E+04  0.20352732158E+04  0.00000000000E+00 0. -1.
         21   -1    0    0  502  503 -0.00000000000E+00 -0.00000000000E+00 -0.33568390865E+03  0.33568390865E+03  0.00000000000E+00 0. -1.
         25    1    1    2    0    0 -0.31651050500E+02 -0.80492302604E+03  0.94853359412E+03  0.12506973439E+04  0.12500000000E+03 0.  0.
          4    1    1    2  501    0  0.63805247791E+02  0.28495502735E+03  0.38651360334E+03  0.48442052271E+03  0.00000000000E+00 0.  1.
         -4    1    1    2    0  503 -0.32154197292E+02  0.51996799869E+03  0.36454210967E+03  0.63583925782E+03  0.00000000000E+00 0. -1.
<mgrwt>
<rscale>  4 0.82716892E+03</rscale>
<asrwt>0</asrwt>
<pdfrwt beam="1">  1       21 0.31311895E+00 0.83120232E+03</pdfrwt>
<pdfrwt beam="2">  1       21 0.51643680E-01 0.83120232E+03</pdfrwt>
<totfact> 0.65450023E+01</totfact>
</mgrwt>
</event>
<event>
 5    0  0.1781295E-001  0.3471336E+03  0.7546771E-02  0.1063798E+00
         21   -1    0    0  501  502  0.00000000000E+00  0.00000000000E+00  0.12618916744E+03  0.12618916744E+03  0.00000000000E+00 0. -1.
         21   -1    0    0  502  503 -0.00000000000E+00 -0.00000000000E+00 -0.17324620294E+04  0.17324620294E+04  0.00000000000E+00 0. -1.
         25    1    1    2    0    0 -0.27842559383E+03  0.19042119898E+03 -0.13115792206E+04  0.13600169470E+04  0.12500000000E+03 0.  0.
          3    1    1    2  501    0  0.26372684433E+03 -0.12986364628E+03 -0.31711270535E+03  0.43240823644E+03  0.00000000000E+00 0.  1.
         -3    1    1    2    0  503  0.14698749499E+02 -0.60557552703E+02  0.22419063939E+02  0.66226013425E+02  0.00000000000E+00 0. -1.
<mgrwt>
<rscale>  4 0.34713359E+03</rscale>
<asrwt>0</asrwt>
<pdfrwt beam="1">  1       21 0.19413719E-01 0.34713359E+03</pdfrwt>
<pdfrwt beam="2">  1       21 0.26653260E+00 0.34713359E+03</pdfrwt>
<totfact> 0.11279648E+03</totfact>
</mgrwt>
</event>
<event>
 5    0  0.1781295E-001  0.2627886E+03  0.7546771E-02  0.1105479E+00
         21   -1    0    0  501  502  0.00000000000E+00  0.00000000000E+00  0.17906237062E+03  0.17906237062E+03  0.00000000000E+00 0. -1.
         21   -1    0    0  502  503 -0.00000000000E+00 -0.00000000000E+00 -0.86874473225E+03  0.86874473225E+03  0.00000000000E+00 0. -1.
         25    1    1    2    0    0 -0.18722150220E+03 -0.20232069968E+03 -0.30961563792E+03  0.43298083058E+03  0.12500000000E+03 0.  0.
          2    1    1    2  501    0  0.18960158969E+03  0.11275460737E+03  0.38137018642E+01  0.22062844018E+03  0.00000000000E+00 0.  1.
         -2    1    1    2    0  503 -0.23800874887E+01  0.89566092306E+02 -0.38388042557E+03  0.39419783212E+03  0.00000000000E+00 0. -1.
<mgrwt>
<rscale>  4 0.26278864E+03</rscale>
<asrwt>0</asrwt>
<pdfrwt beam="1">  1       21 0.27548057E-01 0.26278864E+03</pdfrwt>
<pdfrwt beam="2">  1       21 0.13365304E+00 0.26278864E+03</pdfrwt>
<totfact> 0.48160241E+03</totfact>
</mgrwt>
</event>
<event>
 5    0  0.1781295E-001  0.2948116E+03  0.7546771E-02  0.1087863E+00
         21   -1    0    0  501  502  0.00000000000E+00  0.00000000000E+00  0.30234939986E+03  0.30234939986E+03  0.00000000000E+00 0. -1.
         21   -1    0    0  502  503 -0.00000000000E+00 -0.00000000000E+00 -0.26938879031E+03  0.26938879031E+03  0.00000000000E+00 0.  1.
         25    1    1    2    0    0  0.21935505181E+03 -0.15222437535E+03  0.60053899352E+02  0.30086603336E+03  0.12500000000E+03 0.  0.
          4    1    1    2  501    0 -0.19329037733E+03  0.14517307293E+03 -0.18102661817E+02  0.24241307192E+03  0.00000000000E+00 0.  1.
         -4    1    1    2    0  503 -0.26064674471E+02  0.70513024177E+01 -0.89906279820E+01  0.28459084887E+02  0.00000000000E+00 0. -1.
<mgrwt>
<rscale>  4 0.29481163E+03</rscale>
<asrwt>0</asrwt>
<pdfrwt beam="1">  1       21 0.46515293E-01 0.29481163E+03</pdfrwt>
<pdfrwt beam="2">  1       21 0.41444429E-01 0.29481163E+03</pdfrwt>
<totfact> 0.23624657E+04</totfact>
</mgrwt>
</event>
<event>
 5    0  0.1781295E-001  0.2859080E+03  0.7546771E-02  0.1092505E+00
         21   -1    0    0  501  502  0.00000000000E+00  0.00000000000E+00  0.11455391403E+03  0.11455391403E+03  0.00000000000E+00 0. -1.
         21   -1    0    0  502  503 -0.00000000000E+00 -0.00000000000E+00 -0.91460769031E+03  0.91460769031E+03  0.00000000000E+00 0. -1.
         25    1    1    2    0    0  0.53399365575E+02  0.27069986958E+03 -0.29903943296E+03  0.42565184611E+03  0.12500000000E+03 0.  0.
          1    1    1    2  501    0 -0.76009343380E+02 -0.20906969457E+02 -0.73107670252E+02  0.10751396701E+03  0.00000000000E+00 0.  1.
         -1    1    1    2    0  503  0.22609977805E+02 -0.24979290013E+03 -0.42790667307E+03  0.49599579122E+03  0.00000000000E+00 0. -1.
<mgrwt>
<rscale>  4 0.28590800E+03</rscale>
<asrwt>0</asrwt>
<pdfrwt beam="1">  1       21 0.17623680E-01 0.28590800E+03</pdfrwt>
<pdfrwt beam="2">  1       21 0.14070887E+00 0.28590800E+03</pdfrwt>
<totfact> 0.97244689E+03</totfact>
</mgrwt>
</event>
<event>
 5    0  0.1781295E-001  0.2627203E+03  0.7546771E-02  0.1105520E+00
         21   -1    0    0  501  502  0.00000000000E+00  0.00000000000E+00  0.47345807630E+03  0.47345807630E+03  0.00000000000E+00 0.  1.
         21   -1    0    0  502  503 -0.00000000000E+00 -0.00000000000E+00 -0.13524927020E+03  0.13524927020E+03  0.00000000000E+00 0.  1.
         25    1    1    2    0    0  0.18850290619E+03 -0.13365487103E+03  0.20200337740E+03  0.33140207404E+03  0.12500000000E+03 0.  0.
          2    1    1    2  501    0 -0.43868405705E+02  0.50816782850E+02  0.72660206297E+02  0.98925669153E+02  0.00000000000E+00 0. -1.
         -2    1    1    2    0  503 -0.14463450049E+03  0.82838088183E+02  0.63545222402E+02  0.17837960330E+03  0.00000000000E+00 0.  1.
<mgrwt>
<rscale>  4 0.26272033E+03</rscale>
<asrwt>0</asrwt>
<pdfrwt beam="1">  1       21 0.72839703E-01 0.26272033E+03</pdfrwt>
<pdfrwt beam="2">  1       21 0.20807580E-01 0.26272033E+03</pdfrwt>
<totfact> 0.35177151E+04</totfact>
</mgrwt>
</event>
<event>
 5    0  0.1781295E-001  0.3133489E+03  0.7546771E-02  0.1078752E+00
         21   -1    0    0  501  502  0.00000000000E+00  0.00000000000E+00  0.23556121838E+03  0.23556121838E+03  0.00000000000E+00 0. -1.
         21   -1    0    0  502  503 -0.00000000000E+00 -0.00000000000E+00 -0.40726727841E+03  0.40726727841E+03  0.00000000000E+00 0. -1.
         25    1    1    2    0    0  0.14867264216E+03 -0.24588405712E+03 -0.24045566085E+02  0.31427012795E+03  0.12500000000E+03 0.  0.
          1    1    1    2  501    0 -0.92649768579E+02  0.17170998368E+03 -0.12857406725E+03  0.23366554920E+03  0.00000000000E+00 0. -1.
         -1    1    1    2    0  503 -0.56022873584E+02  0.74174073436E+02 -0.19086426701E+02  0.94892819638E+02  0.00000000000E+00 0.  1.
<mgrwt>
<rscale>  4 0.31334889E+03</rscale>
<asrwt>0</asrwt>
<pdfrwt beam="1">  1       21 0.36240187E-01 0.31334889E+03</pdfrwt>
<pdfrwt beam="2">  1       21 0.62656505E-01 0.31334889E+03</pdfrwt>
<totfact> 0.16312480E+04</totfact>
</mgrwt>
</event>
<event>
 5    0  0.1781295E-001  0.2411969E+03  0.7546771E-02  0.1118998E+00
         21   -1    0    0  501  502  0.00000000000E+00  0.00000000000E+00  0.95611221776E+03  0.95611221776E+03  0.00000000000E+00 0.  1.
         21   -1    0    0  502  503 -0.00000000000E+00 -0.00000000000E+00 -0.16694323452E+03  0.16694323452E+03  0.00000000000E+00 0. -1.
         25    1    1    2    0    0  0.15085957381E+03  0.14068515203E+03  0.86278890265E+03  0.89586863633E+03  0.12500000000E+03 0.  0.
          1    1    1    2  501    0 -0.43697199424E+02 -0.71138631914E+02 -0.49864785994E+02  0.97245293307E+02  0.00000000000E+00 0. -1.
         -1    1    1    2    0  503 -0.10716237438E+03 -0.69546520119E+02 -0.23755133420E+02  0.12994152265E+03  0.00000000000E+00 0.  1.
<mgrwt>
<rscale>  4 0.24119686E+03</rscale>
<asrwt>0</asrwt>
<pdfrwt beam="1">  1       21 0.14709418E+00 0.24119686E+03</pdfrwt>
<pdfrwt beam="2">  1       21 0.25683575E-01 0.24119686E+03</pdfrwt>
<totfact> 0.43572636E+03</totfact>
</mgrwt>
</event>
<event>
 5    0  0.1781295E-001  0.3187905E+03  0.7546771E-02  0.1076207E+00
         21   -1    0    0  501  502  0.00000000000E+00  0.00000000000E+00  0.76390319568E+03  0.76390319568E+03  0.00000000000E+00 0. -1.
         21   -1    0    0  502  503 -0.00000000000E+00 -0.00000000000E+00 -0.12623076962E+04  0.12623076962E+04  0.00000000000E+00 0. -1.
         25    1    1    2    0    0  0.29136370029E+03 -0.33309913721E+02  0.71200411987E+03  0.78011359616E+03  0.12500000000E+03 0.  0.
          4    1    1    2  501    0 -0.26665617207E+03  0.41335155065E+02 -0.10880797327E+04  0.11210404158E+04  0.00000000000E+00 0. -1.
         -4    1    1    2    0  503 -0.24707528214E+02 -0.80252413444E+01 -0.12232888771E+03  0.12505687993E+03  0.00000000000E+00 0.  1.
<mgrwt>
<rscale>  4 0.31879046E+03</rscale>
<asrwt>0</asrwt>
<pdfrwt beam="1">  1       21 0.11752357E+00 0.31879046E+03</pdfrwt>
<pdfrwt beam="2">  1       21 0.19420119E+00 0.31879046E+03</pdfrwt>
<totfact> 0.70527159E+01</totfact>
</mgrwt>
</event>
<event>
 5    0  0.1781295E-001  0.2690155E+03  0.7546771E-02  0.1101844E+00
         21   -1    0    0  501  502  0.00000000000E+00  0.00000000000E+00  0.25452241556E+03  0.25452241556E+03  0.00000000000E+00 0.  1.
         21   -1    0    0  502  503 -0.00000000000E+00 -0.00000000000E+00 -0.26637121594E+03  0.26637121594E+03  0.00000000000E+00 0.  1.
         25    1    1    2    0    0  0.12969568451E+03  0.19980833516E+03 -0.36531486255E+02  0.27148460521E+03  0.12500000000E+03 0.  0.
          1    1    1    2  501    0 -0.36723319808E+02 -0.11668495824E+03  0.24183551398E+02  0.12469493115E+03  0.00000000000E+00 0.  1.
         -1    1    1    2    0  503 -0.92972364698E+02 -0.83123376924E+02  0.49913447028E+00  0.12471409513E+03  0.00000000000E+00 0. -1.
<mgrwt>
<rscale>  4 0.26901550E+03</rscale>
<asrwt>0</asrwt>
<pdfrwt beam="1">  1       21 0.39157295E-01 0.26901550E+03</pdfrwt>
<pdfrwt beam="2">  1       21 0.40980187E-01 0.26901550E+03</pdfrwt>
<totfact> 0.34806872E+04</totfact>
</mgrwt>
</event>
<event>
 5    0  0.1781295E-001  0.2389210E+03  0.7546771E-02  0.1120514E+00
         21   -1    0    0  501  502  0.00000000000E+00  0.00000000000E+00  0.47579245609E+03  0.47579245609E+03  0.00000000000E+00 0. -1.
         21   -1    0    0  502  503 -0.00000000000E+00 -0.00000000000E+00 -0.19349977666E+03  0.19349977666E+03  0.00000000000E+00 0. -1.
         25    1    1    2    0    0 -0.18908465409E+03  0.75533096105E+02  0.36804025820E+03  0.43879025362E+03  0.12500000000E+03 0.  0.
          2    1    1    2  501    0  0.16616252133E+03 -0.39674185830E+02 -0.75218322416E+02  0.18665963822E+03  0.00000000000E+00 0. -1.
         -2    1    1    2    0  503  0.22922132762E+02 -0.35858910276E+02 -0.10529256358E+02  0.43842340904E+02  0.00000000000E+00 0.  1.
<mgrwt>
<rscale>  4 0.23892102E+03</rscale>
<asrwt>0</asrwt>
<pdfrwt beam="1">  1       21 0.73198839E-01 0.23892102E+03</pdfrwt>
<pdfrwt beam="2">  1       21 0.29769197E-01 0.23892102E+03</pdfrwt>
<totfact> 0.17677646E+04</totfact>
</mgrwt>
</event>
<event>
 5    0  0.1781295E-001  0.2062778E+03  0.7546771E-02  0.1144548E+00
         21   -1    0    0  501  502  0.00000000000E+00  0.00000000000E+00  0.13954670202E+04  0.13954670202E+04  0.00000000000E+00 0.  1.
         21   -1    0    0  502  503 -0.00000000000E+00 -0.00000000000E+00 -0.13331268208E+03  0.13331268208E+03  0.00000000000E+00 0. -1.
         25    1    1    2    0    0 -0.65821632688E+02  0.21731212326E+03  0.11172309088E+04  0.11469031998E+04  0.12500000000E+03 0.  0.
          2    1    1    2  501    0  0.11296233414E+03 -0.11595098703E+03 -0.39123407772E+02  0.16654056972E+03  0.00000000000E+00 0. -1.
         -2    1    1    2    0  503 -0.47140701450E+02 -0.10136113624E+03  0.18404683706E+03  0.21533593268E+03  0.00000000000E+00 0.  1.
<mgrwt>
<rscale>  4 0.20627776E+03</rscale>
<asrwt>0</asrwt>
<pdfrwt beam="1">  1       21 0.21468722E+00 0.20627776E+03</pdfrwt>
<pdfrwt beam="2">  1       21 0.20509644E-01 0.20627776E+03</pdfrwt>
<totfact> 0.23558376E+03</totfact>
</mgrwt>
</event>
<event>
 5    0  0.1781295E-001  0.3210056E+03  0.7546771E-02  0.1075187E+00
         21   -1    0    0  501  502  0.00000000000E+00  0.00000000000E+00  0.10269752060E+03  0.10269752060E+03  0.00000000000E+00 0. -1.
         21   -1    0    0  502  503 -0.00000000000E+00 -0.00000000000E+00 -0.96398022719E+03  0.96398022719E+03  0.00000000000E+00 0. -1.
         25    1    1    2    0    0 -0.13292822288E+03 -0.26410164302E+03 -0.36071198457E+03  0.48286408657E+03  0.12500000000E+03 0.  0.
          1    1    1    2  501    0  0.50609250129E+02  0.57795940736E+02 -0.15534954678E+03  0.17330651647E+03  0.00000000000E+00 0.  1.
         -1    1    1    2    0  503  0.82318972752E+02  0.20630570229E+03 -0.34522117523E+03  0.41050714476E+03  0.00000000000E+00 0. -1.
<mgrwt>
<rscale>  4 0.32100559E+03</rscale>
<asrwt>0</asrwt>
<pdfrwt beam="1">  1       21 0.15799618E-01 0.32100559E+03</pdfrwt>
<pdfrwt beam="2">  1       21 0.14830465E+00 0.32100559E+03</pdfrwt>
<totfact> 0.10186844E+04</totfact>
</mgrwt>
</event>
<event>
 5    0  0.1781295E-001  0.2391851E+03  0.7546771E-02  0.1120337E+00
         21   -1    0    0  501  502  0.00000000000E+00  0.00000000000E+00  0.66136632086E+02  0.66136632086E+02  0.00000000000E+00 0.  1.
         21   -1    0    0  502  503 -0.00000000000E+00 -0.00000000000E+00 -0.86300480304E+03  0.86300480304E+03  0.00000000000E+00 0.  1.
         25    1    1    2    0    0 -0.18265538238E+03  0.90672638764E+02 -0.26596800734E+03  0.35769889161E+03  0.12500000000E+03 0.  0.
          1    1    1    2  501    0  0.24234121671E+02 -0.32628906093E+02 -0.74679655988E+02  0.85023462553E+02  0.00000000000E+00 0. -1.
         -1    1    1    2    0  503  0.15842126071E+03 -0.58043732672E+02 -0.45622050762E+03  0.48641908096E+03  0.00000000000E+00 0.  1.
<mgrwt>
<rscale>  4 0.23918511E+03</rscale>
<asrwt>0</asrwt>
<pdfrwt beam="1">  1       21 0.10174867E-01 0.23918511E+03</pdfrwt>
<pdfrwt beam="2">  1       21 0.13276996E+00 0.23918511E+03</pdfrwt>
<totfact> 0.31423608E+04</totfact>
</mgrwt>
</event>
<event>
 5    0  0.1781295E-001  0.3232152E+03  0.7546771E-02  0.1074179E+00
         21   -1    0    0  501  502  0.00000000000E+00  0.00000000000E+00  0.10371090330E+04  0.10371090330E+04  0.00000000000E+00 0. -1.
         21   -1    0    0  502  503 -0.00000000000E+00 -0.00000000000E+00 -0.10437708025E+03  0.10437708025E+03  0.00000000000E+00 0. -1.
         25    1    1    2    0    0 -0.19894809250E+03  0.22195210815E+03  0.57652014491E+03  0.66094141897E+03  0.12500000000E+03 0.  0.
          2    1    1    2  501    0  0.83332998199E+02 -0.35832709269E+02  0.48692337436E+02  0.10295297649E+03  0.00000000000E+00 0.  1.
         -2    1    1    2    0  503  0.11561509430E+03 -0.18611939888E+03  0.30751947040E+03  0.37759171779E+03  0.00000000000E+00 0. -1.
<mgrwt>
<rscale>  4 0.32321523E+03</rscale>
<asrwt>0</asrwt>
<pdfrwt beam="1">  1       21 0.15955523E+00 0.32321523E+03</pdfrwt>
<pdfrwt beam="2">  1       21 0.16058013E-01 0.32321523E+03</pdfrwt>
<totfact> 0.81002074E+03</totfact>
</mgrwt>
</event>
<event>
 5    0  0.1781295E-001  0.2774218E+03  0.7546771E-02  0.1097105E+00
         21   -1    0    0  501  502  0.00000000000E+00  0.00000000000E+00  0.34350094422E+03  0.34350094422E+03  0.00000000000E+00 0. -1.
         21   -1    0    0  502  503 -0.00000000000E+00 -0.00000000000E+00 -0.39054496146E+03  0.39054496146E+03  0.00000000000E+00 0. -1.
         25    1    1    2    0    0 -0.22420613977E+03  0.10521154059E+03  0.21888853916E+03  0.35337664603E+03  0.12500000000E+03 0.  0.
          2    1    1    2  501    0  0.94684590096E+02  0.30620708136E+01 -0.14422120396E+03  0.17255232120E+03  0.00000000000E+00 0.  1.
         -2    1    1    2    0  503  0.12952154968E+03 -0.10827361141E+03 -0.12171135244E+03  0.20811693845E+03  0.00000000000E+00 0. -1.
<mgrwt>
<rscale>  4 0.27742181E+03</rscale>
<asrwt>0</asrwt>
<pdfrwt beam="1">  1       21 0.52846299E-01 0.27742181E+03</pdfrwt>
<pdfrwt beam="2">  1       21 0.60083840E-01 0.27742181E+03</pdfrwt>
<totfact> 0.83264510E+03</totfact>
</mgrwt>
</event>
<event>
 5    0  0.1781295E-001  0.2472307E+03  0.7546771E-02  0.1115068E+00
         21   -1    0    0  501  502  0.00000000000E+00  0.00000000000E+00  0.37502688410E+03  0.37502688410E+03  0.00000000000E+00 0.  1.
         21   -1    0    0  502  503 -0.00000000000E+00 -0.00000000000E+00 -0.48289794150E+03  0.48289794150E+03  0.00000000000E+00 0.  1.
         25    1    1    2    0    0 -0.20023472170E+02  0.21528343329E+03 -0.40665276406E+03  0.47722045912E+03  0.12500000000E+03 0.  0.
          2    1    1    2  501    0 -0.28753691944E+02 -0.27603169636E+02  0.72206874030E+02  0.82477526827E+02  0.00000000000E+00 0. -1.
         -2    1    1    2    0  503  0.48777164114E+02 -0.18768026366E+03  0.22657483264E+03  0.29822683965E+03  0.00000000000E+00 0.  1.
<mgrwt>
<rscale>  4 0.24723066E+03</rscale>
<asrwt>0</asrwt>
<pdfrwt beam="1">  1       21 0.57696444E-01 0.24723066E+03</pdfrwt>
<pdfrwt beam="2">  1       21 0.74291991E-01 0.24723066E+03</pdfrwt>
<totfact> 0.43988752E+03</totfact>
</mgrwt>
</event>
<event>
 5    0  0.1781295E-001  0.2797446E+03  0.7546771E-02  0.1095829E+00
         21   -1    0    0  501  502  0.00000000000E+00  0.00000000000E+00  0.39513211725E+02  0.39513211725E+02  0.00000000000E+00 0. -1.
         21   -1    0    0  502  503 -0.00000000000E+00 -0.00000000000E+00 -0.22241207713E+04  0.22241207713E+04  0.00000000000E+00 0.  1.
         25    1    1    2    0    0 -0.26542862887E+02  0.24885240652E+03 -0.64613904088E+03  0.70409708418E+03  0.12500000000E+03 0.  0.
          3    1    1    2  501    0  0.28226540845E+02 -0.17674901432E+03 -0.95508601285E+03  0.97171304592E+03  0.00000000000E+00 0.  1.
         -3    1    1    2    0  503 -0.16836779583E+01 -0.72103392208E+02 -0.58338250580E+03  0.58782385288E+03  0.00000000000E+00 0. -1.
<mgrwt>
<rscale>  4 0.27974460E+03</rscale>
<asrwt>0</asrwt>
<pdfrwt beam="1">  1       21 0.60789550E-02 0.27974460E+03</pdfrwt>
<pdfrwt beam="2">  1       21 0.34217247E+00 0.27974460E+03</pdfrwt>
<totfact> 0.34145363E+03</totfact>
</mgrwt>
</event>
<event>
 5    0  0.1781295E-001  0.1998030E+03  0.7546771E-02  0.1149905E+00
         21   -1    0    0  501  502  0.00000000000E+00  0.00000000000E+00  0.83894965923E+02  0.83894965923E+02  0.00000000000E+00 0.  1.
         21   -1    0    0  502  503 -0.00000000000E+00 -0.00000000000E+00 -0.10522857299E+04  0.10522857299E+04  0.00000000000E+00 0.  1.
         25    1    1    2    0    0  0.33645881399E+02  0.25469691791E+03 -0.35614052154E+03  0.45657818215E+03  0.12500000000E+03 0.  0.
          1    1    1    2  501    0 -0.56031294403E+02 -0.11952917345E+03 -0.16204012424E+03  0.20900653368E+03  0.00000000000E+00 0. -1.
         -1    1    1    2    0  503  0.22385413004E+02 -0.13516774447E+03 -0.45021011815E+03  0.47059597995E+03  0.00000000000E+00 0.  1.
<mgrwt>
<rscale>  4 0.19980304E+03</rscale>
<asrwt>0</asrwt>
<pdfrwt beam="1">  1       21 0.12906918E-01 0.19980304E+03</pdfrwt>
<pdfrwt beam="2">  1       21 0.16189010E+00 0.19980304E+03</pdfrwt>
<totfact> 0.12488565E+04</totfact>
</mgrwt>
</event>
<event>
 5    0  0.1781295E-001  0.3231012E+03  0.7546771E-02  0.1074231E+00
         21   -1    0    0  501  502  0.00000000000E+00  0.00000000000E+00  0.12484828074E+04  0.12484828074E+04  0.00000000000E+00 0.  1.
         21   -1    0    0  502  503 -0.00000000000E+00 -0.00000000000E+00 -0.14215235679E+03  0.14215235679E+03  0.00000000000E+00 0.  1.
         25    1    1    2    0    0 -0.29332255979E+03 -0.52261251139E+02  0.10117455559E+04  0.10620844752E+04  0.12500000000E+03 0.  0.
          1    1    1    2  501    0  0.22846577350E+03  0.76782400096E+02  0.50115335079E+02  0.24617817417E+03  0.00000000000E+00 0.  1.
         -1    1    1    2    0  503  0.64856786287E+02 -0.24521148957E+02  0.44469559619E+02  0.82372514873E+02  0.00000000000E+00 0. -1.
<mgrwt>
<rscale>  4 0.32310116E+03</rscale>
<asrwt>0</asrwt>
<pdfrwt beam="1">  1       21 0.19207427E+00 0.32310116E+03</pdfrwt>
<pdfrwt beam="2">  1       21 0.21869594E-01 0.32310116E+03</pdfrwt>
<totfact> 0.26718307E+03</totfact>
</mgrwt>
</event>
<event>
 5    0  0.1781295E-001  0.2347804E+03  0.7546771E-02  0.1123320E+00
         21   -1    0    0  501  502  0.00000000000E+00  0.00000000000E+00  0.15527973360E+04  0.15527973360E+04  0.00000000000E+00 0.  1.
         21   -1    0    0  502  503 -0.00000000000E+00 -0.00000000000E+00 -0.72182271461E+02  0.72182271461E+02  0.00000000000E+00 0.  1.
         25    1    1    2    0    0  0.19561589767E+03  0.58202519650E+02  0.12998518843E+04  0.13217008110E+04  0.12500000000E+03 0.  0.
          1    1    1    2  501    0 -0.17425257471E+03 -0.51470871012E+02  0.20250104580E+03  0.27206595507E+03  0.00000000000E+00 0. -1.
         -1    1    1    2    0  503 -0.21363322955E+02 -0.67316486377E+01 -0.21737865626E+02  0.31212841316E+02  0.00000000000E+00 0.  1.
<mgrwt>
<rscale>  4 0.23478038E+03</rscale>
<asrwt>0</asrwt>
<pdfrwt beam="1">  1       21 0.23889187E+00 0.23478038E+03</pdfrwt>
<pdfrwt beam="2">  1       21 0.11104966E-01 0.23478038E+03</pdfrwt>
<totfact> 0.50111131E+03</totfact>
</mgrwt>
</event>
<event>
 5    0  0.1781295E-001  0.2796629E+03  0.7546771E-02  0.1095873E+00
         21   -1    0    0  501  502  0.00000000000E+00  0.00000000000E+00  0.81924720520E+03  0.81924720520E+03  0.00000000000E+00 0.  1.
         21   -1    0    0  502  503 -0.00000000000E+00 -0.00000000000E+00 -0.19451679121E+03  0.19451679121E+03  0.00000000000E+00 0.  1.
         25    1    1    2    0    0  0.23087819575E+03 -0.20061616001E+03  0.42527911391E+03  0.53855260621E+03  0.12500000000E+03 0.  0.
          3    1    1    2  501    0 -0.14980584025E+03  0.18546860130E+03 -0.21489535618E+02  0.23937876260E+03  0.00000000000E+00 0.  1.
         -3    1    1    2    0  503 -0.81072355500E+02  0.15147558708E+02  0.22094083570E+03  0.23583262760E+03  0.00000000000E+00 0. -1.
<mgrwt>
<rscale>  4 0.27966294E+03</rscale>
<asrwt>0</asrwt>
<pdfrwt beam="1">  1       21 0.12603803E+00 0.27966294E+03</pdfrwt>
<pdfrwt beam="2">  1       21 0.29925661E-01 0.27966294E+03</pdfrwt>
<totfact> 0.47098011E+03</totfact>
</mgrwt>
</event>
<event>
 5    0  0.1781295E-001  0.2210897E+03  0.7546771E-02  0.1133073E+00
         21   -1    0    0  501  502  0.00000000000E+00  0.00000000000E+00  0.16505485942E+03  0.16505485942E+03  0.00000000000E+00 0. -1.
         21   -1    0    0  502  503 -0.00000000000E+00 -0.00000000000E+00 -0.49780339849E+03  0.49780339849E+03  0.00000000000E+00 0. -1.
         25    1    1    2    0    0  0.99069439995E+02 -0.17423348055E+03  0.18364584876E+02  0.23692681922E+03  0.12500000000E+03 0.  0.
          1    1    1    2  501    0 -0.76500271412E+02  0.16230817439E+03 -0.35715969562E+03  0.39969899071E+03  0.00000000000E+00 0. -1.
         -1    1    1    2    0  503 -0.22569168583E+02  0.11925306161E+02  0.60465716764E+01  0.26232447971E+02  0.00000000000E+00 0.  1.
<mgrwt>
<rscale>  4 0.22108969E+03</rscale>
<asrwt>0</asrwt>
<pdfrwt beam="1">  1       21 0.25393056E-01 0.22108969E+03</pdfrwt>
<pdfrwt beam="2">  1       21 0.76585137E-01 0.22108969E+03</pdfrwt>
<totfact> 0.21943537E+04</totfact>
</mgrwt>
</event>
<event>
 5    0  0.1781295E-001  0.2713430E+03  0.7546771E-02  0.1100513E+00
         21   -1    0    0  501  502  0.00000000000E+00  0.00000000000E+00  0.28361747311E+03  0.28361747311E+03  0.00000000000E+00 0. -1.
         21   -1    0    0  502  503 -0.00000000000E+00 -0.00000000000E+00 -0.29509915218E+03  0.29509915218E+03  0.00000000000E+00 0.  1.
         25    1    1    2    0    0 -0.17324918853E+01  0.24082988509E+03  0.11485926601E+03  0.29465180480E+03  0.12500000000E+03 0.  0.
          1    1    1    2  501    0 -0.25073477077E+02 -0.83281312732E+02 -0.78718354227E+02  0.11730744049E+03  0.00000000000E+00 0. -1.
         -1    1    1    2    0  503  0.26805968962E+02 -0.15754857236E+03 -0.47622590863E+02  0.16675738000E+03  0.00000000000E+00 0.  1.
<mgrwt>
<rscale>  4 0.27134302E+03</rscale>
<asrwt>0</asrwt>
<pdfrwt beam="1">  1       21 0.43633458E-01 0.27134302E+03</pdfrwt>
<pdfrwt beam="2">  1       21 0.45399869E-01 0.27134302E+03</pdfrwt>
<totfact> 0.22567777E+04</totfact>
</mgrwt>
</event>
<event>
 5    0  0.1781295E-001  0.2376228E+03  0.7546771E-02  0.1121387E+00
         21   -1    0    0  501  502  0.00000000000E+00  0.00000000000E+00  0.20651278184E+03  0.20651278184E+03  0.00000000000E+00 0. -1.
         21   -1    0    0  502  503 -0.00000000000E+00 -0.00000000000E+00 -0.45960729739E+03  0.45960729739E+03  0.00000000000E+00 0. -1.
         25    1    1    2    0    0  0.18107682088E+03 -0.15364528754E+03 -0.14648114351E+02  0.26876617476E+03  0.12500000000E+03 0.  0.
          4    1    1    2  501    0 -0.17796892208E+03  0.33605987909E+02 -0.78612913448E+02  0.19743933197E+03  0.00000000000E+00 0.  1.
         -4    1    1    2    0  503 -0.31078987978E+01  0.12003929963E+03 -0.15983348775E+03  0.19991457250E+03  0.00000000000E+00 0. -1.
<mgrwt>
<rscale>  4 0.23762284E+03</rscale>
<asrwt>0</asrwt>
<pdfrwt beam="1">  1       21 0.31771197E-01 0.23762284E+03</pdfrwt>
<pdfrwt beam="2">  1       21 0.70708814E-01 0.23762284E+03</pdfrwt>
<totfact> 0.16814227E+04</totfact>
</mgrwt>
</event>
<event>
 5    0  0.1781295E-001  0.2712350E+03  0.7546771E-02  0.1100575E+00
         21   -1    0    0  501  502  0.00000000000E+00  0.00000000000E+00  0.31531631604E+03  0.31531631604E+03  0.00000000000E+00 0.  1.
         21   -1    0    0  502  503 -0.00000000000E+00 -0.00000000000E+00 -0.42967027976E+03  0.42967027976E+03  0.00000000000E+00 0. -1.
         25    1    1    2    0    0  0.19437242137E+03  0.14199580506E+03  0.20126995464E+03  0.33775441001E+03  0.12500000000E+03 0.  0.
          2    1    1    2  501    0 -0.69789350001E+02 -0.24291248566E+01 -0.96346642684E+02  0.11899214082E+03  0.00000000000E+00 0.  1.
         -2    1    1    2    0  503 -0.12458307137E+03 -0.13956668021E+03 -0.21927727568E+03  0.28824004497E+03  0.00000000000E+00 0. -1.
<mgrwt>
<rscale>  4 0.27123504E+03</rscale>
<asrwt>0</asrwt>
<pdfrwt beam="1">  1       21 0.48510203E-01 0.27123504E+03</pdfrwt>
<pdfrwt beam="2">  1       21 0.66103120E-01 0.27123504E+03</pdfrwt>
<totfact> 0.81212307E+03</totfact>
</mgrwt>
</event>
