<event>
 5    0  0.3146798E+000  0.3007697E+03  0.7546771E-02  0.1084857E+00
         21   -1    0    0  502  501  0.00000000000E+00  0.00000000000E+00  0.11570976725E+03  0.11570976725E+03  0.00000000000E+00 0. -1.
         21   -1    0    0  503  502 -0.00000000000E+00 -0.00000000000E+00 -0.82299306508E+03  0.82299306508E+03  0.00000000000E+00 0. -1.
         25    1    1    2    0    0 -0.23250453893E+02 -0.27919683267E+03 -0.37059057536E+03  0.48109648671E+03  0.12500000000E+03 0.  0.
         21    1    1    2  503  504 -0.18673797772E+02  0.13363965353E+02 -0.88783591450E+02  0.91705138373E+02  0.00000000000E+00 0. -1.
         21    1    1    2  504  501  0.41924251665E+02  0.26583286732E+03 -0.24790913102E+03  0.36590120725E+03  0.00000000000E+00 0. -1.
<mgrwt>
<rscale>  4 0.30076965E+03</rscale>
<asrwt>0</asrwt>
<pdfrwt beam="1">  1       21 0.17801503E-01 0.30076965E+03</pdfrwt>
<pdfrwt beam="2">  1       21 0.12661431E+00 0.30076965E+03</pdfrwt>
<totfact> 0.12442217E+04</totfact>
</mgrwt>
</event>
<event>
 5    0  0.2384553E+000  0.2373617E+03  0.7546771E-02  0.1121563E+00
         21   -1    0    0  502  501  0.00000000000E+00  0.00000000000E+00  0.22379171455E+03  0.22379171455E+03  0.00000000000E+00 0.  1.
         21   -1    0    0  503  502 -0.00000000000E+00 -0.00000000000E+00 -0.25013922640E+03  0.25013922640E+03  0.00000000000E+00 0.  1.
         25    1    1    2    0    0 -0.78834005498E+02 -0.18574388808E+03  0.67744372619E+02  0.24683981122E+03  0.12500000000E+03 0.  0.
         21    1    1    2  503  504  0.58432366463E+01  0.41453910740E+02 -0.41749097223E+01  0.42071367952E+02  0.00000000000E+00 0.  1.
         21    1    1    2  504  501  0.72990768852E+02  0.14428997734E+03 -0.89916974752E+02  0.18501976178E+03  0.00000000000E+00 0.  1.
<mgrwt>
<rscale>  4 0.23736173E+03</rscale>
<asrwt>0</asrwt>
<pdfrwt beam="1">  1       21 0.34429495E-01 0.23736173E+03</pdfrwt>
<pdfrwt beam="2">  1       21 0.38482958E-01 0.23736173E+03</pdfrwt>
<totfact> 0.51880170E+04</totfact>
</mgrwt>
</event>
<event>
 5    0  0.1856407E+000  0.2745882E+03  0.7546771E-02  0.1098682E+00
         21   -1    0    0  502  501  0.00000000000E+00  0.00000000000E+00  0.40752704899E+03  0.40752704899E+03  0.00000000000E+00 0.  1.
         21   -1    0    0  503  502 -0.00000000000E+00 -0.00000000000E+00 -0.89448052683E+03  0.89448052683E+03  0.00000000000E+00 0.  1.
         25    1    1    2    0    0 -0.24337241013E+03 -0.23314366910E+02  0.34088145649E+03  0.43772006705E+03  0.12500000000E+03 0.  0.
         21    1    1    2  503  504  0.18673451004E+03  0.27500200794E+02 -0.68633587270E+03  0.71181666771E+03  0.00000000000E+00 0.  1.
         21    1    1    2  504  501  0.56637900085E+02 -0.41858338840E+01 -0.14149906163E+03  0.15247084106E+03  0.00000000000E+00 0.  1.
<mgrwt>
<rscale>  4 0.27458822E+03</rscale>
<asrwt>0</asrwt>
<pdfrwt beam="1">  1       21 0.62696469E-01 0.27458822E+03</pdfrwt>
<pdfrwt beam="2">  1       21 0.13761239E+00 0.27458822E+03</pdfrwt>
<totfact> 0.81931011E+02</totfact>
</mgrwt>
</event>
<event>
 5    0  0.1856407E+000  0.2012938E+03  0.7546771E-02  0.1148652E+00
         21   -1    0    0  502  501  0.00000000000E+00  0.00000000000E+00  0.17820819872E+04  0.17820819872E+04  0.00000000000E+00 0.  1.
         21   -1    0    0  503  502 -0.00000000000E+00 -0.00000000000E+00 -0.50025540058E+02  0.50025540058E+02  0.00000000000E+00 0.  1.
         25    1    1    2    0    0  0.12866270331E+03 -0.20579014456E+03  0.50620639430E+03  0.57512919284E+03  0.12500000000E+03 0.  0.
         21    1    1    2  503  504 -0.46163536136E+02  0.13752620679E+03  0.95109308539E+03  0.96209281605E+03  0.00000000000E+00 0.  1.
         21    1    1    2  504  501 -0.82499167171E+02  0.68263937770E+02  0.27475696749E+03  0.29488551841E+03  0.00000000000E+00 0.  1.
<mgrwt>
<rscale>  4 0.20129380E+03</rscale>
<asrwt>0</asrwt>
<pdfrwt beam="1">  1       21 0.27416641E+00 0.20129380E+03</pdfrwt>
<pdfrwt beam="2">  1       21 0.76962383E-02 0.20129380E+03</pdfrwt>
<totfact> 0.61165360E+03</totfact>
</mgrwt>
</event>
<event>
 5    0  0.2875004E+000  0.2747627E+03  0.7546771E-02  0.1098584E+00
         21   -1    0    0  502  501  0.00000000000E+00  0.00000000000E+00  0.73149780759E+03  0.73149780759E+03  0.00000000000E+00 0.  1.
         21   -1    0    0  503  502 -0.00000000000E+00 -0.00000000000E+00 -0.10531174035E+03  0.10531174035E+03  0.00000000000E+00 0.  1.
         25    1    1    2    0    0  0.17246977043E+03 -0.17356192804E+03  0.46623176635E+03  0.54117152968E+03  0.12500000000E+03 0.  0.
         21    1    1    2  503  504 -0.18718969808E+02  0.30601588549E+02  0.40442813431E+02  0.54059950153E+02  0.00000000000E+00 0.  1.
         21    1    1    2  504  501 -0.15375080062E+03  0.14296033949E+03  0.11951148746E+03  0.24157806811E+03  0.00000000000E+00 0.  1.
<mgrwt>
<rscale>  4 0.27476274E+03</rscale>
<asrwt>0</asrwt>
<pdfrwt beam="1">  1       21 0.11253812E+00 0.27476274E+03</pdfrwt>
<pdfrwt beam="2">  1       21 0.16201807E-01 0.27476274E+03</pdfrwt>
<totfact> 0.20138160E+04</totfact>
</mgrwt>
</event>
<event>
 5    0  0.1856407E+000  0.2786864E+03  0.7546771E-02  0.1096409E+00
         21   -1    0    0  502  501  0.00000000000E+00  0.00000000000E+00  0.70544582333E+03  0.70544582333E+03  0.00000000000E+00 0.  1.
         21   -1    0    0  503  502 -0.00000000000E+00 -0.00000000000E+00 -0.10187569842E+03  0.10187569842E+03  0.00000000000E+00 0.  1.
         25    1    1    2    0    0  0.28463258401E+02 -0.24744889746E+03  0.34513238178E+03  0.44360170749E+03  0.12500000000E+03 0.  0.
         21    1    1    2  503  504  0.43429995374E+01  0.13082940555E+03  0.10252103914E+03  0.16627013703E+03  0.00000000000E+00 0.  1.
         21    1    1    2  504  501 -0.32806257939E+02  0.11661949192E+03  0.15591670399E+03  0.19744967723E+03  0.00000000000E+00 0.  1.
<mgrwt>
<rscale>  4 0.27868641E+03</rscale>
<asrwt>0</asrwt>
<pdfrwt beam="1">  1       21 0.10853012E+00 0.27868641E+03</pdfrwt>
<pdfrwt beam="2">  1       21 0.15673185E-01 0.27868641E+03</pdfrwt>
<totfact> 0.23356295E+04</totfact>
</mgrwt>
</event>
<event>
 5    0  0.1856407E+000  0.3038366E+03  0.7546771E-02  0.1083338E+00
         21   -1    0    0  502  501  0.00000000000E+00  0.00000000000E+00  0.12754784471E+03  0.12754784471E+03  0.00000000000E+00 0. -1.
         21   -1    0    0  503  502 -0.00000000000E+00 -0.00000000000E+00 -0.13809096559E+04  0.13809096559E+04  0.00000000000E+00 0. -1.
         25    1    1    2    0    0 -0.32310365450E+02  0.27504127385E+03 -0.98339329574E+02  0.31935448295E+03  0.12500000000E+03 0.  0.
         21    1    1    2  503  504  0.30726301044E+02 -0.83752679413E+02 -0.30241029756E+03  0.31529447340E+03  0.00000000000E+00 0. -1.
         21    1    1    2  504  501  0.15840644060E+01 -0.19128859444E+03 -0.85261218405E+03  0.87380854426E+03  0.00000000000E+00 0. -1.
<mgrwt>
<rscale>  4 0.30383657E+03</rscale>
<asrwt>0</asrwt>
<pdfrwt beam="1">  1       21 0.19622746E-01 0.30383657E+03</pdfrwt>
<pdfrwt beam="2">  1       21 0.21244764E+00 0.30383657E+03</pdfrwt>
<totfact> 0.24440094E+03</totfact>
</mgrwt>
</event>
<event>
 5    0  0.1856407E+000  0.3086826E+03  0.7546771E-02  0.1080979E+00
         21   -1    0    0  502  501  0.00000000000E+00  0.00000000000E+00  0.22722915609E+03  0.22722915609E+03  0.00000000000E+00 0.  1.
         21   -1    0    0  503  502 -0.00000000000E+00 -0.00000000000E+00 -0.69648918067E+03  0.69648918067E+03  0.00000000000E+00 0.  1.
         25    1    1    2    0    0  0.23741743095E+03  0.16917364728E+03  0.46077112689E+02  0.32052279134E+03  0.12500000000E+03 0.  0.
         21    1    1    2  503  504 -0.21834893441E+03 -0.17608181663E+03 -0.51027825899E+03  0.58229285150E+03  0.00000000000E+00 0.  1.
         21    1    1    2  504  501 -0.19068496535E+02  0.69081693536E+01 -0.50588782816E+01  0.20902693926E+02  0.00000000000E+00 0.  1.
<mgrwt>
<rscale>  4 0.30868257E+03</rscale>
<asrwt>0</asrwt>
<pdfrwt beam="1">  1       21 0.34958332E-01 0.30868257E+03</pdfrwt>
<pdfrwt beam="2">  1       21 0.10715218E+00 0.30868257E+03</pdfrwt>
<totfact> 0.50988261E+03</totfact>
</mgrwt>
</event>
<event>
 5    0  0.1856407E+000  0.3138139E+03  0.7546771E-02  0.1078532E+00
         21   -1    0    0  502  501  0.00000000000E+00  0.00000000000E+00  0.50183215935E+03  0.50183215935E+03  0.00000000000E+00 0.  1.
         21   -1    0    0  503  502 -0.00000000000E+00 -0.00000000000E+00 -0.52031095634E+03  0.52031095634E+03  0.00000000000E+00 0.  1.
         25    1    1    2    0    0  0.27239137074E+03  0.93043461572E+02  0.39732029535E+03  0.50630283595E+03  0.12500000000E+03 0.  0.
         21    1    1    2  503  504 -0.62364522212E+02  0.20162122406E+02 -0.10896104444E+03  0.12715484268E+03  0.00000000000E+00 0.  1.
         21    1    1    2  504  501 -0.21002684853E+03 -0.11320558398E+03 -0.30683804789E+03  0.38868543706E+03  0.00000000000E+00 0.  1.
<mgrwt>
<rscale>  4 0.31381387E+03</rscale>
<asrwt>0</asrwt>
<pdfrwt beam="1">  1       21 0.77204948E-01 0.31381387E+03</pdfrwt>
<pdfrwt beam="2">  1       21 0.80047839E-01 0.31381387E+03</pdfrwt>
<totfact> 0.18762826E+03</totfact>
</mgrwt>
</event>
