<event>
 4    0  0.1003929E-001  0.2532967E+03  0.7546771E-02  0.1111239E+00
         21   -1    0    0  502  501  0.00000000000E+00  0.00000000000E+00  0.34941175466E+02  0.34941175466E+02  0.00000000000E+00 0.  1.
         21   -1    0    0  503  502 -0.00000000000E+00 -0.00000000000E+00 -0.18430821764E+04  0.18430821764E+04  0.00000000000E+00 0.  1.
         25    1    1    2    0    0 -0.52627812746E+02 -0.21392642246E+03 -0.12958069109E+04  0.13203313036E+04  0.12500000000E+03 0.  0.
         21    1    1    2  503  501  0.52627812746E+02  0.21392642246E+03 -0.51233409004E+03  0.55769204829E+03  0.00000000000E+00 0.  1.
<mgrwt>
<rscale>  3 0.25329667E+03</rscale>
<asrwt>0</asrwt>
<pdfrwt beam="1">  1       21 0.53755651E-02 0.25329667E+03</pdfrwt>
<pdfrwt beam="2">  1       21 0.28355112E+00 0.25329667E+03</pdfrwt>
<totfact> 0.95513826E+03</totfact>
</mgrwt>
</event>
<event>
 4    0  0.1288555E-001  0.2584120E+03  0.7546771E-02  0.1108101E+00
         21   -1    0    0  503  501  0.00000000000E+00  0.00000000000E+00  0.52563783872E+03  0.52563783872E+03  0.00000000000E+00 0.  1.
         21   -1    0    0  501  502 -0.00000000000E+00 -0.00000000000E+00 -0.11317082794E+03  0.11317082794E+03  0.00000000000E+00 0.  1.
         25    1    1    2    0    0 -0.11642638235E+03  0.19389862191E+03  0.25632926220E+03  0.36398003894E+03  0.12500000000E+03 0.  0.
         21    1    1    2  503  502  0.11642638235E+03 -0.19389862191E+03  0.15613774857E+03  0.27482862772E+03  0.00000000000E+00 0.  1.
<mgrwt>
<rscale>  3 0.25841203E+03</rscale>
<asrwt>0</asrwt>
<pdfrwt beam="1">  1       21 0.80867358E-01 0.25841203E+03</pdfrwt>
<pdfrwt beam="2">  1       21 0.17410897E-01 0.25841203E+03</pdfrwt>
<totfact> 0.38841514E+04</totfact>
</mgrwt>
</event>
<event>
 4    0  0.1421331E-001  0.2436153E+03  0.7546771E-02  0.1117408E+00
         21   -1    0    0  503  501  0.00000000000E+00  0.00000000000E+00  0.82538057667E+02  0.82538057667E+02  0.00000000000E+00 0.  1.
         21   -1    0    0  501  502 -0.00000000000E+00 -0.00000000000E+00 -0.80803785039E+03  0.80803785039E+03  0.00000000000E+00 0.  1.
         25    1    1    2    0    0 -0.19922070596E+03  0.63517775579E+02 -0.17011537993E+03  0.29713236106E+03  0.12500000000E+03 0.  0.
         21    1    1    2  503  502  0.19922070596E+03 -0.63517775579E+02 -0.55538441280E+03  0.59344354700E+03  0.00000000000E+00 0.  1.
<mgrwt>
<rscale>  3 0.24361527E+03</rscale>
<asrwt>0</asrwt>
<pdfrwt beam="1">  1       21 0.12698163E-01 0.24361527E+03</pdfrwt>
<pdfrwt beam="2">  1       21 0.12431351E+00 0.24361527E+03</pdfrwt>
<totfact> 0.24912855E+04</totfact>
</mgrwt>
</event>
<event>
 4    0  0.1649144E-001  0.3052793E+03  0.7546771E-02  0.1082631E+00
         21   -1    0    0  503  501  0.00000000000E+00  0.00000000000E+00  0.31875452965E+03  0.31875452965E+03  0.00000000000E+00 0.  1.
         21   -1    0    0  501  502 -0.00000000000E+00 -0.00000000000E+00 -0.27104247852E+03  0.27104247852E+03  0.00000000000E+00 0.  1.
         25    1    1    2    0    0 -0.94475411769E+02 -0.26200162483E+03  0.59539751790E+02  0.31103124745E+03  0.12500000000E+03 0.  0.
         21    1    1    2  503  502  0.94475411769E+02  0.26200162483E+03 -0.11827700660E+02  0.27876576072E+03  0.00000000000E+00 0.  1.
<mgrwt>
<rscale>  3 0.30527931E+03</rscale>
<asrwt>0</asrwt>
<pdfrwt beam="1">  1       21 0.49039158E-01 0.30527931E+03</pdfrwt>
<pdfrwt beam="2">  1       21 0.41698843E-01 0.30527931E+03</pdfrwt>
<totfact> 0.20801797E+04</totfact>
</mgrwt>
</event>
<event>
 4    0  0.1403284E-001  0.4421001E+03  0.7546771E-02  0.1030104E+00
         21   -1    0    0  503  501  0.00000000000E+00  0.00000000000E+00  0.17627997745E+03  0.17627997745E+03  0.00000000000E+00 0. -1.
         21   -1    0    0  501  502 -0.00000000000E+00 -0.00000000000E+00 -0.10716202825E+04  0.10716202825E+04  0.00000000000E+00 0. -1.
         25    1    1    2    0    0  0.42120603256E+03 -0.49122477290E+02 -0.40426008043E+03  0.59906489821E+03  0.12500000000E+03 0.  0.
         21    1    1    2  503  502 -0.42120603256E+03  0.49122477290E+02 -0.49108022462E+03  0.64883536174E+03  0.00000000000E+00 0. -1.
<mgrwt>
<rscale>  3 0.44210015E+03</rscale>
<asrwt>0</asrwt>
<pdfrwt beam="1">  1       21 0.27119997E-01 0.44210015E+03</pdfrwt>
<pdfrwt beam="2">  1       21 0.16486465E+00 0.44210015E+03</pdfrwt>
<totfact> 0.25867927E+03</totfact>
</mgrwt>
</event>
<event>
 4    0  0.1003929E-001  0.2370117E+03  0.7546771E-02  0.1121800E+00
         21   -1    0    0  502  501  0.00000000000E+00  0.00000000000E+00  0.73698666656E+03  0.73698666656E+03  0.00000000000E+00 0. -1.
         21   -1    0    0  503  502 -0.00000000000E+00 -0.00000000000E+00 -0.65869320282E+02  0.65869320282E+02  0.00000000000E+00 0. -1.
         25    1    1    2    0    0 -0.57501813720E+02 -0.19298464518E+03  0.40318185078E+03  0.46768593806E+03  0.12500000000E+03 0.  0.
         21    1    1    2  503  501  0.57501813720E+02  0.19298464518E+03  0.26793549549E+03  0.33517004878E+03  0.00000000000E+00 0. -1.
<mgrwt>
<rscale>  3 0.23701167E+03</rscale>
<asrwt>0</asrwt>
<pdfrwt beam="1">  1       21 0.11338256E+00 0.23701167E+03</pdfrwt>
<pdfrwt beam="2">  1       21 0.10133742E-01 0.23701167E+03</pdfrwt>
<totfact> 0.47046095E+04</totfact>
</mgrwt>
</event>
<event>
 4    0  0.1516450E-001  0.2747205E+03  0.7546771E-02  0.1098608E+00
         21   -1    0    0  503  501  0.00000000000E+00  0.00000000000E+00  0.40083937378E+03  0.40083937378E+03  0.00000000000E+00 0.  1.
         21   -1    0    0  501  502 -0.00000000000E+00 -0.00000000000E+00 -0.16931221192E+03  0.16931221192E+03  0.00000000000E+00 0.  1.
         25    1    1    2    0    0 -0.24433560828E+03  0.12102396247E+02  0.14519666168E+03  0.31073047490E+03  0.12500000000E+03 0.  0.
         21    1    1    2  503  502  0.24433560828E+03 -0.12102396247E+02  0.86330500180E+02  0.25942111081E+03  0.00000000000E+00 0.  1.
<mgrwt>
<rscale>  3 0.27472051E+03</rscale>
<asrwt>0</asrwt>
<pdfrwt beam="1">  1       21 0.61667596E-01 0.27472051E+03</pdfrwt>
<pdfrwt beam="2">  1       21 0.26048033E-01 0.27472051E+03</pdfrwt>
<totfact> 0.32913872E+04</totfact>
</mgrwt>
</event>
<event>
 4    0  0.1003929E-001  0.2452583E+03  0.7546771E-02  0.1116339E+00
         21   -1    0    0  502  501  0.00000000000E+00  0.00000000000E+00  0.18585814218E+03  0.18585814218E+03  0.00000000000E+00 0. -1.
         21   -1    0    0  503  502 -0.00000000000E+00 -0.00000000000E+00 -0.28340549239E+03  0.28340549239E+03  0.00000000000E+00 0.  1.
         25    1    1    2    0    0  0.19907120685E+03 -0.69980572059E+02 -0.77924083906E+02  0.25733983118E+03  0.12500000000E+03 0.  0.
         21    1    1    2  503  501 -0.19907120685E+03  0.69980572059E+02 -0.19623266301E+02  0.21192380339E+03  0.00000000000E+00 0.  1.
<mgrwt>
<rscale>  3 0.24525828E+03</rscale>
<asrwt>0</asrwt>
<pdfrwt beam="1">  1       21 0.28593560E-01 0.24525828E+03</pdfrwt>
<pdfrwt beam="2">  1       21 0.43600845E-01 0.24525828E+03</pdfrwt>
<totfact> 0.57811683E+04</totfact>
</mgrwt>
</event>
<event>
 4    0  0.1003929E-001  0.3689757E+03  0.7546771E-02  0.1055085E+00
         21   -1    0    0  503  501  0.00000000000E+00  0.00000000000E+00  0.23644026306E+04  0.23644026306E+04  0.00000000000E+00 0. -1.
         21   -1    0    0  501  502 -0.00000000000E+00 -0.00000000000E+00 -0.69980897222E+02  0.69980897222E+02  0.00000000000E+00 0.  1.
         25    1    1    2    0    0  0.25773316956E+03  0.23257621890E+03  0.17516238585E+04  0.17900640285E+04  0.12500000000E+03 0.  0.
         21    1    1    2  503  502 -0.25773316956E+03 -0.23257621890E+03  0.54279787484E+03  0.64431949933E+03  0.00000000000E+00 0.  1.
<mgrwt>
<rscale>  3 0.36897572E+03</rscale>
<asrwt>0</asrwt>
<pdfrwt beam="1">  1       21 0.36375419E+00 0.36897572E+03</pdfrwt>
<pdfrwt beam="2">  1       21 0.10766294E-01 0.36897572E+03</pdfrwt>
<totfact> 0.85875774E+02</totfact>
</mgrwt>
</event>
<event>
 4    0  0.1003929E-001  0.4105880E+03  0.7546771E-02  0.1040174E+00
         21   -1    0    0  502  501  0.00000000000E+00  0.00000000000E+00  0.23031703310E+03  0.23031703310E+03  0.00000000000E+00 0. -1.
         21   -1    0    0  503  502 -0.00000000000E+00 -0.00000000000E+00 -0.27240975152E+04  0.27240975152E+04  0.00000000000E+00 0.  1.
         25    1    1    2    0    0 -0.36150139086E+03  0.14924554049E+03  0.19341083865E+02  0.41104326351E+03  0.12500000000E+03 0.  0.
         21    1    1    2  503  501  0.36150139086E+03 -0.14924554049E+03 -0.25131215659E+04  0.25433712848E+04  0.00000000000E+00 0.  1.
<mgrwt>
<rscale>  3 0.41058798E+03</rscale>
<asrwt>0</asrwt>
<pdfrwt beam="1">  1       21 0.35433386E-01 0.41058798E+03</pdfrwt>
<pdfrwt beam="2">  1       21 0.41909196E+00 0.41058798E+03</pdfrwt>
<totfact> 0.38567976E+01</totfact>
</mgrwt>
</event>
<event>
 4    0  0.1419249E-001  0.2570163E+03  0.7546771E-02  0.1108949E+00
         21   -1    0    0  503  501  0.00000000000E+00  0.00000000000E+00  0.42722269601E+03  0.42722269601E+03  0.00000000000E+00 0. -1.
         21   -1    0    0  501  502 -0.00000000000E+00 -0.00000000000E+00 -0.13651291843E+03  0.13651291843E+03  0.00000000000E+00 0. -1.
         25    1    1    2    0    0  0.18492107930E+03  0.12742271943E+03  0.17655467199E+03  0.31181550186E+03  0.12500000000E+03 0.  0.
         21    1    1    2  503  502 -0.18492107930E+03 -0.12742271943E+03  0.11415510559E+03  0.25192011259E+03  0.00000000000E+00 0. -1.
<mgrwt>
<rscale>  3 0.25701625E+03</rscale>
<asrwt>0</asrwt>
<pdfrwt beam="1">  1       21 0.65726568E-01 0.25701625E+03</pdfrwt>
<pdfrwt beam="2">  1       21 0.21001988E-01 0.25701625E+03</pdfrwt>
<totfact> 0.43511272E+04</totfact>
</mgrwt>
</event>
<event>
 4    0  0.1640513E-001  0.4145724E+03  0.7546771E-02  0.1038847E+00
         21   -1    0    0  502  501  0.00000000000E+00  0.00000000000E+00  0.16573835401E+03  0.16573835401E+03  0.00000000000E+00 0.  1.
         21   -1    0    0  503  502 -0.00000000000E+00 -0.00000000000E+00 -0.10141823767E+04  0.10141823767E+04  0.00000000000E+00 0.  1.
         25    1    1    2    0    0  0.39493404743E+03  0.16503691114E+02 -0.34169521884E+03  0.53723914249E+03  0.12500000000E+03 0.  0.
         21    1    1    2  503  501 -0.39493404743E+03 -0.16503691114E+02 -0.50674880385E+03  0.64268158823E+03  0.00000000000E+00 0.  1.
<mgrwt>
<rscale>  3 0.41457240E+03</rscale>
<asrwt>0</asrwt>
<pdfrwt beam="1">  1       21 0.25498208E-01 0.41457240E+03</pdfrwt>
<pdfrwt beam="2">  1       21 0.15602806E+00 0.41457240E+03</pdfrwt>
<totfact> 0.34395576E+03</totfact>
</mgrwt>
</event>
<event>
 4    0  0.1059153E-001  0.3466629E+03  0.7546771E-02  0.1063993E+00
         21   -1    0    0  502  501  0.00000000000E+00  0.00000000000E+00  0.10097444365E+04  0.10097444365E+04  0.00000000000E+00 0.  1.
         21   -1    0    0  503  502 -0.00000000000E+00 -0.00000000000E+00 -0.16167584061E+03  0.16167584061E+03  0.00000000000E+00 0.  1.
         25    1    1    2    0    0 -0.22658974334E+02 -0.32254726629E+03  0.76149349590E+03  0.83668842015E+03  0.12500000000E+03 0.  0.
         21    1    1    2  503  501  0.22658974334E+02  0.32254726629E+03  0.86575099963E+02  0.33473185693E+03  0.00000000000E+00 0.  1.
<mgrwt>
<rscale>  3 0.34666290E+03</rscale>
<asrwt>0</asrwt>
<pdfrwt beam="1">  1       21 0.15534529E+00 0.34666290E+03</pdfrwt>
<pdfrwt beam="2">  1       21 0.24873207E-01 0.34666290E+03</pdfrwt>
<totfact> 0.37656526E+03</totfact>
</mgrwt>
</event>
<event>
 4    0  0.1516046E-001  0.2362091E+03  0.7546771E-02  0.1122344E+00
         21   -1    0    0  503  501  0.00000000000E+00  0.00000000000E+00  0.20637574253E+03  0.20637574253E+03  0.00000000000E+00 0.  1.
         21   -1    0    0  501  502 -0.00000000000E+00 -0.00000000000E+00 -0.27499651837E+03  0.27499651837E+03  0.00000000000E+00 0.  1.
         25    1    1    2    0    0 -0.17308392769E+03 -0.10105288658E+03  0.59383979717E+02  0.24355941566E+03  0.12500000000E+03 0.  0.
         21    1    1    2  503  502  0.17308392769E+03  0.10105288658E+03 -0.12800475556E+03  0.23781284523E+03  0.00000000000E+00 0.  1.
<mgrwt>
<rscale>  3 0.23620909E+03</rscale>
<asrwt>0</asrwt>
<pdfrwt beam="1">  1       21 0.31750114E-01 0.23620909E+03</pdfrwt>
<pdfrwt beam="2">  1       21 0.42307156E-01 0.23620909E+03</pdfrwt>
<totfact> 0.50265307E+04</totfact>
</mgrwt>
</event>
<event>
 4    0  0.1176445E-001  0.3066230E+03  0.7546771E-02  0.1081976E+00
         21   -1    0    0  502  501  0.00000000000E+00  0.00000000000E+00  0.94412053406E+03  0.94412053406E+03  0.00000000000E+00 0.  1.
         21   -1    0    0  503  502 -0.00000000000E+00 -0.00000000000E+00 -0.15369522210E+03  0.15369522210E+03  0.00000000000E+00 0.  1.
         25    1    1    2    0    0 -0.25023385120E+03  0.12560118647E+03  0.75588287321E+03  0.81570617035E+03  0.12500000000E+03 0.  0.
         21    1    1    2  503  501  0.25023385120E+03 -0.12560118647E+03  0.34542438746E+02  0.28210958580E+03  0.00000000000E+00 0.  1.
<mgrwt>
<rscale>  3 0.30662296E+03</rscale>
<asrwt>0</asrwt>
<pdfrwt beam="1">  1       21 0.14524931E+00 0.30662296E+03</pdfrwt>
<pdfrwt beam="2">  1       21 0.23645420E-01 0.30662296E+03</pdfrwt>
<totfact> 0.50755392E+03</totfact>
</mgrwt>
</event>
<event>
 4    0  0.1295334E-001  0.2522414E+03  0.7546771E-02  0.1111896E+00
         21   -1    0    0  502  501  0.00000000000E+00  0.00000000000E+00  0.83182264679E+03  0.83182264679E+03  0.00000000000E+00 0.  1.
         21   -1    0    0  503  502 -0.00000000000E+00 -0.00000000000E+00 -0.96006917494E+02  0.96006917494E+02  0.00000000000E+00 0.  1.
         25    1    1    2    0    0  0.20999838531E+03 -0.62461161603E+02  0.64148242834E+03  0.68929342403E+03  0.12500000000E+03 0.  0.
         21    1    1    2  503  501 -0.20999838531E+03  0.62461161603E+02  0.94333300959E+02  0.23853614026E+03  0.00000000000E+00 0.  1.
<mgrwt>
<rscale>  3 0.25224139E+03</rscale>
<asrwt>0</asrwt>
<pdfrwt beam="1">  1       21 0.12797271E+00 0.25224139E+03</pdfrwt>
<pdfrwt beam="2">  1       21 0.14770296E-01 0.25224139E+03</pdfrwt>
<totfact> 0.17509045E+04</totfact>
</mgrwt>
</event>
<event>
 4    0  0.1298492E-001  0.2984036E+03  0.7546771E-02  0.1086041E+00
         21   -1    0    0  503  501  0.00000000000E+00  0.00000000000E+00  0.14777901328E+03  0.14777901328E+03  0.00000000000E+00 0.  1.
         21   -1    0    0  501  502 -0.00000000000E+00 -0.00000000000E+00 -0.86014871986E+03  0.86014871986E+03  0.00000000000E+00 0. -1.
         25    1    1    2    0    0  0.51319510493E+02  0.26605638283E+03 -0.63962161793E+02  0.30518166581E+03  0.12500000000E+03 0.  0.
         21    1    1    2  503  502 -0.51319510493E+02 -0.26605638283E+03 -0.64840754479E+03  0.70274606732E+03  0.00000000000E+00 0. -1.
<mgrwt>
<rscale>  3 0.29840357E+03</rscale>
<asrwt>0</asrwt>
<pdfrwt beam="1">  1       21 0.22735233E-01 0.29840357E+03</pdfrwt>
<pdfrwt beam="2">  1       21 0.13233057E+00 0.29840357E+03</pdfrwt>
<totfact> 0.70101882E+03</totfact>
</mgrwt>
</event>
<event>
 4    0  0.1003929E-001  0.2432936E+03  0.7546771E-02  0.1117618E+00
         21   -1    0    0  503  501  0.00000000000E+00  0.00000000000E+00  0.49347134017E+02  0.49347134017E+02  0.00000000000E+00 0.  1.
         21   -1    0    0  501  502 -0.00000000000E+00 -0.00000000000E+00 -0.21771324253E+04  0.21771324253E+04  0.00000000000E+00 0. -1.
         25    1    1    2    0    0  0.16354194409E+03  0.12969504918E+03 -0.29742676562E+03  0.38425831698E+03  0.12500000000E+03 0.  0.
         21    1    1    2  503  502 -0.16354194409E+03 -0.12969504918E+03 -0.18303585257E+04  0.18422212423E+04  0.00000000000E+00 0. -1.
<mgrwt>
<rscale>  3 0.24329359E+03</rscale>
<asrwt>0</asrwt>
<pdfrwt beam="1">  1       21 0.75918685E-02 0.24329359E+03</pdfrwt>
<pdfrwt beam="2">  1       21 0.33494337E+00 0.24329359E+03</pdfrwt>
<totfact> 0.26543728E+03</totfact>
</mgrwt>
</event>
<event>
 4    0  0.1003929E-001  0.2863763E+03  0.7546771E-02  0.1092256E+00
         21   -1    0    0  502  501  0.00000000000E+00  0.00000000000E+00  0.52348168226E+03  0.52348168226E+03  0.00000000000E+00 0. -1.
         21   -1    0    0  503  502 -0.00000000000E+00 -0.00000000000E+00 -0.14156594342E+03  0.14156594342E+03  0.00000000000E+00 0.  1.
         25    1    1    2    0    0  0.25418916293E+03 -0.42121986522E+02  0.21407616389E+03  0.35754719443E+03  0.12500000000E+03 0.  0.
         21    1    1    2  503  501 -0.25418916293E+03  0.42121986522E+02  0.16783957495E+03  0.30750043125E+03  0.00000000000E+00 0.  1.
<mgrwt>
<rscale>  3 0.28637631E+03</rscale>
<asrwt>0</asrwt>
<pdfrwt beam="1">  1       21 0.80535643E-01 0.28637631E+03</pdfrwt>
<pdfrwt beam="2">  1       21 0.21779376E-01 0.28637631E+03</pdfrwt>
<totfact> 0.25456723E+04</totfact>
</mgrwt>
</event>
<event>
 4    0  0.1099330E-001  0.4927878E+03  0.7546771E-02  0.1015679E+00
         21   -1    0    0  503  501  0.00000000000E+00  0.00000000000E+00  0.38516540490E+03  0.38516540490E+03  0.00000000000E+00 0. -1.
         21   -1    0    0  501  502 -0.00000000000E+00 -0.00000000000E+00 -0.95021282063E+03  0.95021282063E+03  0.00000000000E+00 0. -1.
         25    1    1    2    0    0 -0.47065705525E+03 -0.75477055183E+02  0.11392849669E+03  0.50578607323E+03  0.12500000000E+03 0.  0.
         21    1    1    2  503  502  0.47065705525E+03  0.75477055183E+02 -0.67897591242E+03  0.82959215230E+03  0.00000000000E+00 0. -1.
<mgrwt>
<rscale>  3 0.49278783E+03</rscale>
<asrwt>0</asrwt>
<pdfrwt beam="1">  1       21 0.59256217E-01 0.49278783E+03</pdfrwt>
<pdfrwt beam="2">  1       21 0.14618659E+00 0.49278783E+03</pdfrwt>
<totfact> 0.70167645E+02</totfact>
</mgrwt>
</event>
<event>
 4    0  0.1408637E-001  0.2470795E+03  0.7546771E-02  0.1115165E+00
         21   -1    0    0  502  501  0.00000000000E+00  0.00000000000E+00  0.26435992917E+03  0.26435992917E+03  0.00000000000E+00 0.  1.
         21   -1    0    0  503  502 -0.00000000000E+00 -0.00000000000E+00 -0.28752033449E+03  0.28752033449E+03  0.00000000000E+00 0.  1.
         25    1    1    2    0    0  0.41017317714E+02 -0.20914319616E+03  0.13952944900E+03  0.28375476030E+03  0.12500000000E+03 0.  0.
         21    1    1    2  503  501 -0.41017317714E+02  0.20914319616E+03 -0.16268985432E+03  0.26812550336E+03  0.00000000000E+00 0.  1.
<mgrwt>
<rscale>  3 0.24707954E+03</rscale>
<asrwt>0</asrwt>
<pdfrwt beam="1">  1       21 0.40670758E-01 0.24707954E+03</pdfrwt>
<pdfrwt beam="2">  1       21 0.44233898E-01 0.24707954E+03</pdfrwt>
<totfact> 0.27803803E+04</totfact>
</mgrwt>
</event>
<event>
 4    0  0.1326421E-001  0.2360346E+03  0.7546771E-02  0.1122463E+00
         21   -1    0    0  502  501  0.00000000000E+00  0.00000000000E+00  0.35030508267E+03  0.35030508267E+03  0.00000000000E+00 0. -1.
         21   -1    0    0  503  502 -0.00000000000E+00 -0.00000000000E+00 -0.86515839307E+03  0.86515839307E+03  0.00000000000E+00 0.  1.
         25    1    1    2    0    0  0.25050089240E+02  0.19864501702E+03  0.29695216033E+03  0.37933222284E+03  0.12500000000E+03 0.  0.
         21    1    1    2  503  501 -0.25050089240E+02 -0.19864501702E+03 -0.81180547073E+03  0.83613125290E+03  0.00000000000E+00 0.  1.
<mgrwt>
<rscale>  3 0.23603464E+03</rscale>
<asrwt>0</asrwt>
<pdfrwt beam="1">  1       21 0.53893091E-01 0.23603464E+03</pdfrwt>
<pdfrwt beam="2">  1       21 0.13310129E+00 0.23603464E+03</pdfrwt>
<totfact> 0.12740525E+03</totfact>
</mgrwt>
</event>
<event>
 4    0  0.1419328E-001  0.3787209E+03  0.7546771E-02  0.1051408E+00
         21   -1    0    0  503  501  0.00000000000E+00  0.00000000000E+00  0.33252583285E+03  0.33252583285E+03  0.00000000000E+00 0. -1.
         21   -1    0    0  501  502 -0.00000000000E+00 -0.00000000000E+00 -0.44312273637E+03  0.44312273637E+03  0.00000000000E+00 0. -1.
         25    1    1    2    0    0  0.34528411309E+03  0.92646842970E+02 -0.16668207196E+03  0.41377828529E+03  0.12500000000E+03 0.  0.
         21    1    1    2  503  502 -0.34528411309E+03 -0.92646842970E+02  0.56085168442E+02  0.36187028392E+03  0.00000000000E+00 0. -1.
<mgrwt>
<rscale>  3 0.37872095E+03</rscale>
<asrwt>0</asrwt>
<pdfrwt beam="1">  1       21 0.51157821E-01 0.37872095E+03</pdfrwt>
<pdfrwt beam="2">  1       21 0.68172728E-01 0.37872095E+03</pdfrwt>
<totfact> 0.64652080E+03</totfact>
</mgrwt>
</event>
<event>
 4    0  0.1362678E-001  0.2581753E+03  0.7546771E-02  0.1108245E+00
         21   -1    0    0  503  501  0.00000000000E+00  0.00000000000E+00  0.13911403258E+03  0.13911403258E+03  0.00000000000E+00 0. -1.
         21   -1    0    0  501  502 -0.00000000000E+00 -0.00000000000E+00 -0.74266236059E+03  0.74266236059E+03  0.00000000000E+00 0. -1.
         25    1    1    2    0    0 -0.17478745626E+03 -0.14310430530E+03 -0.23440127680E+02  0.25923722080E+03  0.12500000000E+03 0.  0.
         21    1    1    2  503  502  0.17478745626E+03  0.14310430530E+03 -0.58010820033E+03  0.62253917238E+03  0.00000000000E+00 0. -1.
<mgrwt>
<rscale>  3 0.25817532E+03</rscale>
<asrwt>0</asrwt>
<pdfrwt beam="1">  1       21 0.21402158E-01 0.25817532E+03</pdfrwt>
<pdfrwt beam="2">  1       21 0.11425575E+00 0.25817532E+03</pdfrwt>
<totfact> 0.11626473E+04</totfact>
</mgrwt>
</event>
<event>
 4    0  0.1068781E-001  0.2445720E+03  0.7546771E-02  0.1116784E+00
         21   -1    0    0  503  501  0.00000000000E+00  0.00000000000E+00  0.14403851965E+03  0.14403851965E+03  0.00000000000E+00 0.  1.
         21   -1    0    0  501  502 -0.00000000000E+00 -0.00000000000E+00 -0.11769192232E+04  0.11769192232E+04  0.00000000000E+00 0.  1.
         25    1    1    2    0    0  0.21004376730E+03 -0.84903366712E+01  0.21790384066E+02  0.24554081297E+03  0.12500000000E+03 0.  0.
         21    1    1    2  503  502 -0.21004376730E+03  0.84903366712E+01 -0.10546710877E+04  0.10754169299E+04  0.00000000000E+00 0.  1.
<mgrwt>
<rscale>  3 0.24457201E+03</rscale>
<asrwt>0</asrwt>
<pdfrwt beam="1">  1       21 0.22159772E-01 0.24457201E+03</pdfrwt>
<pdfrwt beam="2">  1       21 0.18106450E+00 0.24457201E+03</pdfrwt>
<totfact> 0.32596430E+03</totfact>
</mgrwt>
</event>
<event>
 4    0  0.1698781E-001  0.2606916E+03  0.7546771E-02  0.1106728E+00
         21   -1    0    0  502  501  0.00000000000E+00  0.00000000000E+00  0.18524279478E+03  0.18524279478E+03  0.00000000000E+00 0. -1.
         21   -1    0    0  503  502 -0.00000000000E+00 -0.00000000000E+00 -0.33507356964E+03  0.33507356964E+03  0.00000000000E+00 0. -1.
         25    1    1    2    0    0 -0.22571180669E+02 -0.22765247274E+03 -0.31006628543E+02  0.26252907945E+03  0.12500000000E+03 0.  0.
         21    1    1    2  503  501  0.22571180669E+02  0.22765247274E+03 -0.11882414632E+03  0.25778728497E+03  0.00000000000E+00 0. -1.
<mgrwt>
<rscale>  3 0.26069159E+03</rscale>
<asrwt>0</asrwt>
<pdfrwt beam="1">  1       21 0.28498892E-01 0.26069159E+03</pdfrwt>
<pdfrwt beam="2">  1       21 0.51549779E-01 0.26069159E+03</pdfrwt>
<totfact> 0.40802967E+04</totfact>
</mgrwt>
</event>
<event>
 4    0  0.1365433E-001  0.2780613E+03  0.7546771E-02  0.1096753E+00
         21   -1    0    0  503  501  0.00000000000E+00  0.00000000000E+00  0.14125137750E+03  0.14125137750E+03  0.00000000000E+00 0.  1.
         21   -1    0    0  501  502 -0.00000000000E+00 -0.00000000000E+00 -0.68952284177E+03  0.68952284177E+03  0.00000000000E+00 0.  1.
         25    1    1    2    0    0  0.13569963709E+03  0.20803529798E+03 -0.62221947258E+02  0.28493797120E+03  0.12500000000E+03 0.  0.
         21    1    1    2  503  502 -0.13569963709E+03 -0.20803529798E+03 -0.48604951702E+03  0.54583624807E+03  0.00000000000E+00 0.  1.
<mgrwt>
<rscale>  3 0.27806128E+03</rscale>
<asrwt>0</asrwt>
<pdfrwt beam="1">  1       21 0.21730981E-01 0.27806128E+03</pdfrwt>
<pdfrwt beam="2">  1       21 0.10608044E+00 0.27806128E+03</pdfrwt>
<totfact> 0.13406388E+04</totfact>
</mgrwt>
</event>
<event>
 4    0  0.1319816E-001  0.3655516E+03  0.7546771E-02  0.1056407E+00
         21   -1    0    0  502  501  0.00000000000E+00  0.00000000000E+00  0.63789897786E+03  0.63789897786E+03  0.00000000000E+00 0. -1.
         21   -1    0    0  503  502 -0.00000000000E+00 -0.00000000000E+00 -0.21322499243E+03  0.21322499243E+03  0.00000000000E+00 0. -1.
         25    1    1    2    0    0 -0.32321165481E+03 -0.11634939975E+03  0.10125478801E+03  0.37931581660E+03  0.12500000000E+03 0.  0.
         21    1    1    2  503  501  0.32321165481E+03  0.11634939975E+03  0.32341919742E+03  0.47180815369E+03  0.00000000000E+00 0. -1.
<mgrwt>
<rscale>  3 0.36555158E+03</rscale>
<asrwt>0</asrwt>
<pdfrwt beam="1">  1       21 0.98138304E-01 0.36555158E+03</pdfrwt>
<pdfrwt beam="2">  1       21 0.32803845E-01 0.36555158E+03</pdfrwt>
<totfact> 0.69891111E+03</totfact>
</mgrwt>
</event>
<event>
 4    0  0.1298848E-001  0.2813306E+03  0.7546771E-02  0.1094964E+00
         21   -1    0    0  503  501  0.00000000000E+00  0.00000000000E+00  0.28686741596E+03  0.28686741596E+03  0.00000000000E+00 0. -1.
         21   -1    0    0  501  502 -0.00000000000E+00 -0.00000000000E+00 -0.27419893739E+03  0.27419893739E+03  0.00000000000E+00 0. -1.
         25    1    1    2    0    0 -0.14534573788E+03  0.20590420818E+03 -0.80081448190E+02  0.29250635003E+03  0.12500000000E+03 0.  0.
         21    1    1    2  503  502  0.14534573788E+03 -0.20590420818E+03  0.92749926767E+02  0.26856000331E+03  0.00000000000E+00 0. -1.
<mgrwt>
<rscale>  3 0.28133064E+03</rscale>
<asrwt>0</asrwt>
<pdfrwt beam="1">  1       21 0.44133449E-01 0.28133064E+03</pdfrwt>
<pdfrwt beam="2">  1       21 0.42184452E-01 0.28133064E+03</pdfrwt>
<totfact> 0.25544161E+04</totfact>
</mgrwt>
</event>
<event>
 4    0  0.1063990E-001  0.2613078E+03  0.7546771E-02  0.1106360E+00
         21   -1    0    0  502  501  0.00000000000E+00  0.00000000000E+00  0.20610128094E+03  0.20610128094E+03  0.00000000000E+00 0.  1.
         21   -1    0    0  503  502 -0.00000000000E+00 -0.00000000000E+00 -0.92493223055E+03  0.92493223055E+03  0.00000000000E+00 0.  1.
         25    1    1    2    0    0  0.11226605219E+03 -0.20013274622E+03  0.10065672399E+03  0.28002421086E+03  0.12500000000E+03 0.  0.
         21    1    1    2  503  501 -0.11226605219E+03  0.20013274622E+03 -0.81948767359E+03  0.85100930063E+03  0.00000000000E+00 0.  1.
<mgrwt>
<rscale>  3 0.26130783E+03</rscale>
<asrwt>0</asrwt>
<pdfrwt beam="1">  1       21 0.31707888E-01 0.26130783E+03</pdfrwt>
<pdfrwt beam="2">  1       21 0.14229727E+00 0.26130783E+03</pdfrwt>
<totfact> 0.31095846E+03</totfact>
</mgrwt>
</event>
<event>
 4    0  0.1495907E-001  0.3611353E+03  0.7546771E-02  0.1058135E+00
         21   -1    0    0  503  501  0.00000000000E+00  0.00000000000E+00  0.33445585612E+03  0.33445585612E+03  0.00000000000E+00 0. -1.
         21   -1    0    0  501  502 -0.00000000000E+00 -0.00000000000E+00 -0.38318379240E+03  0.38318379240E+03  0.00000000000E+00 0. -1.
         25    1    1    2    0    0  0.31258473962E+03  0.13070755378E+03  0.50373272731E+02  0.36463152725E+03  0.12500000000E+03 0.  0.
         21    1    1    2  503  502 -0.31258473962E+03 -0.13070755378E+03 -0.99101209015E+02  0.35300812127E+03  0.00000000000E+00 0. -1.
<mgrwt>
<rscale>  3 0.36113527E+03</rscale>
<asrwt>0</asrwt>
<pdfrwt beam="1">  1       21 0.51454747E-01 0.36113527E+03</pdfrwt>
<pdfrwt beam="2">  1       21 0.58951353E-01 0.36113527E+03</pdfrwt>
<totfact> 0.88544540E+03</totfact>
</mgrwt>
</event>
<event>
 4    0  0.1553252E-001  0.2562732E+03  0.7546771E-02  0.1109403E+00
         21   -1    0    0  502  501  0.00000000000E+00  0.00000000000E+00  0.22620754306E+03  0.22620754306E+03  0.00000000000E+00 0. -1.
         21   -1    0    0  503  502 -0.00000000000E+00 -0.00000000000E+00 -0.57952266213E+03  0.57952266213E+03  0.00000000000E+00 0.  1.
         25    1    1    2    0    0  0.19859960174E+03  0.10300073803E+03  0.11941871622E+03  0.28273093858E+03  0.12500000000E+03 0.  0.
         21    1    1    2  503  501 -0.19859960174E+03 -0.10300073803E+03 -0.47273383529E+03  0.52299926661E+03  0.00000000000E+00 0.  1.
<mgrwt>
<rscale>  3 0.25627320E+03</rscale>
<asrwt>0</asrwt>
<pdfrwt beam="1">  1       21 0.34801160E-01 0.25627320E+03</pdfrwt>
<pdfrwt beam="2">  1       21 0.89157333E-01 0.25627320E+03</pdfrwt>
<totfact> 0.82020580E+03</totfact>
</mgrwt>
</event>
<event>
 4    0  0.1003929E-001  0.2949607E+03  0.7546771E-02  0.1087787E+00
         21   -1    0    0  503  501  0.00000000000E+00  0.00000000000E+00  0.11884094436E+03  0.11884094436E+03  0.00000000000E+00 0. -1.
         21   -1    0    0  501  502 -0.00000000000E+00 -0.00000000000E+00 -0.84213260663E+03  0.84213260663E+03  0.00000000000E+00 0.  1.
         25    1    1    2    0    0  0.20915594995E+03 -0.16622458683E+03 -0.15543739294E+03  0.33341056941E+03  0.12500000000E+03 0.  0.
         21    1    1    2  503  502 -0.20915594995E+03  0.16622458683E+03 -0.56785426932E+03  0.62756298159E+03  0.00000000000E+00 0.  1.
<mgrwt>
<rscale>  3 0.29496072E+03</rscale>
<asrwt>0</asrwt>
<pdfrwt beam="1">  1       21 0.18283222E-01 0.29496072E+03</pdfrwt>
<pdfrwt beam="2">  1       21 0.12955887E+00 0.29496072E+03</pdfrwt>
<totfact> 0.11192672E+04</totfact>
</mgrwt>
</event>
<event>
 4    0  0.1303047E-001  0.2405241E+03  0.7546771E-02  0.1119444E+00
         21   -1    0    0  503  501  0.00000000000E+00  0.00000000000E+00  0.81439682652E+02  0.81439682652E+02  0.00000000000E+00 0.  1.
         21   -1    0    0  501  502 -0.00000000000E+00 -0.00000000000E+00 -0.61416562493E+03  0.61416562493E+03  0.00000000000E+00 0.  1.
         25    1    1    2    0    0  0.10106598865E+03 -0.17892035352E+03 -0.26099460127E+03  0.35492253924E+03  0.12500000000E+03 0.  0.
         21    1    1    2  503  502 -0.10106598865E+03  0.17892035352E+03 -0.27173134100E+03  0.34068276834E+03  0.00000000000E+00 0.  1.
<mgrwt>
<rscale>  3 0.24052407E+03</rscale>
<asrwt>0</asrwt>
<pdfrwt beam="1">  1       21 0.12529182E-01 0.24052407E+03</pdfrwt>
<pdfrwt beam="2">  1       21 0.94487016E-01 0.24052407E+03</pdfrwt>
<totfact> 0.49813407E+04</totfact>
</mgrwt>
</event>
<event>
 4    0  0.1228545E-001  0.2590289E+03  0.7546771E-02  0.1107728E+00
         21   -1    0    0  503  501  0.00000000000E+00  0.00000000000E+00  0.48797197409E+03  0.48797197409E+03  0.00000000000E+00 0. -1.
         21   -1    0    0  501  502 -0.00000000000E+00 -0.00000000000E+00 -0.17390021126E+03  0.17390021126E+03  0.00000000000E+00 0.  1.
         25    1    1    2    0    0 -0.22102295664E+03 -0.51184416427E+02  0.34658087210E+03  0.43268266981E+03  0.12500000000E+03 0.  0.
         21    1    1    2  503  502  0.22102295664E+03  0.51184416427E+02 -0.32509109273E+02  0.22918951554E+03  0.00000000000E+00 0.  1.
<mgrwt>
<rscale>  3 0.25902894E+03</rscale>
<asrwt>0</asrwt>
<pdfrwt beam="1">  1       21 0.75072611E-01 0.25902894E+03</pdfrwt>
<pdfrwt beam="2">  1       21 0.26753879E-01 0.25902894E+03</pdfrwt>
<totfact> 0.20362248E+04</totfact>
</mgrwt>
</event>
<event>
 4    0  0.1003929E-001  0.2366806E+03  0.7546771E-02  0.1122024E+00
         21   -1    0    0  502  501  0.00000000000E+00  0.00000000000E+00  0.20312001773E+04  0.20312001773E+04  0.00000000000E+00 0. -1.
         21   -1    0    0  503  502 -0.00000000000E+00 -0.00000000000E+00 -0.33703021897E+02  0.33703021897E+02  0.00000000000E+00 0. -1.
         25    1    1    2    0    0  0.79100966013E+02  0.18475854684E+03  0.16203811143E+04  0.16375752316E+04  0.12500000000E+03 0.  0.
         21    1    1    2  503  501 -0.79100966013E+02 -0.18475854684E+03  0.37711604104E+03  0.42732796756E+03  0.00000000000E+00 0. -1.
<mgrwt>
<rscale>  3 0.23668055E+03</rscale>
<asrwt>0</asrwt>
<pdfrwt beam="1">  1       21 0.31249224E+00 0.23668055E+03</pdfrwt>
<pdfrwt beam="2">  1       21 0.51850819E-02 0.23668055E+03</pdfrwt>
<totfact> 0.69837678E+03</totfact>
</mgrwt>
</event>
<event>
 4    0  0.1921989E-001  0.2470138E+03  0.7546771E-02  0.1115207E+00
         21   -1    0    0  503  501  0.00000000000E+00  0.00000000000E+00  0.67826576565E+03  0.67826576565E+03  0.00000000000E+00 0. -1.
         21   -1    0    0  501  502 -0.00000000000E+00 -0.00000000000E+00 -0.31701234484E+03  0.31701234484E+03  0.00000000000E+00 0.  1.
         25    1    1    2    0    0  0.17328864144E+03  0.12394306377E+03  0.61570693237E+03  0.66340851885E+03  0.12500000000E+03 0.  0.
         21    1    1    2  503  502 -0.17328864144E+03 -0.12394306377E+03 -0.25445351156E+03  0.33186959164E+03  0.00000000000E+00 0.  1.
<mgrwt>
<rscale>  3 0.24701384E+03</rscale>
<asrwt>0</asrwt>
<pdfrwt beam="1">  1       21 0.10434858E+00 0.24701384E+03</pdfrwt>
<pdfrwt beam="2">  1       21 0.48771130E-01 0.24701384E+03</pdfrwt>
<totfact> 0.28519265E+03</totfact>
</mgrwt>
</event>
<event>
 4    0  0.1139434E-001  0.2966574E+03  0.7546771E-02  0.1086924E+00
         21   -1    0    0  502  501  0.00000000000E+00  0.00000000000E+00  0.26717112840E+03  0.26717112840E+03  0.00000000000E+00 0. -1.
         21   -1    0    0  503  502 -0.00000000000E+00 -0.00000000000E+00 -0.37679106131E+03  0.37679106131E+03  0.00000000000E+00 0. -1.
         25    1    1    2    0    0  0.25235259741E+03 -0.93267177991E+02 -0.20268209413E+03  0.35928488862E+03  0.12500000000E+03 0.  0.
         21    1    1    2  503  501 -0.25235259741E+03  0.93267177991E+02  0.93062161225E+02  0.28467730110E+03  0.00000000000E+00 0. -1.
<mgrwt>
<rscale>  3 0.29665738E+03</rscale>
<asrwt>0</asrwt>
<pdfrwt beam="1">  1       21 0.41103251E-01 0.29665738E+03</pdfrwt>
<pdfrwt beam="2">  1       21 0.57967855E-01 0.29665738E+03</pdfrwt>
<totfact> 0.15058279E+04</totfact>
</mgrwt>
</event>
<event>
 4    0  0.1003929E-001  0.2469745E+03  0.7546771E-02  0.1115232E+00
         21   -1    0    0  502  501  0.00000000000E+00  0.00000000000E+00  0.23034596395E+03  0.23034596395E+03  0.00000000000E+00 0.  1.
         21   -1    0    0  503  502 -0.00000000000E+00 -0.00000000000E+00 -0.22963467956E+03  0.22963467956E+03  0.00000000000E+00 0. -1.
         25    1    1    2    0    0 -0.14431990990E+03  0.15666255213E+03  0.41143341511E+00  0.24697481837E+03  0.12500000000E+03 0.  0.
         21    1    1    2  503  501  0.14431990990E+03 -0.15666255213E+03  0.29985097372E+00  0.21300582514E+03  0.00000000000E+00 0. -1.
<mgrwt>
<rscale>  3 0.24697448E+03</rscale>
<asrwt>0</asrwt>
<pdfrwt beam="1">  1       21 0.35437841E-01 0.24697448E+03</pdfrwt>
<pdfrwt beam="2">  1       21 0.35328412E-01 0.24697448E+03</pdfrwt>
<totfact> 0.57936619E+04</totfact>
</mgrwt>
</event>
<event>
 4    0  0.1003929E-001  0.2794886E+03  0.7546771E-02  0.1095969E+00
         21   -1    0    0  503  501  0.00000000000E+00  0.00000000000E+00  0.13527286375E+03  0.13527286375E+03  0.00000000000E+00 0. -1.
         21   -1    0    0  501  502 -0.00000000000E+00 -0.00000000000E+00 -0.15227017209E+04  0.15227017209E+04  0.00000000000E+00 0. -1.
         25    1    1    2    0    0 -0.19063901456E+03  0.16169619980E+03 -0.33878510709E+02  0.28153445329E+03  0.12500000000E+03 0.  0.
         21    1    1    2  503  502  0.19063901456E+03 -0.16169619980E+03 -0.13535503465E+04  0.13764401314E+04  0.00000000000E+00 0. -1.
<mgrwt>
<rscale>  3 0.27948863E+03</rscale>
<asrwt>0</asrwt>
<pdfrwt beam="1">  1       21 0.20811209E-01 0.27948863E+03</pdfrwt>
<pdfrwt beam="2">  1       21 0.23426181E+00 0.27948863E+03</pdfrwt>
<totfact> 0.16269219E+03</totfact>
</mgrwt>
</event>
<event>
 4    0  0.1674413E-001  0.2960958E+03  0.7546771E-02  0.1087209E+00
         21   -1    0    0  503  501  0.00000000000E+00  0.00000000000E+00  0.25997146570E+03  0.25997146570E+03  0.00000000000E+00 0.  1.
         21   -1    0    0  501  502 -0.00000000000E+00 -0.00000000000E+00 -0.31916402992E+03  0.31916402992E+03  0.00000000000E+00 0.  1.
         25    1    1    2    0    0 -0.26116253455E+03 -0.61982699503E+02  0.26734061832E+02  0.29730024311E+03  0.12500000000E+03 0.  0.
         21    1    1    2  503  502  0.26116253455E+03  0.61982699503E+02 -0.85926626053E+02  0.28183525251E+03  0.00000000000E+00 0.  1.
<mgrwt>
<rscale>  3 0.29609580E+03</rscale>
<asrwt>0</asrwt>
<pdfrwt beam="1">  1       21 0.39995610E-01 0.29609580E+03</pdfrwt>
<pdfrwt beam="2">  1       21 0.49102158E-01 0.29609580E+03</pdfrwt>
<totfact> 0.22676507E+04</totfact>
</mgrwt>
</event>
<event>
 4    0  0.1019436E-001  0.2859228E+03  0.7546771E-02  0.1092497E+00
         21   -1    0    0  502  501  0.00000000000E+00  0.00000000000E+00  0.54727715774E+02  0.54727715774E+02  0.00000000000E+00 0. -1.
         21   -1    0    0  503  502 -0.00000000000E+00 -0.00000000000E+00 -0.14354651798E+04  0.14354651798E+04  0.00000000000E+00 0. -1.
         25    1    1    2    0    0  0.20797286229E+03  0.15124197166E+03 -0.90915239381E+03  0.95305294743E+03  0.12500000000E+03 0.  0.
         21    1    1    2  503  501 -0.20797286229E+03 -0.15124197166E+03 -0.47158507024E+03  0.53713994816E+03  0.00000000000E+00 0. -1.
<mgrwt>
<rscale>  3 0.28592280E+03</rscale>
<asrwt>0</asrwt>
<pdfrwt beam="1">  1       21 0.84196496E-02 0.28592280E+03</pdfrwt>
<pdfrwt beam="2">  1       21 0.22084077E+00 0.28592280E+03</pdfrwt>
<totfact> 0.10188420E+04</totfact>
</mgrwt>
</event>
<event>
 4    0  0.1222789E-001  0.2428620E+03  0.7546771E-02  0.1117901E+00
         21   -1    0    0  502  501  0.00000000000E+00  0.00000000000E+00  0.32551128377E+03  0.32551128377E+03  0.00000000000E+00 0.  1.
         21   -1    0    0  503  502 -0.00000000000E+00 -0.00000000000E+00 -0.16345190284E+03  0.16345190284E+03  0.00000000000E+00 0.  1.
         25    1    1    2    0    0 -0.10309456170E+03 -0.18091005257E+03  0.35896099842E+02  0.24550043942E+03  0.12500000000E+03 0.  0.
         21    1    1    2  503  501  0.10309456170E+03  0.18091005257E+03  0.12616328109E+03  0.24346274719E+03  0.00000000000E+00 0.  1.
<mgrwt>
<rscale>  3 0.24286197E+03</rscale>
<asrwt>0</asrwt>
<pdfrwt beam="1">  1       21 0.50078659E-01 0.24286197E+03</pdfrwt>
<pdfrwt beam="2">  1       21 0.25146447E-01 0.24286197E+03</pdfrwt>
<totfact> 0.55645272E+04</totfact>
</mgrwt>
</event>
<event>
 4    0  0.1003929E-001  0.2662033E+03  0.7546771E-02  0.1103472E+00
         21   -1    0    0  502  501  0.00000000000E+00  0.00000000000E+00  0.34017024633E+03  0.34017024633E+03  0.00000000000E+00 0. -1.
         21   -1    0    0  503  502 -0.00000000000E+00 -0.00000000000E+00 -0.83171161477E+03  0.83171161477E+03  0.00000000000E+00 0. -1.
         25    1    1    2    0    0  0.22879521949E+03  0.53776901819E+02  0.26743953397E+03  0.37734349334E+03  0.12500000000E+03 0.  0.
         21    1    1    2  503  501 -0.22879521949E+03 -0.53776901819E+02 -0.75898090241E+03  0.79453836777E+03  0.00000000000E+00 0. -1.
<mgrwt>
<rscale>  3 0.26620332E+03</rscale>
<asrwt>0</asrwt>
<pdfrwt beam="1">  1       21 0.52333884E-01 0.26620332E+03</pdfrwt>
<pdfrwt beam="2">  1       21 0.12795563E+00 0.26620332E+03</pdfrwt>
<totfact> 0.14648816E+03</totfact>
</mgrwt>
</event>
<event>
 4    0  0.1003929E-001  0.2498543E+03  0.7546771E-02  0.1113397E+00
         21   -1    0    0  503  501  0.00000000000E+00  0.00000000000E+00  0.20856479024E+03  0.20856479024E+03  0.00000000000E+00 0.  1.
         21   -1    0    0  501  502 -0.00000000000E+00 -0.00000000000E+00 -0.11453514501E+04  0.11453514501E+04  0.00000000000E+00 0.  1.
         25    1    1    2    0    0  0.17261953575E+03 -0.13040189122E+03  0.11860770332E+03  0.27657719473E+03  0.12500000000E+03 0.  0.
         21    1    1    2  503  502 -0.17261953575E+03  0.13040189122E+03 -0.10553943632E+04  0.10773390456E+04  0.00000000000E+00 0.  1.
<mgrwt>
<rscale>  3 0.24985427E+03</rscale>
<asrwt>0</asrwt>
<pdfrwt beam="1">  1       21 0.32086890E-01 0.24985427E+03</pdfrwt>
<pdfrwt beam="2">  1       21 0.17620792E+00 0.24985427E+03</pdfrwt>
<totfact> 0.17135134E+03</totfact>
</mgrwt>
</event>
<event>
 4    0  0.1112537E-001  0.2463644E+03  0.7546771E-02  0.1115624E+00
         21   -1    0    0  502  501  0.00000000000E+00  0.00000000000E+00  0.62633778228E+02  0.62633778228E+02  0.00000000000E+00 0.  1.
         21   -1    0    0  503  502 -0.00000000000E+00 -0.00000000000E+00 -0.17073948968E+04  0.17073948968E+04  0.00000000000E+00 0. -1.
         25    1    1    2    0    0 -0.15153991656E+02  0.21175638872E+03 -0.22236248272E+03  0.33187420109E+03  0.12500000000E+03 0.  0.
         21    1    1    2  503  501  0.15153991656E+02 -0.21175638872E+03 -0.14223986359E+04  0.14381544740E+04  0.00000000000E+00 0. -1.
<mgrwt>
<rscale>  3 0.24636439E+03</rscale>
<asrwt>0</asrwt>
<pdfrwt beam="1">  1       21 0.96359673E-02 0.24636439E+03</pdfrwt>
<pdfrwt beam="2">  1       21 0.26267610E+00 0.24636439E+03</pdfrwt>
<totfact> 0.46117760E+03</totfact>
</mgrwt>
</event>
<event>
 4    0  0.1376448E-001  0.3078189E+03  0.7546771E-02  0.1081396E+00
         21   -1    0    0  503  501  0.00000000000E+00  0.00000000000E+00  0.12669979340E+04  0.12669979340E+04  0.00000000000E+00 0. -1.
         21   -1    0    0  501  502 -0.00000000000E+00 -0.00000000000E+00 -0.75135595612E+02  0.75135595612E+02  0.00000000000E+00 0. -1.
         25    1    1    2    0    0 -0.17620249412E+03  0.21927185512E+03  0.81992555618E+03  0.87580270784E+03  0.12500000000E+03 0.  0.
         21    1    1    2  503  502  0.17620249412E+03 -0.21927185512E+03  0.37193678225E+03  0.46633082181E+03  0.00000000000E+00 0. -1.
<mgrwt>
<rscale>  3 0.30781888E+03</rscale>
<asrwt>0</asrwt>
<pdfrwt beam="1">  1       21 0.19492274E+00 0.30781888E+03</pdfrwt>
<pdfrwt beam="2">  1       21 0.11559323E-01 0.30781888E+03</pdfrwt>
<totfact> 0.83998925E+03</totfact>
</mgrwt>
</event>
<event>
 4    0  0.1003929E-001  0.2755346E+03  0.7546771E-02  0.1098153E+00
         21   -1    0    0  503  501  0.00000000000E+00  0.00000000000E+00  0.20455799254E+04  0.20455799254E+04  0.00000000000E+00 0.  1.
         21   -1    0    0  501  502 -0.00000000000E+00 -0.00000000000E+00 -0.33841629627E+02  0.33841629627E+02  0.00000000000E+00 0.  1.
         25    1    1    2    0    0  0.63014498117E+02  0.23732575177E+03  0.91800947060E+03  0.95846790637E+03  0.12500000000E+03 0.  0.
         21    1    1    2  503  502 -0.63014498117E+02 -0.23732575177E+03  0.10937288252E+04  0.11209536487E+04  0.00000000000E+00 0.  1.
<mgrwt>
<rscale>  3 0.27553464E+03</rscale>
<asrwt>0</asrwt>
<pdfrwt beam="1">  1       21 0.31470451E+00 0.27553464E+03</pdfrwt>
<pdfrwt beam="2">  1       21 0.52064062E-02 0.27553464E+03</pdfrwt>
<totfact> 0.65072488E+03</totfact>
</mgrwt>
</event>
<event>
 4    0  0.1358484E-001  0.2731614E+03  0.7546771E-02  0.1099484E+00
         21   -1    0    0  503  501  0.00000000000E+00  0.00000000000E+00  0.10380022370E+03  0.10380022370E+03  0.00000000000E+00 0. -1.
         21   -1    0    0  501  502 -0.00000000000E+00 -0.00000000000E+00 -0.67906269679E+03  0.67906269679E+03  0.00000000000E+00 0. -1.
         25    1    1    2    0    0 -0.17517913063E+03  0.16823925253E+03 -0.39562878941E+03  0.48076950081E+03  0.12500000000E+03 0.  0.
         21    1    1    2  503  502  0.17517913063E+03 -0.16823925253E+03 -0.17963368368E+03  0.30209341968E+03  0.00000000000E+00 0. -1.
<mgrwt>
<rscale>  3 0.27316144E+03</rscale>
<asrwt>0</asrwt>
<pdfrwt beam="1">  1       21 0.15969266E-01 0.27316144E+03</pdfrwt>
<pdfrwt beam="2">  1       21 0.10447118E+00 0.27316144E+03</pdfrwt>
<totfact> 0.24817443E+04</totfact>
</mgrwt>
</event>
<event>
 4    0  0.1402259E-001  0.3098954E+03  0.7546771E-02  0.1080396E+00
         21   -1    0    0  502  501  0.00000000000E+00  0.00000000000E+00  0.11672363370E+03  0.11672363370E+03  0.00000000000E+00 0. -1.
         21   -1    0    0  503  502 -0.00000000000E+00 -0.00000000000E+00 -0.90819128272E+03  0.90819128272E+03  0.00000000000E+00 0. -1.
         25    1    1    2    0    0 -0.18509588799E+03  0.21482476107E+03 -0.19956804887E+03  0.36859540400E+03  0.12500000000E+03 0.  0.
         21    1    1    2  503  501  0.18509588799E+03 -0.21482476107E+03 -0.59189960016E+03  0.65631951242E+03  0.00000000000E+00 0. -1.
<mgrwt>
<rscale>  3 0.30989541E+03</rscale>
<asrwt>0</asrwt>
<pdfrwt beam="1">  1       21 0.17957482E-01 0.30989541E+03</pdfrwt>
<pdfrwt beam="2">  1       21 0.13972173E+00 0.30989541E+03</pdfrwt>
<totfact> 0.94529906E+03</totfact>
</mgrwt>
</event>
<event>
 4    0  0.1003929E-001  0.2419215E+03  0.7546771E-02  0.1118519E+00
         21   -1    0    0  502  501  0.00000000000E+00  0.00000000000E+00  0.34530608311E+04  0.34530608311E+04  0.00000000000E+00 0. -1.
         21   -1    0    0  503  502 -0.00000000000E+00 -0.00000000000E+00 -0.24416775151E+02  0.24416775151E+02  0.00000000000E+00 0.  1.
         25    1    1    2    0    0 -0.23891545776E+02 -0.20574309327E+03  0.28943191205E+04  0.29044120227E+04  0.12500000000E+03 0.  0.
         21    1    1    2  503  501  0.23891545776E+02  0.20574309327E+03  0.53432493541E+03  0.57306558350E+03  0.00000000000E+00 0.  1.
<mgrwt>
<rscale>  3 0.24192153E+03</rscale>
<asrwt>0</asrwt>
<pdfrwt beam="1">  1       21 0.53123974E+00 0.24192153E+03</pdfrwt>
<pdfrwt beam="2">  1       21 0.37564297E-02 0.24192153E+03</pdfrwt>
<totfact> 0.45716199E+02</totfact>
</mgrwt>
</event>
<event>
 4    0  0.1672952E-001  0.3208930E+03  0.7546771E-02  0.1075239E+00
         21   -1    0    0  502  501  0.00000000000E+00  0.00000000000E+00  0.36440836342E+03  0.36440836342E+03  0.00000000000E+00 0. -1.
         21   -1    0    0  503  502 -0.00000000000E+00 -0.00000000000E+00 -0.28654968809E+03  0.28654968809E+03  0.00000000000E+00 0. -1.
         25    1    1    2    0    0 -0.23867580618E+03 -0.17430192544E+03  0.13807883083E+03  0.34933946985E+03  0.12500000000E+03 0.  0.
         21    1    1    2  503  501  0.23867580618E+03  0.17430192544E+03 -0.60220155500E+02  0.30161858165E+03  0.00000000000E+00 0. -1.
<mgrwt>
<rscale>  3 0.32089298E+03</rscale>
<asrwt>0</asrwt>
<pdfrwt beam="1">  1       21 0.56062825E-01 0.32089298E+03</pdfrwt>
<pdfrwt beam="2">  1       21 0.44084567E-01 0.32089298E+03</pdfrwt>
<totfact> 0.13868414E+04</totfact>
</mgrwt>
</event>
<event>
 4    0  0.1275418E-001  0.2389891E+03  0.7546771E-02  0.1120468E+00
         21   -1    0    0  502  501  0.00000000000E+00  0.00000000000E+00  0.12401774382E+04  0.12401774382E+04  0.00000000000E+00 0. -1.
         21   -1    0    0  503  502 -0.00000000000E+00 -0.00000000000E+00 -0.43956517961E+02  0.43956517961E+02  0.00000000000E+00 0. -1.
         25    1    1    2    0    0  0.60821240442E+02 -0.19440055130E+03  0.84473499943E+03  0.87789123295E+03  0.12500000000E+03 0.  0.
         21    1    1    2  503  501 -0.60821240442E+02  0.19440055130E+03  0.35148592082E+03  0.40624272322E+03  0.00000000000E+00 0. -1.
<mgrwt>
<rscale>  3 0.23898912E+03</rscale>
<asrwt>0</asrwt>
<pdfrwt beam="1">  1       21 0.19079650E+00 0.23898912E+03</pdfrwt>
<pdfrwt beam="2">  1       21 0.67625422E-02 0.23898912E+03</pdfrwt>
<totfact> 0.23984664E+04</totfact>
</mgrwt>
</event>
<event>
 4    0  0.1418182E-001  0.5820944E+03  0.7546771E-02  0.9943267E-01
         21   -1    0    0  503  501  0.00000000000E+00  0.00000000000E+00  0.69623561390E+03  0.69623561390E+03  0.00000000000E+00 0.  1.
         21   -1    0    0  501  502 -0.00000000000E+00 -0.00000000000E+00 -0.47850501470E+03  0.47850501470E+03  0.00000000000E+00 0.  1.
         25    1    1    2    0    0  0.38995751748E+03  0.41369318436E+03  0.62664929057E+02  0.58545777777E+03  0.12500000000E+03 0.  0.
         21    1    1    2  503  502 -0.38995751748E+03 -0.41369318436E+03  0.15506567014E+03  0.58928285082E+03  0.00000000000E+00 0.  1.
<mgrwt>
<rscale>  3 0.58209442E+03</rscale>
<asrwt>0</asrwt>
<pdfrwt beam="1">  1       21 0.10711317E+00 0.58209442E+03</pdfrwt>
<pdfrwt beam="2">  1       21 0.73616156E-01 0.58209442E+03</pdfrwt>
<totfact> 0.93458976E+02</totfact>
</mgrwt>
</event>
<event>
 4    0  0.1003929E-001  0.2752456E+03  0.7546771E-02  0.1098314E+00
         21   -1    0    0  502  501  0.00000000000E+00  0.00000000000E+00  0.11009987842E+04  0.11009987842E+04  0.00000000000E+00 0.  1.
         21   -1    0    0  503  502 -0.00000000000E+00 -0.00000000000E+00 -0.61705575938E+02  0.61705575938E+02  0.00000000000E+00 0. -1.
         25    1    1    2    0    0  0.14326388399E+03  0.19902414286E+03  0.58220734407E+03  0.64399187991E+03  0.12500000000E+03 0.  0.
         21    1    1    2  503  501 -0.14326388399E+03 -0.19902414286E+03  0.45708586418E+03  0.51871248021E+03  0.00000000000E+00 0. -1.
<mgrwt>
<rscale>  3 0.27524562E+03</rscale>
<asrwt>0</asrwt>
<pdfrwt beam="1">  1       21 0.16938441E+00 0.27524562E+03</pdfrwt>
<pdfrwt beam="2">  1       21 0.94931663E-02 0.27524562E+03</pdfrwt>
<totfact> 0.18219820E+04</totfact>
</mgrwt>
</event>
<event>
 4    0  0.1955914E-001  0.2652920E+03  0.7546771E-02  0.1104005E+00
         21   -1    0    0  503  501  0.00000000000E+00  0.00000000000E+00  0.57025344159E+03  0.57025344159E+03  0.00000000000E+00 0. -1.
         21   -1    0    0  501  502 -0.00000000000E+00 -0.00000000000E+00 -0.39015409115E+03  0.39015409115E+03  0.00000000000E+00 0.  1.
         25    1    1    2    0    0 -0.61361699882E+02 -0.22580876068E+03  0.49883949082E+03  0.56499618779E+03  0.12500000000E+03 0.  0.
         21    1    1    2  503  502  0.61361699882E+02  0.22580876068E+03 -0.31874014039E+03  0.39541134495E+03  0.00000000000E+00 0.  1.
<mgrwt>
<rscale>  3 0.26529202E+03</rscale>
<asrwt>0</asrwt>
<pdfrwt beam="1">  1       21 0.87731299E-01 0.26529202E+03</pdfrwt>
<pdfrwt beam="2">  1       21 0.60023706E-01 0.26529202E+03</pdfrwt>
<totfact> 0.27321336E+03</totfact>
</mgrwt>
</event>
<event>
 4    0  0.1410139E-001  0.3210449E+03  0.7546771E-02  0.1075169E+00
         21   -1    0    0  502  501  0.00000000000E+00  0.00000000000E+00  0.15177491498E+03  0.15177491498E+03  0.00000000000E+00 0.  1.
         21   -1    0    0  503  502 -0.00000000000E+00 -0.00000000000E+00 -0.69621692701E+03  0.69621692701E+03  0.00000000000E+00 0.  1.
         25    1    1    2    0    0  0.99653168714E+02 -0.27841349941E+03 -0.14827785935E+03  0.35363279580E+03  0.12500000000E+03 0.  0.
         21    1    1    2  503  501 -0.99653168714E+02  0.27841349941E+03 -0.39616415267E+03  0.49435904619E+03  0.00000000000E+00 0.  1.
<mgrwt>
<rscale>  3 0.32104490E+03</rscale>
<asrwt>0</asrwt>
<pdfrwt beam="1">  1       21 0.23349987E-01 0.32104490E+03</pdfrwt>
<pdfrwt beam="2">  1       21 0.10711030E+00 0.32104490E+03</pdfrwt>
<totfact> 0.11196493E+04</totfact>
</mgrwt>
</event>
<event>
 4    0  0.1065145E-001  0.2497872E+03  0.7546771E-02  0.1113439E+00
         21   -1    0    0  503  501  0.00000000000E+00  0.00000000000E+00  0.41658806938E+02  0.41658806938E+02  0.00000000000E+00 0. -1.
         21   -1    0    0  501  502 -0.00000000000E+00 -0.00000000000E+00 -0.19141845545E+04  0.19141845545E+04  0.00000000000E+00 0. -1.
         25    1    1    2    0    0 -0.20696033952E+03 -0.62738050282E+02 -0.43071953151E+03  0.49790858590E+03  0.12500000000E+03 0.  0.
         21    1    1    2  503  502  0.20696033952E+03  0.62738050282E+02 -0.14418062160E+04  0.14579347755E+04  0.00000000000E+00 0. -1.
<mgrwt>
<rscale>  3 0.24978720E+03</rscale>
<asrwt>0</asrwt>
<pdfrwt beam="1">  1       21 0.64090473E-02 0.24978720E+03</pdfrwt>
<pdfrwt beam="2">  1       21 0.29448993E+00 0.24978720E+03</pdfrwt>
<totfact> 0.61101234E+03</totfact>
</mgrwt>
</event>
<event>
 4    0  0.1572374E-001  0.3855422E+03  0.7546771E-02  0.1048904E+00
         21   -1    0    0  502  501  0.00000000000E+00  0.00000000000E+00  0.45398130370E+03  0.45398130370E+03  0.00000000000E+00 0.  1.
         21   -1    0    0  503  502 -0.00000000000E+00 -0.00000000000E+00 -0.92482545494E+03  0.92482545494E+03  0.00000000000E+00 0. -1.
         25    1    1    2    0    0 -0.65795378112E+02  0.35873219202E+03  0.32443498542E+03  0.50388577787E+03  0.12500000000E+03 0.  0.
         21    1    1    2  503  501  0.65795378112E+02 -0.35873219202E+03 -0.79527913667E+03  0.87492098077E+03  0.00000000000E+00 0. -1.
<mgrwt>
<rscale>  3 0.38554224E+03</rscale>
<asrwt>0</asrwt>
<pdfrwt beam="1">  1       21 0.69843277E-01 0.38554224E+03</pdfrwt>
<pdfrwt beam="2">  1       21 0.14228084E+00 0.38554224E+03</pdfrwt>
<totfact> 0.55100717E+02</totfact>
</mgrwt>
</event>
<event>
 4    0  0.1673709E-001  0.2694377E+03  0.7546771E-02  0.1101602E+00
         21   -1    0    0  502  501  0.00000000000E+00  0.00000000000E+00  0.19845661889E+03  0.19845661889E+03  0.00000000000E+00 0. -1.
         21   -1    0    0  503  502 -0.00000000000E+00 -0.00000000000E+00 -0.36700757052E+03  0.36700757052E+03  0.00000000000E+00 0. -1.
         25    1    1    2    0    0 -0.23670370059E+03  0.30709070431E+02  0.64196484881E+01  0.26951419400E+03  0.12500000000E+03 0.  0.
         21    1    1    2  503  501  0.23670370059E+03 -0.30709070431E+02 -0.17497060012E+03  0.29594999541E+03  0.00000000000E+00 0. -1.
<mgrwt>
<rscale>  3 0.26943773E+03</rscale>
<asrwt>0</asrwt>
<pdfrwt beam="1">  1       21 0.30531788E-01 0.26943773E+03</pdfrwt>
<pdfrwt beam="2">  1       21 0.56462703E-01 0.26943773E+03</pdfrwt>
<totfact> 0.29271306E+04</totfact>
</mgrwt>
</event>
<event>
 4    0  0.1320085E-001  0.4065958E+03  0.7546771E-02  0.1041519E+00
         21   -1    0    0  503  501  0.00000000000E+00  0.00000000000E+00  0.18012745576E+03  0.18012745576E+03  0.00000000000E+00 0. -1.
         21   -1    0    0  501  502 -0.00000000000E+00 -0.00000000000E+00 -0.10153722011E+04  0.10153722011E+04  0.00000000000E+00 0. -1.
         25    1    1    2    0    0 -0.15681996712E+03  0.35369853534E+03 -0.20346731814E+03  0.45466372798E+03  0.12500000000E+03 0.  0.
         21    1    1    2  503  502  0.15681996712E+03 -0.35369853534E+03 -0.63177742716E+03  0.74083592884E+03  0.00000000000E+00 0. -1.
<mgrwt>
<rscale>  3 0.40659581E+03</rscale>
<asrwt>0</asrwt>
<pdfrwt beam="1">  1       21 0.27711917E-01 0.40659581E+03</pdfrwt>
<pdfrwt beam="2">  1       21 0.15621110E+00 0.40659581E+03</pdfrwt>
<totfact> 0.29231320E+03</totfact>
</mgrwt>
</event>
<event>
 4    0  0.1358656E-001  0.2588079E+03  0.7546771E-02  0.1107862E+00
         21   -1    0    0  502  501  0.00000000000E+00  0.00000000000E+00  0.14579714709E+04  0.14579714709E+04  0.00000000000E+00 0. -1.
         21   -1    0    0  503  502 -0.00000000000E+00 -0.00000000000E+00 -0.42054718562E+02  0.42054718562E+02  0.00000000000E+00 0. -1.
         25    1    1    2    0    0 -0.22618673455E+03  0.14002852722E+02  0.90127456879E+03  0.93769790824E+03  0.12500000000E+03 0.  0.
         21    1    1    2  503  501  0.22618673455E+03 -0.14002852722E+02  0.51464218353E+03  0.56232828121E+03  0.00000000000E+00 0. -1.
<mgrwt>
<rscale>  3 0.25880788E+03</rscale>
<asrwt>0</asrwt>
<pdfrwt beam="1">  1       21 0.22430326E+00 0.25880788E+03</pdfrwt>
<pdfrwt beam="2">  1       21 0.64699579E-02 0.25880788E+03</pdfrwt>
<totfact> 0.15619726E+04</totfact>
</mgrwt>
</event>
<event>
 4    0  0.1115122E-001  0.2413763E+03  0.7546771E-02  0.1118879E+00
         21   -1    0    0  503  501  0.00000000000E+00  0.00000000000E+00  0.10201243478E+04  0.10201243478E+04  0.00000000000E+00 0.  1.
         21   -1    0    0  501  502 -0.00000000000E+00 -0.00000000000E+00 -0.11874963436E+03  0.11874963436E+03  0.00000000000E+00 0.  1.
         25    1    1    2    0    0 -0.14840442565E+03 -0.14357450548E+03  0.90059835748E+03  0.93238399475E+03  0.12500000000E+03 0.  0.
         21    1    1    2  503  502  0.14840442565E+03  0.14357450548E+03  0.77635598192E+00  0.20648998742E+03  0.00000000000E+00 0.  1.
<mgrwt>
<rscale>  3 0.24137629E+03</rscale>
<asrwt>0</asrwt>
<pdfrwt beam="1">  1       21 0.15694220E+00 0.24137629E+03</pdfrwt>
<pdfrwt beam="2">  1       21 0.18269175E-01 0.24137629E+03</pdfrwt>
<totfact> 0.69831675E+03</totfact>
</mgrwt>
</event>
<event>
 4    0  0.1003929E-001  0.5264270E+03  0.7546771E-02  0.1007102E+00
         21   -1    0    0  503  501  0.00000000000E+00  0.00000000000E+00  0.25878711456E+04  0.25878711456E+04  0.00000000000E+00 0.  1.
         21   -1    0    0  501  502 -0.00000000000E+00 -0.00000000000E+00 -0.10995336118E+03  0.10995336118E+03  0.00000000000E+00 0. -1.
         25    1    1    2    0    0 -0.35631477845E+03 -0.36679714947E+03  0.15686137778E+04  0.16545919600E+04  0.12500000000E+03 0.  0.
         21    1    1    2  503  502  0.35631477845E+03  0.36679714947E+03  0.90930400657E+03  0.10432325467E+04  0.00000000000E+00 0. -1.
<mgrwt>
<rscale>  3 0.52642698E+03</rscale>
<asrwt>0</asrwt>
<pdfrwt beam="1">  1       21 0.39813398E+00 0.52642698E+03</pdfrwt>
<pdfrwt beam="2">  1       21 0.16915904E-01 0.52642698E+03</pdfrwt>
<totfact> 0.20545583E+02</totfact>
</mgrwt>
</event>
<event>
 4    0  0.1003929E-001  0.2380469E+03  0.7546771E-02  0.1121101E+00
         21   -1    0    0  502  501  0.00000000000E+00  0.00000000000E+00  0.14025024944E+04  0.14025024944E+04  0.00000000000E+00 0.  1.
         21   -1    0    0  503  502 -0.00000000000E+00 -0.00000000000E+00 -0.85307613324E+02  0.85307613324E+02  0.00000000000E+00 0.  1.
         25    1    1    2    0    0  0.17926433915E+03 -0.94369670270E+02  0.12528293990E+04  0.12752442280E+04  0.12500000000E+03 0.  0.
         21    1    1    2  503  501 -0.17926433915E+03  0.94369670270E+02  0.64365482082E+02  0.21256587977E+03  0.00000000000E+00 0.  1.
<mgrwt>
<rscale>  3 0.23804692E+03</rscale>
<asrwt>0</asrwt>
<pdfrwt beam="1">  1       21 0.21576960E+00 0.23804692E+03</pdfrwt>
<pdfrwt beam="2">  1       21 0.13124249E-01 0.23804692E+03</pdfrwt>
<totfact> 0.51289201E+03</totfact>
</mgrwt>
</event>
<event>
 4    0  0.1525663E-001  0.2622696E+03  0.7546771E-02  0.1105787E+00
         21   -1    0    0  502  501  0.00000000000E+00  0.00000000000E+00  0.18811549610E+03  0.18811549610E+03  0.00000000000E+00 0. -1.
         21   -1    0    0  503  502 -0.00000000000E+00 -0.00000000000E+00 -0.32384671551E+03  0.32384671551E+03  0.00000000000E+00 0. -1.
         25    1    1    2    0    0  0.13717697057E+03  0.18531812880E+03 -0.86818955215E+02  0.27626592461E+03  0.12500000000E+03 0.  0.
         21    1    1    2  503  501 -0.13717697057E+03 -0.18531812880E+03 -0.48912264187E+02  0.23569628700E+03  0.00000000000E+00 0. -1.
<mgrwt>
<rscale>  3 0.26226958E+03</rscale>
<asrwt>0</asrwt>
<pdfrwt beam="1">  1       21 0.28940846E-01 0.26226958E+03</pdfrwt>
<pdfrwt beam="2">  1       21 0.49822571E-01 0.26226958E+03</pdfrwt>
<totfact> 0.42513196E+04</totfact>
</mgrwt>
</event>
<event>
 4    0  0.1474213E-001  0.2689514E+03  0.7546771E-02  0.1101881E+00
         21   -1    0    0  503  501  0.00000000000E+00  0.00000000000E+00  0.21887466485E+03  0.21887466485E+03  0.00000000000E+00 0.  1.
         21   -1    0    0  501  502 -0.00000000000E+00 -0.00000000000E+00 -0.29409208753E+03  0.29409208753E+03  0.00000000000E+00 0.  1.
         25    1    1    2    0    0 -0.22628099640E+03  0.74207620895E+02 -0.49156154086E+02  0.27340663455E+03  0.12500000000E+03 0.  0.
         21    1    1    2  503  502  0.22628099640E+03 -0.74207620895E+02 -0.26061268603E+02  0.23956011783E+03  0.00000000000E+00 0.  1.
<mgrwt>
<rscale>  3 0.26895141E+03</rscale>
<asrwt>0</asrwt>
<pdfrwt beam="1">  1       21 0.33673026E-01 0.26895141E+03</pdfrwt>
<pdfrwt beam="2">  1       21 0.45244936E-01 0.26895141E+03</pdfrwt>
<totfact> 0.38452468E+04</totfact>
</mgrwt>
</event>
<event>
 4    0  0.1003929E-001  0.2813826E+03  0.7546771E-02  0.1094936E+00
         21   -1    0    0  502  501  0.00000000000E+00  0.00000000000E+00  0.54802883216E+03  0.54802883216E+03  0.00000000000E+00 0.  1.
         21   -1    0    0  503  502 -0.00000000000E+00 -0.00000000000E+00 -0.15766116362E+03  0.15766116362E+03  0.00000000000E+00 0. -1.
         25    1    1    2    0    0 -0.11041046792E+03  0.22662895908E+03  0.35207815211E+03  0.45070520489E+03  0.12500000000E+03 0.  0.
         21    1    1    2  503  501  0.11041046792E+03 -0.22662895908E+03  0.38289516434E+02  0.25498479090E+03  0.00000000000E+00 0. -1.
<mgrwt>
<rscale>  3 0.28138258E+03</rscale>
<asrwt>0</asrwt>
<pdfrwt beam="1">  1       21 0.84312127E-01 0.28138258E+03</pdfrwt>
<pdfrwt beam="2">  1       21 0.24255564E-01 0.28138258E+03</pdfrwt>
<totfact> 0.18691687E+04</totfact>
</mgrwt>
</event>
<event>
 4    0  0.1276061E-001  0.3575647E+03  0.7546771E-02  0.1059552E+00
         21   -1    0    0  502  501  0.00000000000E+00  0.00000000000E+00  0.11973686291E+04  0.11973686291E+04  0.00000000000E+00 0. -1.
         21   -1    0    0  503  502 -0.00000000000E+00 -0.00000000000E+00 -0.10567051105E+03  0.10567051105E+03  0.00000000000E+00 0. -1.
         25    1    1    2    0    0 -0.25842712914E+03 -0.21317348997E+03  0.41381869358E+03  0.54689892033E+03  0.12500000000E+03 0.  0.
         21    1    1    2  503  501  0.25842712914E+03  0.21317348997E+03  0.67787942452E+03  0.75614021986E+03  0.00000000000E+00 0. -1.
<mgrwt>
<rscale>  3 0.35756470E+03</rscale>
<asrwt>0</asrwt>
<pdfrwt beam="1">  1       21 0.18421055E+00 0.35756470E+03</pdfrwt>
<pdfrwt beam="2">  1       21 0.16257003E-01 0.35756470E+03</pdfrwt>
<totfact> 0.51843798E+03</totfact>
</mgrwt>
</event>
<event>
 4    0  0.1003929E-001  0.2506178E+03  0.7546771E-02  0.1112915E+00
         21   -1    0    0  503  501  0.00000000000E+00  0.00000000000E+00  0.27786020307E+02  0.27786020307E+02  0.00000000000E+00 0.  1.
         21   -1    0    0  501  502 -0.00000000000E+00 -0.00000000000E+00 -0.21075003171E+04  0.21075003171E+04  0.00000000000E+00 0.  1.
         25    1    1    2    0    0  0.21605444833E+03  0.22466709741E+02 -0.13820081071E+04  0.14045482141E+04  0.12500000000E+03 0.  0.
         21    1    1    2  503  502 -0.21605444833E+03 -0.22466709741E+02 -0.69770618971E+03  0.73073812330E+03  0.00000000000E+00 0.  1.
<mgrwt>
<rscale>  3 0.25061779E+03</rscale>
<asrwt>0</asrwt>
<pdfrwt beam="1">  1       21 0.42747732E-02 0.25061779E+03</pdfrwt>
<pdfrwt beam="2">  1       21 0.32423075E+00 0.25061779E+03</pdfrwt>
<totfact> 0.81724085E+03</totfact>
</mgrwt>
</event>
<event>
 4    0  0.1641308E-001  0.2748779E+03  0.7546771E-02  0.1098520E+00
         21   -1    0    0  503  501  0.00000000000E+00  0.00000000000E+00  0.40368136423E+03  0.40368136423E+03  0.00000000000E+00 0. -1.
         21   -1    0    0  501  502 -0.00000000000E+00 -0.00000000000E+00 -0.16948970576E+03  0.16948970576E+03  0.00000000000E+00 0. -1.
         25    1    1    2    0    0  0.31828131922E+01  0.24479117352E+03  0.15660434212E+03  0.31635860808E+03  0.12500000000E+03 0.  0.
         21    1    1    2  503  502 -0.31828131922E+01 -0.24479117352E+03  0.77587316350E+02  0.25681246191E+03  0.00000000000E+00 0. -1.
<mgrwt>
<rscale>  3 0.27487788E+03</rscale>
<asrwt>0</asrwt>
<pdfrwt beam="1">  1       21 0.62104825E-01 0.27487788E+03</pdfrwt>
<pdfrwt beam="2">  1       21 0.26075339E-01 0.27487788E+03</pdfrwt>
<totfact> 0.32343679E+04</totfact>
</mgrwt>
</event>
<event>
 4    0  0.1841185E-001  0.2511789E+03  0.7546771E-02  0.1112562E+00
         21   -1    0    0  502  501  0.00000000000E+00  0.00000000000E+00  0.94889333335E+03  0.94889333335E+03  0.00000000000E+00 0.  1.
         21   -1    0    0  503  502 -0.00000000000E+00 -0.00000000000E+00 -0.25409942907E+03  0.25409942907E+03  0.00000000000E+00 0. -1.
         25    1    1    2    0    0  0.61347848488E+02 -0.20905087610E+03  0.88117849604E+03  0.91627854346E+03  0.12500000000E+03 0.  0.
         21    1    1    2  503  501 -0.61347848488E+02  0.20905087610E+03 -0.18638459176E+03  0.28671421897E+03  0.00000000000E+00 0. -1.
<mgrwt>
<rscale>  3 0.25117888E+03</rscale>
<asrwt>0</asrwt>
<pdfrwt beam="1">  1       21 0.14598359E+00 0.25117888E+03</pdfrwt>
<pdfrwt beam="2">  1       21 0.39092220E-01 0.25117888E+03</pdfrwt>
<totfact> 0.19262261E+03</totfact>
</mgrwt>
</event>
<event>
 4    0  0.1128615E-001  0.2854233E+03  0.7546771E-02  0.1092763E+00
         21   -1    0    0  503  501  0.00000000000E+00  0.00000000000E+00  0.13742454427E+04  0.13742454427E+04  0.00000000000E+00 0. -1.
         21   -1    0    0  501  502 -0.00000000000E+00 -0.00000000000E+00 -0.82858846652E+02  0.82858846652E+02  0.00000000000E+00 0. -1.
         25    1    1    2    0    0 -0.51712910875E+01 -0.25654383036E+03  0.11015266753E+04  0.11379048710E+04  0.12500000000E+03 0.  0.
         21    1    1    2  503  502  0.51712910875E+01  0.25654383036E+03  0.18985992078E+03  0.31919941834E+03  0.00000000000E+00 0. -1.
<mgrwt>
<rscale>  3 0.28542333E+03</rscale>
<asrwt>0</asrwt>
<pdfrwt beam="1">  1       21 0.21142236E+00 0.28542333E+03</pdfrwt>
<pdfrwt beam="2">  1       21 0.12747516E-01 0.28542333E+03</pdfrwt>
<totfact> 0.55695941E+03</totfact>
</mgrwt>
</event>
<event>
 4    0  0.1444070E-001  0.2543992E+03  0.7546771E-02  0.1110556E+00
         21   -1    0    0  502  501  0.00000000000E+00  0.00000000000E+00  0.65267016912E+03  0.65267016912E+03  0.00000000000E+00 0. -1.
         21   -1    0    0  503  502 -0.00000000000E+00 -0.00000000000E+00 -0.10338571935E+03  0.10338571935E+03  0.00000000000E+00 0. -1.
         25    1    1    2    0    0 -0.24246816805E+02  0.22024088754E+03  0.44175369836E+03  0.50976983697E+03  0.12500000000E+03 0.  0.
         21    1    1    2  503  501  0.24246816805E+02 -0.22024088754E+03  0.10753075141E+03  0.24628605151E+03  0.00000000000E+00 0. -1.
<mgrwt>
<rscale>  3 0.25439921E+03</rscale>
<asrwt>0</asrwt>
<pdfrwt beam="1">  1       21 0.10041079E+00 0.25439921E+03</pdfrwt>
<pdfrwt beam="2">  1       21 0.15905496E-01 0.25439921E+03</pdfrwt>
<totfact> 0.27743563E+04</totfact>
</mgrwt>
</event>
<event>
 4    0  0.1085563E-001  0.3085047E+03  0.7546771E-02  0.1081065E+00
         21   -1    0    0  503  501  0.00000000000E+00  0.00000000000E+00  0.19929125132E+03  0.19929125132E+03  0.00000000000E+00 0.  1.
         21   -1    0    0  501  502 -0.00000000000E+00 -0.00000000000E+00 -0.10049200434E+04  0.10049200434E+04  0.00000000000E+00 0.  1.
         25    1    1    2    0    0  0.27794443565E+03 -0.47927304947E+02  0.41573894607E+02  0.31129330957E+03  0.12500000000E+03 0.  0.
         21    1    1    2  503  502 -0.27794443565E+03  0.47927304947E+02 -0.84720268665E+03  0.89291798512E+03  0.00000000000E+00 0.  1.
<mgrwt>
<rscale>  3 0.30850468E+03</rscale>
<asrwt>0</asrwt>
<pdfrwt beam="1">  1       21 0.30660193E-01 0.30850468E+03</pdfrwt>
<pdfrwt beam="2">  1       21 0.15460308E+00 0.30850468E+03</pdfrwt>
<totfact> 0.25871565E+03</totfact>
</mgrwt>
</event>
<event>
 4    0  0.1213460E-001  0.3061642E+03  0.7546771E-02  0.1082199E+00
         21   -1    0    0  502  501  0.00000000000E+00  0.00000000000E+00  0.30616578658E+03  0.30616578658E+03  0.00000000000E+00 0. -1.
         21   -1    0    0  503  502 -0.00000000000E+00 -0.00000000000E+00 -0.58832568193E+03  0.58832568193E+03  0.00000000000E+00 0. -1.
         25    1    1    2    0    0  0.20733523960E+03 -0.18741289705E+03  0.17944107602E+03  0.35487405558E+03  0.12500000000E+03 0.  0.
         21    1    1    2  503  501 -0.20733523960E+03  0.18741289705E+03 -0.46160097137E+03  0.53961741292E+03  0.00000000000E+00 0. -1.
<mgrwt>
<rscale>  3 0.30616416E+03</rscale>
<asrwt>0</asrwt>
<pdfrwt beam="1">  1       21 0.47102429E-01 0.30616416E+03</pdfrwt>
<pdfrwt beam="2">  1       21 0.90511643E-01 0.30616416E+03</pdfrwt>
<totfact> 0.41544629E+03</totfact>
</mgrwt>
</event>
<event>
 4    0  0.1570738E-001  0.2986511E+03  0.7546771E-02  0.1085917E+00
         21   -1    0    0  502  501  0.00000000000E+00  0.00000000000E+00  0.33428975851E+03  0.33428975851E+03  0.00000000000E+00 0.  1.
         21   -1    0    0  503  502 -0.00000000000E+00 -0.00000000000E+00 -0.28777642892E+03  0.28777642892E+03  0.00000000000E+00 0.  1.
         25    1    1    2    0    0  0.10419582737E+02 -0.27103308876E+03  0.14693463219E+03  0.33283973477E+03  0.12500000000E+03 0.  0.
         21    1    1    2  503  501 -0.10419582737E+02  0.27103308876E+03 -0.10042130260E+03  0.28922645267E+03  0.00000000000E+00 0.  1.
<mgrwt>
<rscale>  3 0.29865114E+03</rscale>
<asrwt>0</asrwt>
<pdfrwt beam="1">  1       21 0.51429193E-01 0.29865114E+03</pdfrwt>
<pdfrwt beam="2">  1       21 0.44273297E-01 0.29865114E+03</pdfrwt>
<totfact> 0.16671957E+04</totfact>
</mgrwt>
</event>
<event>
 4    0  0.1512656E-001  0.2757175E+03  0.7546771E-02  0.1098051E+00
         21   -1    0    0  503  501  0.00000000000E+00  0.00000000000E+00  0.46544206027E+03  0.46544206027E+03  0.00000000000E+00 0. -1.
         21   -1    0    0  501  502 -0.00000000000E+00 -0.00000000000E+00 -0.17572623598E+03  0.17572623598E+03  0.00000000000E+00 0. -1.
         25    1    1    2    0    0  0.44639966809E+02 -0.24166589134E+03  0.28331295116E+03  0.39533069445E+03  0.12500000000E+03 0.  0.
         21    1    1    2  503  502 -0.44639966809E+02  0.24166589134E+03  0.64028731314E+01  0.24583760180E+03  0.00000000000E+00 0. -1.
<mgrwt>
<rscale>  3 0.27571748E+03</rscale>
<asrwt>0</asrwt>
<pdfrwt beam="1">  1       21 0.71606470E-01 0.27571748E+03</pdfrwt>
<pdfrwt beam="2">  1       21 0.27034806E-01 0.27571748E+03</pdfrwt>
<totfact> 0.22019795E+04</totfact>
</mgrwt>
</event>
<event>
 4    0  0.1052235E-001  0.2693656E+03  0.7546771E-02  0.1101643E+00
         21   -1    0    0  502  501  0.00000000000E+00  0.00000000000E+00  0.30071319742E+02  0.30071319742E+02  0.00000000000E+00 0. -1.
         21   -1    0    0  503  502 -0.00000000000E+00 -0.00000000000E+00 -0.21581393923E+04  0.21581393923E+04  0.00000000000E+00 0. -1.
         25    1    1    2    0    0 -0.21289477130E+03  0.10774349911E+03 -0.12126628078E+04  0.12422193569E+04  0.12500000000E+03 0.  0.
         21    1    1    2  503  501  0.21289477130E+03 -0.10774349911E+03 -0.91540526482E+03  0.94599135520E+03  0.00000000000E+00 0. -1.
<mgrwt>
<rscale>  3 0.26936563E+03</rscale>
<asrwt>0</asrwt>
<pdfrwt beam="1">  1       21 0.46263543E-02 0.26936563E+03</pdfrwt>
<pdfrwt beam="2">  1       21 0.33202163E+00 0.26936563E+03</pdfrwt>
<totfact> 0.63238108E+03</totfact>
</mgrwt>
</event>
<event>
 4    0  0.1003929E-001  0.2602944E+03  0.7546771E-02  0.1106966E+00
         21   -1    0    0  503  501  0.00000000000E+00  0.00000000000E+00  0.31438058306E+02  0.31438058306E+02  0.00000000000E+00 0.  1.
         21   -1    0    0  501  502 -0.00000000000E+00 -0.00000000000E+00 -0.19290711937E+04  0.19290711937E+04  0.00000000000E+00 0.  1.
         25    1    1    2    0    0  0.57811284396E+02 -0.22087558112E+03 -0.88677985655E+03  0.92419244799E+03  0.12500000000E+03 0.  0.
         21    1    1    2  503  502 -0.57811284396E+02  0.22087558112E+03 -0.10108532789E+04  0.10363168041E+04  0.00000000000E+00 0.  1.
<mgrwt>
<rscale>  3 0.26029439E+03</rscale>
<asrwt>0</asrwt>
<pdfrwt beam="1">  1       21 0.48366242E-02 0.26029439E+03</pdfrwt>
<pdfrwt beam="2">  1       21 0.29678019E+00 0.26029439E+03</pdfrwt>
<totfact> 0.95191007E+03</totfact>
</mgrwt>
</event>
<event>
 4    0  0.1158618E-001  0.2359569E+03  0.7546771E-02  0.1122516E+00
         21   -1    0    0  503  501  0.00000000000E+00  0.00000000000E+00  0.19527161288E+03  0.19527161288E+03  0.00000000000E+00 0.  1.
         21   -1    0    0  501  502 -0.00000000000E+00 -0.00000000000E+00 -0.26085857882E+03  0.26085857882E+03  0.00000000000E+00 0.  1.
         25    1    1    2    0    0  0.17655150392E+03 -0.94234894834E+02 -0.94010305104E+02  0.25399524878E+03  0.12500000000E+03 0.  0.
         21    1    1    2  503  502 -0.17655150392E+03  0.94234894834E+02  0.28423339168E+02  0.20213494292E+03  0.00000000000E+00 0.  1.
<mgrwt>
<rscale>  3 0.23595688E+03</rscale>
<asrwt>0</asrwt>
<pdfrwt beam="1">  1       21 0.30041787E-01 0.23595688E+03</pdfrwt>
<pdfrwt beam="2">  1       21 0.40132089E-01 0.23595688E+03</pdfrwt>
<totfact> 0.62409753E+04</totfact>
</mgrwt>
</event>
<event>
 4    0  0.1799367E-001  0.3107793E+03  0.7546771E-02  0.1079973E+00
         21   -1    0    0  503  501  0.00000000000E+00  0.00000000000E+00  0.35760506517E+03  0.35760506517E+03  0.00000000000E+00 0. -1.
         21   -1    0    0  501  502 -0.00000000000E+00 -0.00000000000E+00 -0.98208335290E+03  0.98208335290E+03  0.00000000000E+00 0.  1.
         25    1    1    2    0    0 -0.26482520720E+03 -0.10404992132E+03  0.26336686188E+03  0.40736455471E+03  0.12500000000E+03 0.  0.
         21    1    1    2  503  502  0.26482520720E+03  0.10404992132E+03 -0.88784514962E+03  0.93232386336E+03  0.00000000000E+00 0.  1.
<mgrwt>
<rscale>  3 0.31077931E+03</rscale>
<asrwt>0</asrwt>
<pdfrwt beam="1">  1       21 0.55016164E-01 0.31077931E+03</pdfrwt>
<pdfrwt beam="2">  1       21 0.15108975E+00 0.31077931E+03</pdfrwt>
<totfact> 0.82761587E+02</totfact>
</mgrwt>
</event>
<event>
 4    0  0.1003929E-001  0.2967044E+03  0.7546771E-02  0.1086900E+00
         21   -1    0    0  503  501  0.00000000000E+00  0.00000000000E+00  0.18621119207E+03  0.18621119207E+03  0.00000000000E+00 0.  1.
         21   -1    0    0  501  502 -0.00000000000E+00 -0.00000000000E+00 -0.43040565328E+03  0.43040565328E+03  0.00000000000E+00 0. -1.
         25    1    1    2    0    0 -0.26907383440E+03 -0.27877625205E+01 -0.11633214814E+03  0.31869525988E+03  0.12500000000E+03 0.  0.
         21    1    1    2  503  502  0.26907383440E+03  0.27877625205E+01 -0.12786231308E+03  0.29792158546E+03  0.00000000000E+00 0. -1.
<mgrwt>
<rscale>  3 0.29670440E+03</rscale>
<asrwt>0</asrwt>
<pdfrwt beam="1">  1       21 0.28647876E-01 0.29670440E+03</pdfrwt>
<pdfrwt beam="2">  1       21 0.66216254E-01 0.29670440E+03</pdfrwt>
<totfact> 0.23199076E+04</totfact>
</mgrwt>
</event>
<event>
 4    0  0.1621496E-001  0.2692204E+03  0.7546771E-02  0.1101727E+00
         21   -1    0    0  503  501  0.00000000000E+00  0.00000000000E+00  0.47701940238E+03  0.47701940238E+03  0.00000000000E+00 0. -1.
         21   -1    0    0  501  502 -0.00000000000E+00 -0.00000000000E+00 -0.18637718959E+03  0.18637718959E+03  0.00000000000E+00 0. -1.
         25    1    1    2    0    0 -0.16524639116E+03 -0.17189599690E+03  0.32551149551E+03  0.42241843857E+03  0.12500000000E+03 0.  0.
         21    1    1    2  503  502  0.16524639116E+03  0.17189599690E+03 -0.34869282719E+02  0.24097815340E+03  0.00000000000E+00 0. -1.
<mgrwt>
<rscale>  3 0.26922036E+03</rscale>
<asrwt>0</asrwt>
<pdfrwt beam="1">  1       21 0.73387600E-01 0.26922036E+03</pdfrwt>
<pdfrwt beam="2">  1       21 0.28673414E-01 0.26922036E+03</pdfrwt>
<totfact> 0.18637189E+04</totfact>
</mgrwt>
</event>
<event>
 4    0  0.1003929E-001  0.3310334E+03  0.7546771E-02  0.1070681E+00
         21   -1    0    0  503  501  0.00000000000E+00  0.00000000000E+00  0.12949889685E+04  0.12949889685E+04  0.00000000000E+00 0.  1.
         21   -1    0    0  501  502 -0.00000000000E+00 -0.00000000000E+00 -0.95565377270E+02  0.95565377270E+02  0.00000000000E+00 0.  1.
         25    1    1    2    0    0 -0.24659519077E+03 -0.18206839912E+03  0.32476970821E+03  0.46374395246E+03  0.12500000000E+03 0.  0.
         21    1    1    2  503  502  0.24659519077E+03  0.18206839912E+03  0.87465388303E+03  0.92681039332E+03  0.00000000000E+00 0.  1.
<mgrwt>
<rscale>  3 0.33103337E+03</rscale>
<asrwt>0</asrwt>
<pdfrwt beam="1">  1       21 0.19922906E+00 0.33103337E+03</pdfrwt>
<pdfrwt beam="2">  1       21 0.14702367E-01 0.33103337E+03</pdfrwt>
<totfact> 0.50122700E+03</totfact>
</mgrwt>
</event>
<event>
 4    0  0.1141460E-001  0.2361047E+03  0.7546771E-02  0.1122415E+00
         21   -1    0    0  503  501  0.00000000000E+00  0.00000000000E+00  0.18104333048E+04  0.18104333048E+04  0.00000000000E+00 0.  1.
         21   -1    0    0  501  502 -0.00000000000E+00 -0.00000000000E+00 -0.49058650953E+02  0.49058650953E+02  0.00000000000E+00 0. -1.
         25    1    1    2    0    0  0.20025588236E+03  0.42426082247E+01  0.15515487003E+04  0.15694103312E+04  0.12500000000E+03 0.  0.
         21    1    1    2  503  502 -0.20025588236E+03 -0.42426082247E+01  0.20982595353E+03  0.29008162458E+03  0.00000000000E+00 0. -1.
<mgrwt>
<rscale>  3 0.23610468E+03</rscale>
<asrwt>0</asrwt>
<pdfrwt beam="1">  1       21 0.27852815E+00 0.23610468E+03</pdfrwt>
<pdfrwt beam="2">  1       21 0.75474861E-02 0.23610468E+03</pdfrwt>
<totfact> 0.57692841E+03</totfact>
</mgrwt>
</event>
<event>
 4    0  0.1425455E-001  0.2458828E+03  0.7546771E-02  0.1115935E+00
         21   -1    0    0  502  501  0.00000000000E+00  0.00000000000E+00  0.78451749488E+03  0.78451749488E+03  0.00000000000E+00 0. -1.
         21   -1    0    0  503  502 -0.00000000000E+00 -0.00000000000E+00 -0.71444371123E+02  0.71444371123E+02  0.00000000000E+00 0. -1.
         25    1    1    2    0    0  0.21062527088E+03 -0.21687254641E+02  0.49098514753E+03  0.54911269958E+03  0.12500000000E+03 0.  0.
         21    1    1    2  503  501 -0.21062527088E+03  0.21687254641E+02  0.22208797622E+03  0.30684916641E+03  0.00000000000E+00 0. -1.
<mgrwt>
<rscale>  3 0.24588278E+03</rscale>
<asrwt>0</asrwt>
<pdfrwt beam="1">  1       21 0.12069499E+00 0.24588278E+03</pdfrwt>
<pdfrwt beam="2">  1       21 0.10991442E-01 0.24588278E+03</pdfrwt>
<totfact> 0.34738401E+04</totfact>
</mgrwt>
</event>
<event>
 4    0  0.1016215E-001  0.4173278E+03  0.7546771E-02  0.1037940E+00
         21   -1    0    0  503  501  0.00000000000E+00  0.00000000000E+00  0.11881021350E+04  0.11881021350E+04  0.00000000000E+00 0.  1.
         21   -1    0    0  501  502 -0.00000000000E+00 -0.00000000000E+00 -0.19113993271E+03  0.19113993271E+03  0.00000000000E+00 0.  1.
         25    1    1    2    0    0 -0.73443499716E+02 -0.39133554105E+03  0.86391640038E+03  0.95943420837E+03  0.12500000000E+03 0.  0.
         21    1    1    2  503  502  0.73443499716E+02  0.39133554105E+03  0.13304580186E+03  0.41980785930E+03  0.00000000000E+00 0.  1.
<mgrwt>
<rscale>  3 0.41732775E+03</rscale>
<asrwt>0</asrwt>
<pdfrwt beam="1">  1       21 0.18278494E+00 0.41732775E+03</pdfrwt>
<pdfrwt beam="2">  1       21 0.29406144E-01 0.41732775E+03</pdfrwt>
<totfact> 0.16572591E+03</totfact>
</mgrwt>
</event>
<event>
 4    0  0.1003929E-001  0.3069096E+03  0.7546771E-02  0.1081837E+00
         21   -1    0    0  503  501  0.00000000000E+00  0.00000000000E+00  0.23977390532E+03  0.23977390532E+03  0.00000000000E+00 0. -1.
         21   -1    0    0  501  502 -0.00000000000E+00 -0.00000000000E+00 -0.40319210654E+03  0.40319210654E+03  0.00000000000E+00 0.  1.
         25    1    1    2    0    0 -0.27785245371E+03  0.36966562921E+02  0.20694463405E+02  0.30760652402E+03  0.12500000000E+03 0.  0.
         21    1    1    2  503  502  0.27785245371E+03 -0.36966562921E+02 -0.18411266462E+03  0.33535948783E+03  0.00000000000E+00 0.  1.
<mgrwt>
<rscale>  3 0.30690962E+03</rscale>
<asrwt>0</asrwt>
<pdfrwt beam="1">  1       21 0.36888293E-01 0.30690962E+03</pdfrwt>
<pdfrwt beam="2">  1       21 0.62029554E-01 0.30690962E+03</pdfrwt>
<totfact> 0.16130768E+04</totfact>
</mgrwt>
</event>
<event>
 4    0  0.1471567E-001  0.2533147E+03  0.7546771E-02  0.1111228E+00
         21   -1    0    0  503  501  0.00000000000E+00  0.00000000000E+00  0.30838315878E+03  0.30838315878E+03  0.00000000000E+00 0.  1.
         21   -1    0    0  501  502 -0.00000000000E+00 -0.00000000000E+00 -0.19525359335E+03  0.19525359335E+03  0.00000000000E+00 0.  1.
         25    1    1    2    0    0  0.18736466804E+03  0.11592155091E+03  0.12602898236E+03  0.28293396613E+03  0.12500000000E+03 0.  0.
         21    1    1    2  503  502 -0.18736466804E+03 -0.11592155091E+03 -0.12899416936E+02  0.22070278600E+03  0.00000000000E+00 0.  1.
<mgrwt>
<rscale>  3 0.25331468E+03</rscale>
<asrwt>0</asrwt>
<pdfrwt beam="1">  1       21 0.47443563E-01 0.25331468E+03</pdfrwt>
<pdfrwt beam="2">  1       21 0.30039014E-01 0.25331468E+03</pdfrwt>
<totfact> 0.43936158E+04</totfact>
</mgrwt>
</event>
<event>
 4    0  0.1454730E-001  0.3425466E+03  0.7546771E-02  0.1065716E+00
         21   -1    0    0  502  501  0.00000000000E+00  0.00000000000E+00  0.54638012527E+03  0.54638012527E+03  0.00000000000E+00 0.  1.
         21   -1    0    0  503  502 -0.00000000000E+00 -0.00000000000E+00 -0.39869917780E+03  0.39869917780E+03  0.00000000000E+00 0. -1.
         25    1    1    2    0    0 -0.10757098148E+03  0.30023601226E+03  0.40847895595E+03  0.53309777393E+03  0.12500000000E+03 0.  0.
         21    1    1    2  503  501  0.10757098148E+03 -0.30023601226E+03 -0.26079800849E+03  0.41198152913E+03  0.00000000000E+00 0. -1.
<mgrwt>
<rscale>  3 0.34254661E+03</rscale>
<asrwt>0</asrwt>
<pdfrwt beam="1">  1       21 0.84058481E-01 0.34254661E+03</pdfrwt>
<pdfrwt beam="2">  1       21 0.61338335E-01 0.34254661E+03</pdfrwt>
<totfact> 0.27577019E+03</totfact>
</mgrwt>
</event>
<event>
 4    0  0.1456269E-001  0.2552586E+03  0.7546771E-02  0.1110026E+00
         21   -1    0    0  503  501  0.00000000000E+00  0.00000000000E+00  0.37268126201E+03  0.37268126201E+03  0.00000000000E+00 0.  1.
         21   -1    0    0  501  502 -0.00000000000E+00 -0.00000000000E+00 -0.19785033795E+03  0.19785033795E+03  0.00000000000E+00 0.  1.
         25    1    1    2    0    0  0.20493446114E+03  0.86797562170E+02  0.22738927622E+03  0.34185206318E+03  0.12500000000E+03 0.  0.
         21    1    1    2  503  502 -0.20493446114E+03 -0.86797562170E+02 -0.52558352158E+02  0.22867953678E+03  0.00000000000E+00 0.  1.
<mgrwt>
<rscale>  3 0.25525859E+03</rscale>
<asrwt>0</asrwt>
<pdfrwt beam="1">  1       21 0.57335579E-01 0.25525859E+03</pdfrwt>
<pdfrwt beam="2">  1       21 0.30438514E-01 0.25525859E+03</pdfrwt>
<totfact> 0.28667778E+04</totfact>
</mgrwt>
</event>
<event>
 4    0  0.1003929E-001  0.4374713E+03  0.7546771E-02  0.1031526E+00
         21   -1    0    0  502  501  0.00000000000E+00  0.00000000000E+00  0.74444893042E+03  0.74444893042E+03  0.00000000000E+00 0. -1.
         21   -1    0    0  503  502 -0.00000000000E+00 -0.00000000000E+00 -0.29940096486E+03  0.29940096486E+03  0.00000000000E+00 0.  1.
         25    1    1    2    0    0  0.41314981114E+03  0.71157249588E+02  0.44583013956E+03  0.62461638944E+03  0.12500000000E+03 0.  0.
         21    1    1    2  503  501 -0.41314981114E+03 -0.71157249588E+02 -0.78217400593E+00  0.41923350583E+03  0.00000000000E+00 0.  1.
<mgrwt>
<rscale>  3 0.43747128E+03</rscale>
<asrwt>0</asrwt>
<pdfrwt beam="1">  1       21 0.11453060E+00 0.43747128E+03</pdfrwt>
<pdfrwt beam="2">  1       21 0.46061687E-01 0.43747128E+03</pdfrwt>
<totfact> 0.23207395E+03</totfact>
</mgrwt>
</event>
<event>
 4    0  0.1184028E-001  0.2390728E+03  0.7546771E-02  0.1120412E+00
         21   -1    0    0  503  501  0.00000000000E+00  0.00000000000E+00  0.70365542367E+03  0.70365542367E+03  0.00000000000E+00 0.  1.
         21   -1    0    0  501  502 -0.00000000000E+00 -0.00000000000E+00 -0.71893361633E+02  0.71893361633E+02  0.00000000000E+00 0.  1.
         25    1    1    2    0    0 -0.16238643067E+03  0.12313189936E+03  0.27247311133E+03  0.36248781208E+03  0.12500000000E+03 0.  0.
         21    1    1    2  503  502  0.16238643067E+03 -0.12313189936E+03  0.35928895070E+03  0.41306097322E+03  0.00000000000E+00 0.  1.
<mgrwt>
<rscale>  3 0.23907283E+03</rscale>
<asrwt>0</asrwt>
<pdfrwt beam="1">  1       21 0.10825468E+00 0.23907283E+03</pdfrwt>
<pdfrwt beam="2">  1       21 0.11060518E-01 0.23907283E+03</pdfrwt>
<totfact> 0.45021202E+04</totfact>
</mgrwt>
</event>
<event>
 4    0  0.1003929E-001  0.2684247E+03  0.7546771E-02  0.1102185E+00
         21   -1    0    0  502  501  0.00000000000E+00  0.00000000000E+00  0.12875851056E+03  0.12875851056E+03  0.00000000000E+00 0. -1.
         21   -1    0    0  503  502 -0.00000000000E+00 -0.00000000000E+00 -0.59635821087E+03  0.59635821087E+03  0.00000000000E+00 0.  1.
         25    1    1    2    0    0 -0.36323647686E+02 -0.23474971760E+03 -0.39340576495E+03  0.47625616342E+03  0.12500000000E+03 0.  0.
         21    1    1    2  503  501  0.36323647686E+02  0.23474971760E+03 -0.74193935356E+02  0.24886055802E+03  0.00000000000E+00 0.  1.
<mgrwt>
<rscale>  3 0.26842473E+03</rscale>
<asrwt>0</asrwt>
<pdfrwt beam="1">  1       21 0.19809002E-01 0.26842473E+03</pdfrwt>
<pdfrwt beam="2">  1       21 0.91747416E-01 0.26842473E+03</pdfrwt>
<totfact> 0.22691859E+04</totfact>
</mgrwt>
</event>
<event>
 4    0  0.1003929E-001  0.3642215E+03  0.7546771E-02  0.1056925E+00
         21   -1    0    0  502  501  0.00000000000E+00  0.00000000000E+00  0.15180913024E+03  0.15180913024E+03  0.00000000000E+00 0.  1.
         21   -1    0    0  503  502 -0.00000000000E+00 -0.00000000000E+00 -0.10503881644E+04  0.10503881644E+04  0.00000000000E+00 0. -1.
         25    1    1    2    0    0 -0.34066722754E+03 -0.31275240033E+02 -0.17985218517E+03  0.40620697812E+03  0.12500000000E+03 0.  0.
         21    1    1    2  503  501  0.34066722754E+03  0.31275240033E+02 -0.71872684902E+03  0.79599031656E+03  0.00000000000E+00 0. -1.
<mgrwt>
<rscale>  3 0.36422150E+03</rscale>
<asrwt>0</asrwt>
<pdfrwt beam="1">  1       21 0.23355251E-01 0.36422150E+03</pdfrwt>
<pdfrwt beam="2">  1       21 0.16159818E+00 0.36422150E+03</pdfrwt>
<totfact> 0.37824222E+03</totfact>
</mgrwt>
</event>
<event>
 4    0  0.1213003E-001  0.2415524E+03  0.7546771E-02  0.1118763E+00
         21   -1    0    0  503  501  0.00000000000E+00  0.00000000000E+00  0.16534019812E+03  0.16534019812E+03  0.00000000000E+00 0. -1.
         21   -1    0    0  501  502 -0.00000000000E+00 -0.00000000000E+00 -0.47888946932E+03  0.47888946932E+03  0.00000000000E+00 0.  1.
         25    1    1    2    0    0 -0.18404631510E+03  0.94071898492E+02  0.29884358230E+02  0.24339400784E+03  0.12500000000E+03 0.  0.
         21    1    1    2  503  502  0.18404631510E+03 -0.94071898492E+02 -0.34343362943E+03  0.40083565960E+03  0.00000000000E+00 0.  1.
<mgrwt>
<rscale>  3 0.24155241E+03</rscale>
<asrwt>0</asrwt>
<pdfrwt beam="1">  1       21 0.25436954E-01 0.24155241E+03</pdfrwt>
<pdfrwt beam="2">  1       21 0.73675303E-01 0.24155241E+03</pdfrwt>
<totfact> 0.23607514E+04</totfact>
</mgrwt>
</event>
<event>
 4    0  0.1003929E-001  0.2657939E+03  0.7546771E-02  0.1103711E+00
         21   -1    0    0  502  501  0.00000000000E+00  0.00000000000E+00  0.50466595898E+02  0.50466595898E+02  0.00000000000E+00 0.  1.
         21   -1    0    0  503  502 -0.00000000000E+00 -0.00000000000E+00 -0.26162787707E+04  0.26162787707E+04  0.00000000000E+00 0.  1.
         25    1    1    2    0    0 -0.15601762943E+03 -0.17515684344E+03 -0.35475370355E+03  0.44327938220E+03  0.12500000000E+03 0.  0.
         21    1    1    2  503  501  0.15601762943E+03  0.17515684344E+03 -0.22110584713E+04  0.22234659844E+04  0.00000000000E+00 0.  1.
<mgrwt>
<rscale>  3 0.26579394E+03</rscale>
<asrwt>0</asrwt>
<pdfrwt beam="1">  1       21 0.77640905E-02 0.26579394E+03</pdfrwt>
<pdfrwt beam="2">  1       21 0.40250449E+00 0.26579394E+03</pdfrwt>
<totfact> 0.96549789E+02</totfact>
</mgrwt>
</event>
<event>
 4    0  0.1189307E-001  0.3581823E+03  0.7546771E-02  0.1059306E+00
         21   -1    0    0  502  501  0.00000000000E+00  0.00000000000E+00  0.16968474696E+03  0.16968474696E+03  0.00000000000E+00 0.  1.
         21   -1    0    0  503  502 -0.00000000000E+00 -0.00000000000E+00 -0.10195334831E+04  0.10195334831E+04  0.00000000000E+00 0.  1.
         25    1    1    2    0    0  0.56549929961E+02  0.33086497317E+03 -0.10663151403E+03  0.37371754686E+03  0.12500000000E+03 0.  0.
         21    1    1    2  503  501 -0.56549929961E+02 -0.33086497317E+03 -0.74321722215E+03  0.81550068323E+03  0.00000000000E+00 0.  1.
<mgrwt>
<rscale>  3 0.35818225E+03</rscale>
<asrwt>0</asrwt>
<pdfrwt beam="1">  1       21 0.26105346E-01 0.35818225E+03</pdfrwt>
<pdfrwt beam="2">  1       21 0.15685130E+00 0.35818225E+03</pdfrwt>
<totfact> 0.33206949E+03</totfact>
</mgrwt>
</event>
<event>
 4    0  0.1158503E-001  0.2536571E+03  0.7546771E-02  0.1111015E+00
         21   -1    0    0  503  501  0.00000000000E+00  0.00000000000E+00  0.25912093185E+03  0.25912093185E+03  0.00000000000E+00 0.  1.
         21   -1    0    0  501  502 -0.00000000000E+00 -0.00000000000E+00 -0.51301852854E+03  0.51301852854E+03  0.00000000000E+00 0.  1.
         25    1    1    2    0    0  0.20002023392E+03  0.93321034551E+02  0.16223016820E+03  0.30109888233E+03  0.12500000000E+03 0.  0.
         21    1    1    2  503  502 -0.20002023392E+03 -0.93321034551E+02 -0.41612776488E+03  0.47104057805E+03  0.00000000000E+00 0.  1.
<mgrwt>
<rscale>  3 0.25365707E+03</rscale>
<asrwt>0</asrwt>
<pdfrwt beam="1">  1       21 0.39864759E-01 0.25365707E+03</pdfrwt>
<pdfrwt beam="2">  1       21 0.78925928E-01 0.25365707E+03</pdfrwt>
<totfact> 0.82690637E+03</totfact>
</mgrwt>
</event>
<event>
 4    0  0.1003929E-001  0.6077197E+03  0.7546771E-02  0.9889518E-01
         21   -1    0    0  503  501  0.00000000000E+00  0.00000000000E+00  0.11167939999E+04  0.11167939999E+04  0.00000000000E+00 0. -1.
         21   -1    0    0  501  502 -0.00000000000E+00 -0.00000000000E+00 -0.87655315944E+03  0.87655315944E+03  0.00000000000E+00 0. -1.
         25    1    1    2    0    0  0.46414534280E+03 -0.37184318241E+03  0.91213925720E+03  0.10960480264E+04  0.12500000000E+03 0.  0.
         21    1    1    2  503  502 -0.46414534280E+03  0.37184318241E+03 -0.67189841677E+03  0.89729913296E+03  0.00000000000E+00 0. -1.
<mgrwt>
<rscale>  3 0.60771971E+03</rscale>
<asrwt>0</asrwt>
<pdfrwt beam="1">  1       21 0.17181446E+00 0.60771971E+03</pdfrwt>
<pdfrwt beam="2">  1       21 0.13485433E+00 0.60771971E+03</pdfrwt>
<totfact> 0.59647207E+01</totfact>
</mgrwt>
</event>
<event>
 4    0  0.1309002E-001  0.2588539E+03  0.7546771E-02  0.1107834E+00
         21   -1    0    0  502  501  0.00000000000E+00  0.00000000000E+00  0.10070989728E+03  0.10070989728E+03  0.00000000000E+00 0. -1.
         21   -1    0    0  503  502 -0.00000000000E+00 -0.00000000000E+00 -0.93889219617E+03  0.93889219617E+03  0.00000000000E+00 0. -1.
         25    1    1    2    0    0  0.10171790754E+03  0.20256807253E+03 -0.11779720578E+03  0.28439679747E+03  0.12500000000E+03 0.  0.
         21    1    1    2  503  501 -0.10171790754E+03 -0.20256807253E+03 -0.72038509310E+03  0.75520529599E+03  0.00000000000E+00 0. -1.
<mgrwt>
<rscale>  3 0.25885393E+03</rscale>
<asrwt>0</asrwt>
<pdfrwt beam="1">  1       21 0.15493830E-01 0.25885393E+03</pdfrwt>
<pdfrwt beam="2">  1       21 0.14444496E+00 0.25885393E+03</pdfrwt>
<totfact> 0.11688800E+04</totfact>
</mgrwt>
</event>
<event>
 4    0  0.1352038E-001  0.3812239E+03  0.7546771E-02  0.1050482E+00
         21   -1    0    0  502  501  0.00000000000E+00  0.00000000000E+00  0.32887833615E+03  0.32887833615E+03  0.00000000000E+00 0. -1.
         21   -1    0    0  503  502 -0.00000000000E+00 -0.00000000000E+00 -0.87398445264E+03  0.87398445264E+03  0.00000000000E+00 0.  1.
         25    1    1    2    0    0  0.29545626261E+03  0.20594235925E+03  0.15816972553E+03  0.41273395853E+03  0.12500000000E+03 0.  0.
         21    1    1    2  503  501 -0.29545626261E+03 -0.20594235925E+03 -0.70327584201E+03  0.79012883026E+03  0.00000000000E+00 0.  1.
<mgrwt>
<rscale>  3 0.38122390E+03</rscale>
<asrwt>0</asrwt>
<pdfrwt beam="1">  1       21 0.50596667E-01 0.38122390E+03</pdfrwt>
<pdfrwt beam="2">  1       21 0.13445915E+00 0.38122390E+03</pdfrwt>
<totfact> 0.12946090E+03</totfact>
</mgrwt>
</event>
<event>
 4    0  0.1388240E-001  0.3407149E+03  0.7546771E-02  0.1066492E+00
         21   -1    0    0  502  501  0.00000000000E+00  0.00000000000E+00  0.73618004754E+03  0.73618004754E+03  0.00000000000E+00 0. -1.
         21   -1    0    0  503  502 -0.00000000000E+00 -0.00000000000E+00 -0.13173963858E+04  0.13173963858E+04  0.00000000000E+00 0.  1.
         25    1    1    2    0    0 -0.26891296890E+03  0.16777206911E+03  0.67600672693E+03  0.75701502420E+03  0.12500000000E+03 0.  0.
         21    1    1    2  503  501  0.26891296890E+03 -0.16777206911E+03 -0.12572230652E+04  0.12965614092E+04  0.00000000000E+00 0.  1.
<mgrwt>
<rscale>  3 0.34071491E+03</rscale>
<asrwt>0</asrwt>
<pdfrwt beam="1">  1       21 0.11325847E+00 0.34071491E+03</pdfrwt>
<pdfrwt beam="2">  1       21 0.20267637E+00 0.34071491E+03</pdfrwt>
<totfact> 0.66678390E+01</totfact>
</mgrwt>
</event>
<event>
 4    0  0.1871172E-001  0.2567046E+03  0.7546771E-02  0.1109140E+00
         21   -1    0    0  502  501  0.00000000000E+00  0.00000000000E+00  0.15228191526E+04  0.15228191526E+04  0.00000000000E+00 0.  1.
         21   -1    0    0  503  502 -0.00000000000E+00 -0.00000000000E+00 -0.19891425895E+03  0.19891425895E+03  0.00000000000E+00 0. -1.
         25    1    1    2    0    0 -0.20701075587E+03  0.86132385263E+02  0.14445084205E+04  0.14671406946E+04  0.12500000000E+03 0.  0.
         21    1    1    2  503  501  0.20701075587E+03 -0.86132385263E+02 -0.12060352686E+03  0.25459271695E+03  0.00000000000E+00 0. -1.
<mgrwt>
<rscale>  3 0.25670458E+03</rscale>
<asrwt>0</asrwt>
<pdfrwt beam="1">  1       21 0.23427986E+00 0.25670458E+03</pdfrwt>
<pdfrwt beam="2">  1       21 0.30602195E-01 0.25670458E+03</pdfrwt>
<totfact> 0.78893249E+02</totfact>
</mgrwt>
</event>
<event>
 4    0  0.1610717E-001  0.2446470E+03  0.7546771E-02  0.1116735E+00
         21   -1    0    0  502  501  0.00000000000E+00  0.00000000000E+00  0.20465775026E+03  0.20465775026E+03  0.00000000000E+00 0. -1.
         21   -1    0    0  503  502 -0.00000000000E+00 -0.00000000000E+00 -0.25300803915E+03  0.25300803915E+03  0.00000000000E+00 0. -1.
         25    1    1    2    0    0  0.77079794325E+02 -0.19566768544E+03 -0.20040783356E+02  0.24546643521E+03  0.12500000000E+03 0.  0.
         21    1    1    2  503  501 -0.77079794325E+02  0.19566768544E+03 -0.28309505530E+02  0.21219935420E+03  0.00000000000E+00 0. -1.
<mgrwt>
<rscale>  3 0.24464697E+03</rscale>
<asrwt>0</asrwt>
<pdfrwt beam="1">  1       21 0.31485808E-01 0.24464697E+03</pdfrwt>
<pdfrwt beam="2">  1       21 0.38924313E-01 0.24464697E+03</pdfrwt>
<totfact> 0.60343604E+04</totfact>
</mgrwt>
</event>
<event>
 4    0  0.1253686E-001  0.2548548E+03  0.7546771E-02  0.1110275E+00
         21   -1    0    0  503  501  0.00000000000E+00  0.00000000000E+00  0.10450712662E+04  0.10450712662E+04  0.00000000000E+00 0.  1.
         21   -1    0    0  501  502 -0.00000000000E+00 -0.00000000000E+00 -0.66445256420E+02  0.66445256420E+02  0.00000000000E+00 0.  1.
         25    1    1    2    0    0  0.16334000366E+03 -0.15048593820E+03  0.75283513037E+03  0.79480293653E+03  0.12500000000E+03 0.  0.
         21    1    1    2  503  502 -0.16334000366E+03  0.15048593820E+03  0.22579087941E+03  0.31671358609E+03  0.00000000000E+00 0.  1.
<mgrwt>
<rscale>  3 0.25485481E+03</rscale>
<asrwt>0</asrwt>
<pdfrwt beam="1">  1       21 0.16078018E+00 0.25485481E+03</pdfrwt>
<pdfrwt beam="2">  1       21 0.10222348E-01 0.25485481E+03</pdfrwt>
<totfact> 0.18648424E+04</totfact>
</mgrwt>
</event>
<event>
 4    0  0.1117099E-001  0.2378190E+03  0.7546771E-02  0.1121254E+00
         21   -1    0    0  503  501  0.00000000000E+00  0.00000000000E+00  0.10842825596E+04  0.10842825596E+04  0.00000000000E+00 0.  1.
         21   -1    0    0  501  502 -0.00000000000E+00 -0.00000000000E+00 -0.13586568008E+03  0.13586568008E+03  0.00000000000E+00 0.  1.
         25    1    1    2    0    0  0.17740723103E+03  0.97260117724E+02  0.98608082500E+03  0.10143536117E+04  0.12500000000E+03 0.  0.
         21    1    1    2  503  502 -0.17740723103E+03 -0.97260117724E+02 -0.37663945483E+02  0.20579462799E+03  0.00000000000E+00 0.  1.
<mgrwt>
<rscale>  3 0.23781896E+03</rscale>
<asrwt>0</asrwt>
<pdfrwt beam="1">  1       21 0.16681270E+00 0.23781896E+03</pdfrwt>
<pdfrwt beam="2">  1       21 0.20902413E-01 0.23781896E+03</pdfrwt>
<totfact> 0.46048662E+03</totfact>
</mgrwt>
</event>
<event>
 4    0  0.1402622E-001  0.3340767E+03  0.7546771E-02  0.1069347E+00
         21   -1    0    0  503  501  0.00000000000E+00  0.00000000000E+00  0.68723151627E+03  0.68723151627E+03  0.00000000000E+00 0. -1.
         21   -1    0    0  501  502 -0.00000000000E+00 -0.00000000000E+00 -0.20991369635E+03  0.20991369635E+03  0.00000000000E+00 0. -1.
         25    1    1    2    0    0 -0.72430498337E+02  0.30122424171E+03  0.48300532431E+03  0.58728303585E+03  0.12500000000E+03 0.  0.
         21    1    1    2  503  502  0.72430498337E+02 -0.30122424171E+03 -0.56875043938E+01  0.30986217677E+03  0.00000000000E+00 0. -1.
<mgrwt>
<rscale>  3 0.33407667E+03</rscale>
<asrwt>0</asrwt>
<pdfrwt beam="1">  1       21 0.10572792E+00 0.33407667E+03</pdfrwt>
<pdfrwt beam="2">  1       21 0.32294415E-01 0.33407667E+03</pdfrwt>
<totfact> 0.60985517E+03</totfact>
</mgrwt>
</event>
<event>
 4    0  0.1003929E-001  0.4125343E+03  0.7546771E-02  0.1039524E+00
         21   -1    0    0  503  501  0.00000000000E+00  0.00000000000E+00  0.12993574693E+04  0.12993574693E+04  0.00000000000E+00 0. -1.
         21   -1    0    0  501  502 -0.00000000000E+00 -0.00000000000E+00 -0.51388137749E+03  0.51388137749E+03  0.00000000000E+00 0. -1.
         25    1    1    2    0    0 -0.33382350721E+03 -0.20765691341E+03  0.11837730600E+04  0.12535961013E+04  0.12500000000E+03 0.  0.
         21    1    1    2  503  502  0.33382350721E+03  0.20765691341E+03 -0.39829696821E+03  0.55964274545E+03  0.00000000000E+00 0. -1.
<mgrwt>
<rscale>  3 0.41253427E+03</rscale>
<asrwt>0</asrwt>
<pdfrwt beam="1">  1       21 0.19990115E+00 0.41253427E+03</pdfrwt>
<pdfrwt beam="2">  1       21 0.79058674E-01 0.41253427E+03</pdfrwt>
<totfact> 0.15596616E+02</totfact>
</mgrwt>
</event>
<event>
 4    0  0.1158659E-001  0.2728379E+03  0.7546771E-02  0.1099666E+00
         21   -1    0    0  503  501  0.00000000000E+00  0.00000000000E+00  0.21826134790E+04  0.21826134790E+04  0.00000000000E+00 0. -1.
         21   -1    0    0  501  502 -0.00000000000E+00 -0.00000000000E+00 -0.33372549346E+02  0.33372549346E+02  0.00000000000E+00 0. -1.
         25    1    1    2    0    0  0.64905391050E+02  0.23367245578E+03  0.14612154887E+04  0.14864693844E+04  0.12500000000E+03 0.  0.
         21    1    1    2  503  502 -0.64905391050E+02 -0.23367245578E+03  0.68802544103E+03  0.72951664400E+03  0.00000000000E+00 0. -1.
<mgrwt>
<rscale>  3 0.27283791E+03</rscale>
<asrwt>0</asrwt>
<pdfrwt beam="1">  1       21 0.33578658E+00 0.27283791E+03</pdfrwt>
<pdfrwt beam="2">  1       21 0.51342401E-02 0.27283791E+03</pdfrwt>
<totfact> 0.50135689E+03</totfact>
</mgrwt>
</event>
<event>
 4    0  0.1283618E-001  0.3228834E+03  0.7546771E-02  0.1074330E+00
         21   -1    0    0  503  501  0.00000000000E+00  0.00000000000E+00  0.52163031737E+03  0.52163031737E+03  0.00000000000E+00 0.  1.
         21   -1    0    0  501  502 -0.00000000000E+00 -0.00000000000E+00 -0.25071499412E+03  0.25071499412E+03  0.00000000000E+00 0.  1.
         25    1    1    2    0    0 -0.16921802648E+02  0.29722436326E+03  0.33772142393E+03  0.46723594650E+03  0.12500000000E+03 0.  0.
         21    1    1    2  503  502  0.16921802648E+02 -0.29722436326E+03 -0.66806100678E+02  0.30510936499E+03  0.00000000000E+00 0.  1.
<mgrwt>
<rscale>  3 0.32288337E+03</rscale>
<asrwt>0</asrwt>
<pdfrwt beam="1">  1       21 0.80250818E-01 0.32288337E+03</pdfrwt>
<pdfrwt beam="2">  1       21 0.38571538E-01 0.32288337E+03</pdfrwt>
<totfact> 0.82273174E+03</totfact>
</mgrwt>
</event>
<event>
 4    0  0.1342093E-001  0.2471961E+03  0.7546771E-02  0.1115090E+00
         21   -1    0    0  502  501  0.00000000000E+00  0.00000000000E+00  0.87922178358E+02  0.87922178358E+02  0.00000000000E+00 0.  1.
         21   -1    0    0  503  502 -0.00000000000E+00 -0.00000000000E+00 -0.13705979818E+04  0.13705979818E+04  0.00000000000E+00 0. -1.
         25    1    1    2    0    0  0.69830030856E+02  0.20150600886E+03 -0.11698207006E+03  0.27347890144E+03  0.12500000000E+03 0.  0.
         21    1    1    2  503  501 -0.69830030856E+02 -0.20150600886E+03 -0.11656937334E+04  0.11850412587E+04  0.00000000000E+00 0. -1.
<mgrwt>
<rscale>  3 0.24719609E+03</rscale>
<asrwt>0</asrwt>
<pdfrwt beam="1">  1       21 0.13526489E-01 0.24719609E+03</pdfrwt>
<pdfrwt beam="2">  1       21 0.21086123E+00 0.24719609E+03</pdfrwt>
<totfact> 0.51777715E+03</totfact>
</mgrwt>
</event>
<event>
 4    0  0.1520790E-001  0.2983869E+03  0.7546771E-02  0.1086050E+00
         21   -1    0    0  503  501  0.00000000000E+00  0.00000000000E+00  0.35968085010E+03  0.35968085010E+03  0.00000000000E+00 0. -1.
         21   -1    0    0  501  502 -0.00000000000E+00 -0.00000000000E+00 -0.28634379879E+03  0.28634379879E+03  0.00000000000E+00 0. -1.
         25    1    1    2    0    0 -0.22497925958E+03 -0.15097700176E+03  0.18707088385E+03  0.35217926953E+03  0.12500000000E+03 0.  0.
         21    1    1    2  503  502  0.22497925958E+03  0.15097700176E+03 -0.11373383254E+03  0.29384537935E+03  0.00000000000E+00 0. -1.
<mgrwt>
<rscale>  3 0.29838687E+03</rscale>
<asrwt>0</asrwt>
<pdfrwt beam="1">  1       21 0.55335516E-01 0.29838687E+03</pdfrwt>
<pdfrwt beam="2">  1       21 0.44052892E-01 0.29838687E+03</pdfrwt>
<totfact> 0.14416165E+04</totfact>
</mgrwt>
</event>
<event>
 4    0  0.1081806E-001  0.3481512E+03  0.7546771E-02  0.1063376E+00
         21   -1    0    0  502  501  0.00000000000E+00  0.00000000000E+00  0.16983904259E+04  0.16983904259E+04  0.00000000000E+00 0. -1.
         21   -1    0    0  503  502 -0.00000000000E+00 -0.00000000000E+00 -0.80365531938E+02  0.80365531938E+02  0.00000000000E+00 0. -1.
         25    1    1    2    0    0 -0.15571711080E+03  0.28519548239E+03  0.11988923761E+04  0.12484198858E+04  0.12500000000E+03 0.  0.
         21    1    1    2  503  501  0.15571711080E+03 -0.28519548239E+03  0.41913251783E+03  0.53033607201E+03  0.00000000000E+00 0. -1.
<mgrwt>
<rscale>  3 0.34815123E+03</rscale>
<asrwt>0</asrwt>
<pdfrwt beam="1">  1       21 0.26129081E+00 0.34815123E+03</pdfrwt>
<pdfrwt beam="2">  1       21 0.12363929E-01 0.34815123E+03</pdfrwt>
<totfact> 0.27932692E+03</totfact>
</mgrwt>
</event>
<event>
 4    0  0.1176452E-001  0.2784776E+03  0.7546771E-02  0.1096523E+00
         21   -1    0    0  502  501  0.00000000000E+00  0.00000000000E+00  0.14078746754E+04  0.14078746754E+04  0.00000000000E+00 0.  1.
         21   -1    0    0  503  502 -0.00000000000E+00 -0.00000000000E+00 -0.51892785236E+02  0.51892785236E+02  0.00000000000E+00 0.  1.
         25    1    1    2    0    0 -0.22829674429E+03 -0.99021980231E+02  0.87468189460E+03  0.91794235808E+03  0.12500000000E+03 0.  0.
         21    1    1    2  503  501  0.22829674429E+03  0.99021980231E+02  0.48129999553E+03  0.54182510252E+03  0.00000000000E+00 0.  1.
<mgrwt>
<rscale>  3 0.27847757E+03</rscale>
<asrwt>0</asrwt>
<pdfrwt beam="1">  1       21 0.21659607E+00 0.27847757E+03</pdfrwt>
<pdfrwt beam="2">  1       21 0.79835065E-02 0.27847757E+03</pdfrwt>
<totfact> 0.11947911E+04</totfact>
</mgrwt>
</event>
<event>
 4    0  0.1456732E-001  0.2436454E+03  0.7546771E-02  0.1117388E+00
         21   -1    0    0  503  501  0.00000000000E+00  0.00000000000E+00  0.22736715117E+03  0.22736715117E+03  0.00000000000E+00 0.  1.
         21   -1    0    0  501  502 -0.00000000000E+00 -0.00000000000E+00 -0.24029595248E+03  0.24029595248E+03  0.00000000000E+00 0.  1.
         25    1    1    2    0    0  0.90613643401E+02 -0.18848668592E+03  0.51096687363E+02  0.24894564587E+03  0.12500000000E+03 0.  0.
         21    1    1    2  503  502 -0.90613643401E+02  0.18848668592E+03 -0.64025488671E+02  0.21871745778E+03  0.00000000000E+00 0.  1.
<mgrwt>
<rscale>  3 0.24364536E+03</rscale>
<asrwt>0</asrwt>
<pdfrwt beam="1">  1       21 0.34979561E-01 0.24364536E+03</pdfrwt>
<pdfrwt beam="2">  1       21 0.36968608E-01 0.24364536E+03</pdfrwt>
<totfact> 0.54363076E+04</totfact>
</mgrwt>
</event>
<event>
 4    0  0.1556822E-001  0.2787603E+03  0.7546771E-02  0.1096368E+00
         21   -1    0    0  502  501  0.00000000000E+00  0.00000000000E+00  0.29220894385E+03  0.29220894385E+03  0.00000000000E+00 0.  1.
         21   -1    0    0  503  502 -0.00000000000E+00 -0.00000000000E+00 -0.23935115589E+03  0.23935115589E+03  0.00000000000E+00 0.  1.
         25    1    1    2    0    0 -0.16647183599E+03 -0.18539001235E+03  0.44230507004E+02  0.28224752719E+03  0.12500000000E+03 0.  0.
         21    1    1    2  503  501  0.16647183599E+03  0.18539001235E+03  0.86272809563E+01  0.24931257255E+03  0.00000000000E+00 0.  1.
<mgrwt>
<rscale>  3 0.27876034E+03</rscale>
<asrwt>0</asrwt>
<pdfrwt beam="1">  1       21 0.44955222E-01 0.27876034E+03</pdfrwt>
<pdfrwt beam="2">  1       21 0.36823254E-01 0.27876034E+03</pdfrwt>
<totfact> 0.32451973E+04</totfact>
</mgrwt>
</event>
<event>
 4    0  0.1148706E-001  0.2940980E+03  0.7546771E-02  0.1088229E+00
         21   -1    0    0  502  501  0.00000000000E+00  0.00000000000E+00  0.69675046251E+03  0.69675046251E+03  0.00000000000E+00 0. -1.
         21   -1    0    0  503  502 -0.00000000000E+00 -0.00000000000E+00 -0.25195130945E+03  0.25195130945E+03  0.00000000000E+00 0. -1.
         25    1    1    2    0    0 -0.17123624310E+03  0.20383033764E+03  0.57986800340E+03  0.65018501895E+03  0.12500000000E+03 0.  0.
         21    1    1    2  503  501  0.17123624310E+03 -0.20383033764E+03 -0.13506885035E+03  0.29851675301E+03  0.00000000000E+00 0. -1.
<mgrwt>
<rscale>  3 0.29409804E+03</rscale>
<asrwt>0</asrwt>
<pdfrwt beam="1">  1       21 0.10719238E+00 0.29409804E+03</pdfrwt>
<pdfrwt beam="2">  1       21 0.38761740E-01 0.29409804E+03</pdfrwt>
<totfact> 0.41669960E+03</totfact>
</mgrwt>
</event>
<event>
 4    0  0.1347275E-001  0.2755833E+03  0.7546771E-02  0.1098126E+00
         21   -1    0    0  502  501  0.00000000000E+00  0.00000000000E+00  0.25265845579E+03  0.25265845579E+03  0.00000000000E+00 0. -1.
         21   -1    0    0  503  502 -0.00000000000E+00 -0.00000000000E+00 -0.27768724338E+03  0.27768724338E+03  0.00000000000E+00 0. -1.
         25    1    1    2    0    0  0.32686125195E+02 -0.24341896776E+03 -0.60633164968E+02  0.28217469294E+03  0.12500000000E+03 0.  0.
         21    1    1    2  503  501 -0.32686125195E+02  0.24341896776E+03  0.35604377377E+02  0.24817100623E+03  0.00000000000E+00 0. -1.
<mgrwt>
<rscale>  3 0.27558334E+03</rscale>
<asrwt>0</asrwt>
<pdfrwt beam="1">  1       21 0.38870532E-01 0.27558334E+03</pdfrwt>
<pdfrwt beam="2">  1       21 0.42721114E-01 0.27558334E+03</pdfrwt>
<totfact> 0.32357015E+04</totfact>
</mgrwt>
</event>
<event>
 4    0  0.1003929E-001  0.2547933E+03  0.7546771E-02  0.1110312E+00
         21   -1    0    0  503  501  0.00000000000E+00  0.00000000000E+00  0.35747141281E+02  0.35747141281E+02  0.00000000000E+00 0. -1.
         21   -1    0    0  501  502 -0.00000000000E+00 -0.00000000000E+00 -0.16257836581E+04  0.16257836581E+04  0.00000000000E+00 0.  1.
         25    1    1    2    0    0  0.21919353350E+03  0.35338664829E+02 -0.72552275961E+03  0.76896222344E+03  0.12500000000E+03 0.  0.
         21    1    1    2  503  502 -0.21919353350E+03 -0.35338664829E+02 -0.86451375720E+03  0.89256857594E+03  0.00000000000E+00 0.  1.
<mgrwt>
<rscale>  3 0.25479330E+03</rscale>
<asrwt>0</asrwt>
<pdfrwt beam="1">  1       21 0.54995608E-02 0.25479330E+03</pdfrwt>
<pdfrwt beam="2">  1       21 0.25012054E+00 0.25479330E+03</pdfrwt>
<totfact> 0.14446824E+04</totfact>
</mgrwt>
</event>
<event>
 4    0  0.1500305E-001  0.2604168E+03  0.7546771E-02  0.1106893E+00
         21   -1    0    0  502  501  0.00000000000E+00  0.00000000000E+00  0.21056881484E+03  0.21056881484E+03  0.00000000000E+00 0.  1.
         21   -1    0    0  503  502 -0.00000000000E+00 -0.00000000000E+00 -0.58765824228E+03  0.58765824228E+03  0.00000000000E+00 0. -1.
         25    1    1    2    0    0 -0.70103345631E+02 -0.21743375616E+03  0.92222207915E+02  0.27626410013E+03  0.12500000000E+03 0.  0.
         21    1    1    2  503  501  0.70103345631E+02  0.21743375616E+03 -0.46931163535E+03  0.52196295699E+03  0.00000000000E+00 0. -1.
<mgrwt>
<rscale>  3 0.26041681E+03</rscale>
<asrwt>0</asrwt>
<pdfrwt beam="1">  1       21 0.32395203E-01 0.26041681E+03</pdfrwt>
<pdfrwt beam="2">  1       21 0.90408959E-01 0.26041681E+03</pdfrwt>
<totfact> 0.91345609E+03</totfact>
</mgrwt>
</event>
<event>
 4    0  0.1011887E-001  0.4494939E+03  0.7546771E-02  0.1027873E+00
         21   -1    0    0  503  501  0.00000000000E+00  0.00000000000E+00  0.20145479591E+04  0.20145479591E+04  0.00000000000E+00 0.  1.
         21   -1    0    0  501  502 -0.00000000000E+00 -0.00000000000E+00 -0.49587864018E+03  0.49587864018E+03  0.00000000000E+00 0. -1.
         25    1    1    2    0    0 -0.40644014042E+03 -0.14569196919E+03  0.18889114985E+04  0.19416568664E+04  0.12500000000E+03 0.  0.
         21    1    1    2  503  502  0.40644014042E+03  0.14569196919E+03 -0.37024217951E+03  0.56876973295E+03  0.00000000000E+00 0. -1.
<mgrwt>
<rscale>  3 0.44949387E+03</rscale>
<asrwt>0</asrwt>
<pdfrwt beam="1">  1       21 0.30993045E+00 0.44949387E+03</pdfrwt>
<pdfrwt beam="2">  1       21 0.76289023E-01 0.44949387E+03</pdfrwt>
<totfact> 0.34540631E+01</totfact>
</mgrwt>
</event>
<event>
 4    0  0.1143770E-001  0.3506358E+03  0.7546771E-02  0.1062354E+00
         21   -1    0    0  503  501  0.00000000000E+00  0.00000000000E+00  0.36689241802E+03  0.36689241802E+03  0.00000000000E+00 0.  1.
         21   -1    0    0  501  502 -0.00000000000E+00 -0.00000000000E+00 -0.66617804068E+03  0.66617804068E+03  0.00000000000E+00 0.  1.
         25    1    1    2    0    0  0.22600699125E+03 -0.23715252126E+03  0.22372551567E+03  0.41593098562E+03  0.12500000000E+03 0.  0.
         21    1    1    2  503  502 -0.22600699125E+03  0.23715252126E+03 -0.52301113832E+03  0.61713947309E+03  0.00000000000E+00 0.  1.
<mgrwt>
<rscale>  3 0.35063582E+03</rscale>
<asrwt>0</asrwt>
<pdfrwt beam="1">  1       21 0.56444988E-01 0.35063582E+03</pdfrwt>
<pdfrwt beam="2">  1       21 0.10248893E+00 0.35063582E+03</pdfrwt>
<totfact> 0.20567082E+03</totfact>
</mgrwt>
</event>
<event>
 4    0  0.1506586E-001  0.2711019E+03  0.7546771E-02  0.1100651E+00
         21   -1    0    0  502  501  0.00000000000E+00  0.00000000000E+00  0.10280853571E+04  0.10280853571E+04  0.00000000000E+00 0. -1.
         21   -1    0    0  503  502 -0.00000000000E+00 -0.00000000000E+00 -0.64322833342E+02  0.64322833342E+02  0.00000000000E+00 0. -1.
         25    1    1    2    0    0 -0.66199044891E+02  0.23127668168E+03  0.56558614844E+03  0.62720324325E+03  0.12500000000E+03 0.  0.
         21    1    1    2  503  501  0.66199044891E+02 -0.23127668168E+03  0.39817637532E+03  0.46520494720E+03  0.00000000000E+00 0. -1.
<mgrwt>
<rscale>  3 0.27110186E+03</rscale>
<asrwt>0</asrwt>
<pdfrwt beam="1">  1       21 0.15816697E+00 0.27110186E+03</pdfrwt>
<pdfrwt beam="2">  1       21 0.98958213E-02 0.27110186E+03</pdfrwt>
<totfact> 0.20485060E+04</totfact>
</mgrwt>
</event>
<event>
 4    0  0.1023655E-001  0.2723138E+03  0.7546771E-02  0.1099963E+00
         21   -1    0    0  503  501  0.00000000000E+00  0.00000000000E+00  0.92348620544E+03  0.92348620544E+03  0.00000000000E+00 0.  1.
         21   -1    0    0  501  502 -0.00000000000E+00 -0.00000000000E+00 -0.20482742338E+04  0.20482742338E+04  0.00000000000E+00 0. -1.
         25    1    1    2    0    0 -0.22132809314E+03  0.97691865765E+02  0.89603836431E+03  0.93650391124E+03  0.12500000000E+03 0.  0.
         21    1    1    2  503  502  0.22132809314E+03 -0.97691865765E+02 -0.20208263927E+04  0.20352565280E+04  0.00000000000E+00 0. -1.
<mgrwt>
<rscale>  3 0.27231384E+03</rscale>
<asrwt>0</asrwt>
<pdfrwt beam="1">  1       21 0.14207480E+00 0.27231384E+03</pdfrwt>
<pdfrwt beam="2">  1       21 0.31511911E+00 0.27231384E+03</pdfrwt>
<totfact> 0.84007005E+00</totfact>
</mgrwt>
</event>
<event>
 4    0  0.1003929E-001  0.3269381E+03  0.7546771E-02  0.1072500E+00
         21   -1    0    0  503  501  0.00000000000E+00  0.00000000000E+00  0.76808312855E+03  0.76808312855E+03  0.00000000000E+00 0.  1.
         21   -1    0    0  501  502 -0.00000000000E+00 -0.00000000000E+00 -0.36118054082E+03  0.36118054082E+03  0.00000000000E+00 0.  1.
         25    1    1    2    0    0 -0.21572407179E+03  0.21148681703E+03  0.65910017126E+03  0.73573200602E+03  0.12500000000E+03 0.  0.
         21    1    1    2  503  502  0.21572407179E+03 -0.21148681703E+03 -0.25219758353E+03  0.39353166336E+03  0.00000000000E+00 0.  1.
<mgrwt>
<rscale>  3 0.32693814E+03</rscale>
<asrwt>0</asrwt>
<pdfrwt beam="1">  1       21 0.11816663E+00 0.32693814E+03</pdfrwt>
<pdfrwt beam="2">  1       21 0.55566237E-01 0.32693814E+03</pdfrwt>
<totfact> 0.15172953E+03</totfact>
</mgrwt>
</event>
<event>
 4    0  0.1237353E-001  0.2625131E+03  0.7546771E-02  0.1105643E+00
         21   -1    0    0  503  501  0.00000000000E+00  0.00000000000E+00  0.24334912484E+03  0.24334912484E+03  0.00000000000E+00 0.  1.
         21   -1    0    0  501  502 -0.00000000000E+00 -0.00000000000E+00 -0.26772917336E+03  0.26772917336E+03  0.00000000000E+00 0.  1.
         25    1    1    2    0    0 -0.62798305134E+02  0.22213619376E+03 -0.78457311355E+02  0.27398661538E+03  0.12500000000E+03 0.  0.
         21    1    1    2  503  502  0.62798305134E+02 -0.22213619376E+03  0.54077262833E+02  0.23709168282E+03  0.00000000000E+00 0.  1.
<mgrwt>
<rscale>  3 0.26251308E+03</rscale>
<asrwt>0</asrwt>
<pdfrwt beam="1">  1       21 0.37438327E-01 0.26251308E+03</pdfrwt>
<pdfrwt beam="2">  1       21 0.41189104E-01 0.26251308E+03</pdfrwt>
<totfact> 0.37819709E+04</totfact>
</mgrwt>
</event>
<event>
 4    0  0.1753479E-001  0.3058016E+03  0.7546771E-02  0.1082376E+00
         21   -1    0    0  503  501  0.00000000000E+00  0.00000000000E+00  0.20201005185E+03  0.20201005185E+03  0.00000000000E+00 0. -1.
         21   -1    0    0  501  502 -0.00000000000E+00 -0.00000000000E+00 -0.44074514973E+03  0.44074514973E+03  0.00000000000E+00 0. -1.
         25    1    1    2    0    0 -0.26942465957E+03 -0.72800952721E+02 -0.60847266788E+02  0.31179643323E+03  0.12500000000E+03 0.  0.
         21    1    1    2  503  502  0.26942465957E+03  0.72800952721E+02 -0.17788783109E+03  0.33095876835E+03  0.00000000000E+00 0. -1.
<mgrwt>
<rscale>  3 0.30580161E+03</rscale>
<asrwt>0</asrwt>
<pdfrwt beam="1">  1       21 0.31078470E-01 0.30580161E+03</pdfrwt>
<pdfrwt beam="2">  1       21 0.67806946E-01 0.30580161E+03</pdfrwt>
<totfact> 0.18684445E+04</totfact>
</mgrwt>
</event>
<event>
 4    0  0.1385862E-001  0.2510561E+03  0.7546771E-02  0.1112639E+00
         21   -1    0    0  502  501  0.00000000000E+00  0.00000000000E+00  0.63733246354E+03  0.63733246354E+03  0.00000000000E+00 0. -1.
         21   -1    0    0  503  502 -0.00000000000E+00 -0.00000000000E+00 -0.86359108606E+02  0.86359108606E+02  0.00000000000E+00 0. -1.
         25    1    1    2    0    0 -0.11485156317E+03  0.18496826478E+03  0.31046644491E+03  0.39927253093E+03  0.12500000000E+03 0.  0.
         21    1    1    2  503  501  0.11485156317E+03 -0.18496826478E+03  0.24050691002E+03  0.32441904122E+03  0.00000000000E+00 0. -1.
<mgrwt>
<rscale>  3 0.25105605E+03</rscale>
<asrwt>0</asrwt>
<pdfrwt beam="1">  1       21 0.98051145E-01 0.25105605E+03</pdfrwt>
<pdfrwt beam="2">  1       21 0.13286017E-01 0.25105605E+03</pdfrwt>
<totfact> 0.40858663E+04</totfact>
</mgrwt>
</event>
<event>
 4    0  0.1379728E-001  0.2845869E+03  0.7546771E-02  0.1093210E+00
         21   -1    0    0  503  501  0.00000000000E+00  0.00000000000E+00  0.17821334269E+03  0.17821334269E+03  0.00000000000E+00 0.  1.
         21   -1    0    0  501  502 -0.00000000000E+00 -0.00000000000E+00 -0.46346750294E+03  0.46346750294E+03  0.00000000000E+00 0.  1.
         25    1    1    2    0    0 -0.96009435276E+02  0.23695332423E+03 -0.39969876729E+02  0.28738002814E+03  0.12500000000E+03 0.  0.
         21    1    1    2  503  502  0.96009435276E+02 -0.23695332423E+03 -0.24528428353E+03  0.35430081749E+03  0.00000000000E+00 0.  1.
<mgrwt>
<rscale>  3 0.28458688E+03</rscale>
<asrwt>0</asrwt>
<pdfrwt beam="1">  1       21 0.27417438E-01 0.28458688E+03</pdfrwt>
<pdfrwt beam="2">  1       21 0.71302692E-01 0.28458688E+03</pdfrwt>
<totfact> 0.21549523E+04</totfact>
</mgrwt>
</event>
<event>
 4    0  0.1669106E-001  0.2982649E+03  0.7546771E-02  0.1086111E+00
         21   -1    0    0  503  501  0.00000000000E+00  0.00000000000E+00  0.64810418041E+03  0.64810418041E+03  0.00000000000E+00 0.  1.
         21   -1    0    0  501  502 -0.00000000000E+00 -0.00000000000E+00 -0.85615481879E+03  0.85615481879E+03  0.00000000000E+00 0. -1.
         25    1    1    2    0    0 -0.16589508566E+03 -0.21404615099E+03  0.59022063399E+03  0.66130350898E+03  0.12500000000E+03 0.  0.
         21    1    1    2  503  502  0.16589508566E+03  0.21404615099E+03 -0.79827127237E+03  0.84295549022E+03  0.00000000000E+00 0. -1.
<mgrwt>
<rscale>  3 0.29826487E+03</rscale>
<asrwt>0</asrwt>
<pdfrwt beam="1">  1       21 0.99708337E-01 0.29826487E+03</pdfrwt>
<pdfrwt beam="2">  1       21 0.13171612E+00 0.29826487E+03</pdfrwt>
<totfact> 0.31252691E+02</totfact>
</mgrwt>
</event>
<event>
 4    0  0.1568939E-001  0.3258156E+03  0.7546771E-02  0.1073003E+00
         21   -1    0    0  503  501  0.00000000000E+00  0.00000000000E+00  0.42878093212E+03  0.42878093212E+03  0.00000000000E+00 0.  1.
         21   -1    0    0  501  502 -0.00000000000E+00 -0.00000000000E+00 -0.22957341054E+03  0.22957341054E+03  0.00000000000E+00 0.  1.
         25    1    1    2    0    0  0.18642268185E+03  0.23617240841E+03  0.87020810746E+02  0.33723648128E+03  0.12500000000E+03 0.  0.
         21    1    1    2  503  502 -0.18642268185E+03 -0.23617240841E+03  0.11218671083E+03  0.32111786137E+03  0.00000000000E+00 0.  1.
<mgrwt>
<rscale>  3 0.32581563E+03</rscale>
<asrwt>0</asrwt>
<pdfrwt beam="1">  1       21 0.65966297E-01 0.32581563E+03</pdfrwt>
<pdfrwt beam="2">  1       21 0.35318986E-01 0.32581563E+03</pdfrwt>
<totfact> 0.15266319E+04</totfact>
</mgrwt>
</event>
<event>
 4    0  0.1003929E-001  0.3473424E+03  0.7546771E-02  0.1063711E+00
         21   -1    0    0  502  501  0.00000000000E+00  0.00000000000E+00  0.25264482849E+04  0.25264482849E+04  0.00000000000E+00 0. -1.
         21   -1    0    0  503  502 -0.00000000000E+00 -0.00000000000E+00 -0.53704177035E+02  0.53704177035E+02  0.00000000000E+00 0. -1.
         25    1    1    2    0    0 -0.31888097756E+03 -0.57763723520E+02  0.18026477798E+04  0.18358065648E+04  0.12500000000E+03 0.  0.
         21    1    1    2  503  501  0.31888097756E+03  0.57763723520E+02  0.67009632814E+03  0.74434589714E+03  0.00000000000E+00 0. -1.
<mgrwt>
<rscale>  3 0.34734238E+03</rscale>
<asrwt>0</asrwt>
<pdfrwt beam="1">  1       21 0.38868426E+00 0.34734238E+03</pdfrwt>
<pdfrwt beam="2">  1       21 0.82621830E-02 0.34734238E+03</pdfrwt>
<totfact> 0.97961287E+02</totfact>
</mgrwt>
</event>
<event>
 4    0  0.1121716E-001  0.2533006E+03  0.7546771E-02  0.1111236E+00
         21   -1    0    0  502  501  0.00000000000E+00  0.00000000000E+00  0.19593373020E+03  0.19593373020E+03  0.00000000000E+00 0.  1.
         21   -1    0    0  503  502 -0.00000000000E+00 -0.00000000000E+00 -0.34298455481E+03  0.34298455481E+03  0.00000000000E+00 0.  1.
         25    1    1    2    0    0 -0.21134874181E+03 -0.62192592448E+02 -0.18721563135E+03  0.31497762118E+03  0.12500000000E+03 0.  0.
         21    1    1    2  503  501  0.21134874181E+03  0.62192592448E+02  0.40164806739E+02  0.22394066384E+03  0.00000000000E+00 0.  1.
<mgrwt>
<rscale>  3 0.25330063E+03</rscale>
<asrwt>0</asrwt>
<pdfrwt beam="1">  1       21 0.30143651E-01 0.25330063E+03</pdfrwt>
<pdfrwt beam="2">  1       21 0.52766854E-01 0.25330063E+03</pdfrwt>
<totfact> 0.34905423E+04</totfact>
</mgrwt>
</event>
<event>
 4    0  0.1490623E-001  0.2712796E+03  0.7546771E-02  0.1100550E+00
         21   -1    0    0  503  501  0.00000000000E+00  0.00000000000E+00  0.23488361757E+03  0.23488361757E+03  0.00000000000E+00 0.  1.
         21   -1    0    0  501  502 -0.00000000000E+00 -0.00000000000E+00 -0.28272585200E+03  0.28272585200E+03  0.00000000000E+00 0.  1.
         25    1    1    2    0    0  0.12387063677E+03 -0.20645500801E+03  0.40780447958E+01  0.27131021992E+03  0.12500000000E+03 0.  0.
         21    1    1    2  503  502 -0.12387063677E+03  0.20645500801E+03 -0.51920279233E+02  0.24629924965E+03  0.00000000000E+00 0.  1.
<mgrwt>
<rscale>  3 0.27127957E+03</rscale>
<asrwt>0</asrwt>
<pdfrwt beam="1">  1       21 0.36135941E-01 0.27127957E+03</pdfrwt>
<pdfrwt beam="2">  1       21 0.43496285E-01 0.27127957E+03</pdfrwt>
<totfact> 0.36189590E+04</totfact>
</mgrwt>
</event>
<event>
 4    0  0.1177095E-001  0.3144912E+03  0.7546771E-02  0.1078213E+00
         21   -1    0    0  503  501  0.00000000000E+00  0.00000000000E+00  0.14512004810E+04  0.14512004810E+04  0.00000000000E+00 0.  1.
         21   -1    0    0  501  502 -0.00000000000E+00 -0.00000000000E+00 -0.82791769657E+02  0.82791769657E+02  0.00000000000E+00 0.  1.
         25    1    1    2    0    0 -0.28181486768E+03 -0.62129862247E+02  0.10844521028E+04  0.11291328986E+04  0.12500000000E+03 0.  0.
         21    1    1    2  503  502  0.28181486768E+03  0.62129862247E+02  0.28395660860E+03  0.40485935212E+03  0.00000000000E+00 0.  1.
<mgrwt>
<rscale>  3 0.31449124E+03</rscale>
<asrwt>0</asrwt>
<pdfrwt beam="1">  1       21 0.22326159E+00 0.31449124E+03</pdfrwt>
<pdfrwt beam="2">  1       21 0.12737196E-01 0.31449124E+03</pdfrwt>
<totfact> 0.46131217E+03</totfact>
</mgrwt>
</event>
<event>
 4    0  0.1610660E-001  0.2546400E+03  0.7546771E-02  0.1110407E+00
         21   -1    0    0  503  501  0.00000000000E+00  0.00000000000E+00  0.33010727498E+03  0.33010727498E+03  0.00000000000E+00 0. -1.
         21   -1    0    0  501  502 -0.00000000000E+00 -0.00000000000E+00 -0.18064268802E+03  0.18064268802E+03  0.00000000000E+00 0. -1.
         25    1    1    2    0    0 -0.16709564722E+03 -0.14593003116E+03  0.13553859809E+03  0.28846532008E+03  0.12500000000E+03 0.  0.
         21    1    1    2  503  502  0.16709564722E+03  0.14593003116E+03  0.13925988862E+02  0.22228464292E+03  0.00000000000E+00 0. -1.
<mgrwt>
<rscale>  3 0.25464000E+03</rscale>
<asrwt>0</asrwt>
<pdfrwt beam="1">  1       21 0.50785734E-01 0.25464000E+03</pdfrwt>
<pdfrwt beam="2">  1       21 0.27791183E-01 0.25464000E+03</pdfrwt>
<totfact> 0.44328329E+04</totfact>
</mgrwt>
</event>
<event>
 4    0  0.1003929E-001  0.2976624E+03  0.7546771E-02  0.1086415E+00
         21   -1    0    0  503  501  0.00000000000E+00  0.00000000000E+00  0.28288897565E+03  0.28288897565E+03  0.00000000000E+00 0.  1.
         21   -1    0    0  501  502 -0.00000000000E+00 -0.00000000000E+00 -0.40803907140E+03  0.40803907140E+03  0.00000000000E+00 0.  1.
         25    1    1    2    0    0  0.24547716481E+03  0.11277787453E+03 -0.25430036697E+03  0.39149912397E+03  0.12500000000E+03 0.  0.
         21    1    1    2  503  502 -0.24547716481E+03 -0.11277787453E+03  0.12915027122E+03  0.29942892309E+03  0.00000000000E+00 0.  1.
<mgrwt>
<rscale>  3 0.29766237E+03</rscale>
<asrwt>0</asrwt>
<pdfrwt beam="1">  1       21 0.43521381E-01 0.29766237E+03</pdfrwt>
<pdfrwt beam="2">  1       21 0.62775242E-01 0.29766237E+03</pdfrwt>
<totfact> 0.11254528E+04</totfact>
</mgrwt>
</event>
<event>
 4    0  0.1197814E-001  0.2579536E+03  0.7546771E-02  0.1108379E+00
         21   -1    0    0  503  501  0.00000000000E+00  0.00000000000E+00  0.86111683976E+03  0.86111683976E+03  0.00000000000E+00 0.  1.
         21   -1    0    0  501  502 -0.00000000000E+00 -0.00000000000E+00 -0.14615221167E+03  0.14615221167E+03  0.00000000000E+00 0.  1.
         25    1    1    2    0    0 -0.17017205730E+03 -0.14817744496E+03  0.73672439164E+03  0.78057857613E+03  0.12500000000E+03 0.  0.
         21    1    1    2  503  502  0.17017205730E+03  0.14817744496E+03 -0.21759763545E+02  0.22669047529E+03  0.00000000000E+00 0.  1.
<mgrwt>
<rscale>  3 0.25795365E+03</rscale>
<asrwt>0</asrwt>
<pdfrwt beam="1">  1       21 0.13247951E+00 0.25795365E+03</pdfrwt>
<pdfrwt beam="2">  1       21 0.22484956E-01 0.25795365E+03</pdfrwt>
<totfact> 0.72998206E+03</totfact>
</mgrwt>
</event>
<event>
 4    0  0.1003929E-001  0.2588924E+03  0.7546771E-02  0.1107810E+00
         21   -1    0    0  503  501  0.00000000000E+00  0.00000000000E+00  0.89946043820E+02  0.89946043820E+02  0.00000000000E+00 0.  1.
         21   -1    0    0  501  502 -0.00000000000E+00 -0.00000000000E+00 -0.18486560070E+04  0.18486560070E+04  0.00000000000E+00 0.  1.
         25    1    1    2    0    0  0.22671625802E+03 -0.19456193629E+00 -0.12188242170E+03  0.28614790620E+03  0.12500000000E+03 0.  0.
         21    1    1    2  503  502 -0.22671625802E+03  0.19456193629E+00 -0.16368275415E+04  0.16524541447E+04  0.00000000000E+00 0.  1.
<mgrwt>
<rscale>  3 0.25889245E+03</rscale>
<asrwt>0</asrwt>
<pdfrwt beam="1">  1       21 0.13837854E-01 0.25889245E+03</pdfrwt>
<pdfrwt beam="2">  1       21 0.28440860E+00 0.25889245E+03</pdfrwt>
<totfact> 0.17750210E+03</totfact>
</mgrwt>
</event>
<event>
 4    0  0.1253039E-001  0.2643834E+03  0.7546771E-02  0.1104538E+00
         21   -1    0    0  502  501  0.00000000000E+00  0.00000000000E+00  0.48479560372E+03  0.48479560372E+03  0.00000000000E+00 0. -1.
         21   -1    0    0  503  502 -0.00000000000E+00 -0.00000000000E+00 -0.12759934606E+03  0.12759934606E+03  0.00000000000E+00 0. -1.
         25    1    1    2    0    0  0.23168008299E+03  0.24452016219E+02  0.19541034989E+03  0.32876095692E+03  0.12500000000E+03 0.  0.
         21    1    1    2  503  501 -0.23168008299E+03 -0.24452016219E+02  0.16178590777E+03  0.28363399285E+03  0.00000000000E+00 0. -1.
<mgrwt>
<rscale>  3 0.26438336E+03</rscale>
<asrwt>0</asrwt>
<pdfrwt beam="1">  1       21 0.74583938E-01 0.26438336E+03</pdfrwt>
<pdfrwt beam="2">  1       21 0.19630669E-01 0.26438336E+03</pdfrwt>
<totfact> 0.37198987E+04</totfact>
</mgrwt>
</event>
<event>
 4    0  0.1512141E-001  0.2423921E+03  0.7546771E-02  0.1118209E+00
         21   -1    0    0  503  501  0.00000000000E+00  0.00000000000E+00  0.15737232362E+03  0.15737232362E+03  0.00000000000E+00 0.  1.
         21   -1    0    0  501  502 -0.00000000000E+00 -0.00000000000E+00 -0.35012965927E+03  0.35012965927E+03  0.00000000000E+00 0.  1.
         25    1    1    2    0    0 -0.18023068388E+03 -0.10317854533E+03 -0.31210611742E+02  0.24439315439E+03  0.12500000000E+03 0.  0.
         21    1    1    2  503  502  0.18023068388E+03  0.10317854533E+03 -0.16154672390E+03  0.26310882850E+03  0.00000000000E+00 0.  1.
<mgrwt>
<rscale>  3 0.24239206E+03</rscale>
<asrwt>0</asrwt>
<pdfrwt beam="1">  1       21 0.24211127E-01 0.24239206E+03</pdfrwt>
<pdfrwt beam="2">  1       21 0.53866101E-01 0.24239206E+03</pdfrwt>
<totfact> 0.51319728E+04</totfact>
</mgrwt>
</event>
<event>
 4    0  0.1512136E-001  0.3216907E+03  0.7546771E-02  0.1074874E+00
         21   -1    0    0  502  501  0.00000000000E+00  0.00000000000E+00  0.58398171296E+03  0.58398171296E+03  0.00000000000E+00 0.  1.
         21   -1    0    0  503  502 -0.00000000000E+00 -0.00000000000E+00 -0.37055002020E+03  0.37055002020E+03  0.00000000000E+00 0. -1.
         25    1    1    2    0    0 -0.25665297286E+03  0.14828748395E+03  0.46522253937E+03  0.56561200262E+03  0.12500000000E+03 0.  0.
         21    1    1    2  503  501  0.25665297286E+03 -0.14828748395E+03 -0.25179084660E+03  0.38891973055E+03  0.00000000000E+00 0. -1.
<mgrwt>
<rscale>  3 0.32169073E+03</rscale>
<asrwt>0</asrwt>
<pdfrwt beam="1">  1       21 0.89843340E-01 0.32169073E+03</pdfrwt>
<pdfrwt beam="2">  1       21 0.57007696E-01 0.32169073E+03</pdfrwt>
<totfact> 0.27971285E+03</totfact>
</mgrwt>
</event>
<event>
 4    0  0.1352678E-001  0.2368576E+03  0.7546771E-02  0.1121904E+00
         21   -1    0    0  503  501  0.00000000000E+00  0.00000000000E+00  0.60050260225E+03  0.60050260225E+03  0.00000000000E+00 0. -1.
         21   -1    0    0  501  502 -0.00000000000E+00 -0.00000000000E+00 -0.37272688841E+03  0.37272688841E+03  0.00000000000E+00 0. -1.
         25    1    1    2    0    0  0.18638566628E+03 -0.75742242485E+02  0.54689601448E+03  0.59598385427E+03  0.12500000000E+03 0.  0.
         21    1    1    2  503  502 -0.18638566628E+03  0.75742242485E+02 -0.31912030064E+03  0.37724563638E+03  0.00000000000E+00 0. -1.
<mgrwt>
<rscale>  3 0.23685756E+03</rscale>
<asrwt>0</asrwt>
<pdfrwt beam="1">  1       21 0.92385016E-01 0.23685756E+03</pdfrwt>
<pdfrwt beam="2">  1       21 0.57342598E-01 0.23685756E+03</pdfrwt>
<totfact> 0.27242787E+03</totfact>
</mgrwt>
</event>
<event>
 4    0  0.1003929E-001  0.2439007E+03  0.7546771E-02  0.1117221E+00
         21   -1    0    0  503  501  0.00000000000E+00  0.00000000000E+00  0.26276890579E+03  0.26276890579E+03  0.00000000000E+00 0.  1.
         21   -1    0    0  501  502 -0.00000000000E+00 -0.00000000000E+00 -0.23999354197E+04  0.23999354197E+04  0.00000000000E+00 0.  1.
         25    1    1    2    0    0 -0.35959665393E+02 -0.20632366666E+03  0.20046389517E+03  0.31571082690E+03  0.12500000000E+03 0.  0.
         21    1    1    2  503  502  0.35959665393E+02  0.20632366666E+03 -0.23376304091E+04  0.23469934986E+04  0.00000000000E+00 0.  1.
<mgrwt>
<rscale>  3 0.24390070E+03</rscale>
<asrwt>0</asrwt>
<pdfrwt beam="1">  1       21 0.40425986E-01 0.24390070E+03</pdfrwt>
<pdfrwt beam="2">  1       21 0.36922083E+00 0.24390070E+03</pdfrwt>
<totfact> 0.72929045E+01</totfact>
</mgrwt>
</event>
<event>
 4    0  0.1003929E-001  0.2533487E+03  0.7546771E-02  0.1111207E+00
         21   -1    0    0  502  501  0.00000000000E+00  0.00000000000E+00  0.30613024905E+04  0.30613024905E+04  0.00000000000E+00 0.  1.
         21   -1    0    0  503  502 -0.00000000000E+00 -0.00000000000E+00 -0.23300490358E+02  0.23300490358E+02  0.00000000000E+00 0.  1.
         25    1    1    2    0    0 -0.21987621301E+03  0.14663893148E+02  0.23134592664E+04  0.23272901315E+04  0.12500000000E+03 0.  0.
         21    1    1    2  503  501  0.21987621301E+03 -0.14663893148E+02  0.72454273374E+03  0.75731284937E+03  0.00000000000E+00 0.  1.
<mgrwt>
<rscale>  3 0.25334873E+03</rscale>
<asrwt>0</asrwt>
<pdfrwt beam="1">  1       21 0.47096929E+00 0.25334873E+03</pdfrwt>
<pdfrwt beam="2">  1       21 0.35846933E-02 0.25334873E+03</pdfrwt>
<totfact> 0.13040336E+03</totfact>
</mgrwt>
</event>
<event>
 4    0  0.1003929E-001  0.2666795E+03  0.7546771E-02  0.1103195E+00
         21   -1    0    0  503  501  0.00000000000E+00  0.00000000000E+00  0.98141703977E+02  0.98141703977E+02  0.00000000000E+00 0. -1.
         21   -1    0    0  501  502 -0.00000000000E+00 -0.00000000000E+00 -0.81417688884E+03  0.81417688884E+03  0.00000000000E+00 0.  1.
         25    1    1    2    0    0  0.17189661006E+03 -0.16107296702E+03 -0.16641757074E+03  0.31434495878E+03  0.12500000000E+03 0.  0.
         21    1    1    2  503  502 -0.17189661006E+03  0.16107296702E+03 -0.54961761411E+03  0.59797363403E+03  0.00000000000E+00 0.  1.
<mgrwt>
<rscale>  3 0.26667948E+03</rscale>
<asrwt>0</asrwt>
<pdfrwt beam="1">  1       21 0.15098723E-01 0.26667948E+03</pdfrwt>
<pdfrwt beam="2">  1       21 0.12525799E+00 0.26667948E+03</pdfrwt>
<totfact> 0.17626544E+04</totfact>
</mgrwt>
</event>
<event>
 4    0  0.1003929E-001  0.2466039E+03  0.7546771E-02  0.1115470E+00
         21   -1    0    0  502  501  0.00000000000E+00  0.00000000000E+00  0.22696804299E+03  0.22696804299E+03  0.00000000000E+00 0. -1.
         21   -1    0    0  503  502 -0.00000000000E+00 -0.00000000000E+00 -0.23850301726E+04  0.23850301726E+04  0.00000000000E+00 0. -1.
         25    1    1    2    0    0  0.21030867199E+03 -0.30963965840E+02  0.15363589701E+03  0.29054688700E+03  0.12500000000E+03 0.  0.
         21    1    1    2  503  501 -0.21030867199E+03  0.30963965840E+02 -0.23116980267E+04  0.23214513286E+04  0.00000000000E+00 0. -1.
<mgrwt>
<rscale>  3 0.24660394E+03</rscale>
<asrwt>0</asrwt>
<pdfrwt beam="1">  1       21 0.34918162E-01 0.24660394E+03</pdfrwt>
<pdfrwt beam="2">  1       21 0.36692771E+00 0.24660394E+03</pdfrwt>
<totfact> 0.10077832E+02</totfact>
</mgrwt>
</event>
<event>
 4    0  0.1724269E-001  0.2620979E+03  0.7546771E-02  0.1105889E+00
         21   -1    0    0  503  501  0.00000000000E+00  0.00000000000E+00  0.69822201450E+03  0.69822201450E+03  0.00000000000E+00 0. -1.
         21   -1    0    0  501  502 -0.00000000000E+00 -0.00000000000E+00 -0.20901441604E+03  0.20901441604E+03  0.00000000000E+00 0.  1.
         25    1    1    2    0    0  0.21487869310E+03 -0.83050913654E+02  0.59766750986E+03  0.65261149189E+03  0.12500000000E+03 0.  0.
         21    1    1    2  503  502 -0.21487869310E+03  0.83050913654E+02 -0.10845991139E+03  0.25462493865E+03  0.00000000000E+00 0.  1.
<mgrwt>
<rscale>  3 0.26209790E+03</rscale>
<asrwt>0</asrwt>
<pdfrwt beam="1">  1       21 0.10741877E+00 0.26209790E+03</pdfrwt>
<pdfrwt beam="2">  1       21 0.32156064E-01 0.26209790E+03</pdfrwt>
<totfact> 0.61386488E+03</totfact>
</mgrwt>
</event>
<event>
 4    0  0.1524587E-001  0.3136309E+03  0.7546771E-02  0.1078618E+00
         21   -1    0    0  503  501  0.00000000000E+00  0.00000000000E+00  0.25196328224E+03  0.25196328224E+03  0.00000000000E+00 0. -1.
         21   -1    0    0  501  502 -0.00000000000E+00 -0.00000000000E+00 -0.36164634654E+03  0.36164634654E+03  0.00000000000E+00 0. -1.
         25    1    1    2    0    0  0.23873836034E+03  0.16044722889E+03 -0.84789089984E+02  0.32488999329E+03  0.12500000000E+03 0.  0.
         21    1    1    2  503  502 -0.23873836034E+03 -0.16044722889E+03 -0.24893974317E+02  0.28871963549E+03  0.00000000000E+00 0. -1.
<mgrwt>
<rscale>  3 0.31363086E+03</rscale>
<asrwt>0</asrwt>
<pdfrwt beam="1">  1       21 0.38763582E-01 0.31363086E+03</pdfrwt>
<pdfrwt beam="2">  1       21 0.55637899E-01 0.31363086E+03</pdfrwt>
<totfact> 0.18411783E+04</totfact>
</mgrwt>
</event>
<event>
 4    0  0.1003929E-001  0.2730986E+03  0.7546771E-02  0.1099519E+00
         21   -1    0    0  503  501  0.00000000000E+00  0.00000000000E+00  0.71773335218E+03  0.71773335218E+03  0.00000000000E+00 0.  1.
         21   -1    0    0  501  502 -0.00000000000E+00 -0.00000000000E+00 -0.10704999852E+03  0.10704999852E+03  0.00000000000E+00 0. -1.
         25    1    1    2    0    0 -0.13666898626E+03 -0.20069742563E+03  0.47157544253E+03  0.54494611336E+03  0.12500000000E+03 0.  0.
         21    1    1    2  503  502  0.13666898626E+03  0.20069742563E+03  0.13910791113E+03  0.27983723734E+03  0.00000000000E+00 0. -1.
<mgrwt>
<rscale>  3 0.27309864E+03</rscale>
<asrwt>0</asrwt>
<pdfrwt beam="1">  1       21 0.11042051E+00 0.27309864E+03</pdfrwt>
<pdfrwt beam="2">  1       21 0.16469231E-01 0.27309864E+03</pdfrwt>
<totfact> 0.20485094E+04</totfact>
</mgrwt>
</event>
<event>
 4    0  0.1003929E-001  0.3071573E+03  0.7546771E-02  0.1081717E+00
         21   -1    0    0  503  501  0.00000000000E+00  0.00000000000E+00  0.11369563766E+04  0.11369563766E+04  0.00000000000E+00 0. -1.
         21   -1    0    0  501  502 -0.00000000000E+00 -0.00000000000E+00 -0.10679646525E+03  0.10679646525E+03  0.00000000000E+00 0.  1.
         25    1    1    2    0    0  0.18787243860E+03 -0.20838553983E+03  0.86560230304E+03  0.91848404092E+03  0.12500000000E+03 0.  0.
         21    1    1    2  503  502 -0.18787243860E+03  0.20838553983E+03  0.16455760828E+03  0.32526880090E+03  0.00000000000E+00 0.  1.
<mgrwt>
<rscale>  3 0.30715727E+03</rscale>
<asrwt>0</asrwt>
<pdfrwt beam="1">  1       21 0.17491636E+00 0.30715727E+03</pdfrwt>
<pdfrwt beam="2">  1       21 0.16430226E-01 0.30715727E+03</pdfrwt>
<totfact> 0.60555043E+03</totfact>
</mgrwt>
</event>
<event>
 4    0  0.1003929E-001  0.2995566E+03  0.7546771E-02  0.1085462E+00
         21   -1    0    0  503  501  0.00000000000E+00  0.00000000000E+00  0.23387415032E+04  0.23387415032E+04  0.00000000000E+00 0. -1.
         21   -1    0    0  501  502 -0.00000000000E+00 -0.00000000000E+00 -0.35190960025E+02  0.35190960025E+02  0.00000000000E+00 0. -1.
         25    1    1    2    0    0  0.24013378543E+03 -0.12823774682E+03  0.11079817658E+04  0.11477620606E+04  0.12500000000E+03 0.  0.
         21    1    1    2  503  502 -0.24013378543E+03  0.12823774682E+03  0.11955687774E+04  0.12261704026E+04  0.00000000000E+00 0. -1.
<mgrwt>
<rscale>  3 0.29955660E+03</rscale>
<asrwt>0</asrwt>
<pdfrwt beam="1">  1       21 0.35980626E+00 0.29955660E+03</pdfrwt>
<pdfrwt beam="2">  1       21 0.54139957E-02 0.29955660E+03</pdfrwt>
<totfact> 0.32099161E+03</totfact>
</mgrwt>
</event>
<event>
 4    0  0.1120558E-001  0.2906978E+03  0.7546771E-02  0.1089985E+00
         21   -1    0    0  502  501  0.00000000000E+00  0.00000000000E+00  0.99531240704E+03  0.99531240704E+03  0.00000000000E+00 0. -1.
         21   -1    0    0  503  502 -0.00000000000E+00 -0.00000000000E+00 -0.18091621129E+03  0.18091621129E+03  0.00000000000E+00 0. -1.
         25    1    1    2    0    0  0.78256330091E+02 -0.25051175554E+03  0.86182112879E+03  0.90952781755E+03  0.12500000000E+03 0.  0.
         21    1    1    2  503  501 -0.78256330091E+02  0.25051175554E+03 -0.47424933041E+02  0.26670080078E+03  0.00000000000E+00 0. -1.
<mgrwt>
<rscale>  3 0.29069777E+03</rscale>
<asrwt>0</asrwt>
<pdfrwt beam="1">  1       21 0.15312498E+00 0.29069777E+03</pdfrwt>
<pdfrwt beam="2">  1       21 0.27833264E-01 0.29069777E+03</pdfrwt>
<totfact> 0.32442456E+03</totfact>
</mgrwt>
</event>
<event>
 4    0  0.1514358E-001  0.3115865E+03  0.7546771E-02  0.1079588E+00
         21   -1    0    0  502  501  0.00000000000E+00  0.00000000000E+00  0.61700798132E+03  0.61700798132E+03  0.00000000000E+00 0. -1.
         21   -1    0    0  503  502 -0.00000000000E+00 -0.00000000000E+00 -0.20253188047E+03  0.20253188047E+03  0.00000000000E+00 0. -1.
         25    1    1    2    0    0 -0.26268950825E+03  0.11160355776E+03  0.43307936321E+03  0.53352025892E+03  0.12500000000E+03 0.  0.
         21    1    1    2  503  501  0.26268950825E+03 -0.11160355776E+03 -0.18603262356E+02  0.28601960286E+03  0.00000000000E+00 0. -1.
<mgrwt>
<rscale>  3 0.31158648E+03</rscale>
<asrwt>0</asrwt>
<pdfrwt beam="1">  1       21 0.94924304E-01 0.31158648E+03</pdfrwt>
<pdfrwt beam="2">  1       21 0.31158751E-01 0.31158648E+03</pdfrwt>
<totfact> 0.85767107E+03</totfact>
</mgrwt>
</event>
<event>
 4    0  0.1259825E-001  0.2482741E+03  0.7546771E-02  0.1114400E+00
         21   -1    0    0  502  501  0.00000000000E+00  0.00000000000E+00  0.13326505814E+04  0.13326505814E+04  0.00000000000E+00 0. -1.
         21   -1    0    0  503  502 -0.00000000000E+00 -0.00000000000E+00 -0.41046046104E+02  0.41046046104E+02  0.00000000000E+00 0. -1.
         25    1    1    2    0    0  0.31393847340E+02  0.21220146069E+03  0.79157356880E+03  0.82959553301E+03  0.12500000000E+03 0.  0.
         21    1    1    2  503  501 -0.31393847340E+02 -0.21220146069E+03  0.50003096647E+03  0.54410109446E+03  0.00000000000E+00 0. -1.
<mgrwt>
<rscale>  3 0.24827411E+03</rscale>
<asrwt>0</asrwt>
<pdfrwt beam="1">  1       21 0.20502313E+00 0.24827411E+03</pdfrwt>
<pdfrwt beam="2">  1       21 0.63147774E-02 0.24827411E+03</pdfrwt>
<totfact> 0.21681096E+04</totfact>
</mgrwt>
</event>
<event>
 4    0  0.1474339E-001  0.2442770E+03  0.7546771E-02  0.1116976E+00
         21   -1    0    0  503  501  0.00000000000E+00  0.00000000000E+00  0.35756914559E+03  0.35756914559E+03  0.00000000000E+00 0. -1.
         21   -1    0    0  501  502 -0.00000000000E+00 -0.00000000000E+00 -0.27540682520E+03  0.27540682520E+03  0.00000000000E+00 0. -1.
         25    1    1    2    0    0  0.63716774098E+02 -0.19996601806E+03  0.26082714082E+03  0.35735421232E+03  0.12500000000E+03 0.  0.
         21    1    1    2  503  502 -0.63716774098E+02  0.19996601806E+03 -0.17866482043E+03  0.27562175846E+03  0.00000000000E+00 0. -1.
<mgrwt>
<rscale>  3 0.24427697E+03</rscale>
<asrwt>0</asrwt>
<pdfrwt beam="1">  1       21 0.55010638E-01 0.24427697E+03</pdfrwt>
<pdfrwt beam="2">  1       21 0.42370281E-01 0.24427697E+03</pdfrwt>
<totfact> 0.16221433E+04</totfact>
</mgrwt>
</event>
<event>
 4    0  0.1047699E-001  0.2570515E+03  0.7546771E-02  0.1108928E+00
         21   -1    0    0  502  501  0.00000000000E+00  0.00000000000E+00  0.52531717455E+03  0.52531717455E+03  0.00000000000E+00 0. -1.
         21   -1    0    0  503  502 -0.00000000000E+00 -0.00000000000E+00 -0.87444416233E+03  0.87444416233E+03  0.00000000000E+00 0. -1.
         25    1    1    2    0    0  0.48098846300E+01  0.22456030011E+03  0.47797076153E+03  0.54270757527E+03  0.12500000000E+03 0.  0.
         21    1    1    2  503  501 -0.48098846300E+01 -0.22456030011E+03 -0.82709774932E+03  0.85705376162E+03  0.00000000000E+00 0. -1.
<mgrwt>
<rscale>  3 0.25705148E+03</rscale>
<asrwt>0</asrwt>
<pdfrwt beam="1">  1       21 0.80818027E-01 0.25705148E+03</pdfrwt>
<pdfrwt beam="2">  1       21 0.13452987E+00 0.25705148E+03</pdfrwt>
<totfact> 0.49999629E+02</totfact>
</mgrwt>
</event>
<event>
 4    0  0.1329682E-001  0.2736903E+03  0.7546771E-02  0.1099186E+00
         21   -1    0    0  502  501  0.00000000000E+00  0.00000000000E+00  0.14171597158E+03  0.14171597158E+03  0.00000000000E+00 0.  1.
         21   -1    0    0  503  502 -0.00000000000E+00 -0.00000000000E+00 -0.47423576911E+03  0.47423576911E+03  0.00000000000E+00 0.  1.
         25    1    1    2    0    0  0.18321363880E+03  0.16035625667E+03 -0.19782738712E+03  0.33770111281E+03  0.12500000000E+03 0.  0.
         21    1    1    2  503  501 -0.18321363880E+03 -0.16035625667E+03 -0.13469241041E+03  0.27825062789E+03  0.00000000000E+00 0.  1.
<mgrwt>
<rscale>  3 0.27369027E+03</rscale>
<asrwt>0</asrwt>
<pdfrwt beam="1">  1       21 0.21802457E-01 0.27369027E+03</pdfrwt>
<pdfrwt beam="2">  1       21 0.72959349E-01 0.27369027E+03</pdfrwt>
<totfact> 0.31938038E+04</totfact>
</mgrwt>
</event>
<event>
 4    0  0.2175229E-001  0.2481877E+03  0.7546771E-02  0.1114456E+00
         21   -1    0    0  503  501  0.00000000000E+00  0.00000000000E+00  0.75888633571E+03  0.75888633571E+03  0.00000000000E+00 0.  1.
         21   -1    0    0  501  502 -0.00000000000E+00 -0.00000000000E+00 -0.46942632739E+03  0.46942632739E+03  0.00000000000E+00 0. -1.
         25    1    1    2    0    0  0.25833279781E+02  0.21284920851E+03  0.71225533232E+03  0.75425778241E+03  0.12500000000E+03 0.  0.
         21    1    1    2  503  502 -0.25833279781E+02 -0.21284920851E+03 -0.42279532400E+03  0.47405488069E+03  0.00000000000E+00 0. -1.
<mgrwt>
<rscale>  3 0.24818772E+03</rscale>
<asrwt>0</asrwt>
<pdfrwt beam="1">  1       21 0.11675174E+00 0.24818772E+03</pdfrwt>
<pdfrwt beam="2">  1       21 0.72219435E-01 0.24818772E+03</pdfrwt>
<totfact> 0.92854702E+02</totfact>
</mgrwt>
</event>
<event>
 4    0  0.1003929E-001  0.3630275E+03  0.7546771E-02  0.1057392E+00
         21   -1    0    0  503  501  0.00000000000E+00  0.00000000000E+00  0.26108561282E+03  0.26108561282E+03  0.00000000000E+00 0. -1.
         21   -1    0    0  501  502 -0.00000000000E+00 -0.00000000000E+00 -0.86607708872E+03  0.86607708872E+03  0.00000000000E+00 0. -1.
         25    1    1    2    0    0 -0.32479505426E+03 -0.10330591574E+03 -0.68663162256E+03  0.77669294100E+03  0.12500000000E+03 0.  0.
         21    1    1    2  503  502  0.32479505426E+03  0.10330591574E+03  0.81640146663E+02  0.35046976054E+03  0.00000000000E+00 0. -1.
<mgrwt>
<rscale>  3 0.36302746E+03</rscale>
<asrwt>0</asrwt>
<pdfrwt beam="1">  1       21 0.40167018E-01 0.36302746E+03</pdfrwt>
<pdfrwt beam="2">  1       21 0.13324263E+00 0.36302746E+03</pdfrwt>
<totfact> 0.21650584E+03</totfact>
</mgrwt>
</event>
<event>
 4    0  0.1424358E-001  0.2418244E+03  0.7546771E-02  0.1118583E+00
         21   -1    0    0  503  501  0.00000000000E+00  0.00000000000E+00  0.87341313341E+03  0.87341313341E+03  0.00000000000E+00 0.  1.
         21   -1    0    0  501  502 -0.00000000000E+00 -0.00000000000E+00 -0.12373810482E+03  0.12373810482E+03  0.00000000000E+00 0. -1.
         25    1    1    2    0    0  0.34661790583E+02 -0.20408963113E+03  0.75220763780E+03  0.79012362806E+03  0.12500000000E+03 0.  0.
         21    1    1    2  503  502 -0.34661790583E+02  0.20408963113E+03 -0.25326092133E+01  0.20702761017E+03  0.00000000000E+00 0. -1.
<mgrwt>
<rscale>  3 0.24182435E+03</rscale>
<asrwt>0</asrwt>
<pdfrwt beam="1">  1       21 0.13437125E+00 0.24182435E+03</pdfrwt>
<pdfrwt beam="2">  1       21 0.19036632E-01 0.24182435E+03</pdfrwt>
<totfact> 0.97289165E+03</totfact>
</mgrwt>
</event>
<event>
 4    0  0.1134371E-001  0.2573991E+03  0.7546771E-02  0.1108716E+00
         21   -1    0    0  503  501  0.00000000000E+00  0.00000000000E+00  0.72945966014E+02  0.72945966014E+02  0.00000000000E+00 0.  1.
         21   -1    0    0  501  502 -0.00000000000E+00 -0.00000000000E+00 -0.12541534296E+04  0.12541534296E+04  0.00000000000E+00 0.  1.
         25    1    1    2    0    0  0.13428393177E+03 -0.18054671829E+03 -0.21602877598E+03  0.33603976531E+03  0.12500000000E+03 0.  0.
         21    1    1    2  503  502 -0.13428393177E+03  0.18054671829E+03 -0.96517868757E+03  0.99105963027E+03  0.00000000000E+00 0.  1.
<mgrwt>
<rscale>  3 0.25739909E+03</rscale>
<asrwt>0</asrwt>
<pdfrwt beam="1">  1       21 0.11222457E-01 0.25739909E+03</pdfrwt>
<pdfrwt beam="2">  1       21 0.19294667E+00 0.25739909E+03</pdfrwt>
<totfact> 0.94047512E+03</totfact>
</mgrwt>
</event>
<event>
 4    0  0.1154227E-001  0.2443707E+03  0.7546771E-02  0.1116915E+00
         21   -1    0    0  503  501  0.00000000000E+00  0.00000000000E+00  0.99033068089E+03  0.99033068089E+03  0.00000000000E+00 0. -1.
         21   -1    0    0  501  502 -0.00000000000E+00 -0.00000000000E+00 -0.34876877787E+03  0.34876877787E+03  0.00000000000E+00 0. -1.
         25    1    1    2    0    0 -0.17451005311E+03 -0.11678302490E+03  0.94164965755E+03  0.97284177084E+03  0.12500000000E+03 0.  0.
         21    1    1    2  503  502  0.17451005311E+03  0.11678302490E+03 -0.30008775452E+03  0.36625768791E+03  0.00000000000E+00 0. -1.
<mgrwt>
<rscale>  3 0.24437069E+03</rscale>
<asrwt>0</asrwt>
<pdfrwt beam="1">  1       21 0.15235856E+00 0.24437069E+03</pdfrwt>
<pdfrwt beam="2">  1       21 0.53656736E-01 0.24437069E+03</pdfrwt>
<totfact> 0.89699944E+02</totfact>
</mgrwt>
</event>
<event>
 4    0  0.1281090E-001  0.2914087E+03  0.7546771E-02  0.1089616E+00
         21   -1    0    0  503  501  0.00000000000E+00  0.00000000000E+00  0.45530312804E+03  0.45530312804E+03  0.00000000000E+00 0.  1.
         21   -1    0    0  501  502 -0.00000000000E+00 -0.00000000000E+00 -0.28111747936E+03  0.28111747936E+03  0.00000000000E+00 0.  1.
         25    1    1    2    0    0  0.21202357590E+03  0.15601286511E+03  0.32219244804E+03  0.43442719113E+03  0.12500000000E+03 0.  0.
         21    1    1    2  503  502 -0.21202357590E+03 -0.15601286511E+03 -0.14800679936E+03  0.30199341627E+03  0.00000000000E+00 0.  1.
<mgrwt>
<rscale>  3 0.29140867E+03</rscale>
<asrwt>0</asrwt>
<pdfrwt beam="1">  1       21 0.70046635E-01 0.29140867E+03</pdfrwt>
<pdfrwt beam="2">  1       21 0.43248843E-01 0.29140867E+03</pdfrwt>
<totfact> 0.89766146E+03</totfact>
</mgrwt>
</event>
<event>
 4    0  0.1003929E-001  0.2918648E+03  0.7546771E-02  0.1089380E+00
         21   -1    0    0  502  501  0.00000000000E+00  0.00000000000E+00  0.50293356831E+03  0.50293356831E+03  0.00000000000E+00 0.  1.
         21   -1    0    0  503  502 -0.00000000000E+00 -0.00000000000E+00 -0.18275966718E+03  0.18275966718E+03  0.00000000000E+00 0. -1.
         25    1    1    2    0    0 -0.25819975551E+03  0.53786101434E+02  0.30404234226E+03  0.42145795086E+03  0.12500000000E+03 0.  0.
         21    1    1    2  503  501  0.25819975551E+03 -0.53786101434E+02  0.16131558876E+02  0.26423528463E+03  0.00000000000E+00 0. -1.
<mgrwt>
<rscale>  3 0.29186479E+03</rscale>
<asrwt>0</asrwt>
<pdfrwt beam="1">  1       21 0.77374395E-01 0.29186479E+03</pdfrwt>
<pdfrwt beam="2">  1       21 0.28116872E-01 0.29186479E+03</pdfrwt>
<totfact> 0.17014936E+04</totfact>
</mgrwt>
</event>
<event>
 4    0  0.1003929E-001  0.4721141E+03  0.7546771E-02  0.1021325E+00
         21   -1    0    0  503  501  0.00000000000E+00  0.00000000000E+00  0.80869613001E+02  0.80869613001E+02  0.00000000000E+00 0.  1.
         21   -1    0    0  501  502 -0.00000000000E+00 -0.00000000000E+00 -0.27182010275E+04  0.27182010275E+04  0.00000000000E+00 0.  1.
         25    1    1    2    0    0  0.45519749500E+03  0.78739937615E+01 -0.11350731867E+04  0.12293424659E+04  0.12500000000E+03 0.  0.
         21    1    1    2  503  502 -0.45519749500E+03 -0.78739937615E+01 -0.15022582278E+04  0.15697281746E+04  0.00000000000E+00 0.  1.
<mgrwt>
<rscale>  3 0.47211414E+03</rscale>
<asrwt>0</asrwt>
<pdfrwt beam="1">  1       21 0.12441483E-01 0.47211414E+03</pdfrwt>
<pdfrwt beam="2">  1       21 0.41818464E+00 0.47211414E+03</pdfrwt>
<totfact> 0.27793504E+02</totfact>
</mgrwt>
</event>
<event>
 4    0  0.1212336E-001  0.2845616E+03  0.7546771E-02  0.1093223E+00
         21   -1    0    0  502  501  0.00000000000E+00  0.00000000000E+00  0.74338496145E+03  0.74338496145E+03  0.00000000000E+00 0.  1.
         21   -1    0    0  503  502 -0.00000000000E+00 -0.00000000000E+00 -0.17588193525E+03  0.17588193525E+03  0.00000000000E+00 0.  1.
         25    1    1    2    0    0 -0.23791076404E+03 -0.93534851843E+02  0.59757274668E+03  0.66186742458E+03  0.12500000000E+03 0.  0.
         21    1    1    2  503  501  0.23791076404E+03  0.93534851843E+02 -0.30069720469E+02  0.25739947212E+03  0.00000000000E+00 0.  1.
<mgrwt>
<rscale>  3 0.28456159E+03</rscale>
<asrwt>0</asrwt>
<pdfrwt beam="1">  1       21 0.11436692E+00 0.28456159E+03</pdfrwt>
<pdfrwt beam="2">  1       21 0.27058760E-01 0.28456159E+03</pdfrwt>
<totfact> 0.72950334E+03</totfact>
</mgrwt>
</event>
<event>
 4    0  0.1379892E-001  0.2363601E+03  0.7546771E-02  0.1122242E+00
         21   -1    0    0  502  501  0.00000000000E+00  0.00000000000E+00  0.83540535660E+02  0.83540535660E+02  0.00000000000E+00 0. -1.
         21   -1    0    0  503  502 -0.00000000000E+00 -0.00000000000E+00 -0.11187579618E+04  0.11187579618E+04  0.00000000000E+00 0.  1.
         25    1    1    2    0    0 -0.13810324474E+03 -0.14549425604E+03 -0.11947227942E+03  0.26483902714E+03  0.12500000000E+03 0.  0.
         21    1    1    2  503  501  0.13810324474E+03  0.14549425604E+03 -0.91574514672E+03  0.93745947032E+03  0.00000000000E+00 0.  1.
<mgrwt>
<rscale>  3 0.23636007E+03</rscale>
<asrwt>0</asrwt>
<pdfrwt beam="1">  1       21 0.12852390E-01 0.23636007E+03</pdfrwt>
<pdfrwt beam="2">  1       21 0.17211660E+00 0.23636007E+03</pdfrwt>
<totfact> 0.10362878E+04</totfact>
</mgrwt>
</event>
<event>
 4    0  0.1003929E-001  0.2525879E+03  0.7546771E-02  0.1111680E+00
         21   -1    0    0  503  501  0.00000000000E+00  0.00000000000E+00  0.13262961184E+03  0.13262961184E+03  0.00000000000E+00 0. -1.
         21   -1    0    0  501  502 -0.00000000000E+00 -0.00000000000E+00 -0.16332089256E+04  0.16332089256E+04  0.00000000000E+00 0. -1.
         25    1    1    2    0    0 -0.89181299970E+02  0.20055514280E+03 -0.33537775691E+01  0.25261020841E+03  0.12500000000E+03 0.  0.
         21    1    1    2  503  502  0.89181299970E+02 -0.20055514280E+03 -0.14972255362E+04  0.15132283291E+04  0.00000000000E+00 0. -1.
<mgrwt>
<rscale>  3 0.25258794E+03</rscale>
<asrwt>0</asrwt>
<pdfrwt beam="1">  1       21 0.20404555E-01 0.25258794E+03</pdfrwt>
<pdfrwt beam="2">  1       21 0.25126292E+00 0.25258794E+03</pdfrwt>
<totfact> 0.13644849E+03</totfact>
</mgrwt>
</event>
<event>
 4    0  0.1003929E-001  0.3828191E+03  0.7546771E-02  0.1049897E+00
         21   -1    0    0  503  501  0.00000000000E+00  0.00000000000E+00  0.20176247174E+04  0.20176247174E+04  0.00000000000E+00 0. -1.
         21   -1    0    0  501  502 -0.00000000000E+00 -0.00000000000E+00 -0.13511307768E+03  0.13511307768E+03  0.00000000000E+00 0.  1.
         25    1    1    2    0    0  0.18525171022E+03  0.31081712211E+03  0.17091817955E+04  0.17515287293E+04  0.12500000000E+03 0.  0.
         21    1    1    2  503  502 -0.18525171022E+03 -0.31081712211E+03  0.17332984419E+03  0.40120906573E+03  0.00000000000E+00 0.  1.
<mgrwt>
<rscale>  3 0.38281912E+03</rscale>
<asrwt>0</asrwt>
<pdfrwt beam="1">  1       21 0.31040378E+00 0.38281912E+03</pdfrwt>
<pdfrwt beam="2">  1       21 0.20786629E-01 0.38281912E+03</pdfrwt>
<totfact> 0.52942488E+02</totfact>
</mgrwt>
</event>
<event>
 4    0  0.1424200E-001  0.2505025E+03  0.7546771E-02  0.1112988E+00
         21   -1    0    0  502  501  0.00000000000E+00  0.00000000000E+00  0.17099373569E+03  0.17099373569E+03  0.00000000000E+00 0. -1.
         21   -1    0    0  503  502 -0.00000000000E+00 -0.00000000000E+00 -0.47226296477E+03  0.47226296477E+03  0.00000000000E+00 0. -1.
         25    1    1    2    0    0 -0.11127428395E+03 -0.18639887755E+03  0.24591089016E+02  0.25170663376E+03  0.12500000000E+03 0.  0.
         21    1    1    2  503  501  0.11127428395E+03  0.18639887755E+03 -0.32586031810E+03  0.39155006670E+03  0.00000000000E+00 0. -1.
<mgrwt>
<rscale>  3 0.25050251E+03</rscale>
<asrwt>0</asrwt>
<pdfrwt beam="1">  1       21 0.26306729E-01 0.25050251E+03</pdfrwt>
<pdfrwt beam="2">  1       21 0.72655840E-01 0.25050251E+03</pdfrwt>
<totfact> 0.22729556E+04</totfact>
</mgrwt>
</event>
<event>
 4    0  0.1134448E-001  0.4930197E+03  0.7546771E-02  0.1015617E+00
         21   -1    0    0  502  501  0.00000000000E+00  0.00000000000E+00  0.72675869391E+03  0.72675869391E+03  0.00000000000E+00 0.  1.
         21   -1    0    0  503  502 -0.00000000000E+00 -0.00000000000E+00 -0.39496612322E+03  0.39496612322E+03  0.00000000000E+00 0.  1.
         25    1    1    2    0    0  0.36628670314E+03 -0.30541367616E+03  0.40650832659E+03  0.63899724731E+03  0.12500000000E+03 0.  0.
         21    1    1    2  503  501 -0.36628670314E+03  0.30541367616E+03 -0.74715755902E+02  0.48272756982E+03  0.00000000000E+00 0.  1.
<mgrwt>
<rscale>  3 0.49301974E+03</rscale>
<asrwt>0</asrwt>
<pdfrwt beam="1">  1       21 0.11180903E+00 0.49301974E+03</pdfrwt>
<pdfrwt beam="2">  1       21 0.60764019E-01 0.49301974E+03</pdfrwt>
<totfact> 0.13309083E+03</totfact>
</mgrwt>
</event>
<event>
 4    0  0.1003929E-001  0.2734506E+03  0.7546771E-02  0.1099321E+00
         21   -1    0    0  502  501  0.00000000000E+00  0.00000000000E+00  0.30977790574E+03  0.30977790574E+03  0.00000000000E+00 0. -1.
         21   -1    0    0  503  502 -0.00000000000E+00 -0.00000000000E+00 -0.23902655488E+03  0.23902655488E+03  0.00000000000E+00 0.  1.
         25    1    1    2    0    0 -0.17373412824E+03 -0.17019601815E+03  0.12333297878E+03  0.29997709173E+03  0.12500000000E+03 0.  0.
         21    1    1    2  503  501  0.17373412824E+03  0.17019601815E+03 -0.52581627928E+02  0.24882736888E+03  0.00000000000E+00 0.  1.
<mgrwt>
<rscale>  3 0.27345060E+03</rscale>
<asrwt>0</asrwt>
<pdfrwt beam="1">  1       21 0.47658140E-01 0.27345060E+03</pdfrwt>
<pdfrwt beam="2">  1       21 0.36773316E-01 0.27345060E+03</pdfrwt>
<totfact> 0.28880364E+04</totfact>
</mgrwt>
</event>
<event>
 4    0  0.1015129E-001  0.2508059E+03  0.7546771E-02  0.1112797E+00
         21   -1    0    0  502  501  0.00000000000E+00  0.00000000000E+00  0.19188859011E+04  0.19188859011E+04  0.00000000000E+00 0. -1.
         21   -1    0    0  503  502 -0.00000000000E+00 -0.00000000000E+00 -0.38701788343E+02  0.38701788343E+02  0.00000000000E+00 0. -1.
         25    1    1    2    0    0  0.20555674731E+03 -0.70887375835E+02  0.14895325026E+04  0.15105001399E+04  0.12500000000E+03 0.  0.
         21    1    1    2  503  501 -0.20555674731E+03  0.70887375835E+02  0.39065161019E+03  0.44708754955E+03  0.00000000000E+00 0. -1.
<mgrwt>
<rscale>  3 0.25080589E+03</rscale>
<asrwt>0</asrwt>
<pdfrwt beam="1">  1       21 0.29521314E+00 0.25080589E+03</pdfrwt>
<pdfrwt beam="2">  1       21 0.59541228E-02 0.25080589E+03</pdfrwt>
<totfact> 0.68643083E+03</totfact>
</mgrwt>
</event>
<event>
 4    0  0.1003929E-001  0.3009578E+03  0.7546771E-02  0.1084763E+00
         21   -1    0    0  502  501  0.00000000000E+00  0.00000000000E+00  0.20741319844E+04  0.20741319844E+04  0.00000000000E+00 0.  1.
         21   -1    0    0  503  502 -0.00000000000E+00 -0.00000000000E+00 -0.41240077203E+02  0.41240077203E+02  0.00000000000E+00 0.  1.
         25    1    1    2    0    0 -0.18588860148E+02 -0.27313924838E+03  0.86635390103E+03  0.91713939865E+03  0.12500000000E+03 0.  0.
         21    1    1    2  503  501  0.18588860148E+02  0.27313924838E+03  0.11665380061E+04  0.11982326629E+04  0.00000000000E+00 0.  1.
<mgrwt>
<rscale>  3 0.30095780E+03</rscale>
<asrwt>0</asrwt>
<pdfrwt beam="1">  1       21 0.31909715E+00 0.30095780E+03</pdfrwt>
<pdfrwt beam="2">  1       21 0.63446289E-02 0.30095780E+03</pdfrwt>
<totfact> 0.42751329E+03</totfact>
</mgrwt>
</event>
<event>
 4    0  0.1084921E-001  0.2467149E+03  0.7546771E-02  0.1115399E+00
         21   -1    0    0  502  501  0.00000000000E+00  0.00000000000E+00  0.22193725259E+03  0.22193725259E+03  0.00000000000E+00 0.  1.
         21   -1    0    0  503  502 -0.00000000000E+00 -0.00000000000E+00 -0.10465749324E+04  0.10465749324E+04  0.00000000000E+00 0.  1.
         25    1    1    2    0    0 -0.20937663056E+03 -0.37478847391E+02  0.13797773940E+03  0.28267665980E+03  0.12500000000E+03 0.  0.
         21    1    1    2  503  501  0.20937663056E+03  0.37478847391E+02 -0.96261541919E+03  0.98583552517E+03  0.00000000000E+00 0.  1.
<mgrwt>
<rscale>  3 0.24671489E+03</rscale>
<asrwt>0</asrwt>
<pdfrwt beam="1">  1       21 0.34144193E-01 0.24671489E+03</pdfrwt>
<pdfrwt beam="2">  1       21 0.16101153E+00 0.24671489E+03</pdfrwt>
<totfact> 0.19502929E+03</totfact>
</mgrwt>
</event>
<event>
 4    0  0.1361129E-001  0.2589217E+03  0.7546771E-02  0.1107793E+00
         21   -1    0    0  502  501  0.00000000000E+00  0.00000000000E+00  0.10190830432E+04  0.10190830432E+04  0.00000000000E+00 0. -1.
         21   -1    0    0  503  502 -0.00000000000E+00 -0.00000000000E+00 -0.60791860728E+02  0.60791860728E+02  0.00000000000E+00 0. -1.
         25    1    1    2    0    0  0.48381295697E+01 -0.22669811457E+03  0.62758419529E+03  0.67889790457E+03  0.12500000000E+03 0.  0.
         21    1    1    2  503  501 -0.48381295697E+01  0.22669811457E+03  0.33070698720E+03  0.40097699938E+03  0.00000000000E+00 0. -1.
<mgrwt>
<rscale>  3 0.25892169E+03</rscale>
<asrwt>0</asrwt>
<pdfrwt beam="1">  1       21 0.15678199E+00 0.25892169E+03</pdfrwt>
<pdfrwt beam="2">  1       21 0.93525947E-02 0.25892169E+03</pdfrwt>
<totfact> 0.23336645E+04</totfact>
</mgrwt>
</event>
<event>
 4    0  0.1622117E-001  0.3201007E+03  0.7546771E-02  0.1075603E+00
         21   -1    0    0  503  501  0.00000000000E+00  0.00000000000E+00  0.42395806917E+03  0.42395806917E+03  0.00000000000E+00 0. -1.
         21   -1    0    0  501  502 -0.00000000000E+00 -0.00000000000E+00 -0.22670693940E+03  0.22670693940E+03  0.00000000000E+00 0. -1.
         25    1    1    2    0    0 -0.64992714812E+02  0.28742899472E+03  0.14488389400E+03  0.35136280783E+03  0.12500000000E+03 0.  0.
         21    1    1    2  503  502  0.64992714812E+02 -0.28742899472E+03  0.52367235763E+02  0.29930220074E+03  0.00000000000E+00 0. -1.
<mgrwt>
<rscale>  3 0.32010073E+03</rscale>
<asrwt>0</asrwt>
<pdfrwt beam="1">  1       21 0.65224318E-01 0.32010073E+03</pdfrwt>
<pdfrwt beam="2">  1       21 0.34877991E-01 0.32010073E+03</pdfrwt>
<totfact> 0.16088470E+04</totfact>
</mgrwt>
</event>
<event>
 4    0  0.1003929E-001  0.3065652E+03  0.7546771E-02  0.1082004E+00
         21   -1    0    0  502  501  0.00000000000E+00  0.00000000000E+00  0.34569178263E+02  0.34569178263E+02  0.00000000000E+00 0. -1.
         21   -1    0    0  503  502 -0.00000000000E+00 -0.00000000000E+00 -0.25089388435E+04  0.25089388435E+04  0.00000000000E+00 0. -1.
         25    1    1    2    0    0 -0.18148103091E+03  0.21312402125E+03 -0.11755799533E+04  0.12148952382E+04  0.12500000000E+03 0.  0.
         21    1    1    2  503  501  0.18148103091E+03 -0.21312402125E+03 -0.12987897119E+04  0.13286127836E+04  0.00000000000E+00 0. -1.
<mgrwt>
<rscale>  3 0.30656519E+03</rscale>
<asrwt>0</asrwt>
<pdfrwt beam="1">  1       21 0.53183344E-02 0.30656519E+03</pdfrwt>
<pdfrwt beam="2">  1       21 0.38599065E+00 0.30656519E+03</pdfrwt>
<totfact> 0.22699161E+03</totfact>
</mgrwt>
</event>
<event>
 4    0  0.1190825E-001  0.3313858E+03  0.7546771E-02  0.1070525E+00
         21   -1    0    0  503  501  0.00000000000E+00  0.00000000000E+00  0.51419370681E+03  0.51419370681E+03  0.00000000000E+00 0.  1.
         21   -1    0    0  501  502 -0.00000000000E+00 -0.00000000000E+00 -0.37299158678E+03  0.37299158678E+03  0.00000000000E+00 0.  1.
         25    1    1    2    0    0 -0.21714332869E+03 -0.21688784029E+03  0.37568515288E+03  0.50095498256E+03  0.12500000000E+03 0.  0.
         21    1    1    2  503  502  0.21714332869E+03  0.21688784029E+03 -0.23448303285E+03  0.38623031103E+03  0.00000000000E+00 0.  1.
<mgrwt>
<rscale>  3 0.33138582E+03</rscale>
<asrwt>0</asrwt>
<pdfrwt beam="1">  1       21 0.79106724E-01 0.33138582E+03</pdfrwt>
<pdfrwt beam="2">  1       21 0.57383321E-01 0.33138582E+03</pdfrwt>
<totfact> 0.36856505E+03</totfact>
</mgrwt>
</event>
<event>
 4    0  0.1003929E-001  0.2660639E+03  0.7546771E-02  0.1103554E+00
         21   -1    0    0  503  501  0.00000000000E+00  0.00000000000E+00  0.50858990091E+03  0.50858990091E+03  0.00000000000E+00 0.  1.
         21   -1    0    0  501  502 -0.00000000000E+00 -0.00000000000E+00 -0.14512761852E+03  0.14512761852E+03  0.00000000000E+00 0. -1.
         25    1    1    2    0    0  0.19612109845E+03 -0.12923438809E+03  0.31775815369E+03  0.41443968989E+03  0.12500000000E+03 0.  0.
         21    1    1    2  503  502 -0.19612109845E+03  0.12923438809E+03  0.45704128705E+02  0.23927782953E+03  0.00000000000E+00 0. -1.
<mgrwt>
<rscale>  3 0.26606393E+03</rscale>
<asrwt>0</asrwt>
<pdfrwt beam="1">  1       21 0.78244599E-01 0.26606393E+03</pdfrwt>
<pdfrwt beam="2">  1       21 0.22327326E-01 0.26606393E+03</pdfrwt>
<totfact> 0.26154471E+04</totfact>
</mgrwt>
</event>
<event>
 4    0  0.1394949E-001  0.2543680E+03  0.7546771E-02  0.1110575E+00
         21   -1    0    0  503  501  0.00000000000E+00  0.00000000000E+00  0.91827339818E+03  0.91827339818E+03  0.00000000000E+00 0. -1.
         21   -1    0    0  501  502 -0.00000000000E+00 -0.00000000000E+00 -0.74234354068E+02  0.74234354068E+02  0.00000000000E+00 0. -1.
         25    1    1    2    0    0 -0.18528818414E+03 -0.12143466134E+03  0.65003716059E+03  0.69803395211E+03  0.12500000000E+03 0.  0.
         21    1    1    2  503  502  0.18528818414E+03  0.12143466134E+03  0.19400188352E+03  0.29447380014E+03  0.00000000000E+00 0. -1.
<mgrwt>
<rscale>  3 0.25436802E+03</rscale>
<asrwt>0</asrwt>
<pdfrwt beam="1">  1       21 0.14127282E+00 0.25436802E+03</pdfrwt>
<pdfrwt beam="2">  1       21 0.11420671E-01 0.25436802E+03</pdfrwt>
<totfact> 0.21609816E+04</totfact>
</mgrwt>
</event>
<event>
 4    0  0.1003929E-001  0.2775032E+03  0.7546771E-02  0.1097061E+00
         21   -1    0    0  503  501  0.00000000000E+00  0.00000000000E+00  0.21515704412E+02  0.21515704412E+02  0.00000000000E+00 0.  1.
         21   -1    0    0  501  502 -0.00000000000E+00 -0.00000000000E+00 -0.39411964140E+04  0.39411964140E+04  0.00000000000E+00 0.  1.
         25    1    1    2    0    0  0.24475721690E+03  0.38430774645E+02 -0.29048974406E+04  0.29181221976E+04  0.12500000000E+03 0.  0.
         21    1    1    2  503  502 -0.24475721690E+03 -0.38430774645E+02 -0.10147832690E+04  0.10445899208E+04  0.00000000000E+00 0.  1.
<mgrwt>
<rscale>  3 0.27750319E+03</rscale>
<asrwt>0</asrwt>
<pdfrwt beam="1">  1       21 0.33101079E-02 0.27750319E+03</pdfrwt>
<pdfrwt beam="2">  1       21 0.60633800E+00 0.27750319E+03</pdfrwt>
<totfact> 0.14530380E+02</totfact>
</mgrwt>
</event>
<event>
 4    0  0.1100436E-001  0.2748342E+03  0.7546771E-02  0.1098544E+00
         21   -1    0    0  502  501  0.00000000000E+00  0.00000000000E+00  0.93474889569E+03  0.93474889569E+03  0.00000000000E+00 0.  1.
         21   -1    0    0  503  502 -0.00000000000E+00 -0.00000000000E+00 -0.72374837797E+02  0.72374837797E+02  0.00000000000E+00 0.  1.
         25    1    1    2    0    0  0.24397065094E+03  0.19676359237E+02  0.48030422587E+03  0.55337689418E+03  0.12500000000E+03 0.  0.
         21    1    1    2  503  501 -0.24397065094E+03 -0.19676359237E+02  0.38206983203E+03  0.45374683931E+03  0.00000000000E+00 0.  1.
<mgrwt>
<rscale>  3 0.27483420E+03</rscale>
<asrwt>0</asrwt>
<pdfrwt beam="1">  1       21 0.14380751E+00 0.27483420E+03</pdfrwt>
<pdfrwt beam="2">  1       21 0.11134591E-01 0.27483420E+03</pdfrwt>
<totfact> 0.21364983E+04</totfact>
</mgrwt>
</event>
<event>
 4    0  0.1311396E-001  0.3119573E+03  0.7546771E-02  0.1079411E+00
         21   -1    0    0  503  501  0.00000000000E+00  0.00000000000E+00  0.96529957588E+03  0.96529957588E+03  0.00000000000E+00 0. -1.
         21   -1    0    0  501  502 -0.00000000000E+00 -0.00000000000E+00 -0.16771790784E+03  0.16771790784E+03  0.00000000000E+00 0.  1.
         25    1    1    2    0    0 -0.26782937135E+03  0.99798643263E+02  0.78748086385E+03  0.84702033758E+03  0.12500000000E+03 0.  0.
         21    1    1    2  503  502  0.26782937135E+03 -0.99798643263E+02  0.10100804189E+02  0.28599714614E+03  0.00000000000E+00 0.  1.
<mgrwt>
<rscale>  3 0.31195727E+03</rscale>
<asrwt>0</asrwt>
<pdfrwt beam="1">  1       21 0.14850762E+00 0.31195727E+03</pdfrwt>
<pdfrwt beam="2">  1       21 0.25802756E-01 0.31195727E+03</pdfrwt>
<totfact> 0.40316066E+03</totfact>
</mgrwt>
</event>
<event>
 4    0  0.1135334E-001  0.2421863E+03  0.7546771E-02  0.1118345E+00
         21   -1    0    0  503  501  0.00000000000E+00  0.00000000000E+00  0.96982442120E+03  0.96982442120E+03  0.00000000000E+00 0. -1.
         21   -1    0    0  501  502 -0.00000000000E+00 -0.00000000000E+00 -0.16045428172E+03  0.16045428172E+03  0.00000000000E+00 0. -1.
         25    1    1    2    0    0  0.20565622483E+03 -0.27105843611E+02  0.87877800852E+03  0.91153990468E+03  0.12500000000E+03 0.  0.
         21    1    1    2  503  502 -0.20565622483E+03  0.27105843611E+02 -0.69407869049E+02  0.21873879824E+03  0.00000000000E+00 0. -1.
<mgrwt>
<rscale>  3 0.24218631E+03</rscale>
<asrwt>0</asrwt>
<pdfrwt beam="1">  1       21 0.14920375E+00 0.24218631E+03</pdfrwt>
<pdfrwt beam="2">  1       21 0.24685275E-01 0.24218631E+03</pdfrwt>
<totfact> 0.45250643E+03</totfact>
</mgrwt>
</event>
<event>
 4    0  0.1003929E-001  0.2561116E+03  0.7546771E-02  0.1109502E+00
         21   -1    0    0  502  501  0.00000000000E+00  0.00000000000E+00  0.58699370632E+03  0.58699370632E+03  0.00000000000E+00 0.  1.
         21   -1    0    0  503  502 -0.00000000000E+00 -0.00000000000E+00 -0.20697125756E+04  0.20697125756E+04  0.00000000000E+00 0.  1.
         25    1    1    2    0    0 -0.21414401383E+03 -0.64113171345E+02  0.55264426058E+03  0.60910494674E+03  0.12500000000E+03 0.  0.
         21    1    1    2  503  501  0.21414401383E+03  0.64113171345E+02 -0.20353631299E+04  0.20476013352E+04  0.00000000000E+00 0.  1.
<mgrwt>
<rscale>  3 0.25611161E+03</rscale>
<asrwt>0</asrwt>
<pdfrwt beam="1">  1       21 0.90306725E-01 0.25611161E+03</pdfrwt>
<pdfrwt beam="2">  1       21 0.31841732E+00 0.25611161E+03</pdfrwt>
<totfact> 0.25154554E+01</totfact>
</mgrwt>
</event>
<event>
 4    0  0.1040167E-001  0.2495103E+03  0.7546771E-02  0.1113615E+00
         21   -1    0    0  503  501  0.00000000000E+00  0.00000000000E+00  0.34165727909E+02  0.34165727909E+02  0.00000000000E+00 0.  1.
         21   -1    0    0  501  502 -0.00000000000E+00 -0.00000000000E+00 -0.17883807686E+04  0.17883807686E+04  0.00000000000E+00 0.  1.
         25    1    1    2    0    0 -0.46102482723E+02 -0.21096196657E+03 -0.62677029966E+03  0.67460832991E+03  0.12500000000E+03 0.  0.
         21    1    1    2  503  502  0.46102482723E+02  0.21096196657E+03 -0.11274447410E+04  0.11479381666E+04  0.00000000000E+00 0.  1.
<mgrwt>
<rscale>  3 0.24951030E+03</rscale>
<asrwt>0</asrwt>
<pdfrwt beam="1">  1       21 0.52562643E-02 0.24951030E+03</pdfrwt>
<pdfrwt beam="2">  1       21 0.27513559E+00 0.24951030E+03</pdfrwt>
<totfact> 0.11150474E+04</totfact>
</mgrwt>
</event>
<event>
 4    0  0.1332538E-001  0.3088718E+03  0.7546771E-02  0.1080888E+00
         21   -1    0    0  503  501  0.00000000000E+00  0.00000000000E+00  0.51254561978E+03  0.51254561978E+03  0.00000000000E+00 0. -1.
         21   -1    0    0  501  502 -0.00000000000E+00 -0.00000000000E+00 -0.28717649890E+03  0.28717649890E+03  0.00000000000E+00 0. -1.
         25    1    1    2    0    0  0.20127465717E+03 -0.19815466499E+03  0.37034367845E+03  0.48224081022E+03  0.12500000000E+03 0.  0.
         21    1    1    2  503  502 -0.20127465717E+03  0.19815466499E+03 -0.14497455758E+03  0.31748130846E+03  0.00000000000E+00 0. -1.
<mgrwt>
<rscale>  3 0.30887175E+03</rscale>
<asrwt>0</asrwt>
<pdfrwt beam="1">  1       21 0.78853172E-01 0.30887175E+03</pdfrwt>
<pdfrwt beam="2">  1       21 0.44181000E-01 0.30887175E+03</pdfrwt>
<totfact> 0.65222717E+03</totfact>
</mgrwt>
</event>
<event>
 4    0  0.1414555E-001  0.2782179E+03  0.7546771E-02  0.1096666E+00
         21   -1    0    0  503  501  0.00000000000E+00  0.00000000000E+00  0.58194731854E+03  0.58194731854E+03  0.00000000000E+00 0.  1.
         21   -1    0    0  501  502 -0.00000000000E+00 -0.00000000000E+00 -0.14885585790E+03  0.14885585790E+03  0.00000000000E+00 0.  1.
         25    1    1    2    0    0 -0.29080470928E+02  0.24684924610E+03  0.38917709464E+03  0.47839736107E+03  0.12500000000E+03 0.  0.
         21    1    1    2  503  502  0.29080470928E+02 -0.24684924610E+03  0.43914365998E+02  0.25240581537E+03  0.00000000000E+00 0.  1.
<mgrwt>
<rscale>  3 0.27821794E+03</rscale>
<asrwt>0</asrwt>
<pdfrwt beam="1">  1       21 0.89530355E-01 0.27821794E+03</pdfrwt>
<pdfrwt beam="2">  1       21 0.22900902E-01 0.27821794E+03</pdfrwt>
<totfact> 0.18175508E+04</totfact>
</mgrwt>
</event>
<event>
 4    0  0.1366441E-001  0.2361206E+03  0.7546771E-02  0.1122404E+00
         21   -1    0    0  503  501  0.00000000000E+00  0.00000000000E+00  0.34697088930E+03  0.34697088930E+03  0.00000000000E+00 0.  1.
         21   -1    0    0  501  502 -0.00000000000E+00 -0.00000000000E+00 -0.15157731027E+03  0.15157731027E+03  0.00000000000E+00 0.  1.
         25    1    1    2    0    0 -0.13439066220E+03 -0.14854997841E+03  0.18137026559E+03  0.29773834051E+03  0.12500000000E+03 0.  0.
         21    1    1    2  503  502  0.13439066220E+03  0.14854997841E+03  0.14023313446E+02  0.20080985905E+03  0.00000000000E+00 0.  1.
<mgrwt>
<rscale>  3 0.23612062E+03</rscale>
<asrwt>0</asrwt>
<pdfrwt beam="1">  1       21 0.53380137E-01 0.23612062E+03</pdfrwt>
<pdfrwt beam="2">  1       21 0.23319586E-01 0.23612062E+03</pdfrwt>
<totfact> 0.56341999E+04</totfact>
</mgrwt>
</event>
<event>
 4    0  0.1003929E-001  0.2836297E+03  0.7546771E-02  0.1093723E+00
         21   -1    0    0  502  501  0.00000000000E+00  0.00000000000E+00  0.19035885488E+03  0.19035885488E+03  0.00000000000E+00 0. -1.
         21   -1    0    0  503  502 -0.00000000000E+00 -0.00000000000E+00 -0.39687705933E+03  0.39687705933E+03  0.00000000000E+00 0.  1.
         25    1    1    2    0    0  0.24826935026E+03  0.56419334092E+02 -0.16824485088E+03  0.32977589570E+03  0.12500000000E+03 0.  0.
         21    1    1    2  503  501 -0.24826935026E+03 -0.56419334092E+02 -0.38273353571E+02  0.25746001851E+03  0.00000000000E+00 0.  1.
<mgrwt>
<rscale>  3 0.28362971E+03</rscale>
<asrwt>0</asrwt>
<pdfrwt beam="1">  1       21 0.29285978E-01 0.28362971E+03</pdfrwt>
<pdfrwt beam="2">  1       21 0.61058009E-01 0.28362971E+03</pdfrwt>
<totfact> 0.26676284E+04</totfact>
</mgrwt>
</event>
<event>
 4    0  0.1197288E-001  0.2372757E+03  0.7546771E-02  0.1121621E+00
         21   -1    0    0  502  501  0.00000000000E+00  0.00000000000E+00  0.18997509541E+03  0.18997509541E+03  0.00000000000E+00 0. -1.
         21   -1    0    0  503  502 -0.00000000000E+00 -0.00000000000E+00 -0.71230988498E+03  0.71230988498E+03  0.00000000000E+00 0. -1.
         25    1    1    2    0    0  0.18203389035E+03  0.86824142838E+02  0.92917645549E+02  0.25482044241E+03  0.12500000000E+03 0.  0.
         21    1    1    2  503  501 -0.18203389035E+03 -0.86824142838E+02 -0.61525243512E+03  0.64746453798E+03  0.00000000000E+00 0. -1.
<mgrwt>
<rscale>  3 0.23727572E+03</rscale>
<asrwt>0</asrwt>
<pdfrwt beam="1">  1       21 0.29226938E-01 0.23727572E+03</pdfrwt>
<pdfrwt beam="2">  1       21 0.10958614E+00 0.23727572E+03</pdfrwt>
<totfact> 0.71617854E+03</totfact>
</mgrwt>
</event>
<event>
 4    0  0.1369639E-001  0.2593837E+03  0.7546771E-02  0.1107514E+00
         21   -1    0    0  503  501  0.00000000000E+00  0.00000000000E+00  0.68106510535E+03  0.68106510535E+03  0.00000000000E+00 0. -1.
         21   -1    0    0  501  502 -0.00000000000E+00 -0.00000000000E+00 -0.12031389116E+03  0.12031389116E+03  0.00000000000E+00 0. -1.
         25    1    1    2    0    0 -0.27763492435E+02 -0.22557502679E+03  0.50445358783E+03  0.56723304426E+03  0.12500000000E+03 0.  0.
         21    1    1    2  503  502  0.27763492435E+02  0.22557502679E+03  0.56297626362E+02  0.23414595225E+03  0.00000000000E+00 0. -1.
<mgrwt>
<rscale>  3 0.25938370E+03</rscale>
<asrwt>0</asrwt>
<pdfrwt beam="1">  1       21 0.10477924E+00 0.25938370E+03</pdfrwt>
<pdfrwt beam="2">  1       21 0.18509830E-01 0.25938370E+03</pdfrwt>
<totfact> 0.18856817E+04</totfact>
</mgrwt>
</event>
<event>
 4    0  0.1177421E-001  0.2376912E+03  0.7546771E-02  0.1121341E+00
         21   -1    0    0  503  501  0.00000000000E+00  0.00000000000E+00  0.50253202215E+03  0.50253202215E+03  0.00000000000E+00 0.  1.
         21   -1    0    0  501  502 -0.00000000000E+00 -0.00000000000E+00 -0.26869140641E+03  0.26869140641E+03  0.00000000000E+00 0.  1.
         25    1    1    2    0    0  0.19315035487E+03  0.59707838255E+02  0.42885958801E+03  0.49032400692E+03  0.12500000000E+03 0.  0.
         21    1    1    2  503  502 -0.19315035487E+03 -0.59707838255E+02 -0.19501897226E+03  0.28089942164E+03  0.00000000000E+00 0.  1.
<mgrwt>
<rscale>  3 0.23769116E+03</rscale>
<asrwt>0</asrwt>
<pdfrwt beam="1">  1       21 0.77312619E-01 0.23769116E+03</pdfrwt>
<pdfrwt beam="2">  1       21 0.41337140E-01 0.23769116E+03</pdfrwt>
<totfact> 0.81226861E+03</totfact>
</mgrwt>
</event>
<event>
 4    0  0.1653758E-001  0.2612763E+03  0.7546771E-02  0.1106379E+00
         21   -1    0    0  503  501  0.00000000000E+00  0.00000000000E+00  0.19115283964E+03  0.19115283964E+03  0.00000000000E+00 0. -1.
         21   -1    0    0  501  502 -0.00000000000E+00 -0.00000000000E+00 -0.32488871378E+03  0.32488871378E+03  0.00000000000E+00 0. -1.
         25    1    1    2    0    0 -0.81473693271E+02 -0.21448159484E+03 -0.25987163624E+02  0.26256551543E+03  0.12500000000E+03 0.  0.
         21    1    1    2  503  502  0.81473693271E+02  0.21448159484E+03 -0.10774871052E+03  0.25347603799E+03  0.00000000000E+00 0. -1.
<mgrwt>
<rscale>  3 0.26127632E+03</rscale>
<asrwt>0</asrwt>
<pdfrwt beam="1">  1       21 0.29408129E-01 0.26127632E+03</pdfrwt>
<pdfrwt beam="2">  1       21 0.49982879E-01 0.26127632E+03</pdfrwt>
<totfact> 0.40940130E+04</totfact>
</mgrwt>
</event>
<event>
 4    0  0.1537956E-001  0.3407262E+03  0.7546771E-02  0.1066487E+00
         21   -1    0    0  502  501  0.00000000000E+00  0.00000000000E+00  0.43174535622E+03  0.43174535622E+03  0.00000000000E+00 0. -1.
         21   -1    0    0  503  502 -0.00000000000E+00 -0.00000000000E+00 -0.28004857460E+03  0.28004857460E+03  0.00000000000E+00 0. -1.
         25    1    1    2    0    0 -0.13652096357E+03 -0.28606178201E+03  0.19388821029E+03  0.39202927787E+03  0.12500000000E+03 0.  0.
         21    1    1    2  503  501  0.13652096357E+03  0.28606178201E+03 -0.42191428674E+02  0.31976465294E+03  0.00000000000E+00 0. -1.
<mgrwt>
<rscale>  3 0.34072616E+03</rscale>
<asrwt>0</asrwt>
<pdfrwt beam="1">  1       21 0.66422362E-01 0.34072616E+03</pdfrwt>
<pdfrwt beam="2">  1       21 0.43084396E-01 0.34072616E+03</pdfrwt>
<totfact> 0.99658576E+03</totfact>
</mgrwt>
</event>
<event>
 4    0  0.1271734E-001  0.2596324E+03  0.7546771E-02  0.1107364E+00
         21   -1    0    0  503  501  0.00000000000E+00  0.00000000000E+00  0.88956352548E+03  0.88956352548E+03  0.00000000000E+00 0. -1.
         21   -1    0    0  501  502 -0.00000000000E+00 -0.00000000000E+00 -0.68357602371E+02  0.68357602371E+02  0.00000000000E+00 0. -1.
         25    1    1    2    0    0  0.21828463198E+03 -0.64310153695E+02  0.36269078626E+03  0.44604213127E+03  0.12500000000E+03 0.  0.
         21    1    1    2  503  502 -0.21828463198E+03  0.64310153695E+02  0.45851513684E+03  0.51187899658E+03  0.00000000000E+00 0. -1.
<mgrwt>
<rscale>  3 0.25963239E+03</rscale>
<asrwt>0</asrwt>
<pdfrwt beam="1">  1       21 0.13685592E+00 0.25963239E+03</pdfrwt>
<pdfrwt beam="2">  1       21 0.10516555E-01 0.25963239E+03</pdfrwt>
<totfact> 0.27137378E+04</totfact>
</mgrwt>
</event>
<event>
 4    0  0.1261573E-001  0.3813861E+03  0.7546771E-02  0.1050423E+00
         21   -1    0    0  502  501  0.00000000000E+00  0.00000000000E+00  0.74706730743E+03  0.74706730743E+03  0.00000000000E+00 0.  1.
         21   -1    0    0  503  502 -0.00000000000E+00 -0.00000000000E+00 -0.25571268248E+03  0.25571268248E+03  0.00000000000E+00 0.  1.
         25    1    1    2    0    0 -0.32051350306E+03 -0.16462509684E+03  0.51596676316E+03  0.64162062688E+03  0.12500000000E+03 0.  0.
         21    1    1    2  503  501  0.32051350306E+03  0.16462509684E+03 -0.24612138206E+02  0.36115936302E+03  0.00000000000E+00 0.  1.
<mgrwt>
<rscale>  3 0.38138606E+03</rscale>
<asrwt>0</asrwt>
<pdfrwt beam="1">  1       21 0.11493343E+00 0.38138606E+03</pdfrwt>
<pdfrwt beam="2">  1       21 0.39340413E-01 0.38138606E+03</pdfrwt>
<totfact> 0.32645153E+03</totfact>
</mgrwt>
</event>
<event>
 4    0  0.1680499E-001  0.3667592E+03  0.7546771E-02  0.1055939E+00
         21   -1    0    0  503  501  0.00000000000E+00  0.00000000000E+00  0.60965535634E+03  0.60965535634E+03  0.00000000000E+00 0. -1.
         21   -1    0    0  501  502 -0.00000000000E+00 -0.00000000000E+00 -0.48988612665E+03  0.48988612665E+03  0.00000000000E+00 0.  1.
         25    1    1    2    0    0 -0.34039674610E+03 -0.54930443847E+02  0.47789493086E+03  0.60240838586E+03  0.12500000000E+03 0.  0.
         21    1    1    2  503  502  0.34039674610E+03  0.54930443847E+02 -0.35812570117E+03  0.49713309712E+03  0.00000000000E+00 0.  1.
<mgrwt>
<rscale>  3 0.36675918E+03</rscale>
<asrwt>0</asrwt>
<pdfrwt beam="1">  1       21 0.93793132E-01 0.36675918E+03</pdfrwt>
<pdfrwt beam="2">  1       21 0.75367096E-01 0.36675918E+03</pdfrwt>
<totfact> 0.13317465E+03</totfact>
</mgrwt>
</event>
<event>
 4    0  0.1321154E-001  0.3176970E+03  0.7546771E-02  0.1076714E+00
         21   -1    0    0  502  501  0.00000000000E+00  0.00000000000E+00  0.24586710167E+03  0.24586710167E+03  0.00000000000E+00 0. -1.
         21   -1    0    0  503  502 -0.00000000000E+00 -0.00000000000E+00 -0.66042717308E+03  0.66042717308E+03  0.00000000000E+00 0. -1.
         25    1    1    2    0    0  0.11045130577E+03 -0.27038284066E+03  0.83880519148E+02  0.32858379900E+03  0.12500000000E+03 0.  0.
         21    1    1    2  503  501 -0.11045130577E+03  0.27038284066E+03 -0.49844059057E+03  0.57771047575E+03  0.00000000000E+00 0. -1.
<mgrwt>
<rscale>  3 0.31769698E+03</rscale>
<asrwt>0</asrwt>
<pdfrwt beam="1">  1       21 0.37825709E-01 0.31769698E+03</pdfrwt>
<pdfrwt beam="2">  1       21 0.10160418E+00 0.31769698E+03</pdfrwt>
<totfact> 0.49277157E+03</totfact>
</mgrwt>
</event>
<event>
 4    0  0.1003929E-001  0.3958840E+03  0.7546771E-02  0.1045214E+00
         21   -1    0    0  503  501  0.00000000000E+00  0.00000000000E+00  0.71949380103E+03  0.71949380103E+03  0.00000000000E+00 0.  1.
         21   -1    0    0  501  502 -0.00000000000E+00 -0.00000000000E+00 -0.47688996181E+03  0.47688996181E+03  0.00000000000E+00 0.  1.
         25    1    1    2    0    0  0.26120286963E+03  0.26994856325E+03  0.57277441599E+03  0.69627199966E+03  0.12500000000E+03 0.  0.
         21    1    1    2  503  502 -0.26120286963E+03 -0.26994856325E+03 -0.33017057677E+03  0.50011176317E+03  0.00000000000E+00 0.  1.
<mgrwt>
<rscale>  3 0.39588403E+03</rscale>
<asrwt>0</asrwt>
<pdfrwt beam="1">  1       21 0.11069135E+00 0.39588403E+03</pdfrwt>
<pdfrwt beam="2">  1       21 0.73367686E-01 0.39588403E+03</pdfrwt>
<totfact> 0.93305438E+02</totfact>
</mgrwt>
</event>
<event>
 4    0  0.1003929E-001  0.2612424E+03  0.7546771E-02  0.1106399E+00
         21   -1    0    0  503  501  0.00000000000E+00  0.00000000000E+00  0.16420325873E+03  0.16420325873E+03  0.00000000000E+00 0.  1.
         21   -1    0    0  501  502 -0.00000000000E+00 -0.00000000000E+00 -0.12139589514E+04  0.12139589514E+04  0.00000000000E+00 0.  1.
         25    1    1    2    0    0  0.11172875779E+03  0.20034783871E+03  0.40209765948E+02  0.26431874143E+03  0.12500000000E+03 0.  0.
         21    1    1    2  503  502 -0.11172875779E+03 -0.20034783871E+03 -0.10899654586E+04  0.11138434687E+04  0.00000000000E+00 0.  1.
<mgrwt>
<rscale>  3 0.26124236E+03</rscale>
<asrwt>0</asrwt>
<pdfrwt beam="1">  1       21 0.25262039E-01 0.26124236E+03</pdfrwt>
<pdfrwt beam="2">  1       21 0.18676292E+00 0.26124236E+03</pdfrwt>
<totfact> 0.22923126E+03</totfact>
</mgrwt>
</event>
<event>
 4    0  0.1022618E-001  0.2449532E+03  0.7546771E-02  0.1116536E+00
         21   -1    0    0  502  501  0.00000000000E+00  0.00000000000E+00  0.63524273067E+03  0.63524273067E+03  0.00000000000E+00 0.  1.
         21   -1    0    0  503  502 -0.00000000000E+00 -0.00000000000E+00 -0.35716569358E+03  0.35716569358E+03  0.00000000000E+00 0.  1.
         25    1    1    2    0    0  0.20535318129E+03  0.46980155584E+02  0.57692659020E+03  0.62677456439E+03  0.12500000000E+03 0.  0.
         21    1    1    2  503  501 -0.20535318129E+03 -0.46980155584E+02 -0.29884955311E+03  0.36563385986E+03  0.00000000000E+00 0.  1.
<mgrwt>
<rscale>  3 0.24495319E+03</rscale>
<asrwt>0</asrwt>
<pdfrwt beam="1">  1       21 0.97729650E-01 0.24495319E+03</pdfrwt>
<pdfrwt beam="2">  1       21 0.54948568E-01 0.24495319E+03</pdfrwt>
<totfact> 0.25985940E+03</totfact>
</mgrwt>
</event>
<event>
 4    0  0.1003929E-001  0.2484137E+03  0.7546771E-02  0.1114311E+00
         21   -1    0    0  502  501  0.00000000000E+00  0.00000000000E+00  0.17518659397E+04  0.17518659397E+04  0.00000000000E+00 0.  1.
         21   -1    0    0  503  502 -0.00000000000E+00 -0.00000000000E+00 -0.31444402799E+02  0.31444402799E+02  0.00000000000E+00 0.  1.
         25    1    1    2    0    0 -0.21052647924E+03 -0.41987888062E+02  0.77572554536E+03  0.81453023451E+03  0.12500000000E+03 0.  0.
         21    1    1    2  503  501  0.21052647924E+03  0.41987888062E+02  0.94469599158E+03  0.96878010803E+03  0.00000000000E+00 0.  1.
<mgrwt>
<rscale>  3 0.24841373E+03</rscale>
<asrwt>0</asrwt>
<pdfrwt beam="1">  1       21 0.26951776E+00 0.24841373E+03</pdfrwt>
<pdfrwt beam="2">  1       21 0.48376018E-02 0.24841373E+03</pdfrwt>
<totfact> 0.13871192E+04</totfact>
</mgrwt>
</event>
<event>
 4    0  0.1235506E-001  0.3858716E+03  0.7546771E-02  0.1048785E+00
         21   -1    0    0  503  501  0.00000000000E+00  0.00000000000E+00  0.76062603775E+03  0.76062603775E+03  0.00000000000E+00 0. -1.
         21   -1    0    0  501  502 -0.00000000000E+00 -0.00000000000E+00 -0.21781710082E+03  0.21781710082E+03  0.00000000000E+00 0. -1.
         25    1    1    2    0    0 -0.28612618347E+03  0.22672379082E+03  0.88964642215E+02  0.39599441632E+03  0.12500000000E+03 0.  0.
         21    1    1    2  503  502  0.28612618347E+03 -0.22672379082E+03  0.45384429471E+03  0.58244872224E+03  0.00000000000E+00 0. -1.
<mgrwt>
<rscale>  3 0.38587157E+03</rscale>
<asrwt>0</asrwt>
<pdfrwt beam="1">  1       21 0.11701939E+00 0.38587157E+03</pdfrwt>
<pdfrwt beam="2">  1       21 0.33510324E-01 0.38587157E+03</pdfrwt>
<totfact> 0.43119360E+03</totfact>
</mgrwt>
</event>
<event>
 4    0  0.1271908E-001  0.3281094E+03  0.7546771E-02  0.1071976E+00
         21   -1    0    0  503  501  0.00000000000E+00  0.00000000000E+00  0.25341730192E+03  0.25341730192E+03  0.00000000000E+00 0. -1.
         21   -1    0    0  501  502 -0.00000000000E+00 -0.00000000000E+00 -0.60251100994E+03  0.60251100994E+03  0.00000000000E+00 0. -1.
         25    1    1    2    0    0 -0.15719397326E+03  0.25946256218E+03  0.72994646012E+02  0.33613090419E+03  0.12500000000E+03 0.  0.
         21    1    1    2  503  502  0.15719397326E+03 -0.25946256218E+03 -0.42208835404E+03  0.51979740767E+03  0.00000000000E+00 0. -1.
<mgrwt>
<rscale>  3 0.32810938E+03</rscale>
<asrwt>0</asrwt>
<pdfrwt beam="1">  1       21 0.38987278E-01 0.32810938E+03</pdfrwt>
<pdfrwt beam="2">  1       21 0.92694000E-01 0.32810938E+03</pdfrwt>
<totfact> 0.57415984E+03</totfact>
</mgrwt>
</event>
<event>
 4    0  0.1460087E-001  0.3751767E+03  0.7546771E-02  0.1052731E+00
         21   -1    0    0  503  501  0.00000000000E+00  0.00000000000E+00  0.12889418621E+03  0.12889418621E+03  0.00000000000E+00 0.  1.
         21   -1    0    0  501  502 -0.00000000000E+00 -0.00000000000E+00 -0.10351809031E+04  0.10351809031E+04  0.00000000000E+00 0.  1.
         25    1    1    2    0    0 -0.34976528585E+03  0.52884992250E+02 -0.42744169755E+03  0.56873894046E+03  0.12500000000E+03 0.  0.
         21    1    1    2  503  502  0.34976528585E+03 -0.52884992250E+02 -0.47884501937E+03  0.59533614888E+03  0.00000000000E+00 0.  1.
<mgrwt>
<rscale>  3 0.37517673E+03</rscale>
<asrwt>0</asrwt>
<pdfrwt beam="1">  1       21 0.19829875E-01 0.37517673E+03</pdfrwt>
<pdfrwt beam="2">  1       21 0.15925860E+00 0.37517673E+03</pdfrwt>
<totfact> 0.53559703E+03</totfact>
</mgrwt>
</event>
<event>
 4    0  0.1402242E-001  0.2760248E+03  0.7546771E-02  0.1097880E+00
         21   -1    0    0  502  501  0.00000000000E+00  0.00000000000E+00  0.66075118625E+03  0.66075118625E+03  0.00000000000E+00 0.  1.
         21   -1    0    0  503  502 -0.00000000000E+00 -0.00000000000E+00 -0.10352946789E+03  0.10352946789E+03  0.00000000000E+00 0.  1.
         25    1    1    2    0    0 -0.17609569396E+03 -0.17191565390E+03  0.31776433071E+03  0.42090836931E+03  0.12500000000E+03 0.  0.
         21    1    1    2  503  501  0.17609569396E+03  0.17191565390E+03  0.23945738765E+03  0.34337228483E+03  0.00000000000E+00 0.  1.
<mgrwt>
<rscale>  3 0.27602479E+03</rscale>
<asrwt>0</asrwt>
<pdfrwt beam="1">  1       21 0.10165403E+00 0.27602479E+03</pdfrwt>
<pdfrwt beam="2">  1       21 0.15927611E-01 0.27602479E+03</pdfrwt>
<totfact> 0.26608361E+04</totfact>
</mgrwt>
</event>
<event>
 4    0  0.1014317E-001  0.2741629E+03  0.7546771E-02  0.1098920E+00
         21   -1    0    0  502  501  0.00000000000E+00  0.00000000000E+00  0.69456099200E+02  0.69456099200E+02  0.00000000000E+00 0.  1.
         21   -1    0    0  503  502 -0.00000000000E+00 -0.00000000000E+00 -0.10872266179E+04  0.10872266179E+04  0.00000000000E+00 0.  1.
         25    1    1    2    0    0 -0.87599660418E+02 -0.22774239007E+03 -0.72768241937E+03  0.77761622939E+03  0.12500000000E+03 0.  0.
         21    1    1    2  503  501  0.87599660418E+02  0.22774239007E+03 -0.29008809936E+03  0.37906648775E+03  0.00000000000E+00 0.  1.
<mgrwt>
<rscale>  3 0.27416290E+03</rscale>
<asrwt>0</asrwt>
<pdfrwt beam="1">  1       21 0.10685554E-01 0.27416290E+03</pdfrwt>
<pdfrwt beam="2">  1       21 0.16726563E+00 0.27416290E+03</pdfrwt>
<totfact> 0.15291663E+04</totfact>
</mgrwt>
</event>
<event>
 4    0  0.1329554E-001  0.2579049E+03  0.7546771E-02  0.1108409E+00
         21   -1    0    0  502  501  0.00000000000E+00  0.00000000000E+00  0.62919092753E+03  0.62919092753E+03  0.00000000000E+00 0.  1.
         21   -1    0    0  503  502 -0.00000000000E+00 -0.00000000000E+00 -0.10780582197E+03  0.10780582197E+03  0.00000000000E+00 0.  1.
         25    1    1    2    0    0 -0.23247273832E+02 -0.22438690477E+03  0.41254077163E+03  0.48652318242E+03  0.12500000000E+03 0.  0.
         21    1    1    2  503  501  0.23247273832E+02  0.22438690477E+03  0.10884433393E+03  0.25047356708E+03  0.00000000000E+00 0.  1.
<mgrwt>
<rscale>  3 0.25790486E+03</rscale>
<asrwt>0</asrwt>
<pdfrwt beam="1">  1       21 0.96798602E-01 0.25790486E+03</pdfrwt>
<pdfrwt beam="2">  1       21 0.16585511E-01 0.25790486E+03</pdfrwt>
<totfact> 0.27977921E+04</totfact>
</mgrwt>
</event>
<event>
 4    0  0.1223603E-001  0.2540189E+03  0.7546771E-02  0.1110791E+00
         21   -1    0    0  502  501  0.00000000000E+00  0.00000000000E+00  0.30657908238E+03  0.30657908238E+03  0.00000000000E+00 0.  1.
         21   -1    0    0  503  502 -0.00000000000E+00 -0.00000000000E+00 -0.19146824097E+03  0.19146824097E+03  0.00000000000E+00 0.  1.
         25    1    1    2    0    0  0.21928447647E+03 -0.28546480918E+02  0.12663577515E+02  0.25433432601E+03  0.12500000000E+03 0.  0.
         21    1    1    2  503  501 -0.21928447647E+03  0.28546480918E+02  0.10244726390E+03  0.24371299734E+03  0.00000000000E+00 0.  1.
<mgrwt>
<rscale>  3 0.25401886E+03</rscale>
<asrwt>0</asrwt>
<pdfrwt beam="1">  1       21 0.47166013E-01 0.25401886E+03</pdfrwt>
<pdfrwt beam="2">  1       21 0.29456652E-01 0.25401886E+03</pdfrwt>
<totfact> 0.46203062E+04</totfact>
</mgrwt>
</event>
<event>
 4    0  0.1003929E-001  0.3504752E+03  0.7546771E-02  0.1062420E+00
         21   -1    0    0  502  501  0.00000000000E+00  0.00000000000E+00  0.55073608589E+02  0.55073608589E+02  0.00000000000E+00 0.  1.
         21   -1    0    0  503  502 -0.00000000000E+00 -0.00000000000E+00 -0.23822550754E+04  0.23822550754E+04  0.00000000000E+00 0.  1.
         25    1    1    2    0    0 -0.11747179298E+03  0.30562756617E+03 -0.16277218599E+04  0.16650259110E+04  0.12500000000E+03 0.  0.
         21    1    1    2  503  501  0.11747179298E+03 -0.30562756617E+03 -0.69945960693E+03  0.77230277293E+03  0.00000000000E+00 0.  1.
<mgrwt>
<rscale>  3 0.35047515E+03</rscale>
<asrwt>0</asrwt>
<pdfrwt beam="1">  1       21 0.84728639E-02 0.35047515E+03</pdfrwt>
<pdfrwt beam="2">  1       21 0.36650074E+00 0.35047515E+03</pdfrwt>
<totfact> 0.12842589E+03</totfact>
</mgrwt>
</event>
<event>
 4    0  0.1307212E-001  0.2983345E+03  0.7546771E-02  0.1086076E+00
         21   -1    0    0  502  501  0.00000000000E+00  0.00000000000E+00  0.95479881556E+03  0.95479881556E+03  0.00000000000E+00 0.  1.
         21   -1    0    0  503  502 -0.00000000000E+00 -0.00000000000E+00 -0.85579416315E+02  0.85579416315E+02  0.00000000000E+00 0.  1.
         25    1    1    2    0    0  0.73528658258E+02 -0.26071439565E+03  0.50377046066E+03  0.58548111559E+03  0.12500000000E+03 0.  0.
         21    1    1    2  503  501 -0.73528658258E+02  0.26071439565E+03  0.36544893859E+03  0.45489711628E+03  0.00000000000E+00 0.  1.
<mgrwt>
<rscale>  3 0.29833448E+03</rscale>
<asrwt>0</asrwt>
<pdfrwt beam="1">  1       21 0.14689212E+00 0.29833448E+03</pdfrwt>
<pdfrwt beam="2">  1       21 0.13166065E-01 0.29833448E+03</pdfrwt>
<totfact> 0.14757070E+04</totfact>
</mgrwt>
</event>
<event>
 4    0  0.1154039E-001  0.2639641E+03  0.7546771E-02  0.1104785E+00
         21   -1    0    0  502  501  0.00000000000E+00  0.00000000000E+00  0.82477832251E+02  0.82477832251E+02  0.00000000000E+00 0. -1.
         21   -1    0    0  503  502 -0.00000000000E+00 -0.00000000000E+00 -0.13692624553E+04  0.13692624553E+04  0.00000000000E+00 0. -1.
         25    1    1    2    0    0  0.21883784703E+03 -0.78498579517E+02 -0.17688102874E+03  0.31774821574E+03  0.12500000000E+03 0.  0.
         21    1    1    2  503  501 -0.21883784703E+03  0.78498579517E+02 -0.11099035943E+04  0.11339920718E+04  0.00000000000E+00 0. -1.
<mgrwt>
<rscale>  3 0.26396407E+03</rscale>
<asrwt>0</asrwt>
<pdfrwt beam="1">  1       21 0.12688898E-01 0.26396407E+03</pdfrwt>
<pdfrwt beam="2">  1       21 0.21065576E+00 0.26396407E+03</pdfrwt>
<totfact> 0.57617302E+03</totfact>
</mgrwt>
</event>
<event>
 4    0  0.1128416E-001  0.2972371E+03  0.7546771E-02  0.1086630E+00
         21   -1    0    0  502  501  0.00000000000E+00  0.00000000000E+00  0.98739840380E+03  0.98739840380E+03  0.00000000000E+00 0. -1.
         21   -1    0    0  503  502 -0.00000000000E+00 -0.00000000000E+00 -0.15634827858E+03  0.15634827858E+03  0.00000000000E+00 0. -1.
         25    1    1    2    0    0 -0.17241637525E+03  0.20735834675E+03  0.82181138250E+03  0.87391294693E+03  0.12500000000E+03 0.  0.
         21    1    1    2  503  501  0.17241637525E+03 -0.20735834675E+03  0.92387427257E+01  0.26983373545E+03  0.00000000000E+00 0. -1.
<mgrwt>
<rscale>  3 0.29723709E+03</rscale>
<asrwt>0</asrwt>
<pdfrwt beam="1">  1       21 0.15190744E+00 0.29723709E+03</pdfrwt>
<pdfrwt beam="2">  1       21 0.24053582E-01 0.29723709E+03</pdfrwt>
<totfact> 0.43798797E+03</totfact>
</mgrwt>
</event>
<event>
 4    0  0.1604125E-001  0.2599750E+03  0.7546771E-02  0.1107158E+00
         21   -1    0    0  503  501  0.00000000000E+00  0.00000000000E+00  0.40600869782E+03  0.40600869782E+03  0.00000000000E+00 0. -1.
         21   -1    0    0  501  502 -0.00000000000E+00 -0.00000000000E+00 -0.15217015079E+03  0.15217015079E+03  0.00000000000E+00 0. -1.
         25    1    1    2    0    0  0.29071329333E+02 -0.22609035322E+03  0.18826185120E+03  0.32098210951E+03  0.12500000000E+03 0.  0.
         21    1    1    2  503  502 -0.29071329333E+02  0.22609035322E+03  0.65576695830E+02  0.23719673911E+03  0.00000000000E+00 0. -1.
<mgrwt>
<rscale>  3 0.25997498E+03</rscale>
<asrwt>0</asrwt>
<pdfrwt beam="1">  1       21 0.62462876E-01 0.25997498E+03</pdfrwt>
<pdfrwt beam="2">  1       21 0.23410793E-01 0.25997498E+03</pdfrwt>
<totfact> 0.39527693E+04</totfact>
</mgrwt>
</event>
<event>
 4    0  0.1421914E-001  0.2443063E+03  0.7546771E-02  0.1116957E+00
         21   -1    0    0  502  501  0.00000000000E+00  0.00000000000E+00  0.33259893030E+03  0.33259893030E+03  0.00000000000E+00 0. -1.
         21   -1    0    0  503  502 -0.00000000000E+00 -0.00000000000E+00 -0.16574468239E+03  0.16574468239E+03  0.00000000000E+00 0. -1.
         25    1    1    2    0    0 -0.20673443765E+03 -0.36351405272E+02  0.26283498094E+02  0.24571604475E+03  0.12500000000E+03 0.  0.
         21    1    1    2  503  501  0.20673443765E+03  0.36351405272E+02  0.14057074982E+03  0.25262756794E+03  0.00000000000E+00 0. -1.
<mgrwt>
<rscale>  3 0.24430627E+03</rscale>
<asrwt>0</asrwt>
<pdfrwt beam="1">  1       21 0.51169066E-01 0.24430627E+03</pdfrwt>
<pdfrwt beam="2">  1       21 0.25499182E-01 0.24430627E+03</pdfrwt>
<totfact> 0.51747995E+04</totfact>
</mgrwt>
</event>
<event>
 4    0  0.1386781E-001  0.2789154E+03  0.7546771E-02  0.1096283E+00
         21   -1    0    0  502  501  0.00000000000E+00  0.00000000000E+00  0.93346645322E+02  0.93346645322E+02  0.00000000000E+00 0.  1.
         21   -1    0    0  503  502 -0.00000000000E+00 -0.00000000000E+00 -0.75176299516E+03  0.75176299516E+03  0.00000000000E+00 0.  1.
         25    1    1    2    0    0 -0.60342233028E+02  0.24192478841E+03 -0.37985996866E+03  0.47126148169E+03  0.12500000000E+03 0.  0.
         21    1    1    2  503  501  0.60342233028E+02 -0.24192478841E+03 -0.27855638117E+03  0.37384815879E+03  0.00000000000E+00 0.  1.
<mgrwt>
<rscale>  3 0.27891538E+03</rscale>
<asrwt>0</asrwt>
<pdfrwt beam="1">  1       21 0.14361022E-01 0.27891538E+03</pdfrwt>
<pdfrwt beam="2">  1       21 0.11565585E+00 0.27891538E+03</pdfrwt>
<totfact> 0.23457622E+04</totfact>
</mgrwt>
</event>
<event>
 4    0  0.1307381E-001  0.4910007E+03  0.7546771E-02  0.1016155E+00
         21   -1    0    0  503  501  0.00000000000E+00  0.00000000000E+00  0.58533916469E+03  0.58533916469E+03  0.00000000000E+00 0. -1.
         21   -1    0    0  501  502 -0.00000000000E+00 -0.00000000000E+00 -0.44969531865E+03  0.44969531865E+03  0.00000000000E+00 0. -1.
         25    1    1    2    0    0  0.11400748421E+03  0.46093276478E+03  0.24357823634E+03  0.54809860182E+03  0.12500000000E+03 0.  0.
         21    1    1    2  503  502 -0.11400748421E+03 -0.46093276478E+03 -0.10793439030E+03  0.48693588152E+03  0.00000000000E+00 0. -1.
<mgrwt>
<rscale>  3 0.49100073E+03</rscale>
<asrwt>0</asrwt>
<pdfrwt beam="1">  1       21 0.90052180E-01 0.49100073E+03</pdfrwt>
<pdfrwt beam="2">  1       21 0.69183894E-01 0.49100073E+03</pdfrwt>
<totfact> 0.16906248E+03</totfact>
</mgrwt>
</event>
<event>
 4    0  0.1003929E-001  0.3041249E+03  0.7546771E-02  0.1083197E+00
         21   -1    0    0  502  501  0.00000000000E+00  0.00000000000E+00  0.15005776394E+04  0.15005776394E+04  0.00000000000E+00 0.  1.
         21   -1    0    0  503  502 -0.00000000000E+00 -0.00000000000E+00 -0.16413051347E+03  0.16413051347E+03  0.00000000000E+00 0.  1.
         25    1    1    2    0    0  0.26550442785E+03 -0.79839552134E+02  0.13531992975E+04  0.13869536020E+04  0.12500000000E+03 0.  0.
         21    1    1    2  503  501 -0.26550442785E+03  0.79839552134E+02 -0.16752171572E+02  0.27775455090E+03  0.00000000000E+00 0.  1.
<mgrwt>
<rscale>  3 0.30412490E+03</rscale>
<asrwt>0</asrwt>
<pdfrwt beam="1">  1       21 0.23085809E+00 0.30412490E+03</pdfrwt>
<pdfrwt beam="2">  1       21 0.25250849E-01 0.30412490E+03</pdfrwt>
<totfact> 0.11582163E+03</totfact>
</mgrwt>
</event>
<event>
 4    0  0.1437212E-001  0.2499099E+03  0.7546771E-02  0.1113362E+00
         21   -1    0    0  503  501  0.00000000000E+00  0.00000000000E+00  0.23037655784E+03  0.23037655784E+03  0.00000000000E+00 0.  1.
         21   -1    0    0  501  502 -0.00000000000E+00 -0.00000000000E+00 -0.28767447389E+03  0.28767447389E+03  0.00000000000E+00 0.  1.
         25    1    1    2    0    0  0.19103007170E+03 -0.10167327689E+03  0.79244122906E+02  0.26217279520E+03  0.12500000000E+03 0.  0.
         21    1    1    2  503  502 -0.19103007170E+03  0.10167327689E+03 -0.13654203896E+03  0.25587823653E+03  0.00000000000E+00 0.  1.
<mgrwt>
<rscale>  3 0.24990987E+03</rscale>
<asrwt>0</asrwt>
<pdfrwt beam="1">  1       21 0.35442547E-01 0.24990987E+03</pdfrwt>
<pdfrwt beam="2">  1       21 0.44257612E-01 0.24990987E+03</pdfrwt>
<totfact> 0.36617423E+04</totfact>
</mgrwt>
</event>
<event>
 4    0  0.1367418E-001  0.2620392E+03  0.7546771E-02  0.1105924E+00
         21   -1    0    0  503  501  0.00000000000E+00  0.00000000000E+00  0.62879484746E+03  0.62879484746E+03  0.00000000000E+00 0.  1.
         21   -1    0    0  501  502 -0.00000000000E+00 -0.00000000000E+00 -0.11869974290E+03  0.11869974290E+03  0.00000000000E+00 0.  1.
         25    1    1    2    0    0  0.18365571229E+03 -0.13896080835E+03  0.43020770008E+03  0.50372928456E+03  0.12500000000E+03 0.  0.
         21    1    1    2  503  502 -0.18365571229E+03  0.13896080835E+03  0.79887404484E+02  0.24376530580E+03  0.00000000000E+00 0.  1.
<mgrwt>
<rscale>  3 0.26203917E+03</rscale>
<asrwt>0</asrwt>
<pdfrwt beam="1">  1       21 0.96737667E-01 0.26203917E+03</pdfrwt>
<pdfrwt beam="2">  1       21 0.18261499E-01 0.26203917E+03</pdfrwt>
<totfact> 0.23390359E+04</totfact>
</mgrwt>
</event>
<event>
 4    0  0.1702418E-001  0.3018891E+03  0.7546771E-02  0.1084300E+00
         21   -1    0    0  502  501  0.00000000000E+00  0.00000000000E+00  0.19917201596E+03  0.19917201596E+03  0.00000000000E+00 0. -1.
         21   -1    0    0  503  502 -0.00000000000E+00 -0.00000000000E+00 -0.41828735366E+03  0.41828735366E+03  0.00000000000E+00 0. -1.
         25    1    1    2    0    0  0.16375657971E+03  0.22067130065E+03 -0.10075878194E+03  0.31825991338E+03  0.12500000000E+03 0.  0.
         21    1    1    2  503  501 -0.16375657971E+03 -0.22067130065E+03 -0.11835655576E+03  0.29919945625E+03  0.00000000000E+00 0. -1.
<mgrwt>
<rscale>  3 0.30188912E+03</rscale>
<asrwt>0</asrwt>
<pdfrwt beam="1">  1       21 0.30641849E-01 0.30188912E+03</pdfrwt>
<pdfrwt beam="2">  1       21 0.64351899E-01 0.30188912E+03</pdfrwt>
<totfact> 0.21599397E+04</totfact>
</mgrwt>
</event>
<event>
 4    0  0.1384580E-001  0.2925199E+03  0.7546771E-02  0.1089041E+00
         21   -1    0    0  502  501  0.00000000000E+00  0.00000000000E+00  0.90063703524E+03  0.90063703524E+03  0.00000000000E+00 0.  1.
         21   -1    0    0  503  502 -0.00000000000E+00 -0.00000000000E+00 -0.11784733401E+03  0.11784733401E+03  0.00000000000E+00 0.  1.
         25    1    1    2    0    0  0.25423036656E+03 -0.72868262855E+02  0.66980365078E+03  0.73089314787E+03  0.12500000000E+03 0.  0.
         21    1    1    2  503  501 -0.25423036656E+03  0.72868262855E+02  0.11298605046E+03  0.28759122137E+03  0.00000000000E+00 0.  1.
<mgrwt>
<rscale>  3 0.29251985E+03</rscale>
<asrwt>0</asrwt>
<pdfrwt beam="1">  1       21 0.13855954E+00 0.29251985E+03</pdfrwt>
<pdfrwt beam="2">  1       21 0.18130360E-01 0.29251985E+03</pdfrwt>
<totfact> 0.95714979E+03</totfact>
</mgrwt>
</event>
<event>
 4    0  0.1459055E-001  0.2368888E+03  0.7546771E-02  0.1121883E+00
         21   -1    0    0  503  501  0.00000000000E+00  0.00000000000E+00  0.24293254851E+03  0.24293254851E+03  0.00000000000E+00 0.  1.
         21   -1    0    0  501  502 -0.00000000000E+00 -0.00000000000E+00 -0.21109567567E+03  0.21109567567E+03  0.00000000000E+00 0.  1.
         25    1    1    2    0    0 -0.24980178515E+02  0.19966790825E+03  0.74506584039E+02  0.24832944644E+03  0.12500000000E+03 0.  0.
         21    1    1    2  503  502  0.24980178515E+02 -0.19966790825E+03 -0.42669711200E+02  0.20569877773E+03  0.00000000000E+00 0.  1.
<mgrwt>
<rscale>  3 0.23688876E+03</rscale>
<asrwt>0</asrwt>
<pdfrwt beam="1">  1       21 0.37374238E-01 0.23688876E+03</pdfrwt>
<pdfrwt beam="2">  1       21 0.32476258E-01 0.23688876E+03</pdfrwt>
<totfact> 0.61800000E+04</totfact>
</mgrwt>
</event>
<event>
 4    0  0.1648938E-001  0.2491913E+03  0.7546771E-02  0.1113817E+00
         21   -1    0    0  503  501  0.00000000000E+00  0.00000000000E+00  0.32764347180E+03  0.32764347180E+03  0.00000000000E+00 0.  1.
         21   -1    0    0  501  502 -0.00000000000E+00 -0.00000000000E+00 -0.23336688592E+03  0.23336688592E+03  0.00000000000E+00 0.  1.
         25    1    1    2    0    0  0.21520376927E+03  0.12595629522E+02  0.20129357692E+03  0.32033641114E+03  0.12500000000E+03 0.  0.
         21    1    1    2  503  502 -0.21520376927E+03 -0.12595629522E+02 -0.10701699103E+03  0.24067394658E+03  0.00000000000E+00 0.  1.
<mgrwt>
<rscale>  3 0.24919132E+03</rscale>
<asrwt>0</asrwt>
<pdfrwt beam="1">  1       21 0.50406688E-01 0.24919132E+03</pdfrwt>
<pdfrwt beam="2">  1       21 0.35902598E-01 0.24919132E+03</pdfrwt>
<totfact> 0.27228389E+04</totfact>
</mgrwt>
</event>
<event>
 4    0  0.1003929E-001  0.3866046E+03  0.7546771E-02  0.1048519E+00
         21   -1    0    0  503  501  0.00000000000E+00  0.00000000000E+00  0.11707177413E+04  0.11707177413E+04  0.00000000000E+00 0.  1.
         21   -1    0    0  501  502 -0.00000000000E+00 -0.00000000000E+00 -0.21935967774E+03  0.21935967774E+03  0.00000000000E+00 0.  1.
         25    1    1    2    0    0  0.33831031805E+03 -0.13922729939E+03  0.94846080531E+03  0.10242270312E+04  0.12500000000E+03 0.  0.
         21    1    1    2  503  502 -0.33831031805E+03  0.13922729939E+03  0.28972582487E+01  0.36585038786E+03  0.00000000000E+00 0.  1.
<mgrwt>
<rscale>  3 0.38660459E+03</rscale>
<asrwt>0</asrwt>
<pdfrwt beam="1">  1       21 0.18011042E+00 0.38660459E+03</pdfrwt>
<pdfrwt beam="2">  1       21 0.33747643E-01 0.38660459E+03</pdfrwt>
<totfact> 0.13346399E+03</totfact>
</mgrwt>
</event>
<event>
 4    0  0.1463059E-001  0.3204265E+03  0.7546771E-02  0.1075453E+00
         21   -1    0    0  503  501  0.00000000000E+00  0.00000000000E+00  0.31352060404E+03  0.31352060404E+03  0.00000000000E+00 0.  1.
         21   -1    0    0  501  502 -0.00000000000E+00 -0.00000000000E+00 -0.34663678608E+03  0.34663678608E+03  0.00000000000E+00 0.  1.
         25    1    1    2    0    0 -0.51295459532E+02  0.29054588781E+03  0.10113772329E+03  0.33600889299E+03  0.12500000000E+03 0.  0.
         21    1    1    2  503  502  0.51295459532E+02 -0.29054588781E+03 -0.13425390533E+03  0.32414849713E+03  0.00000000000E+00 0.  1.
<mgrwt>
<rscale>  3 0.32042649E+03</rscale>
<asrwt>0</asrwt>
<pdfrwt beam="1">  1       21 0.48233939E-01 0.32042649E+03</pdfrwt>
<pdfrwt beam="2">  1       21 0.53328736E-01 0.32042649E+03</pdfrwt>
<totfact> 0.12796047E+04</totfact>
</mgrwt>
</event>
<event>
 4    0  0.1086476E-001  0.2710421E+03  0.7546771E-02  0.1100685E+00
         21   -1    0    0  503  501  0.00000000000E+00  0.00000000000E+00  0.35170494507E+02  0.35170494507E+02  0.00000000000E+00 0. -1.
         21   -1    0    0  501  502 -0.00000000000E+00 -0.00000000000E+00 -0.18618379728E+04  0.18618379728E+04  0.00000000000E+00 0. -1.
         25    1    1    2    0    0  0.24042481718E+03 -0.58915412952E+01 -0.93828481213E+03  0.97664844835E+03  0.12500000000E+03 0.  0.
         21    1    1    2  503  502 -0.24042481718E+03  0.58915412952E+01 -0.88838266617E+03  0.92036001898E+03  0.00000000000E+00 0. -1.
<mgrwt>
<rscale>  3 0.27104207E+03</rscale>
<asrwt>0</asrwt>
<pdfrwt beam="1">  1       21 0.54108444E-02 0.27104207E+03</pdfrwt>
<pdfrwt beam="2">  1       21 0.28643666E+00 0.27104207E+03</pdfrwt>
<totfact> 0.89591209E+03</totfact>
</mgrwt>
</event>
<event>
 4    0  0.1380636E-001  0.2454331E+03  0.7546771E-02  0.1116225E+00
         21   -1    0    0  502  501  0.00000000000E+00  0.00000000000E+00  0.67636301892E+03  0.67636301892E+03  0.00000000000E+00 0. -1.
         21   -1    0    0  503  502 -0.00000000000E+00 -0.00000000000E+00 -0.14800601334E+03  0.14800601334E+03  0.00000000000E+00 0. -1.
         25    1    1    2    0    0 -0.20788925350E+03  0.37342288021E+02  0.55940998878E+03  0.61088208661E+03  0.12500000000E+03 0.  0.
         21    1    1    2  503  501  0.20788925350E+03 -0.37342288021E+02 -0.31052983207E+02  0.21348694565E+03  0.00000000000E+00 0. -1.
<mgrwt>
<rscale>  3 0.24543306E+03</rscale>
<asrwt>0</asrwt>
<pdfrwt beam="1">  1       21 0.10405585E+00 0.24543306E+03</pdfrwt>
<pdfrwt beam="2">  1       21 0.22770156E-01 0.24543306E+03</pdfrwt>
<totfact> 0.13071955E+04</totfact>
</mgrwt>
</event>
<event>
 4    0  0.1140243E-001  0.3141163E+03  0.7546771E-02  0.1078389E+00
         21   -1    0    0  503  501  0.00000000000E+00  0.00000000000E+00  0.77541075121E+03  0.77541075121E+03  0.00000000000E+00 0. -1.
         21   -1    0    0  501  502 -0.00000000000E+00 -0.00000000000E+00 -0.22572149821E+03  0.22572149821E+03  0.00000000000E+00 0. -1.
         25    1    1    2    0    0  0.23852687403E+03 -0.16170639451E+03  0.62828553396E+03  0.70243272976E+03  0.12500000000E+03 0.  0.
         21    1    1    2  503  502 -0.23852687403E+03  0.16170639451E+03 -0.78596280959E+02  0.29869951965E+03  0.00000000000E+00 0. -1.
<mgrwt>
<rscale>  3 0.31411626E+03</rscale>
<asrwt>0</asrwt>
<pdfrwt beam="1">  1       21 0.11929396E+00 0.31411626E+03</pdfrwt>
<pdfrwt beam="2">  1       21 0.34726385E-01 0.31411626E+03</pdfrwt>
<totfact> 0.39532988E+03</totfact>
</mgrwt>
</event>
<event>
 4    0  0.1359176E-001  0.3747067E+03  0.7546771E-02  0.1052908E+00
         21   -1    0    0  502  501  0.00000000000E+00  0.00000000000E+00  0.23090948370E+03  0.23090948370E+03  0.00000000000E+00 0.  1.
         21   -1    0    0  503  502 -0.00000000000E+00 -0.00000000000E+00 -0.63227641789E+03  0.63227641789E+03  0.00000000000E+00 0.  1.
         25    1    1    2    0    0 -0.75787979709E+02  0.34501637388E+03 -0.74761524609E+02  0.38209213768E+03  0.12500000000E+03 0.  0.
         21    1    1    2  503  501  0.75787979709E+02 -0.34501637388E+03 -0.32660540958E+03  0.48109376392E+03  0.00000000000E+00 0.  1.
<mgrwt>
<rscale>  3 0.37470671E+03</rscale>
<asrwt>0</asrwt>
<pdfrwt beam="1">  1       21 0.35524536E-01 0.37470671E+03</pdfrwt>
<pdfrwt beam="2">  1       21 0.97273295E-01 0.37470671E+03</pdfrwt>
<totfact> 0.60611725E+03</totfact>
</mgrwt>
</event>
<event>
 4    0  0.1003929E-001  0.2927259E+03  0.7546771E-02  0.1088934E+00
         21   -1    0    0  503  501  0.00000000000E+00  0.00000000000E+00  0.22531142202E+04  0.22531142202E+04  0.00000000000E+00 0. -1.
         21   -1    0    0  501  502 -0.00000000000E+00 -0.00000000000E+00 -0.56589452209E+02  0.56589452209E+02  0.00000000000E+00 0. -1.
         25    1    1    2    0    0 -0.11274632220E+03 -0.23948215246E+03  0.18532611493E+04  0.18762370111E+04  0.12500000000E+03 0.  0.
         21    1    1    2  503  502  0.11274632220E+03  0.23948215246E+03  0.34326361876E+03  0.43346666132E+03  0.00000000000E+00 0. -1.
<mgrwt>
<rscale>  3 0.29272587E+03</rscale>
<asrwt>0</asrwt>
<pdfrwt beam="1">  1       21 0.34663289E+00 0.29272587E+03</pdfrwt>
<pdfrwt beam="2">  1       21 0.87060713E-02 0.29272587E+03</pdfrwt>
<totfact> 0.16954753E+03</totfact>
</mgrwt>
</event>
<event>
 4    0  0.1134023E-001  0.3006906E+03  0.7546771E-02  0.1084896E+00
         21   -1    0    0  502  501  0.00000000000E+00  0.00000000000E+00  0.33218872008E+03  0.33218872008E+03  0.00000000000E+00 0.  1.
         21   -1    0    0  503  502 -0.00000000000E+00 -0.00000000000E+00 -0.57034251183E+03  0.57034251183E+03  0.00000000000E+00 0.  1.
         25    1    1    2    0    0  0.45363959782E+02  0.26968860588E+03  0.21750034747E+03  0.37110811651E+03  0.12500000000E+03 0.  0.
         21    1    1    2  503  501 -0.45363959782E+02 -0.26968860588E+03 -0.45565413922E+03  0.53142311540E+03  0.00000000000E+00 0.  1.
<mgrwt>
<rscale>  3 0.30069059E+03</rscale>
<asrwt>0</asrwt>
<pdfrwt beam="1">  1       21 0.51105958E-01 0.30069059E+03</pdfrwt>
<pdfrwt beam="2">  1       21 0.87745000E-01 0.30069059E+03</pdfrwt>
<totfact> 0.37740351E+03</totfact>
</mgrwt>
</event>
<event>
 4    0  0.1003929E-001  0.2398164E+03  0.7546771E-02  0.1119915E+00
         21   -1    0    0  503  501  0.00000000000E+00  0.00000000000E+00  0.25721675726E+04  0.25721675726E+04  0.00000000000E+00 0. -1.
         21   -1    0    0  501  502 -0.00000000000E+00 -0.00000000000E+00 -0.34308800158E+02  0.34308800158E+02  0.00000000000E+00 0. -1.
         25    1    1    2    0    0 -0.60406167519E+01 -0.20457379344E+03  0.21883691526E+04  0.22014702982E+04  0.12500000000E+03 0.  0.
         21    1    1    2  503  502  0.60406167519E+01  0.20457379344E+03  0.34948961983E+03  0.40500607450E+03  0.00000000000E+00 0. -1.
<mgrwt>
<rscale>  3 0.23981644E+03</rscale>
<asrwt>0</asrwt>
<pdfrwt beam="1">  1       21 0.39571794E+00 0.23981644E+03</pdfrwt>
<pdfrwt beam="2">  1       21 0.52782790E-02 0.23981644E+03</pdfrwt>
<totfact> 0.21369112E+03</totfact>
</mgrwt>
</event>
<event>
 4    0  0.1268035E-001  0.3285614E+03  0.7546771E-02  0.1071775E+00
         21   -1    0    0  502  501  0.00000000000E+00  0.00000000000E+00  0.72859885569E+03  0.72859885569E+03  0.00000000000E+00 0.  1.
         21   -1    0    0  503  502 -0.00000000000E+00 -0.00000000000E+00 -0.18390273236E+03  0.18390273236E+03  0.00000000000E+00 0.  1.
         25    1    1    2    0    0  0.23274628334E+03 -0.19533756247E+03  0.50999881578E+03  0.60667238920E+03  0.12500000000E+03 0.  0.
         21    1    1    2  503  501 -0.23274628334E+03  0.19533756247E+03  0.34697307560E+02  0.30582919885E+03  0.00000000000E+00 0.  1.
<mgrwt>
<rscale>  3 0.32856140E+03</rscale>
<asrwt>0</asrwt>
<pdfrwt beam="1">  1       21 0.11209213E+00 0.32856140E+03</pdfrwt>
<pdfrwt beam="2">  1       21 0.28292728E-01 0.32856140E+03</pdfrwt>
<totfact> 0.68783058E+03</totfact>
</mgrwt>
</event>
<event>
 4    0  0.1098597E-001  0.2516865E+03  0.7546771E-02  0.1112244E+00
         21   -1    0    0  503  501  0.00000000000E+00  0.00000000000E+00  0.95075495436E+03  0.95075495436E+03  0.00000000000E+00 0. -1.
         21   -1    0    0  501  502 -0.00000000000E+00 -0.00000000000E+00 -0.14823132308E+03  0.14823132308E+03  0.00000000000E+00 0. -1.
         25    1    1    2    0    0  0.20684481737E+03  0.70259063393E+02  0.84039685512E+03  0.87727589079E+03  0.12500000000E+03 0.  0.
         21    1    1    2  503  502 -0.20684481737E+03 -0.70259063393E+02 -0.37873223844E+02  0.22171038665E+03  0.00000000000E+00 0. -1.
<mgrwt>
<rscale>  3 0.25168654E+03</rscale>
<asrwt>0</asrwt>
<pdfrwt beam="1">  1       21 0.14626999E+00 0.25168654E+03</pdfrwt>
<pdfrwt beam="2">  1       21 0.22804820E-01 0.25168654E+03</pdfrwt>
<totfact> 0.55134469E+03</totfact>
</mgrwt>
</event>
<event>
 4    0  0.1003929E-001  0.3015463E+03  0.7546771E-02  0.1084470E+00
         21   -1    0    0  503  501  0.00000000000E+00  0.00000000000E+00  0.11280178586E+04  0.11280178586E+04  0.00000000000E+00 0.  1.
         21   -1    0    0  501  502 -0.00000000000E+00 -0.00000000000E+00 -0.74035725565E+02  0.74035725565E+02  0.00000000000E+00 0. -1.
         25    1    1    2    0    0  0.22338818394E+03  0.15938281740E+03  0.60167035910E+03  0.67300622896E+03  0.12500000000E+03 0.  0.
         21    1    1    2  503  502 -0.22338818394E+03 -0.15938281740E+03  0.45231177396E+03  0.52904735523E+03  0.00000000000E+00 0. -1.
<mgrwt>
<rscale>  3 0.30154629E+03</rscale>
<asrwt>0</asrwt>
<pdfrwt beam="1">  1       21 0.17354120E+00 0.30154629E+03</pdfrwt>
<pdfrwt beam="2">  1       21 0.11390112E-01 0.30154629E+03</pdfrwt>
<totfact> 0.12128066E+04</totfact>
</mgrwt>
</event>
<event>
 4    0  0.1003929E-001  0.3301230E+03  0.7546771E-02  0.1071082E+00
         21   -1    0    0  503  501  0.00000000000E+00  0.00000000000E+00  0.10405211842E+04  0.10405211842E+04  0.00000000000E+00 0.  1.
         21   -1    0    0  501  502 -0.00000000000E+00 -0.00000000000E+00 -0.97121609862E+02  0.97121609862E+02  0.00000000000E+00 0. -1.
         25    1    1    2    0    0  0.24722342868E+03 -0.17954604495E+03  0.47870433508E+03  0.58149724537E+03  0.12500000000E+03 0.  0.
         21    1    1    2  503  502 -0.24722342868E+03  0.17954604495E+03  0.46469523926E+03  0.55614554870E+03  0.00000000000E+00 0. -1.
<mgrwt>
<rscale>  3 0.33012302E+03</rscale>
<asrwt>0</asrwt>
<pdfrwt beam="1">  1       21 0.16008017E+00 0.33012302E+03</pdfrwt>
<pdfrwt beam="2">  1       21 0.14941787E-01 0.33012302E+03</pdfrwt>
<totfact> 0.91401047E+03</totfact>
</mgrwt>
</event>
<event>
 4    0  0.1104371E-001  0.3139406E+03  0.7546771E-02  0.1078472E+00
         21   -1    0    0  502  501  0.00000000000E+00  0.00000000000E+00  0.59219553860E+03  0.59219553860E+03  0.00000000000E+00 0.  1.
         21   -1    0    0  503  502 -0.00000000000E+00 -0.00000000000E+00 -0.52962161539E+03  0.52962161539E+03  0.00000000000E+00 0.  1.
         25    1    1    2    0    0  0.28762350438E+03 -0.14366825032E+02  0.50458024165E+03  0.59427258577E+03  0.12500000000E+03 0.  0.
         21    1    1    2  503  501 -0.28762350438E+03  0.14366825032E+02 -0.44200631844E+03  0.52754456823E+03  0.00000000000E+00 0.  1.
<mgrwt>
<rscale>  3 0.31394058E+03</rscale>
<asrwt>0</asrwt>
<pdfrwt beam="1">  1       21 0.91107006E-01 0.31394058E+03</pdfrwt>
<pdfrwt beam="2">  1       21 0.81480249E-01 0.31394058E+03</pdfrwt>
<totfact> 0.12283744E+03</totfact>
</mgrwt>
</event>
<event>
 4    0  0.1085078E-001  0.3571545E+03  0.7546771E-02  0.1059716E+00
         21   -1    0    0  503  501  0.00000000000E+00  0.00000000000E+00  0.63984757580E+03  0.63984757580E+03  0.00000000000E+00 0.  1.
         21   -1    0    0  501  502 -0.00000000000E+00 -0.00000000000E+00 -0.38685976187E+03  0.38685976187E+03  0.00000000000E+00 0.  1.
         25    1    1    2    0    0 -0.18831084783E+03 -0.27653812997E+03  0.49742128936E+03  0.61236202678E+03  0.12500000000E+03 0.  0.
         21    1    1    2  503  502  0.18831084783E+03  0.27653812997E+03 -0.24443347542E+03  0.41434531088E+03  0.00000000000E+00 0.  1.
<mgrwt>
<rscale>  3 0.35715447E+03</rscale>
<asrwt>0</asrwt>
<pdfrwt beam="1">  1       21 0.98438088E-01 0.35715447E+03</pdfrwt>
<pdfrwt beam="2">  1       21 0.59516887E-01 0.35715447E+03</pdfrwt>
<totfact> 0.20150627E+03</totfact>
</mgrwt>
</event>
<event>
 4    0  0.1835548E-001  0.3134535E+03  0.7546771E-02  0.1078702E+00
         21   -1    0    0  503  501  0.00000000000E+00  0.00000000000E+00  0.12537073606E+04  0.12537073606E+04  0.00000000000E+00 0. -1.
         21   -1    0    0  501  502 -0.00000000000E+00 -0.00000000000E+00 -0.49697816502E+03  0.49697816502E+03  0.00000000000E+00 0.  1.
         25    1    1    2    0    0 -0.27206898305E+03 -0.92771479531E+02  0.11900785740E+04  0.12306665232E+04  0.12500000000E+03 0.  0.
         21    1    1    2  503  502  0.27206898305E+03  0.92771479531E+02 -0.43334937851E+03  0.52001900235E+03  0.00000000000E+00 0.  1.
<mgrwt>
<rscale>  3 0.31345347E+03</rscale>
<asrwt>0</asrwt>
<pdfrwt beam="1">  1       21 0.19287805E+00 0.31345347E+03</pdfrwt>
<pdfrwt beam="2">  1       21 0.76458179E-01 0.31345347E+03</pdfrwt>
<totfact> 0.20091155E+02</totfact>
</mgrwt>
</event>
<event>
 4    0  0.1003929E-001  0.2466754E+03  0.7546771E-02  0.1115424E+00
         21   -1    0    0  502  501  0.00000000000E+00  0.00000000000E+00  0.65072717357E+03  0.65072717357E+03  0.00000000000E+00 0.  1.
         21   -1    0    0  503  502 -0.00000000000E+00 -0.00000000000E+00 -0.10166688537E+03  0.10166688537E+03  0.00000000000E+00 0. -1.
         25    1    1    2    0    0  0.20966586120E+03  0.35552228451E+02  0.45974344231E+03  0.52174013364E+03  0.12500000000E+03 0.  0.
         21    1    1    2  503  501 -0.20966586120E+03 -0.35552228451E+02  0.89316845884E+02  0.23065392530E+03  0.00000000000E+00 0. -1.
<mgrwt>
<rscale>  3 0.24667536E+03</rscale>
<asrwt>0</asrwt>
<pdfrwt beam="1">  1       21 0.10011187E+00 0.24667536E+03</pdfrwt>
<pdfrwt beam="2">  1       21 0.15641060E-01 0.24667536E+03</pdfrwt>
<totfact> 0.28921257E+04</totfact>
</mgrwt>
</event>
<event>
 4    0  0.1118366E-001  0.2832713E+03  0.7546771E-02  0.1093916E+00
         21   -1    0    0  503  501  0.00000000000E+00  0.00000000000E+00  0.19836706699E+04  0.19836706699E+04  0.00000000000E+00 0.  1.
         21   -1    0    0  501  502 -0.00000000000E+00 -0.00000000000E+00 -0.38758615265E+02  0.38758615265E+02  0.00000000000E+00 0.  1.
         25    1    1    2    0    0 -0.21003365323E+03 -0.14319048024E+03  0.12706198817E+04  0.13018131712E+04  0.12500000000E+03 0.  0.
         21    1    1    2  503  502  0.21003365323E+03  0.14319048024E+03  0.67429217296E+03  0.72061611392E+03  0.00000000000E+00 0.  1.
<mgrwt>
<rscale>  3 0.28327133E+03</rscale>
<asrwt>0</asrwt>
<pdfrwt beam="1">  1       21 0.30518002E+00 0.28327133E+03</pdfrwt>
<pdfrwt beam="2">  1       21 0.59628654E-02 0.28327133E+03</pdfrwt>
<totfact> 0.58275891E+03</totfact>
</mgrwt>
</event>
<event>
 4    0  0.1745746E-001  0.2514385E+03  0.7546771E-02  0.1112399E+00
         21   -1    0    0  502  501  0.00000000000E+00  0.00000000000E+00  0.17834902233E+03  0.17834902233E+03  0.00000000000E+00 0.  1.
         21   -1    0    0  503  502 -0.00000000000E+00 -0.00000000000E+00 -0.88890504374E+03  0.88890504374E+03  0.00000000000E+00 0. -1.
         25    1    1    2    0    0 -0.21585685053E+03 -0.31656652628E+02  0.66556674315E+02  0.26009827849E+03  0.12500000000E+03 0.  0.
         21    1    1    2  503  501  0.21585685053E+03  0.31656652628E+02 -0.77711269572E+03  0.80715578758E+03  0.00000000000E+00 0. -1.
<mgrwt>
<rscale>  3 0.25143851E+03</rscale>
<asrwt>0</asrwt>
<pdfrwt beam="1">  1       21 0.27438311E-01 0.25143851E+03</pdfrwt>
<pdfrwt beam="2">  1       21 0.13675462E+00 0.25143851E+03</pdfrwt>
<totfact> 0.46087435E+03</totfact>
</mgrwt>
</event>
<event>
 4    0  0.1425027E-001  0.2594465E+03  0.7546771E-02  0.1107476E+00
         21   -1    0    0  503  501  0.00000000000E+00  0.00000000000E+00  0.46444081645E+03  0.46444081645E+03  0.00000000000E+00 0.  1.
         21   -1    0    0  501  502 -0.00000000000E+00 -0.00000000000E+00 -0.13111710811E+03  0.13111710811E+03  0.00000000000E+00 0.  1.
         25    1    1    2    0    0  0.17706456441E+03 -0.14260312064E+03  0.22631985099E+03  0.34428648672E+03  0.12500000000E+03 0.  0.
         21    1    1    2  503  502 -0.17706456441E+03  0.14260312064E+03  0.10700385735E+03  0.25127143783E+03  0.00000000000E+00 0.  1.
<mgrwt>
<rscale>  3 0.25944655E+03</rscale>
<asrwt>0</asrwt>
<pdfrwt beam="1">  1       21 0.71452432E-01 0.25944655E+03</pdfrwt>
<pdfrwt beam="2">  1       21 0.20171863E-01 0.25944655E+03</pdfrwt>
<totfact> 0.38986363E+04</totfact>
</mgrwt>
</event>
<event>
 4    0  0.1569483E-001  0.2507540E+03  0.7546771E-02  0.1112829E+00
         21   -1    0    0  503  501  0.00000000000E+00  0.00000000000E+00  0.16561542542E+03  0.16561542542E+03  0.00000000000E+00 0.  1.
         21   -1    0    0  501  502 -0.00000000000E+00 -0.00000000000E+00 -0.33263816859E+03  0.33263816859E+03  0.00000000000E+00 0.  1.
         25    1    1    2    0    0 -0.21713762911E+03  0.10189083533E+02 -0.70989843489E+02  0.26060914274E+03  0.12500000000E+03 0.  0.
         21    1    1    2  503  502  0.21713762911E+03 -0.10189083533E+02 -0.96032899676E+02  0.23764445127E+03  0.00000000000E+00 0.  1.
<mgrwt>
<rscale>  3 0.25075400E+03</rscale>
<asrwt>0</asrwt>
<pdfrwt beam="1">  1       21 0.25479297E-01 0.25075400E+03</pdfrwt>
<pdfrwt beam="2">  1       21 0.51175102E-01 0.25075400E+03</pdfrwt>
<totfact> 0.51681169E+04</totfact>
</mgrwt>
</event>
<event>
 4    0  0.1013064E-001  0.2743008E+03  0.7546771E-02  0.1098843E+00
         21   -1    0    0  502  501  0.00000000000E+00  0.00000000000E+00  0.25021646272E+03  0.25021646272E+03  0.00000000000E+00 0. -1.
         21   -1    0    0  503  502 -0.00000000000E+00 -0.00000000000E+00 -0.10159331261E+04  0.10159331261E+04  0.00000000000E+00 0. -1.
         25    1    1    2    0    0  0.14077287476E+03 -0.19949669063E+03  0.15400037319E+03  0.31457438990E+03  0.12500000000E+03 0.  0.
         21    1    1    2  503  501 -0.14077287476E+03  0.19949669063E+03 -0.91971703657E+03  0.95157519892E+03  0.00000000000E+00 0. -1.
<mgrwt>
<rscale>  3 0.27430081E+03</rscale>
<asrwt>0</asrwt>
<pdfrwt beam="1">  1       21 0.38494841E-01 0.27430081E+03</pdfrwt>
<pdfrwt beam="2">  1       21 0.15629740E+00 0.27430081E+03</pdfrwt>
<totfact> 0.16284558E+03</totfact>
</mgrwt>
</event>
<event>
 4    0  0.1172731E-001  0.2506774E+03  0.7546771E-02  0.1112877E+00
         21   -1    0    0  503  501  0.00000000000E+00  0.00000000000E+00  0.54059558500E+02  0.54059558500E+02  0.00000000000E+00 0. -1.
         21   -1    0    0  501  502 -0.00000000000E+00 -0.00000000000E+00 -0.13913723059E+04  0.13913723059E+04  0.00000000000E+00 0. -1.
         25    1    1    2    0    0  0.21278540546E+03 -0.44006136982E+02 -0.32706632009E+03  0.41208196588E+03  0.12500000000E+03 0.  0.
         21    1    1    2  503  502 -0.21278540546E+03  0.44006136982E+02 -0.10102464273E+04  0.10333498985E+04  0.00000000000E+00 0. -1.
<mgrwt>
<rscale>  3 0.25067742E+03</rscale>
<asrwt>0</asrwt>
<pdfrwt beam="1">  1       21 0.83168550E-02 0.25067742E+03</pdfrwt>
<pdfrwt beam="2">  1       21 0.21405728E+00 0.25067742E+03</pdfrwt>
<totfact> 0.11744364E+04</totfact>
</mgrwt>
</event>
<event>
 4    0  0.1484670E-001  0.3198843E+03  0.7546771E-02  0.1075703E+00
         21   -1    0    0  502  501  0.00000000000E+00  0.00000000000E+00  0.50455816531E+03  0.50455816531E+03  0.00000000000E+00 0. -1.
         21   -1    0    0  503  502 -0.00000000000E+00 -0.00000000000E+00 -0.29289320831E+03  0.29289320831E+03  0.00000000000E+00 0. -1.
         25    1    1    2    0    0 -0.26761619858E+03 -0.12281086247E+03  0.34824741031E+03  0.47286593921E+03  0.12500000000E+03 0.  0.
         21    1    1    2  503  501  0.26761619858E+03  0.12281086247E+03 -0.13658245330E+03  0.32458543441E+03  0.00000000000E+00 0. -1.
<mgrwt>
<rscale>  3 0.31988426E+03</rscale>
<asrwt>0</asrwt>
<pdfrwt beam="1">  1       21 0.77624333E-01 0.31988426E+03</pdfrwt>
<pdfrwt beam="2">  1       21 0.45060494E-01 0.31988426E+03</pdfrwt>
<totfact> 0.64559041E+03</totfact>
</mgrwt>
</event>
<event>
 4    0  0.1233896E-001  0.2806353E+03  0.7546771E-02  0.1095342E+00
         21   -1    0    0  503  501  0.00000000000E+00  0.00000000000E+00  0.27682162474E+03  0.27682162474E+03  0.00000000000E+00 0.  1.
         21   -1    0    0  501  502 -0.00000000000E+00 -0.00000000000E+00 -0.53517778508E+03  0.53517778508E+03  0.00000000000E+00 0.  1.
         25    1    1    2    0    0  0.40880135352E+02  0.24791119219E+03  0.16070048068E+03  0.32338953163E+03  0.12500000000E+03 0.  0.
         21    1    1    2  503  502 -0.40880135352E+02 -0.24791119219E+03 -0.41905664102E+03  0.48860987819E+03  0.00000000000E+00 0.  1.
<mgrwt>
<rscale>  3 0.28063525E+03</rscale>
<asrwt>0</asrwt>
<pdfrwt beam="1">  1       21 0.42587943E-01 0.28063525E+03</pdfrwt>
<pdfrwt beam="2">  1       21 0.82335042E-01 0.28063525E+03</pdfrwt>
<totfact> 0.64631015E+03</totfact>
</mgrwt>
</event>
<event>
 4    0  0.1403115E-001  0.2566505E+03  0.7546771E-02  0.1109173E+00
         21   -1    0    0  503  501  0.00000000000E+00  0.00000000000E+00  0.22896718890E+04  0.22896718890E+04  0.00000000000E+00 0. -1.
         21   -1    0    0  501  502 -0.00000000000E+00 -0.00000000000E+00 -0.14765145828E+03  0.14765145828E+03  0.00000000000E+00 0.  1.
         25    1    1    2    0    0 -0.22267049395E+03  0.25735585097E+02  0.21925712142E+04  0.22075411658E+04  0.12500000000E+03 0.  0.
         21    1    1    2  503  502  0.22267049395E+03 -0.25735585097E+02 -0.50550783498E+02  0.22978218149E+03  0.00000000000E+00 0.  1.
<mgrwt>
<rscale>  3 0.25665048E+03</rscale>
<asrwt>0</asrwt>
<pdfrwt beam="1">  1       21 0.35225719E+00 0.25665048E+03</pdfrwt>
<pdfrwt beam="2">  1       21 0.22715611E-01 0.25665048E+03</pdfrwt>
<totfact> 0.28184546E+02</totfact>
</mgrwt>
</event>
<event>
 4    0  0.1003929E-001  0.2402741E+03  0.7546771E-02  0.1119610E+00
         21   -1    0    0  503  501  0.00000000000E+00  0.00000000000E+00  0.45720948793E+03  0.45720948793E+03  0.00000000000E+00 0. -1.
         21   -1    0    0  501  502 -0.00000000000E+00 -0.00000000000E+00 -0.25619216205E+03  0.25619216205E+03  0.00000000000E+00 0. -1.
         25    1    1    2    0    0 -0.12305553716E+03 -0.16420710884E+03 -0.16660695998E+03  0.29238590755E+03  0.12500000000E+03 0.  0.
         21    1    1    2  503  502  0.12305553716E+03  0.16420710884E+03  0.36762428586E+03  0.42101574243E+03  0.00000000000E+00 0. -1.
<mgrwt>
<rscale>  3 0.24027409E+03</rscale>
<asrwt>0</asrwt>
<pdfrwt beam="1">  1       21 0.70339921E-01 0.24027409E+03</pdfrwt>
<pdfrwt beam="2">  1       21 0.39414179E-01 0.24027409E+03</pdfrwt>
<totfact> 0.11041303E+04</totfact>
</mgrwt>
</event>
<event>
 4    0  0.1187119E-001  0.2616704E+03  0.7546771E-02  0.1106144E+00
         21   -1    0    0  502  501  0.00000000000E+00  0.00000000000E+00  0.97719608047E+03  0.97719608047E+03  0.00000000000E+00 0. -1.
         21   -1    0    0  503  502 -0.00000000000E+00 -0.00000000000E+00 -0.14983826934E+03  0.14983826934E+03  0.00000000000E+00 0. -1.
         25    1    1    2    0    0  0.16602509357E+03  0.15900340153E+03  0.85625128607E+03  0.89534221295E+03  0.12500000000E+03 0.  0.
         21    1    1    2  503  501 -0.16602509357E+03 -0.15900340153E+03 -0.28893474934E+02  0.23169213687E+03  0.00000000000E+00 0. -1.
<mgrwt>
<rscale>  3 0.26167043E+03</rscale>
<asrwt>0</asrwt>
<pdfrwt beam="1">  1       21 0.15033785E+00 0.26167043E+03</pdfrwt>
<pdfrwt beam="2">  1       21 0.23052042E-01 0.26167043E+03</pdfrwt>
<totfact> 0.49902207E+03</totfact>
</mgrwt>
</event>
<event>
 4    0  0.1259927E-001  0.2949787E+03  0.7546771E-02  0.1087778E+00
         21   -1    0    0  503  501  0.00000000000E+00  0.00000000000E+00  0.32382051762E+03  0.32382051762E+03  0.00000000000E+00 0.  1.
         21   -1    0    0  501  502 -0.00000000000E+00 -0.00000000000E+00 -0.36636316385E+03  0.36636316385E+03  0.00000000000E+00 0. -1.
         25    1    1    2    0    0 -0.64647953110E+02  0.25924514707E+03  0.17731582194E+03  0.34417045897E+03  0.12500000000E+03 0.  0.
         21    1    1    2  503  502  0.64647953110E+02 -0.25924514707E+03 -0.21985846817E+03  0.34601322250E+03  0.00000000000E+00 0. -1.
<mgrwt>
<rscale>  3 0.29497865E+03</rscale>
<asrwt>0</asrwt>
<pdfrwt beam="1">  1       21 0.49818541E-01 0.29497865E+03</pdfrwt>
<pdfrwt beam="2">  1       21 0.56363564E-01 0.29497865E+03</pdfrwt>
<totfact> 0.10736542E+04</totfact>
</mgrwt>
</event>
<event>
 4    0  0.1504692E-001  0.2604153E+03  0.7546771E-02  0.1106894E+00
         21   -1    0    0  502  501  0.00000000000E+00  0.00000000000E+00  0.50297182212E+03  0.50297182212E+03  0.00000000000E+00 0. -1.
         21   -1    0    0  503  502 -0.00000000000E+00 -0.00000000000E+00 -0.12171713864E+03  0.12171713864E+03  0.00000000000E+00 0. -1.
         25    1    1    2    0    0  0.93474560885E+02  0.20845540470E+03  0.25112275641E+03  0.36177173476E+03  0.12500000000E+03 0.  0.
         21    1    1    2  503  501 -0.93474560885E+02 -0.20845540470E+03  0.13013192707E+03  0.26291722599E+03  0.00000000000E+00 0. -1.
<mgrwt>
<rscale>  3 0.26041534E+03</rscale>
<asrwt>0</asrwt>
<pdfrwt beam="1">  1       21 0.77380279E-01 0.26041534E+03</pdfrwt>
<pdfrwt beam="2">  1       21 0.18725714E-01 0.26041534E+03</pdfrwt>
<totfact> 0.37460880E+04</totfact>
</mgrwt>
</event>
<event>
 4    0  0.1530068E-001  0.2727830E+03  0.7546771E-02  0.1099697E+00
         21   -1    0    0  503  501  0.00000000000E+00  0.00000000000E+00  0.20775159730E+03  0.20775159730E+03  0.00000000000E+00 0.  1.
         21   -1    0    0  501  502 -0.00000000000E+00 -0.00000000000E+00 -0.31951355507E+03  0.31951355507E+03  0.00000000000E+00 0.  1.
         25    1    1    2    0    0  0.18106355653E+02 -0.24178028112E+03 -0.55732890007E+02  0.27841820968E+03  0.12500000000E+03 0.  0.
         21    1    1    2  503  502 -0.18106355653E+02  0.24178028112E+03 -0.56029067767E+02  0.24884694269E+03  0.00000000000E+00 0.  1.
<mgrwt>
<rscale>  3 0.27278296E+03</rscale>
<asrwt>0</asrwt>
<pdfrwt beam="1">  1       21 0.31961784E-01 0.27278296E+03</pdfrwt>
<pdfrwt beam="2">  1       21 0.49155932E-01 0.27278296E+03</pdfrwt>
<totfact> 0.35824887E+04</totfact>
</mgrwt>
</event>
<event>
 4    0  0.1509361E-001  0.2417360E+03  0.7546771E-02  0.1118642E+00
         21   -1    0    0  503  501  0.00000000000E+00  0.00000000000E+00  0.22473922141E+03  0.22473922141E+03  0.00000000000E+00 0. -1.
         21   -1    0    0  501  502 -0.00000000000E+00 -0.00000000000E+00 -0.23852175679E+03  0.23852175679E+03  0.00000000000E+00 0. -1.
         25    1    1    2    0    0  0.37857060930E+00  0.20690859096E+03  0.49781120663E+02  0.24680856611E+03  0.12500000000E+03 0.  0.
         21    1    1    2  503  502 -0.37857060930E+00 -0.20690859096E+03 -0.63563656047E+02  0.21645241209E+03  0.00000000000E+00 0. -1.
<mgrwt>
<rscale>  3 0.24173603E+03</rscale>
<asrwt>0</asrwt>
<pdfrwt beam="1">  1       21 0.34575265E-01 0.24173603E+03</pdfrwt>
<pdfrwt beam="2">  1       21 0.36695655E-01 0.24173603E+03</pdfrwt>
<totfact> 0.56515202E+04</totfact>
</mgrwt>
</event>
<event>
 4    0  0.1318527E-001  0.2425358E+03  0.7546771E-02  0.1118115E+00
         21   -1    0    0  503  501  0.00000000000E+00  0.00000000000E+00  0.88592673968E+03  0.88592673968E+03  0.00000000000E+00 0.  1.
         21   -1    0    0  501  502 -0.00000000000E+00 -0.00000000000E+00 -0.64696311190E+02  0.64696311190E+02  0.00000000000E+00 0.  1.
         25    1    1    2    0    0 -0.13009621447E+02 -0.20743520607E+03  0.59954019939E+03  0.64673956556E+03  0.12500000000E+03 0.  0.
         21    1    1    2  503  502  0.13009621447E+02  0.20743520607E+03  0.22169022909E+03  0.30388348531E+03  0.00000000000E+00 0.  1.
<mgrwt>
<rscale>  3 0.24253580E+03</rscale>
<asrwt>0</asrwt>
<pdfrwt beam="1">  1       21 0.13629641E+00 0.24253580E+03</pdfrwt>
<pdfrwt beam="2">  1       21 0.99532793E-02 0.24253580E+03</pdfrwt>
<totfact> 0.30503204E+04</totfact>
</mgrwt>
</event>
<event>
 4    0  0.1487677E-001  0.3082365E+03  0.7546771E-02  0.1081194E+00
         21   -1    0    0  503  501  0.00000000000E+00  0.00000000000E+00  0.97967461159E+03  0.97967461159E+03  0.00000000000E+00 0.  1.
         21   -1    0    0  501  502 -0.00000000000E+00 -0.00000000000E+00 -0.19790273364E+03  0.19790273364E+03  0.00000000000E+00 0. -1.
         25    1    1    2    0    0 -0.28130099797E+03  0.15953481957E+02  0.83567987952E+03  0.89071354884E+03  0.12500000000E+03 0.  0.
         21    1    1    2  503  502  0.28130099797E+03 -0.15953481957E+02 -0.53908001574E+02  0.28686379639E+03  0.00000000000E+00 0. -1.
<mgrwt>
<rscale>  3 0.30823654E+03</rscale>
<asrwt>0</asrwt>
<pdfrwt beam="1">  1       21 0.15071917E+00 0.30823654E+03</pdfrwt>
<pdfrwt beam="2">  1       21 0.30446575E-01 0.30823654E+03</pdfrwt>
<totfact> 0.28095926E+03</totfact>
</mgrwt>
</event>
<event>
 4    0  0.1276602E-001  0.2397199E+03  0.7546771E-02  0.1119980E+00
         21   -1    0    0  502  501  0.00000000000E+00  0.00000000000E+00  0.75349051536E+03  0.75349051536E+03  0.00000000000E+00 0.  1.
         21   -1    0    0  503  502 -0.00000000000E+00 -0.00000000000E+00 -0.87800665834E+02  0.87800665834E+02  0.00000000000E+00 0.  1.
         25    1    1    2    0    0  0.14054982348E+03  0.14861491651E+03  0.56405826877E+03  0.61288447268E+03  0.12500000000E+03 0.  0.
         21    1    1    2  503  501 -0.14054982348E+03 -0.14861491651E+03  0.10163158076E+03  0.22840670852E+03  0.00000000000E+00 0.  1.
<mgrwt>
<rscale>  3 0.23971993E+03</rscale>
<asrwt>0</asrwt>
<pdfrwt beam="1">  1       21 0.11592161E+00 0.23971993E+03</pdfrwt>
<pdfrwt beam="2">  1       21 0.13507795E-01 0.23971993E+03</pdfrwt>
<totfact> 0.26566354E+04</totfact>
</mgrwt>
</event>
<event>
 4    0  0.1319061E-001  0.3456683E+03  0.7546771E-02  0.1064407E+00
         21   -1    0    0  503  501  0.00000000000E+00  0.00000000000E+00  0.52984892433E+03  0.52984892433E+03  0.00000000000E+00 0. -1.
         21   -1    0    0  501  502 -0.00000000000E+00 -0.00000000000E+00 -0.29960235873E+03  0.29960235873E+03  0.00000000000E+00 0. -1.
         25    1    1    2    0    0 -0.30113870210E+02 -0.32086555191E+03  0.34401788147E+03  0.48768314544E+03  0.12500000000E+03 0.  0.
         21    1    1    2  503  502  0.30113870210E+02  0.32086555191E+03 -0.11377131587E+03  0.34176813762E+03  0.00000000000E+00 0. -1.
<mgrwt>
<rscale>  3 0.34566826E+03</rscale>
<asrwt>0</asrwt>
<pdfrwt beam="1">  1       21 0.81515219E-01 0.34566826E+03</pdfrwt>
<pdfrwt beam="2">  1       21 0.46092671E-01 0.34566826E+03</pdfrwt>
<totfact> 0.54427417E+03</totfact>
</mgrwt>
</event>
<event>
 4    0  0.1435373E-001  0.2727422E+03  0.7546771E-02  0.1099720E+00
         21   -1    0    0  503  501  0.00000000000E+00  0.00000000000E+00  0.23756840609E+03  0.23756840609E+03  0.00000000000E+00 0.  1.
         21   -1    0    0  501  502 -0.00000000000E+00 -0.00000000000E+00 -0.29229122829E+03  0.29229122829E+03  0.00000000000E+00 0.  1.
         25    1    1    2    0    0  0.16617289616E+03 -0.17649329840E+03  0.26923477817E+02  0.27406785557E+03  0.12500000000E+03 0.  0.
         21    1    1    2  503  502 -0.16617289616E+03  0.17649329840E+03 -0.81646300012E+02  0.25579177881E+03  0.00000000000E+00 0.  1.
<mgrwt>
<rscale>  3 0.27274221E+03</rscale>
<asrwt>0</asrwt>
<pdfrwt beam="1">  1       21 0.36548985E-01 0.27274221E+03</pdfrwt>
<pdfrwt beam="2">  1       21 0.44967881E-01 0.27274221E+03</pdfrwt>
<totfact> 0.33003101E+04</totfact>
</mgrwt>
</event>
<event>
 4    0  0.1003929E-001  0.2732814E+03  0.7546771E-02  0.1099416E+00
         21   -1    0    0  502  501  0.00000000000E+00  0.00000000000E+00  0.10158845915E+03  0.10158845915E+03  0.00000000000E+00 0.  1.
         21   -1    0    0  503  502 -0.00000000000E+00 -0.00000000000E+00 -0.16239211526E+04  0.16239211526E+04  0.00000000000E+00 0.  1.
         25    1    1    2    0    0 -0.14801121447E+03 -0.19274439803E+03 -0.11357152798E+03  0.29594123496E+03  0.12500000000E+03 0.  0.
         21    1    1    2  503  501  0.14801121447E+03  0.19274439803E+03 -0.14087611655E+04  0.14295683768E+04  0.00000000000E+00 0.  1.
<mgrwt>
<rscale>  3 0.27328140E+03</rscale>
<asrwt>0</asrwt>
<pdfrwt beam="1">  1       21 0.15628994E-01 0.27328140E+03</pdfrwt>
<pdfrwt beam="2">  1       21 0.24983401E+00 0.27328140E+03</pdfrwt>
<totfact> 0.22456887E+03</totfact>
</mgrwt>
</event>
<event>
 4    0  0.1446312E-001  0.4041294E+03  0.7546771E-02  0.1042359E+00
         21   -1    0    0  502  501  0.00000000000E+00  0.00000000000E+00  0.55007063634E+03  0.55007063634E+03  0.00000000000E+00 0.  1.
         21   -1    0    0  503  502 -0.00000000000E+00 -0.00000000000E+00 -0.28313029183E+03  0.28313029183E+03  0.00000000000E+00 0.  1.
         25    1    1    2    0    0 -0.28223546271E+03 -0.26084237050E+03  0.15603911891E+03  0.43320757760E+03  0.12500000000E+03 0.  0.
         21    1    1    2  503  501  0.28223546271E+03  0.26084237050E+03  0.11090122560E+03  0.39999335057E+03  0.00000000000E+00 0.  1.
<mgrwt>
<rscale>  3 0.40412943E+03</rscale>
<asrwt>0</asrwt>
<pdfrwt beam="1">  1       21 0.84626251E-01 0.40412943E+03</pdfrwt>
<pdfrwt beam="2">  1       21 0.43558507E-01 0.40412943E+03</pdfrwt>
<totfact> 0.54859325E+03</totfact>
</mgrwt>
</event>
<event>
 4    0  0.1347317E-001  0.2534889E+03  0.7546771E-02  0.1111120E+00
         21   -1    0    0  503  501  0.00000000000E+00  0.00000000000E+00  0.91532944398E+02  0.91532944398E+02  0.00000000000E+00 0.  1.
         21   -1    0    0  501  502 -0.00000000000E+00 -0.00000000000E+00 -0.64883809699E+03  0.64883809699E+03  0.00000000000E+00 0.  1.
         25    1    1    2    0    0  0.12641895346E+03  0.18069280525E+03 -0.21101358823E+03  0.32982324976E+03  0.12500000000E+03 0.  0.
         21    1    1    2  503  502 -0.12641895346E+03 -0.18069280525E+03 -0.34629156436E+03  0.41054779163E+03  0.00000000000E+00 0.  1.
<mgrwt>
<rscale>  3 0.25348894E+03</rscale>
<asrwt>0</asrwt>
<pdfrwt beam="1">  1       21 0.14081992E-01 0.25348894E+03</pdfrwt>
<pdfrwt beam="2">  1       21 0.99821244E-01 0.25348894E+03</pdfrwt>
<totfact> 0.35185302E+04</totfact>
</mgrwt>
</event>
<event>
 4    0  0.1371970E-001  0.2434206E+03  0.7546771E-02  0.1117535E+00
         21   -1    0    0  503  501  0.00000000000E+00  0.00000000000E+00  0.14447033394E+03  0.14447033394E+03  0.00000000000E+00 0.  1.
         21   -1    0    0  501  502 -0.00000000000E+00 -0.00000000000E+00 -0.36366530824E+03  0.36366530824E+03  0.00000000000E+00 0.  1.
         25    1    1    2    0    0 -0.15622981092E+03  0.13863930818E+03 -0.76447936321E+02  0.25514289832E+03  0.12500000000E+03 0.  0.
         21    1    1    2  503  502  0.15622981092E+03 -0.13863930818E+03 -0.14274703798E+03  0.25299274386E+03  0.00000000000E+00 0.  1.
<mgrwt>
<rscale>  3 0.24342065E+03</rscale>
<asrwt>0</asrwt>
<pdfrwt beam="1">  1       21 0.22226206E-01 0.24342065E+03</pdfrwt>
<pdfrwt beam="2">  1       21 0.55948508E-01 0.24342065E+03</pdfrwt>
<totfact> 0.55697976E+04</totfact>
</mgrwt>
</event>
<event>
 4    0  0.1273551E-001  0.2627148E+03  0.7546771E-02  0.1105523E+00
         21   -1    0    0  503  501  0.00000000000E+00  0.00000000000E+00  0.55195166782E+03  0.55195166782E+03  0.00000000000E+00 0. -1.
         21   -1    0    0  501  502 -0.00000000000E+00 -0.00000000000E+00 -0.33284470595E+03  0.33284470595E+03  0.00000000000E+00 0. -1.
         25    1    1    2    0    0 -0.15437800984E+03 -0.17193455549E+03  0.47326837949E+03  0.54129661030E+03  0.12500000000E+03 0.  0.
         21    1    1    2  503  502  0.15437800984E+03  0.17193455549E+03 -0.25416141762E+03  0.34349976347E+03  0.00000000000E+00 0. -1.
<mgrwt>
<rscale>  3 0.26271479E+03</rscale>
<asrwt>0</asrwt>
<pdfrwt beam="1">  1       21 0.84915641E-01 0.26271479E+03</pdfrwt>
<pdfrwt beam="2">  1       21 0.51206878E-01 0.26271479E+03</pdfrwt>
<totfact> 0.41433771E+03</totfact>
</mgrwt>
</event>
<event>
 4    0  0.1189767E-001  0.2955189E+03  0.7546771E-02  0.1087502E+00
         21   -1    0    0  502  501  0.00000000000E+00  0.00000000000E+00  0.11360995492E+04  0.11360995492E+04  0.00000000000E+00 0. -1.
         21   -1    0    0  503  502 -0.00000000000E+00 -0.00000000000E+00 -0.11777886022E+03  0.11777886022E+03  0.00000000000E+00 0. -1.
         25    1    1    2    0    0 -0.15149892752E+03 -0.22080426195E+03  0.92378236949E+03  0.96989964084E+03  0.12500000000E+03 0.  0.
         21    1    1    2  503  501  0.15149892752E+03  0.22080426195E+03  0.94538319452E+02  0.28397876854E+03  0.00000000000E+00 0. -1.
<mgrwt>
<rscale>  3 0.29551895E+03</rscale>
<asrwt>0</asrwt>
<pdfrwt beam="1">  1       21 0.17478454E+00 0.29551895E+03</pdfrwt>
<pdfrwt beam="2">  1       21 0.18119825E-01 0.29551895E+03</pdfrwt>
<totfact> 0.50907524E+03</totfact>
</mgrwt>
</event>
<event>
 4    0  0.1150871E-001  0.2597187E+03  0.7546771E-02  0.1107312E+00
         21   -1    0    0  503  501  0.00000000000E+00  0.00000000000E+00  0.15166525349E+04  0.15166525349E+04  0.00000000000E+00 0. -1.
         21   -1    0    0  501  502 -0.00000000000E+00 -0.00000000000E+00 -0.39669552844E+02  0.39669552844E+02  0.00000000000E+00 0. -1.
         25    1    1    2    0    0  0.55773574044E+02 -0.22072176510E+03  0.87488482768E+03  0.91262108833E+03  0.12500000000E+03 0.  0.
         21    1    1    2  503  502 -0.55773574044E+02  0.22072176510E+03  0.60209815441E+03  0.64370099945E+03  0.00000000000E+00 0. -1.
<mgrwt>
<rscale>  3 0.25971867E+03</rscale>
<asrwt>0</asrwt>
<pdfrwt beam="1">  1       21 0.23333111E+00 0.25971867E+03</pdfrwt>
<pdfrwt beam="2">  1       21 0.61030093E-02 0.25971867E+03</pdfrwt>
<totfact> 0.15198835E+04</totfact>
</mgrwt>
</event>
<event>
 4    0  0.1233595E-001  0.2496340E+03  0.7546771E-02  0.1113536E+00
         21   -1    0    0  503  501  0.00000000000E+00  0.00000000000E+00  0.36539239221E+02  0.36539239221E+02  0.00000000000E+00 0.  1.
         21   -1    0    0  501  502 -0.00000000000E+00 -0.00000000000E+00 -0.15308707713E+04  0.15308707713E+04  0.00000000000E+00 0.  1.
         25    1    1    2    0    0  0.16144204081E+03  0.14362662328E+03 -0.66251764882E+03  0.70798783496E+03  0.12500000000E+03 0.  0.
         21    1    1    2  503  502 -0.16144204081E+03 -0.14362662328E+03 -0.83181388325E+03  0.85942217555E+03  0.00000000000E+00 0.  1.
<mgrwt>
<rscale>  3 0.24963401E+03</rscale>
<asrwt>0</asrwt>
<pdfrwt beam="1">  1       21 0.56214200E-02 0.24963401E+03</pdfrwt>
<pdfrwt beam="2">  1       21 0.23551864E+00 0.24963401E+03</pdfrwt>
<totfact> 0.17092571E+04</totfact>
</mgrwt>
</event>
<event>
 4    0  0.1542038E-001  0.2752746E+03  0.7546771E-02  0.1098298E+00
         21   -1    0    0  502  501  0.00000000000E+00  0.00000000000E+00  0.16892593457E+03  0.16892593457E+03  0.00000000000E+00 0. -1.
         21   -1    0    0  503  502 -0.00000000000E+00 -0.00000000000E+00 -0.42457678262E+03  0.42457678262E+03  0.00000000000E+00 0. -1.
         25    1    1    2    0    0 -0.23734052789E+03  0.61811026535E+02 -0.64960086506E+02  0.28283553882E+03  0.12500000000E+03 0.  0.
         21    1    1    2  503  501  0.23734052789E+03 -0.61811026535E+02 -0.19069076154E+03  0.31066717837E+03  0.00000000000E+00 0. -1.
<mgrwt>
<rscale>  3 0.27527464E+03</rscale>
<asrwt>0</asrwt>
<pdfrwt beam="1">  1       21 0.25988606E-01 0.27527464E+03</pdfrwt>
<pdfrwt beam="2">  1       21 0.65319504E-01 0.27527464E+03</pdfrwt>
<totfact> 0.29143833E+04</totfact>
</mgrwt>
</event>
<event>
 4    0  0.1406256E-001  0.3070928E+03  0.7546771E-02  0.1081748E+00
         21   -1    0    0  503  501  0.00000000000E+00  0.00000000000E+00  0.57555288220E+03  0.57555288220E+03  0.00000000000E+00 0.  1.
         21   -1    0    0  501  502 -0.00000000000E+00 -0.00000000000E+00 -0.15015284951E+03  0.15015284951E+03  0.00000000000E+00 0.  1.
         25    1    1    2    0    0  0.46375691230E+02  0.27664111042E+03  0.23489916355E+03  0.38663112361E+03  0.12500000000E+03 0.  0.
         21    1    1    2  503  502 -0.46375691230E+02 -0.27664111042E+03  0.19050086914E+03  0.33907460809E+03  0.00000000000E+00 0.  1.
<mgrwt>
<rscale>  3 0.30709283E+03</rscale>
<asrwt>0</asrwt>
<pdfrwt beam="1">  1       21 0.88546596E-01 0.30709283E+03</pdfrwt>
<pdfrwt beam="2">  1       21 0.23100439E-01 0.30709283E+03</pdfrwt>
<totfact> 0.18121174E+04</totfact>
</mgrwt>
</event>
<event>
 4    0  0.1017062E-001  0.2748432E+03  0.7546771E-02  0.1098539E+00
         21   -1    0    0  503  501  0.00000000000E+00  0.00000000000E+00  0.78738343192E+03  0.78738343192E+03  0.00000000000E+00 0.  1.
         21   -1    0    0  501  502 -0.00000000000E+00 -0.00000000000E+00 -0.99299216120E+02  0.99299216120E+02  0.00000000000E+00 0.  1.
         25    1    1    2    0    0  0.16262124378E+03  0.18294287817E+03  0.19756481623E+03  0.33848282411E+03  0.12500000000E+03 0.  0.
         21    1    1    2  503  502 -0.16262124378E+03 -0.18294287817E+03  0.49051939957E+03  0.54819982394E+03  0.00000000000E+00 0.  1.
<mgrwt>
<rscale>  3 0.27484317E+03</rscale>
<asrwt>0</asrwt>
<pdfrwt beam="1">  1       21 0.12113591E+00 0.27484317E+03</pdfrwt>
<pdfrwt beam="2">  1       21 0.15276803E-01 0.27484317E+03</pdfrwt>
<totfact> 0.18696619E+04</totfact>
</mgrwt>
</event>
<event>
 4    0  0.1003929E-001  0.2562747E+03  0.7546771E-02  0.1109402E+00
         21   -1    0    0  502  501  0.00000000000E+00  0.00000000000E+00  0.10081397249E+03  0.10081397249E+03  0.00000000000E+00 0.  1.
         21   -1    0    0  503  502 -0.00000000000E+00 -0.00000000000E+00 -0.18915882709E+04  0.18915882709E+04  0.00000000000E+00 0.  1.
         25    1    1    2    0    0 -0.87889852003E+02  0.20573546759E+03 -0.82042410152E+02  0.26908672537E+03  0.12500000000E+03 0.  0.
         21    1    1    2  503  501  0.87889852003E+02 -0.20573546759E+03 -0.17087318883E+04  0.17233155181E+04  0.00000000000E+00 0.  1.
<mgrwt>
<rscale>  3 0.25627467E+03</rscale>
<asrwt>0</asrwt>
<pdfrwt beam="1">  1       21 0.15509842E-01 0.25627467E+03</pdfrwt>
<pdfrwt beam="2">  1       21 0.29101358E+00 0.25627467E+03</pdfrwt>
<totfact> 0.13212285E+03</totfact>
</mgrwt>
</event>
<event>
 4    0  0.1003929E-001  0.2709147E+03  0.7546771E-02  0.1100757E+00
         21   -1    0    0  502  501  0.00000000000E+00  0.00000000000E+00  0.24703581320E+04  0.24703581320E+04  0.00000000000E+00 0. -1.
         21   -1    0    0  503  502 -0.00000000000E+00 -0.00000000000E+00 -0.12967950775E+03  0.12967950775E+03  0.00000000000E+00 0. -1.
         25    1    1    2    0    0 -0.39447363341E+02 -0.23709426377E+03  0.23440568721E+04  0.23596604425E+04  0.12500000000E+03 0.  0.
         21    1    1    2  503  501  0.39447363341E+02  0.23709426377E+03 -0.33782478451E+01  0.24037719723E+03  0.00000000000E+00 0. -1.
<mgrwt>
<rscale>  3 0.27091472E+03</rscale>
<asrwt>0</asrwt>
<pdfrwt beam="1">  1       21 0.38005506E+00 0.27091472E+03</pdfrwt>
<pdfrwt beam="2">  1       21 0.19950695E-01 0.27091472E+03</pdfrwt>
<totfact> 0.24001431E+02</totfact>
</mgrwt>
</event>
<event>
 4    0  0.1003929E-001  0.4396718E+03  0.7546771E-02  0.1030848E+00
         21   -1    0    0  503  501  0.00000000000E+00  0.00000000000E+00  0.18839958569E+04  0.18839958569E+04  0.00000000000E+00 0.  1.
         21   -1    0    0  501  502 -0.00000000000E+00 -0.00000000000E+00 -0.24597610538E+03  0.24597610538E+03  0.00000000000E+00 0.  1.
         25    1    1    2    0    0 -0.34386307907E+03 -0.24381240246E+03  0.16507016643E+04  0.17082527006E+04  0.12500000000E+03 0.  0.
         21    1    1    2  503  502  0.34386307907E+03  0.24381240246E+03 -0.12681912762E+02  0.42171926166E+03  0.00000000000E+00 0.  1.
<mgrwt>
<rscale>  3 0.43967181E+03</rscale>
<asrwt>0</asrwt>
<pdfrwt beam="1">  1       21 0.28984551E+00 0.43967181E+03</pdfrwt>
<pdfrwt beam="2">  1       21 0.37842479E-01 0.43967181E+03</pdfrwt>
<totfact> 0.20815738E+02</totfact>
</mgrwt>
</event>
<event>
 4    0  0.1133009E-001  0.4269273E+03  0.7546771E-02  0.1034835E+00
         21   -1    0    0  502  501  0.00000000000E+00  0.00000000000E+00  0.29109559052E+03  0.29109559052E+03  0.00000000000E+00 0. -1.
         21   -1    0    0  503  502 -0.00000000000E+00 -0.00000000000E+00 -0.86558307477E+03  0.86558307477E+03  0.00000000000E+00 0. -1.
         25    1    1    2    0    0 -0.25342775127E+03 -0.32002540947E+03  0.29201462551E+02  0.42792477521E+03  0.12500000000E+03 0.  0.
         21    1    1    2  503  501  0.25342775127E+03  0.32002540947E+03 -0.60368894680E+03  0.72875389008E+03  0.00000000000E+00 0. -1.
<mgrwt>
<rscale>  3 0.42692726E+03</rscale>
<asrwt>0</asrwt>
<pdfrwt beam="1">  1       21 0.44783937E-01 0.42692726E+03</pdfrwt>
<pdfrwt beam="2">  1       21 0.13316663E+00 0.42692726E+03</pdfrwt>
<totfact> 0.16814680E+03</totfact>
</mgrwt>
</event>
<event>
 4    0  0.1003929E-001  0.3143800E+03  0.7546771E-02  0.1078265E+00
         21   -1    0    0  503  501  0.00000000000E+00  0.00000000000E+00  0.41324131569E+02  0.41324131569E+02  0.00000000000E+00 0. -1.
         21   -1    0    0  501  502 -0.00000000000E+00 -0.00000000000E+00 -0.27124466803E+04  0.27124466803E+04  0.00000000000E+00 0. -1.
         25    1    1    2    0    0 -0.28623986778E+03 -0.35728220479E+02 -0.19809543158E+04  0.20057454397E+04  0.12500000000E+03 0.  0.
         21    1    1    2  503  502  0.28623986778E+03  0.35728220479E+02 -0.69016823296E+03  0.74802537219E+03  0.00000000000E+00 0. -1.
<mgrwt>
<rscale>  3 0.31437997E+03</rscale>
<asrwt>0</asrwt>
<pdfrwt beam="1">  1       21 0.63575572E-02 0.31437997E+03</pdfrwt>
<pdfrwt beam="2">  1       21 0.41729959E+00 0.31437997E+03</pdfrwt>
<totfact> 0.10480717E+03</totfact>
</mgrwt>
</event>
<event>
 4    0  0.1003929E-001  0.3654449E+03  0.7546771E-02  0.1056448E+00
         21   -1    0    0  502  501  0.00000000000E+00  0.00000000000E+00  0.17361839292E+04  0.17361839292E+04  0.00000000000E+00 0.  1.
         21   -1    0    0  503  502 -0.00000000000E+00 -0.00000000000E+00 -0.76833996861E+02  0.76833996861E+02  0.00000000000E+00 0.  1.
         25    1    1    2    0    0  0.34166097662E+03  0.34536076486E+02  0.10728188722E+04  0.11333535618E+04  0.12500000000E+03 0.  0.
         21    1    1    2  503  501 -0.34166097662E+03 -0.34536076486E+02  0.58653106017E+03  0.67966436428E+03  0.00000000000E+00 0.  1.
<mgrwt>
<rscale>  3 0.36544488E+03</rscale>
<asrwt>0</asrwt>
<pdfrwt beam="1">  1       21 0.26710519E+00 0.36544488E+03</pdfrwt>
<pdfrwt beam="2">  1       21 0.11820616E-01 0.36544488E+03</pdfrwt>
<totfact> 0.27680591E+03</totfact>
</mgrwt>
</event>
<event>
 4    0  0.1197421E-001  0.2396095E+03  0.7546771E-02  0.1120053E+00
         21   -1    0    0  502  501  0.00000000000E+00  0.00000000000E+00  0.66701918265E+02  0.66701918265E+02  0.00000000000E+00 0.  1.
         21   -1    0    0  503  502 -0.00000000000E+00 -0.00000000000E+00 -0.12128710934E+04  0.12128710934E+04  0.00000000000E+00 0.  1.
         25    1    1    2    0    0 -0.20436807371E+03 -0.46238204289E+01 -0.20160232213E+03  0.31313924308E+03  0.12500000000E+03 0.  0.
         21    1    1    2  503  501  0.20436807371E+03  0.46238204289E+01 -0.94456685298E+03  0.96643376856E+03  0.00000000000E+00 0.  1.
<mgrwt>
<rscale>  3 0.23960945E+03</rscale>
<asrwt>0</asrwt>
<pdfrwt beam="1">  1       21 0.10261833E-01 0.23960945E+03</pdfrwt>
<pdfrwt beam="2">  1       21 0.18659556E+00 0.23960945E+03</pdfrwt>
<totfact> 0.12305291E+04</totfact>
</mgrwt>
</event>
<event>
 4    0  0.1186680E-001  0.2618340E+03  0.7546771E-02  0.1106046E+00
         21   -1    0    0  502  501  0.00000000000E+00  0.00000000000E+00  0.38813191285E+02  0.38813191285E+02  0.00000000000E+00 0.  1.
         21   -1    0    0  503  502 -0.00000000000E+00 -0.00000000000E+00 -0.15728018731E+04  0.15728018731E+04  0.00000000000E+00 0.  1.
         25    1    1    2    0    0 -0.21296209489E+03  0.87058641030E+02 -0.73952742201E+03  0.78451122920E+03  0.12500000000E+03 0.  0.
         21    1    1    2  503  501  0.21296209489E+03 -0.87058641030E+02 -0.79446125976E+03  0.82710383514E+03  0.00000000000E+00 0.  1.
<mgrwt>
<rscale>  3 0.26183403E+03</rscale>
<asrwt>0</asrwt>
<pdfrwt beam="1">  1       21 0.59712598E-02 0.26183403E+03</pdfrwt>
<pdfrwt beam="2">  1       21 0.24196953E+00 0.26183403E+03</pdfrwt>
<totfact> 0.13968643E+04</totfact>
</mgrwt>
</event>
<event>
 4    0  0.1003929E-001  0.3056201E+03  0.7546771E-02  0.1082464E+00
         21   -1    0    0  503  501  0.00000000000E+00  0.00000000000E+00  0.90061256541E+03  0.90061256541E+03  0.00000000000E+00 0.  1.
         21   -1    0    0  501  502 -0.00000000000E+00 -0.00000000000E+00 -0.12289151184E+03  0.12289151184E+03  0.00000000000E+00 0. -1.
         25    1    1    2    0    0  0.17547285969E+03 -0.21676692248E+03  0.64689420086E+03  0.71545491143E+03  0.12500000000E+03 0.  0.
         21    1    1    2  503  502 -0.17547285969E+03  0.21676692248E+03  0.13082685271E+03  0.30804916582E+03  0.00000000000E+00 0. -1.
<mgrwt>
<rscale>  3 0.30562006E+03</rscale>
<asrwt>0</asrwt>
<pdfrwt beam="1">  1       21 0.13855578E+00 0.30562006E+03</pdfrwt>
<pdfrwt beam="2">  1       21 0.18906387E-01 0.30562006E+03</pdfrwt>
<totfact> 0.87927836E+03</totfact>
</mgrwt>
</event>
<event>
 4    0  0.1246633E-001  0.2486147E+03  0.7546771E-02  0.1114183E+00
         21   -1    0    0  502  501  0.00000000000E+00  0.00000000000E+00  0.56747063382E+03  0.56747063382E+03  0.00000000000E+00 0. -1.
         21   -1    0    0  503  502 -0.00000000000E+00 -0.00000000000E+00 -0.14812945514E+03  0.14812945514E+03  0.00000000000E+00 0.  1.
         25    1    1    2    0    0  0.10771462923E+02  0.21463513964E+03  0.43403230503E+03  0.50019327203E+03  0.12500000000E+03 0.  0.
         21    1    1    2  503  501 -0.10771462923E+02 -0.21463513964E+03 -0.14691126345E+02  0.21540681692E+03  0.00000000000E+00 0.  1.
<mgrwt>
<rscale>  3 0.24861470E+03</rscale>
<asrwt>0</asrwt>
<pdfrwt beam="1">  1       21 0.87303173E-01 0.24861470E+03</pdfrwt>
<pdfrwt beam="2">  1       21 0.22789147E-01 0.24861470E+03</pdfrwt>
<totfact> 0.19726537E+04</totfact>
</mgrwt>
</event>
<event>
 4    0  0.1656186E-001  0.2570272E+03  0.7546771E-02  0.1108943E+00
         21   -1    0    0  502  501  0.00000000000E+00  0.00000000000E+00  0.32663480429E+03  0.32663480429E+03  0.00000000000E+00 0. -1.
         21   -1    0    0  503  502 -0.00000000000E+00 -0.00000000000E+00 -0.18727605218E+03  0.18727605218E+03  0.00000000000E+00 0. -1.
         25    1    1    2    0    0 -0.22425871179E+03 -0.12082487122E+02  0.13262222815E+03  0.28922588354E+03  0.12500000000E+03 0.  0.
         21    1    1    2  503  501  0.22425871179E+03  0.12082487122E+02  0.67365239596E+01  0.22468497293E+03  0.00000000000E+00 0. -1.
<mgrwt>
<rscale>  3 0.25702715E+03</rscale>
<asrwt>0</asrwt>
<pdfrwt beam="1">  1       21 0.50251508E-01 0.25702715E+03</pdfrwt>
<pdfrwt beam="2">  1       21 0.28811700E-01 0.25702715E+03</pdfrwt>
<totfact> 0.42208212E+04</totfact>
</mgrwt>
</event>
<event>
 4    0  0.1003929E-001  0.3702466E+03  0.7546771E-02  0.1054599E+00
         21   -1    0    0  503  501  0.00000000000E+00  0.00000000000E+00  0.10771191555E+03  0.10771191555E+03  0.00000000000E+00 0. -1.
         21   -1    0    0  501  502 -0.00000000000E+00 -0.00000000000E+00 -0.20333714372E+04  0.20333714372E+04  0.00000000000E+00 0. -1.
         25    1    1    2    0    0 -0.30352490948E+03 -0.17126047922E+03 -0.29444285105E+03  0.47305297267E+03  0.12500000000E+03 0.  0.
         21    1    1    2  503  502  0.30352490948E+03  0.17126047922E+03 -0.16312166706E+04  0.16680303801E+04  0.00000000000E+00 0. -1.
<mgrwt>
<rscale>  3 0.37024657E+03</rscale>
<asrwt>0</asrwt>
<pdfrwt beam="1">  1       21 0.16571063E-01 0.37024657E+03</pdfrwt>
<pdfrwt beam="2">  1       21 0.31282639E+00 0.37024657E+03</pdfrwt>
<totfact> 0.79154054E+02</totfact>
</mgrwt>
</event>
<event>
 4    0  0.1376480E-001  0.2475390E+03  0.7546771E-02  0.1114870E+00
         21   -1    0    0  503  501  0.00000000000E+00  0.00000000000E+00  0.30579462269E+03  0.30579462269E+03  0.00000000000E+00 0.  1.
         21   -1    0    0  501  502 -0.00000000000E+00 -0.00000000000E+00 -0.28496031267E+03  0.28496031267E+03  0.00000000000E+00 0.  1.
         25    1    1    2    0    0 -0.11443489061E+03 -0.18043064915E+03  0.19498609226E+03  0.31511131290E+03  0.12500000000E+03 0.  0.
         21    1    1    2  503  502  0.11443489061E+03  0.18043064915E+03 -0.17415178224E+03  0.27564362246E+03  0.00000000000E+00 0.  1.
<mgrwt>
<rscale>  3 0.24753901E+03</rscale>
<asrwt>0</asrwt>
<pdfrwt beam="1">  1       21 0.47045327E-01 0.24753901E+03</pdfrwt>
<pdfrwt beam="2">  1       21 0.43840048E-01 0.24753901E+03</pdfrwt>
<totfact> 0.20982731E+04</totfact>
</mgrwt>
</event>
<event>
 4    0  0.1003929E-001  0.4623402E+03  0.7546771E-02  0.1024105E+00
         21   -1    0    0  502  501  0.00000000000E+00  0.00000000000E+00  0.14595200959E+04  0.14595200959E+04  0.00000000000E+00 0. -1.
         21   -1    0    0  503  502 -0.00000000000E+00 -0.00000000000E+00 -0.21987072420E+03  0.21987072420E+03  0.00000000000E+00 0. -1.
         25    1    1    2    0    0  0.35672663284E+03  0.26623223598E+03  0.11300543248E+04  0.12209755407E+04  0.12500000000E+03 0.  0.
         21    1    1    2  503  501 -0.35672663284E+03 -0.26623223598E+03  0.10959504689E+03  0.45841527936E+03  0.00000000000E+00 0. -1.
<mgrwt>
<rscale>  3 0.46234024E+03</rscale>
<asrwt>0</asrwt>
<pdfrwt beam="1">  1       21 0.22454155E+00 0.46234024E+03</pdfrwt>
<pdfrwt beam="2">  1       21 0.33826266E-01 0.46234024E+03</pdfrwt>
<totfact> 0.64884643E+02</totfact>
</mgrwt>
</event>
<event>
 4    0  0.1511135E-001  0.3221588E+03  0.7546771E-02  0.1074660E+00
         21   -1    0    0  503  501  0.00000000000E+00  0.00000000000E+00  0.11260621183E+04  0.11260621183E+04  0.00000000000E+00 0.  1.
         21   -1    0    0  501  502 -0.00000000000E+00 -0.00000000000E+00 -0.97031760812E+02  0.97031760812E+02  0.00000000000E+00 0.  1.
         25    1    1    2    0    0  0.29691653319E+03  0.13726799654E+01  0.74730887816E+03  0.81379166333E+03  0.12500000000E+03 0.  0.
         21    1    1    2  503  502 -0.29691653319E+03 -0.13726799654E+01  0.28172147936E+03  0.40930221581E+03  0.00000000000E+00 0.  1.
<mgrwt>
<rscale>  3 0.32215883E+03</rscale>
<asrwt>0</asrwt>
<pdfrwt beam="1">  1       21 0.17324032E+00 0.32215883E+03</pdfrwt>
<pdfrwt beam="2">  1       21 0.14927964E-01 0.32215883E+03</pdfrwt>
<totfact> 0.73717712E+03</totfact>
</mgrwt>
</event>
<event>
 4    0  0.1416614E-001  0.3324943E+03  0.7546771E-02  0.1070038E+00
         21   -1    0    0  503  501  0.00000000000E+00  0.00000000000E+00  0.16207118356E+03  0.16207118356E+03  0.00000000000E+00 0.  1.
         21   -1    0    0  501  502 -0.00000000000E+00 -0.00000000000E+00 -0.71238359415E+03  0.71238359415E+03  0.00000000000E+00 0.  1.
         25    1    1    2    0    0 -0.17996153408E+03  0.25008266158E+03 -0.13860679960E+03  0.36022817250E+03  0.12500000000E+03 0.  0.
         21    1    1    2  503  502  0.17996153408E+03 -0.25008266158E+03 -0.41170561100E+03  0.51422660520E+03  0.00000000000E+00 0.  1.
<mgrwt>
<rscale>  3 0.33249435E+03</rscale>
<asrwt>0</asrwt>
<pdfrwt beam="1">  1       21 0.24934029E-01 0.33249435E+03</pdfrwt>
<pdfrwt beam="2">  1       21 0.10959747E+00 0.33249435E+03</pdfrwt>
<totfact> 0.92812902E+03</totfact>
</mgrwt>
</event>
<event>
 4    0  0.2013242E-001  0.2380980E+03  0.7546771E-02  0.1121066E+00
         21   -1    0    0  502  501  0.00000000000E+00  0.00000000000E+00  0.16133252639E+04  0.16133252639E+04  0.00000000000E+00 0. -1.
         21   -1    0    0  503  502 -0.00000000000E+00 -0.00000000000E+00 -0.14091933035E+03  0.14091933035E+03  0.00000000000E+00 0.  1.
         25    1    1    2    0    0  0.11769865608E+03  0.16496273873E+03  0.15261345820E+04  0.15445962066E+04  0.12500000000E+03 0.  0.
         21    1    1    2  503  501 -0.11769865608E+03 -0.16496273873E+03 -0.53728648445E+02  0.20964838773E+03  0.00000000000E+00 0.  1.
<mgrwt>
<rscale>  3 0.23809804E+03</rscale>
<asrwt>0</asrwt>
<pdfrwt beam="1">  1       21 0.24820387E+00 0.23809804E+03</pdfrwt>
<pdfrwt beam="2">  1       21 0.21679898E-01 0.23809804E+03</pdfrwt>
<totfact> 0.12864897E+03</totfact>
</mgrwt>
</event>
<event>
 4    0  0.1549579E-001  0.3210068E+03  0.7546771E-02  0.1075187E+00
         21   -1    0    0  502  501  0.00000000000E+00  0.00000000000E+00  0.38850254992E+03  0.38850254992E+03  0.00000000000E+00 0. -1.
         21   -1    0    0  503  502 -0.00000000000E+00 -0.00000000000E+00 -0.28175525758E+03  0.28175525758E+03  0.00000000000E+00 0. -1.
         25    1    1    2    0    0  0.19089053761E+03  0.22579013190E+03  0.17669951814E+03  0.36642611905E+03  0.12500000000E+03 0.  0.
         21    1    1    2  503  501 -0.19089053761E+03 -0.22579013190E+03 -0.69952225799E+02  0.30383168845E+03  0.00000000000E+00 0. -1.
<mgrwt>
<rscale>  3 0.32100682E+03</rscale>
<asrwt>0</asrwt>
<pdfrwt beam="1">  1       21 0.59769623E-01 0.32100682E+03</pdfrwt>
<pdfrwt beam="2">  1       21 0.43346963E-01 0.32100682E+03</pdfrwt>
<totfact> 0.12505031E+04</totfact>
</mgrwt>
</event>
<event>
 4    0  0.1264860E-001  0.5345339E+03  0.7546771E-02  0.1005138E+00
         21   -1    0    0  502  501  0.00000000000E+00  0.00000000000E+00  0.32473791668E+03  0.32473791668E+03  0.00000000000E+00 0.  1.
         21   -1    0    0  503  502 -0.00000000000E+00 -0.00000000000E+00 -0.88757497822E+03  0.88757497822E+03  0.00000000000E+00 0.  1.
         25    1    1    2    0    0  0.45067687342E+03  0.25882785488E+03 -0.17026709204E+03  0.56099677836E+03  0.12500000000E+03 0.  0.
         21    1    1    2  503  501 -0.45067687342E+03 -0.25882785488E+03 -0.39256996950E+03  0.65131611653E+03  0.00000000000E+00 0.  1.
<mgrwt>
<rscale>  3 0.53453391E+03</rscale>
<asrwt>0</asrwt>
<pdfrwt beam="1">  1       21 0.49959680E-01 0.53453391E+03</pdfrwt>
<pdfrwt beam="2">  1       21 0.13654999E+00 0.53453391E+03</pdfrwt>
<totfact> 0.11996567E+03</totfact>
</mgrwt>
</event>
<event>
 4    0  0.1692862E-001  0.3721746E+03  0.7546771E-02  0.1053865E+00
         21   -1    0    0  502  501  0.00000000000E+00  0.00000000000E+00  0.86544369335E+03  0.86544369335E+03  0.00000000000E+00 0.  1.
         21   -1    0    0  503  502 -0.00000000000E+00 -0.00000000000E+00 -0.34018666168E+03  0.34018666168E+03  0.00000000000E+00 0. -1.
         25    1    1    2    0    0 -0.35020919583E+03 -0.15570060976E+02  0.71570009981E+03  0.80668490782E+03  0.12500000000E+03 0.  0.
         21    1    1    2  503  501  0.35020919583E+03  0.15570060976E+02 -0.19044306814E+03  0.39894544721E+03  0.00000000000E+00 0. -1.
<mgrwt>
<rscale>  3 0.37217457E+03</rscale>
<asrwt>0</asrwt>
<pdfrwt beam="1">  1       21 0.13314518E+00 0.37217457E+03</pdfrwt>
<pdfrwt beam="2">  1       21 0.52336410E-01 0.37217457E+03</pdfrwt>
<totfact> 0.12414678E+03</totfact>
</mgrwt>
</event>
<event>
 4    0  0.1003929E-001  0.3143837E+03  0.7546771E-02  0.1078263E+00
         21   -1    0    0  503  501  0.00000000000E+00  0.00000000000E+00  0.31568515155E+03  0.31568515155E+03  0.00000000000E+00 0.  1.
         21   -1    0    0  501  502 -0.00000000000E+00 -0.00000000000E+00 -0.26400076927E+04  0.26400076927E+04  0.00000000000E+00 0. -1.
         25    1    1    2    0    0  0.12402659906E+03  0.26044103541E+03  0.22721765115E+03  0.38789817116E+03  0.12500000000E+03 0.  0.
         21    1    1    2  503  502 -0.12402659906E+03 -0.26044103541E+03 -0.25515401923E+04  0.25677946731E+04  0.00000000000E+00 0. -1.
<mgrwt>
<rscale>  3 0.31438373E+03</rscale>
<asrwt>0</asrwt>
<pdfrwt beam="1">  1       21 0.48566946E-01 0.31438373E+03</pdfrwt>
<pdfrwt beam="2">  1       21 0.40615503E+00 0.31438373E+03</pdfrwt>
<totfact> 0.26848077E+01</totfact>
</mgrwt>
</event>
<event>
 4    0  0.1122411E-001  0.2939302E+03  0.7546771E-02  0.1088315E+00
         21   -1    0    0  502  501  0.00000000000E+00  0.00000000000E+00  0.19577987186E+04  0.19577987186E+04  0.00000000000E+00 0. -1.
         21   -1    0    0  503  502 -0.00000000000E+00 -0.00000000000E+00 -0.44057021974E+02  0.44057021974E+02  0.00000000000E+00 0. -1.
         25    1    1    2    0    0  0.11268417172E+03 -0.24098178891E+03  0.13021480047E+04  0.13349098738E+04  0.12500000000E+03 0.  0.
         21    1    1    2  503  501 -0.11268417172E+03  0.24098178891E+03  0.61159369189E+03  0.66694586669E+03  0.00000000000E+00 0. -1.
<mgrwt>
<rscale>  3 0.29393017E+03</rscale>
<asrwt>0</asrwt>
<pdfrwt beam="1">  1       21 0.30119974E+00 0.29393017E+03</pdfrwt>
<pdfrwt beam="2">  1       21 0.67780049E-02 0.29393017E+03</pdfrwt>
<totfact> 0.48869959E+03</totfact>
</mgrwt>
</event>
<event>
 4    0  0.1567333E-001  0.2980617E+03  0.7546771E-02  0.1086214E+00
         21   -1    0    0  502  501  0.00000000000E+00  0.00000000000E+00  0.20471464217E+03  0.20471464217E+03  0.00000000000E+00 0.  1.
         21   -1    0    0  503  502 -0.00000000000E+00 -0.00000000000E+00 -0.39854291023E+03  0.39854291023E+03  0.00000000000E+00 0.  1.
         25    1    1    2    0    0 -0.20147735256E+03 -0.18061739455E+03 -0.72705570155E+02  0.30680102142E+03  0.12500000000E+03 0.  0.
         21    1    1    2  503  501  0.20147735256E+03  0.18061739455E+03 -0.12112269790E+03  0.29645653098E+03  0.00000000000E+00 0.  1.
<mgrwt>
<rscale>  3 0.29806168E+03</rscale>
<asrwt>0</asrwt>
<pdfrwt beam="1">  1       21 0.31494560E-01 0.29806168E+03</pdfrwt>
<pdfrwt beam="2">  1       21 0.61314294E-01 0.29806168E+03</pdfrwt>
<totfact> 0.22775498E+04</totfact>
</mgrwt>
</event>
<event>
 4    0  0.1967234E-001  0.2599433E+03  0.7546771E-02  0.1107177E+00
         21   -1    0    0  503  501  0.00000000000E+00  0.00000000000E+00  0.31494240272E+03  0.31494240272E+03  0.00000000000E+00 0. -1.
         21   -1    0    0  501  502 -0.00000000000E+00 -0.00000000000E+00 -0.21107261254E+03  0.21107261254E+03  0.00000000000E+00 0. -1.
         25    1    1    2    0    0  0.22787714031E+03  0.41872664881E+01  0.14001088533E+03  0.29525171005E+03  0.12500000000E+03 0.  0.
         21    1    1    2  503  502 -0.22787714031E+03 -0.41872664881E+01 -0.36141095142E+02  0.23076330521E+03  0.00000000000E+00 0. -1.
<mgrwt>
<rscale>  3 0.25994331E+03</rscale>
<asrwt>0</asrwt>
<pdfrwt beam="1">  1       21 0.48452677E-01 0.25994331E+03</pdfrwt>
<pdfrwt beam="2">  1       21 0.32472710E-01 0.25994331E+03</pdfrwt>
<totfact> 0.35964806E+04</totfact>
</mgrwt>
</event>
<event>
 4    0  0.1003929E-001  0.2508582E+03  0.7546771E-02  0.1112764E+00
         21   -1    0    0  502  501  0.00000000000E+00  0.00000000000E+00  0.92796641226E+03  0.92796641226E+03  0.00000000000E+00 0. -1.
         21   -1    0    0  503  502 -0.00000000000E+00 -0.00000000000E+00 -0.78677000412E+02  0.78677000412E+02  0.00000000000E+00 0. -1.
         25    1    1    2    0    0 -0.16223889620E+03 -0.14485643366E+03  0.19674781617E+03  0.31880958107E+03  0.12500000000E+03 0.  0.
         21    1    1    2  503  501  0.16223889620E+03  0.14485643366E+03  0.65254159568E+03  0.68783383161E+03  0.00000000000E+00 0. -1.
<mgrwt>
<rscale>  3 0.25085822E+03</rscale>
<asrwt>0</asrwt>
<pdfrwt beam="1">  1       21 0.14276406E+00 0.25085822E+03</pdfrwt>
<pdfrwt beam="2">  1       21 0.12104155E-01 0.25085822E+03</pdfrwt>
<totfact> 0.18972495E+04</totfact>
</mgrwt>
</event>
<event>
 4    0  0.1129622E-001  0.3117324E+03  0.7546771E-02  0.1079518E+00
         21   -1    0    0  503  501  0.00000000000E+00  0.00000000000E+00  0.11417273126E+03  0.11417273126E+03  0.00000000000E+00 0. -1.
         21   -1    0    0  501  502 -0.00000000000E+00 -0.00000000000E+00 -0.13085298278E+04  0.13085298278E+04  0.00000000000E+00 0. -1.
         25    1    1    2    0    0  0.82761299204E+02 -0.27331789814E+03 -0.16147931489E+03  0.35107360372E+03  0.12500000000E+03 0.  0.
         21    1    1    2  503  502 -0.82761299204E+02  0.27331789814E+03 -0.10328777817E+04  0.10716289554E+04  0.00000000000E+00 0. -1.
<mgrwt>
<rscale>  3 0.31173243E+03</rscale>
<asrwt>0</asrwt>
<pdfrwt beam="1">  1       21 0.17565035E-01 0.31173243E+03</pdfrwt>
<pdfrwt beam="2">  1       21 0.20131229E+00 0.31173243E+03</pdfrwt>
<totfact> 0.35318728E+03</totfact>
</mgrwt>
</event>
<event>
 4    0  0.1482883E-001  0.2405141E+03  0.7546771E-02  0.1119451E+00
         21   -1    0    0  503  501  0.00000000000E+00  0.00000000000E+00  0.49084240776E+03  0.49084240776E+03  0.00000000000E+00 0. -1.
         21   -1    0    0  501  502 -0.00000000000E+00 -0.00000000000E+00 -0.10131416515E+03  0.10131416515E+03  0.00000000000E+00 0. -1.
         25    1    1    2    0    0 -0.20255490633E+03 -0.34547747707E+02  0.20838932069E+03  0.31823441977E+03  0.12500000000E+03 0.  0.
         21    1    1    2  503  502  0.20255490633E+03  0.34547747707E+02  0.18113892191E+03  0.27392215314E+03  0.00000000000E+00 0. -1.
<mgrwt>
<rscale>  3 0.24051411E+03</rscale>
<asrwt>0</asrwt>
<pdfrwt beam="1">  1       21 0.75514215E-01 0.24051411E+03</pdfrwt>
<pdfrwt beam="2">  1       21 0.15586795E-01 0.24051411E+03</pdfrwt>
<totfact> 0.56052538E+04</totfact>
</mgrwt>
</event>
<event>
 4    0  0.1448332E-001  0.2793548E+03  0.7546771E-02  0.1096042E+00
         21   -1    0    0  502  501  0.00000000000E+00  0.00000000000E+00  0.25625771969E+03  0.25625771969E+03  0.00000000000E+00 0.  1.
         21   -1    0    0  503  502 -0.00000000000E+00 -0.00000000000E+00 -0.29312992388E+03  0.29312992388E+03  0.00000000000E+00 0.  1.
         25    1    1    2    0    0  0.13807924818E+03 -0.20820231634E+03  0.52134215038E+02  0.28417786628E+03  0.12500000000E+03 0.  0.
         21    1    1    2  503  501 -0.13807924818E+03  0.20820231634E+03 -0.89006419221E+02  0.26520977729E+03  0.00000000000E+00 0.  1.
<mgrwt>
<rscale>  3 0.27935476E+03</rscale>
<asrwt>0</asrwt>
<pdfrwt beam="1">  1       21 0.39424265E-01 0.27935476E+03</pdfrwt>
<pdfrwt beam="2">  1       21 0.45096911E-01 0.27935476E+03</pdfrwt>
<totfact> 0.28074282E+04</totfact>
</mgrwt>
</event>
<event>
 4    0  0.1511629E-001  0.2979939E+03  0.7546771E-02  0.1086248E+00
         21   -1    0    0  502  501  0.00000000000E+00  0.00000000000E+00  0.50531993240E+03  0.50531993240E+03  0.00000000000E+00 0. -1.
         21   -1    0    0  503  502 -0.00000000000E+00 -0.00000000000E+00 -0.21954520513E+03  0.21954520513E+03  0.00000000000E+00 0. -1.
         25    1    1    2    0    0  0.11094457222E+03 -0.24671172410E+03  0.33667188463E+03  0.44960908667E+03  0.12500000000E+03 0.  0.
         21    1    1    2  503  501 -0.11094457222E+03  0.24671172410E+03 -0.50897157366E+02  0.27525605087E+03  0.00000000000E+00 0. -1.
<mgrwt>
<rscale>  3 0.29799391E+03</rscale>
<asrwt>0</asrwt>
<pdfrwt beam="1">  1       21 0.77741528E-01 0.29799391E+03</pdfrwt>
<pdfrwt beam="2">  1       21 0.33776186E-01 0.29799391E+03</pdfrwt>
<totfact> 0.11687156E+04</totfact>
</mgrwt>
</event>
<event>
 4    0  0.1095398E-001  0.2991837E+03  0.7546771E-02  0.1085649E+00
         21   -1    0    0  502  501  0.00000000000E+00  0.00000000000E+00  0.19126070419E+03  0.19126070419E+03  0.00000000000E+00 0.  1.
         21   -1    0    0  503  502 -0.00000000000E+00 -0.00000000000E+00 -0.78399930242E+03  0.78399930242E+03  0.00000000000E+00 0.  1.
         25    1    1    2    0    0  0.19922258585E+02 -0.27108855031E+03  0.25136078409E+02  0.30023777399E+03  0.12500000000E+03 0.  0.
         21    1    1    2  503  501 -0.19922258585E+02  0.27108855031E+03 -0.61787467664E+03  0.67502223262E+03  0.00000000000E+00 0.  1.
<mgrwt>
<rscale>  3 0.29918372E+03</rscale>
<asrwt>0</asrwt>
<pdfrwt beam="1">  1       21 0.29424724E-01 0.29918372E+03</pdfrwt>
<pdfrwt beam="2">  1       21 0.12061528E+00 0.29918372E+03</pdfrwt>
<totfact> 0.53839920E+03</totfact>
</mgrwt>
</event>
<event>
 4    0  0.1498696E-001  0.3355295E+03  0.7546771E-02  0.1068716E+00
         21   -1    0    0  502  501  0.00000000000E+00  0.00000000000E+00  0.12966641042E+03  0.12966641042E+03  0.00000000000E+00 0. -1.
         21   -1    0    0  503  502 -0.00000000000E+00 -0.00000000000E+00 -0.88001637955E+03  0.88001637955E+03  0.00000000000E+00 0. -1.
         25    1    1    2    0    0 -0.24903693092E+03 -0.18691088521E+03 -0.24254642410E+03  0.41401550673E+03  0.12500000000E+03 0.  0.
         21    1    1    2  503  501  0.24903693092E+03  0.18691088521E+03 -0.50780354503E+03  0.59566728324E+03  0.00000000000E+00 0. -1.
<mgrwt>
<rscale>  3 0.33552954E+03</rscale>
<asrwt>0</asrwt>
<pdfrwt beam="1">  1       21 0.19948678E-01 0.33552954E+03</pdfrwt>
<pdfrwt beam="2">  1       21 0.13538714E+00 0.33552954E+03</pdfrwt>
<totfact> 0.83245653E+03</totfact>
</mgrwt>
</event>
<event>
 4    0  0.1428843E-001  0.3020335E+03  0.7546771E-02  0.1084228E+00
         21   -1    0    0  503  501  0.00000000000E+00  0.00000000000E+00  0.66884229250E+03  0.66884229250E+03  0.00000000000E+00 0.  1.
         21   -1    0    0  501  502 -0.00000000000E+00 -0.00000000000E+00 -0.28207148333E+03  0.28207148333E+03  0.00000000000E+00 0. -1.
         25    1    1    2    0    0  0.25757819353E+03  0.96190995147E+02  0.55264980726E+03  0.62979841441E+03  0.12500000000E+03 0.  0.
         21    1    1    2  503  502 -0.25757819353E+03 -0.96190995147E+02 -0.16587899810E+03  0.32111536142E+03  0.00000000000E+00 0. -1.
<mgrwt>
<rscale>  3 0.30203350E+03</rscale>
<asrwt>0</asrwt>
<pdfrwt beam="1">  1       21 0.10289881E+00 0.30203350E+03</pdfrwt>
<pdfrwt beam="2">  1       21 0.43395613E-01 0.30203350E+03</pdfrwt>
<totfact> 0.36365045E+03</totfact>
</mgrwt>
</event>
<event>
 4    0  0.1003929E-001  0.3491003E+03  0.7546771E-02  0.1062985E+00
         21   -1    0    0  503  501  0.00000000000E+00  0.00000000000E+00  0.26841918755E+04  0.26841918755E+04  0.00000000000E+00 0. -1.
         21   -1    0    0  501  502 -0.00000000000E+00 -0.00000000000E+00 -0.42490428418E+02  0.42490428418E+02  0.00000000000E+00 0. -1.
         25    1    1    2    0    0  0.10590102896E+03  0.30827101516E+03  0.14117091396E+04  0.14542330424E+04  0.12500000000E+03 0.  0.
         21    1    1    2  503  502 -0.10590102896E+03 -0.30827101516E+03  0.12299923075E+04  0.12724492616E+04  0.00000000000E+00 0. -1.
<mgrwt>
<rscale>  3 0.34910034E+03</rscale>
<asrwt>0</asrwt>
<pdfrwt beam="1">  1       21 0.41295246E+00 0.34910034E+03</pdfrwt>
<pdfrwt beam="2">  1       21 0.65369911E-02 0.34910034E+03</pdfrwt>
<totfact> 0.10336677E+03</totfact>
</mgrwt>
</event>
<event>
 4    0  0.1377054E-001  0.2461448E+03  0.7546771E-02  0.1115766E+00
         21   -1    0    0  502  501  0.00000000000E+00  0.00000000000E+00  0.76003675765E+03  0.76003675765E+03  0.00000000000E+00 0. -1.
         21   -1    0    0  503  502 -0.00000000000E+00 -0.00000000000E+00 -0.70454220718E+02  0.70454220718E+02  0.00000000000E+00 0. -1.
         25    1    1    2    0    0 -0.10641392714E+03 -0.18340753624E+03  0.42831183713E+03  0.49400230572E+03  0.12500000000E+03 0.  0.
         21    1    1    2  503  501  0.10641392714E+03  0.18340753624E+03  0.26127069980E+03  0.33648867264E+03  0.00000000000E+00 0. -1.
<mgrwt>
<rscale>  3 0.24614477E+03</rscale>
<asrwt>0</asrwt>
<pdfrwt beam="1">  1       21 0.11692873E+00 0.24614477E+03</pdfrwt>
<pdfrwt beam="2">  1       21 0.10839111E-01 0.24614477E+03</pdfrwt>
<totfact> 0.38531898E+04</totfact>
</mgrwt>
</event>
<event>
 4    0  0.1427224E-001  0.2504972E+03  0.7546771E-02  0.1112991E+00
         21   -1    0    0  502  501  0.00000000000E+00  0.00000000000E+00  0.76740477185E+03  0.76740477185E+03  0.00000000000E+00 0. -1.
         21   -1    0    0  503  502 -0.00000000000E+00 -0.00000000000E+00 -0.10994034383E+03  0.10994034383E+03  0.00000000000E+00 0. -1.
         25    1    1    2    0    0 -0.20137914816E+03 -0.81057240101E+02  0.60384437336E+03  0.65374067085E+03  0.12500000000E+03 0.  0.
         21    1    1    2  503  501  0.20137914816E+03  0.81057240101E+02  0.53620054669E+02  0.22360444483E+03  0.00000000000E+00 0. -1.
<mgrwt>
<rscale>  3 0.25049718E+03</rscale>
<asrwt>0</asrwt>
<pdfrwt beam="1">  1       21 0.11806227E+00 0.25049718E+03</pdfrwt>
<pdfrwt beam="2">  1       21 0.16913900E-01 0.25049718E+03</pdfrwt>
<totfact> 0.16726501E+04</totfact>
</mgrwt>
</event>
<event>
 4    0  0.1416557E-001  0.2629333E+03  0.7546771E-02  0.1105394E+00
         21   -1    0    0  503  501  0.00000000000E+00  0.00000000000E+00  0.57934818161E+03  0.57934818161E+03  0.00000000000E+00 0.  1.
         21   -1    0    0  501  502 -0.00000000000E+00 -0.00000000000E+00 -0.11022894159E+03  0.11022894159E+03  0.00000000000E+00 0.  1.
         25    1    1    2    0    0  0.12170351911E+03  0.19671600454E+03  0.32082488748E+03  0.41480422061E+03  0.12500000000E+03 0.  0.
         21    1    1    2  503  502 -0.12170351911E+03 -0.19671600454E+03  0.14829435254E+03  0.27477290260E+03  0.00000000000E+00 0.  1.
<mgrwt>
<rscale>  3 0.26293332E+03</rscale>
<asrwt>0</asrwt>
<pdfrwt beam="1">  1       21 0.89130487E-01 0.26293332E+03</pdfrwt>
<pdfrwt beam="2">  1       21 0.16958299E-01 0.26293332E+03</pdfrwt>
<totfact> 0.32526210E+04</totfact>
</mgrwt>
</event>
<event>
 4    0  0.1165601E-001  0.2830315E+03  0.7546771E-02  0.1094045E+00
         21   -1    0    0  503  501  0.00000000000E+00  0.00000000000E+00  0.92207549213E+02  0.92207549213E+02  0.00000000000E+00 0.  1.
         21   -1    0    0  501  502 -0.00000000000E+00 -0.00000000000E+00 -0.14390057587E+04  0.14390057587E+04  0.00000000000E+00 0. -1.
         25    1    1    2    0    0  0.24437468863E+03 -0.69013504618E+02 -0.17621595487E+03  0.33340503148E+03  0.12500000000E+03 0.  0.
         21    1    1    2  503  502 -0.24437468863E+03  0.69013504618E+02 -0.11705822546E+04  0.11978082764E+04  0.00000000000E+00 0. -1.
<mgrwt>
<rscale>  3 0.28303154E+03</rscale>
<asrwt>0</asrwt>
<pdfrwt beam="1">  1       21 0.14185777E-01 0.28303154E+03</pdfrwt>
<pdfrwt beam="2">  1       21 0.22138549E+00 0.28303154E+03</pdfrwt>
<totfact> 0.39728278E+03</totfact>
</mgrwt>
</event>
<event>
 4    0  0.1261664E-001  0.2644837E+03  0.7546771E-02  0.1104479E+00
         21   -1    0    0  502  501  0.00000000000E+00  0.00000000000E+00  0.41061680318E+03  0.41061680318E+03  0.00000000000E+00 0.  1.
         21   -1    0    0  503  502 -0.00000000000E+00 -0.00000000000E+00 -0.15376541727E+03  0.15376541727E+03  0.00000000000E+00 0.  1.
         25    1    1    2    0    0  0.68780581479E+01 -0.23297922663E+03  0.96805501919E+02  0.28164327247E+03  0.12500000000E+03 0.  0.
         21    1    1    2  503  501 -0.68780581479E+01  0.23297922663E+03  0.16004588399E+03  0.28273894798E+03  0.00000000000E+00 0.  1.
<mgrwt>
<rscale>  3 0.26448370E+03</rscale>
<asrwt>0</asrwt>
<pdfrwt beam="1">  1       21 0.63171816E-01 0.26448370E+03</pdfrwt>
<pdfrwt beam="2">  1       21 0.23656218E-01 0.26448370E+03</pdfrwt>
<totfact> 0.37737184E+04</totfact>
</mgrwt>
</event>
<event>
 4    0  0.1175146E-001  0.2694988E+03  0.7546771E-02  0.1101567E+00
         21   -1    0    0  503  501  0.00000000000E+00  0.00000000000E+00  0.55008126866E+02  0.55008126866E+02  0.00000000000E+00 0.  1.
         21   -1    0    0  501  502 -0.00000000000E+00 -0.00000000000E+00 -0.13793682215E+04  0.13793682215E+04  0.00000000000E+00 0.  1.
         25    1    1    2    0    0 -0.65468124557E+02 -0.22960517584E+03 -0.41998510761E+03  0.49901613473E+03  0.12500000000E+03 0.  0.
         21    1    1    2  503  502  0.65468124557E+02  0.22960517584E+03 -0.90437498700E+03  0.93536021362E+03  0.00000000000E+00 0.  1.
<mgrwt>
<rscale>  3 0.26949882E+03</rscale>
<asrwt>0</asrwt>
<pdfrwt beam="1">  1       21 0.84627888E-02 0.26949882E+03</pdfrwt>
<pdfrwt beam="2">  1       21 0.21221050E+00 0.26949882E+03</pdfrwt>
<totfact> 0.11559526E+04</totfact>
</mgrwt>
</event>
<event>
 4    0  0.1425133E-001  0.2394037E+03  0.7546771E-02  0.1120191E+00
         21   -1    0    0  502  501  0.00000000000E+00  0.00000000000E+00  0.86063188403E+03  0.86063188403E+03  0.00000000000E+00 0.  1.
         21   -1    0    0  503  502 -0.00000000000E+00 -0.00000000000E+00 -0.70548533205E+02  0.70548533205E+02  0.00000000000E+00 0.  1.
         25    1    1    2    0    0 -0.20302933123E+03 -0.21638257790E+02  0.62278568169E+03  0.66721520431E+03  0.12500000000E+03 0.  0.
         21    1    1    2  503  501  0.20302933123E+03  0.21638257790E+02  0.16729766913E+03  0.26396521293E+03  0.00000000000E+00 0.  1.
<mgrwt>
<rscale>  3 0.23940368E+03</rscale>
<asrwt>0</asrwt>
<pdfrwt beam="1">  1       21 0.13240490E+00 0.23940368E+03</pdfrwt>
<pdfrwt beam="2">  1       21 0.10853621E-01 0.23940368E+03</pdfrwt>
<totfact> 0.28203441E+04</totfact>
</mgrwt>
</event>
<event>
 4    0  0.1503690E-001  0.2519275E+03  0.7546771E-02  0.1112093E+00
         21   -1    0    0  502  501  0.00000000000E+00  0.00000000000E+00  0.37864215160E+03  0.37864215160E+03  0.00000000000E+00 0.  1.
         21   -1    0    0  503  502 -0.00000000000E+00 -0.00000000000E+00 -0.16396811552E+03  0.16396811552E+03  0.00000000000E+00 0.  1.
         25    1    1    2    0    0 -0.21440995983E+03  0.43252993482E+02  0.20305636919E+03  0.32357277603E+03  0.12500000000E+03 0.  0.
         21    1    1    2  503  501  0.21440995983E+03 -0.43252993482E+02  0.11617666884E+02  0.21903749109E+03  0.00000000000E+00 0.  1.
<mgrwt>
<rscale>  3 0.25192747E+03</rscale>
<asrwt>0</asrwt>
<pdfrwt beam="1">  1       21 0.58252638E-01 0.25192747E+03</pdfrwt>
<pdfrwt beam="2">  1       21 0.25225864E-01 0.25192747E+03</pdfrwt>
<totfact> 0.39974547E+04</totfact>
</mgrwt>
</event>
<event>
 4    0  0.1118684E-001  0.2975702E+03  0.7546771E-02  0.1086462E+00
         21   -1    0    0  503  501  0.00000000000E+00  0.00000000000E+00  0.53075890753E+03  0.53075890753E+03  0.00000000000E+00 0.  1.
         21   -1    0    0  501  502 -0.00000000000E+00 -0.00000000000E+00 -0.32837770317E+03  0.32837770317E+03  0.00000000000E+00 0.  1.
         25    1    1    2    0    0 -0.52110462113E+02 -0.26496701068E+03  0.41832814703E+03  0.51336775864E+03  0.12500000000E+03 0.  0.
         21    1    1    2  503  502  0.52110462113E+02  0.26496701068E+03 -0.21594694266E+03  0.34576885207E+03  0.00000000000E+00 0.  1.
<mgrwt>
<rscale>  3 0.29757019E+03</rscale>
<asrwt>0</asrwt>
<pdfrwt beam="1">  1       21 0.81655217E-01 0.29757019E+03</pdfrwt>
<pdfrwt beam="2">  1       21 0.50519647E-01 0.29757019E+03</pdfrwt>
<totfact> 0.45748005E+03</totfact>
</mgrwt>
</event>
<event>
 4    0  0.1035657E-001  0.2481220E+03  0.7546771E-02  0.1114497E+00
         21   -1    0    0  502  501  0.00000000000E+00  0.00000000000E+00  0.89067774605E+03  0.89067774605E+03  0.00000000000E+00 0.  1.
         21   -1    0    0  503  502 -0.00000000000E+00 -0.00000000000E+00 -0.23764751544E+03  0.23764751544E+03  0.00000000000E+00 0.  1.
         25    1    1    2    0    0 -0.13314510930E+03 -0.16796403268E+03  0.81994430415E+03  0.85666399382E+03  0.12500000000E+03 0.  0.
         21    1    1    2  503  501  0.13314510930E+03  0.16796403268E+03 -0.16691407354E+03  0.27166126767E+03  0.00000000000E+00 0.  1.
<mgrwt>
<rscale>  3 0.24812202E+03</rscale>
<asrwt>0</asrwt>
<pdfrwt beam="1">  1       21 0.13702734E+00 0.24812202E+03</pdfrwt>
<pdfrwt beam="2">  1       21 0.36561157E-01 0.24812202E+03</pdfrwt>
<totfact> 0.26076262E+03</totfact>
</mgrwt>
</event>
<event>
 4    0  0.1278284E-001  0.2556479E+03  0.7546771E-02  0.1109787E+00
         21   -1    0    0  502  501  0.00000000000E+00  0.00000000000E+00  0.77357717928E+03  0.77357717928E+03  0.00000000000E+00 0.  1.
         21   -1    0    0  503  502 -0.00000000000E+00 -0.00000000000E+00 -0.77557429080E+02  0.77557429080E+02  0.00000000000E+00 0.  1.
         25    1    1    2    0    0  0.16888143131E+03 -0.14563621009E+03  0.46107465789E+03  0.52720554216E+03  0.12500000000E+03 0.  0.
         21    1    1    2  503  501 -0.16888143131E+03  0.14563621009E+03  0.23494509231E+03  0.32392906620E+03  0.00000000000E+00 0.  1.
<mgrwt>
<rscale>  3 0.25564789E+03</rscale>
<asrwt>0</asrwt>
<pdfrwt beam="1">  1       21 0.11901187E+00 0.25564789E+03</pdfrwt>
<pdfrwt beam="2">  1       21 0.11931913E-01 0.25564789E+03</pdfrwt>
<totfact> 0.30912707E+04</totfact>
</mgrwt>
</event>
<event>
 4    0  0.1040878E-001  0.2748202E+03  0.7546771E-02  0.1098552E+00
         21   -1    0    0  503  501  0.00000000000E+00  0.00000000000E+00  0.15035462854E+03  0.15035462854E+03  0.00000000000E+00 0.  1.
         21   -1    0    0  501  502 -0.00000000000E+00 -0.00000000000E+00 -0.10527796202E+04  0.10527796202E+04  0.00000000000E+00 0.  1.
         25    1    1    2    0    0  0.24214809281E+03  0.35572883388E+02 -0.70490478085E+01  0.27491056356E+03  0.12500000000E+03 0.  0.
         21    1    1    2  503  502 -0.24214809281E+03 -0.35572883388E+02 -0.89537594381E+03  0.92822368513E+03  0.00000000000E+00 0.  1.
<mgrwt>
<rscale>  3 0.27482018E+03</rscale>
<asrwt>0</asrwt>
<pdfrwt beam="1">  1       21 0.23131481E-01 0.27482018E+03</pdfrwt>
<pdfrwt beam="2">  1       21 0.16196610E+00 0.27482018E+03</pdfrwt>
<totfact> 0.40186248E+03</totfact>
</mgrwt>
</event>
<event>
 4    0  0.1147755E-001  0.2615187E+03  0.7546771E-02  0.1106234E+00
         21   -1    0    0  503  501  0.00000000000E+00  0.00000000000E+00  0.17370020260E+03  0.17370020260E+03  0.00000000000E+00 0.  1.
         21   -1    0    0  501  502 -0.00000000000E+00 -0.00000000000E+00 -0.49380685189E+03  0.49380685189E+03  0.00000000000E+00 0. -1.
         25    1    1    2    0    0 -0.68170733091E+02 -0.21936227092E+03  0.14180160554E+02  0.26190290511E+03  0.12500000000E+03 0.  0.
         21    1    1    2  503  502  0.68170733091E+02  0.21936227092E+03 -0.33428680985E+03  0.40560414938E+03  0.00000000000E+00 0. -1.
<mgrwt>
<rscale>  3 0.26151875E+03</rscale>
<asrwt>0</asrwt>
<pdfrwt beam="1">  1       21 0.26723108E-01 0.26151875E+03</pdfrwt>
<pdfrwt beam="2">  1       21 0.75970285E-01 0.26151875E+03</pdfrwt>
<totfact> 0.19845249E+04</totfact>
</mgrwt>
</event>
<event>
 4    0  0.1003929E-001  0.2443553E+03  0.7546771E-02  0.1116925E+00
         21   -1    0    0  502  501  0.00000000000E+00  0.00000000000E+00  0.80273039367E+03  0.80273039367E+03  0.00000000000E+00 0.  1.
         21   -1    0    0  503  502 -0.00000000000E+00 -0.00000000000E+00 -0.66500966372E+02  0.66500966372E+02  0.00000000000E+00 0. -1.
         25    1    1    2    0    0  0.16599485692E+03  0.12856988932E+03  0.47421728641E+03  0.53347122105E+03  0.12500000000E+03 0.  0.
         21    1    1    2  503  501 -0.16599485692E+03 -0.12856988932E+03  0.26201214089E+03  0.33576013899E+03  0.00000000000E+00 0. -1.
<mgrwt>
<rscale>  3 0.24435529E+03</rscale>
<asrwt>0</asrwt>
<pdfrwt beam="1">  1       21 0.12349698E+00 0.24435529E+03</pdfrwt>
<pdfrwt beam="2">  1       21 0.10230918E-01 0.24435529E+03</pdfrwt>
<totfact> 0.37293800E+04</totfact>
</mgrwt>
</event>
<event>
 4    0  0.1322954E-001  0.3293465E+03  0.7546771E-02  0.1071426E+00
         21   -1    0    0  502  501  0.00000000000E+00  0.00000000000E+00  0.11536489777E+04  0.11536489777E+04  0.00000000000E+00 0. -1.
         21   -1    0    0  503  502 -0.00000000000E+00 -0.00000000000E+00 -0.87230277808E+02  0.87230277808E+02  0.00000000000E+00 0. -1.
         25    1    1    2    0    0  0.28789193182E+03  0.99811649528E+02  0.57604466432E+03  0.66354847982E+03  0.12500000000E+03 0.  0.
         21    1    1    2  503  501 -0.28789193182E+03 -0.99811649528E+02  0.49037403558E+03  0.57733077569E+03  0.00000000000E+00 0. -1.
<mgrwt>
<rscale>  3 0.32934652E+03</rscale>
<asrwt>0</asrwt>
<pdfrwt beam="1">  1       21 0.17748445E+00 0.32934652E+03</pdfrwt>
<pdfrwt beam="2">  1       21 0.13420044E-01 0.32934652E+03</pdfrwt>
<totfact> 0.83336622E+03</totfact>
</mgrwt>
</event>
<event>
 4    0  0.1132553E-001  0.3269671E+03  0.7546771E-02  0.1072487E+00
         21   -1    0    0  503  501  0.00000000000E+00  0.00000000000E+00  0.17931372104E+03  0.17931372104E+03  0.00000000000E+00 0.  1.
         21   -1    0    0  501  502 -0.00000000000E+00 -0.00000000000E+00 -0.10892049691E+04  0.10892049691E+04  0.00000000000E+00 0.  1.
         25    1    1    2    0    0 -0.27937517753E+03  0.11503029551E+03 -0.18694451388E+02  0.32750105529E+03  0.12500000000E+03 0.  0.
         21    1    1    2  503  502  0.27937517753E+03 -0.11503029551E+03 -0.89119679669E+03  0.94101763487E+03  0.00000000000E+00 0.  1.
<mgrwt>
<rscale>  3 0.32696706E+03</rscale>
<asrwt>0</asrwt>
<pdfrwt beam="1">  1       21 0.27586726E-01 0.32696706E+03</pdfrwt>
<pdfrwt beam="2">  1       21 0.16757000E+00 0.32696706E+03</pdfrwt>
<totfact> 0.25232494E+03</totfact>
</mgrwt>
</event>
<event>
 4    0  0.1407093E-001  0.3088533E+03  0.7546771E-02  0.1080897E+00
         21   -1    0    0  503  501  0.00000000000E+00  0.00000000000E+00  0.95228811160E+02  0.95228811160E+02  0.00000000000E+00 0.  1.
         21   -1    0    0  501  502 -0.00000000000E+00 -0.00000000000E+00 -0.91797731943E+03  0.91797731943E+03  0.00000000000E+00 0.  1.
         25    1    1    2    0    0 -0.15331070544E+03  0.23719436752E+03 -0.43630308834E+03  0.53455656883E+03  0.12500000000E+03 0.  0.
         21    1    1    2  503  502  0.15331070544E+03 -0.23719436752E+03 -0.38644541993E+03  0.47864956176E+03  0.00000000000E+00 0.  1.
<mgrwt>
<rscale>  3 0.30885327E+03</rscale>
<asrwt>0</asrwt>
<pdfrwt beam="1">  1       21 0.14650587E-01 0.30885327E+03</pdfrwt>
<pdfrwt beam="2">  1       21 0.14122728E+00 0.30885327E+03</pdfrwt>
<totfact> 0.13405386E+04</totfact>
</mgrwt>
</event>
<event>
 4    0  0.1345670E-001  0.2603103E+03  0.7546771E-02  0.1106957E+00
         21   -1    0    0  502  501  0.00000000000E+00  0.00000000000E+00  0.27068191606E+03  0.27068191606E+03  0.00000000000E+00 0.  1.
         21   -1    0    0  503  502 -0.00000000000E+00 -0.00000000000E+00 -0.32555572528E+03  0.32555572528E+03  0.00000000000E+00 0.  1.
         25    1    1    2    0    0  0.20451256680E+03  0.10154340006E+03  0.14042792198E+03  0.29577263792E+03  0.12500000000E+03 0.  0.
         21    1    1    2  503  501 -0.20451256680E+03 -0.10154340006E+03 -0.19530173120E+03  0.30046500342E+03  0.00000000000E+00 0.  1.
<mgrwt>
<rscale>  3 0.26031030E+03</rscale>
<asrwt>0</asrwt>
<pdfrwt beam="1">  1       21 0.41643372E-01 0.26031030E+03</pdfrwt>
<pdfrwt beam="2">  1       21 0.50085496E-01 0.26031030E+03</pdfrwt>
<totfact> 0.20334723E+04</totfact>
</mgrwt>
</event>
<event>
 4    0  0.1298837E-001  0.4549545E+03  0.7546771E-02  0.1026255E+00
         21   -1    0    0  503  501  0.00000000000E+00  0.00000000000E+00  0.25406011736E+03  0.25406011736E+03  0.00000000000E+00 0.  1.
         21   -1    0    0  501  502 -0.00000000000E+00 -0.00000000000E+00 -0.84753021315E+03  0.84753021315E+03  0.00000000000E+00 0.  1.
         25    1    1    2    0    0 -0.13165469895E+03  0.41716383958E+03 -0.15093112140E+03  0.47933686715E+03  0.12500000000E+03 0.  0.
         21    1    1    2  503  502  0.13165469895E+03 -0.41716383958E+03 -0.44253897439E+03  0.62225346336E+03  0.00000000000E+00 0.  1.
<mgrwt>
<rscale>  3 0.45495453E+03</rscale>
<asrwt>0</asrwt>
<pdfrwt beam="1">  1       21 0.39086172E-01 0.45495453E+03</pdfrwt>
<pdfrwt beam="2">  1       21 0.13038926E+00 0.45495453E+03</pdfrwt>
<totfact> 0.23289621E+03</totfact>
</mgrwt>
</event>
<event>
 4    0  0.1449239E-001  0.2611562E+03  0.7546771E-02  0.1106451E+00
         21   -1    0    0  502  501  0.00000000000E+00  0.00000000000E+00  0.10648961942E+03  0.10648961942E+03  0.00000000000E+00 0. -1.
         21   -1    0    0  503  502 -0.00000000000E+00 -0.00000000000E+00 -0.14876227589E+04  0.14876227589E+04  0.00000000000E+00 0.  1.
         25    1    1    2    0    0 -0.13426622221E+03  0.18587662588E+03 -0.80297139537E+02  0.27322183129E+03  0.12500000000E+03 0.  0.
         21    1    1    2  503  501  0.13426622221E+03 -0.18587662588E+03 -0.13008360000E+04  0.13208905471E+04  0.00000000000E+00 0.  1.
<mgrwt>
<rscale>  3 0.26115616E+03</rscale>
<asrwt>0</asrwt>
<pdfrwt beam="1">  1       21 0.16383020E-01 0.26115616E+03</pdfrwt>
<pdfrwt beam="2">  1       21 0.22886502E+00 0.26115616E+03</pdfrwt>
<totfact> 0.27856324E+03</totfact>
</mgrwt>
</event>
<event>
 4    0  0.1383444E-001  0.3318808E+03  0.7546771E-02  0.1070308E+00
         21   -1    0    0  502  501  0.00000000000E+00  0.00000000000E+00  0.42499072558E+03  0.42499072558E+03  0.00000000000E+00 0.  1.
         21   -1    0    0  503  502 -0.00000000000E+00 -0.00000000000E+00 -0.17386472063E+04  0.17386472063E+04  0.00000000000E+00 0. -1.
         25    1    1    2    0    0 -0.27176355515E+03 -0.14375132502E+03  0.34383302711E+03  0.47787657809E+03  0.12500000000E+03 0.  0.
         21    1    1    2  503  501  0.27176355515E+03  0.14375132502E+03 -0.16574895078E+04  0.16857613538E+04  0.00000000000E+00 0. -1.
<mgrwt>
<rscale>  3 0.33188081E+03</rscale>
<asrwt>0</asrwt>
<pdfrwt beam="1">  1       21 0.65383188E-01 0.33188081E+03</pdfrwt>
<pdfrwt beam="2">  1       21 0.26748419E+00 0.33188081E+03</pdfrwt>
<totfact> 0.96135167E+01</totfact>
</mgrwt>
</event>
<event>
 4    0  0.1560902E-001  0.2370962E+03  0.7546771E-02  0.1121743E+00
         21   -1    0    0  503  501  0.00000000000E+00  0.00000000000E+00  0.34093210860E+03  0.34093210860E+03  0.00000000000E+00 0. -1.
         21   -1    0    0  501  502 -0.00000000000E+00 -0.00000000000E+00 -0.16487556319E+03  0.16487556319E+03  0.00000000000E+00 0. -1.
         25    1    1    2    0    0  0.17656657223E+03  0.97024946911E+02  0.19003452407E+03  0.30385475986E+03  0.12500000000E+03 0.  0.
         21    1    1    2  503  502 -0.17656657223E+03 -0.97024946911E+02 -0.13977978658E+02  0.20195291193E+03  0.00000000000E+00 0. -1.
<mgrwt>
<rscale>  3 0.23709617E+03</rscale>
<asrwt>0</asrwt>
<pdfrwt beam="1">  1       21 0.52451094E-01 0.23709617E+03</pdfrwt>
<pdfrwt beam="2">  1       21 0.25365471E-01 0.23709617E+03</pdfrwt>
<totfact> 0.49762908E+04</totfact>
</mgrwt>
</event>
<event>
 4    0  0.1355174E-001  0.3182470E+03  0.7546771E-02  0.1076459E+00
         21   -1    0    0  502  501  0.00000000000E+00  0.00000000000E+00  0.10007688307E+04  0.10007688307E+04  0.00000000000E+00 0. -1.
         21   -1    0    0  503  502 -0.00000000000E+00 -0.00000000000E+00 -0.14792406667E+03  0.14792406667E+03  0.00000000000E+00 0. -1.
         25    1    1    2    0    0 -0.27088174604E+03 -0.11081178037E+03  0.78671086836E+03  0.84864312959E+03  0.12500000000E+03 0.  0.
         21    1    1    2  503  501  0.27088174604E+03  0.11081178037E+03  0.66133895719E+02  0.30004976782E+03  0.00000000000E+00 0. -1.
<mgrwt>
<rscale>  3 0.31824703E+03</rscale>
<asrwt>0</asrwt>
<pdfrwt beam="1">  1       21 0.15396443E+00 0.31824703E+03</pdfrwt>
<pdfrwt beam="2">  1       21 0.22757549E-01 0.31824703E+03</pdfrwt>
<totfact> 0.46439906E+03</totfact>
</mgrwt>
</event>
<event>
 4    0  0.1362062E-001  0.2812742E+03  0.7546771E-02  0.1094995E+00
         21   -1    0    0  503  501  0.00000000000E+00  0.00000000000E+00  0.12478418238E+03  0.12478418238E+03  0.00000000000E+00 0.  1.
         21   -1    0    0  501  502 -0.00000000000E+00 -0.00000000000E+00 -0.58534092881E+03  0.58534092881E+03  0.00000000000E+00 0.  1.
         25    1    1    2    0    0 -0.15078275288E+03  0.20187796539E+03 -0.18461552241E+03  0.33644916791E+03  0.12500000000E+03 0.  0.
         21    1    1    2  503  502  0.15078275288E+03 -0.20187796539E+03 -0.27594122402E+03  0.37367594328E+03  0.00000000000E+00 0.  1.
<mgrwt>
<rscale>  3 0.28127416E+03</rscale>
<asrwt>0</asrwt>
<pdfrwt beam="1">  1       21 0.19197567E-01 0.28127416E+03</pdfrwt>
<pdfrwt beam="2">  1       21 0.90052449E-01 0.28127416E+03</pdfrwt>
<totfact> 0.25003537E+04</totfact>
</mgrwt>
</event>
<event>
 4    0  0.1213051E-001  0.2442993E+03  0.7546771E-02  0.1116961E+00
         21   -1    0    0  502  501  0.00000000000E+00  0.00000000000E+00  0.11631484481E+04  0.11631484481E+04  0.00000000000E+00 0. -1.
         21   -1    0    0  503  502 -0.00000000000E+00 -0.00000000000E+00 -0.50984012347E+02  0.50984012347E+02  0.00000000000E+00 0. -1.
         25    1    1    2    0    0  0.20647038187E+03 -0.37777574492E+02  0.81131349390E+03  0.84729673026E+03  0.12500000000E+03 0.  0.
         21    1    1    2  503  501 -0.20647038187E+03  0.37777574492E+02  0.30085094180E+03  0.36683573014E+03  0.00000000000E+00 0. -1.
<mgrwt>
<rscale>  3 0.24429933E+03</rscale>
<asrwt>0</asrwt>
<pdfrwt beam="1">  1       21 0.17894590E+00 0.24429933E+03</pdfrwt>
<pdfrwt beam="2">  1       21 0.78436951E-02 0.24429933E+03</pdfrwt>
<totfact> 0.22217498E+04</totfact>
</mgrwt>
</event>
<event>
 4    0  0.1013687E-001  0.2728136E+03  0.7546771E-02  0.1099680E+00
         21   -1    0    0  502  501  0.00000000000E+00  0.00000000000E+00  0.23012012596E+04  0.23012012596E+04  0.00000000000E+00 0. -1.
         21   -1    0    0  503  502 -0.00000000000E+00 -0.00000000000E+00 -0.39500364925E+02  0.39500364925E+02  0.00000000000E+00 0. -1.
         25    1    1    2    0    0 -0.14340804844E+02  0.24206736504E+03  0.17864492337E+04  0.18071602399E+04  0.12500000000E+03 0.  0.
         21    1    1    2  503  501  0.14340804844E+02 -0.24206736504E+03  0.47525166095E+03  0.53354138465E+03  0.00000000000E+00 0. -1.
<mgrwt>
<rscale>  3 0.27281361E+03</rscale>
<asrwt>0</asrwt>
<pdfrwt beam="1">  1       21 0.35403086E+00 0.27281361E+03</pdfrwt>
<pdfrwt beam="2">  1       21 0.60769810E-02 0.27281361E+03</pdfrwt>
<totfact> 0.29190484E+03</totfact>
</mgrwt>
</event>
<event>
 4    0  0.1220905E-001  0.3174514E+03  0.7546771E-02  0.1076828E+00
         21   -1    0    0  502  501  0.00000000000E+00  0.00000000000E+00  0.78557085845E+02  0.78557085845E+02  0.00000000000E+00 0. -1.
         21   -1    0    0  503  502 -0.00000000000E+00 -0.00000000000E+00 -0.15074784902E+04  0.15074784902E+04  0.00000000000E+00 0. -1.
         25    1    1    2    0    0  0.11104698348E+03 -0.26984985629E+03 -0.36939636222E+03  0.48706164897E+03  0.12500000000E+03 0.  0.
         21    1    1    2  503  501 -0.11104698348E+03  0.26984985629E+03 -0.10595250422E+04  0.10989739271E+04  0.00000000000E+00 0. -1.
<mgrwt>
<rscale>  3 0.31745138E+03</rscale>
<asrwt>0</asrwt>
<pdfrwt beam="1">  1       21 0.12085707E-01 0.31745138E+03</pdfrwt>
<pdfrwt beam="2">  1       21 0.23191974E+00 0.31745138E+03</pdfrwt>
<totfact> 0.44749598E+03</totfact>
</mgrwt>
</event>
<event>
 4    0  0.1121018E-001  0.2745699E+03  0.7546771E-02  0.1098692E+00
         21   -1    0    0  503  501  0.00000000000E+00  0.00000000000E+00  0.12995557415E+04  0.12995557415E+04  0.00000000000E+00 0. -1.
         21   -1    0    0  501  502 -0.00000000000E+00 -0.00000000000E+00 -0.97216867572E+02  0.97216867572E+02  0.00000000000E+00 0. -1.
         25    1    1    2    0    0  0.19097582491E+03  0.15261666089E+03  0.10965433586E+04  0.11303963677E+04  0.12500000000E+03 0.  0.
         21    1    1    2  503  502 -0.19097582491E+03 -0.15261666089E+03  0.10579551530E+03  0.26637624132E+03  0.00000000000E+00 0. -1.
<mgrwt>
<rscale>  3 0.27456987E+03</rscale>
<asrwt>0</asrwt>
<pdfrwt beam="1">  1       21 0.19993164E+00 0.27456987E+03</pdfrwt>
<pdfrwt beam="2">  1       21 0.14956442E-01 0.27456987E+03</pdfrwt>
<totfact> 0.49693251E+03</totfact>
</mgrwt>
</event>
<event>
 4    0  0.1225731E-001  0.2392511E+03  0.7546771E-02  0.1120293E+00
         21   -1    0    0  503  501  0.00000000000E+00  0.00000000000E+00  0.40219499450E+03  0.40219499450E+03  0.00000000000E+00 0.  1.
         21   -1    0    0  501  502 -0.00000000000E+00 -0.00000000000E+00 -0.26259270009E+03  0.26259270009E+03  0.00000000000E+00 0.  1.
         25    1    1    2    0    0  0.24130421354E+02  0.20256798891E+03  0.31513370870E+03  0.39566440543E+03  0.12500000000E+03 0.  0.
         21    1    1    2  503  502 -0.24130421354E+02 -0.20256798891E+03 -0.17553141429E+03  0.26912328916E+03  0.00000000000E+00 0.  1.
<mgrwt>
<rscale>  3 0.23925106E+03</rscale>
<asrwt>0</asrwt>
<pdfrwt beam="1">  1       21 0.61876153E-01 0.23925106E+03</pdfrwt>
<pdfrwt beam="2">  1       21 0.40398877E-01 0.23925106E+03</pdfrwt>
<totfact> 0.13921702E+04</totfact>
</mgrwt>
</event>
<event>
 4    0  0.1048143E-001  0.4511445E+03  0.7546771E-02  0.1027381E+00
         21   -1    0    0  502  501  0.00000000000E+00  0.00000000000E+00  0.23961765992E+03  0.23961765992E+03  0.00000000000E+00 0.  1.
         21   -1    0    0  503  502 -0.00000000000E+00 -0.00000000000E+00 -0.87767089615E+03  0.87767089615E+03  0.00000000000E+00 0.  1.
         25    1    1    2    0    0  0.31263618816E+03 -0.30027480519E+03 -0.47244295874E+03  0.65324856987E+03  0.12500000000E+03 0.  0.
         21    1    1    2  503  501 -0.31263618816E+03  0.30027480519E+03 -0.16561027750E+03  0.46403998620E+03  0.00000000000E+00 0.  1.
<mgrwt>
<rscale>  3 0.45114448E+03</rscale>
<asrwt>0</asrwt>
<pdfrwt beam="1">  1       21 0.36864255E-01 0.45114448E+03</pdfrwt>
<pdfrwt beam="2">  1       21 0.13502629E+00 0.45114448E+03</pdfrwt>
<totfact> 0.23999114E+03</totfact>
</mgrwt>
</event>
<event>
 4    0  0.1431877E-001  0.2612323E+03  0.7546771E-02  0.1106405E+00
         21   -1    0    0  502  501  0.00000000000E+00  0.00000000000E+00  0.26737559741E+03  0.26737559741E+03  0.00000000000E+00 0.  1.
         21   -1    0    0  503  502 -0.00000000000E+00 -0.00000000000E+00 -0.32501646575E+03  0.32501646575E+03  0.00000000000E+00 0.  1.
         25    1    1    2    0    0 -0.14110506658E+03 -0.18084981009E+03  0.13390225938E+03  0.29355086219E+03  0.12500000000E+03 0.  0.
         21    1    1    2  503  501  0.14110506658E+03  0.18084981009E+03 -0.19154312771E+03  0.29884120097E+03  0.00000000000E+00 0.  1.
<mgrwt>
<rscale>  3 0.26123226E+03</rscale>
<asrwt>0</asrwt>
<pdfrwt beam="1">  1       21 0.41134707E-01 0.26123226E+03</pdfrwt>
<pdfrwt beam="2">  1       21 0.50002533E-01 0.26123226E+03</pdfrwt>
<totfact> 0.20916210E+04</totfact>
</mgrwt>
</event>
<event>
 4    0  0.1003929E-001  0.3131659E+03  0.7546771E-02  0.1078838E+00
         21   -1    0    0  502  501  0.00000000000E+00  0.00000000000E+00  0.16815832127E+03  0.16815832127E+03  0.00000000000E+00 0.  1.
         21   -1    0    0  503  502 -0.00000000000E+00 -0.00000000000E+00 -0.70760503153E+03  0.70760503153E+03  0.00000000000E+00 0.  1.
         25    1    1    2    0    0  0.22436726259E+03  0.17918478238E+03 -0.49421924489E+03  0.58508590547E+03  0.12500000000E+03 0.  0.
         21    1    1    2  503  501 -0.22436726259E+03 -0.17918478238E+03 -0.45227465365E+02  0.29067744732E+03  0.00000000000E+00 0.  1.
<mgrwt>
<rscale>  3 0.31316586E+03</rscale>
<asrwt>0</asrwt>
<pdfrwt beam="1">  1       21 0.25870511E-01 0.31316586E+03</pdfrwt>
<pdfrwt beam="2">  1       21 0.10886231E+00 0.31316586E+03</pdfrwt>
<totfact> 0.88615116E+03</totfact>
</mgrwt>
</event>
<event>
 4    0  0.1003929E-001  0.2571933E+03  0.7546771E-02  0.1108841E+00
         21   -1    0    0  503  501  0.00000000000E+00  0.00000000000E+00  0.95004596992E+02  0.95004596992E+02  0.00000000000E+00 0.  1.
         21   -1    0    0  501  502 -0.00000000000E+00 -0.00000000000E+00 -0.16393522346E+04  0.16393522346E+04  0.00000000000E+00 0.  1.
         25    1    1    2    0    0  0.17117101562E+03 -0.14568411486E+03 -0.10538862073E+03  0.27794808740E+03  0.12500000000E+03 0.  0.
         21    1    1    2  503  502 -0.17117101562E+03  0.14568411486E+03 -0.14389590169E+04  0.14564087442E+04  0.00000000000E+00 0.  1.
<mgrwt>
<rscale>  3 0.25719327E+03</rscale>
<asrwt>0</asrwt>
<pdfrwt beam="1">  1       21 0.14616091E-01 0.25719327E+03</pdfrwt>
<pdfrwt beam="2">  1       21 0.25220804E+00 0.25719327E+03</pdfrwt>
<totfact> 0.24909394E+03</totfact>
</mgrwt>
</event>
<event>
 4    0  0.1003929E-001  0.3220005E+03  0.7546771E-02  0.1074732E+00
         21   -1    0    0  503  501  0.00000000000E+00  0.00000000000E+00  0.12554867589E+03  0.12554867589E+03  0.00000000000E+00 0.  1.
         21   -1    0    0  501  502 -0.00000000000E+00 -0.00000000000E+00 -0.79102119625E+03  0.79102119625E+03  0.00000000000E+00 0. -1.
         25    1    1    2    0    0  0.84731519176E+01  0.29662697045E+03 -0.25864893220E+03  0.41301770426E+03  0.12500000000E+03 0.  0.
         21    1    1    2  503  502 -0.84731519176E+01 -0.29662697045E+03 -0.40682358816E+03  0.50355216789E+03  0.00000000000E+00 0. -1.
<mgrwt>
<rscale>  3 0.32200055E+03</rscale>
<asrwt>0</asrwt>
<pdfrwt beam="1">  1       21 0.19315181E-01 0.32200055E+03</pdfrwt>
<pdfrwt beam="2">  1       21 0.12169557E+00 0.32200055E+03</pdfrwt>
<totfact> 0.11695909E+04</totfact>
</mgrwt>
</event>
<event>
 4    0  0.1405492E-001  0.2549509E+03  0.7546771E-02  0.1110215E+00
         21   -1    0    0  502  501  0.00000000000E+00  0.00000000000E+00  0.44815606420E+03  0.44815606420E+03  0.00000000000E+00 0.  1.
         21   -1    0    0  503  502 -0.00000000000E+00 -0.00000000000E+00 -0.15907986970E+03  0.15907986970E+03  0.00000000000E+00 0.  1.
         25    1    1    2    0    0  0.31521323874E+02  0.21995767000E+03  0.28852814044E+03  0.38503046409E+03  0.12500000000E+03 0.  0.
         21    1    1    2  503  501 -0.31521323874E+02 -0.21995767000E+03  0.54805404928E+00  0.22220546981E+03  0.00000000000E+00 0.  1.
<mgrwt>
<rscale>  3 0.25495092E+03</rscale>
<asrwt>0</asrwt>
<pdfrwt beam="1">  1       21 0.68947086E-01 0.25495092E+03</pdfrwt>
<pdfrwt beam="2">  1       21 0.24473826E-01 0.25495092E+03</pdfrwt>
<totfact> 0.29288605E+04</totfact>
</mgrwt>
</event>
<event>
 4    0  0.1382380E-001  0.2828125E+03  0.7546771E-02  0.1094163E+00
         21   -1    0    0  502  501  0.00000000000E+00  0.00000000000E+00  0.93451760299E+02  0.93451760299E+02  0.00000000000E+00 0.  1.
         21   -1    0    0  503  502 -0.00000000000E+00 -0.00000000000E+00 -0.77518897279E+03  0.77518897279E+03  0.00000000000E+00 0.  1.
         25    1    1    2    0    0 -0.25367362737E+03 -0.27609141346E+01 -0.39471182198E+03  0.48557219266E+03  0.12500000000E+03 0.  0.
         21    1    1    2  503  501  0.25367362737E+03  0.27609141346E+01 -0.28702539052E+03  0.38306854044E+03  0.00000000000E+00 0.  1.
<mgrwt>
<rscale>  3 0.28281254E+03</rscale>
<asrwt>0</asrwt>
<pdfrwt beam="1">  1       21 0.14377194E-01 0.28281254E+03</pdfrwt>
<pdfrwt beam="2">  1       21 0.11925984E+00 0.28281254E+03</pdfrwt>
<totfact> 0.21655025E+04</totfact>
</mgrwt>
</event>
<event>
 4    0  0.1396033E-001  0.2468202E+03  0.7546771E-02  0.1115331E+00
         21   -1    0    0  502  501  0.00000000000E+00  0.00000000000E+00  0.11249071062E+03  0.11249071062E+03  0.00000000000E+00 0.  1.
         21   -1    0    0  503  502 -0.00000000000E+00 -0.00000000000E+00 -0.68272782821E+03  0.68272782821E+03  0.00000000000E+00 0.  1.
         25    1    1    2    0    0 -0.15382034418E+03 -0.14708678462E+03 -0.77853773949E+02  0.25880770972E+03  0.12500000000E+03 0.  0.
         21    1    1    2  503  501  0.15382034418E+03  0.14708678462E+03 -0.49238334363E+03  0.53641082911E+03  0.00000000000E+00 0.  1.
<mgrwt>
<rscale>  3 0.24682022E+03</rscale>
<asrwt>0</asrwt>
<pdfrwt beam="1">  1       21 0.17306263E-01 0.24682022E+03</pdfrwt>
<pdfrwt beam="2">  1       21 0.10503505E+00 0.24682022E+03</pdfrwt>
<totfact> 0.21374661E+04</totfact>
</mgrwt>
</event>
<event>
 4    0  0.1492772E-001  0.2888905E+03  0.7546771E-02  0.1090930E+00
         21   -1    0    0  503  501  0.00000000000E+00  0.00000000000E+00  0.29403390670E+03  0.29403390670E+03  0.00000000000E+00 0. -1.
         21   -1    0    0  501  502 -0.00000000000E+00 -0.00000000000E+00 -0.36358683102E+03  0.36358683102E+03  0.00000000000E+00 0. -1.
         25    1    1    2    0    0 -0.25487912034E+03  0.53566242423E+02  0.14216520704E+03  0.32197617056E+03  0.12500000000E+03 0.  0.
         21    1    1    2  503  502  0.25487912034E+03 -0.53566242423E+02 -0.21171813137E+03  0.33564456716E+03  0.00000000000E+00 0. -1.
<mgrwt>
<rscale>  3 0.28889048E+03</rscale>
<asrwt>0</asrwt>
<pdfrwt beam="1">  1       21 0.45235986E-01 0.28889048E+03</pdfrwt>
<pdfrwt beam="2">  1       21 0.55936435E-01 0.28889048E+03</pdfrwt>
<totfact> 0.13388711E+04</totfact>
</mgrwt>
</event>
<event>
 4    0  0.1282221E-001  0.2569071E+03  0.7546771E-02  0.1109016E+00
         21   -1    0    0  503  501  0.00000000000E+00  0.00000000000E+00  0.13154899716E+04  0.13154899716E+04  0.00000000000E+00 0. -1.
         21   -1    0    0  501  502 -0.00000000000E+00 -0.00000000000E+00 -0.44083024979E+02  0.44083024979E+02  0.00000000000E+00 0. -1.
         25    1    1    2    0    0 -0.22344926244E+03 -0.21134639562E+02  0.65573828126E+03  0.70426837170E+03  0.12500000000E+03 0.  0.
         21    1    1    2  503  502  0.22344926244E+03  0.21134639562E+02  0.61566866534E+03  0.65530462486E+03  0.00000000000E+00 0. -1.
<mgrwt>
<rscale>  3 0.25690708E+03</rscale>
<asrwt>0</asrwt>
<pdfrwt beam="1">  1       21 0.20238304E+00 0.25690708E+03</pdfrwt>
<pdfrwt beam="2">  1       21 0.67820048E-02 0.25690708E+03</pdfrwt>
<totfact> 0.19823537E+04</totfact>
</mgrwt>
</event>
<event>
 4    0  0.1391829E-001  0.2408188E+03  0.7546771E-02  0.1119249E+00
         21   -1    0    0  503  501  0.00000000000E+00  0.00000000000E+00  0.64901952263E+03  0.64901952263E+03  0.00000000000E+00 0. -1.
         21   -1    0    0  501  502 -0.00000000000E+00 -0.00000000000E+00 -0.86016077406E+02  0.86016077406E+02  0.00000000000E+00 0. -1.
         25    1    1    2    0    0  0.20010624603E+03  0.48230643816E+02  0.42086076499E+03  0.48488915043E+03  0.12500000000E+03 0.  0.
         21    1    1    2  503  502 -0.20010624603E+03 -0.48230643816E+02  0.14214268024E+03  0.25014644960E+03  0.00000000000E+00 0. -1.
<mgrwt>
<rscale>  3 0.24081882E+03</rscale>
<asrwt>0</asrwt>
<pdfrwt beam="1">  1       21 0.99849154E-01 0.24081882E+03</pdfrwt>
<pdfrwt beam="2">  1       21 0.13233243E-01 0.24081882E+03</pdfrwt>
<totfact> 0.39590899E+04</totfact>
</mgrwt>
</event>
<event>
 4    0  0.1680477E-001  0.2573920E+03  0.7546771E-02  0.1108720E+00
         21   -1    0    0  502  501  0.00000000000E+00  0.00000000000E+00  0.25797273128E+03  0.25797273128E+03  0.00000000000E+00 0. -1.
         21   -1    0    0  503  502 -0.00000000000E+00 -0.00000000000E+00 -0.60544968903E+03  0.60544968903E+03  0.00000000000E+00 0.  1.
         25    1    1    2    0    0 -0.85543057991E+02 -0.20810581062E+03  0.16361696463E+03  0.30499369551E+03  0.12500000000E+03 0.  0.
         21    1    1    2  503  501  0.85543057991E+02  0.20810581062E+03 -0.51109392238E+03  0.55842872480E+03  0.00000000000E+00 0.  1.
<mgrwt>
<rscale>  3 0.25739200E+03</rscale>
<asrwt>0</asrwt>
<pdfrwt beam="1">  1       21 0.39688113E-01 0.25739200E+03</pdfrwt>
<pdfrwt beam="2">  1       21 0.93146104E-01 0.25739200E+03</pdfrwt>
<totfact> 0.56786516E+03</totfact>
</mgrwt>
</event>
<event>
 4    0  0.1003929E-001  0.2471582E+03  0.7546771E-02  0.1115114E+00
         21   -1    0    0  503  501  0.00000000000E+00  0.00000000000E+00  0.19222634235E+04  0.19222634235E+04  0.00000000000E+00 0.  1.
         21   -1    0    0  501  502 -0.00000000000E+00 -0.00000000000E+00 -0.50000537360E+02  0.50000537360E+02  0.00000000000E+00 0.  1.
         25    1    1    2    0    0 -0.18865665234E+03  0.99352046478E+02  0.16337565836E+04  0.16523461309E+04  0.12500000000E+03 0.  0.
         21    1    1    2  503  502  0.18865665234E+03 -0.99352046478E+02  0.23850630248E+03  0.31991782997E+03  0.00000000000E+00 0.  1.
<mgrwt>
<rscale>  3 0.24715817E+03</rscale>
<asrwt>0</asrwt>
<pdfrwt beam="1">  1       21 0.29573278E+00 0.24715817E+03</pdfrwt>
<pdfrwt beam="2">  1       21 0.76923918E-02 0.24715817E+03</pdfrwt>
<totfact> 0.43861864E+03</totfact>
</mgrwt>
</event>
<event>
 4    0  0.1003929E-001  0.2726989E+03  0.7546771E-02  0.1099745E+00
         21   -1    0    0  502  501  0.00000000000E+00  0.00000000000E+00  0.21219198512E+04  0.21219198512E+04  0.00000000000E+00 0.  1.
         21   -1    0    0  503  502 -0.00000000000E+00 -0.00000000000E+00 -0.31922175561E+02  0.31922175561E+02  0.00000000000E+00 0.  1.
         25    1    1    2    0    0  0.20571198558E+03 -0.12814942859E+03  0.12606030940E+04  0.12897615507E+04  0.12500000000E+03 0.  0.
         21    1    1    2  503  501 -0.20571198558E+03  0.12814942859E+03  0.82939458161E+03  0.86408047604E+03  0.00000000000E+00 0.  1.
<mgrwt>
<rscale>  3 0.27269891E+03</rscale>
<asrwt>0</asrwt>
<pdfrwt beam="1">  1       21 0.32644910E+00 0.27269891E+03</pdfrwt>
<pdfrwt beam="2">  1       21 0.49111056E-02 0.27269891E+03</pdfrwt>
<totfact> 0.61448322E+03</totfact>
</mgrwt>
</event>
<event>
 4    0  0.1635078E-001  0.2618029E+03  0.7546771E-02  0.1106065E+00
         21   -1    0    0  502  501  0.00000000000E+00  0.00000000000E+00  0.27812196932E+03  0.27812196932E+03  0.00000000000E+00 0. -1.
         21   -1    0    0  503  502 -0.00000000000E+00 -0.00000000000E+00 -0.25106764079E+03  0.25106764079E+03  0.00000000000E+00 0. -1.
         25    1    1    2    0    0  0.22422579950E+03 -0.51366909810E+02  0.11093841632E+03  0.28433800450E+03  0.12500000000E+03 0.  0.
         21    1    1    2  503  501 -0.22422579950E+03  0.51366909810E+02 -0.83884087799E+02  0.24485160561E+03  0.00000000000E+00 0. -1.
<mgrwt>
<rscale>  3 0.26180292E+03</rscale>
<asrwt>0</asrwt>
<pdfrwt beam="1">  1       21 0.42787995E-01 0.26180292E+03</pdfrwt>
<pdfrwt beam="2">  1       21 0.38625791E-01 0.26180292E+03</pdfrwt>
<totfact> 0.32850954E+04</totfact>
</mgrwt>
</event>
<event>
 4    0  0.1003929E-001  0.2624528E+03  0.7546771E-02  0.1105678E+00
         21   -1    0    0  503  501  0.00000000000E+00  0.00000000000E+00  0.26805218060E+03  0.26805218060E+03  0.00000000000E+00 0. -1.
         21   -1    0    0  501  502 -0.00000000000E+00 -0.00000000000E+00 -0.23178335714E+03  0.23178335714E+03  0.00000000000E+00 0.  1.
         25    1    1    2    0    0 -0.12226022691E+03  0.19572659100E+03  0.55517953379E+02  0.26826051640E+03  0.12500000000E+03 0.  0.
         21    1    1    2  503  502  0.12226022691E+03 -0.19572659100E+03 -0.19249129919E+02  0.23157502135E+03  0.00000000000E+00 0.  1.
<mgrwt>
<rscale>  3 0.26245278E+03</rscale>
<asrwt>0</asrwt>
<pdfrwt beam="1">  1       21 0.41238797E-01 0.26245278E+03</pdfrwt>
<pdfrwt beam="2">  1       21 0.35658978E-01 0.26245278E+03</pdfrwt>
<totfact> 0.41607637E+04</totfact>
</mgrwt>
</event>
<event>
 4    0  0.1003929E-001  0.2503261E+03  0.7546771E-02  0.1113099E+00
         21   -1    0    0  502  501  0.00000000000E+00  0.00000000000E+00  0.39501188037E+03  0.39501188037E+03  0.00000000000E+00 0.  1.
         21   -1    0    0  503  502 -0.00000000000E+00 -0.00000000000E+00 -0.13826016166E+03  0.13826016166E+03  0.00000000000E+00 0. -1.
         25    1    1    2    0    0 -0.17998468164E+03 -0.12101105276E+03  0.13006422386E+03  0.28209903021E+03  0.12500000000E+03 0.  0.
         21    1    1    2  503  501  0.17998468164E+03  0.12101105276E+03  0.12668749484E+03  0.25117301182E+03  0.00000000000E+00 0. -1.
<mgrwt>
<rscale>  3 0.25032611E+03</rscale>
<asrwt>0</asrwt>
<pdfrwt beam="1">  1       21 0.60771058E-01 0.25032611E+03</pdfrwt>
<pdfrwt beam="2">  1       21 0.21270794E-01 0.25032611E+03</pdfrwt>
<totfact> 0.50533664E+04</totfact>
</mgrwt>
</event>
<event>
 4    0  0.1098510E-001  0.3372823E+03  0.7546771E-02  0.1067959E+00
         21   -1    0    0  503  501  0.00000000000E+00  0.00000000000E+00  0.10194103602E+04  0.10194103602E+04  0.00000000000E+00 0. -1.
         21   -1    0    0  501  502 -0.00000000000E+00 -0.00000000000E+00 -0.18468832496E+03  0.18468832496E+03  0.00000000000E+00 0. -1.
         25    1    1    2    0    0  0.18145587686E+03 -0.25535881958E+03  0.82433003363E+03  0.89066231891E+03  0.12500000000E+03 0.  0.
         21    1    1    2  503  502 -0.18145587686E+03  0.25535881958E+03  0.10392001594E+02  0.31343636624E+03  0.00000000000E+00 0. -1.
<mgrwt>
<rscale>  3 0.33728232E+03</rscale>
<asrwt>0</asrwt>
<pdfrwt beam="1">  1       21 0.15683236E+00 0.33728232E+03</pdfrwt>
<pdfrwt beam="2">  1       21 0.28413589E-01 0.33728232E+03</pdfrwt>
<totfact> 0.28444572E+03</totfact>
</mgrwt>
</event>
<event>
 4    0  0.1569607E-001  0.2920378E+03  0.7546771E-02  0.1089290E+00
         21   -1    0    0  502  501  0.00000000000E+00  0.00000000000E+00  0.13253350949E+03  0.13253350949E+03  0.00000000000E+00 0.  1.
         21   -1    0    0  503  502 -0.00000000000E+00 -0.00000000000E+00 -0.65437487382E+03  0.65437487382E+03  0.00000000000E+00 0.  1.
         25    1    1    2    0    0 -0.23791324220E+03  0.11427326490E+03 -0.14294003426E+03  0.32514295822E+03  0.12500000000E+03 0.  0.
         21    1    1    2  503  501  0.23791324220E+03 -0.11427326490E+03 -0.37890133007E+03  0.46176542509E+03  0.00000000000E+00 0.  1.
<mgrwt>
<rscale>  3 0.29203782E+03</rscale>
<asrwt>0</asrwt>
<pdfrwt beam="1">  1       21 0.20389771E-01 0.29203782E+03</pdfrwt>
<pdfrwt beam="2">  1       21 0.10067306E+00 0.29203782E+03</pdfrwt>
<totfact> 0.17060268E+04</totfact>
</mgrwt>
</event>
<event>
 4    0  0.1003929E-001  0.3336443E+03  0.7546771E-02  0.1069536E+00
         21   -1    0    0  502  501  0.00000000000E+00  0.00000000000E+00  0.47045956180E+03  0.47045956180E+03  0.00000000000E+00 0. -1.
         21   -1    0    0  503  502 -0.00000000000E+00 -0.00000000000E+00 -0.80800394351E+03  0.80800394351E+03  0.00000000000E+00 0. -1.
         25    1    1    2    0    0 -0.25871435721E+03  0.16958894493E+03  0.37483602459E+03  0.50181727172E+03  0.12500000000E+03 0.  0.
         21    1    1    2  503  501  0.25871435721E+03 -0.16958894493E+03 -0.71238040630E+03  0.77664623359E+03  0.00000000000E+00 0. -1.
<mgrwt>
<rscale>  3 0.33364431E+03</rscale>
<asrwt>0</asrwt>
<pdfrwt beam="1">  1       21 0.72378394E-01 0.33364431E+03</pdfrwt>
<pdfrwt beam="2">  1       21 0.12430830E+00 0.33364431E+03</pdfrwt>
<totfact> 0.74379803E+02</totfact>
</mgrwt>
</event>
<event>
 4    0  0.1304475E-001  0.2978832E+03  0.7546771E-02  0.1086304E+00
         21   -1    0    0  502  501  0.00000000000E+00  0.00000000000E+00  0.20933657881E+03  0.20933657881E+03  0.00000000000E+00 0. -1.
         21   -1    0    0  503  502 -0.00000000000E+00 -0.00000000000E+00 -0.61816080231E+03  0.61816080231E+03  0.00000000000E+00 0.  1.
         25    1    1    2    0    0 -0.25795321044E+03 -0.81052646680E+02  0.42977019422E+02  0.30096746420E+03  0.12500000000E+03 0.  0.
         21    1    1    2  503  501  0.25795321044E+03  0.81052646680E+02 -0.45180124292E+03  0.52652991692E+03  0.00000000000E+00 0.  1.
<mgrwt>
<rscale>  3 0.29788318E+03</rscale>
<asrwt>0</asrwt>
<pdfrwt beam="1">  1       21 0.32205628E-01 0.29788318E+03</pdfrwt>
<pdfrwt beam="2">  1       21 0.95101660E-01 0.29788318E+03</pdfrwt>
<totfact> 0.80485591E+03</totfact>
</mgrwt>
</event>
<event>
 4    0  0.1003929E-001  0.3774910E+03  0.7546771E-02  0.1051865E+00
         21   -1    0    0  502  501  0.00000000000E+00  0.00000000000E+00  0.85990135490E+02  0.85990135490E+02  0.00000000000E+00 0.  1.
         21   -1    0    0  503  502 -0.00000000000E+00 -0.00000000000E+00 -0.15968307652E+04  0.15968307652E+04  0.00000000000E+00 0. -1.
         25    1    1    2    0    0  0.13991382693E+03  0.32756466335E+03 -0.65814272466E+03  0.75871689955E+03  0.12500000000E+03 0.  0.
         21    1    1    2  503  501 -0.13991382693E+03 -0.32756466335E+03 -0.85269790504E+03  0.92410400113E+03  0.00000000000E+00 0. -1.
<mgrwt>
<rscale>  3 0.37749104E+03</rscale>
<asrwt>0</asrwt>
<pdfrwt beam="1">  1       21 0.13229253E-01 0.37749104E+03</pdfrwt>
<pdfrwt beam="2">  1       21 0.24566626E+00 0.37749104E+03</pdfrwt>
<totfact> 0.30200041E+03</totfact>
</mgrwt>
</event>
<event>
 4    0  0.1003929E-001  0.2551642E+03  0.7546771E-02  0.1110084E+00
         21   -1    0    0  502  501  0.00000000000E+00  0.00000000000E+00  0.53702756428E+02  0.53702756428E+02  0.00000000000E+00 0.  1.
         21   -1    0    0  503  502 -0.00000000000E+00 -0.00000000000E+00 -0.10646212839E+04  0.10646212839E+04  0.00000000000E+00 0. -1.
         25    1    1    2    0    0 -0.21767693610E+03  0.45831426463E+02 -0.56802855531E+03  0.62270796350E+03  0.12500000000E+03 0.  0.
         21    1    1    2  503  501  0.21767693610E+03 -0.45831426463E+02 -0.44288997214E+03  0.49561607681E+03  0.00000000000E+00 0. -1.
<mgrwt>
<rscale>  3 0.25516420E+03</rscale>
<asrwt>0</asrwt>
<pdfrwt beam="1">  1       21 0.82619636E-02 0.25516420E+03</pdfrwt>
<pdfrwt beam="2">  1       21 0.16378787E+00 0.25516420E+03</pdfrwt>
<totfact> 0.25820707E+04</totfact>
</mgrwt>
</event>
<event>
 4    0  0.1463225E-001  0.2999320E+03  0.7546771E-02  0.1085275E+00
         21   -1    0    0  502  501  0.00000000000E+00  0.00000000000E+00  0.13886370361E+03  0.13886370361E+03  0.00000000000E+00 0.  1.
         21   -1    0    0  503  502 -0.00000000000E+00 -0.00000000000E+00 -0.69593864860E+03  0.69593864860E+03  0.00000000000E+00 0.  1.
         25    1    1    2    0    0 -0.12426245936E+03  0.24267887545E+03 -0.12727130250E+03  0.32581770952E+03  0.12500000000E+03 0.  0.
         21    1    1    2  503  501  0.12426245936E+03 -0.24267887545E+03 -0.42980364248E+03  0.50898464269E+03  0.00000000000E+00 0.  1.
<mgrwt>
<rscale>  3 0.29993198E+03</rscale>
<asrwt>0</asrwt>
<pdfrwt beam="1">  1       21 0.21363647E-01 0.29993198E+03</pdfrwt>
<pdfrwt beam="2">  1       21 0.10706748E+00 0.29993198E+03</pdfrwt>
<totfact> 0.13402836E+04</totfact>
</mgrwt>
</event>
<event>
 4    0  0.1452856E-001  0.2693917E+03  0.7546771E-02  0.1101628E+00
         21   -1    0    0  502  501  0.00000000000E+00  0.00000000000E+00  0.23372180755E+03  0.23372180755E+03  0.00000000000E+00 0.  1.
         21   -1    0    0  503  502 -0.00000000000E+00 -0.00000000000E+00 -0.34379087095E+03  0.34379087095E+03  0.00000000000E+00 0.  1.
         25    1    1    2    0    0  0.21709239416E+03  0.99084778452E+02  0.70261914180E+02  0.27840373113E+03  0.12500000000E+03 0.  0.
         21    1    1    2  503  501 -0.21709239416E+03 -0.99084778452E+02 -0.18033097759E+03  0.29910894737E+03  0.00000000000E+00 0.  1.
<mgrwt>
<rscale>  3 0.26939172E+03</rscale>
<asrwt>0</asrwt>
<pdfrwt beam="1">  1       21 0.35957201E-01 0.26939172E+03</pdfrwt>
<pdfrwt beam="2">  1       21 0.52890903E-01 0.26939172E+03</pdfrwt>
<totfact> 0.24307328E+04</totfact>
</mgrwt>
</event>
<event>
 4    0  0.1278763E-001  0.2880888E+03  0.7546771E-02  0.1091351E+00
         21   -1    0    0  503  501  0.00000000000E+00  0.00000000000E+00  0.23341328800E+03  0.23341328800E+03  0.00000000000E+00 0.  1.
         21   -1    0    0  501  502 -0.00000000000E+00 -0.00000000000E+00 -0.35429439984E+03  0.35429439984E+03  0.00000000000E+00 0.  1.
         25    1    1    2    0    0 -0.25486434784E+03 -0.49135934586E+02 -0.15295569263E+03  0.32617574983E+03  0.12500000000E+03 0.  0.
         21    1    1    2  503  502  0.25486434784E+03  0.49135934586E+02  0.32074580797E+02  0.26153193801E+03  0.00000000000E+00 0.  1.
<mgrwt>
<rscale>  3 0.28808883E+03</rscale>
<asrwt>0</asrwt>
<pdfrwt beam="1">  1       21 0.35909737E-01 0.28808883E+03</pdfrwt>
<pdfrwt beam="2">  1       21 0.54506831E-01 0.28808883E+03</pdfrwt>
<totfact> 0.22683350E+04</totfact>
</mgrwt>
</event>
<event>
 4    0  0.1594208E-001  0.3028371E+03  0.7546771E-02  0.1083831E+00
         21   -1    0    0  503  501  0.00000000000E+00  0.00000000000E+00  0.30798464199E+03  0.30798464199E+03  0.00000000000E+00 0.  1.
         21   -1    0    0  501  502 -0.00000000000E+00 -0.00000000000E+00 -0.32815096733E+03  0.32815096733E+03  0.00000000000E+00 0.  1.
         25    1    1    2    0    0 -0.24469841738E+03 -0.12731073699E+03  0.12119343854E+03  0.32618735224E+03  0.12500000000E+03 0.  0.
         21    1    1    2  503  502  0.24469841738E+03  0.12731073699E+03 -0.14135976388E+03  0.30994825707E+03  0.00000000000E+00 0.  1.
<mgrwt>
<rscale>  3 0.30283715E+03</rscale>
<asrwt>0</asrwt>
<pdfrwt beam="1">  1       21 0.47382252E-01 0.30283715E+03</pdfrwt>
<pdfrwt beam="2">  1       21 0.50484764E-01 0.30283715E+03</pdfrwt>
<totfact> 0.15028348E+04</totfact>
</mgrwt>
</event>
<event>
 4    0  0.1235881E-001  0.2455516E+03  0.7546771E-02  0.1116149E+00
         21   -1    0    0  502  501  0.00000000000E+00  0.00000000000E+00  0.41466205266E+03  0.41466205266E+03  0.00000000000E+00 0.  1.
         21   -1    0    0  503  502 -0.00000000000E+00 -0.00000000000E+00 -0.12593241372E+03  0.12593241372E+03  0.00000000000E+00 0.  1.
         25    1    1    2    0    0  0.13024588420E+03  0.16645303085E+03  0.14884969709E+03  0.28714427411E+03  0.12500000000E+03 0.  0.
         21    1    1    2  503  501 -0.13024588420E+03 -0.16645303085E+03  0.13987994185E+03  0.25345019227E+03  0.00000000000E+00 0.  1.
<mgrwt>
<rscale>  3 0.24555163E+03</rscale>
<asrwt>0</asrwt>
<pdfrwt beam="1">  1       21 0.63794161E-01 0.24555163E+03</pdfrwt>
<pdfrwt beam="2">  1       21 0.19374218E-01 0.24555163E+03</pdfrwt>
<totfact> 0.54308968E+04</totfact>
</mgrwt>
</event>
<event>
 4    0  0.1370031E-001  0.2941501E+03  0.7546771E-02  0.1088202E+00
         21   -1    0    0  502  501  0.00000000000E+00  0.00000000000E+00  0.14133872816E+04  0.14133872816E+04  0.00000000000E+00 0. -1.
         21   -1    0    0  503  502 -0.00000000000E+00 -0.00000000000E+00 -0.57069754533E+02  0.57069754533E+02  0.00000000000E+00 0. -1.
         25    1    1    2    0    0 -0.25635876112E+03  0.71968581175E+02  0.83072916418E+03  0.88126910493E+03  0.12500000000E+03 0.  0.
         21    1    1    2  503  501  0.25635876112E+03 -0.71968581175E+02  0.52558836293E+03  0.58918793125E+03  0.00000000000E+00 0. -1.
<mgrwt>
<rscale>  3 0.29415012E+03</rscale>
<asrwt>0</asrwt>
<pdfrwt beam="1">  1       21 0.21744417E+00 0.29415012E+03</pdfrwt>
<pdfrwt beam="2">  1       21 0.87799633E-02 0.29415012E+03</pdfrwt>
<totfact> 0.98908350E+03</totfact>
</mgrwt>
</event>
<event>
 4    0  0.1003929E-001  0.3324342E+03  0.7546771E-02  0.1070065E+00
         21   -1    0    0  502  501  0.00000000000E+00  0.00000000000E+00  0.53399338339E+03  0.53399338339E+03  0.00000000000E+00 0.  1.
         21   -1    0    0  503  502 -0.00000000000E+00 -0.00000000000E+00 -0.21437939984E+03  0.21437939984E+03  0.00000000000E+00 0. -1.
         25    1    1    2    0    0  0.30786610505E+03  0.10292799169E+02  0.28595614691E+03  0.43850130936E+03  0.12500000000E+03 0.  0.
         21    1    1    2  503  501 -0.30786610505E+03 -0.10292799169E+02  0.33657836637E+02  0.30987147387E+03  0.00000000000E+00 0. -1.
<mgrwt>
<rscale>  3 0.33243417E+03</rscale>
<asrwt>0</asrwt>
<pdfrwt beam="1">  1       21 0.82152828E-01 0.33243417E+03</pdfrwt>
<pdfrwt beam="2">  1       21 0.32981446E-01 0.33243417E+03</pdfrwt>
<totfact> 0.10644203E+04</totfact>
</mgrwt>
</event>
<event>
 4    0  0.1003929E-001  0.2504829E+03  0.7546771E-02  0.1113000E+00
         21   -1    0    0  503  501  0.00000000000E+00  0.00000000000E+00  0.53350539389E+03  0.53350539389E+03  0.00000000000E+00 0. -1.
         21   -1    0    0  501  502 -0.00000000000E+00 -0.00000000000E+00 -0.13527170058E+03  0.13527170058E+03  0.00000000000E+00 0.  1.
         25    1    1    2    0    0 -0.16298938523E+03 -0.14335666813E+03  0.37432470451E+03  0.45040055329E+03  0.12500000000E+03 0.  0.
         21    1    1    2  503  502  0.16298938523E+03  0.14335666813E+03  0.23908988794E+02  0.21837654118E+03  0.00000000000E+00 0.  1.
<mgrwt>
<rscale>  3 0.25048288E+03</rscale>
<asrwt>0</asrwt>
<pdfrwt beam="1">  1       21 0.82077752E-01 0.25048288E+03</pdfrwt>
<pdfrwt beam="2">  1       21 0.20811031E-01 0.25048288E+03</pdfrwt>
<totfact> 0.26982843E+04</totfact>
</mgrwt>
</event>
<event>
 4    0  0.1753116E-001  0.3313539E+03  0.7546771E-02  0.1070539E+00
         21   -1    0    0  503  501  0.00000000000E+00  0.00000000000E+00  0.60591599808E+03  0.60591599808E+03  0.00000000000E+00 0.  1.
         21   -1    0    0  501  502 -0.00000000000E+00 -0.00000000000E+00 -0.57202840359E+03  0.57202840359E+03  0.00000000000E+00 0. -1.
         25    1    1    2    0    0 -0.29452735317E+03  0.86162843522E+02  0.51197305671E+03  0.60984572489E+03  0.12500000000E+03 0.  0.
         21    1    1    2  503  502  0.29452735317E+03 -0.86162843522E+02 -0.47808546222E+03  0.56809867678E+03  0.00000000000E+00 0. -1.
<mgrwt>
<rscale>  3 0.33135389E+03</rscale>
<asrwt>0</asrwt>
<pdfrwt beam="1">  1       21 0.93217846E-01 0.33135389E+03</pdfrwt>
<pdfrwt beam="2">  1       21 0.88004370E-01 0.33135389E+03</pdfrwt>
<totfact> 0.96345326E+02</totfact>
</mgrwt>
</event>
<event>
 4    0  0.1194510E-001  0.3661101E+03  0.7546771E-02  0.1056190E+00
         21   -1    0    0  502  501  0.00000000000E+00  0.00000000000E+00  0.12975136794E+04  0.12975136794E+04  0.00000000000E+00 0.  1.
         21   -1    0    0  503  502 -0.00000000000E+00 -0.00000000000E+00 -0.99067817034E+02  0.99067817034E+02  0.00000000000E+00 0.  1.
         25    1    1    2    0    0 -0.20230885528E+03  0.27835714801E+03  0.71357075444E+03  0.80200984805E+03  0.12500000000E+03 0.  0.
         21    1    1    2  503  501  0.20230885528E+03 -0.27835714801E+03  0.48487510789E+03  0.59457164835E+03  0.00000000000E+00 0.  1.
<mgrwt>
<rscale>  3 0.36611006E+03</rscale>
<asrwt>0</asrwt>
<pdfrwt beam="1">  1       21 0.19961748E+00 0.36611006E+03</pdfrwt>
<pdfrwt beam="2">  1       21 0.15241204E-01 0.36611006E+03</pdfrwt>
<totfact> 0.45801489E+03</totfact>
</mgrwt>
</event>
<event>
 4    0  0.1003929E-001  0.6840763E+03  0.7546771E-02  0.9744858E-01
         21   -1    0    0  503  501  0.00000000000E+00  0.00000000000E+00  0.14180474717E+04  0.14180474717E+04  0.00000000000E+00 0.  1.
         21   -1    0    0  501  502 -0.00000000000E+00 -0.00000000000E+00 -0.34795746379E+03  0.34795746379E+03  0.00000000000E+00 0.  1.
         25    1    1    2    0    0  0.42676433967E+03 -0.51981497678E+03  0.76868243141E+03  0.10289961575E+04  0.12500000000E+03 0.  0.
         21    1    1    2  503  502 -0.42676433967E+03  0.51981497678E+03  0.30140757646E+03  0.73700877800E+03  0.00000000000E+00 0.  1.
<mgrwt>
<rscale>  3 0.68407632E+03</rscale>
<asrwt>0</asrwt>
<pdfrwt beam="1">  1       21 0.21816115E+00 0.68407632E+03</pdfrwt>
<pdfrwt beam="2">  1       21 0.53531918E-01 0.68407632E+03</pdfrwt>
<totfact> 0.25001373E+02</totfact>
</mgrwt>
</event>
<event>
 4    0  0.1482231E-001  0.2973074E+03  0.7546771E-02  0.1086594E+00
         21   -1    0    0  502  501  0.00000000000E+00  0.00000000000E+00  0.18303306789E+03  0.18303306789E+03  0.00000000000E+00 0. -1.
         21   -1    0    0  503  502 -0.00000000000E+00 -0.00000000000E+00 -0.46268537737E+03  0.46268537737E+03  0.00000000000E+00 0. -1.
         25    1    1    2    0    0  0.25567044414E+03 -0.86019128148E+02 -0.21892307923E+03  0.36921400439E+03  0.12500000000E+03 0.  0.
         21    1    1    2  503  501 -0.25567044414E+03  0.86019128148E+02 -0.60729230247E+02  0.27650444087E+03  0.00000000000E+00 0. -1.
<mgrwt>
<rscale>  3 0.29730736E+03</rscale>
<asrwt>0</asrwt>
<pdfrwt beam="1">  1       21 0.28158933E-01 0.29730736E+03</pdfrwt>
<pdfrwt beam="2">  1       21 0.71182366E-01 0.29730736E+03</pdfrwt>
<totfact> 0.20427369E+04</totfact>
</mgrwt>
</event>
<event>
 4    0  0.1003929E-001  0.2563401E+03  0.7546771E-02  0.1109362E+00
         21   -1    0    0  502  501  0.00000000000E+00  0.00000000000E+00  0.25929923196E+03  0.25929923196E+03  0.00000000000E+00 0.  1.
         21   -1    0    0  503  502 -0.00000000000E+00 -0.00000000000E+00 -0.14314140490E+04  0.14314140490E+04  0.00000000000E+00 0.  1.
         25    1    1    2    0    0 -0.55821738688E+02 -0.21672371286E+03  0.18445526911E+03  0.31580687220E+03  0.12500000000E+03 0.  0.
         21    1    1    2  503  501  0.55821738688E+02  0.21672371286E+03 -0.13565700861E+04  0.13749064087E+04  0.00000000000E+00 0.  1.
<mgrwt>
<rscale>  3 0.25634008E+03</rscale>
<asrwt>0</asrwt>
<pdfrwt beam="1">  1       21 0.39892189E-01 0.25634008E+03</pdfrwt>
<pdfrwt beam="2">  1       21 0.22021755E+00 0.25634008E+03</pdfrwt>
<totfact> 0.56698588E+02</totfact>
</mgrwt>
</event>
<event>
 4    0  0.1194264E-001  0.3465878E+03  0.7546771E-02  0.1064024E+00
         21   -1    0    0  502  501  0.00000000000E+00  0.00000000000E+00  0.54680478264E+03  0.54680478264E+03  0.00000000000E+00 0.  1.
         21   -1    0    0  503  502 -0.00000000000E+00 -0.00000000000E+00 -0.31583993731E+03  0.31583993731E+03  0.00000000000E+00 0.  1.
         25    1    1    2    0    0 -0.28441680822E+03  0.15363973714E+03  0.37334116289E+03  0.50941801453E+03  0.12500000000E+03 0.  0.
         21    1    1    2  503  501  0.28441680822E+03 -0.15363973714E+03 -0.14237631755E+03  0.35322670542E+03  0.00000000000E+00 0.  1.
<mgrwt>
<rscale>  3 0.34658778E+03</rscale>
<asrwt>0</asrwt>
<pdfrwt beam="1">  1       21 0.84123812E-01 0.34658778E+03</pdfrwt>
<pdfrwt beam="2">  1       21 0.48590760E-01 0.34658778E+03</pdfrwt>
<totfact> 0.45283065E+03</totfact>
</mgrwt>
</event>
<event>
 4    0  0.1140748E-001  0.2773639E+03  0.7546771E-02  0.1097137E+00
         21   -1    0    0  502  501  0.00000000000E+00  0.00000000000E+00  0.96933235712E+03  0.96933235712E+03  0.00000000000E+00 0.  1.
         21   -1    0    0  503  502 -0.00000000000E+00 -0.00000000000E+00 -0.13285341548E+03  0.13285341548E+03  0.00000000000E+00 0.  1.
         25    1    1    2    0    0  0.24721180898E+03 -0.13858554482E+02  0.80639806080E+03  0.85276524934E+03  0.12500000000E+03 0.  0.
         21    1    1    2  503  501 -0.24721180898E+03  0.13858554482E+02  0.30080880836E+02  0.24942052326E+03  0.00000000000E+00 0.  1.
<mgrwt>
<rscale>  3 0.27736391E+03</rscale>
<asrwt>0</asrwt>
<pdfrwt beam="1">  1       21 0.14912805E+00 0.27736391E+03</pdfrwt>
<pdfrwt beam="2">  1       21 0.20438988E-01 0.27736391E+03</pdfrwt>
<totfact> 0.63453731E+03</totfact>
</mgrwt>
</event>
<event>
 4    0  0.1506223E-001  0.2897775E+03  0.7546771E-02  0.1090465E+00
         21   -1    0    0  503  501  0.00000000000E+00  0.00000000000E+00  0.26926383499E+03  0.26926383499E+03  0.00000000000E+00 0.  1.
         21   -1    0    0  501  502 -0.00000000000E+00 -0.00000000000E+00 -0.28233155375E+03  0.28233155375E+03  0.00000000000E+00 0.  1.
         25    1    1    2    0    0  0.65202167898E+02  0.25316921220E+03 -0.14866864680E+02  0.29015857107E+03  0.12500000000E+03 0.  0.
         21    1    1    2  503  502 -0.65202167898E+02 -0.25316921220E+03  0.17991459229E+01  0.26143681766E+03  0.00000000000E+00 0.  1.
<mgrwt>
<rscale>  3 0.28977745E+03</rscale>
<asrwt>0</asrwt>
<pdfrwt beam="1">  1       21 0.41425205E-01 0.28977745E+03</pdfrwt>
<pdfrwt beam="2">  1       21 0.43435624E-01 0.28977745E+03</pdfrwt>
<totfact> 0.27310748E+04</totfact>
</mgrwt>
</event>
<event>
 4    0  0.1234018E-001  0.4671352E+03  0.7546771E-02  0.1022732E+00
         21   -1    0    0  503  501  0.00000000000E+00  0.00000000000E+00  0.50745893622E+03  0.50745893622E+03  0.00000000000E+00 0. -1.
         21   -1    0    0  501  502 -0.00000000000E+00 -0.00000000000E+00 -0.61829186748E+03  0.61829186748E+03  0.00000000000E+00 0.  1.
         25    1    1    2    0    0 -0.35199736327E+02 -0.44872181758E+03  0.26702773208E+03  0.53806979167E+03  0.12500000000E+03 0.  0.
         21    1    1    2  503  502  0.35199736327E+02  0.44872181758E+03 -0.37786066334E+03  0.58768101204E+03  0.00000000000E+00 0.  1.
<mgrwt>
<rscale>  3 0.46713520E+03</rscale>
<asrwt>0</asrwt>
<pdfrwt beam="1">  1       21 0.78070606E-01 0.46713520E+03</pdfrwt>
<pdfrwt beam="2">  1       21 0.95121825E-01 0.46713520E+03</pdfrwt>
<totfact> 0.11368135E+03</totfact>
</mgrwt>
</event>
<event>
 4    0  0.1580741E-001  0.3282011E+03  0.7546771E-02  0.1071936E+00
         21   -1    0    0  503  501  0.00000000000E+00  0.00000000000E+00  0.50451117047E+03  0.50451117047E+03  0.00000000000E+00 0. -1.
         21   -1    0    0  501  502 -0.00000000000E+00 -0.00000000000E+00 -0.21550478152E+03  0.21550478152E+03  0.00000000000E+00 0. -1.
         25    1    1    2    0    0  0.29839566327E+03  0.55236002382E+02  0.25305116448E+03  0.41442837700E+03  0.12500000000E+03 0.  0.
         21    1    1    2  503  502 -0.29839566327E+03 -0.55236002382E+02  0.35955224471E+02  0.30558757499E+03  0.00000000000E+00 0. -1.
<mgrwt>
<rscale>  3 0.32820114E+03</rscale>
<asrwt>0</asrwt>
<pdfrwt beam="1">  1       21 0.77617103E-01 0.32820114E+03</pdfrwt>
<pdfrwt beam="2">  1       21 0.33154582E-01 0.32820114E+03</pdfrwt>
<totfact> 0.12018449E+04</totfact>
</mgrwt>
</event>
<event>
 4    0  0.1003929E-001  0.2901874E+03  0.7546771E-02  0.1090251E+00
         21   -1    0    0  502  501  0.00000000000E+00  0.00000000000E+00  0.14398360952E+03  0.14398360952E+03  0.00000000000E+00 0. -1.
         21   -1    0    0  503  502 -0.00000000000E+00 -0.00000000000E+00 -0.54809129329E+03  0.54809129329E+03  0.00000000000E+00 0.  1.
         25    1    1    2    0    0 -0.19706762572E+03  0.17247639340E+03 -0.14789205694E+03  0.32570050030E+03  0.12500000000E+03 0.  0.
         21    1    1    2  503  501  0.19706762572E+03 -0.17247639340E+03 -0.25621562683E+03  0.36637440251E+03  0.00000000000E+00 0.  1.
<mgrwt>
<rscale>  3 0.29018745E+03</rscale>
<asrwt>0</asrwt>
<pdfrwt beam="1">  1       21 0.22151325E-01 0.29018745E+03</pdfrwt>
<pdfrwt beam="2">  1       21 0.84321735E-01 0.29018745E+03</pdfrwt>
<totfact> 0.22145457E+04</totfact>
</mgrwt>
</event>
<event>
 4    0  0.1602150E-001  0.3001692E+03  0.7546771E-02  0.1085156E+00
         21   -1    0    0  502  501  0.00000000000E+00  0.00000000000E+00  0.12708793049E+03  0.12708793049E+03  0.00000000000E+00 0. -1.
         21   -1    0    0  503  502 -0.00000000000E+00 -0.00000000000E+00 -0.75049693861E+03  0.75049693861E+03  0.00000000000E+00 0. -1.
         25    1    1    2    0    0 -0.15221831629E+03  0.22650851454E+03 -0.16092378808E+03  0.34058477438E+03  0.12500000000E+03 0.  0.
         21    1    1    2  503  501  0.15221831629E+03 -0.22650851454E+03 -0.46248522004E+03  0.53700009472E+03  0.00000000000E+00 0. -1.
<mgrwt>
<rscale>  3 0.30016916E+03</rscale>
<asrwt>0</asrwt>
<pdfrwt beam="1">  1       21 0.19551989E-01 0.30016916E+03</pdfrwt>
<pdfrwt beam="2">  1       21 0.11546107E+00 0.30016916E+03</pdfrwt>
<totfact> 0.13163617E+04</totfact>
</mgrwt>
</event>
<event>
 4    0  0.1404971E-001  0.4250921E+03  0.7546771E-02  0.1035422E+00
         21   -1    0    0  503  501  0.00000000000E+00  0.00000000000E+00  0.72004561406E+03  0.72004561406E+03  0.00000000000E+00 0. -1.
         21   -1    0    0  501  502 -0.00000000000E+00 -0.00000000000E+00 -0.27756068274E+03  0.27756068274E+03  0.00000000000E+00 0. -1.
         25    1    1    2    0    0  0.12367960993E+03 -0.38701637435E+03  0.40904668208E+03  0.58993432519E+03  0.12500000000E+03 0.  0.
         21    1    1    2  503  502 -0.12367960993E+03  0.38701637435E+03  0.33438249241E+02  0.40767197161E+03  0.00000000000E+00 0. -1.
<mgrwt>
<rscale>  3 0.42509213E+03</rscale>
<asrwt>0</asrwt>
<pdfrwt beam="1">  1       21 0.11077625E+00 0.42509213E+03</pdfrwt>
<pdfrwt beam="2">  1       21 0.42701644E-01 0.42509213E+03</pdfrwt>
<totfact> 0.29676573E+03</totfact>
</mgrwt>
</event>
<event>
 4    0  0.1465813E-001  0.2968105E+03  0.7546771E-02  0.1086846E+00
         21   -1    0    0  502  501  0.00000000000E+00  0.00000000000E+00  0.24770618138E+03  0.24770618138E+03  0.00000000000E+00 0.  1.
         21   -1    0    0  503  502 -0.00000000000E+00 -0.00000000000E+00 -0.48582456932E+03  0.48582456932E+03  0.00000000000E+00 0.  1.
         25    1    1    2    0    0 -0.23448464374E+03 -0.13224374594E+03  0.89014722859E+02  0.30987106573E+03  0.12500000000E+03 0.  0.
         21    1    1    2  503  501  0.23448464374E+03  0.13224374594E+03 -0.32713311080E+03  0.42365968497E+03  0.00000000000E+00 0.  1.
<mgrwt>
<rscale>  3 0.29681047E+03</rscale>
<asrwt>0</asrwt>
<pdfrwt beam="1">  1       21 0.38108644E-01 0.29681047E+03</pdfrwt>
<pdfrwt beam="2">  1       21 0.74742240E-01 0.29681047E+03</pdfrwt>
<totfact> 0.10027846E+04</totfact>
</mgrwt>
</event>
<event>
 4    0  0.1273826E-001  0.2970087E+03  0.7546771E-02  0.1086746E+00
         21   -1    0    0  503  501  0.00000000000E+00  0.00000000000E+00  0.10712034875E+04  0.10712034875E+04  0.00000000000E+00 0.  1.
         21   -1    0    0  501  502 -0.00000000000E+00 -0.00000000000E+00 -0.74943332509E+02  0.74943332509E+02  0.00000000000E+00 0.  1.
         25    1    1    2    0    0 -0.26467981721E+03  0.50336613102E+02  0.50569562156E+03  0.58646589152E+03  0.12500000000E+03 0.  0.
         21    1    1    2  503  502  0.26467981721E+03 -0.50336613102E+02  0.49056453346E+03  0.55968092851E+03  0.00000000000E+00 0.  1.
<mgrwt>
<rscale>  3 0.29700872E+03</rscale>
<asrwt>0</asrwt>
<pdfrwt beam="1">  1       21 0.16480053E+00 0.29700872E+03</pdfrwt>
<pdfrwt beam="2">  1       21 0.11529744E-01 0.29700872E+03</pdfrwt>
<totfact> 0.13741123E+04</totfact>
</mgrwt>
</event>
<event>
 4    0  0.1110589E-001  0.2572943E+03  0.7546771E-02  0.1108780E+00
         21   -1    0    0  502  501  0.00000000000E+00  0.00000000000E+00  0.79503968919E+03  0.79503968919E+03  0.00000000000E+00 0. -1.
         21   -1    0    0  503  502 -0.00000000000E+00 -0.00000000000E+00 -0.96629166800E+03  0.96629166800E+03  0.00000000000E+00 0. -1.
         25    1    1    2    0    0  0.14888738586E+03  0.16854640831E+03  0.76048869448E+03  0.80283460305E+03  0.12500000000E+03 0.  0.
         21    1    1    2  503  501 -0.14888738586E+03 -0.16854640831E+03 -0.93174067329E+03  0.95849675413E+03  0.00000000000E+00 0. -1.
<mgrwt>
<rscale>  3 0.25729428E+03</rscale>
<asrwt>0</asrwt>
<pdfrwt beam="1">  1       21 0.12231380E+00 0.25729428E+03</pdfrwt>
<pdfrwt beam="2">  1       21 0.14866026E+00 0.25729428E+03</pdfrwt>
<totfact> 0.14301734E+02</totfact>
</mgrwt>
</event>
<event>
 4    0  0.1257489E-001  0.2521474E+03  0.7546771E-02  0.1111955E+00
         21   -1    0    0  502  501  0.00000000000E+00  0.00000000000E+00  0.56947263647E+02  0.56947263647E+02  0.00000000000E+00 0. -1.
         21   -1    0    0  503  502 -0.00000000000E+00 -0.00000000000E+00 -0.12816741288E+04  0.12816741288E+04  0.00000000000E+00 0. -1.
         25    1    1    2    0    0 -0.20433749784E+03 -0.78736756501E+02 -0.31804835657E+03  0.40587319075E+03  0.12500000000E+03 0.  0.
         21    1    1    2  503  501  0.20433749784E+03  0.78736756501E+02 -0.90667850861E+03  0.93274820173E+03  0.00000000000E+00 0. -1.
<mgrwt>
<rscale>  3 0.25214736E+03</rscale>
<asrwt>0</asrwt>
<pdfrwt beam="1">  1       21 0.87611184E-02 0.25214736E+03</pdfrwt>
<pdfrwt beam="2">  1       21 0.19718061E+00 0.25214736E+03</pdfrwt>
<totfact> 0.13738506E+04</totfact>
</mgrwt>
</event>
<event>
 4    0  0.1150092E-001  0.2506728E+03  0.7546771E-02  0.1112880E+00
         21   -1    0    0  503  501  0.00000000000E+00  0.00000000000E+00  0.17292837656E+03  0.17292837656E+03  0.00000000000E+00 0.  1.
         21   -1    0    0  501  502 -0.00000000000E+00 -0.00000000000E+00 -0.68164264042E+03  0.68164264042E+03  0.00000000000E+00 0.  1.
         25    1    1    2    0    0  0.99001782401E+02 -0.19341797938E+03  0.49540743415E+02  0.25552133556E+03  0.12500000000E+03 0.  0.
         21    1    1    2  503  502 -0.99001782401E+02  0.19341797938E+03 -0.55825500728E+03  0.59904968143E+03  0.00000000000E+00 0.  1.
<mgrwt>
<rscale>  3 0.25067283E+03</rscale>
<asrwt>0</asrwt>
<pdfrwt beam="1">  1       21 0.26604366E-01 0.25067283E+03</pdfrwt>
<pdfrwt beam="2">  1       21 0.10486810E+00 0.25067283E+03</pdfrwt>
<totfact> 0.94908476E+03</totfact>
</mgrwt>
</event>
<event>
 4    0  0.1017265E-001  0.2445481E+03  0.7546771E-02  0.1116800E+00
         21   -1    0    0  502  501  0.00000000000E+00  0.00000000000E+00  0.50775175606E+03  0.50775175606E+03  0.00000000000E+00 0.  1.
         21   -1    0    0  503  502 -0.00000000000E+00 -0.00000000000E+00 -0.43062579791E+03  0.43062579791E+03  0.00000000000E+00 0.  1.
         25    1    1    2    0    0  0.20800492467E+03  0.30211710319E+02  0.44896335836E+03  0.51124543351E+03  0.12500000000E+03 0.  0.
         21    1    1    2  503  501 -0.20800492467E+03 -0.30211710319E+02 -0.37183740022E+03  0.42713212046E+03  0.00000000000E+00 0.  1.
<mgrwt>
<rscale>  3 0.24454815E+03</rscale>
<asrwt>0</asrwt>
<pdfrwt beam="1">  1       21 0.78115655E-01 0.24454815E+03</pdfrwt>
<pdfrwt beam="2">  1       21 0.66250123E-01 0.24454815E+03</pdfrwt>
<totfact> 0.29147434E+03</totfact>
</mgrwt>
</event>
<event>
 4    0  0.1003929E-001  0.2485108E+03  0.7546771E-02  0.1114250E+00
         21   -1    0    0  502  501  0.00000000000E+00  0.00000000000E+00  0.13676470276E+04  0.13676470276E+04  0.00000000000E+00 0. -1.
         21   -1    0    0  503  502 -0.00000000000E+00 -0.00000000000E+00 -0.37211436360E+03  0.37211436360E+03  0.00000000000E+00 0. -1.
         25    1    1    2    0    0  0.19666807713E+03  0.86338066232E+02  0.13241004366E+04  0.13472191954E+04  0.12500000000E+03 0.  0.
         21    1    1    2  503  501 -0.19666807713E+03 -0.86338066232E+02 -0.32856777264E+03  0.39254219577E+03  0.00000000000E+00 0. -1.
<mgrwt>
<rscale>  3 0.24851075E+03</rscale>
<asrwt>0</asrwt>
<pdfrwt beam="1">  1       21 0.21040723E+00 0.24851075E+03</pdfrwt>
<pdfrwt beam="2">  1       21 0.57248364E-01 0.24851075E+03</pdfrwt>
<totfact> 0.30990594E+02</totfact>
</mgrwt>
</event>
<event>
 4    0  0.1003929E-001  0.2655502E+03  0.7546771E-02  0.1103854E+00
         21   -1    0    0  503  501  0.00000000000E+00  0.00000000000E+00  0.47595359200E+03  0.47595359200E+03  0.00000000000E+00 0. -1.
         21   -1    0    0  501  502 -0.00000000000E+00 -0.00000000000E+00 -0.95549744201E+03  0.95549744201E+03  0.00000000000E+00 0. -1.
         25    1    1    2    0    0  0.22127553068E+03  0.77000175994E+02  0.42275081999E+03  0.49923455749E+03  0.12500000000E+03 0.  0.
         21    1    1    2  503  502 -0.22127553068E+03 -0.77000175994E+02 -0.90229467001E+03  0.93221647652E+03  0.00000000000E+00 0. -1.
<mgrwt>
<rscale>  3 0.26555016E+03</rscale>
<asrwt>0</asrwt>
<pdfrwt beam="1">  1       21 0.73223631E-01 0.26555016E+03</pdfrwt>
<pdfrwt beam="2">  1       21 0.14699960E+00 0.26555016E+03</pdfrwt>
<totfact> 0.49223858E+02</totfact>
</mgrwt>
</event>
<event>
 4    0  0.1379611E-001  0.2663123E+03  0.7546771E-02  0.1103409E+00
         21   -1    0    0  502  501  0.00000000000E+00  0.00000000000E+00  0.15673125505E+03  0.15673125505E+03  0.00000000000E+00 0.  1.
         21   -1    0    0  503  502 -0.00000000000E+00 -0.00000000000E+00 -0.40127815089E+03  0.40127815089E+03  0.00000000000E+00 0.  1.
         25    1    1    2    0    0 -0.20799460676E+03  0.10970627126E+03 -0.12422546281E+03  0.29386083101E+03  0.12500000000E+03 0.  0.
         21    1    1    2  503  501  0.20799460676E+03 -0.10970627126E+03 -0.12032143303E+03  0.26414857493E+03  0.00000000000E+00 0.  1.
<mgrwt>
<rscale>  3 0.26631226E+03</rscale>
<asrwt>0</asrwt>
<pdfrwt beam="1">  1       21 0.24112501E-01 0.26631226E+03</pdfrwt>
<pdfrwt beam="2">  1       21 0.61735100E-01 0.26631226E+03</pdfrwt>
<totfact> 0.38224530E+04</totfact>
</mgrwt>
</event>
<event>
 4    0  0.1003929E-001  0.3601673E+03  0.7546771E-02  0.1058518E+00
         21   -1    0    0  503  501  0.00000000000E+00  0.00000000000E+00  0.55827075076E+03  0.55827075076E+03  0.00000000000E+00 0.  1.
         21   -1    0    0  501  502 -0.00000000000E+00 -0.00000000000E+00 -0.10168092898E+04  0.10168092898E+04  0.00000000000E+00 0.  1.
         25    1    1    2    0    0  0.33103860317E+03  0.67148659739E+02  0.46704419914E+03  0.58978876154E+03  0.12500000000E+03 0.  0.
         21    1    1    2  503  502 -0.33103860317E+03 -0.67148659739E+02 -0.92558273821E+03  0.98529127905E+03  0.00000000000E+00 0.  1.
<mgrwt>
<rscale>  3 0.36016732E+03</rscale>
<asrwt>0</asrwt>
<pdfrwt beam="1">  1       21 0.85887807E-01 0.36016732E+03</pdfrwt>
<pdfrwt beam="2">  1       21 0.15643220E+00 0.36016732E+03</pdfrwt>
<totfact> 0.27000744E+02</totfact>
</mgrwt>
</event>
<event>
 4    0  0.1408776E-001  0.2636791E+03  0.7546771E-02  0.1104953E+00
         21   -1    0    0  502  501  0.00000000000E+00  0.00000000000E+00  0.54024027851E+03  0.54024027851E+03  0.00000000000E+00 0. -1.
         21   -1    0    0  503  502 -0.00000000000E+00 -0.00000000000E+00 -0.11378093143E+03  0.11378093143E+03  0.00000000000E+00 0. -1.
         25    1    1    2    0    0  0.39547745898E+02 -0.22877424699E+03  0.22445883787E+03  0.34627799553E+03  0.12500000000E+03 0.  0.
         21    1    1    2  503  501 -0.39547745898E+02  0.22877424699E+03  0.20200050922E+03  0.30774321441E+03  0.00000000000E+00 0. -1.
<mgrwt>
<rscale>  3 0.26367912E+03</rscale>
<asrwt>0</asrwt>
<pdfrwt beam="1">  1       21 0.83113888E-01 0.26367912E+03</pdfrwt>
<pdfrwt beam="2">  1       21 0.17504759E-01 0.26367912E+03</pdfrwt>
<totfact> 0.36038501E+04</totfact>
</mgrwt>
</event>
<event>
 4    0  0.1540223E-001  0.2819100E+03  0.7546771E-02  0.1094650E+00
         21   -1    0    0  503  501  0.00000000000E+00  0.00000000000E+00  0.27618012608E+03  0.27618012608E+03  0.00000000000E+00 0.  1.
         21   -1    0    0  501  502 -0.00000000000E+00 -0.00000000000E+00 -0.65924221872E+03  0.65924221872E+03  0.00000000000E+00 0. -1.
         25    1    1    2    0    0 -0.18152244506E+03  0.17577788474E+03  0.16871552909E+03  0.32853948405E+03  0.12500000000E+03 0.  0.
         21    1    1    2  503  502  0.18152244506E+03 -0.17577788474E+03 -0.55177762173E+03  0.60688286074E+03  0.00000000000E+00 0. -1.
<mgrwt>
<rscale>  3 0.28191003E+03</rscale>
<asrwt>0</asrwt>
<pdfrwt beam="1">  1       21 0.42489250E-01 0.28191003E+03</pdfrwt>
<pdfrwt beam="2">  1       21 0.10142188E+00 0.28191003E+03</pdfrwt>
<totfact> 0.39770363E+03</totfact>
</mgrwt>
</event>
<event>
 4    0  0.1430869E-001  0.2712480E+03  0.7546771E-02  0.1100567E+00
         21   -1    0    0  503  501  0.00000000000E+00  0.00000000000E+00  0.67414837659E+03  0.67414837659E+03  0.00000000000E+00 0. -1.
         21   -1    0    0  501  502 -0.00000000000E+00 -0.00000000000E+00 -0.11895242387E+03  0.11895242387E+03  0.00000000000E+00 0. -1.
         25    1    1    2    0    0  0.14382912025E+03 -0.19303801609E+03  0.46043342079E+03  0.53439164146E+03  0.12500000000E+03 0.  0.
         21    1    1    2  503  502 -0.14382912025E+03  0.19303801609E+03  0.94762531931E+02  0.25870915899E+03  0.00000000000E+00 0. -1.
<mgrwt>
<rscale>  3 0.27124803E+03</rscale>
<asrwt>0</asrwt>
<pdfrwt beam="1">  1       21 0.10371513E+00 0.27124803E+03</pdfrwt>
<pdfrwt beam="2">  1       21 0.18300373E-01 0.27124803E+03</pdfrwt>
<totfact> 0.19632528E+04</totfact>
</mgrwt>
</event>
<event>
 4    0  0.1295239E-001  0.2361039E+03  0.7546771E-02  0.1122416E+00
         21   -1    0    0  502  501  0.00000000000E+00  0.00000000000E+00  0.86765986090E+03  0.86765986090E+03  0.00000000000E+00 0. -1.
         21   -1    0    0  503  502 -0.00000000000E+00 -0.00000000000E+00 -0.13510086050E+03  0.13510086050E+03  0.00000000000E+00 0. -1.
         25    1    1    2    0    0 -0.14383986059E+03 -0.13939211310E+03  0.76432175939E+03  0.79995801050E+03  0.12500000000E+03 0.  0.
         21    1    1    2  503  501  0.14383986059E+03  0.13939211310E+03 -0.31762758996E+02  0.20280271090E+03  0.00000000000E+00 0. -1.
<mgrwt>
<rscale>  3 0.23610393E+03</rscale>
<asrwt>0</asrwt>
<pdfrwt beam="1">  1       21 0.13348613E+00 0.23610393E+03</pdfrwt>
<pdfrwt beam="2">  1       21 0.20784748E-01 0.23610393E+03</pdfrwt>
<totfact> 0.84206632E+03</totfact>
</mgrwt>
</event>
<event>
 4    0  0.1003929E-001  0.2477731E+03  0.7546771E-02  0.1114720E+00
         21   -1    0    0  503  501  0.00000000000E+00  0.00000000000E+00  0.10507276154E+03  0.10507276154E+03  0.00000000000E+00 0.  1.
         21   -1    0    0  501  502 -0.00000000000E+00 -0.00000000000E+00 -0.59196119247E+03  0.59196119247E+03  0.00000000000E+00 0. -1.
         25    1    1    2    0    0  0.19029663144E+02 -0.21308309430E+03 -0.12715652108E+03  0.27849652423E+03  0.12500000000E+03 0.  0.
         21    1    1    2  503  502 -0.19029663144E+02  0.21308309430E+03 -0.35973190985E+03  0.41853742977E+03  0.00000000000E+00 0. -1.
<mgrwt>
<rscale>  3 0.24777315E+03</rscale>
<asrwt>0</asrwt>
<pdfrwt beam="1">  1       21 0.16165040E-01 0.24777315E+03</pdfrwt>
<pdfrwt beam="2">  1       21 0.91070952E-01 0.24777315E+03</pdfrwt>
<totfact> 0.34018779E+04</totfact>
</mgrwt>
</event>
<event>
 4    0  0.1153826E-001  0.2468922E+03  0.7546771E-02  0.1115285E+00
         21   -1    0    0  502  501  0.00000000000E+00  0.00000000000E+00  0.12474147616E+04  0.12474147616E+04  0.00000000000E+00 0.  1.
         21   -1    0    0  503  502 -0.00000000000E+00 -0.00000000000E+00 -0.48885098666E+02  0.48885098666E+02  0.00000000000E+00 0.  1.
         25    1    1    2    0    0  0.16470683906E+03  0.13491629406E+03  0.87368656019E+03  0.90790085069E+03  0.12500000000E+03 0.  0.
         21    1    1    2  503  501 -0.16470683906E+03 -0.13491629406E+03  0.32484310277E+03  0.38839900960E+03  0.00000000000E+00 0.  1.
<mgrwt>
<rscale>  3 0.24689218E+03</rscale>
<asrwt>0</asrwt>
<pdfrwt beam="1">  1       21 0.19190994E+00 0.24689218E+03</pdfrwt>
<pdfrwt beam="2">  1       21 0.75207853E-02 0.24689218E+03</pdfrwt>
<totfact> 0.19511406E+04</totfact>
</mgrwt>
</event>
<event>
 4    0  0.1183959E-001  0.2404247E+03  0.7546771E-02  0.1119510E+00
         21   -1    0    0  503  501  0.00000000000E+00  0.00000000000E+00  0.16392329044E+04  0.16392329044E+04  0.00000000000E+00 0. -1.
         21   -1    0    0  501  502 -0.00000000000E+00 -0.00000000000E+00 -0.20074532748E+03  0.20074532748E+03  0.00000000000E+00 0. -1.
         25    1    1    2    0    0 -0.17294915108E+03  0.11075922554E+03  0.15750824433E+04  0.15933263062E+04  0.12500000000E+03 0.  0.
         21    1    1    2  503  502  0.17294915108E+03 -0.11075922554E+03 -0.13659486639E+03  0.24665192565E+03  0.00000000000E+00 0. -1.
<mgrwt>
<rscale>  3 0.24042466E+03</rscale>
<asrwt>0</asrwt>
<pdfrwt beam="1">  1       21 0.25218967E+00 0.24042466E+03</pdfrwt>
<pdfrwt beam="2">  1       21 0.30883898E-01 0.24042466E+03</pdfrwt>
<totfact> 0.61448521E+02</totfact>
</mgrwt>
</event>
<event>
 4    0  0.1331921E-001  0.2416661E+03  0.7546771E-02  0.1118688E+00
         21   -1    0    0  503  501  0.00000000000E+00  0.00000000000E+00  0.85732877175E+02  0.85732877175E+02  0.00000000000E+00 0.  1.
         21   -1    0    0  501  502 -0.00000000000E+00 -0.00000000000E+00 -0.71831981212E+03  0.71831981212E+03  0.00000000000E+00 0.  1.
         25    1    1    2    0    0  0.16553934987E+03  0.12399282981E+03 -0.16459199060E+03  0.29239189723E+03  0.12500000000E+03 0.  0.
         21    1    1    2  503  502 -0.16553934987E+03 -0.12399282981E+03 -0.46799494435E+03  0.51166079206E+03  0.00000000000E+00 0.  1.
<mgrwt>
<rscale>  3 0.24166609E+03</rscale>
<asrwt>0</asrwt>
<pdfrwt beam="1">  1       21 0.13189673E-01 0.24166609E+03</pdfrwt>
<pdfrwt beam="2">  1       21 0.11051074E+00 0.24166609E+03</pdfrwt>
<totfact> 0.31154654E+04</totfact>
</mgrwt>
</event>
<event>
 4    0  0.1452722E-001  0.2764190E+03  0.7546771E-02  0.1097661E+00
         21   -1    0    0  503  501  0.00000000000E+00  0.00000000000E+00  0.15033712739E+03  0.15033712739E+03  0.00000000000E+00 0.  1.
         21   -1    0    0  501  502 -0.00000000000E+00 -0.00000000000E+00 -0.46972674966E+03  0.46972674966E+03  0.00000000000E+00 0.  1.
         25    1    1    2    0    0  0.50698151120E+02 -0.24127195682E+03 -0.11332985046E+03  0.29874925051E+03  0.12500000000E+03 0.  0.
         21    1    1    2  503  502 -0.50698151120E+02  0.24127195682E+03 -0.20605977181E+03  0.32131462654E+03  0.00000000000E+00 0.  1.
<mgrwt>
<rscale>  3 0.27641899E+03</rscale>
<asrwt>0</asrwt>
<pdfrwt beam="1">  1       21 0.23128789E-01 0.27641899E+03</pdfrwt>
<pdfrwt beam="2">  1       21 0.72265652E-01 0.27641899E+03</pdfrwt>
<totfact> 0.29125686E+04</totfact>
</mgrwt>
</event>
<event>
 4    0  0.1298420E-001  0.2382863E+03  0.7546771E-02  0.1120940E+00
         21   -1    0    0  502  501  0.00000000000E+00  0.00000000000E+00  0.79330161941E+02  0.79330161941E+02  0.00000000000E+00 0.  1.
         21   -1    0    0  503  502 -0.00000000000E+00 -0.00000000000E+00 -0.10868170164E+04  0.10868170164E+04  0.00000000000E+00 0. -1.
         25    1    1    2    0    0 -0.18520414087E+03  0.82793641091E+02 -0.14240353045E+03  0.27759525624E+03  0.12500000000E+03 0.  0.
         21    1    1    2  503  501  0.18520414087E+03 -0.82793641091E+02 -0.86508332396E+03  0.88855192206E+03  0.00000000000E+00 0. -1.
<mgrwt>
<rscale>  3 0.23828630E+03</rscale>
<asrwt>0</asrwt>
<pdfrwt beam="1">  1       21 0.12204642E-01 0.23828630E+03</pdfrwt>
<pdfrwt beam="2">  1       21 0.16720260E+00 0.23828630E+03</pdfrwt>
<totfact> 0.12312402E+04</totfact>
</mgrwt>
</event>
<event>
 4    0  0.1003929E-001  0.2642956E+03  0.7546771E-02  0.1104589E+00
         21   -1    0    0  503  501  0.00000000000E+00  0.00000000000E+00  0.17642973287E+04  0.17642973287E+04  0.00000000000E+00 0. -1.
         21   -1    0    0  501  502 -0.00000000000E+00 -0.00000000000E+00 -0.10902573826E+03  0.10902573826E+03  0.00000000000E+00 0. -1.
         25    1    1    2    0    0 -0.22356872956E+03 -0.65147558107E+02  0.16156309873E+04  0.16371058818E+04  0.12500000000E+03 0.  0.
         21    1    1    2  503  502  0.22356872956E+03  0.65147558107E+02  0.39640603207E+02  0.23621718521E+03  0.00000000000E+00 0. -1.
<mgrwt>
<rscale>  3 0.26429563E+03</rscale>
<asrwt>0</asrwt>
<pdfrwt beam="1">  1       21 0.27143034E+00 0.26429563E+03</pdfrwt>
<pdfrwt beam="2">  1       21 0.16773192E-01 0.26429563E+03</pdfrwt>
<totfact> 0.14785359E+03</totfact>
</mgrwt>
</event>
<event>
 4    0  0.1597480E-001  0.2573409E+03  0.7546771E-02  0.1108751E+00
         21   -1    0    0  503  501  0.00000000000E+00  0.00000000000E+00  0.37767052609E+03  0.37767052609E+03  0.00000000000E+00 0. -1.
         21   -1    0    0  501  502 -0.00000000000E+00 -0.00000000000E+00 -0.15909826017E+03  0.15909826017E+03  0.00000000000E+00 0. -1.
         25    1    1    2    0    0  0.18339200282E+03  0.13025629007E+03  0.16447658753E+03  0.30541263177E+03  0.12500000000E+03 0.  0.
         21    1    1    2  503  502 -0.18339200282E+03 -0.13025629007E+03  0.54095678385E+02  0.23135615449E+03  0.00000000000E+00 0. -1.
<mgrwt>
<rscale>  3 0.25734088E+03</rscale>
<asrwt>0</asrwt>
<pdfrwt beam="1">  1       21 0.58103157E-01 0.25734088E+03</pdfrwt>
<pdfrwt beam="2">  1       21 0.24476656E-01 0.25734088E+03</pdfrwt>
<totfact> 0.42498855E+04</totfact>
</mgrwt>
</event>
<event>
 4    0  0.1179408E-001  0.2451412E+03  0.7546771E-02  0.1116415E+00
         21   -1    0    0  502  501  0.00000000000E+00  0.00000000000E+00  0.14821896537E+03  0.14821896537E+03  0.00000000000E+00 0.  1.
         21   -1    0    0  503  502 -0.00000000000E+00 -0.00000000000E+00 -0.37390389894E+03  0.37390389894E+03  0.00000000000E+00 0.  1.
         25    1    1    2    0    0  0.40188381842E+02 -0.20701233907E+03 -0.18558435981E+03  0.30746669603E+03  0.12500000000E+03 0.  0.
         21    1    1    2  503  501 -0.40188381842E+02  0.20701233907E+03 -0.40100573768E+02  0.21465616828E+03  0.00000000000E+00 0.  1.
<mgrwt>
<rscale>  3 0.24514121E+03</rscale>
<asrwt>0</asrwt>
<pdfrwt beam="1">  1       21 0.22802918E-01 0.24514121E+03</pdfrwt>
<pdfrwt beam="2">  1       21 0.57523676E-01 0.24514121E+03</pdfrwt>
<totfact> 0.49958946E+04</totfact>
</mgrwt>
</event>
<event>
 4    0  0.1221283E-001  0.2761760E+03  0.7546771E-02  0.1097796E+00
         21   -1    0    0  502  501  0.00000000000E+00  0.00000000000E+00  0.71987845083E+03  0.71987845083E+03  0.00000000000E+00 0. -1.
         21   -1    0    0  503  502 -0.00000000000E+00 -0.00000000000E+00 -0.15607115233E+03  0.15607115233E+03  0.00000000000E+00 0. -1.
         25    1    1    2    0    0 -0.13754611331E+03  0.20427743177E+03  0.56587462340E+03  0.62967236863E+03  0.12500000000E+03 0.  0.
         21    1    1    2  503  501  0.13754611331E+03 -0.20427743177E+03 -0.20673248946E+01  0.24627723453E+03  0.00000000000E+00 0. -1.
<mgrwt>
<rscale>  3 0.27617604E+03</rscale>
<asrwt>0</asrwt>
<pdfrwt beam="1">  1       21 0.11075053E+00 0.27617604E+03</pdfrwt>
<pdfrwt beam="2">  1       21 0.24010947E-01 0.27617604E+03</pdfrwt>
<totfact> 0.99855296E+03</totfact>
</mgrwt>
</event>
<event>
 4    0  0.1003929E-001  0.2885273E+03  0.7546771E-02  0.1091121E+00
         21   -1    0    0  502  501  0.00000000000E+00  0.00000000000E+00  0.38552469472E+04  0.38552469472E+04  0.00000000000E+00 0. -1.
         21   -1    0    0  503  502 -0.00000000000E+00 -0.00000000000E+00 -0.34964508979E+03  0.34964508979E+03  0.00000000000E+00 0.  1.
         25    1    1    2    0    0 -0.22196484259E+03  0.13547922391E+03  0.38006595740E+04  0.38115956251E+04  0.12500000000E+03 0.  0.
         21    1    1    2  503  501  0.22196484259E+03 -0.13547922391E+03 -0.29505771664E+03  0.39329641189E+03  0.00000000000E+00 0.  1.
<mgrwt>
<rscale>  3 0.28852731E+03</rscale>
<asrwt>0</asrwt>
<pdfrwt beam="1">  1       21 0.59311489E+00 0.28852731E+03</pdfrwt>
<pdfrwt beam="2">  1       21 0.53791555E-01 0.28852731E+03</pdfrwt>
<totfact> 0.10576266E+00</totfact>
</mgrwt>
</event>
<event>
 4    0  0.1128712E-001  0.2785923E+03  0.7546771E-02  0.1096460E+00
         21   -1    0    0  502  501  0.00000000000E+00  0.00000000000E+00  0.80948284989E+02  0.80948284989E+02  0.00000000000E+00 0. -1.
         21   -1    0    0  503  502 -0.00000000000E+00 -0.00000000000E+00 -0.12989733018E+04  0.12989733018E+04  0.00000000000E+00 0.  1.
         25    1    1    2    0    0 -0.17229784324E+02  0.24837839687E+03 -0.23077451121E+03  0.36176037445E+03  0.12500000000E+03 0.  0.
         21    1    1    2  503  501  0.17229784324E+02 -0.24837839687E+03 -0.98725050556E+03  0.10181612123E+04  0.00000000000E+00 0.  1.
<mgrwt>
<rscale>  3 0.27859234E+03</rscale>
<asrwt>0</asrwt>
<pdfrwt beam="1">  1       21 0.12453582E-01 0.27859234E+03</pdfrwt>
<pdfrwt beam="2">  1       21 0.19984205E+00 0.27859234E+03</pdfrwt>
<totfact> 0.69291568E+03</totfact>
</mgrwt>
</event>
<event>
 4    0  0.1333393E-001  0.3375384E+03  0.7546771E-02  0.1067849E+00
         21   -1    0    0  502  501  0.00000000000E+00  0.00000000000E+00  0.54643003047E+03  0.54643003047E+03  0.00000000000E+00 0.  1.
         21   -1    0    0  503  502 -0.00000000000E+00 -0.00000000000E+00 -0.20553358983E+03  0.20553358983E+03  0.00000000000E+00 0.  1.
         25    1    1    2    0    0  0.30218026023E+03  0.83631757591E+02  0.26560837913E+03  0.42951134049E+03  0.12500000000E+03 0.  0.
         21    1    1    2  503  501 -0.30218026023E+03 -0.83631757591E+02  0.75288061514E+02  0.32245227981E+03  0.00000000000E+00 0.  1.
<mgrwt>
<rscale>  3 0.33753841E+03</rscale>
<asrwt>0</asrwt>
<pdfrwt beam="1">  1       21 0.84066158E-01 0.33753841E+03</pdfrwt>
<pdfrwt beam="2">  1       21 0.31620553E-01 0.33753841E+03</pdfrwt>
<totfact> 0.10953374E+04</totfact>
</mgrwt>
</event>
<event>
 4    0  0.1003929E-001  0.3578080E+03  0.7546771E-02  0.1059455E+00
         21   -1    0    0  503  501  0.00000000000E+00  0.00000000000E+00  0.21752723877E+04  0.21752723877E+04  0.00000000000E+00 0. -1.
         21   -1    0    0  501  502 -0.00000000000E+00 -0.00000000000E+00 -0.55259536043E+02  0.55259536043E+02  0.00000000000E+00 0. -1.
         25    1    1    2    0    0 -0.17215877616E+03  0.28768544384E+03  0.11293106906E+04  0.11846388456E+04  0.12500000000E+03 0.  0.
         21    1    1    2  503  502  0.17215877616E+03 -0.28768544384E+03  0.99070216112E+03  0.10458930781E+04  0.00000000000E+00 0. -1.
<mgrwt>
<rscale>  3 0.35780799E+03</rscale>
<asrwt>0</asrwt>
<pdfrwt beam="1">  1       21 0.33465722E+00 0.35780799E+03</pdfrwt>
<pdfrwt beam="2">  1       21 0.85014688E-02 0.35780799E+03</pdfrwt>
<totfact> 0.19834532E+03</totfact>
</mgrwt>
</event>
<event>
 4    0  0.1003929E-001  0.2404123E+03  0.7546771E-02  0.1119518E+00
         21   -1    0    0  502  501  0.00000000000E+00  0.00000000000E+00  0.55769652194E+02  0.55769652194E+02  0.00000000000E+00 0.  1.
         21   -1    0    0  503  502 -0.00000000000E+00 -0.00000000000E+00 -0.19315884538E+04  0.19315884538E+04  0.00000000000E+00 0.  1.
         25    1    1    2    0    0  0.95822813891E+02 -0.18163438681E+03 -0.24354541677E+03  0.34221693728E+03  0.12500000000E+03 0.  0.
         21    1    1    2  503  501 -0.95822813891E+02  0.18163438681E+03 -0.16322733848E+04  0.16451411687E+04  0.00000000000E+00 0.  1.
<mgrwt>
<rscale>  3 0.24041228E+03</rscale>
<asrwt>0</asrwt>
<pdfrwt beam="1">  1       21 0.85799477E-02 0.24041228E+03</pdfrwt>
<pdfrwt beam="2">  1       21 0.29716741E+00 0.24041228E+03</pdfrwt>
<totfact> 0.35755921E+03</totfact>
</mgrwt>
</event>
<event>
 4    0  0.1401114E-001  0.2630162E+03  0.7546771E-02  0.1105344E+00
         21   -1    0    0  503  501  0.00000000000E+00  0.00000000000E+00  0.47757093488E+03  0.47757093488E+03  0.00000000000E+00 0.  1.
         21   -1    0    0  501  502 -0.00000000000E+00 -0.00000000000E+00 -0.15582949253E+03  0.15582949253E+03  0.00000000000E+00 0.  1.
         25    1    1    2    0    0  0.32318115400E+02  0.22914638281E+03  0.30299602301E+03  0.40122825835E+03  0.12500000000E+03 0.  0.
         21    1    1    2  503  502 -0.32318115400E+02 -0.22914638281E+03  0.18745419344E+02  0.23217216906E+03  0.00000000000E+00 0.  1.
<mgrwt>
<rscale>  3 0.26301621E+03</rscale>
<asrwt>0</asrwt>
<pdfrwt beam="1">  1       21 0.73472451E-01 0.26301621E+03</pdfrwt>
<pdfrwt beam="2">  1       21 0.23973768E-01 0.26301621E+03</pdfrwt>
<totfact> 0.26352066E+04</totfact>
</mgrwt>
</event>
<event>
 4    0  0.1065573E-001  0.3147573E+03  0.7546771E-02  0.1078088E+00
         21   -1    0    0  503  501  0.00000000000E+00  0.00000000000E+00  0.33568780365E+03  0.33568780365E+03  0.00000000000E+00 0.  1.
         21   -1    0    0  501  502 -0.00000000000E+00 -0.00000000000E+00 -0.35707147251E+03  0.35707147251E+03  0.00000000000E+00 0. -1.
         25    1    1    2    0    0 -0.14630476951E+03  0.24908245107E+03  0.15854625034E+03  0.35243306671E+03  0.12500000000E+03 0.  0.
         21    1    1    2  503  502  0.14630476951E+03 -0.24908245107E+03 -0.17992991921E+03  0.34032620945E+03  0.00000000000E+00 0. -1.
<mgrwt>
<rscale>  3 0.31475729E+03</rscale>
<asrwt>0</asrwt>
<pdfrwt beam="1">  1       21 0.51644278E-01 0.31475729E+03</pdfrwt>
<pdfrwt beam="2">  1       21 0.54934073E-01 0.31475729E+03</pdfrwt>
<totfact> 0.10422649E+04</totfact>
</mgrwt>
</event>
<event>
 4    0  0.1873760E-001  0.2612965E+03  0.7546771E-02  0.1106367E+00
         21   -1    0    0  503  501  0.00000000000E+00  0.00000000000E+00  0.33441299672E+03  0.33441299672E+03  0.00000000000E+00 0.  1.
         21   -1    0    0  501  502 -0.00000000000E+00 -0.00000000000E+00 -0.52521822821E+03  0.52521822821E+03  0.00000000000E+00 0. -1.
         25    1    1    2    0    0 -0.22424244596E+03  0.48643197669E+02  0.25066564047E+03  0.36208990398E+03  0.12500000000E+03 0.  0.
         21    1    1    2  503  502  0.22424244596E+03 -0.48643197669E+02 -0.44147087197E+03  0.49754132094E+03  0.00000000000E+00 0. -1.
<mgrwt>
<rscale>  3 0.26129645E+03</rscale>
<asrwt>0</asrwt>
<pdfrwt beam="1">  1       21 0.51448153E-01 0.26129645E+03</pdfrwt>
<pdfrwt beam="2">  1       21 0.80802804E-01 0.26129645E+03</pdfrwt>
<totfact> 0.46015427E+03</totfact>
</mgrwt>
</event>
<event>
 4    0  0.1296757E-001  0.2561389E+03  0.7546771E-02  0.1109485E+00
         21   -1    0    0  502  501  0.00000000000E+00  0.00000000000E+00  0.19572433346E+03  0.19572433346E+03  0.00000000000E+00 0.  1.
         21   -1    0    0  503  502 -0.00000000000E+00 -0.00000000000E+00 -0.48457627234E+03  0.48457627234E+03  0.00000000000E+00 0.  1.
         25    1    1    2    0    0  0.18126092921E+03 -0.13086866272E+03  0.62682258931E+02  0.26369716898E+03  0.12500000000E+03 0.  0.
         21    1    1    2  503  501 -0.18126092921E+03  0.13086866272E+03 -0.35153419781E+03  0.41660343682E+03  0.00000000000E+00 0.  1.
<mgrwt>
<rscale>  3 0.25613889E+03</rscale>
<asrwt>0</asrwt>
<pdfrwt beam="1">  1       21 0.30111436E-01 0.25613889E+03</pdfrwt>
<pdfrwt beam="2">  1       21 0.74550196E-01 0.25613889E+03</pdfrwt>
<totfact> 0.16448185E+04</totfact>
</mgrwt>
</event>
<event>
 4    0  0.1003929E-001  0.4093155E+03  0.7546771E-02  0.1040601E+00
         21   -1    0    0  503  501  0.00000000000E+00  0.00000000000E+00  0.10942207193E+04  0.10942207193E+04  0.00000000000E+00 0. -1.
         21   -1    0    0  501  502 -0.00000000000E+00 -0.00000000000E+00 -0.15308593797E+03  0.15308593797E+03  0.00000000000E+00 0.  1.
         25    1    1    2    0    0  0.38966657920E+03 -0.86088526153E+01  0.61675661962E+03  0.74022150951E+03  0.12500000000E+03 0.  0.
         21    1    1    2  503  502 -0.38966657920E+03  0.86088526153E+01  0.32437816172E+03  0.50708514777E+03  0.00000000000E+00 0.  1.
<mgrwt>
<rscale>  3 0.40931547E+03</rscale>
<asrwt>0</asrwt>
<pdfrwt beam="1">  1       21 0.16834164E+00 0.40931547E+03</pdfrwt>
<pdfrwt beam="2">  1       21 0.23551684E-01 0.40931547E+03</pdfrwt>
<totfact> 0.32526401E+03</totfact>
</mgrwt>
</event>
<event>
 4    0  0.1395823E-001  0.3371078E+03  0.7546771E-02  0.1068034E+00
         21   -1    0    0  502  501  0.00000000000E+00  0.00000000000E+00  0.18338126915E+03  0.18338126915E+03  0.00000000000E+00 0. -1.
         21   -1    0    0  503  502 -0.00000000000E+00 -0.00000000000E+00 -0.70706405262E+03  0.70706405262E+03  0.00000000000E+00 0. -1.
         25    1    1    2    0    0  0.19865100135E+03 -0.24198019717E+03 -0.78378665876E+02  0.34609948198E+03  0.12500000000E+03 0.  0.
         21    1    1    2  503  501 -0.19865100135E+03  0.24198019717E+03 -0.44530411759E+03  0.54434583979E+03  0.00000000000E+00 0. -1.
<mgrwt>
<rscale>  3 0.33710775E+03</rscale>
<asrwt>0</asrwt>
<pdfrwt beam="1">  1       21 0.28212503E-01 0.33710775E+03</pdfrwt>
<pdfrwt beam="2">  1       21 0.10877908E+00 0.33710775E+03</pdfrwt>
<totfact> 0.74186199E+03</totfact>
</mgrwt>
</event>
<event>
 4    0  0.1200948E-001  0.3235701E+03  0.7546771E-02  0.1074018E+00
         21   -1    0    0  503  501  0.00000000000E+00  0.00000000000E+00  0.11409818755E+04  0.11409818755E+04  0.00000000000E+00 0. -1.
         21   -1    0    0  501  502 -0.00000000000E+00 -0.00000000000E+00 -0.13541991968E+03  0.13541991968E+03  0.00000000000E+00 0. -1.
         25    1    1    2    0    0 -0.18590759685E+03  0.23347578793E+03  0.90557763504E+03  0.96164880866E+03  0.12500000000E+03 0.  0.
         21    1    1    2  503  502  0.18590759685E+03 -0.23347578793E+03  0.99984320748E+02  0.31475298650E+03  0.00000000000E+00 0. -1.
<mgrwt>
<rscale>  3 0.32357005E+03</rscale>
<asrwt>0</asrwt>
<pdfrwt beam="1">  1       21 0.17553567E+00 0.32357005E+03</pdfrwt>
<pdfrwt beam="2">  1       21 0.20833835E-01 0.32357005E+03</pdfrwt>
<totfact> 0.38062647E+03</totfact>
</mgrwt>
</event>
<event>
 4    0  0.1003929E-001  0.2362411E+03  0.7546771E-02  0.1122323E+00
         21   -1    0    0  503  501  0.00000000000E+00  0.00000000000E+00  0.62159070060E+03  0.62159070060E+03  0.00000000000E+00 0.  1.
         21   -1    0    0  501  502 -0.00000000000E+00 -0.00000000000E+00 -0.78073899654E+02  0.78073899654E+02  0.00000000000E+00 0. -1.
         25    1    1    2    0    0  0.20037710423E+03  0.58184119437E+01  0.33985156108E+03  0.41389481923E+03  0.12500000000E+03 0.  0.
         21    1    1    2  503  502 -0.20037710423E+03 -0.58184119437E+01  0.20366523986E+03  0.28576978102E+03  0.00000000000E+00 0. -1.
<mgrwt>
<rscale>  3 0.23624106E+03</rscale>
<asrwt>0</asrwt>
<pdfrwt beam="1">  1       21 0.95629335E-01 0.23624106E+03</pdfrwt>
<pdfrwt beam="2">  1       21 0.12011370E-01 0.23624106E+03</pdfrwt>
<totfact> 0.52342207E+04</totfact>
</mgrwt>
</event>
<event>
 4    0  0.1003929E-001  0.5841339E+03  0.7546771E-02  0.9938881E-01
         21   -1    0    0  502  501  0.00000000000E+00  0.00000000000E+00  0.20808607167E+03  0.20808607167E+03  0.00000000000E+00 0.  1.
         21   -1    0    0  503  502 -0.00000000000E+00 -0.00000000000E+00 -0.20699614796E+04  0.20699614796E+04  0.00000000000E+00 0.  1.
         25    1    1    2    0    0  0.44794431178E+03  0.35345901175E+03 -0.39783704096E+03  0.70674372343E+03  0.12500000000E+03 0.  0.
         21    1    1    2  503  501 -0.44794431178E+03 -0.35345901175E+03 -0.14640383670E+04  0.15713038279E+04  0.00000000000E+00 0.  1.
<mgrwt>
<rscale>  3 0.58413387E+03</rscale>
<asrwt>0</asrwt>
<pdfrwt beam="1">  1       21 0.32013240E-01 0.58413387E+03</pdfrwt>
<pdfrwt beam="2">  1       21 0.31845563E+00 0.58413387E+03</pdfrwt>
<totfact> 0.18145564E+02</totfact>
</mgrwt>
</event>
<event>
 4    0  0.1003929E-001  0.2431622E+03  0.7546771E-02  0.1117704E+00
         21   -1    0    0  502  501  0.00000000000E+00  0.00000000000E+00  0.14962833852E+03  0.14962833852E+03  0.00000000000E+00 0. -1.
         21   -1    0    0  503  502 -0.00000000000E+00 -0.00000000000E+00 -0.54956684152E+03  0.54956684152E+03  0.00000000000E+00 0. -1.
         25    1    1    2    0    0  0.32431268660E+02 -0.20603655584E+03 -0.42446841805E+03  0.48918430826E+03  0.12500000000E+03 0.  0.
         21    1    1    2  503  501 -0.32431268660E+02  0.20603655584E+03  0.24529915047E+02  0.21001087177E+03  0.00000000000E+00 0. -1.
<mgrwt>
<rscale>  3 0.24316219E+03</rscale>
<asrwt>0</asrwt>
<pdfrwt beam="1">  1       21 0.23019745E-01 0.24316219E+03</pdfrwt>
<pdfrwt beam="2">  1       21 0.84548743E-01 0.24316219E+03</pdfrwt>
<totfact> 0.20894894E+04</totfact>
</mgrwt>
</event>
<event>
 4    0  0.1191099E-001  0.2393381E+03  0.7546771E-02  0.1120235E+00
         21   -1    0    0  503  501  0.00000000000E+00  0.00000000000E+00  0.25096471745E+03  0.25096471745E+03  0.00000000000E+00 0. -1.
         21   -1    0    0  501  502 -0.00000000000E+00 -0.00000000000E+00 -0.75212792232E+03  0.75212792232E+03  0.00000000000E+00 0. -1.
         25    1    1    2    0    0 -0.71568254044E+02 -0.19114316040E+03  0.17519641936E+03  0.29660834127E+03  0.12500000000E+03 0.  0.
         21    1    1    2  503  502  0.71568254044E+02  0.19114316040E+03 -0.67635962422E+03  0.70648429850E+03  0.00000000000E+00 0. -1.
<mgrwt>
<rscale>  3 0.23933809E+03</rscale>
<asrwt>0</asrwt>
<pdfrwt beam="1">  1       21 0.38609957E-01 0.23933809E+03</pdfrwt>
<pdfrwt beam="2">  1       21 0.11571199E+00 0.23933809E+03</pdfrwt>
<totfact> 0.36021218E+03</totfact>
</mgrwt>
</event>
<event>
 4    0  0.1481357E-001  0.2587102E+03  0.7546771E-02  0.1107921E+00
         21   -1    0    0  503  501  0.00000000000E+00  0.00000000000E+00  0.44162863436E+03  0.44162863436E+03  0.00000000000E+00 0. -1.
         21   -1    0    0  501  502 -0.00000000000E+00 -0.00000000000E+00 -0.14030731309E+03  0.14030731309E+03  0.00000000000E+00 0. -1.
         25    1    1    2    0    0  0.20022980141E+03  0.10589617578E+03  0.22515069402E+03  0.34296327563E+03  0.12500000000E+03 0.  0.
         21    1    1    2  503  502 -0.20022980141E+03 -0.10589617578E+03  0.76170627261E+02  0.23897267182E+03  0.00000000000E+00 0. -1.
<mgrwt>
<rscale>  3 0.25871021E+03</rscale>
<asrwt>0</asrwt>
<pdfrwt beam="1">  1       21 0.67942866E-01 0.25871021E+03</pdfrwt>
<pdfrwt beam="2">  1       21 0.21585741E-01 0.25871021E+03</pdfrwt>
<totfact> 0.38374548E+04</totfact>
</mgrwt>
</event>
