<event>
 5    0  0.1856407E+000  0.2473631E+03  0.7546771E-02  0.1114983E+00
         21   -1    0    0  502  501  0.00000000000E+00  0.00000000000E+00  0.11119953024E+03  0.11119953024E+03  0.00000000000E+00 0. -1.
         21   -1    0    0  503  502 -0.00000000000E+00 -0.00000000000E+00 -0.73207858249E+03  0.73207858249E+03  0.00000000000E+00 0. -1.
         25    1    1    2    0    0  0.19444868887E+03 -0.64840002869E+02 -0.11843144608E+03  0.26770417627E+03  0.12500000000E+03 0.  0.
         21    1    1    2  503  504 -0.22309297408E+03  0.57421999762E+02 -0.34153520949E+03  0.41196366401E+03  0.00000000000E+00 0. -1.
         21    1    1    2  504  501  0.28644285218E+02  0.74180031070E+01 -0.16091239668E+03  0.16361027245E+03  0.00000000000E+00 0. -1.
<mgrwt>
<rscale>  4 0.24736307E+03</rscale>
<asrwt>0</asrwt>
<pdfrwt beam="1">  1       21 0.17107620E-01 0.24736307E+03</pdfrwt>
<pdfrwt beam="2">  1       21 0.11262748E+00 0.24736307E+03</pdfrwt>
<totfact> 0.18419993E+04</totfact>
</mgrwt>
</event>
<event>
 5    0  0.1856407E+000  0.2512135E+03  0.7546771E-02  0.1112540E+00
         21   -1    0    0  502  501  0.00000000000E+00  0.00000000000E+00  0.19696517222E+03  0.19696517222E+03  0.00000000000E+00 0.  1.
         21   -1    0    0  503  502 -0.00000000000E+00 -0.00000000000E+00 -0.91600382840E+03  0.91600382840E+03  0.00000000000E+00 0. -1.
         25    1    1    2    0    0  0.20262056720E+03  0.80175740257E+02  0.92220018870E+02  0.26760563421E+03  0.12500000000E+03 0.  0.
         21    1    1    2  503  504 -0.15575024439E+03 -0.42401538984E+02 -0.70494758928E+03  0.72319232074E+03  0.00000000000E+00 0. -1.
         21    1    1    2  504  501 -0.46870322815E+02 -0.37774201274E+02 -0.10631108577E+03  0.12217104567E+03  0.00000000000E+00 0. -1.
<mgrwt>
<rscale>  4 0.25121354E+03</rscale>
<asrwt>0</asrwt>
<pdfrwt beam="1">  1       21 0.30302335E-01 0.25121354E+03</pdfrwt>
<pdfrwt beam="2">  1       21 0.14092366E+00 0.25121354E+03</pdfrwt>
<totfact> 0.35115103E+03</totfact>
</mgrwt>
</event>
<event>
 5    0  0.1856407E+000  0.2875351E+03  0.7546771E-02  0.1091643E+00
         21   -1    0    0  502  501  0.00000000000E+00  0.00000000000E+00  0.16918035253E+04  0.16918035253E+04  0.00000000000E+00 0. -1.
         21   -1    0    0  503  502 -0.00000000000E+00 -0.00000000000E+00 -0.33177186806E+03  0.33177186806E+03  0.00000000000E+00 0.  1.
         25    1    1    2    0    0 -0.92679353854E+02  0.24178905994E+03  0.16259258255E+04  0.16511545059E+04  0.12500000000E+03 0.  0.
         21    1    1    2  503  504  0.15444880301E+02 -0.18984521624E+02 -0.18791587248E+02  0.30855795891E+02  0.00000000000E+00 0. -1.
         21    1    1    2  504  501  0.77234473553E+02 -0.22280453831E+03 -0.24710258107E+03  0.34156509156E+03  0.00000000000E+00 0.  1.
<mgrwt>
<rscale>  4 0.28753506E+03</rscale>
<asrwt>0</asrwt>
<pdfrwt beam="1">  1       21 0.26027746E+00 0.28753506E+03</pdfrwt>
<pdfrwt beam="2">  1       21 0.51041827E-01 0.28753506E+03</pdfrwt>
<totfact> 0.18869224E+02</totfact>
</mgrwt>
</event>
<event>
 5    0  0.1856407E+000  0.2775848E+03  0.7546771E-02  0.1097015E+00
         21   -1    0    0  502  501  0.00000000000E+00  0.00000000000E+00  0.18378251767E+04  0.18378251767E+04  0.00000000000E+00 0.  1.
         21   -1    0    0  503  502 -0.00000000000E+00 -0.00000000000E+00 -0.20163476531E+03  0.20163476531E+03  0.00000000000E+00 0. -1.
         25    1    1    2    0    0  0.10141655168E+02 -0.24763982133E+03  0.17416801084E+04  0.17636617971E+04  0.12500000000E+03 0.  0.
         21    1    1    2  503  504 -0.24063959092E+02  0.22698927651E+03 -0.85092194694E+02  0.24360600850E+03  0.00000000000E+00 0. -1.
         21    1    1    2  504  501  0.13922303925E+02  0.20650544815E+02 -0.20397502350E+02  0.32192136460E+02  0.00000000000E+00 0. -1.
<mgrwt>
<rscale>  4 0.27758482E+03</rscale>
<asrwt>0</asrwt>
<pdfrwt beam="1">  1       21 0.28274232E+00 0.27758482E+03</pdfrwt>
<pdfrwt beam="2">  1       21 0.31020734E-01 0.27758482E+03</pdfrwt>
<totfact> 0.38735419E+02</totfact>
</mgrwt>
</event>
<event>
 5    0  0.1856407E+000  0.2940958E+03  0.7546771E-02  0.1088230E+00
         21   -1    0    0  502  501  0.00000000000E+00  0.00000000000E+00  0.10298489902E+04  0.10298489902E+04  0.00000000000E+00 0.  1.
         21   -1    0    0  503  502 -0.00000000000E+00 -0.00000000000E+00 -0.16566512489E+03  0.16566512489E+03  0.00000000000E+00 0.  1.
         25    1    1    2    0    0 -0.10565846369E+02  0.26599945575E+03  0.87468601968E+03  0.92280441081E+03  0.12500000000E+03 0.  0.
         21    1    1    2  503  504 -0.17531759425E+02 -0.18841860388E+03 -0.16682176157E+02  0.18996638618E+03  0.00000000000E+00 0.  1.
         21    1    1    2  504  501  0.28097605794E+02 -0.77580851869E+02  0.61800218344E+01  0.82743318147E+02  0.00000000000E+00 0.  1.
<mgrwt>
<rscale>  4 0.29409581E+03</rscale>
<asrwt>0</asrwt>
<pdfrwt beam="1">  1       21 0.15843830E+00 0.29409581E+03</pdfrwt>
<pdfrwt beam="2">  1       21 0.25486943E-01 0.29409581E+03</pdfrwt>
<totfact> 0.35017893E+03</totfact>
</mgrwt>
</event>
<event>
 5    0  0.5348512E+000  0.2302905E+03  0.7546771E-02  0.1126435E+00
         21   -1    0    0  502  501  0.00000000000E+00  0.00000000000E+00  0.19907668978E+03  0.19907668978E+03  0.00000000000E+00 0. -1.
         21   -1    0    0  503  502 -0.00000000000E+00 -0.00000000000E+00 -0.50679428758E+03  0.50679428758E+03  0.00000000000E+00 0.  1.
         25    1    1    2    0    0  0.24060322628E+02  0.22959048506E+03  0.52594378138E+02  0.26773467943E+03  0.12500000000E+03 0.  0.
         21    1    1    2  503  504 -0.21560917823E+02 -0.18657530662E+03 -0.34425011266E+03  0.39215221316E+03  0.00000000000E+00 0.  1.
         21    1    1    2  504  501 -0.24994048051E+01 -0.43015178445E+02 -0.16061863278E+02  0.45984084779E+02  0.00000000000E+00 0. -1.
<mgrwt>
<rscale>  4 0.23029047E+03</rscale>
<asrwt>0</asrwt>
<pdfrwt beam="1">  1       21 0.30627183E-01 0.23029047E+03</pdfrwt>
<pdfrwt beam="2">  1       21 0.77968351E-01 0.23029047E+03</pdfrwt>
<totfact> 0.14576366E+04</totfact>
</mgrwt>
</event>
<event>
 5    0  0.7189946E+000  0.3130748E+03  0.7546771E-02  0.1078881E+00
         21   -1    0    0  502  501  0.00000000000E+00  0.00000000000E+00  0.22783280653E+03  0.22783280653E+03  0.00000000000E+00 0. -1.
         21   -1    0    0  503  502 -0.00000000000E+00 -0.00000000000E+00 -0.41323349557E+03  0.41323349557E+03  0.00000000000E+00 0. -1.
         25    1    1    2    0    0  0.27972363607E+03 -0.64385890574E+02 -0.65541026582E+02  0.31986166017E+03  0.12500000000E+03 0.  0.
         21    1    1    2  503  504 -0.23499281222E+03  0.83461010574E+02 -0.10065165731E+03  0.26892028224E+03  0.00000000000E+00 0. -1.
         21    1    1    2  504  501 -0.44730823849E+02 -0.19075120001E+02 -0.19208005147E+02  0.52284359679E+02  0.00000000000E+00 0.  1.
<mgrwt>
<rscale>  4 0.31307484E+03</rscale>
<asrwt>0</asrwt>
<pdfrwt beam="1">  1       21 0.35051201E-01 0.31307484E+03</pdfrwt>
<pdfrwt beam="2">  1       21 0.63574383E-01 0.31307484E+03</pdfrwt>
<totfact> 0.16899525E+04</totfact>
</mgrwt>
</event>
<event>
 5    0  0.1856407E+000  0.2823009E+03  0.7546771E-02  0.1094439E+00
         21   -1    0    0  502  501  0.00000000000E+00  0.00000000000E+00  0.11152967782E+04  0.11152967782E+04  0.00000000000E+00 0. -1.
         21   -1    0    0  503  502 -0.00000000000E+00 -0.00000000000E+00 -0.62142992531E+03  0.62142992531E+03  0.00000000000E+00 0. -1.
         25    1    1    2    0    0 -0.21010396875E+03 -0.14115630464E+03  0.10698979382E+04  0.11065149697E+04  0.12500000000E+03 0.  0.
         21    1    1    2  503  504  0.19543713181E+03  0.11929074004E+03 -0.52604896051E+03  0.57371897476E+03  0.00000000000E+00 0. -1.
         21    1    1    2  504  501  0.14666836944E+02  0.21865564596E+02 -0.49982124811E+02  0.56492759020E+02  0.00000000000E+00 0.  1.
<mgrwt>
<rscale>  4 0.28230087E+03</rscale>
<asrwt>0</asrwt>
<pdfrwt beam="1">  1       21 0.17158412E+00 0.28230087E+03</pdfrwt>
<pdfrwt beam="2">  1       21 0.95604604E-01 0.28230087E+03</pdfrwt>
<totfact> 0.17217173E+02</totfact>
</mgrwt>
</event>
<event>
 5    0  0.1856407E+000  0.2505890E+03  0.7546771E-02  0.1112933E+00
         21   -1    0    0  502  501  0.00000000000E+00  0.00000000000E+00  0.72806040250E+02  0.72806040250E+02  0.00000000000E+00 0.  1.
         21   -1    0    0  503  502 -0.00000000000E+00 -0.00000000000E+00 -0.10433231858E+04  0.10433231858E+04  0.00000000000E+00 0.  1.
         25    1    1    2    0    0  0.10697960681E+03  0.19233883818E+03 -0.24781898565E+03  0.35422890141E+03  0.12500000000E+03 0.  0.
         21    1    1    2  503  504 -0.11909694122E+03 -0.17539249315E+03 -0.57691392988E+03  0.61463508731E+03  0.00000000000E+00 0.  1.
         21    1    1    2  504  501  0.12117334406E+02 -0.16946345033E+02 -0.14578422997E+03  0.14726523728E+03  0.00000000000E+00 0.  1.
<mgrwt>
<rscale>  4 0.25058902E+03</rscale>
<asrwt>0</asrwt>
<pdfrwt beam="1">  1       21 0.11200929E-01 0.25058902E+03</pdfrwt>
<pdfrwt beam="2">  1       21 0.16051126E+00 0.25058902E+03</pdfrwt>
<totfact> 0.15949999E+04</totfact>
</mgrwt>
</event>
<event>
 5    0  0.1856407E+000  0.2540283E+03  0.7546771E-02  0.1110785E+00
         21   -1    0    0  502  501  0.00000000000E+00  0.00000000000E+00  0.11165167976E+03  0.11165167976E+03  0.00000000000E+00 0.  1.
         21   -1    0    0  503  502 -0.00000000000E+00 -0.00000000000E+00 -0.54351900460E+03  0.54351900460E+03  0.00000000000E+00 0.  1.
         25    1    1    2    0    0  0.17896169431E+03 -0.12991571213E+03 -0.25338448531E+03  0.35879531447E+03  0.12500000000E+03 0.  0.
         21    1    1    2  503  504 -0.60580256127E+02  0.17473642679E+02 -0.92231184825E+02  0.11172236605E+03  0.00000000000E+00 0.  1.
         21    1    1    2  504  501 -0.11838143819E+03  0.11244206945E+03 -0.86251654705E+02  0.18465300384E+03  0.00000000000E+00 0.  1.
<mgrwt>
<rscale>  4 0.25402831E+03</rscale>
<asrwt>0</asrwt>
<pdfrwt beam="1">  1       21 0.17177182E-01 0.25402831E+03</pdfrwt>
<pdfrwt beam="2">  1       21 0.83618308E-01 0.25402831E+03</pdfrwt>
<totfact> 0.36957989E+04</totfact>
</mgrwt>
</event>
