<event>
 5    0  0.1911311E+001  0.2891083E+03  0.7546771E-02  0.1090816E+00
         21   -1    0    0  504  501  0.00000000000E+00  0.00000000000E+00  0.97181966331E+03  0.97181966331E+03  0.00000000000E+00 0. -1.
         21   -1    0    0  503  502 -0.00000000000E+00 -0.00000000000E+00 -0.49450437157E+03  0.49450437157E+03  0.00000000000E+00 0. -1.
         25    1    1    2    0    0 -0.22267904571E+03 -0.33868962662E+02  0.38342971296E+03  0.46192684357E+03  0.12500000000E+03 0.  0.
         21    1    1    2  503  501  0.26042707613E+03  0.42688917487E+02 -0.41621374421E+03  0.49282703510E+03  0.00000000000E+00 0. -1.
         21    1    1    2  504  502 -0.37748030413E+02 -0.88199548251E+01  0.51009932299E+03  0.51157015620E+03  0.00000000000E+00 0. -1.
<mgrwt>
<rscale>  4 0.28910830E+03</rscale>
<asrwt>0</asrwt>
<pdfrwt beam="1">  1       21 0.14951072E+00 0.28910830E+03</pdfrwt>
<pdfrwt beam="2">  1       21 0.76077596E-01 0.28910830E+03</pdfrwt>
<totfact> 0.42365459E+02</totfact>
</mgrwt>
</event>
<event>
 5    0  0.1911311E+001  0.4674569E+03  0.7546771E-02  0.1022640E+00
         21   -1    0    0  504  501  0.00000000000E+00  0.00000000000E+00  0.47848112392E+03  0.47848112392E+03  0.00000000000E+00 0. -1.
         21   -1    0    0  501  502 -0.00000000000E+00 -0.00000000000E+00 -0.11639434162E+04  0.11639434162E+04  0.00000000000E+00 0. -1.
         25    1    1    2    0    0  0.21766483916E+03 -0.56454140218E+03 -0.33001348745E+03  0.70044191685E+03  0.12500000000E+03 0.  0.
         21    1    1    2  503  502 -0.14879466501E+03  0.17321586842E+03  0.16894718090E+03  0.28405411340E+03  0.00000000000E+00 0. -1.
         21    1    1    2  504  503 -0.68870174152E+02  0.39132553375E+03 -0.52439598571E+03  0.65792850985E+03  0.00000000000E+00 0. -1.
<mgrwt>
<rscale>  4 0.46745685E+03</rscale>
<asrwt>0</asrwt>
<pdfrwt beam="1">  1       21 0.73612482E-01 0.46745685E+03</pdfrwt>
<pdfrwt beam="2">  1       21 0.17906821E+00 0.46745685E+03</pdfrwt>
<totfact> 0.24757451E+02</totfact>
</mgrwt>
</event>
<event>
 5    0  0.1911311E+001  0.3400426E+03  0.7546771E-02  0.1066778E+00
         21   -1    0    0  502  501  0.00000000000E+00  0.00000000000E+00  0.68624111032E+03  0.68624111032E+03  0.00000000000E+00 0.  1.
         21   -1    0    0  504  502 -0.00000000000E+00 -0.00000000000E+00 -0.33766092118E+03  0.33766092118E+03  0.00000000000E+00 0.  1.
         25    1    1    2    0    0  0.35617251651E+02 -0.28010851424E+03  0.45518399845E+03  0.55004258091E+03  0.12500000000E+03 0.  0.
         21    1    1    2  503  501 -0.10219192096E+02 -0.41311414803E+02  0.87654654776E+02  0.97439229184E+02  0.00000000000E+00 0. -1.
         21    1    1    2  504  503 -0.25398059555E+02  0.32141992905E+03 -0.19425846408E+03  0.37642022141E+03  0.00000000000E+00 0.  1.
<mgrwt>
<rscale>  4 0.34004256E+03</rscale>
<asrwt>0</asrwt>
<pdfrwt beam="1">  1       21 0.10557556E+00 0.34004256E+03</pdfrwt>
<pdfrwt beam="2">  1       21 0.51947834E-01 0.34004256E+03</pdfrwt>
<totfact> 0.22972390E+03</totfact>
</mgrwt>
</event>
<event>
 5    0  0.1911311E+001  0.1744814E+03  0.7546771E-02  0.1173253E+00
         21   -1    0    0  502  501  0.00000000000E+00  0.00000000000E+00  0.65143858541E+03  0.65143858541E+03  0.00000000000E+00 0. -1.
         21   -1    0    0  504  502 -0.00000000000E+00 -0.00000000000E+00 -0.14242045654E+03  0.14242045654E+03  0.00000000000E+00 0. -1.
         25    1    1    2    0    0  0.10892401338E+03  0.17371974258E+03  0.21444694275E+03  0.32195571265E+03  0.12500000000E+03 0.  0.
         21    1    1    2  503  501 -0.47864226502E+02 -0.81919972826E+02  0.33975346836E+03  0.35275244207E+03  0.00000000000E+00 0. -1.
         21    1    1    2  504  503 -0.61059786878E+02 -0.91799769754E+02 -0.45182282239E+02  0.11915088723E+03  0.00000000000E+00 0. -1.
<mgrwt>
<rscale>  4 0.17448137E+03</rscale>
<asrwt>0</asrwt>
<pdfrwt beam="1">  1       21 0.10022132E+00 0.17448137E+03</pdfrwt>
<pdfrwt beam="2">  1       21 0.21910840E-01 0.17448137E+03</pdfrwt>
<totfact> 0.16075984E+04</totfact>
</mgrwt>
</event>
