<event>
 5    0  0.2321302E+000  0.2404322E+03  0.7546771E-02  0.1119505E+00
         21   -1    0    0  502  501  0.00000000000E+00  0.00000000000E+00  0.30032801582E+02  0.30032801582E+02  0.00000000000E+00 0. -1.
         21   -1    0    0  503  502 -0.00000000000E+00 -0.00000000000E+00 -0.19589363365E+04  0.19589363365E+04  0.00000000000E+00 0. -1.
         25    1    1    2    0    0 -0.49406033356E+02 -0.19935312309E+03 -0.64517946530E+03  0.68852317772E+03  0.12500000000E+03 0.  0.
         21    1    1    2  503  504  0.12434298239E+02  0.21736391634E+02 -0.21208298147E+03  0.21355625377E+03  0.00000000000E+00 0. -1.
         21    1    1    2  504  501  0.36971735117E+02  0.17761673145E+03 -0.10716410882E+04  0.10868897066E+04  0.00000000000E+00 0. -1.
<mgrwt>
<rscale>  4 0.24043216E+03</rscale>
<asrwt>0</asrwt>
<pdfrwt beam="1">  1       21 0.46204297E-02 0.24043216E+03</pdfrwt>
<pdfrwt beam="2">  1       21 0.30137491E+00 0.24043216E+03</pdfrwt>
<totfact> 0.98330775E+03</totfact>
</mgrwt>
</event>
<event>
 5    0  0.3434159E+000  0.2230098E+03  0.7546771E-02  0.1131659E+00
         21   -1    0    0  502  501  0.00000000000E+00  0.00000000000E+00  0.54986825014E+03  0.54986825014E+03  0.00000000000E+00 0.  1.
         21   -1    0    0  503  502 -0.00000000000E+00 -0.00000000000E+00 -0.17683558694E+03  0.17683558694E+03  0.00000000000E+00 0.  1.
         25    1    1    2    0    0  0.19368053443E+02  0.19949197979E+03  0.43040391709E+03  0.49096303663E+03  0.12500000000E+03 0.  0.
         21    1    1    2  503  504  0.12664842850E+02 -0.19574398698E+02  0.25959043883E+02  0.34891650694E+02  0.00000000000E+00 0.  1.
         21    1    1    2  504  501 -0.32032896293E+02 -0.17991758110E+03 -0.83330297772E+02  0.20084914976E+03  0.00000000000E+00 0.  1.
<mgrwt>
<rscale>  4 0.22300982E+03</rscale>
<asrwt>0</asrwt>
<pdfrwt beam="1">  1       21 0.84595115E-01 0.22300982E+03</pdfrwt>
<pdfrwt beam="2">  1       21 0.27205475E-01 0.22300982E+03</pdfrwt>
<totfact> 0.15311986E+04</totfact>
</mgrwt>
</event>
<event>
 5    0  0.2159162E+000  0.3169229E+03  0.7546771E-02  0.1077074E+00
         21   -1    0    0  502  501  0.00000000000E+00  0.00000000000E+00  0.21259017152E+03  0.21259017152E+03  0.00000000000E+00 0. -1.
         21   -1    0    0  503  502 -0.00000000000E+00 -0.00000000000E+00 -0.48775234286E+03  0.48775234286E+03  0.00000000000E+00 0.  1.
         25    1    1    2    0    0 -0.24284436119E+03  0.17596507190E+03 -0.10994932116E+03  0.34300283309E+03  0.12500000000E+03 0.  0.
         21    1    1    2  503  504  0.20677870028E+02  0.32465251148E+01  0.91668272064E+01  0.22850491357E+02  0.00000000000E+00 0. -1.
         21    1    1    2  504  501  0.22216649116E+03 -0.17921159701E+03 -0.17437967739E+03  0.33448918993E+03  0.00000000000E+00 0.  1.
<mgrwt>
<rscale>  4 0.31692293E+03</rscale>
<asrwt>0</asrwt>
<pdfrwt beam="1">  1       21 0.32706180E-01 0.31692293E+03</pdfrwt>
<pdfrwt beam="2">  1       21 0.75038822E-01 0.31692293E+03</pdfrwt>
<totfact> 0.13394918E+04</totfact>
</mgrwt>
</event>
<event>
 5    0  0.2159162E+000  0.2655452E+03  0.7546771E-02  0.1103857E+00
         21   -1    0    0  502  501  0.00000000000E+00  0.00000000000E+00  0.11051996887E+04  0.11051996887E+04  0.00000000000E+00 0.  1.
         21   -1    0    0  503  502 -0.00000000000E+00 -0.00000000000E+00 -0.59009416141E+02  0.59009416141E+02  0.00000000000E+00 0.  1.
         25    1    1    2    0    0 -0.14935796216E+03 -0.18050334271E+03  0.46029684193E+03  0.53140139281E+03  0.12500000000E+03 0.  0.
         21    1    1    2  503  504  0.24313539088E+02  0.57831392418E+02  0.12786578890E+03  0.14242639539E+03  0.00000000000E+00 0.  1.
         21    1    1    2  504  501  0.12504442307E+03  0.12267195029E+03  0.45802764176E+03  0.49038131668E+03  0.00000000000E+00 0.  1.
<mgrwt>
<rscale>  4 0.26554521E+03</rscale>
<asrwt>0</asrwt>
<pdfrwt beam="1">  1       21 0.17003071E+00 0.26554521E+03</pdfrwt>
<pdfrwt beam="2">  1       21 0.90783725E-02 0.26554521E+03</pdfrwt>
<totfact> 0.19612231E+04</totfact>
</mgrwt>
</event>
<event>
 5    0  0.2159162E+000  0.2699698E+03  0.7546771E-02  0.1101297E+00
         21   -1    0    0  502  501  0.00000000000E+00  0.00000000000E+00  0.19892076687E+03  0.19892076687E+03  0.00000000000E+00 0. -1.
         21   -1    0    0  503  502 -0.00000000000E+00 -0.00000000000E+00 -0.38453200764E+03  0.38453200764E+03  0.00000000000E+00 0. -1.
         25    1    1    2    0    0 -0.23747099216E+03 -0.29431253296E+02  0.39092882017E+01  0.26999806170E+03  0.12500000000E+03 0.  0.
         21    1    1    2  503  504  0.15477484701E+03  0.51668699783E+02 -0.13648554726E+03  0.21272802452E+03  0.00000000000E+00 0. -1.
         21    1    1    2  504  501  0.82696145150E+02 -0.22237446487E+02 -0.53034981704E+02  0.10072668829E+03  0.00000000000E+00 0. -1.
<mgrwt>
<rscale>  4 0.26996976E+03</rscale>
<asrwt>0</asrwt>
<pdfrwt beam="1">  1       21 0.30603195E-01 0.26996976E+03</pdfrwt>
<pdfrwt beam="2">  1       21 0.59158771E-01 0.26996976E+03</pdfrwt>
<totfact> 0.26348711E+04</totfact>
</mgrwt>
</event>
<event>
 5    0  0.2159162E+000  0.2106445E+03  0.7546771E-02  0.1141057E+00
         21   -1    0    0  502  501  0.00000000000E+00  0.00000000000E+00  0.75005271416E+03  0.75005271416E+03  0.00000000000E+00 0.  1.
         21   -1    0    0  503  502 -0.00000000000E+00 -0.00000000000E+00 -0.11425249799E+03  0.11425249799E+03  0.00000000000E+00 0.  1.
         25    1    1    2    0    0 -0.15635573998E+03 -0.13401617928E+03  0.11629609925E+03  0.26750184380E+03  0.12500000000E+03 0.  0.
         21    1    1    2  503  504  0.13767662366E+03  0.88704642032E+02  0.52263204192E+03  0.54769299563E+03  0.00000000000E+00 0.  1.
         21    1    1    2  504  501  0.18679116322E+02  0.45311537249E+02 -0.31279250003E+01  0.49110372726E+02  0.00000000000E+00 0.  1.
<mgrwt>
<rscale>  4 0.21064448E+03</rscale>
<asrwt>0</asrwt>
<pdfrwt beam="1">  1       21 0.11539272E+00 0.21064448E+03</pdfrwt>
<pdfrwt beam="2">  1       21 0.17577308E-01 0.21064448E+03</pdfrwt>
<totfact> 0.16858685E+04</totfact>
</mgrwt>
</event>
<event>
 5    0  0.2159162E+000  0.2464228E+03  0.7546771E-02  0.1115587E+00
         21   -1    0    0  502  501  0.00000000000E+00  0.00000000000E+00  0.40449437243E+03  0.40449437243E+03  0.00000000000E+00 0. -1.
         21   -1    0    0  503  502 -0.00000000000E+00 -0.00000000000E+00 -0.16112494061E+03  0.16112494061E+03  0.00000000000E+00 0.  1.
         25    1    1    2    0    0 -0.19836297253E+03  0.75837570550E+02  0.23169532452E+03  0.33824093393E+03  0.12500000000E+03 0.  0.
         21    1    1    2  503  504  0.64651108095E+02  0.11508623408E+02  0.16069221170E+02  0.67604985465E+02  0.00000000000E+00 0.  1.
         21    1    1    2  504  501  0.13371186444E+03 -0.87346193958E+02 -0.43951138775E+01  0.15977339364E+03  0.00000000000E+00 0.  1.
<mgrwt>
<rscale>  4 0.24642282E+03</rscale>
<asrwt>0</asrwt>
<pdfrwt beam="1">  1       21 0.62229903E-01 0.24642282E+03</pdfrwt>
<pdfrwt beam="2">  1       21 0.24788453E-01 0.24642282E+03</pdfrwt>
<totfact> 0.35921496E+04</totfact>
</mgrwt>
</event>
<event>
 5    0  0.2926955E+000  0.2767500E+03  0.7546771E-02  0.1097477E+00
         21   -1    0    0  502  501  0.00000000000E+00  0.00000000000E+00  0.71262385466E+03  0.71262385466E+03  0.00000000000E+00 0.  1.
         21   -1    0    0  503  502 -0.00000000000E+00 -0.00000000000E+00 -0.10773691525E+03  0.10773691525E+03  0.00000000000E+00 0.  1.
         25    1    1    2    0    0 -0.24249198576E+03  0.46510222405E+02  0.40934316656E+03  0.49411779158E+03  0.12500000000E+03 0.  0.
         21    1    1    2  503  504  0.20904052176E+03 -0.94811212693E+01  0.14105985103E+03  0.25236028406E+03  0.00000000000E+00 0.  1.
         21    1    1    2  504  501  0.33451463998E+02 -0.37029101136E+02  0.54483921828E+02  0.73882694268E+02  0.00000000000E+00 0.  1.
<mgrwt>
<rscale>  4 0.27675000E+03</rscale>
<asrwt>0</asrwt>
<pdfrwt beam="1">  1       21 0.10963444E+00 0.27675000E+03</pdfrwt>
<pdfrwt beam="2">  1       21 0.16574910E-01 0.27675000E+03</pdfrwt>
<totfact> 0.20566604E+04</totfact>
</mgrwt>
</event>
<event>
 5    0  0.2159162E+000  0.3228340E+03  0.7546771E-02  0.1074352E+00
         21   -1    0    0  502  501  0.00000000000E+00  0.00000000000E+00  0.83724268748E+03  0.83724268748E+03  0.00000000000E+00 0. -1.
         21   -1    0    0  503  502 -0.00000000000E+00 -0.00000000000E+00 -0.42013617107E+03  0.42013617107E+03  0.00000000000E+00 0. -1.
         25    1    1    2    0    0 -0.27601356734E+03  0.15371699161E+03  0.71929561132E+03  0.79550209260E+03  0.12500000000E+03 0.  0.
         21    1    1    2  503  504  0.87064727059E+01 -0.25940778461E+02  0.12130843126E+02  0.29931321539E+02  0.00000000000E+00 0. -1.
         21    1    1    2  504  501  0.26730709463E+03 -0.12777621315E+03 -0.31431993805E+03  0.43194544441E+03  0.00000000000E+00 0. -1.
<mgrwt>
<rscale>  4 0.32283401E+03</rscale>
<asrwt>0</asrwt>
<pdfrwt beam="1">  1       21 0.12880657E+00 0.32283401E+03</pdfrwt>
<pdfrwt beam="2">  1       21 0.64636334E-01 0.32283401E+03</pdfrwt>
<totfact> 0.87959578E+02</totfact>
</mgrwt>
</event>
<event>
 5    0  0.2568344E+000  0.3176544E+03  0.7546771E-02  0.1076734E+00
         21   -1    0    0  502  501  0.00000000000E+00  0.00000000000E+00  0.21975856967E+03  0.21975856967E+03  0.00000000000E+00 0. -1.
         21   -1    0    0  503  502 -0.00000000000E+00 -0.00000000000E+00 -0.52379928081E+03  0.52379928081E+03  0.00000000000E+00 0. -1.
         25    1    1    2    0    0 -0.16742472065E+03  0.23926610983E+03  0.46327455816E+00  0.31765472296E+03  0.12500000000E+03 0.  0.
         21    1    1    2  503  504  0.47915477884E+02 -0.33457685394E+02 -0.76992456615E+02  0.96659961248E+02  0.00000000000E+00 0. -1.
         21    1    1    2  504  501  0.11950924276E+03 -0.20580842444E+03 -0.22751152908E+03  0.32924316627E+03  0.00000000000E+00 0. -1.
<mgrwt>
<rscale>  4 0.31765439E+03</rscale>
<asrwt>0</asrwt>
<pdfrwt beam="1">  1       21 0.33809011E-01 0.31765439E+03</pdfrwt>
<pdfrwt beam="2">  1       21 0.80584504E-01 0.31765439E+03</pdfrwt>
<totfact> 0.10654472E+04</totfact>
</mgrwt>
</event>
<event>
 5    0  0.2159162E+000  0.2006325E+03  0.7546771E-02  0.1149206E+00
         21   -1    0    0  502  501  0.00000000000E+00  0.00000000000E+00  0.24378410417E+03  0.24378410417E+03  0.00000000000E+00 0.  1.
         21   -1    0    0  503  502 -0.00000000000E+00 -0.00000000000E+00 -0.30348102129E+03  0.30348102129E+03  0.00000000000E+00 0.  1.
         25    1    1    2    0    0  0.16871883686E+03 -0.11569469868E+03 -0.12095643811E+03  0.26852703613E+03  0.12500000000E+03 0.  0.
         21    1    1    2  503  504 -0.38648414259E+02  0.96379513415E+02  0.97394156727E+02  0.14236689326E+03  0.00000000000E+00 0.  1.
         21    1    1    2  504  501 -0.13007042260E+03  0.19315185265E+02 -0.36134635735E+02  0.13637119607E+03  0.00000000000E+00 0.  1.
<mgrwt>
<rscale>  4 0.20063253E+03</rscale>
<asrwt>0</asrwt>
<pdfrwt beam="1">  1       21 0.37505247E-01 0.20063253E+03</pdfrwt>
<pdfrwt beam="2">  1       21 0.46689388E-01 0.20063253E+03</pdfrwt>
<totfact> 0.29983202E+04</totfact>
</mgrwt>
</event>
<event>
 5    0  0.2159162E+000  0.2670647E+03  0.7546771E-02  0.1102971E+00
         21   -1    0    0  502  501  0.00000000000E+00  0.00000000000E+00  0.23038761140E+03  0.23038761140E+03  0.00000000000E+00 0. -1.
         21   -1    0    0  503  502 -0.00000000000E+00 -0.00000000000E+00 -0.84022311445E+03  0.84022311445E+03  0.00000000000E+00 0.  1.
         25    1    1    2    0    0 -0.22344869040E+03 -0.13882873091E+03  0.83313675300E+02  0.30293382489E+03  0.12500000000E+03 0.  0.
         21    1    1    2  503  504  0.16067889140E+03 -0.17047174216E+02 -0.32245045009E+03  0.36066966195E+03  0.00000000000E+00 0. -1.
         21    1    1    2  504  501  0.62769798994E+02  0.15587590513E+03 -0.37069872827E+03  0.40700723901E+03  0.00000000000E+00 0.  1.
<mgrwt>
<rscale>  4 0.26706469E+03</rscale>
<asrwt>0</asrwt>
<pdfrwt beam="1">  1       21 0.35444248E-01 0.26706469E+03</pdfrwt>
<pdfrwt beam="2">  1       21 0.12926509E+00 0.26706469E+03</pdfrwt>
<totfact> 0.31811141E+03</totfact>
</mgrwt>
</event>
<event>
 5    0  0.2159162E+000  0.2529615E+03  0.7546771E-02  0.1111447E+00
         21   -1    0    0  502  501  0.00000000000E+00  0.00000000000E+00  0.11004685413E+04  0.11004685413E+04  0.00000000000E+00 0.  1.
         21   -1    0    0  503  502 -0.00000000000E+00 -0.00000000000E+00 -0.55853706159E+03  0.55853706159E+03  0.00000000000E+00 0. -1.
         25    1    1    2    0    0  0.60561898997E+02 -0.21319240170E+03  0.10574114527E+04  0.10875949264E+04  0.12500000000E+03 0.  0.
         21    1    1    2  503  504 -0.50934397568E+02  0.15706250426E+03 -0.47114007740E+03  0.49923533091E+03  0.00000000000E+00 0. -1.
         21    1    1    2  504  501 -0.96275014294E+01  0.56129897446E+02 -0.44339895548E+02  0.72175345571E+02  0.00000000000E+00 0.  1.
<mgrwt>
<rscale>  4 0.25296154E+03</rscale>
<asrwt>0</asrwt>
<pdfrwt beam="1">  1       21 0.16930285E+00 0.25296154E+03</pdfrwt>
<pdfrwt beam="2">  1       21 0.85928779E-01 0.25296154E+03</pdfrwt>
<totfact> 0.23580684E+02</totfact>
</mgrwt>
</event>
<event>
 5    0  0.2192640E+000  0.2953751E+03  0.7546771E-02  0.1087576E+00
         21   -1    0    0  502  501  0.00000000000E+00  0.00000000000E+00  0.85183745273E+03  0.85183745273E+03  0.00000000000E+00 0.  1.
         21   -1    0    0  503  502 -0.00000000000E+00 -0.00000000000E+00 -0.10413489389E+03  0.10413489389E+03  0.00000000000E+00 0.  1.
         25    1    1    2    0    0  0.23231920221E+03  0.13285051883E+03  0.25295042499E+03  0.38888351671E+03  0.12500000000E+03 0.  0.
         21    1    1    2  503  504 -0.64436022545E+02 -0.25897595378E+01  0.12366544068E+03  0.13946988590E+03  0.00000000000E+00 0.  1.
         21    1    1    2  504  501 -0.16788317966E+03 -0.13026075930E+03  0.37108669317E+03  0.42761894401E+03  0.00000000000E+00 0.  1.
<mgrwt>
<rscale>  4 0.29537514E+03</rscale>
<asrwt>0</asrwt>
<pdfrwt beam="1">  1       21 0.13105191E+00 0.29537514E+03</pdfrwt>
<pdfrwt beam="2">  1       21 0.16020753E-01 0.29537514E+03</pdfrwt>
<totfact> 0.13891638E+04</totfact>
</mgrwt>
</event>
