<event>
 5    0  0.1856407E+000  0.2454999E+03  0.7546771E-02  0.1116182E+00
         21   -1    0    0  502  501  0.00000000000E+00  0.00000000000E+00  0.24012423865E+03  0.24012423865E+03  0.00000000000E+00 0.  1.
         21   -1    0    0  503  502 -0.00000000000E+00 -0.00000000000E+00 -0.27751353474E+03  0.27751353474E+03  0.00000000000E+00 0. -1.
         25    1    1    2    0    0  0.10603115232E+03  0.18276380462E+03  0.89543424996E+02  0.26132018388E+03  0.12500000000E+03 0.  0.
         21    1    1    2  503  504 -0.66900531219E+02 -0.15250535657E+03 -0.12233714301E+03  0.20663964146E+03  0.00000000000E+00 0. -1.
         21    1    1    2  504  501 -0.39130621097E+02 -0.30258448049E+02 -0.45955780681E+01  0.49677948061E+02  0.00000000000E+00 0. -1.
<mgrwt>
<rscale>  4 0.24549993E+03</rscale>
<asrwt>0</asrwt>
<pdfrwt beam="1">  1       21 0.36942191E-01 0.24549993E+03</pdfrwt>
<pdfrwt beam="2">  1       21 0.42694390E-01 0.24549993E+03</pdfrwt>
<totfact> 0.36352118E+04</totfact>
</mgrwt>
</event>
<event>
 5    0  0.1856407E+000  0.3036676E+03  0.7546771E-02  0.1083421E+00
         21   -1    0    0  502  501  0.00000000000E+00  0.00000000000E+00  0.37090338019E+03  0.37090338019E+03  0.00000000000E+00 0. -1.
         21   -1    0    0  503  502 -0.00000000000E+00 -0.00000000000E+00 -0.47323700881E+03  0.47323700881E+03  0.00000000000E+00 0. -1.
         25    1    1    2    0    0  0.12861708237E+03  0.24504418366E+03  0.25011354045E+03  0.39340918766E+03  0.12500000000E+03 0.  0.
         21    1    1    2  503  504 -0.21032227858E+02 -0.17663405425E+02 -0.52632400852E+02  0.59367668974E+02  0.00000000000E+00 0.  1.
         21    1    1    2  504  501 -0.10758485451E+03 -0.22738077823E+03 -0.29981476822E+03  0.39136353237E+03  0.00000000000E+00 0. -1.
<mgrwt>
<rscale>  4 0.30366759E+03</rscale>
<asrwt>0</asrwt>
<pdfrwt beam="1">  1       21 0.57062058E-01 0.30366759E+03</pdfrwt>
<pdfrwt beam="2">  1       21 0.72805694E-01 0.30366759E+03</pdfrwt>
<totfact> 0.45650893E+03</totfact>
</mgrwt>
</event>
<event>
 5    0  0.1856407E+000  0.2417797E+03  0.7546771E-02  0.1118613E+00
         21   -1    0    0  502  501  0.00000000000E+00  0.00000000000E+00  0.52254570621E+03  0.52254570621E+03  0.00000000000E+00 0. -1.
         21   -1    0    0  503  502 -0.00000000000E+00 -0.00000000000E+00 -0.54403408390E+03  0.54403408390E+03  0.00000000000E+00 0. -1.
         25    1    1    2    0    0 -0.14398328806E+03  0.14866488203E+03  0.47033652516E+03  0.52884201921E+03  0.12500000000E+03 0.  0.
         21    1    1    2  503  504  0.10685042055E+03 -0.12316472628E+03 -0.43906640890E+03  0.46836510715E+03  0.00000000000E+00 0. -1.
         21    1    1    2  504  501  0.37132867506E+02 -0.25500155745E+02 -0.52758493944E+02  0.69372663748E+02  0.00000000000E+00 0. -1.
<mgrwt>
<rscale>  4 0.24177972E+03</rscale>
<asrwt>0</asrwt>
<pdfrwt beam="1">  1       21 0.80391647E-01 0.24177972E+03</pdfrwt>
<pdfrwt beam="2">  1       21 0.83697552E-01 0.24177972E+03</pdfrwt>
<totfact> 0.16191490E+03</totfact>
</mgrwt>
</event>
<event>
 5    0  0.1856407E+000  0.2997435E+03  0.7546771E-02  0.1085369E+00
         21   -1    0    0  502  501  0.00000000000E+00  0.00000000000E+00  0.37011311771E+03  0.37011311771E+03  0.00000000000E+00 0. -1.
         21   -1    0    0  503  502 -0.00000000000E+00 -0.00000000000E+00 -0.58594497387E+03  0.58594497387E+03  0.00000000000E+00 0. -1.
         25    1    1    2    0    0 -0.22578641023E+03 -0.15245220288E+03 -0.48546200500E+03  0.57054319337E+03  0.12500000000E+03 0.  0.
         21    1    1    2  503  504  0.21072653469E+03  0.12899851475E+03  0.23419610957E+03  0.34043223550E+03  0.00000000000E+00 0. -1.
         21    1    1    2  504  501  0.15059875537E+02  0.23453688121E+02  0.35434039267E+02  0.45082662703E+02  0.00000000000E+00 0.  1.
<mgrwt>
<rscale>  4 0.29974352E+03</rscale>
<asrwt>0</asrwt>
<pdfrwt beam="1">  1       21 0.56940480E-01 0.29974352E+03</pdfrwt>
<pdfrwt beam="2">  1       21 0.90145380E-01 0.29974352E+03</pdfrwt>
<totfact> 0.28152169E+03</totfact>
</mgrwt>
</event>
<event>
 5    0  0.1856407E+000  0.2709638E+03  0.7546771E-02  0.1100729E+00
         21   -1    0    0  502  501  0.00000000000E+00  0.00000000000E+00  0.75813015893E+03  0.75813015893E+03  0.00000000000E+00 0. -1.
         21   -1    0    0  503  502 -0.00000000000E+00 -0.00000000000E+00 -0.20991199975E+03  0.20991199975E+03  0.00000000000E+00 0.  1.
         25    1    1    2    0    0  0.85982089241E+02  0.22649031794E+03  0.62643119542E+03  0.68317774143E+03  0.12500000000E+03 0.  0.
         21    1    1    2  503  504  0.24326392038E+02 -0.23402907369E+02  0.13317214697E+02  0.36287981898E+02  0.00000000000E+00 0. -1.
         21    1    1    2  504  501 -0.11030848128E+03 -0.20308741057E+03 -0.91530250933E+02  0.24857643535E+03  0.00000000000E+00 0.  1.
<mgrwt>
<rscale>  4 0.27096382E+03</rscale>
<asrwt>0</asrwt>
<pdfrwt beam="1">  1       21 0.11663541E+00 0.27096382E+03</pdfrwt>
<pdfrwt beam="2">  1       21 0.32294154E-01 0.27096382E+03</pdfrwt>
<totfact> 0.49486040E+03</totfact>
</mgrwt>
</event>
<event>
 5    0  0.2571045E+000  0.3247152E+03  0.7546771E-02  0.1074360E+00
         21   -1    0    0  502  501  0.00000000000E+00  0.00000000000E+00  0.26794280500E+03  0.26794280500E+03  0.00000000000E+00 0.  1.
         21   -1    0    0  503  502 -0.00000000000E+00 -0.00000000000E+00 -0.42173250771E+03  0.42173250771E+03  0.00000000000E+00 0.  1.
         25    1    1    2    0    0 -0.23448011178E+03 -0.17322000125E+03  0.26445772861E+02  0.31829305766E+03  0.12500000000E+03 0.  0.
         21    1    1    2  503  504  0.20178531384E+03  0.65556945939E+02 -0.11537592100E+03  0.24150906647E+03  0.00000000000E+00 0.  1.
         21    1    1    2  504  501  0.32694797942E+02  0.10766305531E+03 -0.64859554580E+02  0.12987318858E+03  0.00000000000E+00 0.  1.
<mgrwt>
<rscale>  4 0.32281796E+03</rscale>
<asrwt>0</asrwt>
<pdfrwt beam="1">  1       21 0.41221970E-01 0.32471519E+03</pdfrwt>
<pdfrwt beam="2">  1       21 0.64881924E-01 0.32471519E+03</pdfrwt>
<totfact> 0.11572034E+04</totfact>
</mgrwt>
</event>
<event>
 5    0  0.2546664E+000  0.2422009E+03  0.7546771E-02  0.1118335E+00
         21   -1    0    0  502  501  0.00000000000E+00  0.00000000000E+00  0.10653690027E+03  0.10653690027E+03  0.00000000000E+00 0. -1.
         21   -1    0    0  503  502 -0.00000000000E+00 -0.00000000000E+00 -0.65318842724E+03  0.65318842724E+03  0.00000000000E+00 0.  1.
         25    1    1    2    0    0  0.20176206786E+03 -0.48252925971E+02 -0.95371166710E+02  0.26030162568E+03  0.12500000000E+03 0.  0.
         21    1    1    2  503  504 -0.18970801048E+03  0.31493357808E+02 -0.42017709618E+03  0.46209279694E+03  0.00000000000E+00 0.  1.
         21    1    1    2  504  501 -0.12054057382E+02  0.16759568164E+02 -0.31103264075E+02  0.37330904899E+02  0.00000000000E+00 0.  1.
<mgrwt>
<rscale>  4 0.24220090E+03</rscale>
<asrwt>0</asrwt>
<pdfrwt beam="1">  1       21 0.16390292E-01 0.24220090E+03</pdfrwt>
<pdfrwt beam="2">  1       21 0.10049053E+00 0.24220090E+03</pdfrwt>
<totfact> 0.26351752E+04</totfact>
</mgrwt>
</event>
<event>
 5    0  0.1856407E+000  0.2522752E+03  0.7546771E-02  0.1111875E+00
         21   -1    0    0  502  501  0.00000000000E+00  0.00000000000E+00  0.44049209751E+03  0.44049209751E+03  0.00000000000E+00 0. -1.
         21   -1    0    0  503  502 -0.00000000000E+00 -0.00000000000E+00 -0.61418922231E+03  0.61418922231E+03  0.00000000000E+00 0.  1.
         25    1    1    2    0    0  0.86188279226E+02  0.20026448885E+03  0.34970261258E+03  0.43064045585E+03  0.12500000000E+03 0.  0.
         21    1    1    2  503  504 -0.17449497381E+03 -0.17470100897E+03 -0.40169950236E+03  0.47152033744E+03  0.00000000000E+00 0.  1.
         21    1    1    2  504  501  0.88306694580E+02 -0.25563479880E+02 -0.12170023502E+03  0.15252052654E+03  0.00000000000E+00 0.  1.
<mgrwt>
<rscale>  4 0.25227524E+03</rscale>
<asrwt>0</asrwt>
<pdfrwt beam="1">  1       21 0.67768016E-01 0.25227524E+03</pdfrwt>
<pdfrwt beam="2">  1       21 0.94490649E-01 0.25227524E+03</pdfrwt>
<totfact> 0.17771040E+03</totfact>
</mgrwt>
</event>
<event>
 5    0  0.1856407E+000  0.2691456E+03  0.7546771E-02  0.1101770E+00
         21   -1    0    0  502  501  0.00000000000E+00  0.00000000000E+00  0.30285846498E+03  0.30285846498E+03  0.00000000000E+00 0.  1.
         21   -1    0    0  503  502 -0.00000000000E+00 -0.00000000000E+00 -0.71636006142E+03  0.71636006142E+03  0.00000000000E+00 0.  1.
         25    1    1    2    0    0 -0.12676851847E+03 -0.22378001738E+03  0.17668762577E+03  0.33614174176E+03  0.12500000000E+03 0.  0.
         21    1    1    2  503  504  0.19960066801E+02  0.66658664058E+02 -0.42697922090E+03  0.43261187783E+03  0.00000000000E+00 0.  1.
         21    1    1    2  504  501  0.10680845167E+03  0.15712135332E+03 -0.16321000131E+03  0.25046490681E+03  0.00000000000E+00 0.  1.
<mgrwt>
<rscale>  4 0.26914556E+03</rscale>
<asrwt>0</asrwt>
<pdfrwt beam="1">  1       21 0.46593610E-01 0.26914556E+03</pdfrwt>
<pdfrwt beam="2">  1       21 0.11020924E+00 0.26914556E+03</pdfrwt>
<totfact> 0.27065573E+03</totfact>
</mgrwt>
</event>
<event>
 5    0  0.1856407E+000  0.2721222E+03  0.7546771E-02  0.1100071E+00
         21   -1    0    0  502  501  0.00000000000E+00  0.00000000000E+00  0.11790626214E+03  0.11790626214E+03  0.00000000000E+00 0.  1.
         21   -1    0    0  503  502 -0.00000000000E+00 -0.00000000000E+00 -0.76765249073E+03  0.76765249073E+03  0.00000000000E+00 0.  1.
         25    1    1    2    0    0  0.21227474912E+03  0.11560667974E+03 -0.11653758862E+03  0.29602615269E+03  0.12500000000E+03 0.  0.
         21    1    1    2  503  504 -0.52104788505E+02 -0.11904200460E+02 -0.66442293469E+02  0.85271316016E+02  0.00000000000E+00 0.  1.
         21    1    1    2  504  501 -0.16016996061E+03 -0.10370247928E+03 -0.46676634649E+03  0.50426128417E+03  0.00000000000E+00 0.  1.
<mgrwt>
<rscale>  4 0.27212217E+03</rscale>
<asrwt>0</asrwt>
<pdfrwt beam="1">  1       21 0.18139424E-01 0.27212217E+03</pdfrwt>
<pdfrwt beam="2">  1       21 0.11810039E+00 0.27212217E+03</pdfrwt>
<totfact> 0.14515734E+04</totfact>
</mgrwt>
</event>
<event>
 5    0  0.2754377E+000  0.2424221E+03  0.7546771E-02  0.1118190E+00
         21   -1    0    0  502  501  0.00000000000E+00  0.00000000000E+00  0.63213089692E+03  0.63213089692E+03  0.00000000000E+00 0. -1.
         21   -1    0    0  503  502 -0.00000000000E+00 -0.00000000000E+00 -0.21820607286E+03  0.21820607286E+03  0.00000000000E+00 0. -1.
         25    1    1    2    0    0  0.23388339898E+02 -0.30253618621E+03  0.38437910496E+03  0.50541809894E+03  0.12500000000E+03 0.  0.
         21    1    1    2  503  504 -0.60563048140E+02  0.11355313656E+03  0.72318913064E+02  0.14762189136E+03  0.00000000000E+00 0. -1.
         21    1    1    2  504  501  0.37174708242E+02  0.18898304965E+03 -0.42773193958E+02  0.19729697947E+03  0.00000000000E+00 0. -1.
<mgrwt>
<rscale>  4 0.24242211E+03</rscale>
<asrwt>0</asrwt>
<pdfrwt beam="1">  1       21 0.97250907E-01 0.24242211E+03</pdfrwt>
<pdfrwt beam="2">  1       21 0.33570165E-01 0.24242211E+03</pdfrwt>
<totfact> 0.72434342E+03</totfact>
</mgrwt>
</event>
<event>
 5    0  0.1856407E+000  0.6534597E+03  0.7546771E-02  0.9808644E-01
         21   -1    0    0  502  501  0.00000000000E+00  0.00000000000E+00  0.15451153788E+04  0.15451153788E+04  0.00000000000E+00 0.  1.
         21   -1    0    0  503  502 -0.00000000000E+00 -0.00000000000E+00 -0.52918048456E+03  0.52918048456E+03  0.00000000000E+00 0.  1.
         25    1    1    2    0    0 -0.48610875474E+03  0.39032574726E+03  0.12317020812E+04  0.13861352485E+04  0.12500000000E+03 0.  0.
         21    1    1    2  503  504  0.11132315392E+03 -0.68283212999E+02  0.33332920878E+02  0.13478325337E+03  0.00000000000E+00 0.  1.
         21    1    1    2  504  501  0.37478560082E+03 -0.32204253426E+03 -0.24910010782E+03  0.55337736146E+03  0.00000000000E+00 0.  1.
<mgrwt>
<rscale>  4 0.64900718E+03</rscale>
<asrwt>0</asrwt>
<pdfrwt beam="1">  1       21 0.23771006E+00 0.65345968E+03</pdfrwt>
<pdfrwt beam="2">  1       21 0.81412383E-01 0.65345968E+03</pdfrwt>
<totfact> 0.73738936E+01</totfact>
</mgrwt>
</event>
<event>
 5    0  0.1856407E+000  0.3098177E+03  0.7546771E-02  0.1080433E+00
         21   -1    0    0  502  501  0.00000000000E+00  0.00000000000E+00  0.21418185825E+03  0.21418185825E+03  0.00000000000E+00 0.  1.
         21   -1    0    0  503  502 -0.00000000000E+00 -0.00000000000E+00 -0.50451709588E+03  0.50451709588E+03  0.00000000000E+00 0.  1.
         25    1    1    2    0    0  0.25147270504E+03 -0.13085672277E+03 -0.14449749190E+02  0.31015447527E+03  0.12500000000E+03 0.  0.
         21    1    1    2  503  504 -0.15005124094E+03  0.40937157828E+02 -0.19948138825E+03  0.25295068700E+03  0.00000000000E+00 0.  1.
         21    1    1    2  504  501 -0.10142146411E+03  0.89919564940E+02 -0.76404100180E+02  0.15559379186E+03  0.00000000000E+00 0.  1.
<mgrwt>
<rscale>  4 0.30981769E+03</rscale>
<asrwt>0</asrwt>
<pdfrwt beam="1">  1       21 0.32951055E-01 0.30981769E+03</pdfrwt>
<pdfrwt beam="2">  1       21 0.77618015E-01 0.30981769E+03</pdfrwt>
<totfact> 0.12259564E+04</totfact>
</mgrwt>
</event>
<event>
 5    0  0.4187093E+000  0.2401471E+03  0.7546771E-02  0.1119695E+00
         21   -1    0    0  502  501  0.00000000000E+00  0.00000000000E+00  0.33762322140E+02  0.33762322140E+02  0.00000000000E+00 0. -1.
         21   -1    0    0  503  502 -0.00000000000E+00 -0.00000000000E+00 -0.16430315523E+04  0.16430315523E+04  0.00000000000E+00 0. -1.
         25    1    1    2    0    0  0.20497138526E+03  0.56866492947E+01 -0.61417014963E+03  0.65945096819E+03  0.12500000000E+03 0.  0.
         21    1    1    2  503  504 -0.18322284141E+03 -0.89318236136E+01 -0.78752963656E+03  0.80861196846E+03  0.00000000000E+00 0. -1.
         21    1    1    2  504  501 -0.21748543850E+02  0.32451743188E+01 -0.20756944402E+03  0.20873093783E+03  0.00000000000E+00 0. -1.
<mgrwt>
<rscale>  4 0.24014705E+03</rscale>
<asrwt>0</asrwt>
<pdfrwt beam="1">  1       21 0.51942038E-02 0.24014705E+03</pdfrwt>
<pdfrwt beam="2">  1       21 0.25277406E+00 0.24014705E+03</pdfrwt>
<totfact> 0.15522334E+04</totfact>
</mgrwt>
</event>
