<LesHouchesEvents version="3.0">
  <!--
  <scalesfunctionalform>
    muR  H_T/2 := sum_i mT(i)/2, i=final state
    muF1 H_T/2 := sum_i mT(i)/2, i=final state
    muF2 H_T/2 := sum_i mT(i)/2, i=final state
    QES  H_T/2 := sum_i mT(i)/2, i=final state
  </scalesfunctionalform>
HERWIG6   
  -->
  <header>
       21
  </header>
  <init>
   2212   2212 0.65000000D+04 0.65000000D+04 -1 -1   244800   244800 -4   1
 0.22264563D-04 0.88814335D-06 0.21010581D-05     66
  </init>
  <event>
  6     66 -.21010581E-05 0.15184744E+03 0.75467711E-02 0.95556267E-01
        1 -1    0    0  502    0 0.00000000E+00 0.00000000E+00 0.17389282E+04 0.17389282E+04 0.32000000E+00 0.0000E+00 0.9000E+01
       -3 -1    0    0    0  503 0.00000000E+00 0.00000000E+00 -.37320769E+03 0.37320802E+03 0.50000000E+00 0.0000E+00 0.9000E+01
       25  1    1    2    0    0 0.25733913E+03 -.36055184E+03 0.12923527E+03 0.47806674E+03 0.12500000E+03 0.0000E+00 0.9000E+01
        1  1    1    2  502    0 -.11437173E+03 0.11766074E+03 0.12887890E+04 0.12991929E+04 0.32000000E+00 0.0000E+00 0.9000E+01
       -3  1    1    2    0  501 -.15936716E+03 0.26103453E+03 -.43726356E+02 0.30894848E+03 0.50000000E+00 0.0000E+00 0.9000E+01
       21  1    1    2  501  503 0.16399764E+02 -.18143427E+02 -.85773834E+01 0.25928174E+02 0.75000000E+00 0.0000E+00 0.9000E+01
#aMCatNLO 2  0  0  2  5 0.24456823D+02 0.00000000D+00  -5  6  0 0.00000000D+00 0.00000000D+00 0.00000000D+00 0.00000000D+00 0.00000000D+00
  <mgrwgt>
 -.1195727919D-02    2    2    0
 0.784692826011487D+03 0.000000000000000D+00 0.000000000000000D+00 0.784692826011487D+03
 0.784692826011487D+03 0.000000000000000D+00 0.000000000000000D+00 -.784692826011487D+03
 0.529189788888104D+03 0.262850044723926D+03 -.366659520732955D+03 -.246753890562937D+03
 0.595854573399834D+03 -.108123963088254D+03 0.110749355283181D+03 0.575401130996410D+03
 0.444341289735036D+03 -.154726081635672D+03 0.255910165449773D+03 -.328647240433472D+03
 0.000000000000000D+00 0.000000000000000D+00 -.000000000000000D+00 -.000000000000000D+00
 0.788719650264304D+03 0.000000000000000D+00 0.000000000000000D+00 0.788719650264304D+03
 0.822822495936437D+03 0.000000000000000D+00 0.000000000000000D+00 -.822822495936437D+03
 0.522268417688191D+03 0.257356615103283D+03 -.360582016009066D+03 -.246753890562937D+03
 0.598337151041590D+03 -.114363115677242D+03 0.117651870096541D+03 0.575401130996410D+03
 0.448970635529095D+03 -.159393263041482D+03 0.261073573193175D+03 -.328647240433472D+03
 0.419659419418641D+02 0.163997636154415D+02 -.181434272806508D+02 -.341028456721325D+02
-.739688333101D-03 0.000000000000D+00 0.000000000000D+00 0.180617769935D-05 0.000000000000D+00  6 1 -3 25 1 -3 21 2 0.26616045D+00 0.59298366D-01 0.22787183D+06 0.22787183D+06 0.22787183D+06 0.10935000D+01  1  2 13  2  6  2       -3 -.844763629318D-03 0.100000000000D+01
-.256731566198D-03 0.000000000000D+00 0.000000000000D+00 0.180617769935D-05 0.000000000000D+00  6 1 -3 25 1 -3 21 2 0.26616045D+00 0.54755674D-01 0.21250531D+06 0.21250531D+06 0.21250531D+06 0.10958081D+01  1  2  8  2  6  2       -3 -.350964289258D-03 0.100000000000D+01
  </mgrwgt>
  </event>
  <event>
  6     66 0.21010581E-05 0.13815359E+02 0.75467711E-02 0.91514424E-01
        1 -1    0    0  502    0 0.00000000E+00 0.00000000E+00 0.19959673E+04 0.19959673E+04 0.32000000E+00 0.0000E+00 0.9000E+01
       -3 -1    0    0    0  501 0.00000000E+00 0.00000000E+00 -.88479149E+03 0.88479163E+03 0.50000000E+00 0.0000E+00 0.9000E+01
       25  1    1    2    0    0 -.10842380E+03 0.64179930E+03 0.22321983E+03 0.69936696E+03 0.12500000E+03 0.0000E+00 0.9000E+01
        1  1    1    2  502    0 -.14401330E+02 -.34347047E+01 0.13709834E+04 0.13710634E+04 0.32000000E+00 0.0000E+00 0.9000E+01
       -3  1    1    2    0  503 0.87449404E+02 -.39080870E+03 -.29105454E+03 0.49506750E+03 0.50000000E+00 0.0000E+00 0.9000E+01
       21  1    1    2  503  501 0.35375721E+02 -.24755590E+03 -.19197294E+03 0.31526106E+03 0.75000000E+00 0.0000E+00 0.9000E+01
#aMCatNLO 2  0  0  5  2 0.32054307D+02 0.00000000D+00  -5  6  0 0.00000000D+00 0.00000000D+00 0.00000000D+00 0.00000000D+00 0.00000000D+00
  <mgrwgt>
 0.2751452682D-02    1    2    0
 0.132891500512158D+04 0.000000000000000D+00 0.000000000000000D+00 0.132891500512158D+04
 0.132891500512158D+04 -.000000000000000D+00 -.000000000000000D+00 -.132891500512158D+04
 0.664791270564822D+03 -.108442610862637D+03 0.641894864710847D+03 -.503350397469592D+02
 0.912919743899250D+03 -.144134192592215D+02 -.336681443682844D+01 0.912799746224153D+03
 0.108011899577909D+04 0.122856030121858D+03 -.638528050274019D+03 -.862464706477194D+03
 0.000000000000000D+00 0.000000000000000D+00 0.000000000000000D+00 -.000000000000000D+00
 0.132891500512158D+04 0.000000000000000D+00 0.000000000000000D+00 0.132891500512158D+04
 0.132891500512158D+04 -.000000000000000D+00 -.000000000000000D+00 -.132891500512158D+04
 0.664747234617361D+03 -.108433139863706D+03 0.641845640440166D+03 -.504015273447189D+02
 0.912828500385613D+03 -.144004134984989D+02 -.343441016679247D+01 0.912708444156252D+03
 0.657739658092845D+03 0.873908633377272D+02 -.390514240411610D+03 -.521998968264232D+03
 0.422514617147344D+03 0.354426900244773D+02 -.247896989861763D+03 -.340307948547301D+03
0.324586512321D-01 0.000000000000D+00 0.000000000000D+00 0.467838442798D-04 0.723975348637D-06  6 1 -3 25 1 -3 21 2 0.30707190D+00 0.13612178D+00 0.44104808D+06 0.44104808D+06 0.44104808D+06 0.10723825D+01  1  2  1  4  6  5       -3 0.275145268170D-02 0.100000000000D+01
  </mgrwgt>
  </event>
  <event>
  5     66 -.21010581E-05 0.12135660E+02 0.75467711E-02 0.94617813E-01
        1 -1    0    0  502    0 0.00000000E+00 0.00000000E+00 0.10155641E+04 0.10155641E+04 0.32000000E+00 0.0000E+00 0.9000E+01
       -3 -1    0    0    0  501 0.00000000E+00 0.00000000E+00 -.41145440E+03 0.41145470E+03 0.50000000E+00 0.0000E+00 0.9000E+01
       25  1    1    2    0    0 0.30649005E+03 -.37036508E+03 0.81638611E+02 0.50338485E+03 0.12500000E+03 0.0000E+00 0.9000E+01
        1  1    1    2  502    0 0.10707393E+02 -.57278225E+01 0.42113484E+03 0.42131000E+03 0.32000000E+00 0.0000E+00 0.9000E+01
       -3  1    1    2    0  501 -.31719744E+03 0.37609291E+03 0.10133621E+03 0.50232397E+03 0.50000000E+00 0.0000E+00 0.9000E+01
#aMCatNLO 1  0  0  5  2 0.97627621D+01 0.00000000D+00  -5  6  0 0.00000000D+00 0.00000000D+00 0.00000000D+00 0.00000000D+00 0.00000000D+00
  <mgrwgt>
 -.1560124726D-03    8    2    0
 0.646419796353306D+03 0.000000000000000D+00 0.000000000000000D+00 0.646419796353306D+03
 0.646419796353306D+03 -.000000000000000D+00 -.000000000000000D+00 -.646419796353306D+03
 0.517565982714733D+03 0.306563947205857D+03 -.370451365174200D+03 -.145030613242870D+03
 0.268085343648317D+03 0.107007838898887D+02 -.572428690192291D+01 0.267810524891466D+03
 0.507188266343563D+03 -.317264731095745D+03 0.376175652076123D+03 -.122779911648596D+03
 0.000000000000000D+00 0.000000000000000D+00 0.000000000000000D+00 -.000000000000000D+00
 0.646419796353306D+03 0.000000000000000D+00 0.000000000000000D+00 0.646419796353306D+03
 0.646419796353306D+03 -.000000000000000D+00 -.000000000000000D+00 -.646419796353306D+03
 0.517261982248198D+03 0.306335781201145D+03 -.370180832438627D+03 -.145118912379692D+03
 0.268031995386005D+03 0.105825770425230D+02 -.558413095791339D+01 0.267764779415044D+03
 0.447918834369756D+03 -.287206201911227D+03 0.327852336939417D+03 -.103231414454375D+03
 0.596267807026531D+02 -.297121563324411D+02 0.479126264571236D+02 -.194144525809770D+02
0.283643928837D-05 0.000000000000D+00 0.000000000000D+00 0.141185934564D-05 0.000000000000D+00  6 1 -3 25 1 -3 21 0 0.15624065D+00 0.63300704D-01 0.25053476D+06 0.25053476D+06 0.25053476D+06 0.10903893D+01  1  2  2  4  6  5       -3 0.729029874007D-05 0.100000000000D+01
0.231420423637D-05 0.000000000000D+00 -.108926737189D-07 0.141185934564D-05 0.000000000000D+00  6 1 -3 25 1 -3 21 2 0.15624065D+00 0.63300704D-01 0.25053476D+06 0.25053476D+06 0.25053476D+06 0.10903893D+01  1  2  3  4  6  5       -3 0.707190929324D-05 0.100000000000D+01
-.191156608943D-05 0.000000000000D+00 0.000000000000D+00 0.141185934564D-05 0.000000000000D+00  6 1 -3 25 1 -3 21 2 0.15624065D+00 0.63300704D-01 0.25053476D+06 0.25053476D+06 0.25053476D+06 0.10903893D+01  1  2 15  4  6  5       -3 -.584149911232D-05 0.100000000000D+01
0.362137566610D-03 0.000000000000D+00 0.000000000000D+00 0.141185934564D-05 0.000000000000D+00  6 1 -3 25 1 -3 21 2 0.15624065D+00 0.63300704D-01 0.25034608D+06 0.25034608D+06 0.25034608D+06 0.10904139D+01  1  2 12  4  6  5       -3 0.110672305592D-02 0.100000000000D+01
-.461049508359D-03 0.000000000000D+00 0.000000000000D+00 0.141185934564D-05 0.000000000000D+00  6 1 -3 25 1 -3 21 2 0.15624065D+00 0.63300704D-01 0.25053476D+06 0.25053476D+06 0.25053476D+06 0.10903893D+01  1  2  4  4  6  5       -3 -.140890775825D-02 0.100000000000D+01
-.362037143670D-03 0.000000000000D+00 0.000000000000D+00 0.141185934564D-05 0.000000000000D+00  6 1 -3 25 1 -3 21 2 0.15624065D+00 0.63300704D-01 0.25053476D+06 0.25053476D+06 0.25053476D+06 0.10903893D+01  1  2  5  4  6  5       -3 -.110633875808D-02 0.100000000000D+01
0.407081908879D-03 0.000000000000D+00 -.000000000000D+00 0.141185934564D-05 0.000000000000D+00  6 1 -3 25 1 -3 21 2 0.15624065D+00 0.63300704D-01 0.25053476D+06 0.25053476D+06 0.25053476D+06 0.10903893D+01  1  2  6  4  6  5       -3 0.124398974354D-02 0.100000000000D+01
0.175180170259D-09 0.000000000000D+00 0.000000000000D+00 0.141185934564D-05 0.823229419650D-07  6 1 -3 25 1 -3 21 2 0.15624065D+00 0.63300704D-01 0.25034608D+06 0.25034608D+06 0.25034608D+06 0.10904139D+01  1  2 11  4  6  5       -3 0.535365428064D-09 0.100000000000D+01
  </mgrwgt>
  </event>
  <event>
  5     66 -.21010581E-05 0.25192558E+02 0.75467711E-02 0.91647608E-01
        1 -1    0    0  502    0 0.00000000E+00 0.00000000E+00 0.30546435E+04 0.30546435E+04 0.32000000E+00 0.0000E+00 0.9000E+01
       -3 -1    0    0    0  501 0.00000000E+00 0.00000000E+00 -.30061792E+03 0.30061833E+03 0.50000000E+00 0.0000E+00 0.9000E+01
       25  1    1    2    0    0 -.59676231E+03 0.16645723E+03 0.10643608E+04 0.12378700E+04 0.12500000E+03 0.0000E+00 0.9000E+01
        1  1    1    2  502    0 0.61598324E+03 -.18273943E+03 0.18482867E+04 0.19567813E+04 0.32000000E+00 0.0000E+00 0.9000E+01
       -3  1    1    2    0  501 -.19220924E+02 0.16282196E+02 -.15862198E+03 0.16061051E+03 0.50000000E+00 0.0000E+00 0.9000E+01
#aMCatNLO 1  0  0  2  2 0.10338792D+02 0.00000000D+00  -5  6  0 0.00000000D+00 0.00000000D+00 0.00000000D+00 0.00000000D+00 0.00000000D+00
  <mgrwgt>
 -.5145041525D-03    7    4    0
 0.958269938384582D+03 0.000000000000000D+00 0.000000000000000D+00 0.958269938384582D+03
 0.958269938384582D+03 0.000000000000000D+00 0.000000000000000D+00 -.958269938384582D+03
 0.637639590510382D+03 -.596732332757760D+03 0.166447291037183D+03 0.846467349288353D+02
 0.769729117976509D+03 0.615954860742472D+03 -.182731007417809D+03 0.423900818018425D+03
 0.509171168282273D+03 -.192225279847115D+02 0.162837163806259D+02 -.508547552947260D+03
 0.000000000000000D+00 0.000000000000000D+00 -.000000000000000D+00 -.000000000000000D+00
 0.958406206441875D+03 0.000000000000000D+00 0.000000000000000D+00 0.958406206441875D+03
 0.117674012222569D+04 0.000000000000000D+00 0.000000000000000D+00 -.117674012222569D+04
 0.640971406299815D+03 -.600134684287246D+03 0.167010881906832D+03 0.846467349288353D+02
 0.766301122403054D+03 0.611867523115367D+03 -.182053950344827D+03 0.423900818018425D+03
 0.509295234218291D+03 -.219326413271767D+02 0.167326397567939D+02 -.508547552947260D+03
 0.218578565746400D+03 0.101998024990561D+02 -.168957131879878D+01 -.218333915783811D+03
 0.958269938384582D+03 0.000000000000000D+00 0.000000000000000D+00 0.958269938384582D+03
 0.958269938384582D+03 0.000000000000000D+00 0.000000000000000D+00 -.958269938384582D+03
 0.637639590510382D+03 -.596732332757760D+03 0.166447291037183D+03 0.846467349288353D+02
 0.769729117976509D+03 0.615954860742472D+03 -.182731007417809D+03 0.423900818018425D+03
 0.000000000000000D+00 0.000000000000000D+00 -.000000000000000D+00 -.000000000000000D+00
 0.509171168282273D+03 -.192225279847115D+02 0.162837163806259D+02 -.508547552947260D+03
 0.958406206441875D+03 0.000000000000000D+00 0.000000000000000D+00 0.958406206441875D+03
 0.117674012222569D+04 0.000000000000000D+00 0.000000000000000D+00 -.117674012222569D+04
 0.640971406299815D+03 -.600134684287246D+03 0.167010881906832D+03 0.846467349288353D+02
 0.766301122403054D+03 0.611867523115367D+03 -.182053950344827D+03 0.423900818018425D+03
 0.218578565746400D+03 0.101998024990561D+02 -.168957131879878D+01 -.218333915783811D+03
 0.509295234218291D+03 -.219326413271767D+02 0.167326397567939D+02 -.508547552947260D+03
0.213845009446D-04 0.000000000000D+00 0.000000000000D+00 0.525854496609D-05 0.000000000000D+00  6 1 -3 25 1 -3 21 0 0.46994518D+00 0.46248943D-01 0.42229000D+06 0.42229000D+06 0.42229000D+06 0.10737340D+01  1  2  2  2  6  2       -3 0.403794346364D-05 0.100000000000D+01
0.150366269598D-04 0.000000000000D+00 -.821221142957D-07 0.525854496609D-05 0.000000000000D+00  6 1 -3 25 1 -3 21 2 0.46994518D+00 0.46248943D-01 0.42229000D+06 0.42229000D+06 0.42229000D+06 0.10737340D+01  1  2  3  2  6  2       -3 0.327344410186D-05 0.100000000000D+01
-.147674680127D-04 0.000000000000D+00 0.000000000000D+00 0.525854496609D-05 0.000000000000D+00  6 1 -3 25 1 -3 21 2 0.46994518D+00 0.46248943D-01 0.42229000D+06 0.42229000D+06 0.42229000D+06 0.10737340D+01  1  2 15  2  6  2       -3 -.321484872868D-05 0.100000000000D+01
-.343248186214D-02 0.000000000000D+00 0.000000000000D+00 0.525854496609D-05 0.000000000000D+00  6 1 -3 25 1 -3 21 2 0.46994518D+00 0.46248943D-01 0.42229000D+06 0.42229000D+06 0.42229000D+06 0.10737340D+01  1  2  4  2  6  2       -3 -.747244547356D-03 0.100000000000D+01
-.192515007272D-01 0.000000000000D+00 -.263925701630D-04 0.525854496609D-05 0.000000000000D+00  6 1 -3 25 1 -3 21 2 0.46994518D+00 0.56796395D-01 0.42229000D+06 0.42229000D+06 0.42229000D+06 0.10737340D+01  1  2  5  2  6  2       -3 -.271019362488D-02 0.100000000000D+01
0.188581314513D-01 0.000000000000D+00 0.258452724286D-04 0.525854496609D-05 0.000000000000D+00  6 1 -3 25 1 -3 21 2 0.46994518D+00 0.46248943D-01 0.42229000D+06 0.42229000D+06 0.42229000D+06 0.10737340D+01  1  2  6  2  6  2       -3 0.410537811014D-02 0.100000000000D+01
-.562014281774D-03 0.000000000000D+00 -.770921771582D-06 0.525854496609D-05 0.000000000000D+00  6 1 21 25 1 3 -3 2 0.46994518D+00 0.56796395D-01 0.42229000D+06 0.42229000D+06 0.42229000D+06 0.10737340D+01  3  4  5  6  5  2       -3 -.116654062925D-02 0.100000000000D+01
  </mgrwgt>
  </event>
  <event>
  5     66 0.21010581E-05 0.62263265E+02 0.75467711E-02 0.92373351E-01
        1 -1    0    0  502    0 0.00000000E+00 0.00000000E+00 0.11040563E+04 0.11040563E+04 0.32000000E+00 0.0000E+00 0.9000E+01
       -3 -1    0    0    0  501 0.00000000E+00 0.00000000E+00 -.64982368E+03 0.64982388E+03 0.50000000E+00 0.0000E+00 0.9000E+01
       25  1    1    2    0    0 -.27439449E+03 0.40430887E+03 0.34935828E+02 0.50557246E+03 0.12500000E+03 0.0000E+00 0.9000E+01
        1  1    1    2  502    0 0.59222446E+02 -.19251810E+02 0.71471416E+03 0.71742202E+03 0.32000000E+00 0.0000E+00 0.9000E+01
       -3  1    1    2    0  501 0.21517205E+03 -.38505706E+03 -.29541739E+03 0.53088571E+03 0.50000000E+00 0.0000E+00 0.9000E+01
#aMCatNLO 1  0  0  4  1 0.13399793D+01 0.00000000D+00  -5  6  0 0.00000000D+00 0.00000000D+00 0.00000000D+00 0.00000000D+00 0.00000000D+00
  <mgrwgt>
 0.1091971246D-02    6    2    0
 0.847019554619003D+03 0.000000000000000D+00 0.000000000000000D+00 0.847019554619003D+03
 0.847019554619003D+03 -.000000000000000D+00 -.000000000000000D+00 -.847019554619003D+03
 0.514109871828722D+03 -.274423162326081D+03 0.404365783148170D+03 -.993186876155019D+02
 0.551037602463797D+03 0.592131588408135D+02 -.192487908470153D+02 0.547508653082369D+03
 0.628891634945487D+03 0.215210003485267D+03 -.385116992301154D+03 -.448189965466867D+03
 0.000000000000000D+00 0.000000000000000D+00 0.000000000000000D+00 0.000000000000000D+00
 0.847019554619003D+03 0.000000000000000D+00 0.000000000000000D+00 0.847019554619003D+03
 0.847019554619003D+03 -.000000000000000D+00 -.000000000000000D+00 -.847019554619003D+03
 0.508392440055187D+03 -.272028227556198D+03 0.403587246765714D+03 -.771741586670714D+02
 0.246390533725102D+03 -.441263236661415D+01 -.142150012198253D+03 0.201201883234165D+03
 0.611662550410624D+03 0.218115665719868D+03 -.386061554045888D+03 -.421323045215997D+03
 0.327593585047093D+03 0.583251942029452D+02 0.124624319478428D+03 0.297295320648904D+03
0.128072987510D-02 0.000000000000D+00 0.000000000000D+00 0.804642992066D-05 0.000000000000D+00  6 1 -3 25 1 -3 21 0 0.16985483D+00 0.99972893D-01 0.25394436D+06 0.25394436D+06 0.25394436D+06 0.10899480D+01  1  2  2  3  6  4        1 0.946212586415D-03 0.100000000000D+01
0.427029498161D-03 0.000000000000D+00 -.491833994429D-05 0.804642992066D-05 0.000000000000D+00  6 1 -3 25 1 -3 21 2 0.16985483D+00 0.99972893D-01 0.25394436D+06 0.25394436D+06 0.25394436D+06 0.10899480D+01  1  2  3  3  6  4        1 0.374800906163D-03 0.100000000000D+01
-.768832909942D-03 0.000000000000D+00 0.000000000000D+00 0.804642992066D-05 0.000000000000D+00  6 1 -3 25 1 -3 21 2 0.16985483D+00 0.99972893D-01 0.25394436D+06 0.25394436D+06 0.25394436D+06 0.10899480D+01  1  2 15  3  6  4        1 -.674799451971D-03 0.100000000000D+01
-.487061003857D-04 0.000000000000D+00 0.000000000000D+00 0.804642992066D-05 0.000000000000D+00  6 1 -3 25 1 -3 21 2 0.16985483D+00 0.99972893D-01 0.25394436D+06 0.25394436D+06 0.25394436D+06 0.10899480D+01  1  2  4  3  6  4        1 -.427490153229D-04 0.100000000000D+01
-.775632216237D-03 0.000000000000D+00 0.000000000000D+00 0.804642992066D-05 0.000000000000D+00  6 1 -3 25 1 -3 21 2 0.16985483D+00 0.99972893D-01 0.25394436D+06 0.25394436D+06 0.25394436D+06 0.10899480D+01  1  2  5  3  6  4        1 -.680767157179D-03 0.100000000000D+01
0.133221189095D-02 0.000000000000D+00 -.000000000000D+00 0.804642992066D-05 0.000000000000D+00  6 1 -3 25 1 -3 21 2 0.16985483D+00 0.99972893D-01 0.25394436D+06 0.25394436D+06 0.25394436D+06 0.10899480D+01  1  2  6  3  6  4        1 0.116927337826D-02 0.100000000000D+01
  </mgrwgt>
  </event>
  <event>
  6     66 0.21010581E-05 0.73349247E+02 0.75467711E-02 0.92351385E-01
        1 -1    0    0  502    0 0.00000000E+00 0.00000000E+00 0.14578497E+04 0.14578497E+04 0.32000000E+00 0.0000E+00 0.9000E+01
       21 -1    0    0  503  501 0.00000000E+00 0.00000000E+00 -.54255367E+03 0.54255419E+03 0.75000000E+00 0.0000E+00 0.9000E+01
       25  1    1    2    0    0 0.10089691E+02 -.52759404E+03 0.45149648E+03 0.70564250E+03 0.12500000E+03 0.0000E+00 0.9000E+01
        1  1    1    2  502    0 0.35787511E+02 0.59751994E+03 0.76643987E+03 0.97249216E+03 0.32000000E+00 0.0000E+00 0.9000E+01
        3  1    1    2  503    0 -.48508091E+02 -.60922015E+02 -.30302068E+03 0.31286788E+03 0.50000000E+00 0.0000E+00 0.9000E+01
       -3  1    1    2    0  501 0.26308885E+01 -.90038801E+01 0.38036795E+00 0.94013888E+01 0.50000000E+00 0.0000E+00 0.9000E+01
#aMCatNLO 2  0  0  2  5 0.30047864D+02 0.00000000D+00  -5  6  0 0.00000000D+00 0.00000000D+00 0.00000000D+00 0.00000000D+00 0.00000000D+00
  <mgrwgt>
 0.5114798027D-03    1    2    0
 0.582541366475351D+03 0.000000000000000D+00 0.000000000000000D+00 0.582541366475351D+03
 0.582541366475351D+03 0.000000000000000D+00 0.000000000000000D+00 -.582541366475351D+03
 0.577538364633052D+03 -.132549597843132D+02 -.557389975827604D+03 -.840611890888958D+02
 0.574442027252067D+03 0.112479898777675D+02 0.566751278429355D+03 0.930059879570381D+02
 0.000000000000000D+00 -.000000000000000D+00 -.000000000000000D+00 -.000000000000000D+00
 0.131023410655827D+02 0.200696990654566D+01 -.936130260175116D+01 -.894479886814236D+01
 0.585819633261856D+03 0.000000000000000D+00 0.000000000000000D+00 0.585819633261856D+03
 0.135018016267420D+04 0.000000000000000D+00 0.000000000000000D+00 -.135018016267420D+04
 0.549129345453854D+03 0.101732447755664D+02 -.527966153856737D+03 -.840611890888958D+02
 0.605827467620945D+03 0.357908030906693D+02 0.597574953576760D+03 0.930059879570381D+02
 0.768317347040245D+03 -.485080910557462D+02 -.609220152454667D+02 -.764360529412344D+03
 0.127256358210114D+02 0.254404318951060D+01 -.868678447455624D+01 -.894479886814236D+01
0.470534893889D-04 0.000000000000D+00 0.000000000000D+00 0.179030194490D-07 0.976090509497D-10  6 1 21 25 1 3 -3 2 0.22428458D+00 0.83469827D-01 0.37713702D+06 0.37713702D+06 0.37713702D+06 0.10772751D+01  1  2  1  6  5  2       -3 0.511479802671D-03 0.100000000000D+01
  </mgrwgt>
  </event>
  <event>
  5     66 0.21010581E-05 0.96702670E+02 0.75467711E-02 0.91108115E-01
        1 -1    0    0  502    0 0.00000000E+00 0.00000000E+00 0.20693663E+04 0.20693664E+04 0.32000000E+00 0.0000E+00 0.9000E+01
       -3 -1    0    0    0  501 0.00000000E+00 0.00000000E+00 -.36767388E+03 0.36767422E+03 0.50000000E+00 0.0000E+00 0.9000E+01
       25  1    1    2    0    0 0.19760594E+03 0.45952485E+03 0.47729658E+03 0.70260104E+03 0.12500000E+03 0.0000E+00 0.9000E+01
        1  1    1    2  502    0 -.95332411E+01 0.96255867E+02 0.11371406E+04 0.11412471E+04 0.32000000E+00 0.0000E+00 0.9000E+01
       -3  1    1    2    0  501 -.18807270E+03 -.55578072E+03 0.87255270E+02 0.59319245E+03 0.50000000E+00 0.0000E+00 0.9000E+01
#aMCatNLO 1  0  0  2  2 0.17140023D+03 0.00000000D+00  -5  6  0 0.00000000D+00 0.00000000D+00 0.00000000D+00 0.00000000D+00 0.00000000D+00
  <mgrwgt>
 0.2198174400D-03    7    4    0
 0.872268536588838D+03 0.000000000000000D+00 0.000000000000000D+00 0.872268536588838D+03
 0.872268536588838D+03 0.000000000000000D+00 0.000000000000000D+00 -.872268536588838D+03
 0.516025046546955D+03 0.197635112673620D+03 0.459623608498740D+03 -.185296900370651D+02
 0.484937000423168D+03 -.953086241581122D+01 0.962318503185462D+02 0.475197314833848D+03
 0.743575026207553D+03 -.188104250257809D+03 -.555855458817286D+03 -.456667624796783D+03
 0.000000000000000D+00 0.000000000000000D+00 0.000000000000000D+00 -.000000000000000D+00
 0.956144486762566D+03 0.000000000000000D+00 0.000000000000000D+00 0.956144486762566D+03
 0.968648063245820D+03 0.000000000000000D+00 0.000000000000000D+00 -.968648063245820D+03
 0.476138935227631D+03 0.158434126038950D+03 0.430857939387342D+03 -.185296900370651D+02
 0.482433374808120D+03 -.477522389693021D+02 0.681850187128472D+02 0.475197314833848D+03
 0.794364550823577D+03 -.248869153954771D+03 -.600444722083095D+03 -.456667624796783D+03
 0.171855689149058D+03 0.138187266885123D+03 0.101401763982905D+03 -.125035764832546D+02
 0.872268536588838D+03 0.000000000000000D+00 0.000000000000000D+00 0.872268536588838D+03
 0.872268536588838D+03 0.000000000000000D+00 0.000000000000000D+00 -.872268536588838D+03
 0.516025046546955D+03 0.197635112673620D+03 0.459623608498740D+03 -.185296900370651D+02
 0.484937000423168D+03 -.953086241581122D+01 0.962318503185462D+02 0.475197314833848D+03
 0.000000000000000D+00 0.000000000000000D+00 0.000000000000000D+00 -.000000000000000D+00
 0.743575026207553D+03 -.188104250257809D+03 -.555855458817286D+03 -.456667624796783D+03
 0.956144486762566D+03 0.000000000000000D+00 0.000000000000000D+00 0.956144486762566D+03
 0.968648063245820D+03 0.000000000000000D+00 0.000000000000000D+00 -.968648063245820D+03
 0.476138935227631D+03 0.158434126038950D+03 0.430857939387342D+03 -.185296900370651D+02
 0.482433374808120D+03 -.477522389693021D+02 0.681850187128472D+02 0.475197314833848D+03
 0.171855689149058D+03 0.138187266885123D+03 0.101401763982905D+03 -.125035764832546D+02
 0.794364550823577D+03 -.248869153954771D+03 -.600444722083095D+03 -.456667624796783D+03
0.311498602663D-03 0.000000000000D+00 0.000000000000D+00 0.101984253924D-05 0.000000000000D+00  6 1 -3 25 1 -3 21 0 0.31836408D+00 0.56565241D-01 0.35952951D+06 0.35952951D+06 0.35952951D+06 0.10787832D+01  1  2  2  2  6  2       -3 0.191631055210D-03 0.100000000000D+01
0.674720024640D-04 0.000000000000D+00 -.119623665369D-05 0.101984253924D-05 0.000000000000D+00  6 1 -3 25 1 -3 21 2 0.31836408D+00 0.56565241D-01 0.35952951D+06 0.35952951D+06 0.35952951D+06 0.10787832D+01  1  2  3  2  6  2       -3 0.483060723015D-04 0.100000000000D+01
-.212185358656D-03 0.000000000000D+00 0.000000000000D+00 0.101984253924D-05 0.000000000000D+00  6 1 -3 25 1 -3 21 2 0.31836408D+00 0.56565241D-01 0.35952951D+06 0.35952951D+06 0.35952951D+06 0.10787832D+01  1  2 15  2  6  2       -3 -.151912510408D-03 0.100000000000D+01
-.220936927525D-04 0.000000000000D+00 0.000000000000D+00 0.101984253924D-05 0.000000000000D+00  6 1 -3 25 1 -3 21 2 0.31836408D+00 0.56565241D-01 0.35952951D+06 0.35952951D+06 0.35952951D+06 0.10787832D+01  1  2  4  2  6  2       -3 -.158178130266D-04 0.100000000000D+01
-.105819309777D-02 0.000000000000D+00 -.381277431943D-03 0.101984253924D-05 0.000000000000D+00  6 1 -3 25 1 -3 21 2 0.31836408D+00 0.69422453D-01 0.35952951D+06 0.35952951D+06 0.35952951D+06 0.10787832D+01  1  2  5  2  6  2       -3 -.480056158198D-03 0.100000000000D+01
0.112055874825D-02 0.000000000000D+00 0.373417679054D-03 0.101984253924D-05 0.000000000000D+00  6 1 -3 25 1 -3 21 2 0.31836408D+00 0.56565241D-01 0.35952951D+06 0.35952951D+06 0.35952951D+06 0.10787832D+01  1  2  6  2  6  2       -3 0.802255601348D-03 0.100000000000D+01
-.262645148742D-04 0.000000000000D+00 -.111114311781D-04 0.101984253924D-05 0.000000000000D+00  6 1 21 25 1 3 -3 2 0.31836408D+00 0.69422453D-01 0.35952951D+06 0.35952951D+06 0.35952951D+06 0.10787832D+01  3  4  5  6  5  2       -3 -.174588807227D-03 0.100000000000D+01
  </mgrwgt>
  </event>
  <event>
  6     66 0.21010581E-05 0.15602626E+02 0.75467711E-02 0.92518497E-01
        3 -1    0    0  503    0 0.00000000E+00 0.00000000E+00 0.17359190E+04 0.17359190E+04 0.50000000E+00 0.0000E+00 0.9000E+01
       -1 -1    0    0    0  501 0.00000000E+00 0.00000000E+00 -.97596076E+03 0.97596081E+03 0.32000000E+00 0.0000E+00 0.9000E+01
       25  1    1    2    0    0 -.18605508E+03 -.55350213E+03 0.18233715E+03 0.62438204E+03 0.12500000E+03 0.0000E+00 0.9000E+01
        3  1    1    2  502    0 0.20011262E+03 0.51946175E+03 0.11566533E+04 0.12836404E+04 0.50000000E+00 0.0000E+00 0.9000E+01
       -1  1    1    2    0  501 -.22959396E+02 0.27811978E+01 -.68889608E+03 0.68928426E+03 0.32000000E+00 0.0000E+00 0.9000E+01
       21  1    1    2  503  502 0.89018623E+01 0.31259176E+02 0.10986381E+03 0.11457312E+03 0.75000000E+00 0.0000E+00 0.9000E+01
#aMCatNLO 2  0  0  1  1 0.32501988D+02 0.00000000D+00  -5  6  0 0.00000000D+00 0.00000000D+00 0.00000000D+00 0.00000000D+00 0.00000000D+00
  <mgrwgt>
 0.2499020658D-03    4    2    0
 0.125721150947721D+04 0.000000000000000D+00 0.000000000000000D+00 0.125721150947721D+04
 0.125721150947721D+04 0.000000000000000D+00 0.000000000000000D+00 -.125721150947721D+04
 0.590250240451085D+03 -.183934077761966D+03 -.546081661412746D+03 0.270817366339977D+02
 0.103399691781731D+04 0.203745883497221D+03 0.532233294734421D+03 0.862765878433872D+03
 0.890175860686035D+03 -.198118057352548D+02 0.138483666783247D+02 -.889847615067869D+03
 0.000000000000000D+00 0.000000000000000D+00 0.000000000000000D+00 0.000000000000000D+00
 0.134421151900109D+04 0.000000000000000D+00 0.000000000000000D+00 0.134421151900109D+04
 0.126035577819438D+04 0.000000000000000D+00 0.000000000000000D+00 -.126035577819438D+04
 0.597739594218394D+03 -.186036922052372D+03 -.553465866761932D+03 0.270817366339977D+02
 0.102674527586805D+04 0.200098192389497D+03 0.519424310106923D+03 0.862765878433872D+03
 0.890148204034250D+03 -.229631326113900D+02 0.278238101216783D+01 -.889847615067869D+03
 0.899342230747681D+02 0.890186227426480D+01 0.312591756428412D+02 0.838557408067103D+02
-.761014881826D-02 0.000000000000D+00 0.000000000000D+00 0.635846528040D-04 0.000000000000D+00  6 3 -1 25 3 -1 21 2 0.24977922D+00 0.14977305D+00 0.35028609D+06 0.35028609D+06 0.35028609D+06 0.10796074D+01  1  2  8  1  6  1        3 -.100284830432D-03 0.100000000000D+01
-.121412131640D-02 0.000000000000D+00 0.000000000000D+00 0.635846528040D-04 0.000000000000D+00  6 3 -1 25 3 -1 21 2 0.26730937D+00 0.14977305D+00 0.35028609D+06 0.35028609D+06 0.35028609D+06 0.10796074D+01  1  2  9  1  6  1        3 -.111460613180D-04 0.100000000000D+01
0.121133369008D-02 0.000000000000D+00 0.000000000000D+00 0.635846528040D-04 0.000000000000D+00  6 3 -1 25 3 -1 21 2 0.24977922D+00 0.14977305D+00 0.35028609D+06 0.35028609D+06 0.35028609D+06 0.10796074D+01  1  2 10  1  6  1        3 0.159626830707D-04 0.100000000000D+01
0.379462513075D-01 0.000000000000D+00 0.000000000000D+00 0.635846528040D-04 0.273669885855D-05  6 3 -1 25 3 -1 21 2 0.26706413D+00 0.15014763D+00 0.36565749D+06 0.36565749D+06 0.36565749D+06 0.10782494D+01  1  2  1  1  6  1        3 0.345370274520D-03 0.100000000000D+01
  </mgrwgt>
  </event>
  <event>
  6     66 0.21010581E-05 0.10049296E+03 0.75467711E-02 0.92007515E-01
       21 -1    0    0  502  503 0.00000000E+00 0.00000000E+00 0.11986772E+04 0.11986774E+04 0.75000000E+00 0.0000E+00 0.9000E+01
       -1 -1    0    0    0  501 0.00000000E+00 0.00000000E+00 -.93498150E+03 0.93498156E+03 0.32000000E+00 0.0000E+00 0.9000E+01
       25  1    1    2    0    0 0.57805597E+03 -.66882252E+01 0.18050257E+03 0.61838468E+03 0.12500000E+03 0.0000E+00 0.9000E+01
        3  1    1    2  502    0 -.46741735E+03 0.12345338E+03 0.67707860E+03 0.83195878E+03 0.50000000E+00 0.0000E+00 0.9000E+01
       -1  1    1    2    0  501 -.48241422E+02 -.12153321E+03 -.60567911E+03 0.61963283E+03 0.32000000E+00 0.0000E+00 0.9000E+01
       -3  1    1    2    0  503 -.62397194E+02 0.47680540E+01 0.11793588E+02 0.63682674E+02 0.50000000E+00 0.0000E+00 0.9000E+01
#aMCatNLO 2  0  0  1  5 0.62579104D+02 0.00000000D+00  -5  6  0 0.00000000D+00 0.00000000D+00 0.00000000D+00 0.00000000D+00 0.00000000D+00
  <mgrwgt>
 0.2024817824D-04    1    2    0
 0.102681924129432D+04 0.000000000000000D+00 0.000000000000000D+00 0.102681924129432D+04
 0.102681924129432D+04 0.000000000000000D+00 0.000000000000000D+00 -.102681924129432D+04
 0.583571862192228D+03 0.560015121722980D+03 -.527046468505144D+01 0.106237488609736D+03
 0.769905514579756D+03 -.490513068264221D+03 0.125205823120638D+03 0.580064593902284D+03
 0.700161105816649D+03 -.695020534587593D+02 -.119935358435586D+03 -.686302082512020D+03
 0.000000000000000D+00 -.000000000000000D+00 0.000000000000000D+00 0.000000000000000D+00
 0.106068871187780D+04 0.000000000000000D+00 0.000000000000000D+00 0.106068871187780D+04
 0.105661459718002D+04 0.000000000000000D+00 0.000000000000000D+00 -.105661459718002D+04
 0.600870324776397D+03 0.578004831571233D+03 -.664514041229870D+01 0.106237488609736D+03
 0.755068570214905D+03 -.467351244400303D+03 0.123435922586773D+03 0.580064593902284D+03
 0.698652831211864D+03 -.482563927285901D+02 -.121558836210462D+03 -.686302082512020D+03
 0.627115828546518D+02 -.623971944423395D+02 0.476805403598784D+01 0.407411469777582D+01
0.322203393798D-04 0.000000000000D+00 0.000000000000D+00 0.176376289715D-05 0.153901193883D-10  6 21 -1 25 3 -1 -3 2 0.18441172D+00 0.14384320D+00 0.40204946D+06 0.40204946D+06 0.40204946D+06 0.10752677D+01  1  2  1  5  6  1        3 0.202481782412D-04 0.100000000000D+01
  </mgrwgt>
  </event>
  <event>
  5     66 0.21010581E-05 0.50952738E+02 0.75467711E-02 0.94123823E-01
        1 -1    0    0  502    0 0.00000000E+00 0.00000000E+00 0.15348079E+04 0.15348079E+04 0.32000000E+00 0.0000E+00 0.9000E+01
       -3 -1    0    0    0  501 0.00000000E+00 0.00000000E+00 -.98321905E+03 0.98321918E+03 0.50000000E+00 0.0000E+00 0.9000E+01
       25  1    1    2    0    0 -.25205304E+03 -.37807798E+03 -.42854590E+02 0.47321793E+03 0.12500000E+03 0.0000E+00 0.9000E+01
        1  1    1    2  502    0 -.40845791E+02 -.30463452E+02 0.12319217E+04 0.12329751E+04 0.32000000E+00 0.0000E+00 0.9000E+01
       -3  1    1    2    0  501 0.29289884E+03 0.40854143E+03 -.63747825E+03 0.81183410E+03 0.50000000E+00 0.0000E+00 0.9000E+01
#aMCatNLO 1  0  0  1  2 0.17698599D+02 0.00000000D+00  -5  6  0 0.00000000D+00 0.00000000D+00 0.00000000D+00 0.00000000D+00 0.00000000D+00
  <mgrwgt>
 0.4215598991D-03    7    2    0
 0.122843500942231D+04 0.000000000000000D+00 0.000000000000000D+00 0.122843500942231D+04
 0.122843500942231D+04 0.000000000000000D+00 0.000000000000000D+00 -.122843500942231D+04
 0.494652111863903D+03 -.252079272055110D+03 -.378114433155822D+03 -.150137363140681D+03
 0.987047732771054D+03 -.408440680202832D+02 -.304621668951131D+02 0.985731730880206D+03
 0.975170174209672D+03 0.292923340075393D+03 0.408576600050935D+03 -.835594367739525D+03
 0.000000000000000D+00 0.000000000000000D+00 0.000000000000000D+00 0.000000000000000D+00
 0.130731701831264D+04 0.000000000000000D+00 0.000000000000000D+00 0.130731701831264D+04
 0.122946003409710D+04 0.000000000000000D+00 0.000000000000000D+00 -.122946003409710D+04
 0.497880295533182D+03 -.253468123698085D+03 -.381408535743951D+03 -.150137363140681D+03
 0.987389854507830D+03 -.436069006155800D+02 -.370151015075061D+02 0.985731730880206D+03
 0.971663615836831D+03 0.290199133502635D+03 0.402115279313543D+03 -.835594367739525D+03
 0.798432865318942D+02 0.687589081103043D+01 0.163083579379140D+02 0.778569842155335D+02
0.253341170727D-03 0.000000000000D+00 0.000000000000D+00 0.628906429609D-04 0.000000000000D+00  6 1 -3 25 1 -3 21 0 0.23612430D+00 0.15126448D+00 0.26265674D+06 0.26265674D+06 0.26265674D+06 0.10888492D+01  1  2  2  1  6  1        1 0.280441452590D-04 0.100000000000D+01
0.119481285323D-03 0.000000000000D+00 -.972896801855D-06 0.628906429609D-04 0.000000000000D+00  6 1 -3 25 1 -3 21 2 0.23612430D+00 0.15126448D+00 0.26265674D+06 0.26265674D+06 0.26265674D+06 0.10888492D+01  1  2  3  1  6  1        1 0.156809292347D-04 0.100000000000D+01
-.176954998041D-03 0.000000000000D+00 0.000000000000D+00 0.628906429609D-04 0.000000000000D+00  6 1 -3 25 1 -3 21 2 0.23612430D+00 0.15126448D+00 0.26265674D+06 0.26265674D+06 0.26265674D+06 0.10888492D+01  1  2 15  1  6  1        1 -.232238780703D-04 0.100000000000D+01
-.453680219993D-03 0.000000000000D+00 0.000000000000D+00 0.628906429609D-04 0.000000000000D+00  6 1 -3 25 1 -3 21 2 0.23612430D+00 0.15126448D+00 0.26265674D+06 0.26265674D+06 0.26265674D+06 0.10888492D+01  1  2  4  1  6  1        1 -.595417717987D-04 0.100000000000D+01
-.263689233496D-01 0.000000000000D+00 -.842963006464D-03 0.628906429609D-04 0.000000000000D+00  6 1 -3 25 1 -3 21 2 0.25136377D+00 0.15126448D+00 0.26265674D+06 0.26265674D+06 0.26265674D+06 0.10888492D+01  1  2  5  1  6  1        1 -.297183632426D-02 0.100000000000D+01
0.263716960105D-01 0.000000000000D+00 0.841317022206D-03 0.628906429609D-04 0.000000000000D+00  6 1 -3 25 1 -3 21 2 0.23612430D+00 0.15126448D+00 0.26265674D+06 0.26265674D+06 0.26265674D+06 0.10888492D+01  1  2  6  1  6  1        1 0.346106670867D-02 0.100000000000D+01
-.368126792452D-03 0.000000000000D+00 -.902134361661D-05 0.628906429609D-04 0.000000000000D+00  6 21 -3 25 1 -3 -1 2 0.25136377D+00 0.15126448D+00 0.26265674D+06 0.26265674D+06 0.26265674D+06 0.10888492D+01  1  2  5  5  6  1        1 -.286299099201D-04 0.100000000000D+01
  </mgrwgt>
  </event>
  <event>
  5     66 0.21010581E-05 0.26777172E+02 0.75467711E-02 0.92845939E-01
        1 -1    0    0  502    0 0.00000000E+00 0.00000000E+00 0.66040302E+03 0.66040310E+03 0.32000000E+00 0.0000E+00 0.9000E+01
       -3 -1    0    0    0  501 -.00000000E+00 -.00000000E+00 -.20122731E+04 0.20122731E+04 0.50000000E+00 0.0000E+00 0.9000E+01
       25  1    1    2    0    0 0.44498454E+03 -.11856116E+03 -.81735461E+03 0.94644680E+03 0.12500000E+03 0.0000E+00 0.9000E+01
        1  1    1    2  502    0 -.46464475E+03 0.10037748E+03 0.50084720E+03 0.69052038E+03 0.32000000E+00 0.0000E+00 0.9000E+01
       -3  1    1    2    0  501 0.19660203E+02 0.18183677E+02 -.10353626E+04 0.10357090E+04 0.50000000E+00 0.0000E+00 0.9000E+01
#aMCatNLO 1  0  0  5  2 0.17305144D+01 0.00000000D+00  -5  6  0 0.00000000D+00 0.00000000D+00 0.00000000D+00 0.00000000D+00 0.00000000D+00
  <mgrwgt>
 0.9040755163D-03    6    2    0
 0.115278419508225D+04 0.000000000000000D+00 0.000000000000000D+00 0.115278419508225D+04
 0.115278419508225D+04 -.000000000000000D+00 -.000000000000000D+00 -.115278419508225D+04
 0.617937554210895D+03 0.444991287369733D+03 -.118560387553003D+03 -.392616873774488D+03
 0.109415182327112D+04 -.464649207016688D+03 0.100378442200801D+03 0.985491499267052D+03
 0.593479012682491D+03 0.196579196469552D+02 0.181819453522020D+02 -.592874625492563D+03
 0.000000000000000D+00 0.000000000000000D+00 0.000000000000000D+00 -.000000000000000D+00
 0.115278419508225D+04 0.000000000000000D+00 0.000000000000000D+00 0.115278419508225D+04
 0.115278419508225D+04 -.000000000000000D+00 -.000000000000000D+00 -.115278419508225D+04
 0.625352887514898D+03 0.445364644458528D+03 -.118215063210079D+03 -.403877167242451D+03
 0.107625601677246D+04 -.463997438833277D+03 0.100981273716339D+03 0.965834443760268D+03
 0.321074681768083D+03 0.106376538680104D+03 -.430445363000475D+02 -.299866889111870D+03
 0.282884804109066D+03 -.877437443053552D+02 0.602783257937882D+02 -.262090387405946D+03
0.156357457917D+00 0.000000000000D+00 0.000000000000D+00 0.995966345081D-04 0.000000000000D+00  6 1 -3 25 1 -3 21 0 0.10160048D+00 0.30958048D+00 0.23976844D+06 0.23976844D+06 0.23976844D+06 0.10918270D+01  1  2  2  4  6  5       -3 0.488867684298D-03 0.100000000000D+01
0.862640020608D-01 0.000000000000D+00 -.600453808266D-03 0.995966345081D-04 0.000000000000D+00  6 1 -3 25 1 -3 21 2 0.10160048D+00 0.30958048D+00 0.23976844D+06 0.23976844D+06 0.23976844D+06 0.10918270D+01  1  2  3  4  6  5       -3 0.321521482436D-03 0.100000000000D+01
-.102681928330D+00 0.000000000000D+00 0.000000000000D+00 0.995966345081D-04 0.000000000000D+00  6 1 -3 25 1 -3 21 2 0.10160048D+00 0.30958048D+00 0.23976844D+06 0.23976844D+06 0.23976844D+06 0.10918270D+01  1  2 15  4  6  5       -3 -.382714052531D-03 0.100000000000D+01
-.372065733078D-02 0.000000000000D+00 0.000000000000D+00 0.995966345081D-04 0.000000000000D+00  6 1 -3 25 1 -3 21 2 0.10160048D+00 0.30958048D+00 0.23976844D+06 0.23976844D+06 0.23976844D+06 0.10918270D+01  1  2  4  4  6  5       -3 -.138675604198D-04 0.100000000000D+01
-.230771680922D+00 0.000000000000D+00 0.000000000000D+00 0.995966345081D-04 0.000000000000D+00  6 1 -3 25 1 -3 21 2 0.10160048D+00 0.30958048D+00 0.23976844D+06 0.23976844D+06 0.23976844D+06 0.10918270D+01  1  2  5  4  6  5       -3 -.860127645157D-03 0.100000000000D+01
0.362310252501D+00 0.000000000000D+00 -.000000000000D+00 0.995966345081D-04 0.000000000000D+00  6 1 -3 25 1 -3 21 2 0.10160048D+00 0.30958048D+00 0.23976844D+06 0.23976844D+06 0.23976844D+06 0.10918270D+01  1  2  6  4  6  5       -3 0.135039560771D-02 0.100000000000D+01
  </mgrwgt>
  </event>
  <event>
  5     66 0.21010581E-05 0.87484520E+02 0.75467711E-02 0.93150388E-01
        1 -1    0    0  502    0 0.00000000E+00 0.00000000E+00 0.21514733E+04 0.21514733E+04 0.32000000E+00 0.0000E+00 0.9000E+01
       -3 -1    0    0    0  501 0.00000000E+00 0.00000000E+00 -.69896851E+03 0.69896869E+03 0.50000000E+00 0.0000E+00 0.9000E+01
       25  1    1    2    0    0 0.54390257E+03 0.34096199E+02 0.32724162E+03 0.64784615E+03 0.12500000E+03 0.0000E+00 0.9000E+01
        1  1    1    2  502    0 -.59166150E+02 0.64452414E+02 0.15488752E+04 0.15513443E+04 0.32000000E+00 0.0000E+00 0.9000E+01
       -3  1    1    2    0  501 -.48473642E+03 -.98548613E+02 -.42361200E+03 0.65125156E+03 0.50000000E+00 0.0000E+00 0.9000E+01
#aMCatNLO 1  0  0  5  2 0.43579870D+01 0.00000000D+00  -5  6  0 0.00000000D+00 0.00000000D+00 0.00000000D+00 0.00000000D+00 0.00000000D+00
  <mgrwgt>
 0.2371863820D-03    8    2    0
 0.122630028219644D+04 0.000000000000000D+00 0.000000000000000D+00 0.122630028219644D+04
 0.122630028219644D+04 -.000000000000000D+00 -.000000000000000D+00 -.122630028219644D+04
 0.559179325046128D+03 0.543950623917657D+03 0.341093580691107D+02 -.328450768732569D+01
 0.885630204824375D+03 -.591614894691952D+02 0.644473376961408D+02 0.881298654557540D+03
 0.100779103452238D+04 -.484789134448462D+03 -.985566957652516D+02 -.878014146870214D+03
 0.000000000000000D+00 0.000000000000000D+00 -.000000000000000D+00 0.000000000000000D+00
 0.122630028219644D+04 0.000000000000000D+00 0.000000000000000D+00 0.122630028219644D+04
 0.122630028219644D+04 -.000000000000000D+00 -.000000000000000D+00 -.122630028219644D+04
 0.559097421589586D+03 0.543866557884838D+03 0.340922676068211D+02 -.343676185484138D+01
 0.885397194216263D+03 -.592946257862102D+02 0.644202713397418D+02 0.881057527928466D+03
 0.995181511853073D+03 -.475752992537496D+03 -.947740201180897D+02 -.868943736231778D+03
 0.129244367339568D+02 -.881893956113238D+01 -.373851882847334D+01 -.867702984184659D+01
0.363371303515D-03 0.000000000000D+00 0.000000000000D+00 0.251059552742D-04 0.000000000000D+00  6 1 -3 25 1 -3 21 0 0.33099591D+00 0.10753363D+00 0.32567572D+06 0.32567572D+06 0.32567572D+06 0.10819231D+01  1  2  2  4  6  5       -3 0.425004156093D-04 0.100000000000D+01
0.110402042204D-03 0.000000000000D+00 -.139544148336D-05 0.251059552742D-04 0.000000000000D+00  6 1 -3 25 1 -3 21 2 0.33099591D+00 0.10753363D+00 0.32567572D+06 0.32567572D+06 0.32567572D+06 0.10819231D+01  1  2  3  4  6  5       -3 0.151151493744D-04 0.100000000000D+01
-.210424542774D-03 0.000000000000D+00 0.000000000000D+00 0.251059552742D-04 0.000000000000D+00  6 1 -3 25 1 -3 21 2 0.33099591D+00 0.10753363D+00 0.32567572D+06 0.32567572D+06 0.32567572D+06 0.10819231D+01  1  2 15  4  6  5       -3 -.288092351607D-04 0.100000000000D+01
0.289099441138D-03 0.000000000000D+00 0.000000000000D+00 0.251059552742D-04 0.000000000000D+00  6 1 -3 25 1 -3 21 2 0.33099591D+00 0.10753363D+00 0.32565354D+06 0.32565354D+06 0.32565354D+06 0.10819253D+01  1  2 12  4  6  5       -3 0.395809714056D-04 0.100000000000D+01
-.413720566910D-01 0.000000000000D+00 0.000000000000D+00 0.251059552742D-04 0.000000000000D+00  6 1 -3 25 1 -3 21 2 0.33099591D+00 0.10753363D+00 0.32567572D+06 0.32567572D+06 0.32567572D+06 0.10819231D+01  1  2  4  4  6  5       -3 -.566425044617D-02 0.100000000000D+01
-.129449804253D+00 0.000000000000D+00 0.000000000000D+00 0.251059552742D-04 0.000000000000D+00  6 1 -3 25 1 -3 21 2 0.33099591D+00 0.10753363D+00 0.32567572D+06 0.32567572D+06 0.32567572D+06 0.10819231D+01  1  2  5  4  6  5       -3 -.177229794732D-01 0.100000000000D+01
0.131120580225D+00 0.000000000000D+00 -.000000000000D+00 0.251059552742D-04 0.000000000000D+00  6 1 -3 25 1 -3 21 2 0.33099591D+00 0.10753363D+00 0.32567572D+06 0.32567572D+06 0.32567572D+06 0.10819231D+01  1  2  6  4  6  5       -3 0.179517254989D-01 0.100000000000D+01
0.409338364530D-01 0.000000000000D+00 0.000000000000D+00 0.251059552742D-04 0.304599805767D-05  6 1 -3 25 1 -3 21 2 0.33099591D+00 0.10753363D+00 0.32565354D+06 0.32565354D+06 0.32565354D+06 0.10819253D+01  1  2 11  4  6  5       -3 0.560430350120D-02 0.100000000000D+01
  </mgrwgt>
  </event>
  <event>
  5     66 0.21010581E-05 0.84224141E+02 0.75467711E-02 0.95362369E-01
        1 -1    0    0  502    0 0.00000000E+00 0.00000000E+00 0.24080828E+04 0.24080829E+04 0.32000000E+00 0.0000E+00 0.9000E+01
       -3 -1    0    0    0  501 0.00000000E+00 0.00000000E+00 -.24152004E+03 0.24152056E+03 0.50000000E+00 0.0000E+00 0.9000E+01
       25  1    1    2    0    0 -.33304492E+03 -.31180545E+03 0.43308271E+03 0.64134795E+03 0.12500000E+03 0.0000E+00 0.9000E+01
        1  1    1    2  502    0 0.25382009E+03 0.28323518E+03 0.18363421E+04 0.18753131E+04 0.32000000E+00 0.0000E+00 0.9000E+01
       -3  1    1    2    0  501 0.79224827E+02 0.28570273E+02 -.10286200E+03 0.13294238E+03 0.50000000E+00 0.0000E+00 0.9000E+01
#aMCatNLO 1  0  0  1  4 0.10555903D+02 0.00000000D+00  -5  6  0 0.00000000D+00 0.00000000D+00 0.00000000D+00 0.00000000D+00 0.00000000D+00
  <mgrwgt>
 0.2370835852D-02    3    2    0
 0.762627676996934D+03 0.000000000000000D+00 0.000000000000000D+00 0.762627676996934D+03
 0.762627676996934D+03 0.000000000000000D+00 0.000000000000000D+00 -.762627676996934D+03
 0.498933535707341D+03 -.333045536479661D+03 -.311803051786642D+03 -.158648039953037D+03
 0.649248259313107D+03 0.253815988582714D+03 0.283230604378281D+03 0.526194993233870D+03
 0.377073558973420D+03 0.792295478969467D+02 0.285724474083614D+02 -.367546953280834D+03
 0.000000000000000D+00 -.000000000000000D+00 -.000000000000000D+00 -.000000000000000D+00
 0.817007622351201D+03 0.000000000000000D+00 0.000000000000000D+00 0.817007622351201D+03
 0.181299652799123D+04 0.000000000000000D+00 0.000000000000000D+00 -.181299652799123D+04
 0.417273211140411D+03 -.299771941485655D+03 -.208469458800110D+03 -.158648039953037D+03
 0.751233203902471D+03 0.304676837582106D+03 0.441182706349813D+03 0.526194993233870D+03
 0.400185372852779D+03 0.107457018380043D+03 0.116234930120707D+03 -.367546953280834D+03
 0.106131236244677D+04 -.112361914476494D+03 -.348948177670409D+03 -.995988905640027D+03
0.659989937315D-02 0.000000000000D+00 0.000000000000D+00 0.485319910642D-05 0.000000000000D+00  6 1 -3 25 1 -3 21 0 0.37047432D+00 0.37156970D-01 0.21976461D+06 0.21976461D+06 0.21976461D+06 0.10946958D+01  1  2  2  1  6  1        1 0.585731361167D-02 0.100000000000D+01
0.122119274992D-02 0.000000000000D+00 -.253453513863D-04 0.485319910642D-05 0.000000000000D+00  6 1 -3 25 1 -3 21 2 0.37047432D+00 0.37156970D-01 0.21976461D+06 0.21976461D+06 0.21976461D+06 0.10946958D+01  1  2  3  1  6  1        1 0.129877008977D-02 0.100000000000D+01
-.449941835493D-02 0.000000000000D+00 0.000000000000D+00 0.485319910642D-05 0.000000000000D+00  6 1 -3 25 1 -3 21 2 0.37047432D+00 0.37156970D-01 0.21976461D+06 0.21976461D+06 0.21976461D+06 0.10946958D+01  1  2 15  1  6  1        1 -.478524784977D-02 0.100000000000D+01
  </mgrwgt>
  </event>
  <event>
  5     66 0.21010581E-05 0.55877767E+02 0.75467711E-02 0.89028416E-01
        1 -1    0    0  502    0 0.00000000E+00 0.00000000E+00 0.36536173E+04 0.36536173E+04 0.32000000E+00 0.0000E+00 0.9000E+01
       -3 -1    0    0    0  501 0.00000000E+00 0.00000000E+00 -.56113461E+03 0.56113483E+03 0.50000000E+00 0.0000E+00 0.9000E+01
       25  1    1    2    0    0 -.17977566E+03 0.74180679E+03 0.19913119E+04 0.21362454E+04 0.12500000E+03 0.0000E+00 0.9000E+01
        1  1    1    2  502    0 0.15465834E+02 0.53718712E+02 0.12512026E+04 0.12524508E+04 0.32000000E+00 0.0000E+00 0.9000E+01
       -3  1    1    2    0  501 0.16430983E+03 -.79552550E+03 -.15003182E+03 0.82605589E+03 0.50000000E+00 0.0000E+00 0.9000E+01
#aMCatNLO 1  0  0  4  5 0.26703023D+02 0.00000000D+00  -5  6  0 0.00000000D+00 0.00000000D+00 0.00000000D+00 0.00000000D+00 0.00000000D+00
  <mgrwgt>
 0.7390693028D-04    4    2    0
 0.143184202636365D+04 0.000000000000000D+00 0.000000000000000D+00 0.143184202636365D+04
 0.143184202636365D+04 -.000000000000000D+00 -.000000000000000D+00 -.143184202636365D+04
 0.993884470728720D+03 -.179788233633175D+03 0.741911104178523D+03 0.624039618693698D+03
 0.491977398063268D+03 0.154594793769470D+02 0.536966413113312D+02 0.488793857791175D+03
 0.137782218393531D+04 0.164328754256228D+03 -.795607745489854D+03 -.111283347648487D+04
 0.000000000000000D+00 0.000000000000000D+00 -.000000000000000D+00 0.000000000000000D+00
 0.143184202636365D+04 0.000000000000000D+00 0.000000000000000D+00 0.143184202636365D+04
 0.143184202636365D+04 -.000000000000000D+00 -.000000000000000D+00 -.143184202636365D+04
 0.100088569319096D+04 -.179474909242673D+03 0.742999398745283D+03 0.633946228990151D+03
 0.470055479481618D+03 0.119589837902471D+02 0.776288501291608D+02 0.463446758673554D+03
 0.136602092908238D+04 0.164759737728193D+03 -.794110776262045D+03 -.109920675149824D+04
 0.267219509723369D+02 0.275618772423265D+01 -.265174726123985D+02 0.181376383453444D+01
0.946890790450D-02 0.000000000000D+00 0.000000000000D+00 0.538234689107D-05 0.000000000000D+00  6 1 -3 25 1 -3 21 0 0.56209498D+00 0.86328420D-01 0.67390123D+06 0.67390123D+06 0.67390123D+06 0.10594679D+01  1  2  2  3  6  4        1 0.139512543034D-03 0.100000000000D+01
0.340055215928D-02 0.000000000000D+00 -.363630995740D-04 0.538234689107D-05 0.000000000000D+00  6 1 -3 25 1 -3 21 2 0.56209498D+00 0.86328420D-01 0.67390123D+06 0.67390123D+06 0.67390123D+06 0.10594679D+01  1  2  3  3  6  4        1 0.562391106112D-04 0.100000000000D+01
-.665827025116D-02 0.000000000000D+00 0.000000000000D+00 0.538234689107D-05 0.000000000000D+00  6 1 -3 25 1 -3 21 2 0.56209498D+00 0.86328420D-01 0.67390123D+06 0.67390123D+06 0.67390123D+06 0.10594679D+01  1  2 15  3  6  4        1 -.110115998695D-03 0.100000000000D+01
-.709188669001D-03 0.000000000000D+00 0.000000000000D+00 0.538234689107D-05 0.000000000000D+00  6 1 -3 25 1 -3 21 2 0.56209498D+00 0.86328420D-01 0.67390123D+06 0.67390123D+06 0.67390123D+06 0.10594679D+01  1  2  4  3  6  4        1 -.117287246694D-04 0.100000000000D+01
  </mgrwgt>
  </event>
  <event>
  6     66 -.21010581E-05 0.37003609E+02 0.75467711E-02 0.94322163E-01
        1 -1    0    0  502    0 0.00000000E+00 0.00000000E+00 0.11080425E+04 0.11080426E+04 0.32000000E+00 0.0000E+00 0.9000E+01
       -3 -1    0    0    0  501 0.00000000E+00 0.00000000E+00 -.43500734E+03 0.43500763E+03 0.50000000E+00 0.0000E+00 0.9000E+01
       25  1    1    2    0    0 -.23084680E+03 -.40724330E+03 0.58085123E+03 0.75640631E+03 0.12500000E+03 0.0000E+00 0.9000E+01
        1  1    1    2  502    0 0.51702258E+02 -.33155009E+02 0.26471107E+03 0.27174332E+03 0.32000000E+00 0.0000E+00 0.9000E+01
       -3  1    1    2    0  503 0.17155234E+03 0.34352234E+03 -.16339652E+03 0.41729662E+03 0.50000000E+00 0.0000E+00 0.9000E+01
       21  1    1    2  503  501 0.75922058E+01 0.96875977E+02 -.91306186E+01 0.97603930E+02 0.75000000E+00 0.0000E+00 0.9000E+01
#aMCatNLO 2  0  0  5  2 0.36151712D+02 0.00000000D+00  -5  6  0 0.00000000D+00 0.00000000D+00 0.00000000D+00 0.00000000D+00 0.00000000D+00
  <mgrwgt>
 -.7266535860D-03    2    2    0
 0.694267156536565D+03 0.000000000000000D+00 0.000000000000000D+00 0.694267156536565D+03
 0.694267156536565D+03 -.000000000000000D+00 -.000000000000000D+00 -.694267156536565D+03
 0.561939948535434D+03 -.231634321854779D+03 -.409327628172547D+03 0.280976759739165D+03
 0.174078835663670D+03 0.513925451996550D+02 -.337230783142551D+02 0.162864978779758D+03
 0.652515528874026D+03 0.180241776655124D+03 0.443050706486802D+03 -.443841738518923D+03
 0.000000000000000D+00 0.000000000000000D+00 0.000000000000000D+00 0.000000000000000D+00
 0.694267156536565D+03 0.000000000000000D+00 0.000000000000000D+00 0.694267156536565D+03
 0.694267156536565D+03 -.000000000000000D+00 -.000000000000000D+00 -.694267156536565D+03
 0.559197754508571D+03 -.230835560031406D+03 -.407364198845965D+03 0.279009824864646D+03
 0.173464796511238D+03 0.516401549130594D+02 -.331144310822278D+02 0.162255244856186D+03
 0.542876307146673D+03 0.171588706906596D+03 0.343504132369380D+03 -.383766741092152D+03
 0.112995454906649D+03 0.760669821175097D+01 0.969744975588126D+02 -.574983286286799D+02
-.858149312952D-03 0.000000000000D+00 0.000000000000D+00 0.675362132256D-06 0.000000000000D+00  6 1 -3 25 1 -3 21 2 0.17046810D+00 0.66924232D-01 0.26379175D+06 0.26379175D+06 0.26379175D+06 0.10887090D+01  1  2 13  4  6  5       -3 -.196582712959D-02 0.100000000000D+01
0.540940710921D-03 0.000000000000D+00 0.000000000000D+00 0.675362132256D-06 0.144820377125D-08  6 1 -3 25 1 -3 21 2 0.17046810D+00 0.66924232D-01 0.26379175D+06 0.26379175D+06 0.26379175D+06 0.10887090D+01  1  2  1  4  6  5       -3 0.123917354356D-02 0.100000000000D+01
  </mgrwgt>
  </event>
  <event>
  5     66 -.21010581E-05 0.30543303E+02 0.75467711E-02 0.95062841E-01
        1 -1    0    0  502    0 0.00000000E+00 0.00000000E+00 0.11820088E+04 0.11820088E+04 0.32000000E+00 0.0000E+00 0.9000E+01
       -3 -1    0    0    0  501 0.00000000E+00 0.00000000E+00 -.39824437E+03 0.39824468E+03 0.50000000E+00 0.0000E+00 0.9000E+01
       25  1    1    2    0    0 0.16276923E+03 -.43449473E+03 0.60398743E+03 0.77181948E+03 0.12500000E+03 0.0000E+00 0.9000E+01
        1  1    1    2  502    0 -.29487496E+02 -.80954616E+01 0.32306622E+03 0.32451030E+03 0.32000000E+00 0.0000E+00 0.9000E+01
       -3  1    1    2    0  501 -.13328174E+03 0.44259019E+03 -.14328926E+03 0.48392371E+03 0.50000000E+00 0.0000E+00 0.9000E+01
#aMCatNLO 1  0  0  5  5 0.50848963D+02 0.00000000D+00  -5  6  0 0.00000000D+00 0.00000000D+00 0.00000000D+00 0.00000000D+00 0.00000000D+00
  <mgrwgt>
 -.1380887208D-03    6    2    0
 0.686096652741215D+03 0.000000000000000D+00 0.000000000000000D+00 0.686096652741215D+03
 0.686096652741215D+03 -.000000000000000D+00 -.000000000000000D+00 -.686096652741215D+03
 0.544033560422764D+03 0.162773258311357D+03 -.434601459868088D+03 0.254899886868354D+03
 0.188968245157282D+03 -.294534874875191D+02 -.808612498576674D+01 0.186483522959428D+03
 0.639191499902384D+03 -.133319770823838D+03 0.442687584853854D+03 -.441383409827782D+03
 0.000000000000000D+00 0.000000000000000D+00 0.000000000000000D+00 -.000000000000000D+00
 0.686096652741215D+03 0.000000000000000D+00 0.000000000000000D+00 0.686096652741215D+03
 0.686096652741215D+03 -.000000000000000D+00 -.000000000000000D+00 -.686096652741215D+03
 0.537666422195156D+03 0.161358150394504D+03 -.429902601610620D+03 0.250214871632015D+03
 0.187374482894501D+03 -.299458287859143D+02 -.645130834181678D+01 0.184853522549573D+03
 0.552182474963307D+03 -.122657068411788D+03 0.415036010228127D+03 -.342937077959131D+03
 0.949699254294644D+02 -.875525319680182D+01 0.213178997243094D+02 -.921313162224562D+02
0.292986212196D-04 0.000000000000D+00 0.000000000000D+00 0.340473051539D-05 0.000000000000D+00  6 1 -3 25 1 -3 21 0 0.18184753D+00 0.61268392D-01 0.23692246D+06 0.23692246D+06 0.23692246D+06 0.10922189D+01  1  2  2  4  6  5       -3 0.612245639910D-04 0.100000000000D+01
0.101169038067D-04 0.000000000000D+00 -.112514419988D-06 0.340473051539D-05 0.000000000000D+00  6 1 -3 25 1 -3 21 2 0.18184753D+00 0.61268392D-01 0.23692246D+06 0.23692246D+06 0.23692246D+06 0.10922189D+01  1  2  3  4  6  5       -3 0.252200228420D-04 0.100000000000D+01
-.207051147903D-04 0.000000000000D+00 0.000000000000D+00 0.340473051539D-05 0.000000000000D+00  6 1 -3 25 1 -3 21 2 0.18184753D+00 0.61268392D-01 0.23692246D+06 0.23692246D+06 0.23692246D+06 0.10922189D+01  1  2 15  4  6  5       -3 -.516149484005D-04 0.100000000000D+01
-.107623546594D-03 0.000000000000D+00 0.000000000000D+00 0.340473051539D-05 0.000000000000D+00  6 1 -3 25 1 -3 21 2 0.18184753D+00 0.61268392D-01 0.23692246D+06 0.23692246D+06 0.23692246D+06 0.10922189D+01  1  2  4  4  6  5       -3 -.268290413282D-03 0.100000000000D+01
-.239900706862D-03 0.000000000000D+00 0.000000000000D+00 0.340473051539D-05 0.000000000000D+00  6 1 -3 25 1 -3 21 2 0.18184753D+00 0.61268392D-01 0.23692246D+06 0.23692246D+06 0.23692246D+06 0.10922189D+01  1  2  5  4  6  5       -3 -.598038829119D-03 0.100000000000D+01
0.278158796565D-03 0.000000000000D+00 -.000000000000D+00 0.340473051539D-05 0.000000000000D+00  6 1 -3 25 1 -3 21 2 0.18184753D+00 0.61268392D-01 0.23692246D+06 0.23692246D+06 0.23692246D+06 0.10922189D+01  1  2  6  4  6  5       -3 0.693410883123D-03 0.100000000000D+01
  </mgrwgt>
  </event>
  <event>
  6     66 -.21010581E-05 0.41201081E+02 0.75467711E-02 0.92711505E-01
        1 -1    0    0  502    0 0.00000000E+00 0.00000000E+00 0.74286785E+03 0.74286792E+03 0.32000000E+00 0.0000E+00 0.9000E+01
       -3 -1    0    0    0  503 0.00000000E+00 0.00000000E+00 -.76956553E+03 0.76956569E+03 0.50000000E+00 0.0000E+00 0.9000E+01
       25  1    1    2    0    0 -.18713822E+03 0.54171394E+03 -.63206844E+02 0.58999560E+03 0.12500000E+03 0.0000E+00 0.9000E+01
        1  1    1    2  502    0 0.20211135E+03 -.50256362E+03 0.32203477E+03 0.63017909E+03 0.32000000E+00 0.0000E+00 0.9000E+01
       -3  1    1    2    0  501 -.27360930E+02 -.38704601E+02 -.18529819E+03 0.19126509E+03 0.50000000E+00 0.0000E+00 0.9000E+01
       21  1    1    2  501  503 0.12387804E+02 -.44571675E+00 -.10022741E+03 0.10099383E+03 0.75000000E+00 0.0000E+00 0.9000E+01
#aMCatNLO 2  0  0  2  5 0.12395820D+02 0.00000000D+00  -5  6  0 0.00000000D+00 0.00000000D+00 0.00000000D+00 0.00000000D+00 0.00000000D+00
  <mgrwgt>
 -.4598140175D-04    2    2    0
 0.704734343381156D+03 0.000000000000000D+00 0.000000000000000D+00 0.704734343381156D+03
 0.704734343381156D+03 0.000000000000000D+00 0.000000000000000D+00 -.704734343381156D+03
 0.592303885557094D+03 -.181925486259423D+03 0.541527599144653D+03 -.940737458589367D+02
 0.616196753925371D+03 0.207518785228830D+03 -.502759165968704D+03 0.289599057940056D+03
 0.200968047279846D+03 -.255932989694069D+02 -.387684331759485D+02 -.195525312081119D+03
 0.000000000000000D+00 0.000000000000000D+00 -.000000000000000D+00 -.000000000000000D+00
 0.705124013384513D+03 0.000000000000000D+00 0.000000000000000D+00 0.705124013384513D+03
 0.810755996951907D+03 0.000000000000000D+00 0.000000000000000D+00 -.810755996951907D+03
 0.594096979878128D+03 -.187139017359441D+03 0.541715183488633D+03 -.940737458589367D+02
 0.614237715780546D+03 0.202111752444854D+03 -.502564619378648D+03 0.289599057940056D+03
 0.201188498660728D+03 -.273605394700010D+02 -.387048473559736D+02 -.195525312081119D+03
 0.106356816017019D+03 0.123878043845883D+02 -.445716754011876D+00 -.105631983567395D+03
-.126640665506D-03 0.000000000000D+00 0.000000000000D+00 0.607023793963D-06 0.000000000000D+00  6 1 -3 25 1 -3 21 2 0.11422401D+00 0.12580859D+00 0.35288307D+06 0.35288307D+06 0.35288307D+06 0.10793735D+01  1  2 13  2  6  2       -3 -.111373359650D-03 0.100000000000D+01
0.624220807356D-04 0.000000000000D+00 0.000000000000D+00 0.607023793963D-06 0.111124678988D-07  6 1 -3 25 1 -3 21 2 0.11428717D+00 0.11839449D+00 0.35288307D+06 0.35288307D+06 0.35288307D+06 0.10793735D+01  1  2  1  2  6  2       -3 0.653919578994D-04 0.100000000000D+01
  </mgrwgt>
  </event>
  <event>
  6     66 0.21010581E-05 0.59425660E+02 0.75467711E-02 0.95376588E-01
        1 -1    0    0  502    0 0.00000000E+00 0.00000000E+00 0.89025995E+03 0.89026000E+03 0.32000000E+00 0.0000E+00 0.9000E+01
       -3 -1    0    0    0  501 0.00000000E+00 0.00000000E+00 -.52378543E+03 0.52378567E+03 0.50000000E+00 0.0000E+00 0.9000E+01
       25  1    1    2    0    0 0.36657691E+03 0.26922888E+03 -.17667641E+03 0.50368877E+03 0.12500000E+03 0.0000E+00 0.9000E+01
        1  1    1    2  502    0 -.33477835E+03 -.21595594E+03 0.66187773E+03 0.77252556E+03 0.32000000E+00 0.0000E+00 0.9000E+01
       -3  1    1    2    0  503 0.42797380E+01 -.33125671E+01 -.19222979E+01 0.57649360E+01 0.50000000E+00 0.0000E+00 0.9000E+01
       21  1    1    2  503  501 -.36078300E+02 -.49960378E+02 -.11680450E+03 0.13206641E+03 0.75000000E+00 0.0000E+00 0.9000E+01
#aMCatNLO 2  0  0  5  2 0.45862409D+01 0.00000000D+00  -5  6  0 0.00000000D+00 0.00000000D+00 0.00000000D+00 0.00000000D+00 0.00000000D+00
  <mgrwgt>
 0.6385261045D-04    1    2    0
 0.682865576764612D+03 0.000000000000000D+00 0.000000000000000D+00 0.682865576764612D+03
 0.682865576764612D+03 -.000000000000000D+00 -.000000000000000D+00 -.682865576764612D+03
 0.568750847907990D+03 0.366820450307167D+03 0.269601146850702D+03 -.317191591706481D+03
 0.623035256394412D+03 -.334564584015141D+03 -.215553377732930D+03 0.479349779577660D+03
 0.173945049226822D+03 -.322558662920254D+02 -.540477691177716D+02 -.162158187871179D+03
 0.000000000000000D+00 -.000000000000000D+00 0.000000000000000D+00 0.000000000000000D+00
 0.682865576764612D+03 0.000000000000000D+00 0.000000000000000D+00 0.682865576764612D+03
 0.682865576764612D+03 -.000000000000000D+00 -.000000000000000D+00 -.682865576764612D+03
 0.569013529029147D+03 0.366628579022494D+03 0.269279648280474D+03 -.318156175932663D+03
 0.622458170629544D+03 -.334774622603745D+03 -.215905317347259D+03 0.478293863838099D+03
 0.555653957555441D+01 0.359815801221895D+01 -.285080997494790D+01 -.313069855791626D+01
 0.168702914294979D+03 -.354521144309679D+02 -.505235209582672D+02 -.157006989347520D+03
0.287062446441D-04 0.000000000000D+00 0.000000000000D+00 0.132041521348D-05 0.400221157993D-08  6 1 -3 25 1 -3 21 2 0.13696309D+00 0.80582396D-01 0.21922292D+06 0.21922292D+06 0.21922292D+06 0.10947774D+01  1  2  1  4  6  5       -3 0.638526104464D-04 0.100000000000D+01
  </mgrwgt>
  </event>
  <event>
  5     66 0.21010581E-05 0.21637576E+02 0.75467711E-02 0.80394342E-01
        1 -1    0    0  502    0 0.00000000E+00 0.00000000E+00 0.18826003E+04 0.18826004E+04 0.32000000E+00 0.0000E+00 0.9000E+01
       -3 -1    0    0    0  501 0.00000000E+00 0.00000000E+00 -.94433369E+03 0.94433382E+03 0.50000000E+00 0.0000E+00 0.9000E+01
       25  1    1    2    0    0 -.31797307E+03 -.47646665E+03 0.16565916E+03 0.60925800E+03 0.12500000E+03 0.0000E+00 0.9000E+01
        1  1    1    2  502    0 0.21487577E+02 0.25557747E+01 0.13869200E+04 0.13870888E+04 0.32000000E+00 0.0000E+00 0.9000E+01
       -3  1    1    2    0  501 0.29648550E+03 0.47391088E+03 -.61431253E+03 0.83058733E+03 0.50000000E+00 0.0000E+00 0.9000E+01
#aMCatNLO 1  0  0  2  5 0.46195835D+02 0.00000000D+00  -5  6  0 0.00000000D+00 0.00000000D+00 0.00000000D+00 0.00000000D+00 0.00000000D+00
  <mgrwgt>
 0.2861649174D-02    5    4    0
 0.133334283916980D+04 0.000000000000000D+00 0.000000000000000D+00 0.133334283916980D+04
 0.133334283916980D+04 0.000000000000000D+00 0.000000000000000D+00 -.133334283916980D+04
 0.587631606630458D+03 -.318000935033113D+03 -.476512205663293D+03 -.386966184964877D+02
 0.982392140408256D+03 0.214861258573470D+02 0.255560215390668D+01 0.982153823405065D+03
 0.109666193130089D+04 0.296514809175766D+03 0.473956603509386D+03 -.943457204908578D+03
 0.000000000000000D+00 -.000000000000000D+00 0.000000000000000D+00 -.000000000000000D+00
 0.221876241633325D+04 0.000000000000000D+00 0.000000000000000D+00 0.221876241633325D+04
 0.335645584210392D+04 0.000000000000000D+00 0.000000000000000D+00 -.335645584210392D+04
 0.717637283354581D+03 0.444309998467360D+02 -.704206452988113D+03 -.386966184964877D+02
 0.123149121891777D+04 0.636211594054194D+03 -.383639540497859D+03 0.982153823405065D+03
 0.136015223748963D+04 0.978694488525347D+03 0.453840256506399D+02 -.943457204908578D+03
 0.226593751867519D+04 -.165933708242628D+04 0.104246196783533D+04 -.113769342577067D+04
 0.133334283916980D+04 0.000000000000000D+00 0.000000000000000D+00 0.133334283916980D+04
 0.133334283916980D+04 0.000000000000000D+00 0.000000000000000D+00 -.133334283916980D+04
 0.587631606630458D+03 -.318000935033113D+03 -.476512205663293D+03 -.386966184964877D+02
 0.982392140408256D+03 0.214861258573470D+02 0.255560215390668D+01 0.982153823405065D+03
 0.000000000000000D+00 -.000000000000000D+00 0.000000000000000D+00 -.000000000000000D+00
 0.109666193130089D+04 0.296514809175766D+03 0.473956603509386D+03 -.943457204908578D+03
 0.221876241633325D+04 0.000000000000000D+00 0.000000000000000D+00 0.221876241633325D+04
 0.335645584210392D+04 0.000000000000000D+00 0.000000000000000D+00 -.335645584210392D+04
 0.717637283354581D+03 0.444309998467360D+02 -.704206452988113D+03 -.386966184964877D+02
 0.123149121891777D+04 0.636211594054194D+03 -.383639540497859D+03 0.982153823405065D+03
 0.226593751867519D+04 -.165933708242628D+04 0.104246196783533D+04 -.113769342577067D+04
 0.136015223748963D+04 0.978694488525347D+03 0.453840256506399D+02 -.943457204908578D+03
0.305039555165D-01 0.000000000000D+00 0.000000000000D+00 0.981158116469D-04 0.000000000000D+00  6 1 -3 25 1 -3 21 0 0.28963083D+00 0.14528212D+00 0.34050765D+06 0.34050765D+06 0.34050765D+06 0.10805056D+01  1  2  2  2  6  2       -3 0.221950555925D-02 0.100000000000D+01
0.265416560124D-01 0.000000000000D+00 -.117143221059D-03 0.981158116469D-04 0.000000000000D+00  6 1 -3 25 1 -3 21 2 0.28963083D+00 0.14528212D+00 0.34050765D+06 0.34050765D+06 0.34050765D+06 0.10805056D+01  1  2  3  2  6  2       -3 0.225466567593D-02 0.100000000000D+01
-.193780998947D-01 0.000000000000D+00 0.000000000000D+00 0.981158116469D-04 0.000000000000D+00  6 1 -3 25 1 -3 21 2 0.28963083D+00 0.14528212D+00 0.34050765D+06 0.34050765D+06 0.34050765D+06 0.10805056D+01  1  2 15  2  6  2       -3 -.164613453948D-02 0.100000000000D+01
0.256063143892D-01 0.000000000000D+00 -.155621885272D-01 0.981158116469D-04 0.000000000000D+00  6 1 -3 25 1 -3 21 2 0.28963083D+00 0.45572706D+00 0.34050765D+06 0.34050765D+06 0.34050765D+06 0.10805056D+01  1  2  5  2  6  2       -3 0.831444973476D-07 0.100000000000D+01
0.406629672795D-02 0.000000000000D+00 -.204132360067D-02 0.981158116469D-04 0.000000000000D+00  6 1 21 25 1 3 -3 2 0.28963083D+00 0.45572706D+00 0.34050765D+06 0.34050765D+06 0.34050765D+06 0.10805056D+01  3  4  5  6  5  2       -3 0.335293336117D-04 0.100000000000D+01
  </mgrwgt>
  </event>
  <event>
  6     66 0.21010581E-05 0.25642939E+02 0.75467711E-02 0.93764531E-01
       21 -1    0    0  502  503 0.00000000E+00 0.00000000E+00 0.13403452E+04 0.13403454E+04 0.75000000E+00 0.0000E+00 0.9000E+01
       -1 -1    0    0    0  501 0.00000000E+00 0.00000000E+00 -.15912810E+04 0.15912810E+04 0.32000000E+00 0.0000E+00 0.9000E+01
       25  1    1    2    0    0 0.48017297E+03 -.13195610E+03 0.40567078E+02 0.51502348E+03 0.12500000E+03 0.0000E+00 0.9000E+01
        3  1    1    2  502    0 -.27314312E+02 0.35494656E+01 0.15303951E+03 0.15549923E+03 0.50000000E+00 0.0000E+00 0.9000E+01
       -1  1    1    2    0  501 -.47170057E+03 0.16300790E+03 -.13063292E+04 0.13984166E+04 0.32000000E+00 0.0000E+00 0.9000E+01
       -3  1    1    2    0  503 0.18841915E+02 -.34601266E+02 0.86178682E+03 0.86268710E+03 0.50000000E+00 0.0000E+00 0.9000E+01
#aMCatNLO 2  0  0  1  4 0.88123553D+02 0.00000000D+00  -5  6  0 0.00000000D+00 0.00000000D+00 0.00000000D+00 0.00000000D+00 0.00000000D+00
  <mgrwgt>
 0.1305547750D-03    1    2    0
 0.871895363568676D+03 0.000000000000000D+00 0.000000000000000D+00 0.871895363568676D+03
 0.871895363568676D+03 0.000000000000000D+00 0.000000000000000D+00 -.871895363568676D+03
 0.645015458185622D+03 0.487203480451692D+03 -.144712539444657D+03 0.376976114444462D+03
 0.281453209702105D+03 -.242399907268127D+02 -.204164621738898D+01 0.280400006743766D+03
 0.817322059249625D+03 -.462963489724880D+03 0.146754185662046D+03 -.657376121188228D+03
 0.000000000000000D+00 0.000000000000000D+00 -.000000000000000D+00 0.000000000000000D+00
 0.244492492552930D+04 0.000000000000000D+00 0.000000000000000D+00 0.244492492552930D+04
 0.872364611852657D+03 0.000000000000000D+00 0.000000000000000D+00 -.872364611852657D+03
 0.637044298486523D+03 0.480277942228770D+03 -.131994490722304D+03 0.376976114444462D+03
 0.281746443585011D+03 -.272823299825903D+02 0.354530134386230D+01 0.280400006743766D+03
 0.825445011895273D+03 -.471837527056886D+03 0.163050455427606D+03 -.657376121188228D+03
 0.157305378341515D+04 0.188419148107064D+02 -.346012660491646D+02 0.157256031367664D+04
0.191768620895D-02 0.000000000000D+00 0.000000000000D+00 0.141862396974D-04 0.158898717147D-07  6 21 -1 25 3 -1 -3 2 0.20620696D+00 0.24481246D+00 0.29141500D+06 0.29141500D+06 0.29141500D+06 0.10854860D+01  1  2  1  5  6  1        3 0.130554774978D-03 0.100000000000D+01
  </mgrwgt>
  </event>
  <event>
  5     66 0.21010581E-05 0.45964167E+02 0.75467711E-02 0.93794379E-01
        1 -1    0    0  502    0 0.00000000E+00 0.00000000E+00 0.95113738E+03 0.95113743E+03 0.32000000E+00 0.0000E+00 0.9000E+01
       -3 -1    0    0    0  501 0.00000000E+00 0.00000000E+00 -.66056272E+03 0.66056291E+03 0.50000000E+00 0.0000E+00 0.9000E+01
       25  1    1    2    0    0 0.20003559E+03 0.42152403E+03 -.24325312E+02 0.48364601E+03 0.12500000E+03 0.0000E+00 0.9000E+01
        1  1    1    2  502    0 -.22377111E+03 -.46088731E+03 0.62863462E+03 0.81096992E+03 0.32000000E+00 0.0000E+00 0.9000E+01
       -3  1    1    2    0  501 0.23735523E+02 0.39363285E+02 -.31373465E+03 0.31708441E+03 0.50000000E+00 0.0000E+00 0.9000E+01
#aMCatNLO 1  0  0  1  1 0.34215043D+02 0.00000000D+00  -5  6  0 0.00000000D+00 0.00000000D+00 0.00000000D+00 0.00000000D+00 0.00000000D+00
  <mgrwgt>
 0.2012575656D-02    4    2    0
 0.792644996479361D+03 0.000000000000000D+00 0.000000000000000D+00 0.792644996479361D+03
 0.792644996479361D+03 0.000000000000000D+00 0.000000000000000D+00 -.792644996479361D+03
 0.496168916036099D+03 0.200037513692359D+03 0.421527769633573D+03 -.113392794232973D+03
 0.709258891420723D+03 -.223772290209067D+03 -.460889744502546D+03 0.490463842302693D+03
 0.379862185501901D+03 0.237347765167082D+02 0.393619748689722D+02 -.377071048069719D+03
 0.000000000000000D+00 -.000000000000000D+00 0.000000000000000D+00 -.000000000000000D+00
 0.798181932917944D+03 0.000000000000000D+00 0.000000000000000D+00 0.798181932917944D+03
 0.847509804393923D+03 0.000000000000000D+00 0.000000000000000D+00 -.847509804393923D+03
 0.494599606160844D+03 0.208792732056453D+03 0.415393114616628D+03 -.113392794232973D+03
 0.711176897213434D+03 -.211220190275482D+03 -.469684819579892D+03 0.490463842302693D+03
 0.379882675316195D+03 0.304484861354909D+02 0.346577755352249D+02 -.377071048069719D+03
 0.600325586213940D+02 -.280210279164616D+02 0.196339294280400D+02 -.493278714759793D+02
0.356733837167D-02 0.000000000000D+00 0.000000000000D+00 0.536113132503D-05 0.000000000000D+00  6 1 -3 25 1 -3 21 0 0.14632885D+00 0.10162505D+00 0.27109892D+06 0.27109892D+06 0.27109892D+06 0.10878218D+01  1  2  2  1  6  1        1 0.328500728252D-02 0.100000000000D+01
0.128895411410D-02 0.000000000000D+00 -.136995186490D-04 0.536113132503D-05 0.000000000000D+00  6 1 -3 25 1 -3 21 2 0.14632885D+00 0.10162505D+00 0.27109892D+06 0.27109892D+06 0.27109892D+06 0.10878218D+01  1  2  3  1  6  1        1 0.140457516857D-02 0.100000000000D+01
-.242941977988D-02 0.000000000000D+00 0.000000000000D+00 0.536113132503D-05 0.000000000000D+00  6 1 -3 25 1 -3 21 2 0.14632885D+00 0.10162505D+00 0.27109892D+06 0.27109892D+06 0.27109892D+06 0.10878218D+01  1  2 15  1  6  1        1 -.264734225953D-02 0.100000000000D+01
-.272226265938D-04 0.000000000000D+00 0.000000000000D+00 0.536113132503D-05 0.000000000000D+00  6 1 -3 25 1 -3 21 2 0.14632885D+00 0.10162505D+00 0.27109892D+06 0.27109892D+06 0.27109892D+06 0.10878218D+01  1  2  4  1  6  1        1 -.296645357027D-04 0.100000000000D+01
  </mgrwgt>
  </event>
</LesHouchesEvents>
