<event>
 5    0  0.1041609E-002  0.2630047E+03  0.7546771E-02  0.1105351E+00
          2   -1    0    0  502    0 -0.00000000000E+00  0.00000000000E+00  0.18500492394E+04  0.18500492394E+04  0.00000000000E+00 0.  1.
         21   -1    0    0  503  502  0.00000000000E+00 -0.00000000000E+00 -0.69071122290E+02  0.69071122290E+02  0.00000000000E+00 0.  1.
         25    1    1    2    0    0 -0.15906066857E+03  0.13570000698E+03  0.89070318140E+03  0.92341320411E+03  0.12500000000E+03 0.  0.
         21    1    1    2  503  501 -0.16380471471E+02 -0.21050563551E+02  0.73348148459E+03  0.73396630326E+03  0.00000000000E+00 0. -1.
          2    1    1    2  501    0  0.17544114004E+03 -0.11464944343E+03  0.15679345107E+03  0.26174085428E+03  0.00000000000E+00 0.  1.
<mgrwt>
<rscale>  4 0.26300473E+03</rscale>
<asrwt>0</asrwt>
<pdfrwt beam="1">  1       21 0.10626328E-01 0.26300473E+03</pdfrwt>
<pdfrwt beam="2">  1        2 0.28462292E+00 0.26300473E+03</pdfrwt>
<totfact> 0.81753051E+03</totfact>
</mgrwt>
</event>
<event>
 5    0  0.1041609E-002  0.2177221E+03  0.7546771E-02  0.1135593E+00
         21   -1    0    0  503  502  0.00000000000E+00  0.00000000000E+00  0.66353189028E+02  0.66353189028E+02  0.00000000000E+00 0. -1.
          1   -1    0    0  502    0 -0.00000000000E+00 -0.00000000000E+00 -0.16472811773E+04  0.16472811773E+04  0.00000000000E+00 0. -1.
         25    1    1    2    0    0 -0.18574389415E+03 -0.15336173733E+03 -0.44417411593E+03  0.52051538109E+03  0.12500000000E+03 0.  0.
         21    1    1    2  503  501  0.82533127522E+02  0.97159391694E+02 -0.13954540590E+03  0.18900948347E+03  0.00000000000E+00 0. -1.
          1    1    1    2  501    0  0.10321076662E+03  0.56202345632E+02 -0.99720846646E+03  0.10041095018E+04  0.00000000000E+00 0. -1.
<mgrwt>
<rscale>  4 0.21772210E+03</rscale>
<asrwt>0</asrwt>
<pdfrwt beam="1">  1       21 0.10208184E-01 0.21772210E+03</pdfrwt>
<pdfrwt beam="2">  1        1 0.25342786E+00 0.21772210E+03</pdfrwt>
<totfact> 0.50446133E+03</totfact>
</mgrwt>
</event>
<event>
 5    0  0.1041609E-002  0.3646717E+03  0.7546771E-02  0.1056749E+00
         -3   -1    0    0    0  501 -0.00000000000E+00  0.00000000000E+00  0.52983690889E+02  0.52983690889E+02  0.00000000000E+00 0. -1.
         21   -1    0    0  501  502  0.00000000000E+00 -0.00000000000E+00 -0.26566542580E+04  0.26566542580E+04  0.00000000000E+00 0. -1.
         25    1    1    2    0    0  0.29843426050E+03  0.82249505252E+02 -0.15310457639E+04  0.15670207785E+04  0.12500000000E+03 0.  0.
         21    1    1    2  503  502 -0.34211085859E+02  0.77302103324E+02 -0.20621670968E+03  0.22287069104E+03  0.00000000000E+00 0.  1.
         -3    1    1    2    0  503 -0.26422317464E+03 -0.15955160858E+03 -0.86640809347E+03  0.91974647934E+03  0.00000000000E+00 0. -1.
<mgrwt>
<rscale>  4 0.36467173E+03</rscale>
<asrwt>0</asrwt>
<pdfrwt beam="1">  1       21 0.40871587E+00 0.36467173E+03</pdfrwt>
<pdfrwt beam="2">  1       -3 0.81513405E-02 0.36467173E+03</pdfrwt>
<totfact> 0.34050962E+01</totfact>
</mgrwt>
</event>
<event>
 5    0  0.1041609E-002  0.4415869E+03  0.7546771E-02  0.1030261E+00
         -2   -1    0    0    0  501 -0.00000000000E+00  0.00000000000E+00  0.29792994535E+04  0.29792994535E+04  0.00000000000E+00 0.  1.
         21   -1    0    0  501  502  0.00000000000E+00 -0.00000000000E+00 -0.86932676537E+02  0.86932676537E+02  0.00000000000E+00 0.  1.
         25    1    1    2    0    0 -0.31455759608E+02  0.32507758331E+03  0.10843423408E+04  0.11393367422E+04  0.12500000000E+03 0.  0.
         21    1    1    2  503  502 -0.89568575811E+02  0.23814433821E+02  0.12754626928E+04  0.12788255306E+04  0.00000000000E+00 0.  1.
         -2    1    1    2    0  503  0.12102433542E+03 -0.34889201714E+03  0.53256174331E+03  0.64806985721E+03  0.00000000000E+00 0.  1.
<mgrwt>
<rscale>  4 0.44158692E+03</rscale>
<asrwt>0</asrwt>
<pdfrwt beam="1">  1       21 0.13374260E-01 0.44158692E+03</pdfrwt>
<pdfrwt beam="2">  1       -2 0.45835368E+00 0.44158692E+03</pdfrwt>
<totfact> 0.13642289E+01</totfact>
</mgrwt>
</event>
<event>
 5    0  0.1041609E-002  0.2852637E+03  0.7546771E-02  0.1092848E+00
         21   -1    0    0  501  502  0.00000000000E+00  0.00000000000E+00  0.64533093247E+03  0.64533093247E+03  0.00000000000E+00 0. -1.
         -1   -1    0    0    0  501 -0.00000000000E+00 -0.00000000000E+00 -0.28382063696E+03  0.28382063696E+03  0.00000000000E+00 0. -1.
         25    1    1    2    0    0 -0.35245403875E+02  0.27165162908E+03 -0.13019451914E+03  0.32804337959E+03  0.12500000000E+03 0.  0.
         21    1    1    2  503  502 -0.17085300360E+02 -0.46400880900E+02 -0.83732804051E+01  0.50150384460E+02  0.00000000000E+00 0. -1.
         -1    1    1    2    0  503  0.52330704236E+02 -0.22525074818E+03  0.50007809505E+03  0.55095780538E+03  0.00000000000E+00 0. -1.
<mgrwt>
<rscale>  4 0.28526374E+03</rscale>
<asrwt>0</asrwt>
<pdfrwt beam="1">  1       21 0.99281682E-01 0.28526374E+03</pdfrwt>
<pdfrwt beam="2">  1       -1 0.43664713E-01 0.28526374E+03</pdfrwt>
<totfact> 0.38882793E+02</totfact>
</mgrwt>
</event>
<event>
 5    0  0.1041609E-002  0.2639906E+03  0.7546771E-02  0.1104769E+00
         21   -1    0    0  503  502  0.00000000000E+00  0.00000000000E+00  0.69436624035E+02  0.69436624035E+02  0.00000000000E+00 0. -1.
          2   -1    0    0  502    0 -0.00000000000E+00 -0.00000000000E+00 -0.31812620480E+04  0.31812620480E+04  0.00000000000E+00 0. -1.
         25    1    1    2    0    0  0.93273865280E+02 -0.27158499960E+03 -0.38038675822E+03  0.49272458004E+03  0.12500000000E+03 0.  0.
         21    1    1    2  503  501 -0.10099824107E+02  0.17637365396E+03 -0.67769553017E+03  0.70034341853E+03  0.00000000000E+00 0. -1.
          2    1    1    2  501    0 -0.83174041173E+02  0.95211345633E+02 -0.20537431356E+04  0.20576306735E+04  0.00000000000E+00 0. -1.
<mgrwt>
<rscale>  4 0.26399060E+03</rscale>
<asrwt>0</asrwt>
<pdfrwt beam="1">  1       21 0.10682556E-01 0.26399060E+03</pdfrwt>
<pdfrwt beam="2">  1        2 0.48942500E+00 0.26399060E+03</pdfrwt>
<totfact> 0.14750515E+03</totfact>
</mgrwt>
</event>
<event>
 5    0  0.1041609E-002  0.4139100E+03  0.7546771E-02  0.1039067E+00
         21   -1    0    0  503  502  0.00000000000E+00  0.00000000000E+00  0.57559252154E+03  0.57559252154E+03  0.00000000000E+00 0.  1.
          2   -1    0    0  502    0 -0.00000000000E+00 -0.00000000000E+00 -0.94250019924E+03  0.94250019924E+03  0.00000000000E+00 0.  1.
         25    1    1    2    0    0  0.17191041864E+03  0.27613242833E+03 -0.62730771863E+03  0.71759479086E+03  0.12500000000E+03 0.  0.
         21    1    1    2  503  501 -0.17591052692E+03  0.40133236705E+02 -0.18225082967E+03  0.25645770623E+03  0.00000000000E+00 0. -1.
          2    1    1    2  501    0  0.40001082866E+01 -0.31626566503E+03  0.44265087060E+03  0.54404022369E+03  0.00000000000E+00 0.  1.
<mgrwt>
<rscale>  4 0.41390999E+03</rscale>
<asrwt>0</asrwt>
<pdfrwt beam="1">  1       21 0.88552697E-01 0.41390999E+03</pdfrwt>
<pdfrwt beam="2">  1        2 0.14500003E+00 0.41390999E+03</pdfrwt>
<totfact> 0.35493983E+02</totfact>
</mgrwt>
</event>
<event>
 5    0  0.1041609E-002  0.2171511E+03  0.7546771E-02  0.1136025E+00
          1   -1    0    0  502    0 -0.00000000000E+00  0.00000000000E+00  0.23022188701E+04  0.23022188701E+04  0.00000000000E+00 0.  1.
         21   -1    0    0  503  502  0.00000000000E+00 -0.00000000000E+00 -0.30653248652E+02  0.30653248652E+02  0.00000000000E+00 0.  1.
         25    1    1    2    0    0 -0.19384201022E+03 -0.10706134556E+03  0.69676235344E+03  0.74171398383E+03  0.12500000000E+03 0.  0.
         21    1    1    2  503  501  0.76364864912E+02  0.70207025021E+02  0.65865389323E+03  0.66677250245E+03  0.00000000000E+00 0. -1.
          1    1    1    2  501    0  0.11747714531E+03  0.36854320540E+02  0.91614937480E+03  0.92438563249E+03  0.00000000000E+00 0.  1.
<mgrwt>
<rscale>  4 0.21715106E+03</rscale>
<asrwt>0</asrwt>
<pdfrwt beam="1">  1       21 0.47158862E-02 0.21715106E+03</pdfrwt>
<pdfrwt beam="2">  1        1 0.35418738E+00 0.21715106E+03</pdfrwt>
<totfact> 0.72414278E+03</totfact>
</mgrwt>
</event>
<event>
 5    0  0.1041609E-002  0.4778914E+03  0.7546771E-02  0.1019716E+00
          1   -1    0    0  502    0 -0.00000000000E+00  0.00000000000E+00  0.15615341669E+04  0.15615341669E+04  0.00000000000E+00 0.  1.
         21   -1    0    0  503  502  0.00000000000E+00 -0.00000000000E+00 -0.21831039516E+03  0.21831039516E+03  0.00000000000E+00 0.  1.
         25    1    1    2    0    0  0.10808308377E+02 -0.23785220659E+03  0.69283984931E+02  0.27769724931E+03  0.12500000000E+03 0.  0.
         21    1    1    2  503  501  0.25399059860E+03 -0.87581173214E+02  0.16209696131E+03  0.31377876114E+03  0.00000000000E+00 0.  1.
          1    1    1    2  501    0 -0.26479890697E+03  0.32543337980E+03  0.11118428255E+04  0.11883685516E+04  0.00000000000E+00 0.  1.
<mgrwt>
<rscale>  4 0.47789136E+03</rscale>
<asrwt>0</asrwt>
<pdfrwt beam="1">  1       21 0.33586216E-01 0.47789136E+03</pdfrwt>
<pdfrwt beam="2">  1        1 0.24023602E+00 0.47789136E+03</pdfrwt>
<totfact> 0.56046974E+02</totfact>
</mgrwt>
</event>
<event>
 5    0  0.1041609E-002  0.3253612E+03  0.7546771E-02  0.1073208E+00
         21   -1    0    0  501  502  0.00000000000E+00  0.00000000000E+00  0.46231340385E+03  0.46231340385E+03  0.00000000000E+00 0.  1.
         -4   -1    0    0    0  501 -0.00000000000E+00 -0.00000000000E+00 -0.27077062541E+03  0.27077062541E+03  0.00000000000E+00 0.  1.
         25    1    1    2    0    0 -0.17909639134E+03  0.18103785161E+03  0.26776874706E+03  0.39009655601E+03  0.12500000000E+03 0.  0.
         21    1    1    2  503  502 -0.40613547136E+02  0.84875277588E+01 -0.24707043138E+02  0.48290126517E+02  0.00000000000E+00 0.  1.
         -4    1    1    2    0  503  0.21970993847E+03 -0.18952537937E+03 -0.51518925473E+02  0.29469734673E+03  0.00000000000E+00 0.  1.
<mgrwt>
<rscale>  4 0.32536124E+03</rscale>
<asrwt>0</asrwt>
<pdfrwt beam="1">  1       21 0.71125139E-01 0.32536124E+03</pdfrwt>
<pdfrwt beam="2">  1       -4 0.41657019E-01 0.32536124E+03</pdfrwt>
<totfact> 0.41606491E+02</totfact>
</mgrwt>
</event>
<event>
 5    0  0.1041609E-002  0.5214195E+03  0.7546771E-02  0.1008335E+00
          2   -1    0    0  502    0 -0.00000000000E+00  0.00000000000E+00  0.23123170444E+04  0.23123170444E+04  0.00000000000E+00 0. -1.
         21   -1    0    0  503  502  0.00000000000E+00 -0.00000000000E+00 -0.14911457681E+03  0.14911457681E+03  0.00000000000E+00 0. -1.
         25    1    1    2    0    0 -0.16142833013E+03  0.24037877664E+03  0.19294792289E+03  0.36972281912E+03  0.12500000000E+03 0.  0.
         21    1    1    2  503  501  0.10965154995E+03  0.20773530216E+03  0.47526929800E+03  0.53014934103E+03  0.00000000000E+00 0. -1.
          2    1    1    2  501    0  0.51776780184E+02 -0.44811407880E+03  0.14949852467E+04  0.15615594610E+04  0.00000000000E+00 0. -1.
<mgrwt>
<rscale>  4 0.52141953E+03</rscale>
<asrwt>0</asrwt>
<pdfrwt beam="1">  1       21 0.22940706E-01 0.52141953E+03</pdfrwt>
<pdfrwt beam="2">  1        2 0.35574106E+00 0.52141953E+03</pdfrwt>
<totfact> 0.10265802E+03</totfact>
</mgrwt>
</event>
<event>
 5    0  0.1041609E-002  0.7849131E+03  0.7546771E-02  0.9582115E-01
         21   -1    0    0  503  502  0.00000000000E+00  0.00000000000E+00  0.83761133828E+03  0.83761133828E+03  0.00000000000E+00 0. -1.
          2   -1    0    0  502    0 -0.00000000000E+00 -0.00000000000E+00 -0.10700100486E+04  0.10700100486E+04  0.00000000000E+00 0. -1.
         25    1    1    2    0    0  0.52487167870E+03 -0.39413883410E+03 -0.40049142090E+03  0.77900839396E+03  0.12500000000E+03 0.  0.
         21    1    1    2  503  501  0.54559794036E+02  0.39046915921E+03 -0.20005028583E+03  0.44211203589E+03  0.00000000000E+00 0.  1.
          2    1    1    2  501    0 -0.57943147273E+03  0.36696748919E+01  0.36814299646E+03  0.68650095699E+03  0.00000000000E+00 0. -1.
<mgrwt>
<rscale>  4 0.78491309E+03</rscale>
<asrwt>0</asrwt>
<pdfrwt beam="1">  1       21 0.12886328E+00 0.78491309E+03</pdfrwt>
<pdfrwt beam="2">  1        2 0.16461693E+00 0.78491309E+03</pdfrwt>
<totfact> 0.10552314E+02</totfact>
</mgrwt>
</event>
<event>
 5    0  0.1041609E-002  0.3734263E+03  0.7546771E-02  0.1053391E+00
         21   -1    0    0  503  502  0.00000000000E+00  0.00000000000E+00  0.91604998825E+02  0.91604998825E+02  0.00000000000E+00 0. -1.
          2   -1    0    0  502    0 -0.00000000000E+00 -0.00000000000E+00 -0.37927902807E+04  0.37927902807E+04  0.00000000000E+00 0. -1.
         25    1    1    2    0    0 -0.23626751082E+02 -0.24657479264E+03 -0.23414727842E+03  0.36305275061E+03  0.12500000000E+03 0.  0.
         21    1    1    2  503  501 -0.11015413805E+03 -0.62775598251E+02 -0.19890889590E+03  0.23588017876E+03  0.00000000000E+00 0.  1.
          2    1    1    2  501    0  0.13378088913E+03  0.30935039089E+03 -0.32681291075E+04  0.32854623501E+04  0.00000000000E+00 0. -1.
<mgrwt>
<rscale>  4 0.37342635E+03</rscale>
<asrwt>0</asrwt>
<pdfrwt beam="1">  1       21 0.14093078E-01 0.37342635E+03</pdfrwt>
<pdfrwt beam="2">  1        2 0.58350616E+00 0.37342635E+03</pdfrwt>
<totfact> 0.33021159E+02</totfact>
</mgrwt>
</event>
<event>
 5    0  0.1041609E-002  0.1794663E+03  0.7546771E-02  0.1168321E+00
         21   -1    0    0  503  502  0.00000000000E+00  0.00000000000E+00  0.19763929996E+03  0.19763929996E+03  0.00000000000E+00 0.  1.
          2   -1    0    0  502    0 -0.00000000000E+00 -0.00000000000E+00 -0.29761543733E+03  0.29761543733E+03  0.00000000000E+00 0.  1.
         25    1    1    2    0    0 -0.22012821626E+03 -0.71244170717E+01 -0.59784943979E+02  0.26020458958E+03  0.12500000000E+03 0.  0.
         21    1    1    2  503  501  0.13823380929E+03  0.81422337166E+01 -0.59801034284E+02  0.15083449772E+03  0.00000000000E+00 0. -1.
          2    1    1    2  501    0  0.81894406970E+02 -0.10178166449E+01  0.19609840896E+02  0.84215649993E+02  0.00000000000E+00 0.  1.
<mgrwt>
<rscale>  4 0.17946634E+03</rscale>
<asrwt>0</asrwt>
<pdfrwt beam="1">  1       21 0.30406046E-01 0.17946634E+03</pdfrwt>
<pdfrwt beam="2">  1        2 0.45786991E-01 0.17946634E+03</pdfrwt>
<totfact> 0.14228629E+04</totfact>
</mgrwt>
</event>
<event>
 5    0  0.1041609E-002  0.4260691E+03  0.7546771E-02  0.1035109E+00
         21   -1    0    0  503  502  0.00000000000E+00  0.00000000000E+00  0.11810495516E+03  0.11810495516E+03  0.00000000000E+00 0. -1.
          1   -1    0    0  502    0 -0.00000000000E+00 -0.00000000000E+00 -0.16508092873E+04  0.16508092873E+04  0.00000000000E+00 0. -1.
         25    1    1    2    0    0 -0.14409048151E+03  0.34341768909E+03 -0.48286195180E+03  0.62247766268E+03  0.12500000000E+03 0.  0.
         21    1    1    2  503  501 -0.77927643098E+02 -0.91244616098E+02 -0.35277465137E+03  0.37262347239E+03  0.00000000000E+00 0.  1.
          1    1    1    2  501    0  0.22201812461E+03 -0.25217307299E+03 -0.69706772895E+03  0.77381310737E+03  0.00000000000E+00 0. -1.
<mgrwt>
<rscale>  4 0.42606905E+03</rscale>
<asrwt>0</asrwt>
<pdfrwt beam="1">  1       21 0.18169995E-01 0.42606905E+03</pdfrwt>
<pdfrwt beam="2">  1        1 0.25397063E+00 0.42606905E+03</pdfrwt>
<totfact> 0.16374072E+03</totfact>
</mgrwt>
</event>
<event>
 5    0  0.1041609E-002  0.3938216E+03  0.7546771E-02  0.1045940E+00
         21   -1    0    0  503  502  0.00000000000E+00  0.00000000000E+00  0.82064132586E+02  0.82064132586E+02  0.00000000000E+00 0. -1.
          2   -1    0    0  502    0 -0.00000000000E+00 -0.00000000000E+00 -0.26304082099E+04  0.26304082099E+04  0.00000000000E+00 0. -1.
         25    1    1    2    0    0  0.26695152876E+03 -0.22104870455E+03 -0.18470984045E+04  0.18834869695E+04  0.12500000000E+03 0.  0.
         21    1    1    2  503  501 -0.75601123148E+02  0.11580829711E+03 -0.58519276534E+02  0.15017189227E+03  0.00000000000E+00 0.  1.
          2    1    1    2  501    0 -0.19135040561E+03  0.10524040743E+03 -0.64272639628E+03  0.67881348069E+03  0.00000000000E+00 0. -1.
<mgrwt>
<rscale>  4 0.39382162E+03</rscale>
<asrwt>0</asrwt>
<pdfrwt beam="1">  1       21 0.12625249E-01 0.39382162E+03</pdfrwt>
<pdfrwt beam="2">  1        2 0.40467824E+00 0.39382162E+03</pdfrwt>
<totfact> 0.21739800E+03</totfact>
</mgrwt>
</event>
<event>
 5    0  0.1041609E-002  0.3016905E+03  0.7546771E-02  0.1084399E+00
         -2   -1    0    0    0  501 -0.00000000000E+00  0.00000000000E+00  0.28537684193E+04  0.28537684193E+04  0.00000000000E+00 0.  1.
         21   -1    0    0  501  502  0.00000000000E+00 -0.00000000000E+00 -0.42221683122E+02  0.42221683122E+02  0.00000000000E+00 0.  1.
         25    1    1    2    0    0 -0.24010379384E+03 -0.33420315655E+02  0.17749251032E+04  0.17957591351E+04  0.12500000000E+03 0.  0.
         21    1    1    2  503  502 -0.10630916975E+02  0.82482527774E+02  0.48800595402E+03  0.49504160930E+03  0.00000000000E+00 0. -1.
         -2    1    1    2    0  503  0.25073471081E+03 -0.49062212119E+02  0.54861567895E+03  0.60518935802E+03  0.00000000000E+00 0.  1.
<mgrwt>
<rscale>  4 0.30169048E+03</rscale>
<asrwt>0</asrwt>
<pdfrwt beam="1">  1       21 0.64956458E-02 0.30169048E+03</pdfrwt>
<pdfrwt beam="2">  1       -2 0.43904114E+00 0.30169048E+03</pdfrwt>
<totfact> 0.70018172E+01</totfact>
</mgrwt>
</event>
