<event>
 5    0  0.8533808E-002  0.3004299E+03  0.7546771E-02  0.1085026E+00
         21   -1    0    0  503  502  0.00000000000E+00  0.00000000000E+00  0.48570214305E+03  0.48570214305E+03  0.00000000000E+00 0. -1.
         21   -1    0    0  501  503 -0.00000000000E+00 -0.00000000000E+00 -0.17913920262E+03  0.17913920262E+03  0.00000000000E+00 0. -1.
         25    1    1    2    0    0 -0.25931753383E+03  0.85950823935E+02  0.99816686314E+02  0.31657779195E+03  0.12500000000E+03 0.  0.
          2    1    1    2  501    0  0.18466898287E+03 -0.69046855633E+02  0.18063625984E+03  0.26739401616E+03  0.00000000000E+00 0. -1.
         -2    1    1    2    0  502  0.74648550961E+02 -0.16903968302E+02  0.26109994278E+02  0.80869537566E+02  0.00000000000E+00 0.  1.
<mgrwt>
<rscale>  4 0.30042990E+03</rscale>
<asrwt>0</asrwt>
<pdfrwt beam="1">  1       21 0.74723406E-01 0.30042990E+03</pdfrwt>
<pdfrwt beam="2">  1       21 0.27559877E-01 0.30042990E+03</pdfrwt>
<totfact> 0.19078014E+04</totfact>
</mgrwt>
</event>
<event>
 5    0  0.8533808E-002  0.2666280E+03  0.7546771E-02  0.1103225E+00
         21   -1    0    0  501  502  0.00000000000E+00  0.00000000000E+00  0.32364694910E+03  0.32364694910E+03  0.00000000000E+00 0.  1.
         21   -1    0    0  502  503 -0.00000000000E+00 -0.00000000000E+00 -0.15612007572E+04  0.15612007572E+04  0.00000000000E+00 0.  1.
         25    1    1    2    0    0 -0.17209735148E+03  0.16662565594E+03 -0.14233133194E+04  0.14487330371E+04  0.12500000000E+03 0.  0.
          4    1    1    2  501    0  0.41581292986E+02 -0.17290418319E+03  0.23653547680E+03  0.29592886354E+03  0.00000000000E+00 0.  1.
         -4    1    1    2    0  503  0.13051605849E+03  0.62785272534E+01 -0.50775965442E+02  0.14018580561E+03  0.00000000000E+00 0. -1.
<mgrwt>
<rscale>  4 0.26662802E+03</rscale>
<asrwt>0</asrwt>
<pdfrwt beam="1">  1       21 0.49791838E-01 0.26662802E+03</pdfrwt>
<pdfrwt beam="2">  1       21 0.24018473E+00 0.26662802E+03</pdfrwt>
<totfact> 0.26784408E+02</totfact>
</mgrwt>
</event>
<event>
 5    0  0.8533808E-002  0.2495240E+03  0.7546771E-02  0.1113606E+00
         21   -1    0    0  501  502  0.00000000000E+00  0.00000000000E+00  0.26780512772E+03  0.26780512772E+03  0.00000000000E+00 0.  1.
         21   -1    0    0  502  503 -0.00000000000E+00 -0.00000000000E+00 -0.21470371064E+03  0.21470371064E+03  0.00000000000E+00 0. -1.
         25    1    1    2    0    0  0.97143920171E+02  0.19287369363E+03  0.37838323311E+02  0.25237658693E+03  0.12500000000E+03 0.  0.
          1    1    1    2  501    0 -0.31512561506E+02 -0.14501101389E+03  0.99061516047E+01  0.14872581324E+03  0.00000000000E+00 0. -1.
         -1    1    1    2    0  503 -0.65631358664E+02 -0.47862679732E+02  0.53569421654E+01  0.81406438201E+02  0.00000000000E+00 0.  1.
<mgrwt>
<rscale>  4 0.24952395E+03</rscale>
<asrwt>0</asrwt>
<pdfrwt beam="1">  1       21 0.41200789E-01 0.24952395E+03</pdfrwt>
<pdfrwt beam="2">  1       21 0.33031340E-01 0.24952395E+03</pdfrwt>
<totfact> 0.48806294E+04</totfact>
</mgrwt>
</event>
<event>
 5    0  0.8533808E-002  0.2726077E+03  0.7546771E-02  0.1099796E+00
         21   -1    0    0  501  502  0.00000000000E+00  0.00000000000E+00  0.15904631163E+03  0.15904631163E+03  0.00000000000E+00 0. -1.
         21   -1    0    0  502  503 -0.00000000000E+00 -0.00000000000E+00 -0.44932680599E+03  0.44932680599E+03  0.00000000000E+00 0. -1.
         25    1    1    2    0    0 -0.24177511426E+03 -0.15322112877E+02 -0.12214125663E+03  0.29871970071E+03  0.12500000000E+03 0.  0.
          3    1    1    2  501    0  0.14215886619E+03  0.45712044060E+02 -0.64298003436E+02  0.16258218677E+03  0.00000000000E+00 0. -1.
         -3    1    1    2    0  503  0.99616248068E+02 -0.30389931182E+02 -0.10384123430E+03  0.14707123015E+03  0.00000000000E+00 0.  1.
<mgrwt>
<rscale>  4 0.27260773E+03</rscale>
<asrwt>0</asrwt>
<pdfrwt beam="1">  1       21 0.24468663E-01 0.27260773E+03</pdfrwt>
<pdfrwt beam="2">  1       21 0.69127201E-01 0.27260773E+03</pdfrwt>
<totfact> 0.28913167E+04</totfact>
</mgrwt>
</event>
<event>
 5    0  0.8533808E-002  0.2514954E+03  0.7546771E-02  0.1112363E+00
         21   -1    0    0  503  502  0.00000000000E+00  0.00000000000E+00  0.21697641056E+04  0.21697641056E+04  0.00000000000E+00 0. -1.
         21   -1    0    0  501  503 -0.00000000000E+00 -0.00000000000E+00 -0.36370398451E+02  0.36370398451E+02  0.00000000000E+00 0. -1.
         25    1    1    2    0    0 -0.20415020929E+03 -0.77120943607E+02  0.16981183759E+04  0.17166408962E+04  0.12500000000E+03 0.  0.
          3    1    1    2  501    0  0.69079199169E+02  0.16038084065E+01  0.14015826680E+03  0.15626531193E+03  0.00000000000E+00 0.  1.
         -3    1    1    2    0  502  0.13507101012E+03  0.75517135201E+02  0.29511706446E+03  0.33322829595E+03  0.00000000000E+00 0. -1.
<mgrwt>
<rscale>  4 0.25149542E+03</rscale>
<asrwt>0</asrwt>
<pdfrwt beam="1">  1       21 0.33380976E+00 0.25149542E+03</pdfrwt>
<pdfrwt beam="2">  1       21 0.55954476E-02 0.25149542E+03</pdfrwt>
<totfact> 0.45327807E+03</totfact>
</mgrwt>
</event>
<event>
 5    0  0.8533808E-002  0.2317469E+03  0.7546771E-02  0.1125416E+00
         21   -1    0    0  501  502  0.00000000000E+00  0.00000000000E+00  0.15951299543E+03  0.15951299543E+03  0.00000000000E+00 0.  1.
         21   -1    0    0  502  503 -0.00000000000E+00 -0.00000000000E+00 -0.21592344906E+04  0.21592344906E+04  0.00000000000E+00 0. -1.
         25    1    1    2    0    0 -0.19337236068E+03  0.12103834717E+03 -0.18789032538E+04  0.18968251339E+04  0.12500000000E+03 0.  0.
          3    1    1    2  501    0  0.57092247034E+02 -0.11127577010E+03  0.10143549456E+03  0.16103099465E+03  0.00000000000E+00 0. -1.
         -3    1    1    2    0  503  0.13628011364E+03 -0.97625770664E+01 -0.22225373592E+03  0.26089135750E+03  0.00000000000E+00 0.  1.
<mgrwt>
<rscale>  4 0.23174693E+03</rscale>
<asrwt>0</asrwt>
<pdfrwt beam="1">  1       21 0.24540461E-01 0.23174693E+03</pdfrwt>
<pdfrwt beam="2">  1       21 0.33218991E+00 0.23174693E+03</pdfrwt>
<totfact> 0.32991846E+02</totfact>
</mgrwt>
</event>
<event>
 5    0  0.8533808E-002  0.4183904E+03  0.7546771E-02  0.1038255E+00
         21   -1    0    0  503  502  0.00000000000E+00  0.00000000000E+00  0.13855738471E+04  0.13855738471E+04  0.00000000000E+00 0. -1.
         21   -1    0    0  501  503 -0.00000000000E+00 -0.00000000000E+00 -0.18090794142E+03  0.18090794142E+03  0.00000000000E+00 0.  1.
         25    1    1    2    0    0 -0.13162975602E+03  0.36802991724E+03  0.15877095163E+03  0.44000639511E+03  0.12500000000E+03 0.  0.
          4    1    1    2  501    0 -0.17522201473E+01 -0.21315254158E+03  0.49832858732E+03  0.54200411179E+03  0.00000000000E+00 0.  1.
         -4    1    1    2    0  502  0.13338197617E+03 -0.15487737566E+03  0.54756636676E+03  0.58447128164E+03  0.00000000000E+00 0. -1.
<mgrwt>
<rscale>  4 0.41636886E+03</rscale>
<asrwt>0</asrwt>
<pdfrwt beam="1">  1       21 0.21316520E+00 0.41839044E+03</pdfrwt>
<pdfrwt beam="2">  1       21 0.27831992E-01 0.41839044E+03</pdfrwt>
<totfact> 0.11562032E+03</totfact>
</mgrwt>
</event>
<event>
 5    0  0.8533808E-002  0.2415953E+03  0.7546771E-02  0.1118735E+00
         21   -1    0    0  501  502  0.00000000000E+00  0.00000000000E+00  0.11873374858E+04  0.11873374858E+04  0.00000000000E+00 0. -1.
         21   -1    0    0  502  503 -0.00000000000E+00 -0.00000000000E+00 -0.49269564471E+02  0.49269564471E+02  0.00000000000E+00 0. -1.
         25    1    1    2    0    0 -0.20645588740E+03  0.10920660161E+02  0.42798243178E+03  0.49146439970E+03  0.12500000000E+03 0.  0.
          4    1    1    2  501    0  0.17498648530E+03  0.26423036357E+02  0.54920236974E+03  0.57701099627E+03  0.00000000000E+00 0. -1.
         -4    1    1    2    0  503  0.31469402102E+02 -0.37343696518E+02  0.16088311976E+03  0.16813165425E+03  0.00000000000E+00 0.  1.
<mgrwt>
<rscale>  4 0.24159531E+03</rscale>
<asrwt>0</asrwt>
<pdfrwt beam="1">  1       21 0.18266728E+00 0.24159531E+03</pdfrwt>
<pdfrwt beam="2">  1       21 0.75799339E-02 0.24159531E+03</pdfrwt>
<totfact> 0.22273801E+04</totfact>
</mgrwt>
</event>
<event>
 5    0  0.8533808E-002  0.3198674E+03  0.7546771E-02  0.1075710E+00
         21   -1    0    0  503  502  0.00000000000E+00  0.00000000000E+00  0.60660116182E+03  0.60660116182E+03  0.00000000000E+00 0.  1.
         21   -1    0    0  501  503 -0.00000000000E+00 -0.00000000000E+00 -0.21081379839E+03  0.21081379839E+03  0.00000000000E+00 0.  1.
         25    1    1    2    0    0  0.17939406691E+03  0.23923958308E+03  0.95235946411E+02  0.33780570576E+03  0.12500000000E+03 0.  0.
          3    1    1    2  501    0 -0.40884251586E+02  0.19352657690E+02 -0.16048181529E+02  0.47995744788E+02  0.00000000000E+00 0. -1.
         -3    1    1    2    0  502 -0.13850981532E+03 -0.25859224077E+03  0.31659959854E+03  0.43161350966E+03  0.00000000000E+00 0.  1.
<mgrwt>
<rscale>  4 0.31986738E+03</rscale>
<asrwt>0</asrwt>
<pdfrwt beam="1">  1       21 0.93323255E-01 0.31986738E+03</pdfrwt>
<pdfrwt beam="2">  1       21 0.32432892E-01 0.31986738E+03</pdfrwt>
<totfact> 0.82159353E+03</totfact>
</mgrwt>
</event>
<event>
 5    0  0.8533808E-002  0.2582985E+03  0.7546771E-02  0.1108170E+00
         21   -1    0    0  503  502  0.00000000000E+00  0.00000000000E+00  0.13670247642E+03  0.13670247642E+03  0.00000000000E+00 0.  1.
         21   -1    0    0  501  503 -0.00000000000E+00 -0.00000000000E+00 -0.46240076477E+03  0.46240076477E+03  0.00000000000E+00 0.  1.
         25    1    1    2    0    0 -0.14783016644E+03  0.17099521674E+03 -0.20352946016E+03  0.32885006220E+03  0.12500000000E+03 0.  0.
          1    1    1    2  501    0  0.11079050502E+03 -0.16910307152E+03 -0.90551334105E+02  0.22151733320E+03  0.00000000000E+00 0.  1.
         -1    1    1    2    0  502  0.37039661426E+02 -0.18921452211E+01 -0.31617494088E+02  0.48735845786E+02  0.00000000000E+00 0. -1.
<mgrwt>
<rscale>  4 0.25829851E+03</rscale>
<asrwt>0</asrwt>
<pdfrwt beam="1">  1       21 0.21031151E-01 0.25829851E+03</pdfrwt>
<pdfrwt beam="2">  1       21 0.71138578E-01 0.25829851E+03</pdfrwt>
<totfact> 0.36409058E+04</totfact>
</mgrwt>
</event>
<event>
 5    0  0.8533808E-002  0.2901840E+03  0.7546771E-02  0.1090253E+00
         21   -1    0    0  501  502  0.00000000000E+00  0.00000000000E+00  0.50222079447E+03  0.50222079447E+03  0.00000000000E+00 0. -1.
         21   -1    0    0  502  503 -0.00000000000E+00 -0.00000000000E+00 -0.22777289082E+03  0.22777289082E+03  0.00000000000E+00 0. -1.
         25    1    1    2    0    0  0.25406164862E+03 -0.63517220394E+02 -0.55257467129E+02  0.29539828412E+03  0.12500000000E+03 0.  0.
          2    1    1    2  501    0 -0.15100478859E+03 -0.14060686339E+02  0.20658619892E+03  0.25627720668E+03  0.00000000000E+00 0. -1.
         -2    1    1    2    0  503 -0.10305686003E+03  0.77577906732E+02  0.12311917185E+03  0.17831819450E+03  0.00000000000E+00 0.  1.
<mgrwt>
<rscale>  4 0.29018401E+03</rscale>
<asrwt>0</asrwt>
<pdfrwt beam="1">  1       21 0.77264737E-01 0.29018401E+03</pdfrwt>
<pdfrwt beam="2">  1       21 0.35041983E-01 0.29018401E+03</pdfrwt>
<totfact> 0.11049543E+04</totfact>
</mgrwt>
</event>
<event>
 5    0  0.8533808E-002  0.3025620E+03  0.7546771E-02  0.1083967E+00
         21   -1    0    0  503  502  0.00000000000E+00  0.00000000000E+00  0.29327993364E+03  0.29327993364E+03  0.00000000000E+00 0. -1.
         21   -1    0    0  501  503 -0.00000000000E+00 -0.00000000000E+00 -0.64857226868E+03  0.64857226868E+03  0.00000000000E+00 0.  1.
         25    1    1    2    0    0  0.19713956891E+03 -0.14867009411E+03 -0.25739490478E+03  0.37794701152E+03  0.12500000000E+03 0.  0.
          1    1    1    2  501    0 -0.31272910822E+03 -0.44241023466E+02  0.66242598035E+01  0.31591239942E+03  0.00000000000E+00 0. -1.
         -1    1    1    2    0  502  0.11558953931E+03  0.19291111758E+03 -0.10452169006E+03  0.24799279138E+03  0.00000000000E+00 0.  1.
<mgrwt>
<rscale>  4 0.30256196E+03</rscale>
<asrwt>0</asrwt>
<pdfrwt beam="1">  1       21 0.45119991E-01 0.30256196E+03</pdfrwt>
<pdfrwt beam="2">  1       21 0.99780347E-01 0.30256196E+03</pdfrwt>
<totfact> 0.36124372E+03</totfact>
</mgrwt>
</event>
<event>
 5    0  0.8533808E-002  0.2278869E+03  0.7546771E-02  0.1128136E+00
         21   -1    0    0  501  502  0.00000000000E+00  0.00000000000E+00  0.10287140235E+04  0.10287140235E+04  0.00000000000E+00 0.  1.
         21   -1    0    0  502  503 -0.00000000000E+00 -0.00000000000E+00 -0.98173379491E+02  0.98173379491E+02  0.00000000000E+00 0.  1.
         25    1    1    2    0    0 -0.17540999258E+02 -0.21025461984E+03  0.27185058363E+03  0.36611805697E+03  0.12500000000E+03 0.  0.
          4    1    1    2  501    0  0.15665719539E+03  0.12714361834E+03  0.47346711822E+03  0.51466308260E+03  0.00000000000E+00 0.  1.
         -4    1    1    2    0  503 -0.13911619614E+03  0.83111001497E+02  0.18522294218E+03  0.24610626344E+03  0.00000000000E+00 0. -1.
<mgrwt>
<rscale>  4 0.22788691E+03</rscale>
<asrwt>0</asrwt>
<pdfrwt beam="1">  1       21 0.15826369E+00 0.22788691E+03</pdfrwt>
<pdfrwt beam="2">  1       21 0.15103598E-01 0.22788691E+03</pdfrwt>
<totfact> 0.97852799E+03</totfact>
</mgrwt>
</event>
<event>
 5    0  0.8533808E-002  0.2283068E+03  0.7546771E-02  0.1127837E+00
         21   -1    0    0  501  502  0.00000000000E+00  0.00000000000E+00  0.99000727164E+03  0.99000727164E+03  0.00000000000E+00 0.  1.
         21   -1    0    0  502  503 -0.00000000000E+00 -0.00000000000E+00 -0.57949573589E+02  0.57949573589E+02  0.00000000000E+00 0.  1.
         25    1    1    2    0    0 -0.20953455026E+02 -0.21157888909E+03  0.42373533445E+03  0.49028696418E+03  0.12500000000E+03 0.  0.
          3    1    1    2  501    0  0.23299634045E+02  0.31016391967E+02  0.39916886396E+02  0.55661902023E+02  0.00000000000E+00 0. -1.
         -3    1    1    2    0  503 -0.23461790187E+01  0.18056249713E+03  0.46840547721E+03  0.50200797902E+03  0.00000000000E+00 0.  1.
<mgrwt>
<rscale>  4 0.22830679E+03</rscale>
<asrwt>0</asrwt>
<pdfrwt beam="1">  1       21 0.15230880E+00 0.22830679E+03</pdfrwt>
<pdfrwt beam="2">  1       21 0.89153198E-02 0.22830679E+03</pdfrwt>
<totfact> 0.27900665E+04</totfact>
</mgrwt>
</event>
<event>
 5    0  0.8533808E-002  0.2390695E+03  0.7546771E-02  0.1120414E+00
         21   -1    0    0  501  502  0.00000000000E+00  0.00000000000E+00  0.34022438548E+03  0.34022438548E+03  0.00000000000E+00 0.  1.
         21   -1    0    0  502  503 -0.00000000000E+00 -0.00000000000E+00 -0.27048708746E+03  0.27048708746E+03  0.00000000000E+00 0. -1.
         25    1    1    2    0    0  0.14597067295E+02 -0.21250321181E+03 -0.14720078981E+03  0.28751306392E+03  0.12500000000E+03 0.  0.
          2    1    1    2  501    0 -0.40132236857E+02  0.31541276200E+02  0.79731071924E+02  0.94670440844E+02  0.00000000000E+00 0.  1.
         -2    1    1    2    0  503  0.25535169562E+02  0.18096193561E+03  0.13720701591E+03  0.22852796818E+03  0.00000000000E+00 0. -1.
<mgrwt>
<rscale>  4 0.23906955E+03</rscale>
<asrwt>0</asrwt>
<pdfrwt beam="1">  1       21 0.52342213E-01 0.23906955E+03</pdfrwt>
<pdfrwt beam="2">  1       21 0.41613398E-01 0.23906955E+03</pdfrwt>
<totfact> 0.18750917E+04</totfact>
</mgrwt>
</event>
<event>
 5    0  0.8533808E-002  0.2755854E+03  0.7546771E-02  0.1098125E+00
         21   -1    0    0  501  502  0.00000000000E+00  0.00000000000E+00  0.32859455793E+03  0.32859455793E+03  0.00000000000E+00 0. -1.
         21   -1    0    0  502  503 -0.00000000000E+00 -0.00000000000E+00 -0.24562271715E+03  0.24562271715E+03  0.00000000000E+00 0. -1.
         25    1    1    2    0    0  0.21747002053E+03 -0.12036469683E+03  0.12825058478E+03  0.30635613682E+03  0.12500000000E+03 0.  0.
          3    1    1    2  501    0 -0.16326096410E+02 -0.13278519039E+02 -0.11601106182E+02  0.24030109373E+02  0.00000000000E+00 0.  1.
         -3    1    1    2    0  503 -0.20114392412E+03  0.13364321587E+03 -0.33677637814E+02  0.24383102888E+03  0.00000000000E+00 0. -1.
<mgrwt>
<rscale>  4 0.27558535E+03</rscale>
<asrwt>0</asrwt>
<pdfrwt beam="1">  1       21 0.50553009E-01 0.27558535E+03</pdfrwt>
<pdfrwt beam="2">  1       21 0.37788111E-01 0.27558535E+03</pdfrwt>
<totfact> 0.24134850E+04</totfact>
</mgrwt>
</event>
<event>
 5    0  0.8533808E-002  0.2243604E+03  0.7546771E-02  0.1130673E+00
         21   -1    0    0  501  502  0.00000000000E+00  0.00000000000E+00  0.13335388276E+03  0.13335388276E+03  0.00000000000E+00 0. -1.
         21   -1    0    0  502  503 -0.00000000000E+00 -0.00000000000E+00 -0.60573255485E+03  0.60573255485E+03  0.00000000000E+00 0. -1.
         25    1    1    2    0    0 -0.98471219994E+01 -0.21936924693E+03 -0.41908913141E+03  0.48936748194E+03  0.12500000000E+03 0.  0.
          3    1    1    2  501    0 -0.54899458569E+01  0.73660975757E+02  0.31654791153E+02  0.80362333577E+02  0.00000000000E+00 0. -1.
         -3    1    1    2    0  503  0.15337067856E+02  0.14570827117E+03 -0.84944331833E+02  0.16935662210E+03  0.00000000000E+00 0.  1.
<mgrwt>
<rscale>  4 0.22436037E+03</rscale>
<asrwt>0</asrwt>
<pdfrwt beam="1">  1       21 0.20515982E-01 0.22436037E+03</pdfrwt>
<pdfrwt beam="2">  1       21 0.93189625E-01 0.22436037E+03</pdfrwt>
<totfact> 0.20932244E+04</totfact>
</mgrwt>
</event>
<event>
 5    0  0.8533808E-002  0.2726058E+03  0.7546771E-02  0.1099797E+00
         21   -1    0    0  501  502  0.00000000000E+00  0.00000000000E+00  0.14373957157E+03  0.14373957157E+03  0.00000000000E+00 0. -1.
         21   -1    0    0  502  503 -0.00000000000E+00 -0.00000000000E+00 -0.69044526635E+03  0.69044526635E+03  0.00000000000E+00 0. -1.
         25    1    1    2    0    0 -0.32905075885E+02 -0.24001284007E+03 -0.58862868315E+02  0.27888840902E+03  0.12500000000E+03 0.  0.
          2    1    1    2  501    0 -0.22773650071E+02  0.15799531451E+03 -0.23870219131E+03  0.28715830944E+03  0.00000000000E+00 0. -1.
         -2    1    1    2    0  503  0.55678725955E+02  0.82017525557E+02 -0.24914063515E+03  0.26813811946E+03  0.00000000000E+00 0.  1.
<mgrwt>
<rscale>  4 0.27260577E+03</rscale>
<asrwt>0</asrwt>
<pdfrwt beam="1">  1       21 0.22113780E-01 0.27260577E+03</pdfrwt>
<pdfrwt beam="2">  1       21 0.10622235E+00 0.27260577E+03</pdfrwt>
<totfact> 0.12961524E+04</totfact>
</mgrwt>
</event>
<event>
 5    0  0.8533808E-002  0.3014649E+03  0.7546771E-02  0.1084511E+00
         21   -1    0    0  503  502  0.00000000000E+00  0.00000000000E+00  0.91136373728E+02  0.91136373728E+02  0.00000000000E+00 0. -1.
         21   -1    0    0  501  503 -0.00000000000E+00 -0.00000000000E+00 -0.11044175534E+04  0.11044175534E+04  0.00000000000E+00 0. -1.
         25    1    1    2    0    0 -0.74315942738E+02 -0.26407049274E+03 -0.74405373335E+03  0.80280573153E+03  0.12500000000E+03 0.  0.
          3    1    1    2  501    0  0.21510395404E+02  0.75348220306E+02 -0.13200728097E+03  0.15351212865E+03  0.00000000000E+00 0.  1.
         -3    1    1    2    0  502  0.52805547333E+02  0.18872227243E+03 -0.13722016533E+03  0.23923606692E+03  0.00000000000E+00 0. -1.
<mgrwt>
<rscale>  4 0.30146490E+03</rscale>
<asrwt>0</asrwt>
<pdfrwt beam="1">  1       21 0.14020981E-01 0.30146490E+03</pdfrwt>
<pdfrwt beam="2">  1       21 0.16991038E+00 0.30146490E+03</pdfrwt>
<totfact> 0.88282644E+03</totfact>
</mgrwt>
</event>
<event>
 5    0  0.8533808E-002  0.2848401E+03  0.7546771E-02  0.1093074E+00
         21   -1    0    0  503  502  0.00000000000E+00  0.00000000000E+00  0.22041192679E+03  0.22041192679E+03  0.00000000000E+00 0.  1.
         21   -1    0    0  501  503 -0.00000000000E+00 -0.00000000000E+00 -0.34826679617E+03  0.34826679617E+03  0.00000000000E+00 0.  1.
         25    1    1    2    0    0 -0.24735177143E+03 -0.65772162496E+02 -0.28244047641E+02  0.28623696899E+03  0.12500000000E+03 0.  0.
          3    1    1    2  501    0  0.21110815890E+03  0.30508917101E+02 -0.86726492360E+02  0.23025840539E+03  0.00000000000E+00 0.  1.
         -3    1    1    2    0  502  0.36243612538E+02  0.35263245395E+02 -0.12884329376E+02  0.52183348580E+02  0.00000000000E+00 0. -1.
<mgrwt>
<rscale>  4 0.28484009E+03</rscale>
<asrwt>0</asrwt>
<pdfrwt beam="1">  1       21 0.33909527E-01 0.28484009E+03</pdfrwt>
<pdfrwt beam="2">  1       21 0.53579507E-01 0.28484009E+03</pdfrwt>
<totfact> 0.26424276E+04</totfact>
</mgrwt>
</event>
<event>
 5    0  0.8533808E-002  0.2292477E+03  0.7546771E-02  0.1127170E+00
         21   -1    0    0  503  502  0.00000000000E+00  0.00000000000E+00  0.52762805517E+03  0.52762805517E+03  0.00000000000E+00 0. -1.
         21   -1    0    0  501  503 -0.00000000000E+00 -0.00000000000E+00 -0.14770150119E+03  0.14770150119E+03  0.00000000000E+00 0. -1.
         25    1    1    2    0    0  0.37440392562E+01  0.21555545425E+03  0.51659730413E+02  0.25450324052E+03  0.12500000000E+03 0.  0.
          3    1    1    2  501    0  0.17944730625E+02 -0.30034231358E+02 -0.82506906432E+01  0.35946380994E+02  0.00000000000E+00 0.  1.
         -3    1    1    2    0  502 -0.21688769881E+02 -0.18552122289E+03  0.33651751421E+03  0.38487993486E+03  0.00000000000E+00 0. -1.
<mgrwt>
<rscale>  4 0.22924766E+03</rscale>
<asrwt>0</asrwt>
<pdfrwt beam="1">  1       21 0.81173546E-01 0.22924766E+03</pdfrwt>
<pdfrwt beam="2">  1       21 0.22723308E-01 0.22924766E+03</pdfrwt>
<totfact> 0.23675327E+04</totfact>
</mgrwt>
</event>
<event>
 5    0  0.8533808E-002  0.2357314E+03  0.7546771E-02  0.1122670E+00
         21   -1    0    0  503  502  0.00000000000E+00  0.00000000000E+00  0.15286215875E+03  0.15286215875E+03  0.00000000000E+00 0. -1.
         21   -1    0    0  501  503 -0.00000000000E+00 -0.00000000000E+00 -0.11828324423E+04  0.11828324423E+04  0.00000000000E+00 0. -1.
         25    1    1    2    0    0 -0.17363806766E+03 -0.14704060623E+03 -0.96876403572E+03  0.10029455994E+04  0.12500000000E+03 0.  0.
          2    1    1    2  501    0  0.13283224890E+03  0.71552752148E+02 -0.14753789706E+03  0.21102519697E+03  0.00000000000E+00 0.  1.
         -2    1    1    2    0  502  0.40805818755E+02  0.75487854085E+02  0.86331649263E+02  0.12172380467E+03  0.00000000000E+00 0. -1.
<mgrwt>
<rscale>  4 0.23573143E+03</rscale>
<asrwt>0</asrwt>
<pdfrwt beam="1">  1       21 0.23517255E-01 0.23573143E+03</pdfrwt>
<pdfrwt beam="2">  1       21 0.18197422E+00 0.23573143E+03</pdfrwt>
<totfact> 0.28893832E+03</totfact>
</mgrwt>
</event>
<event>
 5    0  0.8533808E-002  0.2130014E+03  0.7546771E-02  0.1139211E+00
         21   -1    0    0  503  502  0.00000000000E+00  0.00000000000E+00  0.92369307016E+02  0.92369307016E+02  0.00000000000E+00 0.  1.
         21   -1    0    0  501  503 -0.00000000000E+00 -0.00000000000E+00 -0.65882083196E+03  0.65882083196E+03  0.00000000000E+00 0. -1.
         25    1    1    2    0    0 -0.19100839009E+03 -0.78222329568E+02 -0.26062091077E+03  0.35517769786E+03  0.12500000000E+03 0.  0.
          2    1    1    2  501    0  0.10712339111E+03  0.11537231887E+03 -0.16611161364E+03  0.22886515915E+03  0.00000000000E+00 0.  1.
         -2    1    1    2    0  502  0.83884998975E+02 -0.37149989307E+02 -0.13971900054E+03  0.16714728198E+03  0.00000000000E+00 0. -1.
<mgrwt>
<rscale>  4 0.21300141E+03</rscale>
<asrwt>0</asrwt>
<pdfrwt beam="1">  1       21 0.14210662E-01 0.21300141E+03</pdfrwt>
<pdfrwt beam="2">  1       21 0.10135705E+00 0.21300141E+03</pdfrwt>
<totfact> 0.34023424E+04</totfact>
</mgrwt>
</event>
<event>
 5    0  0.8533808E-002  0.2721606E+03  0.7546771E-02  0.1100049E+00
         21   -1    0    0  503  502  0.00000000000E+00  0.00000000000E+00  0.11654963324E+04  0.11654963324E+04  0.00000000000E+00 0.  1.
         21   -1    0    0  501  503 -0.00000000000E+00 -0.00000000000E+00 -0.60748159059E+02  0.60748159059E+02  0.00000000000E+00 0.  1.
         25    1    1    2    0    0  0.65234048720E+02  0.23278935689E+03  0.71398328977E+03  0.76409652784E+03  0.12500000000E+03 0.  0.
          3    1    1    2  501    0  0.33666884670E+01 -0.23162730642E+02  0.20244750789E+02  0.30946673756E+02  0.00000000000E+00 0. -1.
         -3    1    1    2    0  502 -0.68600737187E+02 -0.20962662625E+03  0.37052013276E+03  0.43120128984E+03  0.00000000000E+00 0.  1.
<mgrwt>
<rscale>  4 0.27216055E+03</rscale>
<asrwt>0</asrwt>
<pdfrwt beam="1">  1       21 0.17930711E+00 0.27216055E+03</pdfrwt>
<pdfrwt beam="2">  1       21 0.93458715E-02 0.27216055E+03</pdfrwt>
<totfact> 0.15976320E+04</totfact>
</mgrwt>
</event>
<event>
 5    0  0.8533808E-002  0.2938794E+03  0.7546771E-02  0.1088341E+00
         21   -1    0    0  501  502  0.00000000000E+00  0.00000000000E+00  0.12833873828E+03  0.12833873828E+03  0.00000000000E+00 0.  1.
         21   -1    0    0  502  503 -0.00000000000E+00 -0.00000000000E+00 -0.69781096043E+03  0.69781096043E+03  0.00000000000E+00 0.  1.
         25    1    1    2    0    0  0.15228044409E+03  0.21806138668E+03 -0.17318021153E+03  0.34111066779E+03  0.12500000000E+03 0.  0.
          3    1    1    2  501    0 -0.83718000353E+02 -0.14301765756E+03 -0.31079157200E+03  0.35221322403E+03  0.00000000000E+00 0.  1.
         -3    1    1    2    0  503 -0.68562443738E+02 -0.75043729126E+02 -0.85500438616E+02  0.13282580689E+03  0.00000000000E+00 0. -1.
<mgrwt>
<rscale>  4 0.29387940E+03</rscale>
<asrwt>0</asrwt>
<pdfrwt beam="1">  1       21 0.19744421E-01 0.29387940E+03</pdfrwt>
<pdfrwt beam="2">  1       21 0.10735553E+00 0.29387940E+03</pdfrwt>
<totfact> 0.15497299E+04</totfact>
</mgrwt>
</event>
<event>
 5    0  0.8533808E-002  0.2634794E+03  0.7546771E-02  0.1105071E+00
         21   -1    0    0  503  502  0.00000000000E+00  0.00000000000E+00  0.47681909081E+02  0.47681909081E+02  0.00000000000E+00 0.  1.
         21   -1    0    0  501  503 -0.00000000000E+00 -0.00000000000E+00 -0.16420041648E+04  0.16420041648E+04  0.00000000000E+00 0.  1.
         25    1    1    2    0    0 -0.13452220834E+02  0.23155009342E+03 -0.45572296068E+03  0.52640747041E+03  0.12500000000E+03 0.  0.
          2    1    1    2  501    0 -0.52885224609E+01 -0.87275787383E+02 -0.55345754855E+03  0.56032159478E+03  0.00000000000E+00 0. -1.
         -2    1    1    2    0  502  0.18740743295E+02 -0.14427430604E+03 -0.58514174648E+03  0.60295700868E+03  0.00000000000E+00 0.  1.
<mgrwt>
<rscale>  4 0.26347943E+03</rscale>
<asrwt>0</asrwt>
<pdfrwt beam="1">  1       21 0.73356770E-02 0.26347943E+03</pdfrwt>
<pdfrwt beam="2">  1       21 0.25261607E+00 0.26347943E+03</pdfrwt>
<totfact> 0.84309866E+03</totfact>
</mgrwt>
</event>
<event>
 5    0  0.8533808E-002  0.2729496E+03  0.7546771E-02  0.1099603E+00
         21   -1    0    0  501  502  0.00000000000E+00  0.00000000000E+00  0.11117267467E+04  0.11117267467E+04  0.00000000000E+00 0.  1.
         21   -1    0    0  502  503 -0.00000000000E+00 -0.00000000000E+00 -0.11289363036E+03  0.11289363036E+03  0.00000000000E+00 0.  1.
         25    1    1    2    0    0  0.10042175674E+03  0.22088897306E+03  0.96095663733E+02  0.28937146410E+03  0.12500000000E+03 0.  0.
          2    1    1    2  501    0 -0.93272823803E+01 -0.20088822366E+02  0.54682639292E+02  0.58997881493E+02  0.00000000000E+00 0. -1.
         -2    1    1    2    0  503 -0.91094474356E+02 -0.20080015069E+03  0.84805481333E+03  0.87625103149E+03  0.00000000000E+00 0.  1.
<mgrwt>
<rscale>  4 0.27294957E+03</rscale>
<asrwt>0</asrwt>
<pdfrwt beam="1">  1       21 0.17103488E+00 0.27294957E+03</pdfrwt>
<pdfrwt beam="2">  1       21 0.17368252E-01 0.27294957E+03</pdfrwt>
<totfact> 0.59348986E+03</totfact>
</mgrwt>
</event>
<event>
 5    0  0.8533808E-002  0.3300153E+03  0.7546771E-02  0.1071287E+00
         21   -1    0    0  503  502  0.00000000000E+00  0.00000000000E+00  0.38781044648E+03  0.38781044648E+03  0.00000000000E+00 0.  1.
         21   -1    0    0  501  503 -0.00000000000E+00 -0.00000000000E+00 -0.62282622118E+03  0.62282622118E+03  0.00000000000E+00 0. -1.
         25    1    1    2    0    0  0.28952762890E+03 -0.92354473577E+02 -0.49249745016E+03  0.59205940167E+03  0.12500000000E+03 0.  0.
          3    1    1    2  501    0 -0.21153872691E+03  0.33462312428E+02  0.10767591420E+03  0.23971329090E+03  0.00000000000E+00 0.  1.
         -3    1    1    2    0  502 -0.77988901995E+02  0.58892161150E+02  0.14980576126E+03  0.17886397509E+03  0.00000000000E+00 0. -1.
<mgrwt>
<rscale>  4 0.32966193E+03</rscale>
<asrwt>0</asrwt>
<pdfrwt beam="1">  1       21 0.59663146E-01 0.33001532E+03</pdfrwt>
<pdfrwt beam="2">  1       21 0.95819417E-01 0.33001532E+03</pdfrwt>
<totfact> 0.21671463E+03</totfact>
</mgrwt>
</event>
<event>
 5    0  0.8533808E-002  0.2233206E+03  0.7546771E-02  0.1131431E+00
         21   -1    0    0  501  502  0.00000000000E+00  0.00000000000E+00  0.25534665422E+04  0.25534665422E+04  0.00000000000E+00 0. -1.
         21   -1    0    0  502  503 -0.00000000000E+00 -0.00000000000E+00 -0.41971100095E+02  0.41971100095E+02  0.00000000000E+00 0. -1.
         25    1    1    2    0    0  0.25431842960E+03  0.57170219891E+02  0.93914567367E+03  0.98263212550E+03  0.12500000000E+03 0.  0.
          4    1    1    2  501    0 -0.16832000311E+03  0.19427289031E+02  0.13662152160E+04  0.13766819021E+04  0.00000000000E+00 0. -1.
         -4    1    1    2    0  503 -0.85998426493E+02 -0.76597508922E+02  0.20613455239E+03  0.23612361470E+03  0.00000000000E+00 0.  1.
<mgrwt>
<rscale>  4 0.22332062E+03</rscale>
<asrwt>0</asrwt>
<pdfrwt beam="1">  1       21 0.39284089E+00 0.22332062E+03</pdfrwt>
<pdfrwt beam="2">  1       21 0.64570943E-02 0.22332062E+03</pdfrwt>
<totfact> 0.16078300E+03</totfact>
</mgrwt>
</event>
<event>
 5    0  0.8533808E-002  0.2278579E+03  0.7546771E-02  0.1128157E+00
         21   -1    0    0  503  502  0.00000000000E+00  0.00000000000E+00  0.32007433513E+02  0.32007433513E+02  0.00000000000E+00 0. -1.
         21   -1    0    0  501  503 -0.00000000000E+00 -0.00000000000E+00 -0.21723029207E+04  0.21723029207E+04  0.00000000000E+00 0. -1.
         25    1    1    2    0    0 -0.21705385097E+03 -0.51241330495E+02 -0.11187951011E+04  0.11476347531E+04  0.12500000000E+03 0.  0.
          3    1    1    2  501    0  0.80927853602E+02 -0.54665775250E+02 -0.39083324987E+03  0.40285021246E+03  0.00000000000E+00 0.  1.
         -3    1    1    2    0  502  0.13612599737E+03  0.10590710574E+03 -0.63066713617E+03  0.65382538865E+03  0.00000000000E+00 0. -1.
<mgrwt>
<rscale>  4 0.22785790E+03</rscale>
<asrwt>0</asrwt>
<pdfrwt beam="1">  1       21 0.49242213E-02 0.22785790E+03</pdfrwt>
<pdfrwt beam="2">  1       21 0.33420040E+00 0.22785790E+03</pdfrwt>
<totfact> 0.57407542E+03</totfact>
</mgrwt>
</event>
<event>
 5    0  0.8533808E-002  0.3069305E+03  0.7546771E-02  0.1081827E+00
         21   -1    0    0  501  502  0.00000000000E+00  0.00000000000E+00  0.12120235462E+04  0.12120235462E+04  0.00000000000E+00 0.  1.
         21   -1    0    0  502  503 -0.00000000000E+00 -0.00000000000E+00 -0.13707045112E+03  0.13707045112E+03  0.00000000000E+00 0.  1.
         25    1    1    2    0    0 -0.15569140973E+03  0.28975602531E+03  0.83890543717E+03  0.90971737467E+03  0.12500000000E+03 0.  0.
          4    1    1    2  501    0  0.10474393746E+03 -0.74384233802E+02  0.19862459723E+02  0.12999547677E+03  0.00000000000E+00 0. -1.
         -4    1    1    2    0  503  0.50947472265E+02 -0.21537179151E+03  0.21618519818E+03  0.30938114587E+03  0.00000000000E+00 0.  1.
<mgrwt>
<rscale>  4 0.30693053E+03</rscale>
<asrwt>0</asrwt>
<pdfrwt beam="1">  1       21 0.18646515E+00 0.30693053E+03</pdfrwt>
<pdfrwt beam="2">  1       21 0.21087762E-01 0.30693053E+03</pdfrwt>
<totfact> 0.31544712E+03</totfact>
</mgrwt>
</event>
<event>
 5    0  0.8533808E-002  0.2625931E+03  0.7546771E-02  0.1105595E+00
         21   -1    0    0  501  502  0.00000000000E+00  0.00000000000E+00  0.53552896741E+03  0.53552896741E+03  0.00000000000E+00 0.  1.
         21   -1    0    0  502  503 -0.00000000000E+00 -0.00000000000E+00 -0.54880096387E+03  0.54880096387E+03  0.00000000000E+00 0.  1.
         25    1    1    2    0    0 -0.22406583313E+03 -0.58246600938E+02 -0.45520443247E+03  0.52577013936E+03  0.12500000000E+03 0.  0.
          1    1    1    2  501    0  0.10462892446E+02 -0.22513797558E+02  0.27394309208E+03  0.27506573923E+03  0.00000000000E+00 0. -1.
         -1    1    1    2    0  503  0.21360294069E+03  0.80760398497E+02  0.16798934393E+03  0.28349405269E+03  0.00000000000E+00 0.  1.
<mgrwt>
<rscale>  4 0.26259314E+03</rscale>
<asrwt>0</asrwt>
<pdfrwt beam="1">  1       21 0.82389072E-01 0.26259314E+03</pdfrwt>
<pdfrwt beam="2">  1       21 0.84430918E-01 0.26259314E+03</pdfrwt>
<totfact> 0.14778506E+03</totfact>
</mgrwt>
</event>
<event>
 5    0  0.8533808E-002  0.2570360E+03  0.7546771E-02  0.1108937E+00
         21   -1    0    0  503  502  0.00000000000E+00  0.00000000000E+00  0.57559971196E+02  0.57559971196E+02  0.00000000000E+00 0.  1.
         21   -1    0    0  501  503 -0.00000000000E+00 -0.00000000000E+00 -0.13818241819E+04  0.13818241819E+04  0.00000000000E+00 0.  1.
         25    1    1    2    0    0  0.43457561417E+01  0.23049060680E+03 -0.98836997429E+03  0.10225678518E+04  0.12500000000E+03 0.  0.
          2    1    1    2  501    0 -0.23911534393E+02 -0.17366837789E+02 -0.21738776826E+02  0.36687095139E+02  0.00000000000E+00 0.  1.
         -2    1    1    2    0  502  0.19565778252E+02 -0.21312376901E+03 -0.31415545955E+03  0.38012920614E+03  0.00000000000E+00 0. -1.
<mgrwt>
<rscale>  4 0.25703604E+03</rscale>
<asrwt>0</asrwt>
<pdfrwt beam="1">  1       21 0.88553812E-02 0.25703604E+03</pdfrwt>
<pdfrwt beam="2">  1       21 0.21258831E+00 0.25703604E+03</pdfrwt>
<totfact> 0.10698841E+04</totfact>
</mgrwt>
</event>
<event>
 5    0  0.8533808E-002  0.2609626E+03  0.7546771E-02  0.1106566E+00
         21   -1    0    0  501  502  0.00000000000E+00  0.00000000000E+00  0.53878475710E+03  0.53878475710E+03  0.00000000000E+00 0.  1.
         21   -1    0    0  502  503 -0.00000000000E+00 -0.00000000000E+00 -0.19285598502E+03  0.19285598502E+03  0.00000000000E+00 0.  1.
         25    1    1    2    0    0 -0.22816720469E+03 -0.20401335969E+02  0.39827679838E+03  0.47615742768E+03  0.12500000000E+03 0.  0.
          3    1    1    2  501    0  0.15854802718E+03  0.37979532547E+02 -0.76008970855E+02  0.17988130939E+03  0.00000000000E+00 0.  1.
         -3    1    1    2    0  503  0.69619177504E+02 -0.17578196578E+02  0.23660944550E+02  0.75602005054E+02  0.00000000000E+00 0. -1.
<mgrwt>
<rscale>  4 0.26096262E+03</rscale>
<asrwt>0</asrwt>
<pdfrwt beam="1">  1       21 0.82889962E-01 0.26096262E+03</pdfrwt>
<pdfrwt beam="2">  1       21 0.29670152E-01 0.26096262E+03</pdfrwt>
<totfact> 0.13276633E+04</totfact>
</mgrwt>
</event>
<event>
 5    0  0.8533808E-002  0.2624064E+03  0.7546771E-02  0.1105706E+00
         21   -1    0    0  503  502  0.00000000000E+00  0.00000000000E+00  0.10075672548E+03  0.10075672548E+03  0.00000000000E+00 0.  1.
         21   -1    0    0  501  503 -0.00000000000E+00 -0.00000000000E+00 -0.95934724558E+03  0.95934724558E+03  0.00000000000E+00 0.  1.
         25    1    1    2    0    0 -0.23480237724E+03  0.85593873250E+02 -0.22178448913E+03  0.35675177240E+03  0.12500000000E+03 0.  0.
          4    1    1    2  501    0  0.15760306758E+03 -0.13017626183E+03 -0.49875842031E+03  0.53902184361E+03  0.00000000000E+00 0.  1.
         -4    1    1    2    0  502  0.77199309658E+02  0.44582388578E+02 -0.13804761065E+03  0.16433035505E+03  0.00000000000E+00 0. -1.
<mgrwt>
<rscale>  4 0.26240642E+03</rscale>
<asrwt>0</asrwt>
<pdfrwt beam="1">  1       21 0.15501034E-01 0.26240642E+03</pdfrwt>
<pdfrwt beam="2">  1       21 0.14759189E+00 0.26240642E+03</pdfrwt>
<totfact> 0.11010120E+04</totfact>
</mgrwt>
</event>
<event>
 5    0  0.8533808E-002  0.2376246E+03  0.7546771E-02  0.1121385E+00
         21   -1    0    0  503  502  0.00000000000E+00  0.00000000000E+00  0.83598711449E+02  0.83598711449E+02  0.00000000000E+00 0. -1.
         21   -1    0    0  501  503 -0.00000000000E+00 -0.00000000000E+00 -0.59878920007E+03  0.59878920007E+03  0.00000000000E+00 0. -1.
         25    1    1    2    0    0 -0.14849639783E+03 -0.13707401053E+03 -0.28021423760E+03  0.36740370641E+03  0.12500000000E+03 0.  0.
          2    1    1    2  501    0  0.12647154698E+03  0.85092003909E+02 -0.15823088084E+03  0.21971052086E+03  0.00000000000E+00 0. -1.
         -2    1    1    2    0  502  0.22024850854E+02  0.51982006616E+02 -0.76745370179E+02  0.95273684252E+02  0.00000000000E+00 0.  1.
<mgrwt>
<rscale>  4 0.23762463E+03</rscale>
<asrwt>0</asrwt>
<pdfrwt beam="1">  1       21 0.12861340E-01 0.23762463E+03</pdfrwt>
<pdfrwt beam="2">  1       21 0.92121416E-01 0.23762463E+03</pdfrwt>
<totfact> 0.50490405E+04</totfact>
</mgrwt>
</event>
<event>
 5    0  0.8533808E-002  0.2654826E+03  0.7546771E-02  0.1103893E+00
         21   -1    0    0  503  502  0.00000000000E+00  0.00000000000E+00  0.43116234187E+02  0.43116234187E+02  0.00000000000E+00 0. -1.
         21   -1    0    0  501  503 -0.00000000000E+00 -0.00000000000E+00 -0.22096598392E+04  0.22096598392E+04  0.00000000000E+00 0.  1.
         25    1    1    2    0    0 -0.23186755924E+03  0.33067604608E+02 -0.17535878481E+04  0.17735702333E+04  0.12500000000E+03 0.  0.
          1    1    1    2  501    0  0.17794130448E+03  0.14924584337E+01 -0.32305110167E+03  0.36881885739E+03  0.00000000000E+00 0. -1.
         -1    1    1    2    0  502  0.53926254763E+02 -0.34560063041E+02 -0.89904655195E+02  0.11038698264E+03  0.00000000000E+00 0.  1.
<mgrwt>
<rscale>  4 0.26548264E+03</rscale>
<asrwt>0</asrwt>
<pdfrwt beam="1">  1       21 0.66332682E-02 0.26548264E+03</pdfrwt>
<pdfrwt beam="2">  1       21 0.33994760E+00 0.26548264E+03</pdfrwt>
<totfact> 0.30674368E+03</totfact>
</mgrwt>
</event>
<event>
 5    0  0.8533808E-002  0.3359708E+03  0.7546771E-02  0.1068525E+00
         21   -1    0    0  501  502  0.00000000000E+00  0.00000000000E+00  0.66702008982E+03  0.66702008982E+03  0.00000000000E+00 0.  1.
         21   -1    0    0  502  503 -0.00000000000E+00 -0.00000000000E+00 -0.22405618469E+03  0.22405618469E+03  0.00000000000E+00 0.  1.
         25    1    1    2    0    0 -0.16850858616E+03 -0.25752492746E+03  0.18143817078E+02  0.33266864891E+03  0.12500000000E+03 0.  0.
          3    1    1    2  501    0 -0.35631357280E+02  0.19083251712E+02  0.17179732046E+02  0.43919327302E+02  0.00000000000E+00 0. -1.
         -3    1    1    2    0  503  0.20413994343E+03  0.23844167574E+03  0.40764035601E+03  0.51448829830E+03  0.00000000000E+00 0.  1.
<mgrwt>
<rscale>  4 0.33597080E+03</rscale>
<asrwt>0</asrwt>
<pdfrwt beam="1">  1       21 0.10261847E+00 0.33597080E+03</pdfrwt>
<pdfrwt beam="2">  1       21 0.34470183E-01 0.33597080E+03</pdfrwt>
<totfact> 0.57523048E+03</totfact>
</mgrwt>
</event>
<event>
 5    0  0.8533808E-002  0.3099114E+03  0.7546771E-02  0.1080388E+00
         21   -1    0    0  501  502  0.00000000000E+00  0.00000000000E+00  0.38262061011E+03  0.38262061011E+03  0.00000000000E+00 0. -1.
         21   -1    0    0  502  503 -0.00000000000E+00 -0.00000000000E+00 -0.57269811331E+03  0.57269811331E+03  0.00000000000E+00 0.  1.
         25    1    1    2    0    0  0.28158914237E+03  0.33579978170E+02 -0.46024774313E+03  0.55486308680E+03  0.12500000000E+03 0.  0.
          2    1    1    2  501    0 -0.12864703273E+03 -0.54639816308E+02  0.10876412247E+03  0.17710223853E+03  0.00000000000E+00 0.  1.
         -2    1    1    2    0  503 -0.15294210965E+03  0.21059838138E+02  0.16140611746E+03  0.22335339809E+03  0.00000000000E+00 0. -1.
<mgrwt>
<rscale>  4 0.30991137E+03</rscale>
<asrwt>0</asrwt>
<pdfrwt beam="1">  1       21 0.58864709E-01 0.30991137E+03</pdfrwt>
<pdfrwt beam="2">  1       21 0.88107402E-01 0.30991137E+03</pdfrwt>
<totfact> 0.27489711E+03</totfact>
</mgrwt>
</event>
<event>
 5    0  0.8533808E-002  0.2301675E+03  0.7546771E-02  0.1126522E+00
         21   -1    0    0  501  502  0.00000000000E+00  0.00000000000E+00  0.34881157963E+03  0.34881157963E+03  0.00000000000E+00 0.  1.
         21   -1    0    0  502  503 -0.00000000000E+00 -0.00000000000E+00 -0.48156399063E+03  0.48156399063E+03  0.00000000000E+00 0.  1.
         25    1    1    2    0    0 -0.21288760580E+03  0.15211482757E+02 -0.40019309654E+03  0.47045938871E+03  0.12500000000E+03 0.  0.
          4    1    1    2  501    0  0.12907528652E+03 -0.73511017000E+01  0.74028449497E+02  0.14897878917E+03  0.00000000000E+00 0. -1.
         -4    1    1    2    0  503  0.83812319284E+02 -0.78603810574E+01  0.19341223604E+03  0.21093739238E+03  0.00000000000E+00 0.  1.
<mgrwt>
<rscale>  4 0.23016752E+03</rscale>
<asrwt>0</asrwt>
<pdfrwt beam="1">  1       21 0.53663320E-01 0.23016752E+03</pdfrwt>
<pdfrwt beam="2">  1       21 0.74086767E-01 0.23016752E+03</pdfrwt>
<totfact> 0.52230477E+03</totfact>
</mgrwt>
</event>
<event>
 5    0  0.8533808E-002  0.3546857E+03  0.7546771E-02  0.1060708E+00
         21   -1    0    0  503  502  0.00000000000E+00  0.00000000000E+00  0.15335344852E+04  0.15335344852E+04  0.00000000000E+00 0. -1.
         21   -1    0    0  501  503 -0.00000000000E+00 -0.00000000000E+00 -0.12543466655E+03  0.12543466655E+03  0.00000000000E+00 0. -1.
         25    1    1    2    0    0  0.11856136704E+02 -0.36474965902E+03  0.36287468975E+03  0.52960921649E+03  0.12500000000E+03 0.  0.
          1    1    1    2  501    0  0.91912007600E+02  0.10174977931E+03  0.24647563578E+03  0.28204799904E+03  0.00000000000E+00 0.  1.
         -1    1    1    2    0  502 -0.10376814430E+03  0.26299987971E+03  0.79874949311E+03  0.84731193621E+03  0.00000000000E+00 0. -1.
<mgrwt>
<rscale>  4 0.35468574E+03</rscale>
<asrwt>0</asrwt>
<pdfrwt beam="1">  1       21 0.23592837E+00 0.35468574E+03</pdfrwt>
<pdfrwt beam="2">  1       21 0.19297642E-01 0.35468574E+03</pdfrwt>
<totfact> 0.17412321E+03</totfact>
</mgrwt>
</event>
<event>
 5    0  0.8533808E-002  0.4014502E+03  0.7546771E-02  0.1043279E+00
         21   -1    0    0  503  502  0.00000000000E+00  0.00000000000E+00  0.24465580553E+03  0.24465580553E+03  0.00000000000E+00 0.  1.
         21   -1    0    0  501  503 -0.00000000000E+00 -0.00000000000E+00 -0.12260733191E+04  0.12260733191E+04  0.00000000000E+00 0. -1.
         25    1    1    2    0    0  0.97888895801E+02  0.40256137801E+03 -0.83502511803E+03  0.94049446927E+03  0.12500000000E+03 0.  0.
          2    1    1    2  501    0  0.10527363599E+03 -0.15047608704E+03 -0.76913987338E+02  0.19910136276E+03  0.00000000000E+00 0. -1.
         -2    1    1    2    0  502 -0.20316253179E+03 -0.25208529097E+03 -0.69478408176E+02  0.33113329257E+03  0.00000000000E+00 0.  1.
<mgrwt>
<rscale>  4 0.40145023E+03</rscale>
<asrwt>0</asrwt>
<pdfrwt beam="1">  1       21 0.37639355E-01 0.40145023E+03</pdfrwt>
<pdfrwt beam="2">  1       21 0.18862666E+00 0.40145023E+03</pdfrwt>
<totfact> 0.92733211E+02</totfact>
</mgrwt>
</event>
<event>
 5    0  0.8533808E-002  0.2232918E+03  0.7546771E-02  0.1131452E+00
         21   -1    0    0  501  502  0.00000000000E+00  0.00000000000E+00  0.11717219337E+04  0.11717219337E+04  0.00000000000E+00 0. -1.
         21   -1    0    0  502  503 -0.00000000000E+00 -0.00000000000E+00 -0.62807837421E+02  0.62807837421E+02  0.00000000000E+00 0. -1.
         25    1    1    2    0    0  0.21144725600E+03  0.42732707475E+02  0.72713681384E+03  0.76869302872E+03  0.12500000000E+03 0.  0.
          4    1    1    2  501    0 -0.15797358872E+03  0.38110922958E+02  0.28958854006E+03  0.33206869728E+03  0.00000000000E+00 0. -1.
         -4    1    1    2    0  503 -0.53473667281E+02 -0.80843630433E+02  0.92188742393E+02  0.13376804513E+03  0.00000000000E+00 0.  1.
<mgrwt>
<rscale>  4 0.22329177E+03</rscale>
<asrwt>0</asrwt>
<pdfrwt beam="1">  1       21 0.18026490E+00 0.22329177E+03</pdfrwt>
<pdfrwt beam="2">  1       21 0.96627451E-02 0.22329177E+03</pdfrwt>
<totfact> 0.15279182E+04</totfact>
</mgrwt>
</event>
<event>
 5    0  0.8533808E-002  0.2359410E+03  0.7546771E-02  0.1122527E+00
         21   -1    0    0  503  502  0.00000000000E+00  0.00000000000E+00  0.23045420050E+03  0.23045420050E+03  0.00000000000E+00 0.  1.
         21   -1    0    0  501  503 -0.00000000000E+00 -0.00000000000E+00 -0.34553830123E+03  0.34553830123E+03  0.00000000000E+00 0.  1.
         25    1    1    2    0    0  0.16699381545E+03 -0.18064320199E+03 -0.53633931073E+02  0.28110585086E+03  0.12500000000E+03 0.  0.
          4    1    1    2  501    0 -0.32058173328E+02  0.62435167239E+02 -0.89052757997E+02  0.11338549419E+03  0.00000000000E+00 0. -1.
         -4    1    1    2    0  502 -0.13493564212E+03  0.11820803475E+03  0.27602588339E+02  0.18150115669E+03  0.00000000000E+00 0.  1.
<mgrwt>
<rscale>  4 0.23594104E+03</rscale>
<asrwt>0</asrwt>
<pdfrwt beam="1">  1       21 0.35454492E-01 0.23594104E+03</pdfrwt>
<pdfrwt beam="2">  1       21 0.53159739E-01 0.23594104E+03</pdfrwt>
<totfact> 0.25115587E+04</totfact>
</mgrwt>
</event>
<event>
 5    0  0.8533808E-002  0.2381230E+03  0.7546771E-02  0.1121050E+00
         21   -1    0    0  503  502  0.00000000000E+00  0.00000000000E+00  0.96024887626E+03  0.96024887626E+03  0.00000000000E+00 0.  1.
         21   -1    0    0  501  503 -0.00000000000E+00 -0.00000000000E+00 -0.27283861488E+03  0.27283861488E+03  0.00000000000E+00 0. -1.
         25    1    1    2    0    0 -0.43967919502E+02  0.19784936603E+03 -0.20682163961E+03  0.31540091977E+03  0.12500000000E+03 0.  0.
          1    1    1    2  501    0  0.23079950054E+02 -0.43340293891E+02  0.17563545297E+03  0.18237016617E+03  0.00000000000E+00 0. -1.
         -1    1    1    2    0  502  0.20887969448E+02 -0.15450907213E+03  0.71859644802E+03  0.73531640519E+03  0.00000000000E+00 0.  1.
<mgrwt>
<rscale>  4 0.23812297E+03</rscale>
<asrwt>0</asrwt>
<pdfrwt beam="1">  1       21 0.14773059E+00 0.23812297E+03</pdfrwt>
<pdfrwt beam="2">  1       21 0.41975172E-01 0.23812297E+03</pdfrwt>
<totfact> 0.16312714E+03</totfact>
</mgrwt>
</event>
<event>
 5    0  0.8533808E-002  0.2835831E+03  0.7546771E-02  0.1093748E+00
         21   -1    0    0  501  502  0.00000000000E+00  0.00000000000E+00  0.48832393027E+03  0.48832393027E+03  0.00000000000E+00 0.  1.
         21   -1    0    0  502  503 -0.00000000000E+00 -0.00000000000E+00 -0.48160826229E+03  0.48160826229E+03  0.00000000000E+00 0.  1.
         25    1    1    2    0    0 -0.96052064752E+02  0.23572941271E+03 -0.39789247043E+03  0.48860799542E+03  0.12500000000E+03 0.  0.
          4    1    1    2  501    0  0.88908226782E+02 -0.16871657029E+03  0.26717312912E+03  0.32825513676E+03  0.00000000000E+00 0.  1.
         -4    1    1    2    0  503  0.71438379701E+01 -0.67012842418E+02  0.13743500929E+03  0.15306906039E+03  0.00000000000E+00 0. -1.
<mgrwt>
<rscale>  4 0.28358307E+03</rscale>
<asrwt>0</asrwt>
<pdfrwt beam="1">  1       21 0.75126759E-01 0.28358307E+03</pdfrwt>
<pdfrwt beam="2">  1       21 0.74093578E-01 0.28358307E+03</pdfrwt>
<totfact> 0.24205965E+03</totfact>
</mgrwt>
</event>
<event>
 5    0  0.8533808E-002  0.2405051E+03  0.7546771E-02  0.1119457E+00
         21   -1    0    0  501  502  0.00000000000E+00  0.00000000000E+00  0.11799974695E+03  0.11799974695E+03  0.00000000000E+00 0.  1.
         21   -1    0    0  502  503 -0.00000000000E+00 -0.00000000000E+00 -0.67828799068E+03  0.67828799068E+03  0.00000000000E+00 0. -1.
         25    1    1    2    0    0 -0.15073197451E+02 -0.20491581716E+03 -0.50433979279E+03  0.55874978299E+03  0.12500000000E+03 0.  0.
          2    1    1    2  501    0 -0.33395116155E+02  0.14265857747E+03 -0.11466504252E+02  0.14696320705E+03  0.00000000000E+00 0. -1.
         -2    1    1    2    0  503  0.48468313607E+02  0.62257239695E+02 -0.44481946688E+02  0.90574747582E+02  0.00000000000E+00 0.  1.
<mgrwt>
<rscale>  4 0.24050508E+03</rscale>
<asrwt>0</asrwt>
<pdfrwt beam="1">  1       21 0.18153807E-01 0.24050508E+03</pdfrwt>
<pdfrwt beam="2">  1       21 0.10435200E+00 0.24050508E+03</pdfrwt>
<totfact> 0.19933860E+04</totfact>
</mgrwt>
</event>
<event>
 5    0  0.8533808E-002  0.2573511E+03  0.7546771E-02  0.1108745E+00
         21   -1    0    0  501  502  0.00000000000E+00  0.00000000000E+00  0.21297445628E+03  0.21297445628E+03  0.00000000000E+00 0.  1.
         21   -1    0    0  502  503 -0.00000000000E+00 -0.00000000000E+00 -0.63292490199E+03  0.63292490199E+03  0.00000000000E+00 0.  1.
         25    1    1    2    0    0  0.29003516772E+01  0.22727050859E+03 -0.46764743769E+03  0.53477043868E+03  0.12500000000E+03 0.  0.
          3    1    1    2  501    0  0.70132474657E+02 -0.21323650403E+03  0.67067764442E+02  0.23427858562E+03  0.00000000000E+00 0.  1.
         -3    1    1    2    0  503 -0.73032826334E+02 -0.14034004564E+02 -0.19370772464E+02  0.76850333977E+02  0.00000000000E+00 0. -1.
<mgrwt>
<rscale>  4 0.25735114E+03</rscale>
<asrwt>0</asrwt>
<pdfrwt beam="1">  1       21 0.32765302E-01 0.25735114E+03</pdfrwt>
<pdfrwt beam="2">  1       21 0.97373060E-01 0.25735114E+03</pdfrwt>
<totfact> 0.75120344E+03</totfact>
</mgrwt>
</event>
<event>
 5    0  0.8533808E-002  0.3083359E+03  0.7546771E-02  0.1081146E+00
         21   -1    0    0  503  502  0.00000000000E+00  0.00000000000E+00  0.28927268339E+03  0.28927268339E+03  0.00000000000E+00 0. -1.
         21   -1    0    0  501  503 -0.00000000000E+00 -0.00000000000E+00 -0.38599144841E+03  0.38599144841E+03  0.00000000000E+00 0.  1.
         25    1    1    2    0    0  0.12802952282E+03  0.25110653885E+03 -0.19816845016E+03  0.36652665279E+03  0.12500000000E+03 0.  0.
          2    1    1    2  501    0 -0.29890440032E+02 -0.88720629722E+02  0.84716389086E-01  0.93620487718E+02  0.00000000000E+00 0.  1.
         -2    1    1    2    0  502 -0.98139082787E+02 -0.16238590913E+03  0.10136496876E+03  0.21511699130E+03  0.00000000000E+00 0. -1.
<mgrwt>
<rscale>  4 0.30833594E+03</rscale>
<asrwt>0</asrwt>
<pdfrwt beam="1">  1       21 0.44503490E-01 0.30833594E+03</pdfrwt>
<pdfrwt beam="2">  1       21 0.59383300E-01 0.30833594E+03</pdfrwt>
<totfact> 0.12072577E+04</totfact>
</mgrwt>
</event>
<event>
 5    0  0.8533808E-002  0.2862140E+03  0.7546771E-02  0.1092343E+00
         21   -1    0    0  503  502  0.00000000000E+00  0.00000000000E+00  0.11843008845E+04  0.11843008845E+04  0.00000000000E+00 0. -1.
         21   -1    0    0  501  503 -0.00000000000E+00 -0.00000000000E+00 -0.69754059115E+02  0.69754059115E+02  0.00000000000E+00 0. -1.
         25    1    1    2    0    0 -0.18103342504E+03 -0.18308563869E+03  0.41730302508E+03  0.50602397850E+03  0.12500000000E+03 0.  0.
          2    1    1    2  501    0  0.15247881694E+03  0.16081120661E+03  0.49184679294E+03  0.53946575564E+03  0.00000000000E+00 0. -1.
         -2    1    1    2    0  502  0.28554608094E+02  0.22274432072E+02  0.20539700733E+03  0.20856520943E+03  0.00000000000E+00 0.  1.
<mgrwt>
<rscale>  4 0.28621400E+03</rscale>
<asrwt>0</asrwt>
<pdfrwt beam="1">  1       21 0.18220012E+00 0.28621400E+03</pdfrwt>
<pdfrwt beam="2">  1       21 0.10731395E-01 0.28621400E+03</pdfrwt>
<totfact> 0.11836603E+04</totfact>
</mgrwt>
</event>
<event>
 5    0  0.8533808E-002  0.3443519E+03  0.7546771E-02  0.1064957E+00
         21   -1    0    0  501  502  0.00000000000E+00  0.00000000000E+00  0.71654139214E+02  0.71654139214E+02  0.00000000000E+00 0.  1.
         21   -1    0    0  502  503 -0.00000000000E+00 -0.00000000000E+00 -0.16506396590E+04  0.16506396590E+04  0.00000000000E+00 0.  1.
         25    1    1    2    0    0  0.16887447397E+03 -0.27282716209E+03 -0.95409756676E+03  0.10143374267E+04  0.12500000000E+03 0.  0.
          4    1    1    2  501    0 -0.10826154818E+02  0.60987688557E+02 -0.18140677951E+03  0.19169017564E+03  0.00000000000E+00 0. -1.
         -4    1    1    2    0  503 -0.15804831915E+03  0.21183947353E+03 -0.44348117355E+03  0.51626619590E+03  0.00000000000E+00 0.  1.
<mgrwt>
<rscale>  4 0.34435193E+03</rscale>
<asrwt>0</asrwt>
<pdfrwt beam="1">  1       21 0.11023713E-01 0.34435193E+03</pdfrwt>
<pdfrwt beam="2">  1       21 0.25394458E+00 0.34435193E+03</pdfrwt>
<totfact> 0.38148950E+03</totfact>
</mgrwt>
</event>
<event>
 5    0  0.8533808E-002  0.2728285E+03  0.7546771E-02  0.1099672E+00
         21   -1    0    0  503  502  0.00000000000E+00  0.00000000000E+00  0.80417982199E+03  0.80417982199E+03  0.00000000000E+00 0. -1.
         21   -1    0    0  501  503 -0.00000000000E+00 -0.00000000000E+00 -0.11209105893E+03  0.11209105893E+03  0.00000000000E+00 0. -1.
         25    1    1    2    0    0 -0.88067922390E+02  0.22595226330E+03  0.13134478933E+03  0.30279834532E+03  0.12500000000E+03 0.  0.
          3    1    1    2  501    0 -0.28492013921E+01 -0.37527318701E+02  0.60618887774E+02  0.71351714432E+02  0.00000000000E+00 0.  1.
         -3    1    1    2    0  502  0.90917123783E+02 -0.18842494460E+03  0.50012508595E+03  0.54212082117E+03  0.00000000000E+00 0. -1.
<mgrwt>
<rscale>  4 0.27282849E+03</rscale>
<asrwt>0</asrwt>
<pdfrwt beam="1">  1       21 0.12371997E+00 0.27282849E+03</pdfrwt>
<pdfrwt beam="2">  1       21 0.17244779E-01 0.27282849E+03</pdfrwt>
<totfact> 0.14185763E+04</totfact>
</mgrwt>
</event>
<event>
 5    0  0.8533808E-002  0.2394537E+03  0.7546771E-02  0.1120157E+00
         21   -1    0    0  503  502  0.00000000000E+00  0.00000000000E+00  0.14879849464E+03  0.14879849464E+03  0.00000000000E+00 0.  1.
         21   -1    0    0  501  503 -0.00000000000E+00 -0.00000000000E+00 -0.52760123838E+03  0.52760123838E+03  0.00000000000E+00 0.  1.
         25    1    1    2    0    0  0.20010935518E+03  0.40857495371E+02 -0.40070345210E+03  0.46679904186E+03  0.12500000000E+03 0.  0.
          2    1    1    2  501    0 -0.50069612718E+02 -0.13875411521E+02 -0.12237797151E+02  0.53378430491E+02  0.00000000000E+00 0. -1.
         -2    1    1    2    0  502 -0.15003974246E+03 -0.26982083850E+02  0.34138505506E+02  0.15622226066E+03  0.00000000000E+00 0.  1.
<mgrwt>
<rscale>  4 0.23945373E+03</rscale>
<asrwt>0</asrwt>
<pdfrwt beam="1">  1       21 0.22892076E-01 0.23945373E+03</pdfrwt>
<pdfrwt beam="2">  1       21 0.81169423E-01 0.23945373E+03</pdfrwt>
<totfact> 0.23227359E+04</totfact>
</mgrwt>
</event>
<event>
 5    0  0.8533808E-002  0.3039717E+03  0.7546771E-02  0.1083272E+00
         21   -1    0    0  501  502  0.00000000000E+00  0.00000000000E+00  0.92983663791E+03  0.92983663791E+03  0.00000000000E+00 0.  1.
         21   -1    0    0  502  503 -0.00000000000E+00 -0.00000000000E+00 -0.22703174137E+03  0.22703174137E+03  0.00000000000E+00 0. -1.
         25    1    1    2    0    0  0.31430883277E+03  0.13485231382E+02  0.16909203178E+02  0.33894367522E+03  0.12500000000E+03 0.  0.
          4    1    1    2  501    0 -0.13586081157E+03  0.14895286318E+03  0.35711790845E+03  0.41009549633E+03  0.00000000000E+00 0. -1.
         -4    1    1    2    0  503 -0.17844802120E+03 -0.16243809456E+03  0.32877778491E+03  0.40782920774E+03  0.00000000000E+00 0.  1.
<mgrwt>
<rscale>  4 0.30397171E+03</rscale>
<asrwt>0</asrwt>
<pdfrwt beam="1">  1       21 0.14305179E+00 0.30397171E+03</pdfrwt>
<pdfrwt beam="2">  1       21 0.34927961E-01 0.30397171E+03</pdfrwt>
<totfact> 0.24628309E+03</totfact>
</mgrwt>
</event>
