<event>
 5    0  0.1911311E+001  0.4876351E+03  0.7546771E-02  0.1017058E+00
         21   -1    0    0  502  501  0.00000000000E+00  0.00000000000E+00  0.15463712701E+04  0.15463712701E+04  0.00000000000E+00 0. -1.
         21   -1    0    0  504  502 -0.00000000000E+00 -0.00000000000E+00 -0.16404323467E+03  0.16404323467E+03  0.00000000000E+00 0. -1.
         25    1    1    2    0    0  0.17985236487E+03  0.43873448381E+03  0.67694835154E+03  0.83589406690E+03  0.12500000000E+03 0.  0.
         21    1    1    2  503  501 -0.21814955532E+03 -0.41597033811E+03  0.66656369246E+03  0.81543099449E+03  0.00000000000E+00 0. -1.
         21    1    1    2  504  503  0.38297190449E+02 -0.22764145707E+02  0.38815991420E+02  0.59089443355E+02  0.00000000000E+00 0. -1.
<mgrwt>
<rscale>  4 0.48763512E+03</rscale>
<asrwt>0</asrwt>
<pdfrwt beam="1">  1       21 0.23790326E+00 0.48763512E+03</pdfrwt>
<pdfrwt beam="2">  1       21 0.25237422E-01 0.48763512E+03</pdfrwt>
<totfact> 0.94423579E+02</totfact>
</mgrwt>
</event>
<event>
 5    0  0.1911311E+001  0.2330087E+03  0.7546771E-02  0.1124540E+00
         21   -1    0    0  504  501  0.00000000000E+00  0.00000000000E+00  0.34199457191E+03  0.34199457191E+03  0.00000000000E+00 0.  1.
         21   -1    0    0  503  502 -0.00000000000E+00 -0.00000000000E+00 -0.76838147983E+03  0.76838147983E+03  0.00000000000E+00 0. -1.
         25    1    1    2    0    0  0.16787378948E+03 -0.12705262851E+03  0.27464744003E+03  0.36794047877E+03  0.12500000000E+03 0.  0.
         21    1    1    2  503  501 -0.14778814366E+03  0.12885680819E+03 -0.69385830191E+03  0.72103034302E+03  0.00000000000E+00 0. -1.
         21    1    1    2  504  502 -0.20085645817E+02 -0.18041796782E+01 -0.71760460422E+01  0.21405229945E+02  0.00000000000E+00 0.  1.
<mgrwt>
<rscale>  4 0.23300874E+03</rscale>
<asrwt>0</asrwt>
<pdfrwt beam="1">  1       21 0.52614549E-01 0.23300874E+03</pdfrwt>
<pdfrwt beam="2">  1       21 0.11821254E+00 0.23300874E+03</pdfrwt>
<totfact> 0.18120377E+03</totfact>
</mgrwt>
</event>
<event>
 5    0  0.1911311E+001  0.2611332E+03  0.7546771E-02  0.1106464E+00
         21   -1    0    0  504  501  0.00000000000E+00  0.00000000000E+00  0.68931489107E+02  0.68931489107E+02  0.00000000000E+00 0.  1.
         21   -1    0    0  503  502 -0.00000000000E+00 -0.00000000000E+00 -0.18697493774E+04  0.18697493774E+04  0.00000000000E+00 0.  1.
         25    1    1    2    0    0 -0.12795335549E+03  0.24794371069E+03 -0.10102330198E+04  0.10554827802E+04  0.12500000000E+03 0.  0.
         21    1    1    2  503  501  0.10338485390E+03 -0.17268595390E+03 -0.77728742394E+03  0.80292254054E+03  0.00000000000E+00 0.  1.
         21    1    1    2  504  502  0.24568501582E+02 -0.75257756789E+02 -0.13297444542E+02  0.80275545829E+02  0.00000000000E+00 0.  1.
<mgrwt>
<rscale>  4 0.26113319E+03</rscale>
<asrwt>0</asrwt>
<pdfrwt beam="1">  1       21 0.10604847E-01 0.26113319E+03</pdfrwt>
<pdfrwt beam="2">  1       21 0.28765368E+00 0.26113319E+03</pdfrwt>
<totfact> 0.27395414E+03</totfact>
</mgrwt>
</event>
<event>
 5    0  0.1911311E+001  0.2396879E+03  0.7546771E-02  0.1120001E+00
         21   -1    0    0  502  501  0.00000000000E+00  0.00000000000E+00  0.30252128444E+03  0.30252128444E+03  0.00000000000E+00 0. -1.
         21   -1    0    0  504  502 -0.00000000000E+00 -0.00000000000E+00 -0.34338902458E+03  0.34338902458E+03  0.00000000000E+00 0. -1.
         25    1    1    2    0    0  0.23639222013E+03  0.88558303197E+01 -0.13894127263E+03  0.30147866377E+03  0.12500000000E+03 0.  0.
         21    1    1    2  503  501 -0.19691072656E+03 -0.20658789235E+02  0.17037898022E+03  0.26120799510E+03  0.00000000000E+00 0. -1.
         21    1    1    2  504  503 -0.39481493573E+02  0.11802958915E+02 -0.72305447713E+02  0.83223650142E+02  0.00000000000E+00 0. -1.
<mgrwt>
<rscale>  4 0.23968787E+03</rscale>
<asrwt>0</asrwt>
<pdfrwt beam="1">  1       21 0.46541736E-01 0.23968787E+03</pdfrwt>
<pdfrwt beam="2">  1       21 0.52829081E-01 0.23968787E+03</pdfrwt>
<totfact> 0.14599415E+04</totfact>
</mgrwt>
</event>
