<event>
 5    0  0.1856407E+000  0.3339835E+03  0.7546771E-02  0.1069388E+00
         21   -1    0    0  502  501  0.00000000000E+00  0.00000000000E+00  0.69974756732E+02  0.69974756732E+02  0.00000000000E+00 0.  1.
         21   -1    0    0  503  502 -0.00000000000E+00 -0.00000000000E+00 -0.15204709320E+04  0.15204709320E+04  0.00000000000E+00 0.  1.
         25    1    1    2    0    0 -0.26918481474E+03  0.15316502434E+03 -0.69968147356E+03  0.77530584521E+03  0.12500000000E+03 0.  0.
         21    1    1    2  503  504  0.55629896690E+02 -0.66976595862E+02 -0.20167798446E+03  0.21966920406E+03  0.00000000000E+00 0.  1.
         21    1    1    2  504  501  0.21355491805E+03 -0.86188428483E+02 -0.54913671725E+03  0.59547063946E+03  0.00000000000E+00 0.  1.
<mgrwt>
<rscale>  4 0.33398352E+03</rscale>
<asrwt>0</asrwt>
<pdfrwt beam="1">  1       21 0.10765348E-01 0.33398352E+03</pdfrwt>
<pdfrwt beam="2">  1       21 0.23391860E+00 0.33398352E+03</pdfrwt>
<totfact> 0.53063797E+03</totfact>
</mgrwt>
</event>
<event>
 5    0  0.1856407E+000  0.2390750E+03  0.7546771E-02  0.1120411E+00
         21   -1    0    0  502  501  0.00000000000E+00  0.00000000000E+00  0.11487941368E+03  0.11487941368E+03  0.00000000000E+00 0. -1.
         21   -1    0    0  503  502 -0.00000000000E+00 -0.00000000000E+00 -0.67396538965E+03  0.67396538965E+03  0.00000000000E+00 0.  1.
         25    1    1    2    0    0 -0.19752609604E+03  0.50152776537E+02 -0.57599609887E+02  0.24591578776E+03  0.12500000000E+03 0.  0.
         21    1    1    2  503  504  0.15322271577E+03 -0.37949460181E+02 -0.33688578495E+03  0.37203413051E+03  0.00000000000E+00 0.  1.
         21    1    1    2  504  501  0.44303380262E+02 -0.12203316356E+02 -0.16460058113E+03  0.17089488507E+03  0.00000000000E+00 0.  1.
<mgrwt>
<rscale>  4 0.23907501E+03</rscale>
<asrwt>0</asrwt>
<pdfrwt beam="1">  1       21 0.17673756E-01 0.23907501E+03</pdfrwt>
<pdfrwt beam="2">  1       21 0.10368698E+00 0.23907501E+03</pdfrwt>
<totfact> 0.21292736E+04</totfact>
</mgrwt>
</event>
<event>
 5    0  0.1856407E+000  0.2995260E+03  0.7546771E-02  0.1085478E+00
         21   -1    0    0  502  501  0.00000000000E+00  0.00000000000E+00  0.34767110518E+03  0.34767110518E+03  0.00000000000E+00 0. -1.
         21   -1    0    0  503  502 -0.00000000000E+00 -0.00000000000E+00 -0.51408920167E+03  0.51408920167E+03  0.00000000000E+00 0. -1.
         25    1    1    2    0    0  0.23022545755E+03  0.14739625521E+03  0.19885021072E+03  0.36041063199E+03  0.12500000000E+03 0.  0.
         21    1    1    2  503  504 -0.20762638904E+03 -0.17229140140E+03 -0.20839263623E+03  0.34091133049E+03  0.00000000000E+00 0. -1.
         21    1    1    2  504  501 -0.22599068513E+02  0.24895146190E+02 -0.15687567097E+03  0.16043834437E+03  0.00000000000E+00 0.  1.
<mgrwt>
<rscale>  4 0.29952595E+03</rscale>
<asrwt>0</asrwt>
<pdfrwt beam="1">  1       21 0.53487862E-01 0.29952595E+03</pdfrwt>
<pdfrwt beam="2">  1       21 0.79090646E-01 0.29952595E+03</pdfrwt>
<totfact> 0.43559937E+03</totfact>
</mgrwt>
</event>
<event>
 5    0  0.1856407E+000  0.2368176E+03  0.7546771E-02  0.1121931E+00
         21   -1    0    0  502  501  0.00000000000E+00  0.00000000000E+00  0.43138596010E+03  0.43138596010E+03  0.00000000000E+00 0.  1.
         21   -1    0    0  503  502 -0.00000000000E+00 -0.00000000000E+00 -0.15758429905E+03  0.15758429905E+03  0.00000000000E+00 0.  1.
         25    1    1    2    0    0  0.14810813785E+03 -0.13609392294E+03  0.29902812424E+03  0.38144514081E+03  0.12500000000E+03 0.  0.
         21    1    1    2  503  504 -0.92259522612E+02  0.57589042034E+02 -0.37820038040E+01  0.10882380635E+03  0.00000000000E+00 0.  1.
         21    1    1    2  504  501 -0.55848615235E+02  0.78504880909E+02 -0.21444459390E+02  0.98701311991E+02  0.00000000000E+00 0.  1.
<mgrwt>
<rscale>  4 0.23681760E+03</rscale>
<asrwt>0</asrwt>
<pdfrwt beam="1">  1       21 0.66367070E-01 0.23681760E+03</pdfrwt>
<pdfrwt beam="2">  1       21 0.24243739E-01 0.23681760E+03</pdfrwt>
<totfact> 0.32705700E+04</totfact>
</mgrwt>
</event>
<event>
 5    0  0.1856407E+000  0.2132229E+03  0.7546771E-02  0.1139039E+00
         21   -1    0    0  502  501  0.00000000000E+00  0.00000000000E+00  0.33512182048E+02  0.33512182048E+02  0.00000000000E+00 0. -1.
         21   -1    0    0  503  502 -0.00000000000E+00 -0.00000000000E+00 -0.25852808149E+04  0.25852808149E+04  0.00000000000E+00 0. -1.
         25    1    1    2    0    0  0.19576174631E+03 -0.87050194127E+02 -0.56060710814E+03  0.61302995629E+03  0.12500000000E+03 0.  0.
         21    1    1    2  503  504 -0.16084877826E+03  0.44256941324E+02 -0.17686309688E+04  0.17764814973E+04  0.00000000000E+00 0. -1.
         21    1    1    2  504  501 -0.34912968052E+02  0.42793252804E+02 -0.22253055585E+03  0.22928154333E+03  0.00000000000E+00 0. -1.
<mgrwt>
<rscale>  4 0.21322285E+03</rscale>
<asrwt>0</asrwt>
<pdfrwt beam="1">  1       21 0.51557194E-02 0.21322285E+03</pdfrwt>
<pdfrwt beam="2">  1       21 0.39773558E+00 0.21322285E+03</pdfrwt>
<totfact> 0.22337427E+03</totfact>
</mgrwt>
</event>
<event>
 5    0  0.5270302E+000  0.2580022E+03  0.7546771E-02  0.1108349E+00
         21   -1    0    0  502  501  0.00000000000E+00  0.00000000000E+00  0.91121254962E+02  0.91121254962E+02  0.00000000000E+00 0.  1.
         21   -1    0    0  503  502 -0.00000000000E+00 -0.00000000000E+00 -0.12976222925E+04  0.12976222925E+04  0.00000000000E+00 0. -1.
         25    1    1    2    0    0 -0.86397515825E+02 -0.23670403671E+03 -0.20525937941E+03  0.34820934016E+03  0.12500000000E+03 0.  0.
         21    1    1    2  503  504 -0.45714093706E+00  0.33296848263E+02 -0.31320582871E+02  0.45715074029E+02  0.00000000000E+00 0.  1.
         21    1    1    2  504  501  0.86854656762E+02  0.20340718845E+03 -0.96992107527E+03  0.99481913329E+03  0.00000000000E+00 0. -1.
<mgrwt>
<rscale>  4 0.25800224E+03</rscale>
<asrwt>0</asrwt>
<pdfrwt beam="1">  1       21 0.14018655E-01 0.25800224E+03</pdfrwt>
<pdfrwt beam="2">  1       21 0.19963419E+00 0.25800224E+03</pdfrwt>
<totfact> 0.56829931E+03</totfact>
</mgrwt>
</event>
<event>
 5    0  0.1856407E+000  0.3647462E+03  0.7546771E-02  0.1056720E+00
         21   -1    0    0  502  501  0.00000000000E+00  0.00000000000E+00  0.28145260782E+04  0.28145260782E+04  0.00000000000E+00 0.  1.
         21   -1    0    0  503  502 -0.00000000000E+00 -0.00000000000E+00 -0.21485230255E+03  0.21485230255E+03  0.00000000000E+00 0. -1.
         25    1    1    2    0    0 -0.24208104592E+03 -0.94294948528E+02  0.24240778430E+04  0.24411622557E+04  0.12500000000E+03 0.  0.
         21    1    1    2  503  504  0.34725633403E+03  0.32302194568E+02 -0.29004361175E+02  0.34995949232E+03  0.00000000000E+00 0. -1.
         21    1    1    2  504  501 -0.10517528811E+03  0.61992753960E+02  0.20460029388E+03  0.23825663270E+03  0.00000000000E+00 0.  1.
<mgrwt>
<rscale>  4 0.36474622E+03</rscale>
<asrwt>0</asrwt>
<pdfrwt beam="1">  1       21 0.43300399E+00 0.36474622E+03</pdfrwt>
<pdfrwt beam="2">  1       21 0.33054202E-01 0.36474622E+03</pdfrwt>
<totfact> 0.37474460E+01</totfact>
</mgrwt>
</event>
<event>
 5    0  0.1856407E+000  0.3355045E+03  0.7546771E-02  0.1068727E+00
         21   -1    0    0  502  501  0.00000000000E+00  0.00000000000E+00  0.12082957156E+04  0.12082957156E+04  0.00000000000E+00 0.  1.
         21   -1    0    0  503  502 -0.00000000000E+00 -0.00000000000E+00 -0.10343706229E+03  0.10343706229E+03  0.00000000000E+00 0.  1.
         25    1    1    2    0    0 -0.12560912845E+03  0.28488699712E+03  0.81116600784E+03  0.87781179449E+03  0.12500000000E+03 0.  0.
         21    1    1    2  503  504  0.74184248214E+02 -0.15847345944E+03  0.11628217661E+03  0.21009208607E+03  0.00000000000E+00 0.  1.
         21    1    1    2  504  501  0.51424880239E+02 -0.12641353768E+03  0.17741046882E+03  0.22382889729E+03  0.00000000000E+00 0.  1.
<mgrwt>
<rscale>  4 0.33550448E+03</rscale>
<asrwt>0</asrwt>
<pdfrwt beam="1">  1       21 0.18589164E+00 0.33550448E+03</pdfrwt>
<pdfrwt beam="2">  1       21 0.15913395E-01 0.33550448E+03</pdfrwt>
<totfact> 0.53097426E+03</totfact>
</mgrwt>
</event>
<event>
 5    0  0.1856407E+000  0.2021286E+03  0.7546771E-02  0.1147955E+00
         21   -1    0    0  502  501  0.00000000000E+00  0.00000000000E+00  0.42370890995E+03  0.42370890995E+03  0.00000000000E+00 0.  1.
         21   -1    0    0  503  502 -0.00000000000E+00 -0.00000000000E+00 -0.13980666317E+03  0.13980666317E+03  0.00000000000E+00 0.  1.
         25    1    1    2    0    0 -0.39752334442E+02  0.19681455590E+03  0.21751289370E+03  0.32133016733E+03  0.12500000000E+03 0.  0.
         21    1    1    2  503  504  0.36881614689E+02 -0.14348964821E+03 -0.10550535782E+02  0.14852894146E+03  0.00000000000E+00 0.  1.
         21    1    1    2  504  501  0.28707197533E+01 -0.53324907691E+02  0.76939888864E+02  0.93656464329E+02  0.00000000000E+00 0.  1.
<mgrwt>
<rscale>  4 0.20212856E+03</rscale>
<asrwt>0</asrwt>
<pdfrwt beam="1">  1       21 0.65185986E-01 0.20212856E+03</pdfrwt>
<pdfrwt beam="2">  1       21 0.21508718E-01 0.20212856E+03</pdfrwt>
<totfact> 0.43415850E+04</totfact>
</mgrwt>
</event>
<event>
 5    0  0.1856407E+000  0.2401567E+03  0.7546771E-02  0.1119689E+00
         21   -1    0    0  502  501  0.00000000000E+00  0.00000000000E+00  0.62925088764E+03  0.62925088764E+03  0.00000000000E+00 0.  1.
         21   -1    0    0  503  502 -0.00000000000E+00 -0.00000000000E+00 -0.86607571170E+03  0.86607571170E+03  0.00000000000E+00 0. -1.
         25    1    1    2    0    0 -0.10389682354E+03 -0.18121760411E+03  0.58045706914E+03  0.62943608023E+03  0.12500000000E+03 0.  0.
         21    1    1    2  503  504  0.30541127527E+02  0.37375613881E+02 -0.56041363872E+03  0.56248834961E+03  0.00000000000E+00 0. -1.
         21    1    1    2  504  501  0.73355696013E+02  0.14384199023E+03 -0.25686825448E+03  0.30340216949E+03  0.00000000000E+00 0.  1.
<mgrwt>
<rscale>  4 0.24015666E+03</rscale>
<asrwt>0</asrwt>
<pdfrwt beam="1">  1       21 0.96807829E-01 0.24015666E+03</pdfrwt>
<pdfrwt beam="2">  1       21 0.13324242E+00 0.24015666E+03</pdfrwt>
<totfact> 0.34205149E+02</totfact>
</mgrwt>
</event>
<event>
 5    0  0.1856407E+000  0.2176634E+03  0.7546771E-02  0.1135637E+00
         21   -1    0    0  502  501  0.00000000000E+00  0.00000000000E+00  0.36250348793E+03  0.36250348793E+03  0.00000000000E+00 0. -1.
         21   -1    0    0  503  502 -0.00000000000E+00 -0.00000000000E+00 -0.35710965460E+03  0.35710965460E+03  0.00000000000E+00 0. -1.
         25    1    1    2    0    0  0.21315154396E+03 -0.79624023697E+02  0.21764595592E+03  0.33877474518E+03  0.12500000000E+03 0.  0.
         21    1    1    2  503  504 -0.13676252823E+03  0.10778876674E+03 -0.23849259509E+03  0.29529836653E+03  0.00000000000E+00 0. -1.
         21    1    1    2  504  501 -0.76389015731E+02 -0.28164743048E+02  0.26240472497E+02  0.85540030817E+02  0.00000000000E+00 0. -1.
<mgrwt>
<rscale>  4 0.21766343E+03</rscale>
<asrwt>0</asrwt>
<pdfrwt beam="1">  1       21 0.55769768E-01 0.21766343E+03</pdfrwt>
<pdfrwt beam="2">  1       21 0.54939947E-01 0.21766343E+03</pdfrwt>
<totfact> 0.93096634E+03</totfact>
</mgrwt>
</event>
