<event>
 5    0  0.4930573E+000  0.2916018E+03  0.7546771E-02  0.1089516E+00
          2   -1    0    0  502    0 -0.00000000000E+00  0.00000000000E+00  0.16358076373E+04  0.16358076373E+04  0.00000000000E+00 0. -1.
         21   -1    0    0  503  502  0.00000000000E+00 -0.00000000000E+00 -0.45001713341E+03  0.45001713341E+03  0.00000000000E+00 0.  1.
         25    1    1    2    0    0 -0.23082998646E+03  0.71598046951E+02 -0.33228344179E+03  0.42947182523E+03  0.12500000000E+03 0.  0.
         21    1    1    2  503  501 -0.20999328844E+02  0.79024318823E+01 -0.55975415720E+02  0.60304787593E+02  0.00000000000E+00 0. -1.
          2    1    1    2  501    0  0.25182931530E+03 -0.79500478834E+02  0.15740493614E+04  0.15960481579E+04  0.00000000000E+00 0. -1.
<mgrwt>
<rscale>  4 0.29160177E+03</rscale>
<asrwt>0</asrwt>
<pdfrwt beam="1">  1       21 0.69233406E-01 0.29160177E+03</pdfrwt>
<pdfrwt beam="2">  1        2 0.25166271E+00 0.29160177E+03</pdfrwt>
<totfact> 0.26422127E+02</totfact>
</mgrwt>
</event>
<event>
 5    0  0.4930573E+000  0.2266033E+03  0.7546771E-02  0.1129054E+00
         21   -1    0    0  503  502  0.00000000000E+00  0.00000000000E+00  0.15926004134E+03  0.15926004134E+03  0.00000000000E+00 0. -1.
          1   -1    0    0  502    0 -0.00000000000E+00 -0.00000000000E+00 -0.22950073810E+04  0.22950073810E+04  0.00000000000E+00 0. -1.
         25    1    1    2    0    0  0.83356252248E+02 -0.18663754794E+03 -0.13237634736E+04  0.13452719328E+04  0.12500000000E+03 0.  0.
         21    1    1    2  503  501  0.11992577917E+02  0.36280119927E+02  0.13762977644E+03  0.14283565517E+03  0.00000000000E+00 0. -1.
          1    1    1    2  501    0 -0.95348830166E+02  0.15035742801E+03 -0.94961364247E+03  0.96615983436E+03  0.00000000000E+00 0. -1.
<mgrwt>
<rscale>  4 0.22660335E+03</rscale>
<asrwt>0</asrwt>
<pdfrwt beam="1">  1       21 0.24501544E-01 0.22660335E+03</pdfrwt>
<pdfrwt beam="2">  1        1 0.35307807E+00 0.22660335E+03</pdfrwt>
<totfact> 0.38226953E+02</totfact>
</mgrwt>
</event>
<event>
 5    0  0.4930573E+000  0.3046858E+03  0.7546771E-02  0.1082921E+00
         21   -1    0    0  503  502  0.00000000000E+00  0.00000000000E+00  0.12179888813E+03  0.12179888813E+03  0.00000000000E+00 0. -1.
          1   -1    0    0  502    0 -0.00000000000E+00 -0.00000000000E+00 -0.16727361381E+04  0.16727361381E+04  0.00000000000E+00 0. -1.
         25    1    1    2    0    0 -0.21156233966E+03  0.15409814807E+03 -0.96491015075E+02  0.30568019038E+03  0.12500000000E+03 0.  0.
         21    1    1    2  503  501 -0.80703842726E+01  0.19549204100E+02 -0.27461173013E+02  0.34661484482E+02  0.00000000000E+00 0. -1.
          1    1    1    2  501    0  0.21963272393E+03 -0.17364735217E+03 -0.14269850619E+04  0.14541933514E+04  0.00000000000E+00 0. -1.
<mgrwt>
<rscale>  4 0.30468577E+03</rscale>
<asrwt>0</asrwt>
<pdfrwt beam="1">  1       21 0.18738290E-01 0.30468577E+03</pdfrwt>
<pdfrwt beam="2">  1        1 0.25734403E+00 0.30468577E+03</pdfrwt>
<totfact> 0.15517450E+03</totfact>
</mgrwt>
</event>
<event>
 5    0  0.4930573E+000  0.2289212E+03  0.7546771E-02  0.1127401E+00
          2   -1    0    0  502    0 -0.00000000000E+00  0.00000000000E+00  0.13791455595E+04  0.13791455595E+04  0.00000000000E+00 0.  1.
         21   -1    0    0  503  502  0.00000000000E+00 -0.00000000000E+00 -0.40177257365E+03  0.40177257365E+03  0.00000000000E+00 0.  1.
         25    1    1    2    0    0 -0.20805502946E+03 -0.11214866491E+03  0.10249565041E+03  0.28634695158E+03  0.12500000000E+03 0.  0.
         21    1    1    2  503  501  0.48961819587E+02  0.11621570040E+02 -0.30026635445E+03  0.30445394444E+03  0.00000000000E+00 0.  1.
          2    1    1    2  501    0  0.15909320988E+03  0.10052709487E+03  0.11751436899E+04  0.11901172371E+04  0.00000000000E+00 0.  1.
<mgrwt>
<rscale>  4 0.22892124E+03</rscale>
<asrwt>0</asrwt>
<pdfrwt beam="1">  1       21 0.61811166E-01 0.22892124E+03</pdfrwt>
<pdfrwt beam="2">  1        2 0.21217624E+00 0.22892124E+03</pdfrwt>
<totfact> 0.48262064E+02</totfact>
</mgrwt>
</event>
<event>
 5    0  0.4930573E+000  0.2069420E+03  0.7546771E-02  0.1144011E+00
         21   -1    0    0  501  502  0.00000000000E+00  0.00000000000E+00  0.65824490765E+03  0.65824490765E+03  0.00000000000E+00 0. -1.
         -4   -1    0    0    0  501 -0.00000000000E+00 -0.00000000000E+00 -0.43623188220E+03  0.43623188220E+03  0.00000000000E+00 0.  1.
         25    1    1    2    0    0 -0.78831059223E+02 -0.18491859118E+03  0.54021995015E+02  0.24280155932E+03  0.12500000000E+03 0.  0.
         21    1    1    2  503  502  0.64653279382E+01  0.41789138936E+02  0.49006045171E+03  0.49188146837E+03  0.00000000000E+00 0. -1.
         -4    1    1    2    0  503  0.72365731285E+02  0.14312945225E+03 -0.32206942128E+03  0.35979376215E+03  0.00000000000E+00 0.  1.
<mgrwt>
<rscale>  4 0.20694205E+03</rscale>
<asrwt>0</asrwt>
<pdfrwt beam="1">  1       21 0.10126845E+00 0.20694205E+03</pdfrwt>
<pdfrwt beam="2">  1       -4 0.67112597E-01 0.20694205E+03</pdfrwt>
<totfact> 0.69639855E+01</totfact>
</mgrwt>
</event>
<event>
 5    0  0.4930573E+000  0.3365797E+03  0.7546771E-02  0.1068262E+00
          2   -1    0    0  502    0 -0.00000000000E+00  0.00000000000E+00  0.90199260306E+03  0.90199260306E+03  0.00000000000E+00 0. -1.
         21   -1    0    0  503  502  0.00000000000E+00 -0.00000000000E+00 -0.46306750129E+03  0.46306750129E+03  0.00000000000E+00 0. -1.
         25    1    1    2    0    0  0.36872090830E+03  0.95808090233E+01 -0.21467839765E+03  0.44470070220E+03  0.12500000000E+03 0.  0.
         21    1    1    2  503  501 -0.66649800065E+02  0.48894752408E+02 -0.86015427069E+02  0.11929604501E+03  0.00000000000E+00 0. -1.
          2    1    1    2  501    0 -0.30207110824E+03 -0.58475561432E+02  0.73961892649E+03  0.80106335713E+03  0.00000000000E+00 0. -1.
<mgrwt>
<rscale>  4 0.33657972E+03</rscale>
<asrwt>0</asrwt>
<pdfrwt beam="1">  1       21 0.71241155E-01 0.33657972E+03</pdfrwt>
<pdfrwt beam="2">  1        2 0.13876809E+00 0.33657972E+03</pdfrwt>
<totfact> 0.63850774E+02</totfact>
</mgrwt>
</event>
<event>
 5    0  0.4930573E+000  0.3473392E+03  0.7546771E-02  0.1063712E+00
         21   -1    0    0  503  502  0.00000000000E+00  0.00000000000E+00  0.35730112569E+03  0.35730112569E+03  0.00000000000E+00 0.  1.
          1   -1    0    0  502    0 -0.00000000000E+00 -0.00000000000E+00 -0.53317704658E+03  0.53317704658E+03  0.00000000000E+00 0.  1.
         25    1    1    2    0    0 -0.99388125345E+02 -0.32696628660E+03 -0.26751957504E+03  0.45163776975E+03  0.12500000000E+03 0.  0.
         21    1    1    2  503  501  0.29865588085E+02  0.36078805406E+02  0.12918511436E+03  0.13741334478E+03  0.00000000000E+00 0.  1.
          1    1    1    2  501    0  0.69522537259E+02  0.29088748120E+03 -0.37541460214E+02  0.30142705774E+03  0.00000000000E+00 0.  1.
<mgrwt>
<rscale>  4 0.34733918E+03</rscale>
<asrwt>0</asrwt>
<pdfrwt beam="1">  1       21 0.54969404E-01 0.34733918E+03</pdfrwt>
<pdfrwt beam="2">  1        1 0.82027238E-01 0.34733918E+03</pdfrwt>
<totfact> 0.13522774E+03</totfact>
</mgrwt>
</event>
<event>
 5    0  0.4930573E+000  0.2286896E+03  0.7546771E-02  0.1127565E+00
         21   -1    0    0  503  502  0.00000000000E+00  0.00000000000E+00  0.30932055947E+03  0.30932055947E+03  0.00000000000E+00 0.  1.
          2   -1    0    0  502    0 -0.00000000000E+00 -0.00000000000E+00 -0.82783819026E+03  0.82783819026E+03  0.00000000000E+00 0. -1.
         25    1    1    2    0    0 -0.22542553643E+03 -0.26680345950E+02 -0.63843540326E+02  0.26688857409E+03  0.12500000000E+03 0.  0.
         21    1    1    2  503  501  0.39490302010E+02  0.78588642303E+01  0.19249318432E+03  0.19665927822E+03  0.00000000000E+00 0.  1.
          2    1    1    2  501    0  0.18593523442E+03  0.18821481720E+02 -0.64716727479E+03  0.67361089743E+03  0.00000000000E+00 0. -1.
<mgrwt>
<rscale>  4 0.22868961E+03</rscale>
<asrwt>0</asrwt>
<pdfrwt beam="1">  1       21 0.47587779E-01 0.22868961E+03</pdfrwt>
<pdfrwt beam="2">  1        2 0.12735972E+00 0.22868961E+03</pdfrwt>
<totfact> 0.17834944E+03</totfact>
</mgrwt>
</event>
<event>
 5    0  0.4930573E+000  0.2630242E+03  0.7546771E-02  0.1105340E+00
          2   -1    0    0  502    0 -0.00000000000E+00  0.00000000000E+00  0.92999126852E+03  0.92999126852E+03  0.00000000000E+00 0. -1.
         21   -1    0    0  503  502  0.00000000000E+00 -0.00000000000E+00 -0.92999837419E+02  0.92999837419E+02  0.00000000000E+00 0. -1.
         25    1    1    2    0    0 -0.47969043783E+00  0.22386960564E+03  0.18073808310E+03  0.31370222364E+03  0.12500000000E+03 0.  0.
         21    1    1    2  503  501  0.20818978524E+02  0.92365782912E+01  0.16608204763E+02  0.28188237100E+02  0.00000000000E+00 0. -1.
          2    1    1    2  501    0 -0.20339288087E+02 -0.23310618393E+03  0.63964514324E+03  0.68110064520E+03  0.00000000000E+00 0. -1.
<mgrwt>
<rscale>  4 0.26302417E+03</rscale>
<asrwt>0</asrwt>
<pdfrwt beam="1">  1       21 0.14307668E-01 0.26302417E+03</pdfrwt>
<pdfrwt beam="2">  1        2 0.14307557E+00 0.26302417E+03</pdfrwt>
<totfact> 0.15518722E+04</totfact>
</mgrwt>
</event>
<event>
 5    0  0.4930573E+000  0.3099692E+03  0.7546771E-02  0.1080361E+00
         21   -1    0    0  503  502  0.00000000000E+00  0.00000000000E+00  0.85098606418E+03  0.85098606418E+03  0.00000000000E+00 0. -1.
          1   -1    0    0  502    0 -0.00000000000E+00 -0.00000000000E+00 -0.12156653369E+04  0.12156653369E+04  0.00000000000E+00 0.  1.
         25    1    1    2    0    0 -0.11325152524E+03 -0.24875089263E+03  0.39921382410E+03  0.49969950161E+03  0.12500000000E+03 0.  0.
         21    1    1    2  503  501  0.27807548814E+02 -0.22217826751E+02  0.38337615365E+03  0.38502489112E+03  0.00000000000E+00 0. -1.
          1    1    1    2  501    0  0.85443976423E+02  0.27096871939E+03 -0.11472692505E+04  0.11819270084E+04  0.00000000000E+00 0.  1.
<mgrwt>
<rscale>  4 0.30996916E+03</rscale>
<asrwt>0</asrwt>
<pdfrwt beam="1">  1       21 0.13092093E+00 0.30996916E+03</pdfrwt>
<pdfrwt beam="2">  1        1 0.18702544E+00 0.30996916E+03</pdfrwt>
<totfact> 0.48760060E+01</totfact>
</mgrwt>
</event>
<event>
 5    0  0.4930573E+000  0.2420039E+03  0.7546771E-02  0.1118465E+00
          2   -1    0    0  502    0 -0.00000000000E+00  0.00000000000E+00  0.87398589278E+03  0.87398589278E+03  0.00000000000E+00 0. -1.
         21   -1    0    0  503  502  0.00000000000E+00 -0.00000000000E+00 -0.74378793652E+03  0.74378793652E+03  0.00000000000E+00 0. -1.
         25    1    1    2    0    0  0.10981478015E+03  0.18500546522E+03 -0.69738916660E+03  0.74044780896E+03  0.12500000000E+03 0.  0.
         21    1    1    2  503  501  0.11397496553E+02 -0.17086774825E+02 -0.34904600083E+01  0.20833725367E+02  0.00000000000E+00 0. -1.
          2    1    1    2  501    0 -0.12121227671E+03 -0.16791869039E+03  0.83107758286E+03  0.85649229497E+03  0.00000000000E+00 0. -1.
<mgrwt>
<rscale>  4 0.24200394E+03</rscale>
<asrwt>0</asrwt>
<pdfrwt beam="1">  1       21 0.11442891E+00 0.24200394E+03</pdfrwt>
<pdfrwt beam="2">  1        2 0.13445937E+00 0.24200394E+03</pdfrwt>
<totfact> 0.22936018E+02</totfact>
</mgrwt>
</event>
<event>
 5    0  0.4930573E+000  0.2596116E+03  0.7546771E-02  0.1107377E+00
          2   -1    0    0  502    0 -0.00000000000E+00  0.00000000000E+00  0.41493243618E+03  0.41493243618E+03  0.00000000000E+00 0. -1.
         21   -1    0    0  503  502  0.00000000000E+00 -0.00000000000E+00 -0.30500541540E+03  0.30500541540E+03  0.00000000000E+00 0. -1.
         25    1    1    2    0    0 -0.23638996882E+03  0.17253633037E+02  0.27411900309E+03  0.38333292718E+03  0.12500000000E+03 0.  0.
         21    1    1    2  503  501  0.30938355816E+02 -0.62765416804E+01 -0.12272881973E+03  0.12672387315E+03  0.00000000000E+00 0. -1.
          2    1    1    2  501    0  0.20545161300E+03 -0.10977091357E+02 -0.41463162573E+02  0.20988105124E+03  0.00000000000E+00 0. -1.
<mgrwt>
<rscale>  4 0.25961158E+03</rscale>
<asrwt>0</asrwt>
<pdfrwt beam="1">  1       21 0.46923910E-01 0.25961158E+03</pdfrwt>
<pdfrwt beam="2">  1        2 0.63835760E-01 0.25961158E+03</pdfrwt>
<totfact> 0.40728760E+03</totfact>
</mgrwt>
</event>
<event>
 5    0  0.4930573E+000  0.1991649E+03  0.7546771E-02  0.1150446E+00
          2   -1    0    0  502    0 -0.00000000000E+00  0.00000000000E+00  0.35719650747E+03  0.35719650747E+03  0.00000000000E+00 0. -1.
         21   -1    0    0  503  502  0.00000000000E+00 -0.00000000000E+00 -0.35435475172E+03  0.35435475172E+03  0.00000000000E+00 0. -1.
         25    1    1    2    0    0 -0.20230353314E+03 -0.10446013680E+03  0.41112265930E+02  0.26297121156E+03  0.12500000000E+03 0.  0.
         21    1    1    2  503  501  0.10048979332E+03  0.84247011385E+01 -0.20646091589E+03  0.22977224363E+03  0.00000000000E+00 0. -1.
          2    1    1    2  501    0  0.10181373983E+03  0.96035435659E+02  0.16819040571E+03  0.21880780400E+03  0.00000000000E+00 0. -1.
<mgrwt>
<rscale>  4 0.19916489E+03</rscale>
<asrwt>0</asrwt>
<pdfrwt beam="1">  1       21 0.54516116E-01 0.19916489E+03</pdfrwt>
<pdfrwt beam="2">  1        2 0.54953309E-01 0.19916489E+03</pdfrwt>
<totfact> 0.35655273E+03</totfact>
</mgrwt>
</event>
<event>
 5    0  0.4930573E+000  0.3013799E+03  0.7546771E-02  0.1084553E+00
          2   -1    0    0  502    0 -0.00000000000E+00  0.00000000000E+00  0.22797474033E+04  0.22797474033E+04  0.00000000000E+00 0. -1.
         21   -1    0    0  503  502  0.00000000000E+00 -0.00000000000E+00 -0.57729154947E+03  0.57729154947E+03  0.00000000000E+00 0. -1.
         25    1    1    2    0    0  0.34055404214E+03 -0.99771724465E+02  0.12237767745E+04  0.12803070126E+04  0.12500000000E+03 0.  0.
         21    1    1    2  503  501 -0.12328260728E+03  0.76715941568E+01 -0.52826033321E+03  0.54250938633E+03  0.00000000000E+00 0. -1.
          2    1    1    2  501    0 -0.21727143486E+03  0.92100130308E+02  0.10069394125E+04  0.10342225539E+04  0.00000000000E+00 0. -1.
<mgrwt>
<rscale>  4 0.30137986E+03</rscale>
<asrwt>0</asrwt>
<pdfrwt beam="1">  1       21 0.88814086E-01 0.30137986E+03</pdfrwt>
<pdfrwt beam="2">  1        2 0.35073037E+00 0.30137986E+03</pdfrwt>
<totfact> 0.67870111E+01</totfact>
</mgrwt>
</event>
<event>
 5    0  0.4930573E+000  0.4061441E+03  0.7546771E-02  0.1041673E+00
         -3   -1    0    0    0  501 -0.00000000000E+00  0.00000000000E+00  0.37579620487E+03  0.37579620487E+03  0.00000000000E+00 0.  1.
         21   -1    0    0  501  502  0.00000000000E+00 -0.00000000000E+00 -0.63377690139E+03  0.63377690139E+03  0.00000000000E+00 0.  1.
         25    1    1    2    0    0  0.46160613889E+02  0.38635655406E+03  0.13495426358E+03  0.43039498417E+03  0.12500000000E+03 0.  0.
         21    1    1    2  503  502 -0.82777996356E+01 -0.38597861004E+03 -0.37083195556E+03  0.53531705432E+03  0.00000000000E+00 0.  1.
         -3    1    1    2    0  503 -0.37882814254E+02 -0.37794401473E+00 -0.22103004542E+02  0.43861067785E+02  0.00000000000E+00 0.  1.
<mgrwt>
<rscale>  4 0.40614408E+03</rscale>
<asrwt>0</asrwt>
<pdfrwt beam="1">  1       21 0.97504138E-01 0.40614408E+03</pdfrwt>
<pdfrwt beam="2">  1       -3 0.57814801E-01 0.40614408E+03</pdfrwt>
<totfact> 0.12061855E+02</totfact>
</mgrwt>
</event>
<event>
 5    0  0.4930573E+000  0.2272034E+03  0.7546771E-02  0.1128624E+00
         21   -1    0    0  503  502  0.00000000000E+00  0.00000000000E+00  0.99094009248E+03  0.99094009248E+03  0.00000000000E+00 0. -1.
          2   -1    0    0  502    0 -0.00000000000E+00 -0.00000000000E+00 -0.11548835338E+04  0.11548835338E+04  0.00000000000E+00 0.  1.
         25    1    1    2    0    0  0.17187418800E+03  0.15894666434E+03 -0.82881037437E+02  0.27802705798E+03  0.12500000000E+03 0.  0.
         21    1    1    2  503  501 -0.13111757712E+03 -0.13378667762E+03  0.88294617863E+03  0.90259883032E+03  0.00000000000E+00 0. -1.
          2    1    1    2  501    0 -0.40756610877E+02 -0.25159986715E+02 -0.96400858249E+03  0.96519773797E+03  0.00000000000E+00 0.  1.
<mgrwt>
<rscale>  4 0.22720344E+03</rscale>
<asrwt>0</asrwt>
<pdfrwt beam="1">  1       21 0.15245232E+00 0.22720344E+03</pdfrwt>
<pdfrwt beam="2">  1        2 0.17767439E+00 0.22720344E+03</pdfrwt>
<totfact> 0.75064066E+01</totfact>
</mgrwt>
</event>
<event>
 5    0  0.4930573E+000  0.4003544E+03  0.7546771E-02  0.1043657E+00
         21   -1    0    0  503  502  0.00000000000E+00  0.00000000000E+00  0.10688542395E+04  0.10688542395E+04  0.00000000000E+00 0. -1.
          2   -1    0    0  502    0 -0.00000000000E+00 -0.00000000000E+00 -0.66417669141E+03  0.66417669141E+03  0.00000000000E+00 0. -1.
         25    1    1    2    0    0 -0.52103766792E+03  0.82130686280E+02 -0.63546954443E+01  0.54211722272E+03  0.12500000000E+03 0.  0.
         21    1    1    2  503  501  0.19528784778E+03  0.12548879401E+02  0.71139457966E+03  0.73781912813E+03  0.00000000000E+00 0. -1.
          2    1    1    2  501    0  0.32574982014E+03 -0.94679565680E+02 -0.30036233615E+03  0.45309458003E+03  0.00000000000E+00 0. -1.
<mgrwt>
<rscale>  4 0.40035435E+03</rscale>
<asrwt>0</asrwt>
<pdfrwt beam="1">  1       21 0.16443911E+00 0.40035435E+03</pdfrwt>
<pdfrwt beam="2">  1        2 0.10218103E+00 0.40035435E+03</pdfrwt>
<totfact> 0.11590523E+02</totfact>
</mgrwt>
</event>
<event>
 5    0  0.4930573E+000  0.3536781E+03  0.7546771E-02  0.1061115E+00
          2   -1    0    0  502    0 -0.00000000000E+00  0.00000000000E+00  0.11632727903E+04  0.11632727903E+04  0.00000000000E+00 0.  1.
         21   -1    0    0  503  502  0.00000000000E+00 -0.00000000000E+00 -0.13022455067E+03  0.13022455067E+03  0.00000000000E+00 0.  1.
         25    1    1    2    0    0  0.31823336892E+03 -0.90502569915E+02  0.81347133811E+03  0.88703089584E+03  0.12500000000E+03 0.  0.
         21    1    1    2  503  501 -0.49772272637E+02  0.44252562711E+01  0.14122478811E+01  0.49988563298E+02  0.00000000000E+00 0. -1.
          2    1    1    2  501    0 -0.26846109628E+03  0.86077313644E+02  0.21816465365E+03  0.35647788185E+03  0.00000000000E+00 0.  1.
<mgrwt>
<rscale>  4 0.35367809E+03</rscale>
<asrwt>0</asrwt>
<pdfrwt beam="1">  1       21 0.20034547E-01 0.35367809E+03</pdfrwt>
<pdfrwt beam="2">  1        2 0.17896504E+00 0.35367809E+03</pdfrwt>
<totfact> 0.58758070E+03</totfact>
</mgrwt>
</event>
<event>
 5    0  0.4930573E+000  0.1655112E+03  0.7546771E-02  0.1182611E+00
          2   -1    0    0  502    0 -0.00000000000E+00  0.00000000000E+00  0.26533954127E+04  0.26533954127E+04  0.00000000000E+00 0. -1.
         21   -1    0    0  503  502  0.00000000000E+00 -0.00000000000E+00 -0.68439893628E+02  0.68439893628E+02  0.00000000000E+00 0.  1.
         25    1    1    2    0    0 -0.22894610552E+02 -0.19990155289E+03  0.23228324874E+03  0.33176091042E+03  0.12500000000E+03 0.  0.
         21    1    1    2  503  501  0.43085392650E+02  0.95503776894E+02  0.14007612099E+03  0.17492467560E+03  0.00000000000E+00 0.  1.
          2    1    1    2  501    0 -0.20190782098E+02  0.10439777599E+03  0.22125961494E+04  0.22151497203E+04  0.00000000000E+00 0. -1.
<mgrwt>
<rscale>  4 0.16551121E+03</rscale>
<asrwt>0</asrwt>
<pdfrwt beam="1">  1       21 0.10529216E-01 0.16551121E+03</pdfrwt>
<pdfrwt beam="2">  1        2 0.40821460E+00 0.16551121E+03</pdfrwt>
<totfact> 0.32607855E+03</totfact>
</mgrwt>
</event>
<event>
 5    0  0.4930573E+000  0.1885626E+03  0.7546771E-02  0.1159764E+00
          1   -1    0    0  502    0 -0.00000000000E+00  0.00000000000E+00  0.33401223884E+02  0.33401223884E+02  0.00000000000E+00 0.  1.
         21   -1    0    0  503  502  0.00000000000E+00 -0.00000000000E+00 -0.29055674582E+04  0.29055674582E+04  0.00000000000E+00 0. -1.
         25    1    1    2    0    0  0.11051657252E+03 -0.18172466364E+03 -0.22458605479E+04  0.22593699048E+04  0.12500000000E+03 0.  0.
         21    1    1    2  503  501 -0.53474121983E+02  0.59340517824E+02 -0.45255678911E+03  0.45955241937E+03  0.00000000000E+00 0. -1.
          1    1    1    2  501    0 -0.57042450533E+02  0.12238414582E+03 -0.17374889731E+03  0.22004635790E+03  0.00000000000E+00 0.  1.
<mgrwt>
<rscale>  4 0.18856261E+03</rscale>
<asrwt>0</asrwt>
<pdfrwt beam="1">  1       21 0.44701029E+00 0.18856261E+03</pdfrwt>
<pdfrwt beam="2">  1        1 0.51386509E-02 0.18856261E+03</pdfrwt>
<totfact> 0.73891093E+01</totfact>
</mgrwt>
</event>
<event>
 5    0  0.4930573E+000  0.2292087E+03  0.7546771E-02  0.1127198E+00
          3   -1    0    0  502    0 -0.00000000000E+00  0.00000000000E+00  0.36499956470E+03  0.36499956470E+03  0.00000000000E+00 0.  1.
         21   -1    0    0  503  502  0.00000000000E+00 -0.00000000000E+00 -0.45437638386E+03  0.45437638386E+03  0.00000000000E+00 0.  1.
         25    1    1    2    0    0  0.40117320909E+02  0.21136360981E+03 -0.34927783155E+03  0.42884027166E+03  0.12500000000E+03 0.  0.
         21    1    1    2  503  501 -0.28315941660E+02 -0.14000792199E+03  0.25334174785E+02  0.14507181388E+03  0.00000000000E+00 0.  1.
          3    1    1    2  501    0 -0.11801379249E+02 -0.71355687821E+02  0.23456683761E+03  0.24546386301E+03  0.00000000000E+00 0.  1.
<mgrwt>
<rscale>  4 0.22920871E+03</rscale>
<asrwt>0</asrwt>
<pdfrwt beam="1">  1       21 0.69904058E-01 0.22920871E+03</pdfrwt>
<pdfrwt beam="2">  1        3 0.56153780E-01 0.22920871E+03</pdfrwt>
<totfact> 0.28707492E+02</totfact>
</mgrwt>
</event>
<event>
 5    0  0.4930573E+000  0.2239102E+03  0.7546771E-02  0.1131001E+00
         21   -1    0    0  501  502  0.00000000000E+00  0.00000000000E+00  0.80412013790E+03  0.80412013790E+03  0.00000000000E+00 0.  1.
         -2   -1    0    0    0  501 -0.00000000000E+00 -0.00000000000E+00 -0.36803268654E+03  0.36803268654E+03  0.00000000000E+00 0.  1.
         25    1    1    2    0    0 -0.21004056737E+03  0.18410130644E+03  0.69728692959E+01  0.30607834271E+03  0.12500000000E+03 0.  0.
         21    1    1    2  503  502  0.12527115173E+03 -0.12648018838E+03  0.62236503124E+03  0.64732397732E+03  0.00000000000E+00 0.  1.
         -2    1    1    2    0  503  0.84769415632E+02 -0.57621118056E+02 -0.19325044918E+03  0.21875050441E+03  0.00000000000E+00 0.  1.
<mgrwt>
<rscale>  4 0.22391019E+03</rscale>
<asrwt>0</asrwt>
<pdfrwt beam="1">  1       21 0.12371079E+00 0.22391019E+03</pdfrwt>
<pdfrwt beam="2">  1       -2 0.56620413E-01 0.22391019E+03</pdfrwt>
<totfact> 0.11637499E+02</totfact>
</mgrwt>
</event>
<event>
 5    0  0.4930573E+000  0.3282215E+03  0.7546771E-02  0.1071927E+00
         21   -1    0    0  503  502  0.00000000000E+00  0.00000000000E+00  0.19838974655E+03  0.19838974655E+03  0.00000000000E+00 0.  1.
          2   -1    0    0  502    0 -0.00000000000E+00 -0.00000000000E+00 -0.13508078686E+04  0.13508078686E+04  0.00000000000E+00 0. -1.
         25    1    1    2    0    0  0.81769754539E+02  0.41810858183E+03 -0.26648306819E+03  0.51782169189E+03  0.12500000000E+03 0.  0.
         21    1    1    2  503  501 -0.13985389721E+02 -0.14545766400E+03 -0.58255341291E+02  0.15731245319E+03  0.00000000000E+00 0.  1.
          2    1    1    2  501    0 -0.67784364819E+02 -0.27265091783E+03 -0.82767971252E+03  0.87406347002E+03  0.00000000000E+00 0. -1.
<mgrwt>
<rscale>  4 0.32822150E+03</rscale>
<asrwt>0</asrwt>
<pdfrwt beam="1">  1       21 0.30521500E-01 0.32822150E+03</pdfrwt>
<pdfrwt beam="2">  1        2 0.20781659E+00 0.32822150E+03</pdfrwt>
<totfact> 0.20524202E+03</totfact>
</mgrwt>
</event>
<event>
 5    0  0.4930573E+000  0.2953278E+03  0.7546771E-02  0.1087600E+00
         21   -1    0    0  503  502  0.00000000000E+00  0.00000000000E+00  0.49446513855E+03  0.49446513855E+03  0.00000000000E+00 0. -1.
          2   -1    0    0  502    0 -0.00000000000E+00 -0.00000000000E+00 -0.16996720117E+04  0.16996720117E+04  0.00000000000E+00 0. -1.
         25    1    1    2    0    0  0.28345143069E+03 -0.25932466834E+02  0.36474082244E+03  0.47924740370E+03  0.12500000000E+03 0.  0.
         21    1    1    2  503  501 -0.16456990442E+02  0.36107374294E+02  0.55167763518E+02  0.67956288483E+02  0.00000000000E+00 0.  1.
          2    1    1    2  501    0 -0.26699444025E+03 -0.10174907459E+02 -0.16251154591E+04  0.16469334580E+04  0.00000000000E+00 0. -1.
<mgrwt>
<rscale>  4 0.29532777E+03</rscale>
<asrwt>0</asrwt>
<pdfrwt beam="1">  1       21 0.76071560E-01 0.29532777E+03</pdfrwt>
<pdfrwt beam="2">  1        2 0.26148800E+00 0.29532777E+03</pdfrwt>
<totfact> 0.19743723E+02</totfact>
</mgrwt>
</event>
<event>
 5    0  0.4930573E+000  0.2544266E+03  0.7546771E-02  0.1110539E+00
         21   -1    0    0  501  502  0.00000000000E+00  0.00000000000E+00  0.19761730492E+03  0.19761730492E+03  0.00000000000E+00 0. -1.
         -1   -1    0    0    0  501 -0.00000000000E+00 -0.00000000000E+00 -0.60583254497E+03  0.60583254497E+03  0.00000000000E+00 0. -1.
         25    1    1    2    0    0  0.38567628333E+02  0.20152623157E+03 -0.36922975474E+02  0.24308144743E+03  0.12500000000E+03 0.  0.
         21    1    1    2  503  502  0.20009035979E+02  0.16870260150E+02  0.64389396479E+02  0.69505119072E+02  0.00000000000E+00 0.  1.
         -1    1    1    2    0  503 -0.58576664312E+02 -0.21839649172E+03 -0.43568166106E+03  0.49086328339E+03  0.00000000000E+00 0. -1.
<mgrwt>
<rscale>  4 0.25442664E+03</rscale>
<asrwt>0</asrwt>
<pdfrwt beam="1">  1       21 0.30402663E-01 0.25442664E+03</pdfrwt>
<pdfrwt beam="2">  1       -1 0.93205005E-01 0.25442664E+03</pdfrwt>
<totfact> 0.11212725E+03</totfact>
</mgrwt>
</event>
<event>
 5    0  0.4930573E+000  0.3085202E+03  0.7546771E-02  0.1081057E+00
          2   -1    0    0  502    0 -0.00000000000E+00  0.00000000000E+00  0.23698029628E+04  0.23698029628E+04  0.00000000000E+00 0. -1.
         21   -1    0    0  503  502  0.00000000000E+00 -0.00000000000E+00 -0.38054373472E+03  0.38054373472E+03  0.00000000000E+00 0.  1.
         25    1    1    2    0    0 -0.23965530664E+03 -0.18337935137E+03 -0.25522389810E+03  0.41452007270E+03  0.12500000000E+03 0.  0.
         21    1    1    2  503  501  0.68459792572E+01  0.25016952532E+02 -0.32454883873E+02  0.41545575374E+02  0.00000000000E+00 0. -1.
          2    1    1    2  501    0  0.23280932738E+03  0.15836239883E+03  0.22769380100E+04  0.22942810494E+04  0.00000000000E+00 0. -1.
<mgrwt>
<rscale>  4 0.30852021E+03</rscale>
<asrwt>0</asrwt>
<pdfrwt beam="1">  1       21 0.58545192E-01 0.30852021E+03</pdfrwt>
<pdfrwt beam="2">  1        2 0.36458506E+00 0.30852021E+03</pdfrwt>
<totfact> 0.15398935E+02</totfact>
</mgrwt>
</event>
<event>
 5    0  0.4930573E+000  0.1955535E+03  0.7546771E-02  0.1153546E+00
         21   -1    0    0  503  502  0.00000000000E+00  0.00000000000E+00  0.14898252372E+03  0.14898252372E+03  0.00000000000E+00 0. -1.
          2   -1    0    0  502    0 -0.00000000000E+00 -0.00000000000E+00 -0.15271090297E+04  0.15271090297E+04  0.00000000000E+00 0. -1.
         25    1    1    2    0    0  0.21098226458E+03 -0.63460419559E+02 -0.77439155119E+02  0.26488216920E+03  0.12500000000E+03 0.  0.
         21    1    1    2  503  501 -0.65042013946E+02  0.42546489930E+02  0.21648309228E+02  0.80680336365E+02  0.00000000000E+00 0. -1.
          2    1    1    2  501    0 -0.14594025063E+03  0.20913929629E+02 -0.13223356601E+04  0.13305290479E+04  0.00000000000E+00 0. -1.
<mgrwt>
<rscale>  4 0.19555347E+03</rscale>
<asrwt>0</asrwt>
<pdfrwt beam="1">  1       21 0.22920389E-01 0.19555347E+03</pdfrwt>
<pdfrwt beam="2">  1        2 0.23493984E+00 0.19555347E+03</pdfrwt>
<totfact> 0.30292285E+03</totfact>
</mgrwt>
</event>
<event>
 5    0  0.4930573E+000  0.3048541E+03  0.7546771E-02  0.1082839E+00
         21   -1    0    0  503  502  0.00000000000E+00  0.00000000000E+00  0.48481168795E+03  0.48481168795E+03  0.00000000000E+00 0. -1.
          2   -1    0    0  502    0 -0.00000000000E+00 -0.00000000000E+00 -0.67936963441E+03  0.67936963441E+03  0.00000000000E+00 0. -1.
         25    1    1    2    0    0  0.16248723859E+03 -0.20269971948E+03  0.35658128226E+03  0.45854606076E+03  0.12500000000E+03 0.  0.
         21    1    1    2  503  501  0.70386013565E+01 -0.19457688673E+02  0.43740276289E+02  0.48387553435E+02  0.00000000000E+00 0. -1.
          2    1    1    2  501    0 -0.16952583994E+03  0.22215740816E+03 -0.59487950501E+03  0.65724770816E+03  0.00000000000E+00 0. -1.
<mgrwt>
<rscale>  4 0.30485406E+03</rscale>
<asrwt>0</asrwt>
<pdfrwt beam="1">  1       21 0.74586414E-01 0.30485406E+03</pdfrwt>
<pdfrwt beam="2">  1        2 0.10451840E+00 0.30485406E+03</pdfrwt>
<totfact> 0.83733132E+02</totfact>
</mgrwt>
</event>
<event>
 5    0  0.4930573E+000  0.2461567E+03  0.7546771E-02  0.1115758E+00
         21   -1    0    0  503  502  0.00000000000E+00  0.00000000000E+00  0.19789831122E+02  0.19789831122E+02  0.00000000000E+00 0.  1.
          2   -1    0    0  502    0 -0.00000000000E+00 -0.00000000000E+00 -0.35446974487E+04  0.35446974487E+04  0.00000000000E+00 0.  1.
         25    1    1    2    0    0 -0.22093119676E+03 -0.82510188989E+02 -0.16274895953E+04  0.16492319145E+04  0.12500000000E+03 0.  0.
         21    1    1    2  503  501  0.25370783910E+02  0.39844440010E+02 -0.17560658442E+03  0.18184864192E+03  0.00000000000E+00 0.  1.
          2    1    1    2  501    0  0.19556041285E+03  0.42665748978E+02 -0.17218114378E+04  0.17334067234E+04  0.00000000000E+00 0.  1.
<mgrwt>
<rscale>  4 0.24615666E+03</rscale>
<asrwt>0</asrwt>
<pdfrwt beam="1">  1       21 0.30445868E-02 0.24615666E+03</pdfrwt>
<pdfrwt beam="2">  1        2 0.54533853E+00 0.24615666E+03</pdfrwt>
<totfact> 0.75549078E+03</totfact>
</mgrwt>
</event>
<event>
 5    0  0.4930573E+000  0.2539872E+03  0.7546771E-02  0.1110811E+00
          1   -1    0    0  502    0 -0.00000000000E+00  0.00000000000E+00  0.49308425343E+03  0.49308425343E+03  0.00000000000E+00 0. -1.
         21   -1    0    0  503  502  0.00000000000E+00 -0.00000000000E+00 -0.14864625480E+03  0.14864625480E+03  0.00000000000E+00 0. -1.
         25    1    1    2    0    0  0.22100721637E+03  0.63481754948E+01  0.31414516634E+03  0.40397608166E+03  0.12500000000E+03 0.  0.
         21    1    1    2  503  501 -0.28082360640E+02  0.26074516444E+02 -0.59946859619E+01  0.38787055143E+02  0.00000000000E+00 0. -1.
          1    1    1    2  501    0 -0.19292485573E+03 -0.32422691939E+02  0.36287518248E+02  0.19896737142E+03  0.00000000000E+00 0. -1.
<mgrwt>
<rscale>  4 0.25398718E+03</rscale>
<asrwt>0</asrwt>
<pdfrwt beam="1">  1       21 0.22868655E-01 0.25398718E+03</pdfrwt>
<pdfrwt beam="2">  1        1 0.75859115E-01 0.25398718E+03</pdfrwt>
<totfact> 0.89940039E+03</totfact>
</mgrwt>
</event>
<event>
 5    0  0.4930573E+000  0.2455458E+03  0.7546771E-02  0.1116153E+00
          2   -1    0    0  502    0 -0.00000000000E+00  0.00000000000E+00  0.36853656384E+04  0.36853656384E+04  0.00000000000E+00 0.  1.
         21   -1    0    0  503  502  0.00000000000E+00 -0.00000000000E+00 -0.94560710951E+03  0.94560710951E+03  0.00000000000E+00 0. -1.
         25    1    1    2    0    0 -0.14374342904E+03 -0.20480002850E+03  0.54718650729E+03  0.61452689023E+03  0.12500000000E+03 0.  0.
         21    1    1    2  503  501  0.25698645033E+02  0.34330521084E+02 -0.90796802739E+03  0.90898016689E+03  0.00000000000E+00 0. -1.
          2    1    1    2  501    0  0.11804478401E+03  0.17046950741E+03  0.31005400490E+04  0.31074656907E+04  0.00000000000E+00 0.  1.
<mgrwt>
<rscale>  4 0.24554575E+03</rscale>
<asrwt>0</asrwt>
<pdfrwt beam="1">  1       21 0.14547802E+00 0.24554575E+03</pdfrwt>
<pdfrwt beam="2">  1        2 0.56697932E+00 0.24554575E+03</pdfrwt>
<totfact> 0.30368530E+00</totfact>
</mgrwt>
</event>
<event>
 5    0  0.4930573E+000  0.2370819E+03  0.7546771E-02  0.1121752E+00
          2   -1    0    0  502    0 -0.00000000000E+00  0.00000000000E+00  0.20933890802E+04  0.20933890802E+04  0.00000000000E+00 0. -1.
         21   -1    0    0  503  502  0.00000000000E+00 -0.00000000000E+00 -0.51384659583E+02  0.51384659583E+02  0.00000000000E+00 0. -1.
         25    1    1    2    0    0  0.20427593262E+03  0.65912965054E+01  0.34676921326E+03  0.42148071024E+03  0.12500000000E+03 0.  0.
         21    1    1    2  503  501 -0.14067336820E+02  0.62769130980E+02  0.13027410802E+03  0.14529004435E+03  0.00000000000E+00 0. -1.
          2    1    1    2  501    0 -0.19020859580E+03 -0.69360427485E+02  0.15649610993E+04  0.15780029852E+04  0.00000000000E+00 0. -1.
<mgrwt>
<rscale>  4 0.23708188E+03</rscale>
<asrwt>0</asrwt>
<pdfrwt beam="1">  1       21 0.79053339E-02 0.23708188E+03</pdfrwt>
<pdfrwt beam="2">  1        2 0.32205979E+00 0.23708188E+03</pdfrwt>
<totfact> 0.10367668E+04</totfact>
</mgrwt>
</event>
<event>
 5    0  0.4930573E+000  0.4331259E+03  0.7546771E-02  0.1032877E+00
         21   -1    0    0  503  502  0.00000000000E+00  0.00000000000E+00  0.52589031546E+03  0.52589031546E+03  0.00000000000E+00 0.  1.
          1   -1    0    0  502    0 -0.00000000000E+00 -0.00000000000E+00 -0.56986737808E+03  0.56986737808E+03  0.00000000000E+00 0. -1.
         25    1    1    2    0    0  0.29548939582E+03 -0.31486651871E+03  0.60408027990E+02  0.45357362963E+03  0.12500000000E+03 0.  0.
         21    1    1    2  503  501 -0.55163418970E+02 -0.15040908114E+02  0.15048633916E+03  0.16098251453E+03  0.00000000000E+00 0.  1.
          1    1    1    2  501    0 -0.24032597685E+03  0.32990742682E+03 -0.25487142976E+03  0.48120154939E+03  0.00000000000E+00 0. -1.
<mgrwt>
<rscale>  4 0.43312590E+03</rscale>
<asrwt>0</asrwt>
<pdfrwt beam="1">  1       21 0.80906203E-01 0.43312590E+03</pdfrwt>
<pdfrwt beam="2">  1        1 0.87671904E-01 0.43312590E+03</pdfrwt>
<totfact> 0.50966826E+02</totfact>
</mgrwt>
</event>
<event>
 5    0  0.4930573E+000  0.2213306E+03  0.7546771E-02  0.1132895E+00
         21   -1    0    0  503  502  0.00000000000E+00  0.00000000000E+00  0.60442626009E+02  0.60442626009E+02  0.00000000000E+00 0. -1.
          1   -1    0    0  502    0 -0.00000000000E+00 -0.00000000000E+00 -0.26919360850E+04  0.26919360850E+04  0.00000000000E+00 0.  1.
         25    1    1    2    0    0 -0.13521509309E+03  0.15088617045E+03 -0.26086387372E+03  0.35316386911E+03  0.12500000000E+03 0.  0.
         21    1    1    2  503  501 -0.30550998055E+02 -0.75034509259E+02 -0.14472533081E+03  0.16585826009E+03  0.00000000000E+00 0.  1.
          1    1    1    2  501    0  0.16576609114E+03 -0.75851661195E+02 -0.22259042545E+04  0.22333565818E+04  0.00000000000E+00 0.  1.
<mgrwt>
<rscale>  4 0.22133056E+03</rscale>
<asrwt>0</asrwt>
<pdfrwt beam="1">  1       21 0.92988649E-02 0.22133056E+03</pdfrwt>
<pdfrwt beam="2">  1        1 0.41414404E+00 0.22133056E+03</pdfrwt>
<totfact> 0.12350614E+03</totfact>
</mgrwt>
</event>
<event>
 5    0  0.4930573E+000  0.2431772E+03  0.7546771E-02  0.1117694E+00
          1   -1    0    0  502    0 -0.00000000000E+00  0.00000000000E+00  0.23495160733E+04  0.23495160733E+04  0.00000000000E+00 0. -1.
         21   -1    0    0  503  502  0.00000000000E+00 -0.00000000000E+00 -0.37049461802E+02  0.37049461802E+02  0.00000000000E+00 0.  1.
         25    1    1    2    0    0 -0.32211862284E+02  0.21951208685E+03  0.57068656920E+03  0.62492505200E+03  0.12500000000E+03 0.  0.
         21    1    1    2  503  501  0.22437298718E+02 -0.13995576609E+02  0.43247188266E+02  0.50691496637E+02  0.00000000000E+00 0.  1.
          1    1    1    2  501    0  0.97745635659E+01 -0.20551651025E+03  0.16985328541E+04  0.17109489865E+04  0.00000000000E+00 0. -1.
<mgrwt>
<rscale>  4 0.24317715E+03</rscale>
<asrwt>0</asrwt>
<pdfrwt beam="1">  1       21 0.56999190E-02 0.24317715E+03</pdfrwt>
<pdfrwt beam="2">  1        1 0.36146389E+00 0.24317715E+03</pdfrwt>
<totfact> 0.48298698E+03</totfact>
</mgrwt>
</event>
<event>
 5    0  0.4930573E+000  0.2282382E+03  0.7546771E-02  0.1127886E+00
         21   -1    0    0  503  502  0.00000000000E+00  0.00000000000E+00  0.45483676826E+02  0.45483676826E+02  0.00000000000E+00 0. -1.
          2   -1    0    0  502    0 -0.00000000000E+00 -0.00000000000E+00 -0.13704766393E+04  0.13704766393E+04  0.00000000000E+00 0. -1.
         25    1    1    2    0    0 -0.20192769472E+03  0.45057940439E+02 -0.42330325424E+03  0.48745836431E+03  0.12500000000E+03 0.  0.
         21    1    1    2  503  501  0.20558148458E+02 -0.33267388032E+01 -0.26297140857E+02  0.33544660922E+02  0.00000000000E+00 0. -1.
          2    1    1    2  501    0  0.18136954626E+03 -0.41731201636E+02 -0.87539256739E+03  0.89495729090E+03  0.00000000000E+00 0. -1.
<mgrwt>
<rscale>  4 0.22823821E+03</rscale>
<asrwt>0</asrwt>
<pdfrwt beam="1">  1       21 0.69974902E-02 0.22823821E+03</pdfrwt>
<pdfrwt beam="2">  1        2 0.21084252E+00 0.22823821E+03</pdfrwt>
<totfact> 0.30908802E+04</totfact>
</mgrwt>
</event>
<event>
 5    0  0.4930573E+000  0.6976929E+03  0.7546771E-02  0.9721186E-01
         21   -1    0    0  503  502  0.00000000000E+00  0.00000000000E+00  0.17086688519E+04  0.17086688519E+04  0.00000000000E+00 0.  1.
          2   -1    0    0  502    0 -0.00000000000E+00 -0.00000000000E+00 -0.38633942118E+03  0.38633942118E+03  0.00000000000E+00 0.  1.
         25    1    1    2    0    0  0.51636742840E+03 -0.49982058501E+03  0.89295970216E+03  0.11530212348E+04  0.12500000000E+03 0.  0.
         21    1    1    2  503  501 -0.15825561744E+02  0.50707755031E+02  0.23648950629E+03  0.24238195355E+03  0.00000000000E+00 0.  1.
          2    1    1    2  501    0 -0.50054186666E+03  0.44911282998E+03  0.19288022224E+03  0.69960508464E+03  0.00000000000E+00 0.  1.
<mgrwt>
<rscale>  4 0.69769290E+03</rscale>
<asrwt>0</asrwt>
<pdfrwt beam="1">  1       21 0.26287213E+00 0.69769290E+03</pdfrwt>
<pdfrwt beam="2">  1        2 0.59436835E-01 0.69769290E+03</pdfrwt>
<totfact> 0.43758112E+01</totfact>
</mgrwt>
</event>
<event>
 5    0  0.4930573E+000  0.2378509E+03  0.7546771E-02  0.1121233E+00
         21   -1    0    0  503  502  0.00000000000E+00  0.00000000000E+00  0.12211132781E+03  0.12211132781E+03  0.00000000000E+00 0.  1.
          2   -1    0    0  502    0 -0.00000000000E+00 -0.00000000000E+00 -0.15617998462E+04  0.15617998462E+04  0.00000000000E+00 0.  1.
         25    1    1    2    0    0 -0.21013981735E+03 -0.65591156113E+02 -0.89856257497E+03  0.93354198820E+03  0.12500000000E+03 0.  0.
         21    1    1    2  503  501  0.21405190132E+02  0.45550771095E+02  0.83527266469E+02  0.97518506734E+02  0.00000000000E+00 0.  1.
          2    1    1    2  501    0  0.18873462722E+03  0.20040385018E+02 -0.62465320987E+03  0.65285067906E+03  0.00000000000E+00 0.  1.
<mgrwt>
<rscale>  4 0.23785093E+03</rscale>
<asrwt>0</asrwt>
<pdfrwt beam="1">  1       21 0.18786358E-01 0.23785093E+03</pdfrwt>
<pdfrwt beam="2">  1        2 0.24027690E+00 0.23785093E+03</pdfrwt>
<totfact> 0.41384181E+03</totfact>
</mgrwt>
</event>
<event>
 5    0  0.4930573E+000  0.2495889E+03  0.7546771E-02  0.1113565E+00
          1   -1    0    0  502    0 -0.00000000000E+00  0.00000000000E+00  0.10033575856E+04  0.10033575856E+04  0.00000000000E+00 0.  1.
         21   -1    0    0  503  502  0.00000000000E+00 -0.00000000000E+00 -0.23891887753E+03  0.23891887753E+03  0.00000000000E+00 0.  1.
         25    1    1    2    0    0 -0.22225628086E+03  0.13221579140E+03  0.21319548279E+03  0.35770963610E+03  0.12500000000E+03 0.  0.
         21    1    1    2  503  501  0.81762062265E+02  0.22304117509E+02 -0.13934363265E+03  0.16309247819E+03  0.00000000000E+00 0.  1.
          1    1    1    2  501    0  0.14049421859E+03 -0.15451990891E+03  0.69058685797E+03  0.72147434889E+03  0.00000000000E+00 0.  1.
<mgrwt>
<rscale>  4 0.24958888E+03</rscale>
<asrwt>0</asrwt>
<pdfrwt beam="1">  1       21 0.36756751E-01 0.24958888E+03</pdfrwt>
<pdfrwt beam="2">  1        1 0.15436270E+00 0.24958888E+03</pdfrwt>
<totfact> 0.12402540E+03</totfact>
</mgrwt>
</event>
<event>
 5    0  0.4930573E+000  0.2971899E+03  0.7546771E-02  0.1086654E+00
         21   -1    0    0  501  502  0.00000000000E+00  0.00000000000E+00  0.30061806996E+03  0.30061806996E+03  0.00000000000E+00 0.  1.
         -3   -1    0    0    0  501 -0.00000000000E+00 -0.00000000000E+00 -0.45529020754E+03  0.45529020754E+03  0.00000000000E+00 0.  1.
         25    1    1    2    0    0 -0.61957331020E+02 -0.28307623348E+03 -0.11112323656E+03  0.33458069062E+03  0.12500000000E+03 0.  0.
         21    1    1    2  503  502 -0.30775313488E+02  0.42665320276E+02  0.10960286362E+03  0.12157399881E+03  0.00000000000E+00 0. -1.
         -3    1    1    2    0  503  0.92732644508E+02  0.24041091321E+03 -0.15315176463E+03  0.29975358806E+03  0.00000000000E+00 0.  1.
<mgrwt>
<rscale>  4 0.29718992E+03</rscale>
<asrwt>0</asrwt>
<pdfrwt beam="1">  1       21 0.46248934E-01 0.29718992E+03</pdfrwt>
<pdfrwt beam="2">  1       -3 0.70044647E-01 0.29718992E+03</pdfrwt>
<totfact> 0.43160866E+02</totfact>
</mgrwt>
</event>
<event>
 5    0  0.4930573E+000  0.2513167E+03  0.7546771E-02  0.1112475E+00
         21   -1    0    0  503  502  0.00000000000E+00  0.00000000000E+00  0.78749316472E+02  0.78749316472E+02  0.00000000000E+00 0.  1.
          2   -1    0    0  502    0 -0.00000000000E+00 -0.00000000000E+00 -0.17076046211E+04  0.17076046211E+04  0.00000000000E+00 0.  1.
         25    1    1    2    0    0 -0.24177143029E+03  0.70606841675E+02 -0.69269278734E+03  0.74758748533E+03  0.12500000000E+03 0.  0.
         21    1    1    2  503  501  0.37244232478E+02 -0.49514467955E+02  0.16540816730E+02  0.64128106223E+02  0.00000000000E+00 0.  1.
          2    1    1    2  501    0  0.20452719781E+03 -0.21092373720E+02 -0.95270333400E+03  0.97463834599E+03  0.00000000000E+00 0.  1.
<mgrwt>
<rscale>  4 0.25131675E+03</rscale>
<asrwt>0</asrwt>
<pdfrwt beam="1">  1       21 0.12115280E-01 0.25131675E+03</pdfrwt>
<pdfrwt beam="2">  1        2 0.26270839E+00 0.25131675E+03</pdfrwt>
<totfact> 0.77060092E+03</totfact>
</mgrwt>
</event>
<event>
 5    0  0.4930573E+000  0.2589660E+03  0.7546771E-02  0.1107766E+00
          2   -1    0    0  502    0 -0.00000000000E+00  0.00000000000E+00  0.13406641483E+04  0.13406641483E+04  0.00000000000E+00 0. -1.
         21   -1    0    0  503  502  0.00000000000E+00 -0.00000000000E+00 -0.77198018292E+03  0.77198018292E+03  0.00000000000E+00 0. -1.
         25    1    1    2    0    0 -0.19268827177E+03  0.59725504724E+02 -0.11696116864E+03  0.26457668258E+03  0.12500000000E+03 0.  0.
         21    1    1    2  503  501 -0.19962173206E+02  0.23005271149E+02 -0.57052735991E+03  0.57133982818E+03  0.00000000000E+00 0. -1.
          2    1    1    2  501    0  0.21265044498E+03 -0.82730775873E+02  0.12561724939E+04  0.12767278204E+04  0.00000000000E+00 0. -1.
<mgrwt>
<rscale>  4 0.25896605E+03</rscale>
<asrwt>0</asrwt>
<pdfrwt beam="1">  1       21 0.11876618E+00 0.25896605E+03</pdfrwt>
<pdfrwt beam="2">  1        2 0.20625602E+00 0.25896605E+03</pdfrwt>
<totfact> 0.10956529E+02</totfact>
</mgrwt>
</event>
<event>
 5    0  0.4930573E+000  0.2267070E+03  0.7546771E-02  0.1128979E+00
         21   -1    0    0  503  502  0.00000000000E+00  0.00000000000E+00  0.48830236312E+02  0.48830236312E+02  0.00000000000E+00 0.  1.
          2   -1    0    0  502    0 -0.00000000000E+00 -0.00000000000E+00 -0.13287751601E+04  0.13287751601E+04  0.00000000000E+00 0. -1.
         25    1    1    2    0    0  0.25033915621E+02  0.20731554338E+03 -0.77326738388E+03  0.81066261689E+03  0.12500000000E+03 0.  0.
         21    1    1    2  503  501 -0.20508740498E+02 -0.33431004295E+02 -0.96971781669E+01  0.40401432516E+02  0.00000000000E+00 0.  1.
          2    1    1    2  501    0 -0.45251751237E+01 -0.17388453909E+03 -0.49698036176E+03  0.52654134702E+03  0.00000000000E+00 0. -1.
<mgrwt>
<rscale>  4 0.22670698E+03</rscale>
<asrwt>0</asrwt>
<pdfrwt beam="1">  1       21 0.75123442E-02 0.22670698E+03</pdfrwt>
<pdfrwt beam="2">  1        2 0.20442694E+00 0.22670698E+03</pdfrwt>
<totfact> 0.28801040E+04</totfact>
</mgrwt>
</event>
<event>
 5    0  0.4930573E+000  0.4829022E+03  0.7546771E-02  0.1018341E+00
          2   -1    0    0  502    0 -0.00000000000E+00  0.00000000000E+00  0.71820853741E+03  0.71820853741E+03  0.00000000000E+00 0.  1.
         21   -1    0    0  503  502  0.00000000000E+00 -0.00000000000E+00 -0.58720060436E+03  0.58720060436E+03  0.00000000000E+00 0.  1.
         25    1    1    2    0    0  0.41960502131E+03  0.30871143202E+03 -0.43262368776E+02  0.53746418925E+03  0.12500000000E+03 0.  0.
         21    1    1    2  503  501 -0.46238178390E+02 -0.63955627337E+02 -0.18096085301E+03  0.19742117853E+03  0.00000000000E+00 0. -1.
          2    1    1    2  501    0 -0.37336684292E+03 -0.24475580469E+03  0.35523115484E+03  0.57052377399E+03  0.00000000000E+00 0.  1.
<mgrwt>
<rscale>  4 0.48290220E+03</rscale>
<asrwt>0</asrwt>
<pdfrwt beam="1">  1       21 0.90338554E-01 0.48290220E+03</pdfrwt>
<pdfrwt beam="2">  1        2 0.11049362E+00 0.48290220E+03</pdfrwt>
<totfact> 0.47504791E+02</totfact>
</mgrwt>
</event>
<event>
 5    0  0.4930573E+000  0.2356302E+03  0.7546771E-02  0.1122739E+00
         21   -1    0    0  503  502  0.00000000000E+00  0.00000000000E+00  0.26892012228E+03  0.26892012228E+03  0.00000000000E+00 0. -1.
          2   -1    0    0  502    0 -0.00000000000E+00 -0.00000000000E+00 -0.49385031444E+03  0.49385031444E+03  0.00000000000E+00 0.  1.
         25    1    1    2    0    0  0.20288585281E+03  0.98396418498E+01  0.89210724996E+02  0.25464296825E+03  0.12500000000E+03 0.  0.
         21    1    1    2  503  501 -0.44039569278E+01 -0.30477207588E+02  0.69319281895E+02  0.75851287804E+02  0.00000000000E+00 0. -1.
          2    1    1    2  501    0 -0.19848189588E+03  0.20637565738E+02 -0.38346019905E+03  0.43227618066E+03  0.00000000000E+00 0.  1.
<mgrwt>
<rscale>  4 0.23563017E+03</rscale>
<asrwt>0</asrwt>
<pdfrwt beam="1">  1       21 0.41372327E-01 0.23563017E+03</pdfrwt>
<pdfrwt beam="2">  1        2 0.75976971E-01 0.23563017E+03</pdfrwt>
<totfact> 0.43841721E+03</totfact>
</mgrwt>
</event>
<event>
 5    0  0.4930573E+000  0.3046598E+03  0.7546771E-02  0.1082934E+00
          2   -1    0    0  502    0 -0.00000000000E+00  0.00000000000E+00  0.12637115103E+04  0.12637115103E+04  0.00000000000E+00 0. -1.
         21   -1    0    0  503  502  0.00000000000E+00 -0.00000000000E+00 -0.14869331530E+03  0.14869331530E+03  0.00000000000E+00 0.  1.
         25    1    1    2    0    0  0.13509557234E+03 -0.20204838764E+03  0.78052225626E+02  0.28423848181E+03  0.12500000000E+03 0.  0.
         21    1    1    2  503  501  0.84610311702E+02  0.18392136884E+02  0.48897415636E+02  0.99439090911E+02  0.00000000000E+00 0.  1.
          2    1    1    2  501    0 -0.21970588404E+03  0.18365625076E+03  0.98806855374E+03  0.10287272529E+04  0.00000000000E+00 0. -1.
<mgrwt>
<rscale>  4 0.30465981E+03</rscale>
<asrwt>0</asrwt>
<pdfrwt beam="1">  1       21 0.22875896E-01 0.30465981E+03</pdfrwt>
<pdfrwt beam="2">  1        2 0.19441715E+00 0.30465981E+03</pdfrwt>
<totfact> 0.40498638E+03</totfact>
</mgrwt>
</event>
<event>
 5    0  0.4930573E+000  0.1934992E+03  0.7546771E-02  0.1155343E+00
         21   -1    0    0  503  502  0.00000000000E+00  0.00000000000E+00  0.51510204446E+03  0.51510204446E+03  0.00000000000E+00 0.  1.
          1   -1    0    0  502    0 -0.00000000000E+00 -0.00000000000E+00 -0.63106622430E+03  0.63106622430E+03  0.00000000000E+00 0. -1.
         25    1    1    2    0    0 -0.12203248217E+03  0.22513565833E+03 -0.42951223266E+03  0.51544519530E+03  0.12500000000E+03 0.  0.
         21    1    1    2  503  501  0.70673380236E+02 -0.12664780197E+03  0.43948726549E+03  0.46279957751E+03  0.00000000000E+00 0.  1.
          1    1    1    2  501    0  0.51359101933E+02 -0.98487856364E+02 -0.12593921267E+03  0.16792349595E+03  0.00000000000E+00 0. -1.
<mgrwt>
<rscale>  4 0.19349921E+03</rscale>
<asrwt>0</asrwt>
<pdfrwt beam="1">  1       21 0.79246468E-01 0.19349921E+03</pdfrwt>
<pdfrwt beam="2">  1        1 0.97087111E-01 0.19349921E+03</pdfrwt>
<totfact> 0.51107477E+02</totfact>
</mgrwt>
</event>
<event>
 5    0  0.4930573E+000  0.2948819E+03  0.7546771E-02  0.1087827E+00
          2   -1    0    0  502    0 -0.00000000000E+00  0.00000000000E+00  0.99054481595E+03  0.99054481595E+03  0.00000000000E+00 0. -1.
         21   -1    0    0  503  502  0.00000000000E+00 -0.00000000000E+00 -0.23199041430E+03  0.23199041430E+03  0.00000000000E+00 0.  1.
         25    1    1    2    0    0  0.17913344933E+03  0.15917445509E+03 -0.70486386085E+02  0.27931815274E+03  0.12500000000E+03 0.  0.
         21    1    1    2  503  501  0.34182806480E+02  0.69930711775E+01 -0.27870539375E+02  0.44655730522E+02  0.00000000000E+00 0.  1.
          2    1    1    2  501    0 -0.21331625581E+03 -0.16616752627E+03  0.85691132711E+03  0.89856134699E+03  0.00000000000E+00 0. -1.
<mgrwt>
<rscale>  4 0.29488188E+03</rscale>
<asrwt>0</asrwt>
<pdfrwt beam="1">  1       21 0.35690833E-01 0.29488188E+03</pdfrwt>
<pdfrwt beam="2">  1        2 0.15239151E+00 0.29488188E+03</pdfrwt>
<totfact> 0.24594667E+03</totfact>
</mgrwt>
</event>
<event>
 5    0  0.4930573E+000  0.2157205E+03  0.7546771E-02  0.1137114E+00
         21   -1    0    0  503  502  0.00000000000E+00  0.00000000000E+00  0.55189325902E+02  0.55189325902E+02  0.00000000000E+00 0. -1.
          2   -1    0    0  502    0 -0.00000000000E+00 -0.00000000000E+00 -0.14506094649E+04  0.14506094649E+04  0.00000000000E+00 0. -1.
         25    1    1    2    0    0 -0.44101258887E+02  0.20534789533E+03 -0.78086349835E+03  0.81822092506E+03  0.12500000000E+03 0.  0.
         21    1    1    2  503  501  0.13026904720E+02 -0.50821642192E+02  0.68248307257E+00  0.52469089423E+02  0.00000000000E+00 0. -1.
          2    1    1    2  501    0  0.31074354168E+02 -0.15452625314E+03 -0.61523912369E+03  0.63510877628E+03  0.00000000000E+00 0. -1.
<mgrwt>
<rscale>  4 0.21572050E+03</rscale>
<asrwt>0</asrwt>
<pdfrwt beam="1">  1       21 0.84906655E-02 0.21572050E+03</pdfrwt>
<pdfrwt beam="2">  1        2 0.22317069E+00 0.21572050E+03</pdfrwt>
<totfact> 0.20035191E+04</totfact>
</mgrwt>
</event>
<event>
 5    0  0.4930573E+000  0.2628239E+03  0.7546771E-02  0.1105458E+00
          2   -1    0    0  502    0 -0.00000000000E+00  0.00000000000E+00  0.26613199430E+04  0.26613199430E+04  0.00000000000E+00 0.  1.
         21   -1    0    0  503  502  0.00000000000E+00 -0.00000000000E+00 -0.14613934192E+03  0.14613934192E+03  0.00000000000E+00 0. -1.
         25    1    1    2    0    0  0.26212062522E+03  0.31150982877E+02  0.74742038068E+02  0.30147798950E+03  0.12500000000E+03 0.  0.
         21    1    1    2  503  501 -0.35210906499E+02  0.42538855369E+01 -0.15944400877E+02  0.38886082317E+02  0.00000000000E+00 0. -1.
          2    1    1    2  501    0 -0.22690971872E+03 -0.35404868414E+02  0.24563829639E+04  0.24670952131E+04  0.00000000000E+00 0.  1.
<mgrwt>
<rscale>  4 0.26282388E+03</rscale>
<asrwt>0</asrwt>
<pdfrwt beam="1">  1       21 0.22482978E-01 0.26282388E+03</pdfrwt>
<pdfrwt beam="2">  1        2 0.40943380E+00 0.26282388E+03</pdfrwt>
<totfact> 0.75542972E+02</totfact>
</mgrwt>
</event>
<event>
 5    0  0.4930573E+000  0.2094107E+03  0.7546771E-02  0.1142033E+00
          1   -1    0    0  502    0 -0.00000000000E+00  0.00000000000E+00  0.42436359268E+03  0.42436359268E+03  0.00000000000E+00 0. -1.
         21   -1    0    0  503  502  0.00000000000E+00 -0.00000000000E+00 -0.64552346662E+03  0.64552346662E+03  0.00000000000E+00 0.  1.
         25    1    1    2    0    0  0.29775609883E+03  0.39229367447E+02 -0.38827456488E+03  0.50653704247E+03  0.12500000000E+03 0.  0.
         21    1    1    2  503  501 -0.15126591133E+03  0.31650097609E+02 -0.14464467568E+03  0.21167235722E+03  0.00000000000E+00 0.  1.
          1    1    1    2  501    0 -0.14649018749E+03 -0.70879465055E+02  0.31175936662E+03  0.35167765961E+03  0.00000000000E+00 0. -1.
<mgrwt>
<rscale>  4 0.20941073E+03</rscale>
<asrwt>0</asrwt>
<pdfrwt beam="1">  1       21 0.99311303E-01 0.20941073E+03</pdfrwt>
<pdfrwt beam="2">  1        1 0.65286707E-01 0.20941073E+03</pdfrwt>
<totfact> 0.51034802E+02</totfact>
</mgrwt>
</event>
<event>
 5    0  0.4930573E+000  0.2229149E+03  0.7546771E-02  0.1131728E+00
         21   -1    0    0  503  502  0.00000000000E+00  0.00000000000E+00  0.25311210851E+03  0.25311210851E+03  0.00000000000E+00 0.  1.
          1   -1    0    0  502    0 -0.00000000000E+00 -0.00000000000E+00 -0.88897217446E+03  0.88897217446E+03  0.00000000000E+00 0. -1.
         25    1    1    2    0    0 -0.22526627519E+03 -0.46764906952E+02 -0.52684428800E+03  0.58832113259E+03  0.12500000000E+03 0.  0.
         21    1    1    2  503  501  0.72153977101E+02  0.13800339448E+02  0.19686034717E+03  0.21012054176E+03  0.00000000000E+00 0.  1.
          1    1    1    2  501    0  0.15311229809E+03  0.32964567504E+02 -0.30587612512E+03  0.34364260861E+03  0.00000000000E+00 0. -1.
<mgrwt>
<rscale>  4 0.22291486E+03</rscale>
<asrwt>0</asrwt>
<pdfrwt beam="1">  1       21 0.38940324E-01 0.22291486E+03</pdfrwt>
<pdfrwt beam="2">  1        1 0.13676495E+00 0.22291486E+03</pdfrwt>
<totfact> 0.13674897E+03</totfact>
</mgrwt>
</event>
<event>
 5    0  0.4930573E+000  0.2801593E+03  0.7546771E-02  0.1095602E+00
         21   -1    0    0  503  502  0.00000000000E+00  0.00000000000E+00  0.26047162817E+03  0.26047162817E+03  0.00000000000E+00 0. -1.
          2   -1    0    0  502    0 -0.00000000000E+00 -0.00000000000E+00 -0.10563894381E+04  0.10563894381E+04  0.00000000000E+00 0.  1.
         25    1    1    2    0    0  0.21472854707E+02 -0.20567232727E+03  0.15954456071E+03  0.28955423766E+03  0.12500000000E+03 0.  0.
         21    1    1    2  503  501 -0.70903255097E+01 -0.47949853900E+02 -0.11576106012E+02  0.49834400119E+02  0.00000000000E+00 0. -1.
          2    1    1    2  501    0 -0.14382529198E+02  0.25362218117E+03 -0.94388626461E+03  0.97747242848E+03  0.00000000000E+00 0.  1.
<mgrwt>
<rscale>  4 0.28015932E+03</rscale>
<asrwt>0</asrwt>
<pdfrwt beam="1">  1       21 0.40072559E-01 0.28015932E+03</pdfrwt>
<pdfrwt beam="2">  1        2 0.16252145E+00 0.28015932E+03</pdfrwt>
<totfact> 0.17828323E+03</totfact>
</mgrwt>
</event>
<event>
 5    0  0.4930573E+000  0.2674286E+03  0.7546771E-02  0.1102760E+00
          2   -1    0    0  502    0 -0.00000000000E+00  0.00000000000E+00  0.60831014034E+03  0.60831014034E+03  0.00000000000E+00 0. -1.
         21   -1    0    0  503  502  0.00000000000E+00 -0.00000000000E+00 -0.25193836994E+03  0.25193836994E+03  0.00000000000E+00 0. -1.
         25    1    1    2    0    0  0.16512625302E+03 -0.12654780297E+03  0.59720113806E+02  0.24994502969E+03  0.12500000000E+03 0.  0.
         21    1    1    2  503  501  0.13718919387E+02 -0.43610429832E+02 -0.11866122352E+03  0.12716353371E+03  0.00000000000E+00 0. -1.
          2    1    1    2  501    0 -0.17884517241E+03  0.17015823280E+03  0.41531288011E+03  0.48313994688E+03  0.00000000000E+00 0. -1.
<mgrwt>
<rscale>  4 0.26742863E+03</rscale>
<asrwt>0</asrwt>
<pdfrwt beam="1">  1       21 0.38759749E-01 0.26742863E+03</pdfrwt>
<pdfrwt beam="2">  1        2 0.93586175E-01 0.26742863E+03</pdfrwt>
<totfact> 0.39089579E+03</totfact>
</mgrwt>
</event>
<event>
 5    0  0.4930573E+000  0.2370446E+03  0.7546771E-02  0.1121777E+00
         21   -1    0    0  503  502  0.00000000000E+00  0.00000000000E+00  0.16000985259E+04  0.16000985259E+04  0.00000000000E+00 0.  1.
          2   -1    0    0  502    0 -0.00000000000E+00 -0.00000000000E+00 -0.77365772354E+03  0.77365772354E+03  0.00000000000E+00 0.  1.
         25    1    1    2    0    0  0.15507245818E+03 -0.15440957643E+03  0.14888477093E+04  0.15100272468E+04  0.12500000000E+03 0.  0.
         21    1    1    2  503  501  0.23756145416E+02  0.61896250556E+02  0.74548470644E+02  0.99764596693E+02  0.00000000000E+00 0.  1.
          2    1    1    2  501    0 -0.17882860360E+03  0.92513325877E+02 -0.73695537761E+03  0.76396440592E+03  0.00000000000E+00 0.  1.
<mgrwt>
<rscale>  4 0.23704455E+03</rscale>
<asrwt>0</asrwt>
<pdfrwt beam="1">  1       21 0.24616900E+00 0.23704455E+03</pdfrwt>
<pdfrwt beam="2">  1        2 0.11902427E+00 0.23704455E+03</pdfrwt>
<totfact> 0.31163985E+01</totfact>
</mgrwt>
</event>
<event>
 5    0  0.4930573E+000  0.2714852E+03  0.7546771E-02  0.1100433E+00
          2   -1    0    0  502    0 -0.00000000000E+00  0.00000000000E+00  0.10397834240E+04  0.10397834240E+04  0.00000000000E+00 0.  1.
         21   -1    0    0  503  502  0.00000000000E+00 -0.00000000000E+00 -0.15875769487E+03  0.15875769487E+03  0.00000000000E+00 0.  1.
         25    1    1    2    0    0 -0.74878921957E+02 -0.21971996812E+03  0.61106465454E+03  0.66551388368E+03  0.12500000000E+03 0.  0.
         21    1    1    2  503  501  0.10153487043E+02 -0.26503523113E+02 -0.88736207048E+02  0.93164609578E+02  0.00000000000E+00 0.  1.
          2    1    1    2  501    0  0.64725434914E+02  0.24622349123E+03  0.35869728169E+03  0.43986262566E+03  0.00000000000E+00 0.  1.
<mgrwt>
<rscale>  4 0.27148520E+03</rscale>
<asrwt>0</asrwt>
<pdfrwt beam="1">  1       21 0.24424261E-01 0.27148520E+03</pdfrwt>
<pdfrwt beam="2">  1        2 0.15996668E+00 0.27148520E+03</pdfrwt>
<totfact> 0.48679496E+03</totfact>
</mgrwt>
</event>
<event>
 5    0  0.4930573E+000  0.2874490E+03  0.7546771E-02  0.1091689E+00
          2   -1    0    0  502    0 -0.00000000000E+00  0.00000000000E+00  0.12798209473E+04  0.12798209473E+04  0.00000000000E+00 0. -1.
         21   -1    0    0  503  502  0.00000000000E+00 -0.00000000000E+00 -0.23513718882E+03  0.23513718882E+03  0.00000000000E+00 0.  1.
         25    1    1    2    0    0  0.14503851320E+03 -0.17119356425E+03  0.28290075804E+03  0.38210109349E+03  0.12500000000E+03 0.  0.
         21    1    1    2  503  501  0.12908408522E+03  0.87307376278E+02 -0.12570553397E+03  0.20021778213E+03  0.00000000000E+00 0.  1.
          2    1    1    2  501    0 -0.27412259842E+03  0.83886187969E+02  0.88748853441E+03  0.93263926048E+03  0.00000000000E+00 0. -1.
<mgrwt>
<rscale>  4 0.28744905E+03</rscale>
<asrwt>0</asrwt>
<pdfrwt beam="1">  1       21 0.36174953E-01 0.28744905E+03</pdfrwt>
<pdfrwt beam="2">  1        2 0.19689553E+00 0.28744905E+03</pdfrwt>
<totfact> 0.16248836E+03</totfact>
</mgrwt>
</event>
<event>
 5    0  0.4930573E+000  0.2104497E+03  0.7546771E-02  0.1141210E+00
          1   -1    0    0  502    0 -0.00000000000E+00  0.00000000000E+00  0.17671950118E+04  0.17671950118E+04  0.00000000000E+00 0. -1.
         21   -1    0    0  503  502  0.00000000000E+00 -0.00000000000E+00 -0.11836866251E+03  0.11836866251E+03  0.00000000000E+00 0.  1.
         25    1    1    2    0    0 -0.20536471558E+03 -0.51498942208E+02  0.31626966804E+03  0.40059744181E+03  0.12500000000E+03 0.  0.
         21    1    1    2  503  501  0.47448684369E+02  0.55581290095E+01 -0.63383746192E+02  0.79371088740E+02  0.00000000000E+00 0.  1.
          1    1    1    2  501    0  0.15791603122E+03  0.45940813199E+02  0.13959404274E+04  0.14055951438E+04  0.00000000000E+00 0. -1.
<mgrwt>
<rscale>  4 0.21044965E+03</rscale>
<asrwt>0</asrwt>
<pdfrwt beam="1">  1       21 0.18210565E-01 0.21044965E+03</pdfrwt>
<pdfrwt beam="2">  1        1 0.27187614E+00 0.21044965E+03</pdfrwt>
<totfact> 0.14826854E+03</totfact>
</mgrwt>
</event>
<event>
 5    0  0.4930573E+000  0.2245073E+03  0.7546771E-02  0.1130567E+00
         21   -1    0    0  503  502  0.00000000000E+00  0.00000000000E+00  0.55747951145E+02  0.55747951145E+02  0.00000000000E+00 0.  1.
          1   -1    0    0  502    0 -0.00000000000E+00 -0.00000000000E+00 -0.14732233570E+04  0.14732233570E+04  0.00000000000E+00 0. -1.
         25    1    1    2    0    0  0.20062605353E+03  0.12045465268E+03 -0.58452821354E+03  0.64191772770E+03  0.12500000000E+03 0.  0.
         21    1    1    2  503  501 -0.60891531021E+02 -0.21078382764E+02 -0.40141459046E+02  0.75917148948E+02  0.00000000000E+00 0.  1.
          1    1    1    2  501    0 -0.13973452251E+03 -0.99376269919E+02 -0.79280573325E+03  0.81113643148E+03  0.00000000000E+00 0. -1.
<mgrwt>
<rscale>  4 0.22450729E+03</rscale>
<asrwt>0</asrwt>
<pdfrwt beam="1">  1       21 0.85766082E-02 0.22450729E+03</pdfrwt>
<pdfrwt beam="2">  1        1 0.22664974E+00 0.22450729E+03</pdfrwt>
<totfact> 0.88988404E+03</totfact>
</mgrwt>
</event>
<event>
 5    0  0.4930573E+000  0.2423711E+03  0.7546771E-02  0.1118223E+00
         -3   -1    0    0    0  501 -0.00000000000E+00  0.00000000000E+00  0.22577938530E+04  0.22577938530E+04  0.00000000000E+00 0. -1.
         21   -1    0    0  501  502  0.00000000000E+00 -0.00000000000E+00 -0.31633068713E+02  0.31633068713E+02  0.00000000000E+00 0. -1.
         25    1    1    2    0    0 -0.19570351487E+03 -0.74695808275E+02  0.16102512920E+04  0.16286232078E+04  0.12500000000E+03 0.  0.
         21    1    1    2  503  502  0.14842351166E+02 -0.22425639020E+02  0.31673762644E+02  0.41550353953E+02  0.00000000000E+00 0.  1.
         -3    1    1    2    0  503  0.18086116371E+03  0.97121447296E+02  0.58423572962E+03  0.61925335996E+03  0.00000000000E+00 0. -1.
<mgrwt>
<rscale>  4 0.24237106E+03</rscale>
<asrwt>0</asrwt>
<pdfrwt beam="1">  1       21 0.48666277E-02 0.24237106E+03</pdfrwt>
<pdfrwt beam="2">  1       -3 0.34735277E+00 0.24237106E+03</pdfrwt>
<totfact> 0.34353978E+02</totfact>
</mgrwt>
</event>
<event>
 5    0  0.4930573E+000  0.2186815E+03  0.7546771E-02  0.1134870E+00
         21   -1    0    0  503  502  0.00000000000E+00  0.00000000000E+00  0.66348199373E+02  0.66348199373E+02  0.00000000000E+00 0. -1.
          2   -1    0    0  502    0 -0.00000000000E+00 -0.00000000000E+00 -0.14547440226E+04  0.14547440226E+04  0.00000000000E+00 0. -1.
         25    1    1    2    0    0  0.16075779543E+03  0.18312964644E+03 -0.33602827915E+03  0.43349687494E+03  0.12500000000E+03 0.  0.
         21    1    1    2  503  501 -0.45295670927E+02 -0.59330848441E+02 -0.13072995790E+03  0.15053959370E+03  0.00000000000E+00 0. -1.
          2    1    1    2  501    0 -0.11546212450E+03 -0.12379879800E+03 -0.92163758618E+03  0.93705575332E+03  0.00000000000E+00 0. -1.
<mgrwt>
<rscale>  4 0.21868150E+03</rscale>
<asrwt>0</asrwt>
<pdfrwt beam="1">  1       21 0.10207416E-01 0.21868150E+03</pdfrwt>
<pdfrwt beam="2">  1        2 0.22380676E+00 0.21868150E+03</pdfrwt>
<totfact> 0.14395479E+04</totfact>
</mgrwt>
</event>
<event>
 5    0  0.4930573E+000  0.1924608E+03  0.7546771E-02  0.1156260E+00
         21   -1    0    0  501  502  0.00000000000E+00  0.00000000000E+00  0.35872303485E+03  0.35872303485E+03  0.00000000000E+00 0.  1.
         -3   -1    0    0    0  501 -0.00000000000E+00 -0.00000000000E+00 -0.33993123710E+03  0.33993123710E+03  0.00000000000E+00 0.  1.
         25    1    1    2    0    0 -0.17559451548E+03 -0.10249333600E+03  0.15830901337E+03  0.28640017721E+03  0.12500000000E+03 0.  0.
         21    1    1    2  503  502  0.89724791132E+02 -0.11284300256E+02  0.99189675553E+02  0.13422542722E+03  0.00000000000E+00 0.  1.
         -3    1    1    2    0  503  0.85869724348E+02  0.11377763626E+03 -0.23870689118E+03  0.27802866753E+03  0.00000000000E+00 0.  1.
<mgrwt>
<rscale>  4 0.19246077E+03</rscale>
<asrwt>0</asrwt>
<pdfrwt beam="1">  1       21 0.55188159E-01 0.19246077E+03</pdfrwt>
<pdfrwt beam="2">  1       -3 0.52297113E-01 0.19246077E+03</pdfrwt>
<totfact> 0.55784867E+02</totfact>
</mgrwt>
</event>
<event>
 5    0  0.4930573E+000  0.2792237E+03  0.7546771E-02  0.1096114E+00
          2   -1    0    0  502    0 -0.00000000000E+00  0.00000000000E+00  0.88704228526E+03  0.88704228526E+03  0.00000000000E+00 0.  1.
         21   -1    0    0  503  502  0.00000000000E+00 -0.00000000000E+00 -0.17389079235E+03  0.17389079235E+03  0.00000000000E+00 0.  1.
         25    1    1    2    0    0 -0.20248121894E+03 -0.18685572637E+03  0.61532236607E+03  0.68568237595E+03  0.12500000000E+03 0.  0.
         21    1    1    2  503  501  0.18499998263E+03  0.16112382576E+03 -0.26809467817E+02  0.24678863095E+03  0.00000000000E+00 0.  1.
          2    1    1    2  501    0  0.17481236307E+02  0.25731900610E+02  0.12463859466E+03  0.12846207071E+03  0.00000000000E+00 0.  1.
<mgrwt>
<rscale>  4 0.27922369E+03</rscale>
<asrwt>0</asrwt>
<pdfrwt beam="1">  1       21 0.26752430E-01 0.27922369E+03</pdfrwt>
<pdfrwt beam="2">  1        2 0.13646804E+00 0.27922369E+03</pdfrwt>
<totfact> 0.50807386E+03</totfact>
</mgrwt>
</event>
<event>
 5    0  0.4930573E+000  0.2078374E+03  0.7546771E-02  0.1143290E+00
          1   -1    0    0  502    0 -0.00000000000E+00  0.00000000000E+00  0.10757138120E+04  0.10757138120E+04  0.00000000000E+00 0. -1.
         21   -1    0    0  503  502  0.00000000000E+00 -0.00000000000E+00 -0.73644517641E+02  0.73644517641E+02  0.00000000000E+00 0. -1.
         25    1    1    2    0    0  0.19917203810E+03 -0.74367028174E+02  0.23000836736E+03  0.33723701560E+03  0.12500000000E+03 0.  0.
         21    1    1    2  503  501 -0.56416830634E+02  0.52710224779E+01  0.59659144454E+02  0.82279134498E+02  0.00000000000E+00 0.  1.
          1    1    1    2  501    0 -0.14275520746E+03  0.69096005696E+02  0.71240178260E+03  0.72984217959E+03  0.00000000000E+00 0. -1.
<mgrwt>
<rscale>  4 0.20783741E+03</rscale>
<asrwt>0</asrwt>
<pdfrwt beam="1">  1       21 0.11329927E-01 0.20783741E+03</pdfrwt>
<pdfrwt beam="2">  1        1 0.16549442E+00 0.20783741E+03</pdfrwt>
<totfact> 0.10242466E+04</totfact>
</mgrwt>
</event>
<event>
 5    0  0.4930573E+000  0.2557361E+03  0.7546771E-02  0.1109732E+00
         -2   -1    0    0    0  501 -0.00000000000E+00  0.00000000000E+00  0.43927817066E+03  0.43927817066E+03  0.00000000000E+00 0.  1.
         21   -1    0    0  501  502  0.00000000000E+00 -0.00000000000E+00 -0.42874244571E+03  0.42874244571E+03  0.00000000000E+00 0.  1.
         25    1    1    2    0    0 -0.16425444912E+03 -0.15289515628E+03 -0.15785417714E+03  0.30149526383E+03  0.12500000000E+03 0.  0.
         21    1    1    2  503  502 -0.19851191909E+02  0.26650966626E+02 -0.16333593188E+03  0.16668224406E+03  0.00000000000E+00 0.  1.
         -2    1    1    2    0  503  0.18410564103E+03  0.12624418965E+03  0.33172583397E+03  0.39984310849E+03  0.00000000000E+00 0.  1.
<mgrwt>
<rscale>  4 0.25573609E+03</rscale>
<asrwt>0</asrwt>
<pdfrwt beam="1">  1       21 0.65960377E-01 0.25573609E+03</pdfrwt>
<pdfrwt beam="2">  1       -2 0.67581257E-01 0.25573609E+03</pdfrwt>
<totfact> 0.34478031E+02</totfact>
</mgrwt>
</event>
<event>
 5    0  0.4930573E+000  0.2533363E+03  0.7546771E-02  0.1111214E+00
         -4   -1    0    0    0  501 -0.00000000000E+00  0.00000000000E+00  0.16856236244E+03  0.16856236244E+03  0.00000000000E+00 0.  1.
         21   -1    0    0  501  502  0.00000000000E+00 -0.00000000000E+00 -0.53947412137E+03  0.53947412137E+03  0.00000000000E+00 0.  1.
         25    1    1    2    0    0  0.16678811183E+03  0.12673369024E+03 -0.18663678509E+02  0.24464880009E+03  0.12500000000E+03 0.  0.
         21    1    1    2  503  502  0.51046605894E+02 -0.43957100741E+01 -0.61211243771E+02  0.79824148003E+02  0.00000000000E+00 0.  1.
         -4    1    1    2    0  503 -0.21783471772E+03 -0.12233798017E+03 -0.29103683665E+03  0.38356353571E+03  0.00000000000E+00 0.  1.
<mgrwt>
<rscale>  4 0.25333630E+03</rscale>
<asrwt>0</asrwt>
<pdfrwt beam="1">  1       21 0.82996019E-01 0.25333630E+03</pdfrwt>
<pdfrwt beam="2">  1       -4 0.25932671E-01 0.25333630E+03</pdfrwt>
<totfact> 0.74119423E+02</totfact>
</mgrwt>
</event>
<event>
 5    0  0.4930573E+000  0.2590751E+03  0.7546771E-02  0.1107700E+00
         -1   -1    0    0    0  501 -0.00000000000E+00  0.00000000000E+00  0.78382975971E+03  0.78382975971E+03  0.00000000000E+00 0.  1.
         21   -1    0    0  501  502  0.00000000000E+00 -0.00000000000E+00 -0.43571575220E+03  0.43571575220E+03  0.00000000000E+00 0. -1.
         25    1    1    2    0    0 -0.19062578774E+03  0.17433679972E+03  0.66036642580E+03  0.72002800433E+03  0.12500000000E+03 0.  0.
         21    1    1    2  503  502  0.81815453157E+02 -0.65320901975E+02 -0.32836479346E+03  0.34465058566E+03  0.00000000000E+00 0. -1.
         -1    1    1    2    0  503  0.10881033458E+03 -0.10901589775E+03  0.16112375163E+02  0.15486692193E+03  0.00000000000E+00 0.  1.
<mgrwt>
<rscale>  4 0.25907513E+03</rscale>
<asrwt>0</asrwt>
<pdfrwt beam="1">  1       21 0.67033193E-01 0.25907513E+03</pdfrwt>
<pdfrwt beam="2">  1       -1 0.12058919E+00 0.25907513E+03</pdfrwt>
<totfact> 0.12072743E+02</totfact>
</mgrwt>
</event>
<event>
 5    0  0.4930573E+000  0.3116423E+03  0.7546771E-02  0.1079561E+00
         21   -1    0    0  503  502  0.00000000000E+00  0.00000000000E+00  0.86316268337E+03  0.86316268337E+03  0.00000000000E+00 0. -1.
          2   -1    0    0  502    0 -0.00000000000E+00 -0.00000000000E+00 -0.69340565205E+03  0.69340565205E+03  0.00000000000E+00 0. -1.
         25    1    1    2    0    0 -0.24711363378E+03  0.64311251616E+02  0.76027034677E+03  0.81168780037E+03  0.12500000000E+03 0.  0.
         21    1    1    2  503  501 -0.72849967111E+01  0.68461763707E+02  0.18804974896E+02  0.71370241332E+02  0.00000000000E+00 0. -1.
          2    1    1    2  501    0  0.25439863049E+03 -0.13277301532E+03 -0.60931829035E+03  0.67351029372E+03  0.00000000000E+00 0. -1.
<mgrwt>
<rscale>  4 0.31164235E+03</rscale>
<asrwt>0</asrwt>
<pdfrwt beam="1">  1       21 0.13279426E+00 0.31164235E+03</pdfrwt>
<pdfrwt beam="2">  1        2 0.10667779E+00 0.31164235E+03</pdfrwt>
<totfact> 0.20330126E+02</totfact>
</mgrwt>
</event>
