<event>
 5    0  0.1856407E+000  0.2738668E+03  0.7546771E-02  0.1099087E+00
         21   -1    0    0  502  501  0.00000000000E+00  0.00000000000E+00  0.85962980116E+02  0.85962980116E+02  0.00000000000E+00 0.  1.
         21   -1    0    0  503  502 -0.00000000000E+00 -0.00000000000E+00 -0.12113350147E+04  0.12113350147E+04  0.00000000000E+00 0.  1.
         25    1    1    2    0    0 -0.10879626936E+03  0.21803991118E+03 -0.19853349630E+03  0.33825815621E+03  0.12500000000E+03 0.  0.
         21    1    1    2  503  504  0.10487731174E+03 -0.18397688325E+03 -0.81494369038E+03  0.84200947891E+03  0.00000000000E+00 0.  1.
         21    1    1    2  504  501  0.39189576136E+01 -0.34063027931E+02 -0.11189484787E+03  0.11703035965E+03  0.00000000000E+00 0.  1.
<mgrwt>
<rscale>  4 0.27386681E+03</rscale>
<asrwt>0</asrwt>
<pdfrwt beam="1">  1       21 0.13225074E-01 0.27386681E+03</pdfrwt>
<pdfrwt beam="2">  1       21 0.18635924E+00 0.27386681E+03</pdfrwt>
<totfact> 0.76610271E+03</totfact>
</mgrwt>
</event>
<event>
 5    0  0.2619918E+000  0.2516069E+03  0.7546771E-02  0.1112293E+00
         21   -1    0    0  502  501  0.00000000000E+00  0.00000000000E+00  0.19022281838E+04  0.19022281838E+04  0.00000000000E+00 0.  1.
         21   -1    0    0  503  502 -0.00000000000E+00 -0.00000000000E+00 -0.79424077709E+02  0.79424077709E+02  0.00000000000E+00 0.  1.
         25    1    1    2    0    0 -0.15429911373E+03  0.15450831847E+03  0.17157276874E+04  0.17340782953E+04  0.12500000000E+03 0.  0.
         21    1    1    2  503  504  0.44493880435E+01 -0.20594172963E+02  0.18157348978E+02  0.27813779605E+02  0.00000000000E+00 0.  1.
         21    1    1    2  504  501  0.14984972569E+03 -0.13391414551E+03  0.88919069741E+02  0.21976018662E+03  0.00000000000E+00 0.  1.
<mgrwt>
<rscale>  4 0.25160691E+03</rscale>
<asrwt>0</asrwt>
<pdfrwt beam="1">  1       21 0.29265046E+00 0.25160691E+03</pdfrwt>
<pdfrwt beam="2">  1       21 0.12219090E-01 0.25160691E+03</pdfrwt>
<totfact> 0.20038224E+03</totfact>
</mgrwt>
</event>
<event>
 5    0  0.1856407E+000  0.2431890E+03  0.7546771E-02  0.1117686E+00
         21   -1    0    0  502  501  0.00000000000E+00  0.00000000000E+00  0.99712426240E+02  0.99712426240E+02  0.00000000000E+00 0. -1.
         21   -1    0    0  503  502 -0.00000000000E+00 -0.00000000000E+00 -0.14657737509E+04  0.14657737509E+04  0.00000000000E+00 0. -1.
         25    1    1    2    0    0 -0.20267622461E+03 -0.22168696378E+02 -0.91204311563E+02  0.25595376452E+03  0.12500000000E+03 0.  0.
         21    1    1    2  503  504  0.23807258491E+03 -0.23494834868E+02 -0.95561047816E+03  0.98509996900E+03  0.00000000000E+00 0. -1.
         21    1    1    2  504  501 -0.35396360294E+02  0.45663531247E+02 -0.31924653493E+03  0.32443244362E+03  0.00000000000E+00 0. -1.
<mgrwt>
<rscale>  4 0.24318901E+03</rscale>
<asrwt>0</asrwt>
<pdfrwt beam="1">  1       21 0.15340375E-01 0.24318901E+03</pdfrwt>
<pdfrwt beam="2">  1       21 0.22550363E+00 0.24318901E+03</pdfrwt>
<totfact> 0.33450204E+03</totfact>
</mgrwt>
</event>
<event>
 5    0  0.1856407E+000  0.3851687E+03  0.7546771E-02  0.1049040E+00
         21   -1    0    0  502  501  0.00000000000E+00  0.00000000000E+00  0.30588974760E+03  0.30588974760E+03  0.00000000000E+00 0. -1.
         21   -1    0    0  503  502 -0.00000000000E+00 -0.00000000000E+00 -0.59517779670E+03  0.59517779670E+03  0.00000000000E+00 0. -1.
         25    1    1    2    0    0  0.28679579366E+03  0.22467327259E+03  0.59938925168E+02  0.38980454260E+03  0.12500000000E+03 0.  0.
         21    1    1    2  503  504 -0.15596157498E+03 -0.75051727944E+02 -0.18599542785E+03  0.25406903376E+03  0.00000000000E+00 0. -1.
         21    1    1    2  504  501 -0.13083421869E+03 -0.14962154464E+03 -0.16323154641E+03  0.25719396794E+03  0.00000000000E+00 0. -1.
<mgrwt>
<rscale>  4 0.38516867E+03</rscale>
<asrwt>0</asrwt>
<pdfrwt beam="1">  1       21 0.47059961E-01 0.38516867E+03</pdfrwt>
<pdfrwt beam="2">  1       21 0.91565815E-01 0.38516867E+03</pdfrwt>
<totfact> 0.39068349E+03</totfact>
</mgrwt>
</event>
<event>
 5    0  0.1856407E+000  0.2354735E+03  0.7546771E-02  0.1122846E+00
         21   -1    0    0  502  501  0.00000000000E+00  0.00000000000E+00  0.98303823375E+03  0.98303823375E+03  0.00000000000E+00 0. -1.
         21   -1    0    0  503  502 -0.00000000000E+00 -0.00000000000E+00 -0.13417479158E+03  0.13417479158E+03  0.00000000000E+00 0. -1.
         25    1    1    2    0    0  0.20766351587E+03 -0.38907652462E+01  0.62384687334E+03  0.66929006810E+03  0.12500000000E+03 0.  0.
         21    1    1    2  503  504 -0.19209343106E+03 -0.53811096024E+02 -0.15502535445E+02  0.20008960222E+03  0.00000000000E+00 0. -1.
         21    1    1    2  504  501 -0.15570084816E+02  0.57701861270E+02  0.24051910427E+03  0.24783335501E+03  0.00000000000E+00 0. -1.
<mgrwt>
<rscale>  4 0.23547346E+03</rscale>
<asrwt>0</asrwt>
<pdfrwt beam="1">  1       21 0.15123665E+00 0.23547346E+03</pdfrwt>
<pdfrwt beam="2">  1       21 0.20642276E-01 0.23547346E+03</pdfrwt>
<totfact> 0.61597902E+03</totfact>
</mgrwt>
</event>
<event>
 5    0  0.2875752E+000  0.2839415E+03  0.7546771E-02  0.1093555E+00
         21   -1    0    0  502  501  0.00000000000E+00  0.00000000000E+00  0.24384217216E+03  0.24384217216E+03  0.00000000000E+00 0. -1.
         21   -1    0    0  503  502 -0.00000000000E+00 -0.00000000000E+00 -0.54839487692E+03  0.54839487692E+03  0.00000000000E+00 0.  1.
         25    1    1    2    0    0 -0.25131856806E+03  0.42857045926E+02  0.10883204466E+03  0.30408413799E+03  0.12500000000E+03 0.  0.
         21    1    1    2  503  504  0.21826636272E+03 -0.53768043752E+02 -0.36041954322E+03  0.42477459288E+03  0.00000000000E+00 0.  1.
         21    1    1    2  504  501  0.33052205333E+02  0.10910997825E+02 -0.52965206193E+02  0.63378318201E+02  0.00000000000E+00 0.  1.
<mgrwt>
<rscale>  4 0.28394145E+03</rscale>
<asrwt>0</asrwt>
<pdfrwt beam="1">  1       21 0.37514181E-01 0.28394145E+03</pdfrwt>
<pdfrwt beam="2">  1       21 0.84368442E-01 0.28394145E+03</pdfrwt>
<totfact> 0.78999525E+03</totfact>
</mgrwt>
</event>
<event>
 5    0  0.1856407E+000  0.2414564E+03  0.7546771E-02  0.1118826E+00
         21   -1    0    0  502  501  0.00000000000E+00  0.00000000000E+00  0.26035485684E+03  0.26035485684E+03  0.00000000000E+00 0.  1.
         21   -1    0    0  503  502 -0.00000000000E+00 -0.00000000000E+00 -0.72816850460E+03  0.72816850460E+03  0.00000000000E+00 0.  1.
         25    1    1    2    0    0 -0.16044096434E+03 -0.12906342638E+03  0.17596346411E+03  0.29830657346E+03  0.12500000000E+03 0.  0.
         21    1    1    2  503  504  0.18282054400E+03  0.11309140694E+03 -0.60934864777E+03  0.64615694082E+03  0.00000000000E+00 0.  1.
         21    1    1    2  504  501 -0.22379579655E+02  0.15972019443E+02 -0.34428464097E+02  0.44059847148E+02  0.00000000000E+00 0.  1.
<mgrwt>
<rscale>  4 0.24145640E+03</rscale>
<asrwt>0</asrwt>
<pdfrwt beam="1">  1       21 0.40054593E-01 0.24145640E+03</pdfrwt>
<pdfrwt beam="2">  1       21 0.11202592E+00 0.24145640E+03</pdfrwt>
<totfact> 0.36146230E+03</totfact>
</mgrwt>
</event>
<event>
 5    0  0.1856407E+000  0.2610983E+03  0.7546771E-02  0.1106485E+00
         21   -1    0    0  502  501  0.00000000000E+00  0.00000000000E+00  0.27176399847E+03  0.27176399847E+03  0.00000000000E+00 0.  1.
         21   -1    0    0  503  502 -0.00000000000E+00 -0.00000000000E+00 -0.27439835272E+03  0.27439835272E+03  0.00000000000E+00 0. -1.
         25    1    1    2    0    0 -0.21506923802E+01 -0.24737775445E+03  0.32208298376E+02  0.27903898179E+03  0.12500000000E+03 0.  0.
         21    1    1    2  503  504 -0.37561842429E+01  0.27908091722E+02  0.27018790108E+02  0.39025447115E+02  0.00000000000E+00 0. -1.
         21    1    1    2  504  501  0.59068766230E+01  0.21946966273E+03 -0.61861442737E+02  0.22809792228E+03  0.00000000000E+00 0. -1.
<mgrwt>
<rscale>  4 0.26109831E+03</rscale>
<asrwt>0</asrwt>
<pdfrwt beam="1">  1       21 0.41809846E-01 0.26109831E+03</pdfrwt>
<pdfrwt beam="2">  1       21 0.42215131E-01 0.26109831E+03</pdfrwt>
<totfact> 0.28749555E+04</totfact>
</mgrwt>
</event>
<event>
 5    0  0.1856407E+000  0.2902430E+03  0.7546771E-02  0.1090222E+00
         21   -1    0    0  502  501  0.00000000000E+00  0.00000000000E+00  0.27159709140E+03  0.27159709140E+03  0.00000000000E+00 0.  1.
         21   -1    0    0  503  502 -0.00000000000E+00 -0.00000000000E+00 -0.44792844853E+03  0.44792844853E+03  0.00000000000E+00 0.  1.
         25    1    1    2    0    0  0.11290588288E+03  0.23636464150E+03  0.12324870278E+03  0.31532717117E+03  0.12500000000E+03 0.  0.
         21    1    1    2  503  504 -0.95861594733E+02 -0.12045815806E+03 -0.16157188645E+03  0.22317053497E+03  0.00000000000E+00 0.  1.
         21    1    1    2  504  501 -0.17044288146E+02 -0.11590648344E+03 -0.13800817347E+03  0.18102783379E+03  0.00000000000E+00 0.  1.
<mgrwt>
<rscale>  4 0.29024297E+03</rscale>
<asrwt>0</asrwt>
<pdfrwt beam="1">  1       21 0.41784168E-01 0.29024297E+03</pdfrwt>
<pdfrwt beam="2">  1       21 0.68912069E-01 0.29024297E+03</pdfrwt>
<totfact> 0.99982514E+03</totfact>
</mgrwt>
</event>
<event>
 5    0  0.1856407E+000  0.2945730E+03  0.7546771E-02  0.1087985E+00
         21   -1    0    0  502  501  0.00000000000E+00  0.00000000000E+00  0.57934178388E+03  0.57934178388E+03  0.00000000000E+00 0. -1.
         21   -1    0    0  503  502 -0.00000000000E+00 -0.00000000000E+00 -0.16147298263E+03  0.16147298263E+03  0.00000000000E+00 0. -1.
         25    1    1    2    0    0 -0.16503579289E+03 -0.20955057802E+03  0.79180785838E+02  0.30502926832E+03  0.12500000000E+03 0.  0.
         21    1    1    2  503  504  0.56808153418E+02  0.10033039610E+03  0.10435290615E+03  0.15550846825E+03  0.00000000000E+00 0. -1.
         21    1    1    2  504  501  0.10822763947E+03  0.10922018192E+03  0.23433510925E+03  0.28027702994E+03  0.00000000000E+00 0. -1.
<mgrwt>
<rscale>  4 0.29457301E+03</rscale>
<asrwt>0</asrwt>
<pdfrwt beam="1">  1       21 0.89129505E-01 0.29457301E+03</pdfrwt>
<pdfrwt beam="2">  1       21 0.24841998E-01 0.29457301E+03</pdfrwt>
<totfact> 0.15601497E+04</totfact>
</mgrwt>
</event>
<event>
 5    0  0.1856407E+000  0.3150614E+03  0.7546771E-02  0.1077945E+00
         21   -1    0    0  502  501  0.00000000000E+00  0.00000000000E+00  0.65430972668E+03  0.65430972668E+03  0.00000000000E+00 0. -1.
         21   -1    0    0  503  502 -0.00000000000E+00 -0.00000000000E+00 -0.18507002728E+03  0.18507002728E+03  0.00000000000E+00 0.  1.
         25    1    1    2    0    0 -0.28566482948E+03 -0.45102827894E+02  0.43534163292E+03  0.53738812533E+03  0.12500000000E+03 0.  0.
         21    1    1    2  503  504  0.19766327386E+03  0.20649867647E+02 -0.13296554908E+02  0.19918329559E+03  0.00000000000E+00 0.  1.
         21    1    1    2  504  501  0.88001555621E+02  0.24452960247E+02  0.47194621380E+02  0.10280833305E+03  0.00000000000E+00 0. -1.
<mgrwt>
<rscale>  4 0.31506136E+03</rscale>
<asrwt>0</asrwt>
<pdfrwt beam="1">  1       21 0.10066303E+00 0.31506136E+03</pdfrwt>
<pdfrwt beam="2">  1       21 0.28472312E-01 0.31506136E+03</pdfrwt>
<totfact> 0.88886397E+03</totfact>
</mgrwt>
</event>
<event>
 5    0  0.2177772E+000  0.2319851E+03  0.7546771E-02  0.1125250E+00
         21   -1    0    0  502  501  0.00000000000E+00  0.00000000000E+00  0.40936873611E+03  0.40936873611E+03  0.00000000000E+00 0. -1.
         21   -1    0    0  503  502 -0.00000000000E+00 -0.00000000000E+00 -0.29428239369E+03  0.29428239369E+03  0.00000000000E+00 0. -1.
         25    1    1    2    0    0 -0.37994303062E+02 -0.19738026956E+03  0.32530826842E+03  0.40230959146E+03  0.12500000000E+03 0.  0.
         21    1    1    2  503  504  0.11267630595E+00  0.30822485358E+02 -0.82468317292E+02  0.88040113906E+02  0.00000000000E+00 0. -1.
         21    1    1    2  504  501  0.37881626757E+02  0.16655778420E+03 -0.12775360871E+03  0.21330142443E+03  0.00000000000E+00 0. -1.
<mgrwt>
<rscale>  4 0.23198507E+03</rscale>
<asrwt>0</asrwt>
<pdfrwt beam="1">  1       21 0.62979806E-01 0.23198507E+03</pdfrwt>
<pdfrwt beam="2">  1       21 0.45274214E-01 0.23198507E+03</pdfrwt>
<totfact> 0.10650559E+04</totfact>
</mgrwt>
</event>
<event>
 5    0  0.1856407E+000  0.2974845E+03  0.7546771E-02  0.1086505E+00
         21   -1    0    0  502  501  0.00000000000E+00  0.00000000000E+00  0.71810085186E+03  0.71810085186E+03  0.00000000000E+00 0.  1.
         21   -1    0    0  503  502 -0.00000000000E+00 -0.00000000000E+00 -0.15387151496E+03  0.15387151496E+03  0.00000000000E+00 0.  1.
         25    1    1    2    0    0  0.10765343813E+02  0.26973342966E+03  0.51234282500E+03  0.59244593511E+03  0.12500000000E+03 0.  0.
         21    1    1    2  503  504 -0.15353231314E+02 -0.69810170139E+02  0.32790207044E+02  0.78640824287E+02  0.00000000000E+00 0.  1.
         21    1    1    2  504  501  0.45878875013E+01 -0.19992325952E+03  0.19096304855E+02  0.20088560742E+03  0.00000000000E+00 0.  1.
<mgrwt>
<rscale>  4 0.29748448E+03</rscale>
<asrwt>0</asrwt>
<pdfrwt beam="1">  1       21 0.11047705E+00 0.29748448E+03</pdfrwt>
<pdfrwt beam="2">  1       21 0.23672541E-01 0.29748448E+03</pdfrwt>
<totfact> 0.10216483E+04</totfact>
</mgrwt>
</event>
<event>
 5    0  0.2768008E+000  0.2348472E+03  0.7546771E-02  0.1123274E+00
         21   -1    0    0  502  501  0.00000000000E+00  0.00000000000E+00  0.30118844340E+03  0.30118844340E+03  0.00000000000E+00 0. -1.
         21   -1    0    0  503  502 -0.00000000000E+00 -0.00000000000E+00 -0.26920212222E+03  0.26920212222E+03  0.00000000000E+00 0. -1.
         25    1    1    2    0    0  0.23350889998E+02 -0.20895539059E+03  0.16412204796E+03  0.29456521510E+03  0.12500000000E+03 0.  0.
         21    1    1    2  503  504 -0.42937525976E+02  0.19183576971E+03 -0.14736203271E+03  0.24568305265E+03  0.00000000000E+00 0. -1.
         21    1    1    2  504  501  0.19586635978E+02  0.17119620880E+02  0.15226305936E+02  0.30142297863E+02  0.00000000000E+00 0. -1.
<mgrwt>
<rscale>  4 0.23484717E+03</rscale>
<asrwt>0</asrwt>
<pdfrwt beam="1">  1       21 0.46336684E-01 0.23484717E+03</pdfrwt>
<pdfrwt beam="2">  1       21 0.41415711E-01 0.23484717E+03</pdfrwt>
<totfact> 0.24481985E+04</totfact>
</mgrwt>
</event>
<event>
 5    0  0.1856407E+000  0.2956866E+03  0.7546771E-02  0.1087417E+00
         21   -1    0    0  502  501  0.00000000000E+00  0.00000000000E+00  0.44927861196E+02  0.44927861196E+02  0.00000000000E+00 0. -1.
         21   -1    0    0  503  502 -0.00000000000E+00 -0.00000000000E+00 -0.35235976745E+04  0.35235976745E+04  0.00000000000E+00 0. -1.
         25    1    1    2    0    0 -0.11155725229E+03 -0.24364019154E+03 -0.53086731604E+03  0.60765999598E+03  0.12500000000E+03 0.  0.
         21    1    1    2  503  504  0.32222152437E+02  0.16787822132E+02 -0.48812977141E+03  0.48948010360E+03  0.00000000000E+00 0. -1.
         21    1    1    2  504  501  0.79335099854E+02  0.22685236941E+03 -0.24596727259E+04  0.24713854361E+04  0.00000000000E+00 0. -1.
<mgrwt>
<rscale>  4 0.29568660E+03</rscale>
<asrwt>0</asrwt>
<pdfrwt beam="1">  1       21 0.69119790E-02 0.29568660E+03</pdfrwt>
<pdfrwt beam="2">  1       21 0.54209192E+00 0.29568660E+03</pdfrwt>
<totfact> 0.12567220E+02</totfact>
</mgrwt>
</event>
