<event>
 5    0  0.2836362E+000  0.2556627E+03  0.7546771E-02  0.1109777E+00
         21   -1    0    0  502  501  0.00000000000E+00  0.00000000000E+00  0.89460276631E+03  0.89460276631E+03  0.00000000000E+00 0.  1.
         21   -1    0    0  503  502 -0.00000000000E+00 -0.00000000000E+00 -0.12458575510E+03  0.12458575510E+03  0.00000000000E+00 0.  1.
         25    1    1    2    0    0 -0.37077201202E+02  0.24633263868E+03  0.58047408853E+03  0.64391742885E+03  0.12500000000E+03 0.  0.
         21    1    1    2  503  504 -0.86432406816E+02 -0.93680971487E+02  0.70989717374E+02  0.14589799635E+03  0.00000000000E+00 0.  1.
         21    1    1    2  504  501  0.12350960802E+03 -0.15265166719E+03  0.11855320531E+03  0.22937309620E+03  0.00000000000E+00 0.  1.
<mgrwt>
<rscale>  4 0.25566275E+03</rscale>
<asrwt>0</asrwt>
<pdfrwt beam="1">  1       21 0.13763119E+00 0.25566275E+03</pdfrwt>
<pdfrwt beam="2">  1       21 0.19167040E-01 0.25566275E+03</pdfrwt>
<totfact> 0.89561407E+03</totfact>
</mgrwt>
</event>
<event>
 5    0  0.2159162E+000  0.3127280E+03  0.7546771E-02  0.1079046E+00
         21   -1    0    0  502  501  0.00000000000E+00  0.00000000000E+00  0.58483390490E+03  0.58483390490E+03  0.00000000000E+00 0. -1.
         21   -1    0    0  503  502 -0.00000000000E+00 -0.00000000000E+00 -0.36278970382E+03  0.36278970382E+03  0.00000000000E+00 0.  1.
         25    1    1    2    0    0  0.13170547914E+03  0.25461243213E+03  0.47159368432E+03  0.56586166765E+03  0.12500000000E+03 0.  0.
         21    1    1    2  503  504 -0.30071629587E+01 -0.28962917293E+02 -0.23904631650E+02  0.37673930264E+02  0.00000000000E+00 0.  1.
         21    1    1    2  504  501 -0.12869831618E+03 -0.22564951483E+03 -0.22564485159E+03  0.34408801081E+03  0.00000000000E+00 0.  1.
<mgrwt>
<rscale>  4 0.31272803E+03</rscale>
<asrwt>0</asrwt>
<pdfrwt beam="1">  1       21 0.89974447E-01 0.31272803E+03</pdfrwt>
<pdfrwt beam="2">  1       21 0.55813801E-01 0.31272803E+03</pdfrwt>
<totfact> 0.29311167E+03</totfact>
</mgrwt>
</event>
<event>
 5    0  0.4029879E+000  0.2623442E+03  0.7546771E-02  0.1105743E+00
         21   -1    0    0  502  501  0.00000000000E+00  0.00000000000E+00  0.29919919841E+03  0.29919919841E+03  0.00000000000E+00 0.  1.
         21   -1    0    0  503  502 -0.00000000000E+00 -0.00000000000E+00 -0.21051948522E+03  0.21051948522E+03  0.00000000000E+00 0.  1.
         25    1    1    2    0    0  0.17205674805E+03  0.15360975733E+03  0.30440673708E+02  0.26410436708E+03  0.12500000000E+03 0.  0.
         21    1    1    2  503  504 -0.18443999540E+02 -0.18202210578E+02  0.28789637706E+02  0.38734284919E+02  0.00000000000E+00 0.  1.
         21    1    1    2  504  501 -0.15361274851E+03 -0.13540754675E+03  0.29449401777E+02  0.20688003163E+03  0.00000000000E+00 0.  1.
<mgrwt>
<rscale>  4 0.26234421E+03</rscale>
<asrwt>0</asrwt>
<pdfrwt beam="1">  1       21 0.46030645E-01 0.26234421E+03</pdfrwt>
<pdfrwt beam="2">  1       21 0.32387613E-01 0.26234421E+03</pdfrwt>
<totfact> 0.40189634E+04</totfact>
</mgrwt>
</event>
<event>
 5    0  0.2159162E+000  0.2449171E+03  0.7546771E-02  0.1116560E+00
         21   -1    0    0  502  501  0.00000000000E+00  0.00000000000E+00  0.11482071606E+03  0.11482071606E+03  0.00000000000E+00 0.  1.
         21   -1    0    0  503  502 -0.00000000000E+00 -0.00000000000E+00 -0.56977033356E+03  0.56977033356E+03  0.00000000000E+00 0. -1.
         25    1    1    2    0    0  0.49604189859E+02 -0.20469197249E+03 -0.89910476247E+02  0.26089897086E+03  0.12500000000E+03 0.  0.
         21    1    1    2  503  504 -0.19824160702E+02  0.11854331683E+03 -0.16773550595E+03  0.20635095170E+03  0.00000000000E+00 0. -1.
         21    1    1    2  504  501 -0.29780029157E+02  0.86148655665E+02 -0.19730363530E+03  0.21734112706E+03  0.00000000000E+00 0. -1.
<mgrwt>
<rscale>  4 0.24491709E+03</rscale>
<asrwt>0</asrwt>
<pdfrwt beam="1">  1       21 0.17664725E-01 0.24491709E+03</pdfrwt>
<pdfrwt beam="2">  1       21 0.87656975E-01 0.24491709E+03</pdfrwt>
<totfact> 0.31596337E+04</totfact>
</mgrwt>
</event>
<event>
 5    0  0.2159162E+000  0.2380294E+03  0.7546771E-02  0.1121113E+00
         21   -1    0    0  502  501  0.00000000000E+00  0.00000000000E+00  0.11273184409E+04  0.11273184409E+04  0.00000000000E+00 0. -1.
         21   -1    0    0  503  502 -0.00000000000E+00 -0.00000000000E+00 -0.10355388748E+04  0.10355388748E+04  0.00000000000E+00 0.  1.
         25    1    1    2    0    0 -0.12644802287E+02  0.20217097288E+03  0.11039506268E+04  0.11293205832E+04  0.12500000000E+03 0.  0.
         21    1    1    2  503  504  0.24963213533E+02 -0.16054800654E+03 -0.71613467287E+03  0.73433486511E+03  0.00000000000E+00 0.  1.
         21    1    1    2  504  501 -0.12318411246E+02 -0.41622966342E+02 -0.29603638773E+03  0.29920186738E+03  0.00000000000E+00 0.  1.
<mgrwt>
<rscale>  4 0.23802940E+03</rscale>
<asrwt>0</asrwt>
<pdfrwt beam="1">  1       21 0.17343361E+00 0.23802940E+03</pdfrwt>
<pdfrwt beam="2">  1       21 0.15931367E+00 0.23802940E+03</pdfrwt>
<totfact> 0.48234459E+01</totfact>
</mgrwt>
</event>
<event>
 5    0  0.2159162E+000  0.2545193E+03  0.7546771E-02  0.1110482E+00
         21   -1    0    0  502  501  0.00000000000E+00  0.00000000000E+00  0.36737502040E+03  0.36737502040E+03  0.00000000000E+00 0.  1.
         21   -1    0    0  503  502 -0.00000000000E+00 -0.00000000000E+00 -0.73054503456E+03  0.73054503456E+03  0.00000000000E+00 0. -1.
         25    1    1    2    0    0 -0.11761342114E+03 -0.18986657728E+03  0.29859701878E+03  0.39327778176E+03  0.12500000000E+03 0.  0.
         21    1    1    2  503  504  0.38467914188E+01  0.26164473223E+02 -0.21575875466E+02  0.34130570833E+02  0.00000000000E+00 0.  1.
         21    1    1    2  504  501  0.11376662972E+03  0.16370210406E+03 -0.64019115748E+03  0.67051170237E+03  0.00000000000E+00 0. -1.
<mgrwt>
<rscale>  4 0.25451933E+03</rscale>
<asrwt>0</asrwt>
<pdfrwt beam="1">  1       21 0.56519234E-01 0.25451933E+03</pdfrwt>
<pdfrwt beam="2">  1       21 0.11239154E+00 0.25451933E+03</pdfrwt>
<totfact> 0.17337029E+03</totfact>
</mgrwt>
</event>
<event>
 5    0  0.2159162E+000  0.2705378E+03  0.7546771E-02  0.1100972E+00
         21   -1    0    0  502  501  0.00000000000E+00  0.00000000000E+00  0.85163050589E+03  0.85163050589E+03  0.00000000000E+00 0.  1.
         21   -1    0    0  503  502 -0.00000000000E+00 -0.00000000000E+00 -0.82388646516E+02  0.82388646516E+02  0.00000000000E+00 0. -1.
         25    1    1    2    0    0  0.61488302768E+02 -0.23191568037E+03  0.51696184902E+03  0.58347257650E+03  0.12500000000E+03 0.  0.
         21    1    1    2  503  504 -0.45307613118E+02  0.19954120765E+03  0.23086268304E+03  0.30849157489E+03  0.00000000000E+00 0. -1.
         21    1    1    2  504  501 -0.16180689651E+02  0.32374472725E+02  0.21417327313E+02  0.42055001023E+02  0.00000000000E+00 0. -1.
<mgrwt>
<rscale>  4 0.27053779E+03</rscale>
<asrwt>0</asrwt>
<pdfrwt beam="1">  1       21 0.13102007E+00 0.27053779E+03</pdfrwt>
<pdfrwt beam="2">  1       21 0.12675177E-01 0.27053779E+03</pdfrwt>
<totfact> 0.21587052E+04</totfact>
</mgrwt>
</event>
<event>
 5    0  0.2159162E+000  0.3378110E+03  0.7546771E-02  0.1067732E+00
         21   -1    0    0  502  501  0.00000000000E+00  0.00000000000E+00  0.46200498030E+03  0.46200498030E+03  0.00000000000E+00 0.  1.
         21   -1    0    0  503  502 -0.00000000000E+00 -0.00000000000E+00 -0.81515859978E+03  0.81515859978E+03  0.00000000000E+00 0.  1.
         25    1    1    2    0    0  0.31259534295E+02 -0.31227255000E+03  0.36083663782E+03  0.49428674184E+03  0.12500000000E+03 0.  0.
         21    1    1    2  503  504  0.17135169595E+02  0.15836398843E+03 -0.33315630194E+03  0.36927752219E+03  0.00000000000E+00 0.  1.
         21    1    1    2  504  501 -0.48394703890E+02  0.15390856157E+03 -0.38083395536E+03  0.41359931606E+03  0.00000000000E+00 0.  1.
<mgrwt>
<rscale>  4 0.33781105E+03</rscale>
<asrwt>0</asrwt>
<pdfrwt beam="1">  1       21 0.71077690E-01 0.33781105E+03</pdfrwt>
<pdfrwt beam="2">  1       21 0.12540901E+00 0.33781105E+03</pdfrwt>
<totfact> 0.75559897E+02</totfact>
</mgrwt>
</event>
