<event>
 5    0  0.2349231E+000  0.5423158E+03  0.7546771E-02  0.1003288E+00
         21   -1    0    0  504  501  0.00000000000E+00  0.00000000000E+00  0.11116662775E+04  0.11116662775E+04  0.00000000000E+00 0.  1.
         21   -1    0    0  501  502 -0.00000000000E+00 -0.00000000000E+00 -0.75938783034E+02  0.75938783034E+02  0.00000000000E+00 0. -1.
         25    1    1    2    0    0  0.73426784464E+02  0.23615325668E+03  0.30038960230E+03  0.40867929540E+03  0.12500000000E+03 0.  0.
         21    1    1    2  503  502 -0.44608088232E+02 -0.21842476642E+03  0.62934118761E+03  0.66765978653E+03  0.00000000000E+00 0.  1.
         21    1    1    2  504  503 -0.28818696232E+02 -0.17728490259E+02  0.10599670454E+03  0.11126597860E+03  0.00000000000E+00 0. -1.
<mgrwt>
<rscale>  4 0.54231585E+03</rscale>
<asrwt>0</asrwt>
<pdfrwt beam="1">  1       21 0.17102557E+00 0.54231585E+03</pdfrwt>
<pdfrwt beam="2">  1       21 0.11682891E-01 0.54231585E+03</pdfrwt>
<totfact> 0.11062569E+04</totfact>
</mgrwt>
</event>
<event>
 5    0  0.2349231E+000  0.5564259E+03  0.7546771E-02  0.1000017E+00
         21   -1    0    0  503  501  0.00000000000E+00  0.00000000000E+00  0.81491893591E+03  0.81491893591E+03  0.00000000000E+00 0. -1.
         21   -1    0    0  504  502 -0.00000000000E+00 -0.00000000000E+00 -0.55142308596E+03  0.55142308596E+03  0.00000000000E+00 0. -1.
         25    1    1    2    0    0  0.51060741299E+02 -0.26684356107E+03 -0.16037971818E+03  0.33935135095E+03  0.12500000000E+03 0.  0.
         21    1    1    2  503  502 -0.15673041118E+02  0.21586077949E+02  0.67421948759E+03  0.67474700475E+03  0.00000000000E+00 0. -1.
         21    1    1    2  504  501 -0.35387700180E+02  0.24525748312E+03 -0.25034391946E+03  0.35224366617E+03  0.00000000000E+00 0. -1.
<mgrwt>
<rscale>  4 0.55642588E+03</rscale>
<asrwt>0</asrwt>
<pdfrwt beam="1">  1       21 0.12537214E+00 0.55642588E+03</pdfrwt>
<pdfrwt beam="2">  1       21 0.84834321E-01 0.55642588E+03</pdfrwt>
<totfact> 0.45558937E+02</totfact>
</mgrwt>
</event>
<event>
 5    0  0.2349231E+000  0.8457260E+03  0.7546771E-02  0.9496091E-01
         21   -1    0    0  502  501  0.00000000000E+00  0.00000000000E+00  0.60719212243E+03  0.60719212243E+03  0.00000000000E+00 0.  1.
         21   -1    0    0  504  502 -0.00000000000E+00 -0.00000000000E+00 -0.71681567285E+03  0.71681567285E+03  0.00000000000E+00 0.  1.
         25    1    1    2    0    0  0.19303474295E+03 -0.14666067169E+03  0.21050270160E+03  0.34454049397E+03  0.12500000000E+03 0.  0.
         21    1    1    2  503  501 -0.32225173595E+03  0.11239053908E+03  0.23115930486E+03  0.41220436536E+03  0.00000000000E+00 0.  1.
         21    1    1    2  504  503  0.12921699300E+03  0.34270132603E+02 -0.55128555688E+03  0.56726293594E+03  0.00000000000E+00 0. -1.
<mgrwt>
<rscale>  4 0.84572604E+03</rscale>
<asrwt>0</asrwt>
<pdfrwt beam="1">  1       21 0.93414173E-01 0.84572604E+03</pdfrwt>
<pdfrwt beam="2">  1       21 0.11027933E+00 0.84572604E+03</pdfrwt>
<totfact> 0.46228276E+02</totfact>
</mgrwt>
</event>
<event>
 5    0  0.2349231E+000  0.6013697E+03  0.7546771E-02  0.9902568E-01
         21   -1    0    0  502  501  0.00000000000E+00  0.00000000000E+00  0.96972846377E+02  0.96972846377E+02  0.00000000000E+00 0.  1.
         21   -1    0    0  504  502 -0.00000000000E+00 -0.00000000000E+00 -0.11236102439E+04  0.11236102439E+04  0.00000000000E+00 0.  1.
         25    1    1    2    0    0 -0.99515616744E+02 -0.20053980886E+03 -0.20186343347E+03  0.32633329387E+03  0.12500000000E+03 0.  0.
         21    1    1    2  503  501 -0.17684145567E+02 -0.27352552309E+02 -0.21586575987E+01  0.32642777530E+02  0.00000000000E+00 0.  1.
         21    1    1    2  504  503  0.11719976231E+03  0.22789236117E+03 -0.82261530641E+03  0.86160701883E+03  0.00000000000E+00 0.  1.
<mgrwt>
<rscale>  4 0.60136969E+03</rscale>
<asrwt>0</asrwt>
<pdfrwt beam="1">  1       21 0.14918899E-01 0.60136969E+03</pdfrwt>
<pdfrwt beam="2">  1       21 0.17286312E+00 0.60136969E+03</pdfrwt>
<totfact> 0.67255248E+03</totfact>
</mgrwt>
</event>
