<LesHouchesEvents version="3.0">
  <!--
  <scalesfunctionalform>
    muR  H_T/2 := sum_i mT(i)/2, i=final state
    muF1 H_T/2 := sum_i mT(i)/2, i=final state
    muF2 H_T/2 := sum_i mT(i)/2, i=final state
    QES  H_T/2 := sum_i mT(i)/2, i=final state
  </scalesfunctionalform>
HERWIG6   
  -->
  <header>
       21
  </header>
  <init>
   2212   2212 0.65000000D+04 0.65000000D+04 -1 -1   244800   244800 -4   1
 0.36915165D-04 0.13155345D-05 0.19916237D-05     66
  </init>
  <event>
  7     66 0.19916237E-05 0.55699189E+02 0.75467711E-02 0.92254066E-01
       21 -1    0    0  503  501 0.00000000E+00 0.00000000E+00 0.10439499E+04 0.10439502E+04 0.75000000E+00 0.0000E+00 0.9000E+01
        1 -1    0    0  501    0 0.00000000E+00 0.00000000E+00 -.45927693E+03 0.45927704E+03 0.32000000E+00 0.0000E+00 0.9000E+01
       23  2    1    2    0    0 -.40667137E+03 0.45095510E+03 0.11591755E+03 0.62485178E+03 0.90888698E+02 0.0000E+00 0.0000E+00
       25  1    1    2    0    0 0.39472740E+03 -.45321187E+03 0.25573516E+03 0.66500842E+03 0.12500000E+03 0.0000E+00 0.9000E+01
        2  1    3    3  502    0 -.30999531E+03 0.28401980E+03 0.65928278E+02 0.42557135E+03 0.32000000E+00 0.0000E+00 0.9000E+01
        1  1    1    2  503    0 0.11943969E+02 0.22567697E+01 0.21302025E+03 0.21336701E+03 0.32000000E+00 0.0000E+00 0.9000E+01
       -2  1    3    3    0  502 -.96676065E+02 0.16693531E+03 0.49989275E+02 0.19928043E+03 0.32000000E+00 0.0000E+00 0.9000E+01
#aMCatNLO 2  0  0  1  2 0.10994112D+02 0.00000000D+00  -5  6  0 0.00000000D+00 0.00000000D+00 0.00000000D+00 0.00000000D+00 0.00000000D+00
  <mgrwgt>
 0.1193464368D-03    1    2    0
 0.617548751005461D+03 0.000000000000000D+00 0.000000000000000D+00 0.617548751005461D+03
 0.617548751005461D+03 0.000000000000000D+00 0.000000000000000D+00 -.617548751005461D+03
 0.620529991174104D+03 0.400713476007702D+03 -.452080826499558D+03 0.669634706674802D+02
 0.422126214834195D+03 -.305904007335704D+03 0.284794782610505D+03 -.592048253442027D+02
 0.000000000000000D+00 0.000000000000000D+00 0.000000000000000D+00 0.000000000000000D+00
 0.192441296002623D+03 -.948094686719988D+02 0.167286043889053D+03 -.775864532327751D+01
 0.776065136412927D+03 0.000000000000000D+00 0.000000000000000D+00 0.776065136412927D+03
 0.617811723385166D+03 0.000000000000000D+00 0.000000000000000D+00 -.617811723385166D+03
 0.617510997237889D+03 0.394727403865044D+03 -.453211873127636D+03 0.669634706674802D+02
 0.424584514792835D+03 -.309997952171901D+03 0.284021246576832D+03 -.592048253442027D+02
 0.158719545572341D+03 0.119439692862743D+02 0.225676969223795D+01 0.158253413027761D+03
 0.193061802195028D+03 -.966734209794174D+02 0.166933856858566D+03 -.775864532327751D+01
0.943742751727D-05 0.000000000000D+00 0.000000000000D+00 0.406725333130D-04 0.552822716666D-07  6 21 1 25 2 1 -2 2 0.16060766D+00 0.70658000D-01 0.38400767D+06 0.38400767D+06 0.38400767D+06 0.10767074D+01  1  2  1  5  5  1       -1 0.119346436754D-03 0.100000000000D+01
  </mgrwgt>
  </event>
  <event>
  7     66 0.19916237E-05 0.68037071E+02 0.75467711E-02 0.95214707E-01
       21 -1    0    0  503  501 0.00000000E+00 0.00000000E+00 0.31864237E+03 0.31864325E+03 0.75000000E+00 0.0000E+00 0.9000E+01
        1 -1    0    0  501    0 0.00000000E+00 0.00000000E+00 -.15637432E+04 0.15637433E+04 0.32000000E+00 0.0000E+00 0.9000E+01
       23  2    1    2    0    0 0.41465520E+02 0.44862900E+03 -.21196592E+03 0.50741037E+03 0.97715736E+02 0.0000E+00 0.0000E+00
       25  1    1    2    0    0 -.52340262E+02 -.45601768E+03 -.11567025E+04 0.12507107E+04 0.12500000E+03 0.0000E+00 0.9000E+01
        2  1    3    3  502    0 -.31441340E+02 0.16505384E+03 -.84438117E+02 0.18804581E+03 0.32000000E+00 0.0000E+00 0.9000E+01
        1  1    1    2  503    0 0.10874742E+02 0.73886830E+01 0.12356756E+03 0.12426543E+03 0.32000000E+00 0.0000E+00 0.9000E+01
       -2  1    3    3    0  502 0.72906859E+02 0.28357516E+03 -.12752780E+03 0.31936456E+03 0.32000000E+00 0.0000E+00 0.9000E+01
#aMCatNLO 2  0  0  1  2 0.65575840D+01 0.00000000D+00  -5  6  0 0.00000000D+00 0.00000000D+00 0.00000000D+00 0.00000000D+00 0.00000000D+00
  <mgrwgt>
 0.2247804910D-02    1    2    0
 0.551716336069116D+03 0.000000000000000D+00 0.000000000000000D+00 0.551716336069116D+03
 0.551716336069116D+03 0.000000000000000D+00 0.000000000000000D+00 -.551716336069116D+03
 0.554469851167157D+03 -.468585552273372D+02 -.452293217011256D+03 -.291628080782603D+03
 0.195675977294803D+03 -.295180491396803D+02 0.166360078507287D+03 0.987020625129623D+02
 0.000000000000000D+00 0.000000000000000D+00 0.000000000000000D+00 0.000000000000000D+00
 0.353286843676273D+03 0.763766043670174D+02 0.285933138503969D+03 0.192926018269640D+03
 0.902871752191651D+03 0.000000000000000D+00 0.000000000000000D+00 0.902871752191651D+03
 0.551878570829284D+03 0.000000000000000D+00 0.000000000000000D+00 -.551878570829284D+03
 0.557999611807322D+03 -.523402623518519D+02 -.456017681908407D+03 -.291628080782603D+03
 0.194866816068587D+03 -.314424536146434D+02 0.165052570325599D+03 0.987020625129623D+02
 0.351239328693919D+03 0.108747423839558D+02 0.738868300596979D+01 0.350993181362366D+03
 0.350644566451106D+03 0.729079735825395D+02 0.283576428576838D+03 0.192926018269640D+03
0.666863880344D-04 0.000000000000D+00 0.000000000000D+00 0.100473814526D-05 0.231740441988D-08  6 21 1 25 2 1 -2 2 0.49021967D-01 0.24057592D+00 0.22547988D+06 0.22547988D+06 0.22547988D+06 0.10938479D+01  1  2  1  5  5  1       -1 0.224780491031D-02 0.100000000000D+01
  </mgrwgt>
  </event>
  <event>
  7     66 0.19916237E-05 0.76601775E+02 0.75467711E-02 0.90207696E-01
       -1 -1    0    0    0  503 0.00000000E+00 0.00000000E+00 0.29081723E+03 0.29081740E+03 0.32000000E+00 0.0000E+00 0.9000E+01
        1 -1    0    0  501    0 0.00000000E+00 0.00000000E+00 -.30773692E+04 0.30773692E+04 0.32000000E+00 0.0000E+00 0.9000E+01
       23  2    1    2    0    0 -.46415227E+03 0.45389332E+03 -.69500546E+03 0.95535920E+03 0.90675944E+02 0.0000E+00 0.0000E+00
       25  1    1    2    0    0 0.46864068E+03 -.56509918E+03 -.21582173E+04 0.22830874E+04 0.12500000E+03 0.0000E+00 0.9000E+01
        2  1    3    3  502    0 -.29633325E+03 0.28118089E+03 -.37231753E+03 0.55271741E+03 0.32000000E+00 0.0000E+00 0.9000E+01
       -2  1    3    3    0  502 -.16781903E+03 0.17271243E+03 -.32268793E+03 0.40264179E+03 0.32000000E+00 0.0000E+00 0.9000E+01
       21  1    1    2  501  503 -.44884099E+01 0.11120586E+03 0.66670857E+02 0.12973995E+03 0.75000000E+00 0.0000E+00 0.9000E+01
#aMCatNLO 2  0  0  1  2 0.53338582D+03 0.00000000D+00  -5  6  0 0.00000000D+00 0.00000000D+00 0.00000000D+00 0.00000000D+00 0.00000000D+00
  <mgrwgt>
 0.1227408088D-03    1    2    0
 0.763915797728208D+03 0.000000000000000D+00 0.000000000000000D+00 0.763915797728208D+03
 0.763915797728208D+03 0.000000000000000D+00 0.000000000000000D+00 -.763915797728208D+03
 0.766338470909654D+03 0.466333118618368D+03 -.507926426718239D+03 -.310151284886998D+03
 0.497597006911171D+03 -.297761590358903D+03 0.316531535041487D+03 0.242381112956791D+03
 0.263896117635590D+03 -.168571528259464D+03 0.191394891676752D+03 0.677701719302076D+02
 0.000000000000000D+00 -.000000000000000D+00 0.000000000000000D+00 0.000000000000000D+00
 0.115646278770215D+04 0.000000000000000D+00 0.000000000000000D+00 0.115646278770215D+04
 0.773869673829837D+03 0.000000000000000D+00 0.000000000000000D+00 -.773869673829837D+03
 0.806709361626541D+03 0.468640683676646D+03 -.565099180871757D+03 -.310151284886998D+03
 0.475001470971999D+03 -.296334847816892D+03 0.281182238906958D+03 0.242381112956791D+03
 0.250169147454969D+03 -.167817425924582D+03 0.172711081552237D+03 0.677701719302076D+02
 0.398452481478473D+03 -.448840993517221D+01 0.111205860412562D+03 0.382593113872308D+03
0.351670880278D-03 0.000000000000D+00 0.000000000000D+00 0.263442479515D-04 0.136960818134D-07  6 -1 1 25 2 -2 21 2 0.44741106D-01 0.47344121D+00 0.56649971D+06 0.56649971D+06 0.56649971D+06 0.10646987D+01  1  2  1  1  6  1       -1 0.122740808848D-03 0.100000000000D+01
  </mgrwgt>
  </event>
  <event>
  7     66 0.19916237E-05 0.64612481E+02 0.75467711E-02 0.95055084E-01
       -1 -1    0    0    0  503 0.00000000E+00 0.00000000E+00 0.52988158E+03 0.52988167E+03 0.32000000E+00 0.0000E+00 0.9000E+01
        1 -1    0    0  501    0 0.00000000E+00 0.00000000E+00 -.95660697E+03 0.95660703E+03 0.32000000E+00 0.0000E+00 0.9000E+01
       23  2    1    2    0    0 0.30536129E+03 -.33525051E+03 -.38872670E+03 0.60453028E+03 0.93327318E+02 0.0000E+00 0.0000E+00
       25  1    1    2    0    0 -.29624408E+03 0.35992165E+03 -.33263286E+03 0.58615166E+03 0.12500000E+03 0.0000E+00 0.9000E+01
        2  1    3    3  502    0 0.11744771E+03 -.14608998E+03 -.21986393E+03 0.28892300E+03 0.32000000E+00 0.0000E+00 0.9000E+01
       -2  1    3    3    0  502 0.18791358E+03 -.18916053E+03 -.16886277E+03 0.31560728E+03 0.32000000E+00 0.0000E+00 0.9000E+01
       21  1    1    2  501  503 -.91172052E+01 -.24671142E+02 0.29463416E+03 0.29580676E+03 0.75000000E+00 0.0000E+00 0.9000E+01
#aMCatNLO 2  0  0  1  2 0.27387175D+01 0.00000000D+00  -5  6  0 0.00000000D+00 0.00000000D+00 0.00000000D+00 0.00000000D+00 0.00000000D+00
  <mgrwgt>
 0.2709706420D-02    1    2    0
 0.473463849763981D+03 0.000000000000000D+00 0.000000000000000D+00 0.473463849763981D+03
 0.473463849763981D+03 0.000000000000000D+00 0.000000000000000D+00 -.473463849763981D+03
 0.477115138108212D+03 -.300867462602467D+03 0.347410788065086D+03 0.282554294812029D+02
 0.198480880360635D+03 0.115549478742020D+03 -.151223843150799D+03 -.563411669552800D+02
 0.271331681059114D+03 0.185317983860446D+03 -.196186944914287D+03 0.280857374740771D+02
 0.000000000000000D+00 -.000000000000000D+00 -.000000000000000D+00 0.000000000000000D+00
 0.106952684674323D+04 0.000000000000000D+00 0.000000000000000D+00 0.106952684674323D+04
 0.473936692907568D+03 0.000000000000000D+00 0.000000000000000D+00 -.473936692907568D+03
 0.483453739940542D+03 -.296244081615163D+03 0.359921649078405D+03 0.282554294812029D+02
 0.195729995263039D+03 0.117446882571144D+03 -.146089471647024D+03 -.563411669552800D+02
 0.268109174507876D+03 0.187914404223835D+03 -.189161035869000D+03 0.280857374740771D+02
 0.596170629939338D+03 -.911720517981602D+01 -.246711415623808D+02 0.595590153835661D+03
0.726266658743D-03 0.000000000000D+00 0.000000000000D+00 0.141352339832D-04 0.175711007391D-06  6 -1 1 25 2 -2 21 2 0.81520213D-01 0.14717024D+00 0.23184659D+06 0.23184659D+06 0.23184659D+06 0.10929307D+01  1  2  1  1  6  1       -1 0.270970641972D-02 0.100000000000D+01
  </mgrwgt>
  </event>
  <event>
  7     66 0.19916237E-05 0.71835399E+02 0.75467711E-02 0.93579011E-01
       21 -1    0    0  503  501 0.00000000E+00 0.00000000E+00 0.31605948E+03 0.31606037E+03 0.75000000E+00 0.0000E+00 0.9000E+01
        1 -1    0    0  501    0 0.00000000E+00 0.00000000E+00 -.11676163E+04 0.11676163E+04 0.32000000E+00 0.0000E+00 0.9000E+01
       23  2    1    2    0    0 -.25258822E+03 -.44647842E+03 -.52145679E+03 0.73751823E+03 0.94192152E+02 0.0000E+00 0.0000E+00
       25  1    1    2    0    0 0.15732080E+03 0.43688282E+03 -.40171366E+03 0.62659022E+03 0.12500000E+03 0.0000E+00 0.9000E+01
        2  1    3    3  502    0 -.80687920E+02 -.67977082E+02 -.95092893E+02 0.14203586E+03 0.32000000E+00 0.0000E+00 0.9000E+01
        1  1    1    2  503    0 0.95267418E+02 0.95955987E+01 0.71613635E+02 0.11956827E+03 0.32000000E+00 0.0000E+00 0.9000E+01
       -2  1    3    3    0  502 -.17190030E+03 -.37850134E+03 -.42636390E+03 0.59548237E+03 0.32000000E+00 0.0000E+00 0.9000E+01
#aMCatNLO 2  0  0  1  2 0.27387175D+01 0.00000000D+00  -5  6  0 0.00000000D+00 0.00000000D+00 0.00000000D+00 0.00000000D+00 0.00000000D+00
  <mgrwgt>
 0.2311307008D-03    1    2    0
 0.499845029237741D+03 0.000000000000000D+00 0.000000000000000D+00 0.499845029237741D+03
 0.499845029237741D+03 0.000000000000000D+00 0.000000000000000D+00 -.499845029237741D+03
 0.503222495637082D+03 0.204149985160916D+03 0.441599589773764D+03 0.303391823497949D+02
 0.976529449680093D+02 -.710284779388494D+02 -.670006793039341D+02 0.140069819262577D+01
 0.000000000000000D+00 0.000000000000000D+00 0.000000000000000D+00 0.000000000000000D+00
 0.398814617870391D+03 -.133121507222067D+03 -.374598910469830D+03 -.317398805424207D+02
 0.719846959413570D+03 0.000000000000000D+00 0.000000000000000D+00 0.719846959413570D+03
 0.512659995165245D+03 0.000000000000000D+00 0.000000000000000D+00 -.512659995165245D+03
 0.481831819699979D+03 0.157320800502298D+03 0.436882824358037D+03 0.303391823497949D+02
 0.105511747549103D+03 -.806868660641172D+02 -.679734989550349D+02 0.140069819262577D+01
 0.228241964937689D+03 0.952674177806248D+02 0.959559865731254D+01 0.207186964248325D+03
 0.416921422392044D+03 -.171901352218805D+03 -.378504924060315D+03 -.317398805424207D+02
0.374097797183D-05 0.000000000000D+00 0.000000000000D+00 0.382324906726D-05 0.127922836653D-09  6 21 1 25 2 1 -2 2 0.48624597D-01 0.17963331D+00 0.30131267D+06 0.30131267D+06 0.30131267D+06 0.10844116D+01  1  2  1  5  5  1       -1 0.231130700823D-03 0.100000000000D+01
  </mgrwgt>
  </event>
  <event>
  7     66 0.19916237E-05 0.47412003E+02 0.75467711E-02 0.88800694E-01
       -1 -1    0    0    0  503 0.00000000E+00 0.00000000E+00 0.90279088E+03 0.90279094E+03 0.32000000E+00 0.0000E+00 0.9000E+01
        1 -1    0    0  501    0 0.00000000E+00 0.00000000E+00 -.11259913E+04 0.11259914E+04 0.32000000E+00 0.0000E+00 0.9000E+01
       23  2    1    2    0    0 -.14390284E+03 0.83101448E+03 -.39202042E+03 0.93461608E+03 0.92380297E+02 0.0000E+00 0.0000E+00
       25  1    1    2    0    0 0.13184069E+03 -.84692596E+03 -.56432325E+02 0.86802947E+03 0.12500000E+03 0.0000E+00 0.9000E+01
        2  1    3    3  502    0 -.32323093E+02 0.23348988E+03 -.65660631E+02 0.24469109E+03 0.32000000E+00 0.0000E+00 0.9000E+01
       -2  1    3    3    0  502 -.11157975E+03 0.59752459E+03 -.32635979E+03 0.68992499E+03 0.32000000E+00 0.0000E+00 0.9000E+01
       21  1    1    2  501  503 0.12062152E+02 0.15911488E+02 0.22525230E+03 0.22613675E+03 0.75000000E+00 0.0000E+00 0.9000E+01
#aMCatNLO 2  0  0  1  2 0.27387175D+01 0.00000000D+00  -5  6  0 0.00000000D+00 0.00000000D+00 0.00000000D+00 0.00000000D+00 0.00000000D+00
  <mgrwgt>
 0.2991493475D-03    1    2    0
 0.872929327237454D+03 0.000000000000000D+00 0.000000000000000D+00 0.872929327237454D+03
 0.872929327237454D+03 0.000000000000000D+00 0.000000000000000D+00 -.872929327237454D+03
 0.874960098953616D+03 0.137908915335100D+03 -.838921212928722D+03 0.164689114182508D+03
 0.237683966222617D+03 -.306866674333542D+02 0.235642909338359D+03 -.494120630036635D+01
 0.633214589298676D+03 -.107222247901746D+03 0.603278303590363D+03 -.159747907882142D+03
 0.000000000000000D+00 0.000000000000000D+00 0.000000000000000D+00 0.000000000000000D+00
 0.116397573137059D+04 0.000000000000000D+00 0.000000000000000D+00 0.116397573137059D+04
 0.873328926865699D+03 0.000000000000000D+00 0.000000000000000D+00 -.873328926865699D+03
 0.881710303298513D+03 0.131840688350259D+03 -.846925963415851D+03 0.164689114182508D+03
 0.235763910976560D+03 -.323221416695300D+02 0.233485514234086D+03 -.494120630036635D+01
 0.628498612652565D+03 -.111580699031449D+03 0.597528961337549D+03 -.159747907882142D+03
 0.291331831308656D+03 0.120621523507203D+02 0.159114878442157D+02 0.290646804504895D+03
0.429164520668D-03 0.000000000000D+00 0.000000000000D+00 0.160345610067D-04 0.249470495873D-06  6 -1 1 25 2 -2 21 2 0.13889084D+00 0.17322935D+00 0.74799131D+06 0.74799131D+06 0.74799131D+06 0.10563628D+01  1  2  1  1  6  1       -1 0.299149347514D-03 0.100000000000D+01
  </mgrwgt>
  </event>
  <event>
  7     66 0.19916237E-05 0.71233876E+02 0.75467711E-02 0.92901830E-01
       -1 -1    0    0    0  503 0.00000000E+00 0.00000000E+00 0.26678255E+03 0.26678275E+03 0.32000000E+00 0.0000E+00 0.9000E+01
        1 -1    0    0  501    0 0.00000000E+00 0.00000000E+00 -.13455796E+04 0.13455796E+04 0.32000000E+00 0.0000E+00 0.9000E+01
       23  2    1    2    0    0 0.45514695E+03 0.34826612E+03 -.37440879E+03 0.69070557E+03 0.91892329E+02 0.0000E+00 0.0000E+00
       25  1    1    2    0    0 -.42982487E+03 -.33188174E+03 -.69336471E+03 0.88953613E+03 0.12500000E+03 0.0000E+00 0.9000E+01
        2  1    3    3  502    0 0.18483680E+03 0.19790378E+03 -.18607812E+03 0.32856616E+03 0.32000000E+00 0.0000E+00 0.9000E+01
       -2  1    3    3    0  502 0.27031015E+03 0.15036235E+03 -.18833067E+03 0.36213942E+03 0.32000000E+00 0.0000E+00 0.9000E+01
       21  1    1    2  501  503 -.25322081E+02 -.16384382E+02 -.11023511E+02 0.32120648E+02 0.75000000E+00 0.0000E+00 0.9000E+01
#aMCatNLO 2  0  0  1  2 0.27387175D+01 0.00000000D+00  -5  6  0 0.00000000D+00 0.00000000D+00 0.00000000D+00 0.00000000D+00 0.00000000D+00
  <mgrwgt>
 0.9858319542D-03    1    2    0
 0.582261525243555D+03 0.000000000000000D+00 0.000000000000000D+00 0.582261525243555D+03
 0.582261525243555D+03 0.000000000000000D+00 0.000000000000000D+00 -.582261525243555D+03
 0.585344675866633D+03 -.442396381208863D+03 -.340016001286329D+03 -.125211622176100D+03
 0.268436999466444D+03 0.178926737129011D+03 0.194080978098439D+03 0.487464805218430D+02
 0.310741375154033D+03 0.263469644079852D+03 0.145935023187890D+03 0.764651416542571D+02
 0.000000000000000D+00 -.000000000000000D+00 -.000000000000000D+00 0.000000000000000D+00
 0.606430908254759D+03 0.000000000000000D+00 0.000000000000000D+00 0.606430908254759D+03
 0.591942582927395D+03 0.000000000000000D+00 0.000000000000000D+00 -.591942582927395D+03
 0.571137340813189D+03 -.429824872983313D+03 -.331881741450278D+03 -.125211622176100D+03
 0.275148347975592D+03 0.184835767765108D+03 0.197904353123204D+03 0.487464805218430D+02
 0.318627866316189D+03 0.270311186345045D+03 0.150361769880964D+03 0.764651416542571D+02
 0.334599360771839D+02 -.253220811268396D+02 -.163843815538899D+02 0.144883253273642D+02
0.144385314405D-03 0.000000000000D+00 0.000000000000D+00 0.350460972836D-04 0.240096197365D-06  6 -1 1 25 2 -2 21 2 0.41043198D-01 0.20701080D+00 0.34077349D+06 0.34077349D+06 0.34077349D+06 0.10804808D+01  1  2  1  1  6  1       -1 0.985831954225D-03 0.100000000000D+01
  </mgrwgt>
  </event>
  <event>
  7     66 0.19916237E-05 0.20593361E+03 0.75467711E-02 0.88713737E-01
       -1 -1    0    0    0  501 0.00000000E+00 0.00000000E+00 0.68421528E+03 0.68421536E+03 0.32000000E+00 0.0000E+00 0.9000E+01
        1 -1    0    0  503    0 0.00000000E+00 0.00000000E+00 -.14966585E+04 0.14966585E+04 0.32000000E+00 0.0000E+00 0.9000E+01
       23  2    1    2    0    0 0.55687467E+03 -.57802369E+03 -.16163079E+01 0.80754522E+03 0.88915036E+02 0.0000E+00 0.0000E+00
       25  1    1    2    0    0 -.60376256E+03 0.34954805E+03 -.22633678E+03 0.74402043E+03 0.12500000E+03 0.0000E+00 0.9000E+01
        2  1    3    3  502    0 0.39716806E+03 -.42580464E+03 -.39785012E+02 0.58363945E+03 0.32000000E+00 0.0000E+00 0.9000E+01
       -2  1    3    3    0  502 0.15970661E+03 -.15221905E+03 0.38168704E+02 0.22390576E+03 0.32000000E+00 0.0000E+00 0.9000E+01
       21  1    1    2  503  501 0.46887890E+02 0.22847563E+03 -.58449009E+03 0.62930821E+03 0.75000000E+00 0.0000E+00 0.9000E+01
#aMCatNLO 2  0  0  2  4 0.10155826D+02 0.00000000D+00  -5  6  0 0.00000000D+00 0.00000000D+00 0.00000000D+00 0.00000000D+00 0.00000000D+00
  <mgrwgt>
 0.2778851752D-03    1    2    0
 0.758451344081321D+03 0.000000000000000D+00 0.000000000000000D+00 0.758451344081321D+03
 0.758451344081321D+03 0.000000000000000D+00 0.000000000000000D+00 -.758451344081321D+03
 0.760995711792354D+03 -.581029319035505D+03 0.460322736183350D+03 -.118310533513138D+03
 0.539143701301016D+03 0.414430194047620D+03 -.341708132559048D+03 0.464660850214292D+02
 0.216763275069272D+03 0.166599124987884D+03 -.118614603624302D+03 0.718444484917088D+02
 0.000000000000000D+00 0.000000000000000D+00 0.000000000000000D+00 -.000000000000000D+00
 0.793347599674458D+03 0.000000000000000D+00 0.000000000000000D+00 0.793347599674458D+03
 0.129077856176144D+04 0.000000000000000D+00 0.000000000000000D+00 -.129077856176144D+04
 0.718564855136972D+03 -.603762557702781D+03 0.349548054799408D+03 -.118310533513138D+03
 0.584137498739943D+03 0.397171137418399D+03 -.425808182141576D+03 0.464660850214292D+02
 0.232026727899586D+03 0.159703530122070D+03 -.152215505607213D+03 0.718444484917088D+02
 0.549397079659393D+03 0.468878901623112D+02 0.228475632949381D+03 -.497430962086978D+03
0.363080398582D-03 0.000000000000D+00 0.000000000000D+00 0.100386010527D-04 0.123254296272D-08  6 -1 1 25 2 -2 21 2 0.10526387D+00 0.23025508D+00 0.76117370D+06 0.76117370D+06 0.76117370D+06 0.10558455D+01  1  2  1  2  6  2        1 0.277885175194D-03 0.100000000000D+01
  </mgrwgt>
  </event>
  <event>
  6     66 -.19916237E-05 0.16216345E+02 0.75467711E-02 0.91787815E-01
       -1 -1    0    0    0  501 0.00000000E+00 0.00000000E+00 0.67413140E+03 0.67413148E+03 0.32000000E+00 0.0000E+00 0.9000E+01
        1 -1    0    0  501    0 -.00000000E+00 -.00000000E+00 -.71360752E+03 0.71360759E+03 0.32000000E+00 0.0000E+00 0.9000E+01
       23  2    1    2    0    0 -.45455998E+03 0.45251475E+03 0.22038048E+03 0.68450025E+03 0.92621096E+02 0.0000E+00 0.0000E+00
       25  1    1    2    0    0 0.45455998E+03 -.45251475E+03 -.25985660E+03 0.70323881E+03 0.12500000E+03 0.0000E+00 0.9000E+01
        2  1    3    3  502    0 -.44145202E+03 0.43728794E+03 0.22954678E+03 0.66241411E+03 0.32000000E+00 0.0000E+00 0.9000E+01
       -2  1    3    3    0  502 -.13107959E+02 0.15226812E+02 -.91662963E+01 0.22086144E+02 0.32000000E+00 0.0000E+00 0.9000E+01
#aMCatNLO 1  0  0  5  2 0.81876644D+00 0.00000000D+00  -5  6  0 0.00000000D+00 0.00000000D+00 0.00000000D+00 0.00000000D+00 0.00000000D+00
  <mgrwgt>
 -.2134310629D-02    5    2    0
 0.693588737961560D+03 0.000000000000000D+00 0.000000000000000D+00 0.693588737961560D+03
 0.693588737961560D+03 -.000000000000000D+00 -.000000000000000D+00 -.693588737961560D+03
 0.696128547282771D+03 0.454559977283662D+03 -.452514752167318D+03 -.239949120575276D+03
 0.669222424105824D+03 -.441457131647734D+03 0.437292978639144D+03 0.248493671300368D+03
 0.218265045345250D+02 -.131028456359275D+02 0.152217735281743D+02 -.854455072509190D+01
 0.000000000000000D+00 0.000000000000000D+00 0.000000000000000D+00 0.000000000000000D+00
 0.693588737961560D+03 0.000000000000000D+00 0.000000000000000D+00 0.693588737961560D+03
 0.693588737961560D+03 -.000000000000000D+00 -.000000000000000D+00 -.693588737961560D+03
 0.695725182257854D+03 0.454219019510855D+03 -.452118656376790D+03 -.240171463955165D+03
 0.669608430718375D+03 -.441785100583504D+03 0.437673985101655D+03 0.248279798124586D+03
 0.209855909961176D+02 -.128806769208990D+02 0.140742415925524D+02 -.874064729354862D+01
 0.858271950772409D+00 0.446757993548091D+00 0.370429682583096D+00 0.632313124128344D+00
0.129213772312D-04 0.000000000000D+00 0.000000000000D+00 0.154190440252D-05 0.000000000000D+00  6 -1 1 25 2 -2 21 0 0.10371253D+00 0.10978578D+00 0.41921017D+06 0.41921017D+06 0.41921017D+06 0.10739621D+01  1  2  2  4  6  5       -2 0.375128625810D-04 0.100000000000D+01
0.552990650465D-05 0.000000000000D+00 -.496214908445D-07 0.154190440252D-05 0.000000000000D+00  6 -1 1 25 2 -2 21 2 0.10371253D+00 0.10978578D+00 0.41921017D+06 0.41921017D+06 0.41921017D+06 0.10739621D+01  1  2  3  4  6  5       -2 0.185168500328D-04 0.100000000000D+01
-.357034077754D-05 0.000000000000D+00 0.000000000000D+00 0.154190440252D-05 0.000000000000D+00  6 -1 1 25 2 -2 21 2 0.10371253D+00 0.10978578D+00 0.41921017D+06 0.41921017D+06 0.41921017D+06 0.10739621D+01  1  2 15  4  6  5       -2 -.119552590425D-04 0.100000000000D+01
-.107304877545D-02 0.000000000000D+00 0.000000000000D+00 0.154190440252D-05 0.000000000000D+00  6 -1 1 25 2 -2 21 2 0.10371253D+00 0.10978578D+00 0.41921017D+06 0.41921017D+06 0.41921017D+06 0.10739621D+01  1  2  4  4  6  5       -2 -.359309569453D-02 0.100000000000D+01
0.422462179341D-03 0.000000000000D+00 0.000000000000D+00 0.154190440252D-05 0.137215143590D-04  6 -1 1 25 2 -2 21 2 0.10371253D+00 0.10978578D+00 0.41892807D+06 0.41892807D+06 0.41892807D+06 0.10739831D+01  1  2 11  4  6  5       -2 0.141471061153D-02 0.100000000000D+01
  </mgrwgt>
  </event>
  <event>
  7     66 0.19916237E-05 0.10074302E+03 0.75467711E-02 0.93191626E-01
       -1 -1    0    0    0  503 0.00000000E+00 0.00000000E+00 0.11108859E+04 0.11108860E+04 0.32000000E+00 0.0000E+00 0.9000E+01
        1 -1    0    0  501    0 0.00000000E+00 0.00000000E+00 -.93739883E+03 0.93739889E+03 0.32000000E+00 0.0000E+00 0.9000E+01
       23  2    1    2    0    0 0.43900985E+03 0.32438903E+03 0.40902484E+03 0.69088397E+03 0.10982463E+03 0.0000E+00 0.0000E+00
       25  1    1    2    0    0 -.45165803E+03 -.32735731E+03 -.69379274E+03 0.89896115E+03 0.12500000E+03 0.0000E+00 0.9000E+01
        2  1    3    3  502    0 0.23904890E+03 0.12392612E+03 0.15618099E+03 0.31127908E+03 0.32000000E+00 0.0000E+00 0.9000E+01
       -2  1    3    3    0  502 0.19996095E+03 0.20046291E+03 0.25284385E+03 0.37960489E+03 0.32000000E+00 0.0000E+00 0.9000E+01
       21  1    1    2  501  503 0.12648181E+02 0.29682771E+01 0.45825501E+03 0.45843974E+03 0.75000000E+00 0.0000E+00 0.9000E+01
#aMCatNLO 2  0  0  1  2 0.34175218D+02 0.00000000D+00  -5  6  0 0.00000000D+00 0.00000000D+00 0.00000000D+00 0.00000000D+00 0.00000000D+00
  <mgrwgt>
 0.1767720725D-02    1    2    0
 0.782039952155990D+03 0.000000000000000D+00 0.000000000000000D+00 0.782039952155990D+03
 0.782039952155990D+03 0.000000000000000D+00 0.000000000000000D+00 -.782039952155990D+03
 0.783179138606755D+03 -.445307666497253D+03 -.325867004038626D+03 -.541531477373643D+03
 0.347009815893351D+03 0.241846507646319D+03 0.124581944698098D+03 0.215419168415571D+03
 0.433890949811874D+03 0.203461158850933D+03 0.201285059340527D+03 0.326112308958073D+03
 0.000000000000000D+00 0.000000000000000D+00 0.000000000000000D+00 0.000000000000000D+00
 0.133139541046209D+04 0.000000000000000D+00 0.000000000000000D+00 0.133139541046209D+04
 0.782143745575194D+03 0.000000000000000D+00 0.000000000000000D+00 -.782143745575194D+03
 0.787425630765602D+03 -.451658029635749D+03 -.327357308251517D+03 -.541531477373643D+03
 0.344829627577885D+03 0.239049221030837D+03 0.123925477038407D+03 0.215419168415571D+03
 0.431878602367846D+03 0.199960627617483D+03 0.200463554124086D+03 0.326112308958073D+03
 0.549405295325953D+03 0.126481809874296D+02 0.296827708902295D+01 0.549251664886898D+03
0.303374755283D-02 0.000000000000D+00 0.000000000000D+00 0.960890729429D-07 0.403619332111D-08  6 -1 1 25 2 -2 21 2 0.17090548D+00 0.14421517D+00 0.32321836D+06 0.32321836D+06 0.32321836D+06 0.10821647D+01  1  2  1  1  6  1       -1 0.176772072479D-02 0.100000000000D+01
  </mgrwgt>
  </event>
  <event>
  7     66 0.19916237E-05 0.11043563E+03 0.75467711E-02 0.87946179E-01
       -1 -1    0    0    0  503 0.00000000E+00 0.00000000E+00 0.97857278E+03 0.97857284E+03 0.32000000E+00 0.0000E+00 0.9000E+01
        1 -1    0    0  501    0 0.00000000E+00 0.00000000E+00 -.23472113E+04 0.23472113E+04 0.32000000E+00 0.0000E+00 0.9000E+01
       23  2    1    2    0    0 0.70824454E+03 -.61521595E+03 -.15773604E+04 0.18376659E+04 0.94070464E+02 0.0000E+00 0.0000E+00
       25  1    1    2    0    0 -.60075396E+03 0.52404049E+03 -.37342218E+03 0.88915290E+03 0.12500000E+03 0.0000E+00 0.9000E+01
        2  1    3    3  502    0 0.20482021E+03 -.18897594E+03 -.38928703E+03 0.47875643E+03 0.32000000E+00 0.0000E+00 0.9000E+01
       -2  1    3    3    0  502 0.50342433E+03 -.42624001E+03 -.11880734E+04 0.13589095E+04 0.32000000E+00 0.0000E+00 0.9000E+01
       21  1    1    2  501  503 -.10749058E+03 0.91175467E+02 0.58214406E+03 0.59896533E+03 0.75000000E+00 0.0000E+00 0.9000E+01
#aMCatNLO 2  0  0  1  2 0.34175218D+02 0.00000000D+00  -5  6  0 0.00000000D+00 0.00000000D+00 0.00000000D+00 0.00000000D+00 0.00000000D+00
  <mgrwgt>
 0.2625841258D-04    1    2    0
 0.950015933086470D+03 0.000000000000000D+00 0.000000000000000D+00 0.950015933086470D+03
 0.950015933086470D+03 0.000000000000000D+00 0.000000000000000D+00 -.950015933086470D+03
 0.951798994711687D+03 -.652786769305861D+03 0.568175662899974D+03 0.375955018907276D+03
 0.266738873699618D+03 0.189186012035098D+03 -.175714915802944D+03 -.669518331127721D+02
 0.681493997761636D+03 0.463600757270763D+03 -.392460747097030D+03 -.309003185794504D+03
 0.000000000000000D+00 -.000000000000000D+00 0.000000000000000D+00 0.000000000000000D+00
 0.240250171321457D+04 0.000000000000000D+00 0.000000000000000D+00 0.240250171321457D+04
 0.956052079268250D+03 0.000000000000000D+00 0.000000000000000D+00 -.956052079268250D+03
 0.890219595878876D+03 -.600753959151724D+03 0.524040488138759D+03 0.375955018907276D+03
 0.286606558447857D+03 0.204816754291265D+03 -.188973195320807D+03 -.669518331127721D+02
 0.728426659335828D+03 0.503427789559090D+03 -.426242759351582D+03 -.309003185794504D+03
 0.145330097882026D+04 -.107490584698631D+03 0.911754665336304D+02 0.144644963394632D+04
0.333501231710D-03 0.000000000000D+00 0.000000000000D+00 0.424588445144D-05 0.175485005498D-08  6 -1 1 25 2 -2 21 2 0.15054965D+00 0.36110940D+00 0.88944123D+06 0.88944123D+06 0.88944123D+06 0.10512679D+01  1  2  1  1  6  1       -1 0.262584125769D-04 0.100000000000D+01
  </mgrwgt>
  </event>
  <event>
  6     66 0.19916237E-05 0.33306516E+02 0.75467711E-02 0.89793476E-01
       -1 -1    0    0    0  501 0.00000000E+00 0.00000000E+00 0.37168421E+03 0.37168435E+03 0.32000000E+00 0.0000E+00 0.9000E+01
        1 -1    0    0  501    0 -.00000000E+00 -.00000000E+00 -.19655918E+04 0.19655919E+04 0.32000000E+00 0.0000E+00 0.9000E+01
       25  1    1    2    0    0 -.74784589E+03 0.34357375E+01 -.12329487E+04 0.14474366E+04 0.12500000E+03 0.0000E+00 0.9000E+01
        2  1    1    2  502    0 0.55657105E+03 0.45513170E+01 -.21586257E+03 0.59698308E+03 0.32000000E+00 0.0000E+00 0.9000E+01
       -2  1    1    2    0  503 0.20745867E+03 0.31635247E+02 -.13269374E+03 0.24828939E+03 0.32000000E+00 0.0000E+00 0.9000E+01
       21  1    1    2  503  502 -.16183823E+02 -.39622302E+02 -.12402643E+02 0.44567152E+02 0.75000000E+00 0.0000E+00 0.9000E+01
#aMCatNLO 2  0  0  5  4 0.12219789D+01 0.00000000D+00  -5  6  0 0.00000000D+00 0.00000000D+00 0.00000000D+00 0.00000000D+00 0.00000000D+00
  <mgrwgt>
 0.7120840079D-02    1    2    0
 0.854739520845570D+03 0.000000000000000D+00 0.000000000000000D+00 0.854739520845570D+03
 0.854739520845570D+03 -.000000000000000D+00 -.000000000000000D+00 -.854739520845570D+03
 0.858991534865730D+03 -.775741527766737D+03 0.460056530054159D+01 -.347052407955957D+03
 0.594176476430241D+03 0.537148753694277D+03 0.538805039937934D+01 0.253944620853910D+03
 0.256311030395168D+03 0.238592774072460D+03 -.998861569992093D+01 0.931077871020469D+02
 0.000000000000000D+00 -.000000000000000D+00 0.000000000000000D+00 0.000000000000000D+00
 0.854739520845570D+03 0.000000000000000D+00 0.000000000000000D+00 0.854739520845570D+03
 0.854739520845570D+03 -.000000000000000D+00 -.000000000000000D+00 -.854739520845570D+03
 0.829384237337408D+03 -.747823166427025D+03 0.343177138598147D+01 -.336157623510111D+03
 0.615592259863610D+03 0.557153044962485D+03 0.455057668038593D+01 0.261751040389323D+03
 0.215078698702330D+03 0.206829938366293D+03 0.316916504771191D+02 0.497580397616208D+02
 0.494238457877924D+02 -.161598169017531D+02 -.396739985434865D+02 0.246485433591670D+02
0.531916161990D-02 0.000000000000D+00 0.000000000000D+00 0.319883051460D-07 0.292855427454D-07  6 -1 1 25 2 -2 21 2 0.57182199D-01 0.30239876D+00 0.61423291D+06 0.61423291D+06 0.61423291D+06 0.10622514D+01  1  2  1  4  6  5       -2 0.712084007901D-02 0.100000000000D+01
  </mgrwgt>
  </event>
  <event>
  7     66 0.19916237E-05 0.49971601E+02 0.75467711E-02 0.94271127E-01
       -1 -1    0    0    0  503 0.00000000E+00 0.00000000E+00 0.36855426E+03 0.36855440E+03 0.32000000E+00 0.0000E+00 0.9000E+01
        1 -1    0    0  501    0 0.00000000E+00 0.00000000E+00 -.92445373E+03 0.92445378E+03 0.32000000E+00 0.0000E+00 0.9000E+01
       23  2    1    2    0    0 0.46253446E+03 0.12879910E+03 -.25887708E+03 0.55326535E+03 0.92508764E+02 0.0000E+00 0.0000E+00
       25  1    1    2    0    0 -.48558737E+03 -.10686324E+03 -.38826382E+03 0.64310858E+03 0.12500000E+03 0.0000E+00 0.9000E+01
        2  1    3    3  502    0 0.16300175E+03 0.44575236E+01 -.10789763E+03 0.19552862E+03 0.32000000E+00 0.0000E+00 0.9000E+01
       -2  1    3    3    0  502 0.29953270E+03 0.12434158E+03 -.15097944E+03 0.35773673E+03 0.32000000E+00 0.0000E+00 0.9000E+01
       21  1    1    2  501  503 0.23052915E+02 -.21935861E+02 0.91241426E+02 0.96634255E+02 0.75000000E+00 0.0000E+00 0.9000E+01
#aMCatNLO 2  0  0  1  2 0.34175218D+02 0.00000000D+00  -5  6  0 0.00000000D+00 0.00000000D+00 0.00000000D+00 0.00000000D+00 0.00000000D+00
  <mgrwgt>
 0.6306905342D-03    1    2    0
 0.502868423819669D+03 0.000000000000000D+00 0.000000000000000D+00 0.502868423819669D+03
 0.502868423819669D+03 0.000000000000000D+00 0.000000000000000D+00 -.502868423819669D+03
 0.506381832298347D+03 -.473885412999496D+03 -.117998169697314D+03 -.480271524891123D+02
 0.166801350795039D+03 0.166779854226478D+03 0.859503736513894D+00 -.253615941366710D+01
 0.332553664545952D+03 0.307105558773018D+03 0.117138665960800D+03 0.505633119027794D+02
 0.000000000000000D+00 0.000000000000000D+00 -.000000000000000D+00 0.000000000000000D+00
 0.675220852201228D+03 0.000000000000000D+00 0.000000000000000D+00 0.675220852201228D+03
 0.504591039464580D+03 0.000000000000000D+00 0.000000000000000D+00 -.504591039464580D+03
 0.514923737292303D+03 -.485587371343328D+03 -.106863242711130D+03 -.480271524891123D+02
 0.163080737826574D+03 0.163000117216942D+03 0.445608940119764D+01 -.253615941366710D+01
 0.328235667989281D+03 0.299534338686090D+03 0.124343014189291D+03 0.505633119027794D+02
 0.173571748557649D+03 0.230529154402951D+02 -.219358608793587D+02 0.170629812736649D+03
0.796811340582D-04 0.000000000000D+00 0.000000000000D+00 0.212753204981D-04 0.138113510938D-06  6 -1 1 25 2 -2 21 2 0.56700579D-01 0.14222344D+00 0.26619384D+06 0.26619384D+06 0.26619384D+06 0.10884144D+01  1  2  1  1  6  1       -1 0.630690534160D-03 0.100000000000D+01
  </mgrwgt>
  </event>
  <event>
  7     66 0.19916237E-05 0.46747885E+02 0.75467711E-02 0.93573081E-01
       -1 -1    0    0    0  501 0.00000000E+00 0.00000000E+00 0.35695158E+03 0.35695173E+03 0.32000000E+00 0.0000E+00 0.9000E+01
        1 -1    0    0  503    0 0.00000000E+00 0.00000000E+00 -.13497344E+04 0.13497345E+04 0.32000000E+00 0.0000E+00 0.9000E+01
       23  2    1    2    0    0 0.48733599E+03 -.21341023E+03 -.41949842E+02 0.54772718E+03 0.12330848E+03 0.0000E+00 0.0000E+00
       25  1    1    2    0    0 -.47762795E+03 0.19197109E+03 -.57281086E+03 0.78020423E+03 0.12500000E+03 0.0000E+00 0.9000E+01
        2  1    3    3  502    0 0.42545717E+03 -.13726792E+03 -.21936429E+02 0.44759088E+03 0.32000000E+00 0.0000E+00 0.9000E+01
       -2  1    3    3    0  502 0.61878818E+02 -.76142310E+02 -.20013413E+02 0.10013630E+03 0.32000000E+00 0.0000E+00 0.9000E+01
       21  1    1    2  503  501 -.97080358E+01 0.21439141E+02 -.37802215E+03 0.37875479E+03 0.75000000E+00 0.0000E+00 0.9000E+01
#aMCatNLO 2  0  0  2  1 0.52246702D+02 0.00000000D+00  -5  6  0 0.00000000D+00 0.00000000D+00 0.00000000D+00 0.00000000D+00 0.00000000D+00
  <mgrwgt>
 0.5461675734D-03    1    2    0
 0.588412528879082D+03 0.000000000000000D+00 0.000000000000000D+00 0.588412528879082D+03
 0.588412528879082D+03 0.000000000000000D+00 0.000000000000000D+00 -.588412528879082D+03
 0.588591005103603D+03 -.482451822674482D+03 0.202624046584636D+03 -.238742760796231D+03
 0.487595099745554D+03 0.421413277047670D+03 -.128332546893108D+03 0.209022938051661D+03
 0.100638952909008D+03 0.610385456268122D+02 -.742914996915284D+02 0.297198227445698D+02
 0.000000000000000D+00 -.000000000000000D+00 0.000000000000000D+00 -.000000000000000D+00
 0.589134167610450D+03 0.000000000000000D+00 0.000000000000000D+00 0.589134167610450D+03
 0.817791640755657D+03 0.000000000000000D+00 0.000000000000000D+00 -.817791640755657D+03
 0.581037421697840D+03 -.477627970784404D+03 0.191971094451847D+03 -.238742760796231D+03
 0.493506911885464D+03 0.425459596959805D+03 -.137268404237025D+03 0.209022938051661D+03
 0.102516029903580D+03 0.618764096230723D+02 -.761418311795878D+02 0.297198227445698D+02
 0.229865444879222D+03 -.970803579847282D+01 0.214391409647658D+02 -.228657473145208D+03
0.134603832206D-03 0.000000000000D+00 0.000000000000D+00 0.203666520261D-07 0.242850530042D-09  6 -1 1 25 2 -2 21 2 0.54915585D-01 0.20765125D+00 0.30163521D+06 0.30163521D+06 0.30163521D+06 0.10843772D+01  1  2  1  2  6  2        1 0.546167573422D-03 0.100000000000D+01
  </mgrwgt>
  </event>
  <event>
  7     66 0.19916237E-05 0.34548985E+02 0.75467711E-02 0.93625218E-01
       -1 -1    0    0    0  501 0.00000000E+00 0.00000000E+00 0.16325478E+04 0.16325478E+04 0.32000000E+00 0.0000E+00 0.9000E+01
       21 -1    0    0  501  503 0.00000000E+00 0.00000000E+00 -.35536348E+03 0.35536427E+03 0.75000000E+00 0.0000E+00 0.9000E+01
       23  2    1    2    0    0 0.11462615E+03 0.52127862E+03 0.10670565E+04 0.11964534E+04 0.89557266E+02 0.0000E+00 0.0000E+00
       25  1    1    2    0    0 -.12272643E+03 -.50873244E+03 0.35578249E+03 0.64504004E+03 0.12500000E+03 0.0000E+00 0.9000E+01
        2  1    3    3  502    0 0.50693403E+02 0.82130234E+02 0.21821150E+03 0.23860335E+03 0.32000000E+00 0.0000E+00 0.9000E+01
       -2  1    3    3    0  502 0.63932746E+02 0.43914839E+03 0.84884503E+03 0.95785004E+03 0.32000000E+00 0.0000E+00 0.9000E+01
       -1  1    1    2    0  503 0.81002804E+01 -.12546177E+02 -.14565473E+03 0.14641866E+03 0.32000000E+00 0.0000E+00 0.9000E+01
#aMCatNLO 2  0  0  2  1 0.52246702D+02 0.00000000D+00  -5  6  0 0.00000000D+00 0.00000000D+00 0.00000000D+00 0.00000000D+00 0.00000000D+00
  <mgrwgt>
 0.1796348430D-03    1    2    0
 0.584466451482284D+03 0.000000000000000D+00 0.000000000000000D+00 0.584466451482284D+03
 0.584466451482284D+03 0.000000000000000D+00 0.000000000000000D+00 -.584466451482284D+03
 0.587719202834042D+03 -.118670050742224D+03 -.515015193059263D+03 -.224645568295593D+03
 0.109742373533682D+03 0.514554829889554D+02 0.809450599529537D+02 0.533255950589601D+02
 0.471471326596844D+03 0.672145677532685D+02 0.434070133106309D+03 0.171319973236633D+03
 0.000000000000000D+00 0.000000000000000D+00 -.000000000000000D+00 -.000000000000000D+00
 0.584650874257933D+03 0.000000000000000D+00 0.000000000000000D+00 0.584650874257933D+03
 0.992299135292203D+03 0.000000000000000D+00 0.000000000000000D+00 -.992299135292203D+03
 0.583061837358956D+03 -.122726428912126D+03 -.508732442916735D+03 -.224645568295593D+03
 0.110263546017063D+03 0.506932335343794D+02 0.821256754352360D+02 0.533255950589601D+02
 0.475702910862962D+03 0.639329149351697D+02 0.439152944384513D+03 0.171319973236633D+03
 0.407921715311154D+03 0.810028044257705D+01 -.125461769030139D+02 -.407648261034270D+03
0.826930940495D-04 0.000000000000D+00 0.000000000000D+00 0.785398412487D-05 0.148710550063D-07  6 -1 21 25 2 -2 -1 2 0.25116123D+00 0.54671362D-01 0.29881273D+06 0.29881273D+06 0.29881273D+06 0.10846793D+01  1  2  1  6  6  2        1 0.179634842961D-03 0.100000000000D+01
  </mgrwgt>
  </event>
  <event>
  7     66 0.19916237E-05 0.38968269E+02 0.75467711E-02 0.87518637E-01
       -1 -1    0    0    0  501 0.00000000E+00 0.00000000E+00 0.68298059E+03 0.68298066E+03 0.32000000E+00 0.0000E+00 0.9000E+01
        1 -1    0    0  503    0 0.00000000E+00 0.00000000E+00 -.28123091E+04 0.28123091E+04 0.32000000E+00 0.0000E+00 0.9000E+01
       23  2    1    2    0    0 0.85308007E+03 -.43447365E+03 -.92690961E+02 0.96629935E+03 0.92897086E+02 0.0000E+00 0.0000E+00
       25  1    1    2    0    0 -.85206197E+03 0.46555103E+03 -.72799705E+03 0.12199804E+04 0.12500000E+03 0.0000E+00 0.9000E+01
        2  1    3    3  502    0 0.20014243E+03 -.14253678E+03 -.42000828E+02 0.24927475E+03 0.32000000E+00 0.0000E+00 0.9000E+01
       -2  1    3    3    0  502 0.65293764E+03 -.29193686E+03 -.50690133E+02 0.71702461E+03 0.32000000E+00 0.0000E+00 0.9000E+01
       21  1    1    2  503  501 -.10180984E+01 -.31077384E+02 -.13086405E+04 0.13090100E+04 0.75000000E+00 0.0000E+00 0.9000E+01
#aMCatNLO 2  0  0  2  1 0.52246702D+02 0.00000000D+00  -5  6  0 0.00000000D+00 0.00000000D+00 0.00000000D+00 0.00000000D+00 0.00000000D+00
  <mgrwgt>
 0.2191234722D-03    1    2    0
 0.101307987468006D+04 0.000000000000000D+00 0.000000000000000D+00 0.101307987468006D+04
 0.101307987468006D+04 0.000000000000000D+00 0.000000000000000D+00 -.101307987468006D+04
 0.101480607902502D+04 -.852573516880152D+03 0.449936224584695D+03 -.291345448131962D+03
 0.254041444535658D+03 0.200009945390722D+03 -.146415066817760D+03 0.556390644719607D+02
 0.757312225799436D+03 0.652563571489430D+03 -.303521157766934D+03 0.235706383660001D+03
 0.000000000000000D+00 -.000000000000000D+00 -.000000000000000D+00 -.000000000000000D+00
 0.101347320437259D+04 0.000000000000000D+00 0.000000000000000D+00 0.101347320437259D+04
 0.189521740347256D+04 0.000000000000000D+00 0.000000000000000D+00 -.189521740347256D+04
 0.102139832558396D+04 -.852061974192786D+03 0.465551029956102D+03 -.291345448131962D+03
 0.251926132852658D+03 0.200137056408492D+03 -.142535011737201D+03 0.556390644719607D+02
 0.753073866234352D+03 0.652943016185027D+03 -.291938634514650D+03 0.235706383660001D+03
 0.882292283174177D+03 -.101809840073395D+01 -.310773837042512D+02 -.881744199099970D+03
0.237559044746D-02 0.000000000000D+00 0.000000000000D+00 0.117340850204D-04 0.858633837799D-07  6 -1 1 25 2 -2 21 2 0.10507393D+00 0.43266287D+00 0.97121065D+06 0.97121065D+06 0.97121065D+06 0.10487095D+01  1  2  1  2  6  2        1 0.219123472216D-03 0.100000000000D+01
  </mgrwgt>
  </event>
  <event>
  7     66 0.19916237E-05 0.53254309E+02 0.75467711E-02 0.93382068E-01
       -1 -1    0    0    0  501 0.00000000E+00 0.00000000E+00 0.85868780E+03 0.85868786E+03 0.32000000E+00 0.0000E+00 0.9000E+01
        1 -1    0    0  503    0 0.00000000E+00 0.00000000E+00 -.53708654E+03 0.53708664E+03 0.32000000E+00 0.0000E+00 0.9000E+01
       23  2    1    2    0    0 0.37242544E+03 0.37527977E+03 0.50526697E+03 0.73588482E+03 0.81829983E+02 0.0000E+00 0.0000E+00
       25  1    1    2    0    0 -.39661977E+03 -.30864899E+03 -.65380481E+02 0.52198759E+03 0.12500000E+03 0.0000E+00 0.9000E+01
        2  1    3    3  502    0 0.56586601E+02 0.61867266E+02 0.12534590E+03 0.15080219E+03 0.32000000E+00 0.0000E+00 0.9000E+01
       -2  1    3    3    0  502 0.31583883E+03 0.31341250E+03 0.37992107E+03 0.58508263E+03 0.32000000E+00 0.0000E+00 0.9000E+01
       21  1    1    2  503  501 0.24194333E+02 -.66630782E+02 -.11828523E+03 0.13790209E+03 0.75000000E+00 0.0000E+00 0.9000E+01
#aMCatNLO 2  0  0  2  1 0.52246702D+02 0.00000000D+00  -5  6  0 0.00000000D+00 0.00000000D+00 0.00000000D+00 0.00000000D+00 0.00000000D+00
  <mgrwgt>
 0.2329227505D-03    1    2    0
 0.588157686227410D+03 0.000000000000000D+00 0.000000000000000D+00 0.588157686227410D+03
 0.588157686227410D+03 0.000000000000000D+00 0.000000000000000D+00 -.588157686227410D+03
 0.591952949876159D+03 -.384562230487446D+03 -.341855244494330D+03 -.264632155191559D+03
 0.112038212157639D+03 0.589068570665042D+02 0.554625553300104D+02 0.775012782494075D+02
 0.472324210421022D+03 0.325655373420941D+03 0.286392689164320D+03 0.187130876942151D+03
 0.000000000000000D+00 0.000000000000000D+00 -.000000000000000D+00 -.000000000000000D+00
 0.596032181243600D+03 0.000000000000000D+00 0.000000000000000D+00 0.596032181243600D+03
 0.773764673683550D+03 0.000000000000000D+00 0.000000000000000D+00 -.773764673683550D+03
 0.581572537620694D+03 -.396619768838514D+03 -.308648988204609D+03 -.264632155191559D+03
 0.114171474200425D+03 0.565826365892282D+02 0.618634191377880D+02 0.775012782494075D+02
 0.482705343190947D+03 0.315842799606595D+03 0.313416351163464D+03 0.187130876942151D+03
 0.191347499915082D+03 0.241943326426906D+02 -.666307820966434D+02 -.177732492439950D+03
0.800299610758D-04 0.000000000000D+00 0.000000000000D+00 0.296123940997D-06 0.376484785068D-09  6 -1 1 25 2 -2 21 2 0.13210567D+00 0.82628610D-01 0.31223409D+06 0.31223409D+06 0.31223409D+06 0.10832699D+01  1  2  1  2  6  2        1 0.232922750490D-03 0.100000000000D+01
  </mgrwgt>
  </event>
  <event>
  7     66 0.19916237E-05 0.43630350E+02 0.75467711E-02 0.93572839E-01
       -1 -1    0    0    0  503 0.00000000E+00 0.00000000E+00 0.40988023E+03 0.40988036E+03 0.32000000E+00 0.0000E+00 0.9000E+01
        1 -1    0    0  501    0 0.00000000E+00 0.00000000E+00 -.75124814E+03 0.75124821E+03 0.32000000E+00 0.0000E+00 0.9000E+01
       23  2    1    2    0    0 -.36195499E+03 -.40021288E+03 -.19446832E+03 0.58101984E+03 0.92651879E+02 0.0000E+00 0.0000E+00
       25  1    1    2    0    0 0.33890164E+03 0.37870262E+03 -.11619842E+03 0.53609427E+03 0.12500000E+03 0.0000E+00 0.9000E+01
        2  1    3    3  502    0 -.82280986E+02 -.13525821E+03 -.25569287E+02 0.16037093E+03 0.32000000E+00 0.0000E+00 0.9000E+01
       -2  1    3    3    0  502 -.27967400E+03 -.26495466E+03 -.16889903E+03 0.42064891E+03 0.32000000E+00 0.0000E+00 0.9000E+01
       21  1    1    2  501  503 0.23053343E+02 0.21510259E+02 -.30701173E+02 0.44014457E+02 0.75000000E+00 0.0000E+00 0.9000E+01
#aMCatNLO 2  0  0  1  4 0.80158191D+02 0.00000000D+00  -5  6  0 0.00000000D+00 0.00000000D+00 0.00000000D+00 0.00000000D+00 0.00000000D+00
  <mgrwgt>
 0.3236613903D-03    1    2    0
 0.536291892822675D+03 0.000000000000000D+00 0.000000000000000D+00 0.536291892822675D+03
 0.536291892822675D+03 0.000000000000000D+00 0.000000000000000D+00 -.536291892822675D+03
 0.539573981139078D+03 0.350334057080806D+03 0.389369797662031D+03 0.342387242782998D+02
 0.155139362118895D+03 -.788974939724248D+02 -.132101846090647D+03 0.198118495595885D+02
 0.377870442387376D+03 -.271436563108382D+03 -.257267951571384D+03 -.540505738378883D+02
 0.000000000000000D+00 0.000000000000000D+00 0.000000000000000D+00 -.000000000000000D+00
 0.545377015072294D+03 0.000000000000000D+00 0.000000000000000D+00 0.545377015072294D+03
 0.564595876186429D+03 0.000000000000000D+00 0.000000000000000D+00 -.564595876186429D+03
 0.524468576399601D+03 0.338901644401452D+03 0.378702617910690D+03 0.342387242782998D+02
 0.159551397390066D+03 -.822786318823668D+02 -.135256666237628D+03 0.198118495595885D+02
 0.389027147764218D+03 -.279676355465649D+03 -.264956210266544D+03 -.540505738378883D+02
 0.369257697048380D+02 0.230533429465637D+02 0.215102585934816D+02 -.192188611141350D+02
0.361066253294D-04 0.000000000000D+00 0.000000000000D+00 0.132764703103D-04 0.838380813243D-07  6 -1 1 25 2 -2 21 2 0.63058076D-01 0.11557585D+00 0.30164837D+06 0.30164837D+06 0.30164837D+06 0.10843758D+01  1  2  1  1  6  1       -1 0.323661390289D-03 0.100000000000D+01
  </mgrwgt>
  </event>
  <event>
  6     66 0.19916237E-05 0.19295709E+03 0.75467711E-02 0.91737546E-01
       21 -1    0    0  503  501 0.00000000E+00 0.00000000E+00 0.22903223E+03 0.22903346E+03 0.75000000E+00 0.0000E+00 0.9000E+01
        1 -1    0    0  501    0 0.00000000E+00 0.00000000E+00 -.19994669E+04 0.19994669E+04 0.32000000E+00 0.0000E+00 0.9000E+01
       25  1    1    2    0    0 0.16395022E+03 -.59583478E+03 -.11606070E+04 0.13208074E+04 0.12500000E+03 0.0000E+00 0.9000E+01
        2  1    1    2  502    0 -.20130473E+03 0.28822806E+03 -.33797967E+03 0.48767752E+03 0.32000000E+00 0.0000E+00 0.9000E+01
        1  1    1    2  503    0 0.51927144E+02 0.12486020E+03 -.13646411E+03 0.19211729E+03 0.32000000E+00 0.0000E+00 0.9000E+01
       -2  1    1    2    0  502 -.14572637E+02 0.18274652E+03 -.13538395E+03 0.22789815E+03 0.32000000E+00 0.0000E+00 0.9000E+01
#aMCatNLO 2  0  0  1  4 0.80158191D+02 0.00000000D+00  -5  6  0 0.00000000D+00 0.00000000D+00 0.00000000D+00 0.00000000D+00 0.00000000D+00
  <mgrwgt>
 0.6734104214D+00    1    2    0
 0.603885299098339D+03 0.000000000000000D+00 0.000000000000000D+00 0.603885299098339D+03
 0.603885299098339D+03 0.000000000000000D+00 0.000000000000000D+00 -.603885299098339D+03
 0.602258245614645D+03 0.190844796946497D+03 -.531166148882336D+03 -.168910568558600D+03
 0.386154047036300D+03 -.185256486508767D+03 0.326818987866807D+03 0.893550861375915D+02
 0.000000000000000D+00 0.000000000000000D+00 0.000000000000000D+00 0.000000000000000D+00
 0.219358305545731D+03 -.558831043772983D+01 0.204347161015529D+03 0.795554824210090D+02
 0.691696979641323D+03 0.000000000000000D+00 0.000000000000000D+00 0.691696979641323D+03
 0.662057987162889D+03 0.000000000000000D+00 0.000000000000000D+00 -.662057987162889D+03
 0.652728585756263D+03 0.163950238042807D+03 -.595834831088523D+03 -.168910568558600D+03
 0.362745109658758D+03 -.201305509477922D+03 0.288228685277025D+03 0.893550861375915D+02
 0.138437594448383D+03 0.519271441929473D+02 0.124860199333027D+03 0.296389924784341D+02
 0.199843676940808D+03 -.145718727578318D+02 0.182745946478471D+03 0.795554824210090D+02
0.212459448872D-01 0.000000000000D+00 0.000000000000D+00 0.157603629201D-07 0.106017633140D-08  6 21 1 25 2 1 -2 2 0.35235814D-01 0.30761031D+00 0.42290046D+06 0.42290046D+06 0.42290046D+06 0.10736890D+01  1  2  1  5  5  1       -1 0.673410421418D+00 0.100000000000D+01
  </mgrwgt>
  </event>
  <event>
  7     66 0.19916237E-05 0.37596193E+02 0.75467711E-02 0.93371300E-01
       -1 -1    0    0    0  503 0.00000000E+00 0.00000000E+00 0.21875791E+03 0.21875815E+03 0.32000000E+00 0.0000E+00 0.9000E+01
        1 -1    0    0  501    0 0.00000000E+00 0.00000000E+00 -.21156854E+04 0.21156854E+04 0.32000000E+00 0.0000E+00 0.9000E+01
       23  2    1    2    0    0 -.30916249E+03 -.44544813E+03 -.83447920E+03 0.99945223E+03 0.92432337E+02 0.0000E+00 0.0000E+00
       25  1    1    2    0    0 0.28535481E+03 0.44760077E+03 -.11346670E+04 0.12589154E+04 0.12500000E+03 0.0000E+00 0.9000E+01
        2  1    3    3  502    0 -.36092004E+02 -.11605250E+03 -.16507415E+03 0.20498876E+03 0.32000000E+00 0.0000E+00 0.9000E+01
       -2  1    3    3    0  502 -.27307049E+03 -.32939562E+03 -.66940505E+03 0.79446346E+03 0.32000000E+00 0.0000E+00 0.9000E+01
       21  1    1    2  501  503 0.23807676E+02 -.21526479E+01 0.72218722E+02 0.76075921E+02 0.75000000E+00 0.0000E+00 0.9000E+01
#aMCatNLO 2  0  0  1  2 0.16300800D+01 0.00000000D+00  -5  6  0 0.00000000D+00 0.00000000D+00 0.00000000D+00 0.00000000D+00 0.00000000D+00
  <mgrwgt>
 0.6907006579D-03    1    2    0
 0.552746822660366D+03 0.000000000000000D+00 0.000000000000000D+00 0.552746822660366D+03
 0.552746822660366D+03 0.000000000000000D+00 0.000000000000000D+00 -.552746822660366D+03
 0.555949583311293D+03 0.297268061253882D+03 0.446523598431794D+03 -.755202951919606D+02
 0.124172056832037D+03 -.334097126515961D+02 -.116292216964110D+03 0.279036032083438D+02
 0.425372005177401D+03 -.263858348602286D+03 -.330231381467684D+03 0.476166919836168D+02
 0.000000000000000D+00 0.000000000000000D+00 -.000000000000000D+00 0.000000000000000D+00
 0.836355492988470D+03 0.000000000000000D+00 0.000000000000000D+00 0.836355492988470D+03
 0.553379986009183D+03 0.000000000000000D+00 0.000000000000000D+00 -.553379986009183D+03
 0.550547125476245D+03 0.285354814830994D+03 0.447600773052331D+03 -.755202951919606D+02
 0.124694140775671D+03 -.360891642169572D+02 -.116049945703976D+03 0.279036032083438D+02
 0.430510803233949D+03 -.273073326581651D+03 -.329398179496045D+03 0.476166919836168D+02
 0.283983409511787D+03 0.238076759676146D+02 -.215264785231040D+01 0.282975506979287D+03
0.232957487407D-03 0.000000000000D+00 0.000000000000D+00 0.144480622933D-04 0.171875536753D-06  6 -1 1 25 2 -2 21 2 0.33655053D-01 0.32548979D+00 0.31284389D+06 0.31284389D+06 0.31284389D+06 0.10832074D+01  1  2  1  1  6  1       -1 0.690700657940D-03 0.100000000000D+01
  </mgrwgt>
  </event>
  <event>
  7     66 0.19916237E-05 0.21344942E+02 0.75467711E-02 0.92316645E-01
       21 -1    0    0  503  501 0.00000000E+00 0.00000000E+00 0.46627493E+03 0.46627553E+03 0.75000000E+00 0.0000E+00 0.9000E+01
        1 -1    0    0  501    0 0.00000000E+00 0.00000000E+00 -.16940670E+04 0.16940670E+04 0.32000000E+00 0.0000E+00 0.9000E+01
       23  2    1    2    0    0 0.10121767E+03 -.59286667E+03 -.37736126E+03 0.71595266E+03 0.91928230E+02 0.0000E+00 0.0000E+00
       25  1    1    2    0    0 -.65871781E+02 0.57305742E+03 -.10695285E+04 0.12215769E+04 0.12500000E+03 0.0000E+00 0.9000E+01
        2  1    3    3  502    0 0.82628807E+02 -.49115286E+03 -.35080292E+03 0.60919737E+03 0.32000000E+00 0.0000E+00 0.9000E+01
        1  1    1    2  503    0 -.35345888E+02 0.19809246E+02 0.21909768E+03 0.22281301E+03 0.32000000E+00 0.0000E+00 0.9000E+01
       -2  1    3    3    0  502 0.18588862E+02 -.10171381E+03 -.26558339E+02 0.10675529E+03 0.32000000E+00 0.0000E+00 0.9000E+01
#aMCatNLO 2  0  0  1  2 0.16300800D+01 0.00000000D+00  -5  6  0 0.00000000D+00 0.00000000D+00 0.00000000D+00 0.00000000D+00 0.00000000D+00
  <mgrwgt>
 0.2174451667D-03    1    2    0
 0.643989340179053D+03 0.000000000000000D+00 0.000000000000000D+00 0.643989340179053D+03
 0.643989340179053D+03 0.000000000000000D+00 0.000000000000000D+00 -.643989340179053D+03
 0.646774402002184D+03 -.834667458177210D+02 0.582918340752169D+03 -.236498704949143D+03
 0.512524634034431D+03 0.684367009341164D+02 -.483203320294385D+03 0.156564586397639D+03
 0.000000000000000D+00 -.000000000000000D+00 0.000000000000000D+00 0.000000000000000D+00
 0.128679644321491D+03 0.150300448836047D+02 -.997150204577840D+02 0.799341185515040D+02
 0.122462472013550D+04 0.000000000000000D+00 0.000000000000000D+00 0.122462472013550D+04
 0.645015186381568D+03 0.000000000000000D+00 0.000000000000000D+00 -.645015186381568D+03
 0.635838451226104D+03 -.658717809357512D+02 0.573057420413820D+03 -.236498704949143D+03
 0.522088003937369D+03 0.826295830541866D+02 -.491157577713847D+03 0.156564586397639D+03
 0.581024052554035D+03 -.353458880693026D+02 0.198092459335762D+02 0.579609533753932D+03
 0.130689398799558D+03 0.185880859508672D+02 -.101709088633549D+03 0.799341185515040D+02
0.200216973349D-04 0.000000000000D+00 0.000000000000D+00 0.224084106855D-04 0.727810043609D-08  6 21 1 25 2 1 -2 2 0.71734649D-01 0.26062572D+00 0.37957371D+06 0.37957371D+06 0.37957371D+06 0.10770725D+01  1  2  1  5  5  1       -1 0.217445166658D-03 0.100000000000D+01
  </mgrwgt>
  </event>
</LesHouchesEvents>
