<event>
 5    0  0.2754780E-002  0.4835620E+03  0.7546771E-02  0.1018161E+00
          2   -1    0    0  503    0  0.00000000000E+00  0.00000000000E+00  0.19008298104E+03  0.19008298104E+03  0.00000000000E+00 0.  1.
         -2   -1    0    0    0  501 -0.00000000000E+00 -0.00000000000E+00 -0.30753962760E+03  0.30753962760E+03  0.00000000000E+00 0. -1.
         25    1    1    2    0    0  0.16212696455E+03 -0.14091071046E+03 -0.11102288487E+03  0.27219857075E+03  0.12500000000E+03 0.  0.
         21    1    1    2  502  501 -0.75106614565E+01  0.28455951781E+02  0.15012834655E+02  0.33038408431E+02  0.00000000000E+00 0.  1.
         21    1    1    2  503  502 -0.15461630309E+03  0.11245475867E+03 -0.21446596351E+02  0.19238562946E+03  0.00000000000E+00 0.  1.
<mgrwt>
<rscale>  4 0.48356199E+03</rscale>
<asrwt>0</asrwt>
<pdfrwt beam="1">  1        2 0.29243536E-01 0.48356199E+03</pdfrwt>
<pdfrwt beam="2">  1       -2 0.47313789E-01 0.48356199E+03</pdfrwt>
<totfact> 0.77888816E+02</totfact>
</mgrwt>
</event>
<event>
 5    0  0.2754780E-002  0.4927287E+03  0.7546771E-02  0.1015694E+00
         -1   -1    0    0    0  501 -0.00000000000E+00  0.00000000000E+00  0.44831326991E+03  0.44831326991E+03  0.00000000000E+00 0.  1.
          1   -1    0    0  502    0  0.00000000000E+00 -0.00000000000E+00 -0.13538610371E+03  0.13538610371E+03  0.00000000000E+00 0. -1.
         25    1    1    2    0    0 -0.21937009146E+03  0.14432537217E+02  0.20601948303E+03  0.32619099090E+03  0.12500000000E+03 0.  0.
         21    1    1    2  502  503  0.14606821944E+03 -0.33783616695E+02  0.37088390242E+02  0.15444353718E+03  0.00000000000E+00 0. -1.
         21    1    1    2  503  501  0.73301872020E+02  0.19351079478E+02  0.69819292936E+02  0.10306484553E+03  0.00000000000E+00 0. -1.
<mgrwt>
<rscale>  4 0.49272868E+03</rscale>
<asrwt>0</asrwt>
<pdfrwt beam="1">  1        1 0.20828632E-01 0.49272868E+03</pdfrwt>
<pdfrwt beam="2">  1       -1 0.68971271E-01 0.49272868E+03</pdfrwt>
<totfact> 0.53475817E+02</totfact>
</mgrwt>
</event>
<event>
 5    0  0.2754780E-002  0.5572228E+03  0.7546771E-02  0.9998358E-01
         -1   -1    0    0    0  501 -0.00000000000E+00  0.00000000000E+00  0.23222055047E+03  0.23222055047E+03  0.00000000000E+00 0.  1.
          1   -1    0    0  502    0  0.00000000000E+00 -0.00000000000E+00 -0.48784796311E+03  0.48784796311E+03  0.00000000000E+00 0. -1.
         25    1    1    2    0    0 -0.21621049151E+03  0.90477064514E+02  0.50264852805E+02  0.27034169355E+03  0.12500000000E+03 0.  0.
         21    1    1    2  502  503  0.24139455266E+03 -0.74215509733E+02 -0.15594717332E+03  0.29681440801E+03  0.00000000000E+00 0. -1.
         21    1    1    2  503  501 -0.25184061146E+02 -0.16261554780E+02 -0.14994509212E+03  0.15291241203E+03  0.00000000000E+00 0. -1.
<mgrwt>
<rscale>  4 0.55722284E+03</rscale>
<asrwt>0</asrwt>
<pdfrwt beam="1">  1        1 0.75053532E-01 0.55722284E+03</pdfrwt>
<pdfrwt beam="2">  1       -1 0.35726239E-01 0.55722284E+03</pdfrwt>
<totfact> 0.34877627E+02</totfact>
</mgrwt>
</event>
<event>
 5    0  0.2754780E-002  0.5827264E+03  0.7546771E-02  0.9941906E-01
          1   -1    0    0  502    0  0.00000000000E+00  0.00000000000E+00  0.13170158887E+03  0.13170158887E+03  0.00000000000E+00 0.  1.
         -1   -1    0    0    0  501 -0.00000000000E+00 -0.00000000000E+00 -0.92065099834E+03  0.92065099834E+03  0.00000000000E+00 0. -1.
         25    1    1    2    0    0  0.22579185114E+02  0.28314064864E+03 -0.51757287512E+03  0.60347752864E+03  0.12500000000E+03 0.  0.
         21    1    1    2  502  503 -0.32164103260E+02 -0.26413196553E+03 -0.30768834509E+03  0.40678291810E+03  0.00000000000E+00 0.  1.
         21    1    1    2  503  501  0.95849181467E+01 -0.19008683111E+02  0.36311810742E+02  0.42092140464E+02  0.00000000000E+00 0.  1.
<mgrwt>
<rscale>  4 0.58272643E+03</rscale>
<asrwt>0</asrwt>
<pdfrwt beam="1">  1        1 0.20261782E-01 0.58272643E+03</pdfrwt>
<pdfrwt beam="2">  1       -1 0.14163862E+00 0.58272643E+03</pdfrwt>
<totfact> 0.10757589E+02</totfact>
</mgrwt>
</event>
<event>
 5    0  0.2754780E-002  0.7197925E+03  0.7546771E-02  0.9683971E-01
          2   -1    0    0  502    0  0.00000000000E+00  0.00000000000E+00  0.29368444675E+04  0.29368444675E+04  0.00000000000E+00 0. -1.
         -2   -1    0    0    0  501 -0.00000000000E+00 -0.00000000000E+00 -0.77267042372E+02  0.77267042372E+02  0.00000000000E+00 0.  1.
         25    1    1    2    0    0  0.13518091406E+03  0.20769576950E+03  0.10167312643E+04  0.10539349487E+04  0.12500000000E+03 0.  0.
         21    1    1    2  502  503  0.18256187622E+03  0.56275842171E+02  0.10388309606E+04  0.10562507154E+04  0.00000000000E+00 0. -1.
         21    1    1    2  503  501 -0.31774279028E+03 -0.26397161167E+03  0.80401520015E+03  0.90392584575E+03  0.00000000000E+00 0.  1.
<mgrwt>
<rscale>  4 0.71979247E+03</rscale>
<asrwt>0</asrwt>
<pdfrwt beam="1">  1        2 0.45182214E+00 0.71979247E+03</pdfrwt>
<pdfrwt beam="2">  1       -2 0.11887240E-01 0.71979247E+03</pdfrwt>
<totfact> 0.10413837E+02</totfact>
</mgrwt>
</event>
<event>
 5    0  0.2754780E-002  0.5060492E+03  0.7546771E-02  0.1012212E+00
         -1   -1    0    0    0  501 -0.00000000000E+00  0.00000000000E+00  0.40963295711E+03  0.40963295711E+03  0.00000000000E+00 0. -1.
          1   -1    0    0  503    0  0.00000000000E+00 -0.00000000000E+00 -0.19612248832E+03  0.19612248832E+03  0.00000000000E+00 0.  1.
         25    1    1    2    0    0 -0.70234894643E+02 -0.21102574586E+03  0.17053001507E+03  0.30687178411E+03  0.12500000000E+03 0.  0.
         21    1    1    2  502  501 -0.24700341417E+02 -0.14182141081E+02 -0.32384425166E+02  0.43127612792E+02  0.00000000000E+00 0.  1.
         21    1    1    2  503  502  0.94935236060E+02  0.22520788694E+03  0.75364878893E+02  0.25575604853E+03  0.00000000000E+00 0.  1.
<mgrwt>
<rscale>  4 0.50604919E+03</rscale>
<asrwt>0</asrwt>
<pdfrwt beam="1">  1        1 0.30172691E-01 0.50604919E+03</pdfrwt>
<pdfrwt beam="2">  1       -1 0.63020455E-01 0.50604919E+03</pdfrwt>
<totfact> 0.39570538E+02</totfact>
</mgrwt>
</event>
<event>
 5    0  0.2754780E-002  0.8583409E+03  0.7546771E-02  0.9479210E-01
         -1   -1    0    0    0  501 -0.00000000000E+00  0.00000000000E+00  0.19392123551E+03  0.19392123551E+03  0.00000000000E+00 0.  1.
          1   -1    0    0  503    0  0.00000000000E+00 -0.00000000000E+00 -0.17867265485E+04  0.17867265485E+04  0.00000000000E+00 0. -1.
         25    1    1    2    0    0  0.34354010879E+03  0.10855644166E+03 -0.91041451791E+02  0.39206868443E+03  0.12500000000E+03 0.  0.
         21    1    1    2  502  501 -0.37646723099E+01 -0.23813824927E+02 -0.83589603049E+03  0.83624365157E+03  0.00000000000E+00 0. -1.
         21    1    1    2  503  502 -0.33977543648E+03 -0.84742616731E+02 -0.66586783068E+03  0.75233544796E+03  0.00000000000E+00 0.  1.
<mgrwt>
<rscale>  4 0.85834093E+03</rscale>
<asrwt>0</asrwt>
<pdfrwt beam="1">  1        1 0.27488100E+00 0.85834093E+03</pdfrwt>
<pdfrwt beam="2">  1       -1 0.29834037E-01 0.85834093E+03</pdfrwt>
<totfact> 0.43702107E+01</totfact>
</mgrwt>
</event>
<event>
 5    0  0.2754780E-002  0.6140304E+03  0.7546771E-02  0.9876717E-01
          2   -1    0    0  502    0  0.00000000000E+00  0.00000000000E+00  0.63449386118E+03  0.63449386118E+03  0.00000000000E+00 0.  1.
         -2   -1    0    0    0  501 -0.00000000000E+00 -0.00000000000E+00 -0.16364098840E+03  0.16364098840E+03  0.00000000000E+00 0. -1.
         25    1    1    2    0    0  0.13760130684E+03  0.26519870214E+03  0.31013944461E+03  0.44841492656E+03  0.12500000000E+03 0.  0.
         21    1    1    2  502  503 -0.12240831305E+03 -0.24685979220E+03  0.11580655739E+03  0.29888912801E+03  0.00000000000E+00 0. -1.
         21    1    1    2  503  501 -0.15192993795E+02 -0.18338909933E+02  0.44906870778E+02  0.50830795007E+02  0.00000000000E+00 0.  1.
<mgrwt>
<rscale>  4 0.61403042E+03</rscale>
<asrwt>0</asrwt>
<pdfrwt beam="1">  1        2 0.97614439E-01 0.61403042E+03</pdfrwt>
<pdfrwt beam="2">  1       -2 0.25175537E-01 0.61403042E+03</pdfrwt>
<totfact> 0.65977784E+02</totfact>
</mgrwt>
</event>
<event>
 5    0  0.2754780E-002  0.5893214E+03  0.7546771E-02  0.9927812E-01
         -2   -1    0    0    0  501 -0.00000000000E+00  0.00000000000E+00  0.61592092740E+02  0.61592092740E+02  0.00000000000E+00 0.  1.
          2   -1    0    0  502    0  0.00000000000E+00 -0.00000000000E+00 -0.24320051846E+04  0.24320051846E+04  0.00000000000E+00 0. -1.
         25    1    1    2    0    0  0.23069871853E+03  0.59059214375E+02 -0.31330611847E+03  0.41291114469E+03  0.12500000000E+03 0.  0.
         21    1    1    2  502  503 -0.11610495743E+03 -0.13254873600E+03 -0.11697003747E+04  0.11828983452E+04  0.00000000000E+00 0. -1.
         21    1    1    2  503  501 -0.11459376110E+03  0.73489521621E+02 -0.88740659873E+03  0.89778778747E+03  0.00000000000E+00 0. -1.
<mgrwt>
<rscale>  4 0.58932136E+03</rscale>
<asrwt>0</asrwt>
<pdfrwt beam="1">  1        2 0.37415468E+00 0.58932136E+03</pdfrwt>
<pdfrwt beam="2">  1       -2 0.94757057E-02 0.58932136E+03</pdfrwt>
<totfact> 0.30053459E+02</totfact>
</mgrwt>
</event>
<event>
 5    0  0.2754780E-002  0.4655216E+03  0.7546771E-02  0.1023192E+00
          1   -1    0    0  503    0  0.00000000000E+00  0.00000000000E+00  0.78429013429E+03  0.78429013429E+03  0.00000000000E+00 0.  1.
         -1   -1    0    0    0  501 -0.00000000000E+00 -0.00000000000E+00 -0.86895662397E+02  0.86895662397E+02  0.00000000000E+00 0. -1.
         25    1    1    2    0    0 -0.20577762732E+03 -0.29621314195E+01  0.16012112749E+03  0.28916601045E+03  0.12500000000E+03 0.  0.
         21    1    1    2  502  501  0.18887673326E+02  0.10083944595E+02  0.15474005184E+03  0.15621432004E+03  0.00000000000E+00 0. -1.
         21    1    1    2  503  502  0.18688995400E+03 -0.71218131754E+01  0.38253329256E+03  0.42580546620E+03  0.00000000000E+00 0.  1.
<mgrwt>
<rscale>  4 0.46552164E+03</rscale>
<asrwt>0</asrwt>
<pdfrwt beam="1">  1        1 0.12066002E+00 0.46552164E+03</pdfrwt>
<pdfrwt beam="2">  1       -1 0.13368564E-01 0.46552164E+03</pdfrwt>
<totfact> 0.91498861E+02</totfact>
</mgrwt>
</event>
<event>
 5    0  0.2754780E-002  0.5002374E+03  0.7546771E-02  0.1013717E+00
          2   -1    0    0  503    0  0.00000000000E+00  0.00000000000E+00  0.41613436341E+04  0.41613436341E+04  0.00000000000E+00 0.  1.
         -2   -1    0    0    0  501 -0.00000000000E+00 -0.00000000000E+00 -0.16382919823E+02  0.16382919823E+02  0.00000000000E+00 0. -1.
         25    1    1    2    0    0 -0.35236066548E+02  0.22740179265E+03  0.18930225415E+04  0.19110501036E+04  0.12500000000E+03 0.  0.
         21    1    1    2  502  501 -0.20168106857E+02  0.27704509188E+01  0.23853484009E+03  0.23940195878E+03  0.00000000000E+00 0. -1.
         21    1    1    2  503  502  0.55404173405E+02 -0.23017224357E+03  0.20134033327E+04  0.20272744915E+04  0.00000000000E+00 0.  1.
<mgrwt>
<rscale>  4 0.50023745E+03</rscale>
<asrwt>0</asrwt>
<pdfrwt beam="1">  1        2 0.64020587E+00 0.50023745E+03</pdfrwt>
<pdfrwt beam="2">  1       -2 0.25204525E-02 0.50023745E+03</pdfrwt>
<totfact> 0.17193065E+02</totfact>
</mgrwt>
</event>
<event>
 5    0  0.2754780E-002  0.4072299E+03  0.7546771E-02  0.1041305E+00
          2   -1    0    0  502    0  0.00000000000E+00  0.00000000000E+00  0.24270582346E+04  0.24270582346E+04  0.00000000000E+00 0.  1.
         -2   -1    0    0    0  501 -0.00000000000E+00 -0.00000000000E+00 -0.36533286270E+02  0.36533286270E+02  0.00000000000E+00 0. -1.
         25    1    1    2    0    0 -0.22152044901E+03  0.41982324060E+02  0.66661301296E+03  0.71472493584E+03  0.12500000000E+03 0.  0.
         21    1    1    2  502  503  0.14464755108E+03  0.20946054827E+02  0.49985073962E+03  0.52078058062E+03  0.00000000000E+00 0.  1.
         21    1    1    2  503  501  0.76872897933E+02 -0.62928378888E+02  0.12240611957E+04  0.12280860044E+04  0.00000000000E+00 0.  1.
<mgrwt>
<rscale>  4 0.40722990E+03</rscale>
<asrwt>0</asrwt>
<pdfrwt beam="1">  1        2 0.37339345E+00 0.40722990E+03</pdfrwt>
<pdfrwt beam="2">  1       -2 0.56205075E-02 0.40722990E+03</pdfrwt>
<totfact> 0.70537759E+02</totfact>
</mgrwt>
</event>
<event>
 5    0  0.2754780E-002  0.1267027E+04  0.7546771E-02  0.9056130E-01
         -2   -1    0    0    0  501 -0.00000000000E+00  0.00000000000E+00  0.14282134549E+04  0.14282134549E+04  0.00000000000E+00 0. -1.
          2   -1    0    0  503    0  0.00000000000E+00 -0.00000000000E+00 -0.11839971620E+04  0.11839971620E+04  0.00000000000E+00 0.  1.
         25    1    1    2    0    0  0.18885127370E+03 -0.12305764321E+03  0.17728480763E+03  0.31283044952E+03  0.12500000000E+03 0.  0.
         21    1    1    2  502  501 -0.68976557555E+03 -0.50006466376E+02 -0.93674621297E+03  0.11643756539E+04  0.00000000000E+00 0.  1.
         21    1    1    2  503  502  0.50091430185E+03  0.17306410959E+03  0.10036776982E+04  0.11350045135E+04  0.00000000000E+00 0. -1.
<mgrwt>
<rscale>  4 0.12670265E+04</rscale>
<asrwt>0</asrwt>
<pdfrwt beam="1">  1        2 0.18215341E+00 0.12670265E+04</pdfrwt>
<pdfrwt beam="2">  1       -2 0.21972515E+00 0.12670265E+04</pdfrwt>
<totfact> 0.18540896E+00</totfact>
</mgrwt>
</event>
<event>
 5    0  0.2754780E-002  0.3905094E+03  0.7546771E-02  0.1047116E+00
         -1   -1    0    0    0  501 -0.00000000000E+00  0.00000000000E+00  0.59346184739E+02  0.59346184739E+02  0.00000000000E+00 0.  1.
          1   -1    0    0  502    0  0.00000000000E+00 -0.00000000000E+00 -0.11661060423E+04  0.11661060423E+04  0.00000000000E+00 0. -1.
         25    1    1    2    0    0  0.11107714613E+03 -0.17386971585E+03 -0.36395133865E+03  0.43663988296E+03  0.12500000000E+03 0.  0.
         21    1    1    2  502  503 -0.61014187354E+02  0.13602108923E+03 -0.24304370115E+03  0.28512226928E+03  0.00000000000E+00 0. -1.
         21    1    1    2  503  501 -0.50062958779E+02  0.37848626620E+02 -0.49976481779E+03  0.50369007482E+03  0.00000000000E+00 0.  1.
<mgrwt>
<rscale>  4 0.39050944E+03</rscale>
<asrwt>0</asrwt>
<pdfrwt beam="1">  1        1 0.17940094E+00 0.39050944E+03</pdfrwt>
<pdfrwt beam="2">  1       -1 0.91301819E-02 0.39050944E+03</pdfrwt>
<totfact> 0.84538666E+02</totfact>
</mgrwt>
</event>
<event>
 5    0  0.2754780E-002  0.4363457E+03  0.7546771E-02  0.1031874E+00
         -2   -1    0    0    0  501 -0.00000000000E+00  0.00000000000E+00  0.19230483740E+03  0.19230483740E+03  0.00000000000E+00 0.  1.
          2   -1    0    0  502    0  0.00000000000E+00 -0.00000000000E+00 -0.29636469885E+03  0.29636469885E+03  0.00000000000E+00 0. -1.
         25    1    1    2    0    0  0.16189970919E+03  0.12149302899E+03  0.17909506851E+02  0.23857456353E+03  0.12500000000E+03 0.  0.
         21    1    1    2  502  503 -0.15992235761E+03 -0.90159603436E+02 -0.87183093463E+02  0.20323583921E+03  0.00000000000E+00 0. -1.
         21    1    1    2  503  501 -0.19773515826E+01 -0.31333425551E+02 -0.34786274837E+02  0.46859133508E+02  0.00000000000E+00 0.  1.
<mgrwt>
<rscale>  4 0.43634574E+03</rscale>
<asrwt>0</asrwt>
<pdfrwt beam="1">  1        2 0.45594569E-01 0.43634574E+03</pdfrwt>
<pdfrwt beam="2">  1       -2 0.29585359E-01 0.43634574E+03</pdfrwt>
<totfact> 0.11691101E+03</totfact>
</mgrwt>
</event>
<event>
 5    0  0.2754780E-002  0.4230675E+03  0.7546771E-02  0.1036073E+00
         -1   -1    0    0    0  501 -0.00000000000E+00  0.00000000000E+00  0.41695097465E+03  0.41695097465E+03  0.00000000000E+00 0.  1.
          1   -1    0    0  503    0  0.00000000000E+00 -0.00000000000E+00 -0.16504925445E+03  0.16504925445E+03  0.00000000000E+00 0. -1.
         25    1    1    2    0    0 -0.18593075107E+03  0.11549554538E+03  0.18338513532E+03  0.31171232419E+03  0.12500000000E+03 0.  0.
         21    1    1    2  502  501  0.30032672187E+02 -0.97031059394E+02  0.46691386451E+02  0.11179031020E+03  0.00000000000E+00 0.  1.
         21    1    1    2  503  502  0.15589807888E+03 -0.18464485983E+02  0.21825198428E+02  0.15849759471E+03  0.00000000000E+00 0. -1.
<mgrwt>
<rscale>  4 0.42306747E+03</rscale>
<asrwt>0</asrwt>
<pdfrwt beam="1">  1        1 0.25392193E-01 0.42306747E+03</pdfrwt>
<pdfrwt beam="2">  1       -1 0.64146303E-01 0.42306747E+03</pdfrwt>
<totfact> 0.47835830E+02</totfact>
</mgrwt>
</event>
<event>
 5    0  0.2754780E-002  0.4962234E+03  0.7546771E-02  0.1014769E+00
         -2   -1    0    0    0  501 -0.00000000000E+00  0.00000000000E+00  0.15685837848E+03  0.15685837848E+03  0.00000000000E+00 0. -1.
          2   -1    0    0  503    0  0.00000000000E+00 -0.00000000000E+00 -0.45656007572E+03  0.45656007572E+03  0.00000000000E+00 0.  1.
         25    1    1    2    0    0 -0.11648449516E+03 -0.16596695385E+03 -0.28958085645E+03  0.37496098438E+03  0.12500000000E+03 0.  0.
         21    1    1    2  502  501  0.22263828305E+02  0.17862066145E+02 -0.50800517691E+02  0.58270267336E+02  0.00000000000E+00 0.  1.
         21    1    1    2  503  502  0.94220666855E+02  0.14810488771E+03  0.40679676906E+02  0.18018720248E+03  0.00000000000E+00 0.  1.
<mgrwt>
<rscale>  4 0.49622345E+03</rscale>
<asrwt>0</asrwt>
<pdfrwt beam="1">  1        2 0.70240011E-01 0.49622345E+03</pdfrwt>
<pdfrwt beam="2">  1       -2 0.24132058E-01 0.49622345E+03</pdfrwt>
<totfact> 0.10473858E+03</totfact>
</mgrwt>
</event>
<event>
 5    0  0.2754780E-002  0.4770720E+03  0.7546771E-02  0.1019943E+00
         -4   -1    0    0    0  501 -0.00000000000E+00  0.00000000000E+00  0.11753078837E+03  0.11753078837E+03  0.00000000000E+00 0.  1.
          4   -1    0    0  502    0  0.00000000000E+00 -0.00000000000E+00 -0.66240133648E+03  0.66240133648E+03  0.00000000000E+00 0. -1.
         25    1    1    2    0    0 -0.58307240279E+02 -0.22730745600E+03 -0.18181943878E+03  0.32210514144E+03  0.12500000000E+03 0.  0.
         21    1    1    2  502  503  0.28643727454E+02  0.20705147861E+03 -0.19459407878E+03  0.28558297115E+03  0.00000000000E+00 0.  1.
         21    1    1    2  503  501  0.29663512826E+02  0.20255977392E+02 -0.16845703055E+03  0.17224401225E+03  0.00000000000E+00 0. -1.
<mgrwt>
<rscale>  4 0.47707201E+03</rscale>
<asrwt>0</asrwt>
<pdfrwt beam="1">  1        4 0.10190790E+00 0.47707201E+03</pdfrwt>
<pdfrwt beam="2">  1       -4 0.18081660E-01 0.47707201E+03</pdfrwt>
<totfact> 0.42647114E+01</totfact>
</mgrwt>
</event>
<event>
 5    0  0.2754780E-002  0.4419756E+03  0.7546771E-02  0.1030142E+00
         -1   -1    0    0    0  501 -0.00000000000E+00  0.00000000000E+00  0.77680421210E+02  0.77680421210E+02  0.00000000000E+00 0. -1.
          1   -1    0    0  502    0  0.00000000000E+00 -0.00000000000E+00 -0.12631385081E+04  0.12631385081E+04  0.00000000000E+00 0.  1.
         25    1    1    2    0    0 -0.20807545567E+03  0.10176787553E+03 -0.65213097602E+03  0.70324384507E+03  0.12500000000E+03 0.  0.
         21    1    1    2  502  503  0.17344204012E+03  0.41694802368E+02 -0.40287693415E+03  0.44060233987E+03  0.00000000000E+00 0. -1.
         21    1    1    2  503  501  0.34633415555E+02 -0.14346267790E+03 -0.13045017674E+03  0.19697274439E+03  0.00000000000E+00 0. -1.
<mgrwt>
<rscale>  4 0.44197557E+03</rscale>
<asrwt>0</asrwt>
<pdfrwt beam="1">  1        1 0.19432898E+00 0.44197557E+03</pdfrwt>
<pdfrwt beam="2">  1       -1 0.11950835E-01 0.44197557E+03</pdfrwt>
<totfact> 0.47126704E+02</totfact>
</mgrwt>
</event>
<event>
 5    0  0.2754780E-002  0.5754928E+03  0.7546771E-02  0.9957597E-01
         -2   -1    0    0    0  501 -0.00000000000E+00  0.00000000000E+00  0.17431190657E+03  0.17431190657E+03  0.00000000000E+00 0. -1.
          2   -1    0    0  502    0  0.00000000000E+00 -0.00000000000E+00 -0.63575923971E+03  0.63575923971E+03  0.00000000000E+00 0.  1.
         25    1    1    2    0    0  0.15605020679E+03  0.24896819439E+03 -0.16371211843E+03  0.35883629496E+03  0.12500000000E+03 0.  0.
         21    1    1    2  502  503 -0.15586245192E+03 -0.20292669667E+03 -0.15024513783E+03  0.29672537738E+03  0.00000000000E+00 0. -1.
         21    1    1    2  503  501 -0.18775487276E+00 -0.46041497721E+02 -0.14749007687E+03  0.15450947395E+03  0.00000000000E+00 0.  1.
<mgrwt>
<rscale>  4 0.57549279E+03</rscale>
<asrwt>0</asrwt>
<pdfrwt beam="1">  1        2 0.97809114E-01 0.57549279E+03</pdfrwt>
<pdfrwt beam="2">  1       -2 0.26817216E-01 0.57549279E+03</pdfrwt>
<totfact> 0.58772351E+02</totfact>
</mgrwt>
</event>
<event>
 5    0  0.2754780E-002  0.8478625E+03  0.7546771E-02  0.9493210E-01
         -2   -1    0    0    0  501 -0.00000000000E+00  0.00000000000E+00  0.18274032089E+03  0.18274032089E+03  0.00000000000E+00 0. -1.
          2   -1    0    0  503    0  0.00000000000E+00 -0.00000000000E+00 -0.17692676968E+04  0.17692676968E+04  0.00000000000E+00 0.  1.
         25    1    1    2    0    0  0.43200164112E+02  0.27439363104E+03 -0.11033289940E+04  0.11446038563E+04  0.12500000000E+03 0.  0.
         21    1    1    2  502  501 -0.16188233405E+03 -0.40375164134E+03 -0.45521182329E+03  0.62963408581E+03  0.00000000000E+00 0.  1.
         21    1    1    2  503  502  0.11868216993E+03  0.12935801029E+03 -0.27986558596E+02  0.17777007552E+03  0.00000000000E+00 0. -1.
<mgrwt>
<rscale>  4 0.84786249E+03</rscale>
<asrwt>0</asrwt>
<pdfrwt beam="1">  1        2 0.27219504E+00 0.84786249E+03</pdfrwt>
<pdfrwt beam="2">  1       -2 0.28113895E-01 0.84786249E+03</pdfrwt>
<totfact> 0.10510595E+02</totfact>
</mgrwt>
</event>
<event>
 5    0  0.2754780E-002  0.5033990E+03  0.7546771E-02  0.1012896E+00
         -2   -1    0    0    0  501 -0.00000000000E+00  0.00000000000E+00  0.22652232949E+03  0.22652232949E+03  0.00000000000E+00 0.  1.
          2   -1    0    0  502    0  0.00000000000E+00 -0.00000000000E+00 -0.41013185818E+03  0.41013185818E+03  0.00000000000E+00 0. -1.
         25    1    1    2    0    0 -0.11594786521E+03  0.18794117588E+03  0.67632219333E+02  0.26261170981E+03  0.12500000000E+03 0.  0.
         21    1    1    2  502  503  0.85307737258E+02 -0.19148187719E+03 -0.12495130329E+03  0.24404005311E+03  0.00000000000E+00 0. -1.
         21    1    1    2  503  501  0.30640127948E+02  0.35407013119E+01 -0.12629044474E+03  0.13000242474E+03  0.00000000000E+00 0. -1.
<mgrwt>
<rscale>  4 0.50339898E+03</rscale>
<asrwt>0</asrwt>
<pdfrwt beam="1">  1        2 0.63097209E-01 0.50339898E+03</pdfrwt>
<pdfrwt beam="2">  1       -2 0.34849589E-01 0.50339898E+03</pdfrwt>
<totfact> 0.60203738E+02</totfact>
</mgrwt>
</event>
<event>
 5    0  0.2754780E-002  0.6070806E+03  0.7546771E-02  0.9890824E-01
          2   -1    0    0  502    0  0.00000000000E+00  0.00000000000E+00  0.13857733187E+04  0.13857733187E+04  0.00000000000E+00 0.  1.
         -2   -1    0    0    0  501 -0.00000000000E+00 -0.00000000000E+00 -0.72684847497E+02  0.72684847497E+02  0.00000000000E+00 0. -1.
         25    1    1    2    0    0  0.14030587962E+03 -0.19165856477E+03  0.99980850412E+03  0.10352105053E+04  0.12500000000E+03 0.  0.
         21    1    1    2  502  503 -0.16186495733E+03  0.18200127236E+03  0.22404728684E+03  0.33094095287E+03  0.00000000000E+00 0. -1.
         21    1    1    2  503  501  0.21559077702E+02  0.96572924119E+01  0.89232680210E+02  0.92306708020E+02  0.00000000000E+00 0.  1.
<mgrwt>
<rscale>  4 0.60708056E+03</rscale>
<asrwt>0</asrwt>
<pdfrwt beam="1">  1        2 0.21319588E+00 0.60708056E+03</pdfrwt>
<pdfrwt beam="2">  1       -2 0.11182285E-01 0.60708056E+03</pdfrwt>
<totfact> 0.85674741E+02</totfact>
</mgrwt>
</event>
<event>
 5    0  0.2754780E-002  0.6016666E+03  0.7546771E-02  0.9901954E-01
         -1   -1    0    0    0  501 -0.00000000000E+00  0.00000000000E+00  0.85519842530E+03  0.85519842530E+03  0.00000000000E+00 0. -1.
          1   -1    0    0  503    0  0.00000000000E+00 -0.00000000000E+00 -0.15427077482E+03  0.15427077482E+03  0.00000000000E+00 0.  1.
         25    1    1    2    0    0  0.26108435708E+02 -0.24680377430E+03  0.43432570896E+03  0.51561378462E+03  0.12500000000E+03 0.  0.
         21    1    1    2  502  501 -0.15032966286E+03  0.23877439002E+03  0.13527740640E+03  0.31290924171E+03  0.00000000000E+00 0.  1.
         21    1    1    2  503  502  0.12422122715E+03  0.80293842804E+01  0.13132453512E+03  0.18094617380E+03  0.00000000000E+00 0.  1.
<mgrwt>
<rscale>  4 0.60166660E+03</rscale>
<asrwt>0</asrwt>
<pdfrwt beam="1">  1        1 0.23733966E-01 0.60166660E+03</pdfrwt>
<pdfrwt beam="2">  1       -1 0.13156899E+00 0.60166660E+03</pdfrwt>
<totfact> 0.10543092E+02</totfact>
</mgrwt>
</event>
<event>
 5    0  0.2754780E-002  0.4554094E+03  0.7546771E-02  0.1026121E+00
         -1   -1    0    0    0  501 -0.00000000000E+00  0.00000000000E+00  0.97737365504E+02  0.97737365504E+02  0.00000000000E+00 0. -1.
          1   -1    0    0  503    0  0.00000000000E+00 -0.00000000000E+00 -0.10561221176E+04  0.10561221176E+04  0.00000000000E+00 0.  1.
         25    1    1    2    0    0 -0.10406162582E+03  0.20474320206E+03 -0.20950053537E+03  0.33505831593E+03  0.12500000000E+03 0.  0.
         21    1    1    2  502  501  0.66389998565E+01 -0.42374391785E+02 -0.51990438943E+03  0.52167062362E+03  0.00000000000E+00 0.  1.
         21    1    1    2  503  502  0.97422625962E+02 -0.16236881027E+03 -0.22897982726E+03  0.29713054352E+03  0.00000000000E+00 0. -1.
<mgrwt>
<rscale>  4 0.45540940E+03</rscale>
<asrwt>0</asrwt>
<pdfrwt beam="1">  1        1 0.16248032E+00 0.45540940E+03</pdfrwt>
<pdfrwt beam="2">  1       -1 0.15036518E-01 0.45540940E+03</pdfrwt>
<totfact> 0.46020579E+02</totfact>
</mgrwt>
</event>
<event>
 5    0  0.2754780E-002  0.4973609E+03  0.7546771E-02  0.1014470E+00
         -1   -1    0    0    0  501 -0.00000000000E+00  0.00000000000E+00  0.45473247867E+03  0.45473247867E+03  0.00000000000E+00 0. -1.
          1   -1    0    0  502    0  0.00000000000E+00 -0.00000000000E+00 -0.47905098886E+03  0.47905098886E+03  0.00000000000E+00 0.  1.
         25    1    1    2    0    0  0.90618976082E+02  0.21173953776E+03  0.12790159185E+03  0.29159775012E+03  0.12500000000E+03 0.  0.
         21    1    1    2  502  503  0.54192413434E+00 -0.23135672492E+03  0.18252913228E+03  0.29469155396E+03  0.00000000000E+00 0. -1.
         21    1    1    2  503  501 -0.91160900217E+02  0.19617187160E+02 -0.33474923431E+03  0.34749416345E+03  0.00000000000E+00 0.  1.
<mgrwt>
<rscale>  4 0.49736095E+03</rscale>
<asrwt>0</asrwt>
<pdfrwt beam="1">  1        1 0.73700152E-01 0.49736095E+03</pdfrwt>
<pdfrwt beam="2">  1       -1 0.69958843E-01 0.49736095E+03</pdfrwt>
<totfact> 0.10087506E+02</totfact>
</mgrwt>
</event>
<event>
 5    0  0.2754780E-002  0.4815350E+03  0.7546771E-02  0.1018714E+00
          1   -1    0    0  502    0  0.00000000000E+00  0.00000000000E+00  0.98070690498E+02  0.98070690498E+02  0.00000000000E+00 0.  1.
         -1   -1    0    0    0  501 -0.00000000000E+00 -0.00000000000E+00 -0.67549398995E+03  0.67549398995E+03  0.00000000000E+00 0. -1.
         25    1    1    2    0    0 -0.20573445652E+03 -0.10741573710E+02 -0.39820672363E+03  0.46544134190E+03  0.12500000000E+03 0.  0.
         21    1    1    2  502  503 -0.29959537642E+01 -0.32299060277E+02 -0.47714222330E+02  0.57696204783E+02  0.00000000000E+00 0.  1.
         21    1    1    2  503  501  0.20873041028E+03  0.43040633988E+02 -0.13150235349E+03  0.25042713376E+03  0.00000000000E+00 0.  1.
<mgrwt>
<rscale>  4 0.48153501E+03</rscale>
<asrwt>0</asrwt>
<pdfrwt beam="1">  1        1 0.15087799E-01 0.48153501E+03</pdfrwt>
<pdfrwt beam="2">  1       -1 0.10392215E+00 0.48153501E+03</pdfrwt>
<totfact> 0.34003420E+02</totfact>
</mgrwt>
</event>
<event>
 5    0  0.2754780E-002  0.5846173E+03  0.7546771E-02  0.9937844E-01
          2   -1    0    0  502    0  0.00000000000E+00  0.00000000000E+00  0.18006360949E+04  0.18006360949E+04  0.00000000000E+00 0. -1.
         -2   -1    0    0    0  501 -0.00000000000E+00 -0.00000000000E+00 -0.69906849082E+02  0.69906849082E+02  0.00000000000E+00 0.  1.
         25    1    1    2    0    0  0.12281114139E+03 -0.27444495042E+03  0.84526427469E+03  0.90581416490E+03  0.12500000000E+03 0.  0.
         21    1    1    2  502  503 -0.37552228002E+02  0.24234910096E+03  0.38811379931E+03  0.45910301434E+03  0.00000000000E+00 0. -1.
         21    1    1    2  503  501 -0.85258913386E+02  0.32095849457E+02  0.49735117185E+03  0.50562576478E+03  0.00000000000E+00 0. -1.
<mgrwt>
<rscale>  4 0.58461734E+03</rscale>
<asrwt>0</asrwt>
<pdfrwt beam="1">  1        2 0.27702090E+00 0.58461734E+03</pdfrwt>
<pdfrwt beam="2">  1       -2 0.10754901E-01 0.58461734E+03</pdfrwt>
<totfact> 0.54138776E+02</totfact>
</mgrwt>
</event>
<event>
 5    0  0.2754780E-002  0.4189692E+03  0.7546771E-02  0.1037402E+00
          2   -1    0    0  503    0  0.00000000000E+00  0.00000000000E+00  0.32933910917E+04  0.32933910917E+04  0.00000000000E+00 0. -1.
         -2   -1    0    0    0  501 -0.00000000000E+00 -0.00000000000E+00 -0.25702623238E+02  0.25702623238E+02  0.00000000000E+00 0.  1.
         25    1    1    2    0    0  0.76327415600E+02  0.19862758507E+03  0.12513547000E+04  0.12754577128E+04  0.12500000000E+03 0.  0.
         21    1    1    2  502  501  0.51762690537E+02 -0.12683060765E+03  0.44882736378E+03  0.46926685548E+03  0.00000000000E+00 0. -1.
         21    1    1    2  503  502 -0.12809010614E+03 -0.71796977419E+02  0.15675064048E+04  0.15743691467E+04  0.00000000000E+00 0. -1.
<mgrwt>
<rscale>  4 0.41896921E+03</rscale>
<asrwt>0</asrwt>
<pdfrwt beam="1">  1        2 0.50667522E+00 0.41896921E+03</pdfrwt>
<pdfrwt beam="2">  1       -2 0.39542523E-02 0.41896921E+03</pdfrwt>
<totfact> 0.37311241E+02</totfact>
</mgrwt>
</event>
<event>
 5    0  0.2754780E-002  0.7284431E+03  0.7546771E-02  0.9669790E-01
         -4   -1    0    0    0  501 -0.00000000000E+00  0.00000000000E+00  0.76382838359E+03  0.76382838359E+03  0.00000000000E+00 0. -1.
          4   -1    0    0  502    0  0.00000000000E+00 -0.00000000000E+00 -0.23626378522E+03  0.23626378522E+03  0.00000000000E+00 0.  1.
         25    1    1    2    0    0  0.19910988469E+03 -0.96055712692E+02  0.65949541428E+03  0.70670407356E+03  0.12500000000E+03 0.  0.
         21    1    1    2  502  503 -0.97965216024E+02  0.45136633490E+02  0.13898984379E+02  0.10875514241E+03  0.00000000000E+00 0.  1.
         21    1    1    2  503  501 -0.10114466866E+03  0.50919079202E+02 -0.14582980029E+03  0.18463295285E+03  0.00000000000E+00 0.  1.
<mgrwt>
<rscale>  4 0.72844309E+03</rscale>
<asrwt>0</asrwt>
<pdfrwt beam="1">  1        4 0.36348275E-01 0.72844309E+03</pdfrwt>
<pdfrwt beam="2">  1       -4 0.11751206E+00 0.72844309E+03</pdfrwt>
<totfact> 0.81574846E+00</totfact>
</mgrwt>
</event>
<event>
 5    0  0.2754780E-002  0.9142030E+03  0.7546771E-02  0.9407999E-01
         -2   -1    0    0    0  501 -0.00000000000E+00  0.00000000000E+00  0.13925322260E+03  0.13925322260E+03  0.00000000000E+00 0.  1.
          2   -1    0    0  503    0  0.00000000000E+00 -0.00000000000E+00 -0.16113856747E+04  0.16113856747E+04  0.00000000000E+00 0. -1.
         25    1    1    2    0    0  0.35523267737E+03  0.25665540774E+03 -0.53690312684E+03  0.70423875285E+03  0.12500000000E+03 0.  0.
         21    1    1    2  502  501  0.15264564267E+02 -0.18887489899E+02 -0.92242399272E+02  0.95385556665E+02  0.00000000000E+00 0. -1.
         21    1    1    2  503  502 -0.37049724164E+03 -0.23776791784E+03 -0.84298692600E+03  0.95101458781E+03  0.00000000000E+00 0. -1.
<mgrwt>
<rscale>  4 0.91420297E+03</rscale>
<asrwt>0</asrwt>
<pdfrwt beam="1">  1        2 0.24790547E+00 0.91420297E+03</pdfrwt>
<pdfrwt beam="2">  1       -2 0.21423574E-01 0.91420297E+03</pdfrwt>
<totfact> 0.20867897E+02</totfact>
</mgrwt>
</event>
<event>
 5    0  0.2754780E-002  0.6400244E+03  0.7546771E-02  0.9825680E-01
         -2   -1    0    0    0  501 -0.00000000000E+00  0.00000000000E+00  0.11985546993E+03  0.11985546993E+03  0.00000000000E+00 0. -1.
          2   -1    0    0  503    0  0.00000000000E+00 -0.00000000000E+00 -0.10085160613E+04  0.10085160613E+04  0.00000000000E+00 0.  1.
         25    1    1    2    0    0  0.48733205455E+01  0.21368825246E+03 -0.50208451230E+02  0.25265056317E+03  0.12500000000E+03 0.  0.
         21    1    1    2  502  501 -0.44345177061E+02 -0.12674793298E+02 -0.11741524589E+03  0.12614866262E+03  0.00000000000E+00 0.  1.
         21    1    1    2  503  502  0.39471856516E+02 -0.20101345917E+03 -0.72103689428E+03  0.74957230547E+03  0.00000000000E+00 0.  1.
<mgrwt>
<rscale>  4 0.64002445E+03</rscale>
<asrwt>0</asrwt>
<pdfrwt beam="1">  1        2 0.15515632E+00 0.64002445E+03</pdfrwt>
<pdfrwt beam="2">  1       -2 0.18439303E-01 0.64002445E+03</pdfrwt>
<totfact> 0.61738215E+02</totfact>
</mgrwt>
</event>
<event>
 5    0  0.2754780E-002  0.5230678E+03  0.7546771E-02  0.1007927E+00
         -1   -1    0    0    0  501 -0.00000000000E+00  0.00000000000E+00  0.30821397085E+03  0.30821397085E+03  0.00000000000E+00 0.  1.
          1   -1    0    0  502    0  0.00000000000E+00 -0.00000000000E+00 -0.29423892920E+03  0.29423892920E+03  0.00000000000E+00 0. -1.
         25    1    1    2    0    0  0.13968580543E+03  0.20499114389E+03 -0.99656890671E+01  0.27795288858E+03  0.12500000000E+03 0.  0.
         21    1    1    2  502  503 -0.10954117333E+03 -0.20721835459E+03  0.90613262942E+02  0.25129559995E+03  0.00000000000E+00 0. -1.
         21    1    1    2  503  501 -0.30144632099E+02  0.22272107042E+01 -0.66672532229E+02  0.73204411519E+02  0.00000000000E+00 0. -1.
<mgrwt>
<rscale>  4 0.52306781E+03</rscale>
<asrwt>0</asrwt>
<pdfrwt beam="1">  1        1 0.45267528E-01 0.52306781E+03</pdfrwt>
<pdfrwt beam="2">  1       -1 0.47417534E-01 0.52306781E+03</pdfrwt>
<totfact> 0.40528184E+02</totfact>
</mgrwt>
</event>
<event>
 5    0  0.2754780E-002  0.6933130E+03  0.7546771E-02  0.9728737E-01
          3   -1    0    0  502    0  0.00000000000E+00  0.00000000000E+00  0.53962927412E+03  0.53962927412E+03  0.00000000000E+00 0. -1.
         -3   -1    0    0    0  501 -0.00000000000E+00 -0.00000000000E+00 -0.33485433817E+03  0.33485433817E+03  0.00000000000E+00 0.  1.
         25    1    1    2    0    0  0.28533413770E+03  0.83609003453E+02  0.69314455777E+01  0.32261289580E+03  0.12500000000E+03 0.  0.
         21    1    1    2  502  503  0.44649350783E+02  0.83492375027E+02  0.15211384473E+03  0.17917355545E+03  0.00000000000E+00 0. -1.
         21    1    1    2  503  501 -0.32998348848E+03 -0.16710137848E+03  0.45729645633E+02  0.37269716105E+03  0.00000000000E+00 0. -1.
<mgrwt>
<rscale>  4 0.69331298E+03</rscale>
<asrwt>0</asrwt>
<pdfrwt beam="1">  1        3 0.83019888E-01 0.69331298E+03</pdfrwt>
<pdfrwt beam="2">  1       -3 0.51516052E-01 0.69331298E+03</pdfrwt>
<totfact> 0.13118403E+01</totfact>
</mgrwt>
</event>
<event>
 5    0  0.2754780E-002  0.5425752E+03  0.7546771E-02  0.1003227E+00
          2   -1    0    0  503    0  0.00000000000E+00  0.00000000000E+00  0.33784263370E+03  0.33784263370E+03  0.00000000000E+00 0. -1.
         -2   -1    0    0    0  501 -0.00000000000E+00 -0.00000000000E+00 -0.49255459312E+03  0.49255459312E+03  0.00000000000E+00 0.  1.
         25    1    1    2    0    0 -0.74842599017E+02  0.25641117692E+03 -0.17606337752E+03  0.34346967724E+03  0.12500000000E+03 0.  0.
         21    1    1    2  502  501 -0.74845362520E+02 -0.59112392801E+02  0.17227146941E+03  0.19691003643E+03  0.00000000000E+00 0. -1.
         21    1    1    2  503  502  0.14968796154E+03 -0.19729878412E+03 -0.15092005132E+03  0.29001751315E+03  0.00000000000E+00 0.  1.
<mgrwt>
<rscale>  4 0.54257521E+03</rscale>
<asrwt>0</asrwt>
<pdfrwt beam="1">  1        2 0.51975790E-01 0.54257521E+03</pdfrwt>
<pdfrwt beam="2">  1       -2 0.75777630E-01 0.54257521E+03</pdfrwt>
<totfact> 0.15285048E+02</totfact>
</mgrwt>
</event>
<event>
 5    0  0.2754780E-002  0.5016760E+03  0.7546771E-02  0.1013342E+00
          1   -1    0    0  502    0  0.00000000000E+00  0.00000000000E+00  0.38542105675E+03  0.38542105675E+03  0.00000000000E+00 0. -1.
         -1   -1    0    0    0  501 -0.00000000000E+00 -0.00000000000E+00 -0.31362840709E+03  0.31362840709E+03  0.00000000000E+00 0.  1.
         25    1    1    2    0    0 -0.17728449651E+03  0.10238087209E+03  0.42706762724E+02  0.24364011011E+03  0.12500000000E+03 0.  0.
         21    1    1    2  502  503  0.18303310568E+03 -0.12537705193E+03 -0.15446575782E+03  0.27033348528E+03  0.00000000000E+00 0.  1.
         21    1    1    2  503  501 -0.57486091713E+01  0.22996179838E+02  0.18355164475E+03  0.18507586846E+03  0.00000000000E+00 0. -1.
<mgrwt>
<rscale>  4 0.50167597E+03</rscale>
<asrwt>0</asrwt>
<pdfrwt beam="1">  1        1 0.59295547E-01 0.50167597E+03</pdfrwt>
<pdfrwt beam="2">  1       -1 0.48250524E-01 0.50167597E+03</pdfrwt>
<totfact> 0.27689858E+02</totfact>
</mgrwt>
</event>
<event>
 5    0  0.2754780E-002  0.5335268E+03  0.7546771E-02  0.1005380E+00
         -2   -1    0    0    0  501 -0.00000000000E+00  0.00000000000E+00  0.15933967882E+04  0.15933967882E+04  0.00000000000E+00 0.  1.
          2   -1    0    0  503    0  0.00000000000E+00 -0.00000000000E+00 -0.59032877656E+02  0.59032877656E+02  0.00000000000E+00 0. -1.
         25    1    1    2    0    0  0.25153554887E+03  0.79480114318E+02  0.10531410523E+04  0.10928487073E+04  0.12500000000E+03 0.  0.
         21    1    1    2  502  501 -0.42106928999E+02  0.17408885213E+00  0.19585306337E+02  0.46439293717E+02  0.00000000000E+00 0.  1.
         21    1    1    2  503  502 -0.20942861987E+03 -0.79654203170E+02  0.46163755188E+03  0.51314166485E+03  0.00000000000E+00 0.  1.
<mgrwt>
<rscale>  4 0.53352681E+03</rscale>
<asrwt>0</asrwt>
<pdfrwt beam="1">  1        2 0.90819824E-02 0.53352681E+03</pdfrwt>
<pdfrwt beam="2">  1       -2 0.24513793E+00 0.53352681E+03</pdfrwt>
<totfact> 0.53986308E+01</totfact>
</mgrwt>
</event>
<event>
 5    0  0.2754780E-002  0.6273958E+03  0.7546771E-02  0.9850144E-01
          2   -1    0    0  502    0  0.00000000000E+00  0.00000000000E+00  0.21840140153E+03  0.21840140153E+03  0.00000000000E+00 0. -1.
         -2   -1    0    0    0  501 -0.00000000000E+00 -0.00000000000E+00 -0.60219656311E+03  0.60219656311E+03  0.00000000000E+00 0.  1.
         25    1    1    2    0    0 -0.12810088532E+02 -0.25254361437E+03  0.14799540269E+02  0.28246486847E+03  0.12500000000E+03 0.  0.
         21    1    1    2  502  503 -0.15549793206E+02  0.19315361570E+03 -0.42509947667E+03  0.46718270558E+03  0.00000000000E+00 0.  1.
         21    1    1    2  503  501  0.28359881738E+02  0.59389998678E+02  0.26504774827E+02  0.70950390582E+02  0.00000000000E+00 0. -1.
<mgrwt>
<rscale>  4 0.62739577E+03</rscale>
<asrwt>0</asrwt>
<pdfrwt beam="1">  1        2 0.33600216E-01 0.62739577E+03</pdfrwt>
<pdfrwt beam="2">  1       -2 0.92645625E-01 0.62739577E+03</pdfrwt>
<totfact> 0.15674464E+02</totfact>
</mgrwt>
</event>
<event>
 5    0  0.2754780E-002  0.4800097E+03  0.7546771E-02  0.1019132E+00
          2   -1    0    0  502    0  0.00000000000E+00  0.00000000000E+00  0.10466224958E+03  0.10466224958E+03  0.00000000000E+00 0. -1.
         -2   -1    0    0    0  501 -0.00000000000E+00 -0.00000000000E+00 -0.64987368851E+03  0.64987368851E+03  0.00000000000E+00 0.  1.
         25    1    1    2    0    0  0.21106464015E+03 -0.99744519497E+02 -0.28759844537E+03  0.39094132203E+03  0.12500000000E+03 0.  0.
         21    1    1    2  502  503 -0.19860114623E+03  0.81491423584E+02 -0.26430609565E+03  0.34050107137E+03  0.00000000000E+00 0. -1.
         21    1    1    2  503  501 -0.12463493919E+02  0.18253095912E+02  0.66931020933E+01  0.23093544697E+02  0.00000000000E+00 0.  1.
<mgrwt>
<rscale>  4 0.48000974E+03</rscale>
<asrwt>0</asrwt>
<pdfrwt beam="1">  1        2 0.16101885E-01 0.48000974E+03</pdfrwt>
<pdfrwt beam="2">  1       -2 0.99980565E-01 0.48000974E+03</pdfrwt>
<totfact> 0.30784399E+02</totfact>
</mgrwt>
</event>
<event>
 5    0  0.2754780E-002  0.5699699E+03  0.7546771E-02  0.9969745E-01
          2   -1    0    0  503    0  0.00000000000E+00  0.00000000000E+00  0.51148601956E+03  0.51148601956E+03  0.00000000000E+00 0. -1.
         -2   -1    0    0    0  501 -0.00000000000E+00 -0.00000000000E+00 -0.29103993434E+03  0.29103993434E+03  0.00000000000E+00 0.  1.
         25    1    1    2    0    0 -0.19705108625E+03 -0.64189906593E+02  0.15462845170E+03  0.28720103199E+03  0.12500000000E+03 0.  0.
         21    1    1    2  502  501 -0.27915741710E+02  0.15657873941E+02  0.23025770958E+03  0.23247165521E+03  0.00000000000E+00 0. -1.
         21    1    1    2  503  502  0.22496682796E+03  0.48532032652E+02 -0.16444007606E+03  0.28285326671E+03  0.00000000000E+00 0.  1.
<mgrwt>
<rscale>  4 0.56996985E+03</rscale>
<asrwt>0</asrwt>
<pdfrwt beam="1">  1        2 0.78690157E-01 0.56996985E+03</pdfrwt>
<pdfrwt beam="2">  1       -2 0.44775374E-01 0.56996985E+03</pdfrwt>
<totfact> 0.28786982E+02</totfact>
</mgrwt>
</event>
<event>
 5    0  0.2754780E-002  0.1279733E+04  0.7546771E-02  0.9045794E-01
          2   -1    0    0  502    0  0.00000000000E+00  0.00000000000E+00  0.48330640179E+03  0.48330640179E+03  0.00000000000E+00 0. -1.
         -2   -1    0    0    0  501 -0.00000000000E+00 -0.00000000000E+00 -0.11735474239E+04  0.11735474239E+04  0.00000000000E+00 0.  1.
         25    1    1    2    0    0  0.52513409933E+03  0.26956926391E+03 -0.15018323811E+03  0.62178245016E+03  0.12500000000E+03 0.  0.
         21    1    1    2  502  503 -0.55164279946E+03 -0.23203309896E+03 -0.66933885760E+03  0.89786616124E+03  0.00000000000E+00 0. -1.
         21    1    1    2  503  501  0.26508700136E+02 -0.37536164953E+02  0.12928107355E+03  0.13720521433E+03  0.00000000000E+00 0.  1.
<mgrwt>
<rscale>  4 0.12797326E+04</rscale>
<asrwt>0</asrwt>
<pdfrwt beam="1">  1        2 0.74354832E-01 0.12797326E+04</pdfrwt>
<pdfrwt beam="2">  1       -2 0.18054576E+00 0.12797326E+04</pdfrwt>
<totfact> 0.11244407E+01</totfact>
</mgrwt>
</event>
<event>
 5    0  0.2754780E-002  0.1277197E+04  0.7546771E-02  0.9047846E-01
         -3   -1    0    0    0  501 -0.00000000000E+00  0.00000000000E+00  0.22959749587E+04  0.22959749587E+04  0.00000000000E+00 0. -1.
          3   -1    0    0  502    0  0.00000000000E+00 -0.00000000000E+00 -0.19788965368E+03  0.19788965368E+03  0.00000000000E+00 0.  1.
         25    1    1    2    0    0 -0.92192582750E+02  0.57000301250E+03  0.60272155539E+03  0.84397937173E+03  0.12500000000E+03 0.  0.
         21    1    1    2  502  503  0.13103814136E+03 -0.58993189952E+03  0.14874410764E+04  0.16055128764E+04  0.00000000000E+00 0. -1.
         21    1    1    2  503  501 -0.38845558606E+02  0.19928887017E+02  0.79226732861E+01  0.44372364295E+02  0.00000000000E+00 0.  1.
<mgrwt>
<rscale>  4 0.12771971E+04</rscale>
<asrwt>0</asrwt>
<pdfrwt beam="1">  1        3 0.30444564E-01 0.12771971E+04</pdfrwt>
<pdfrwt beam="2">  1       -3 0.35322690E+00 0.12771971E+04</pdfrwt>
<totfact> 0.52642142E-01</totfact>
</mgrwt>
</event>
<event>
 5    0  0.2754780E-002  0.5624549E+03  0.7546771E-02  0.9986515E-01
          2   -1    0    0  502    0  0.00000000000E+00  0.00000000000E+00  0.43963231184E+03  0.43963231184E+03  0.00000000000E+00 0.  1.
         -2   -1    0    0    0  501 -0.00000000000E+00 -0.00000000000E+00 -0.22499493466E+03  0.22499493466E+03  0.00000000000E+00 0. -1.
         25    1    1    2    0    0 -0.22410005228E+03 -0.15866699396E+03  0.12406352666E+03  0.32620975928E+03  0.12500000000E+03 0.  0.
         21    1    1    2  502  503  0.20030504945E+03  0.15164936686E+03  0.71014846386E+01  0.25133657591E+03  0.00000000000E+00 0. -1.
         21    1    1    2  503  501  0.23795002826E+02  0.70176271050E+01  0.83472365881E+02  0.87080911315E+02  0.00000000000E+00 0. -1.
<mgrwt>
<rscale>  4 0.56245490E+03</rscale>
<asrwt>0</asrwt>
<pdfrwt beam="1">  1        2 0.67635740E-01 0.56245490E+03</pdfrwt>
<pdfrwt beam="2">  1       -2 0.34614605E-01 0.56245490E+03</pdfrwt>
<totfact> 0.56345758E+02</totfact>
</mgrwt>
</event>
<event>
 5    0  0.2754780E-002  0.4855702E+03  0.7546771E-02  0.1017615E+00
          2   -1    0    0  503    0  0.00000000000E+00  0.00000000000E+00  0.41748530136E+04  0.41748530136E+04  0.00000000000E+00 0. -1.
         -2   -1    0    0    0  501 -0.00000000000E+00 -0.00000000000E+00 -0.32605718371E+02  0.32605718371E+02  0.00000000000E+00 0.  1.
         25    1    1    2    0    0 -0.29322760816E+00  0.26602665305E+03  0.13771144760E+04  0.14081333553E+04  0.12500000000E+03 0.  0.
         21    1    1    2  502  501  0.27418106723E+02 -0.93586772829E+02  0.23070464333E+04  0.23091066415E+04  0.00000000000E+00 0. -1.
         21    1    1    2  503  502 -0.27124879115E+02 -0.17243988022E+03  0.45808638592E+03  0.49021873519E+03  0.00000000000E+00 0.  1.
<mgrwt>
<rscale>  4 0.48557024E+03</rscale>
<asrwt>0</asrwt>
<pdfrwt beam="1">  1        2 0.64228466E+00 0.48557024E+03</pdfrwt>
<pdfrwt beam="2">  1       -2 0.50162677E-02 0.48557024E+03</pdfrwt>
<totfact> 0.58935116E+01</totfact>
</mgrwt>
</event>
<event>
 5    0  0.2754780E-002  0.4825467E+03  0.7546771E-02  0.1018438E+00
         -2   -1    0    0    0  501 -0.00000000000E+00  0.00000000000E+00  0.14605577193E+03  0.14605577193E+03  0.00000000000E+00 0. -1.
          2   -1    0    0  502    0  0.00000000000E+00 -0.00000000000E+00 -0.69452519138E+03  0.69452519138E+03  0.00000000000E+00 0.  1.
         25    1    1    2    0    0 -0.12873662521E+03 -0.20614055035E+03 -0.17362803969E+03  0.32378811179E+03  0.12500000000E+03 0.  0.
         21    1    1    2  502  503  0.62719845364E+02  0.19800164359E+03 -0.93638810148E+02  0.22783032422E+03  0.00000000000E+00 0.  1.
         21    1    1    2  503  501  0.66016779844E+02  0.81389067602E+01 -0.28120256962E+03  0.28896252730E+03  0.00000000000E+00 0.  1.
<mgrwt>
<rscale>  4 0.48254671E+03</rscale>
<asrwt>0</asrwt>
<pdfrwt beam="1">  1        2 0.10685003E+00 0.48254671E+03</pdfrwt>
<pdfrwt beam="2">  1       -2 0.22470119E-01 0.48254671E+03</pdfrwt>
<totfact> 0.72523886E+02</totfact>
</mgrwt>
</event>
<event>
 5    0  0.2754780E-002  0.6468936E+03  0.7546771E-02  0.9812626E-01
         -1   -1    0    0    0  501 -0.00000000000E+00  0.00000000000E+00  0.38421758679E+03  0.38421758679E+03  0.00000000000E+00 0.  1.
          1   -1    0    0  503    0  0.00000000000E+00 -0.00000000000E+00 -0.42532293825E+03  0.42532293825E+03  0.00000000000E+00 0. -1.
         25    1    1    2    0    0 -0.13410131412E+03  0.18603699761E+03  0.88878996490E+02  0.27589382550E+03  0.12500000000E+03 0.  0.
         21    1    1    2  502  501  0.10734115885E+03 -0.29116740806E+03 -0.22986615509E+03  0.38618523167E+03  0.00000000000E+00 0. -1.
         21    1    1    2  503  502  0.26760155266E+02  0.10513041044E+03  0.99881807145E+02  0.14746146788E+03  0.00000000000E+00 0.  1.
<mgrwt>
<rscale>  4 0.64689358E+03</rscale>
<asrwt>0</asrwt>
<pdfrwt beam="1">  1        1 0.65434298E-01 0.64689358E+03</pdfrwt>
<pdfrwt beam="2">  1       -1 0.59110398E-01 0.64689358E+03</pdfrwt>
<totfact> 0.16361799E+02</totfact>
</mgrwt>
</event>
<event>
 5    0  0.2754780E-002  0.5720349E+03  0.7546771E-02  0.9965186E-01
         -2   -1    0    0    0  501 -0.00000000000E+00  0.00000000000E+00  0.19283505297E+04  0.19283505297E+04  0.00000000000E+00 0.  1.
          2   -1    0    0  503    0  0.00000000000E+00 -0.00000000000E+00 -0.54532385927E+02  0.54532385927E+02  0.00000000000E+00 0. -1.
         25    1    1    2    0    0  0.84082968376E+02 -0.19376518445E+03  0.38837450624E+03  0.45942861184E+03  0.12500000000E+03 0.  0.
         21    1    1    2  502  501 -0.43086174068E+02 -0.18369682584E+02  0.38962189114E+02  0.60925493963E+02  0.00000000000E+00 0.  1.
         21    1    1    2  503  502 -0.40996794307E+02  0.21213486704E+03  0.14464814484E+04  0.14625288098E+04  0.00000000000E+00 0.  1.
<mgrwt>
<rscale>  4 0.57203493E+03</rscale>
<asrwt>0</asrwt>
<pdfrwt beam="1">  1        2 0.83895993E-02 0.57203493E+03</pdfrwt>
<pdfrwt beam="2">  1       -2 0.29666926E+00 0.57203493E+03</pdfrwt>
<totfact> 0.29347877E+01</totfact>
</mgrwt>
</event>
<event>
 5    0  0.2754780E-002  0.4872050E+03  0.7546771E-02  0.1017174E+00
         -1   -1    0    0    0  501 -0.00000000000E+00  0.00000000000E+00  0.13973341666E+03  0.13973341666E+03  0.00000000000E+00 0. -1.
          1   -1    0    0  503    0  0.00000000000E+00 -0.00000000000E+00 -0.42468143889E+03  0.42468143889E+03  0.00000000000E+00 0.  1.
         25    1    1    2    0    0 -0.18822011307E+03 -0.10854125712E+03 -0.91601962883E+02  0.26687812774E+03  0.12500000000E+03 0.  0.
         21    1    1    2  502  501  0.45667238636E+02  0.10687854313E+01 -0.24608723506E+02  0.51886686728E+02  0.00000000000E+00 0. -1.
         21    1    1    2  503  502  0.14255287443E+03  0.10747247169E+03 -0.16873733583E+03  0.24565004108E+03  0.00000000000E+00 0. -1.
<mgrwt>
<rscale>  4 0.48720504E+03</rscale>
<asrwt>0</asrwt>
<pdfrwt beam="1">  1        1 0.65335606E-01 0.48720504E+03</pdfrwt>
<pdfrwt beam="2">  1       -1 0.21497449E-01 0.48720504E+03</pdfrwt>
<totfact> 0.10057511E+03</totfact>
</mgrwt>
</event>
<event>
 5    0  0.2754780E-002  0.5320269E+03  0.7546771E-02  0.1005742E+00
          2   -1    0    0  503    0  0.00000000000E+00  0.00000000000E+00  0.12908731801E+03  0.12908731801E+03  0.00000000000E+00 0.  1.
         -2   -1    0    0    0  501 -0.00000000000E+00 -0.00000000000E+00 -0.67318465179E+03  0.67318465179E+03  0.00000000000E+00 0. -1.
         25    1    1    2    0    0 -0.24807803653E+03  0.64775689384E+02 -0.23150134305E+03  0.36736422523E+03  0.12500000000E+03 0.  0.
         21    1    1    2  502  501  0.17523895742E+02 -0.11551245892E+02  0.18482680097E+02  0.27966545500E+02  0.00000000000E+00 0.  1.
         21    1    1    2  503  502  0.23055414079E+03 -0.53224443492E+02 -0.33107867083E+03  0.40694119907E+03  0.00000000000E+00 0.  1.
<mgrwt>
<rscale>  4 0.53202690E+03</rscale>
<asrwt>0</asrwt>
<pdfrwt beam="1">  1        2 0.19859588E-01 0.53202690E+03</pdfrwt>
<pdfrwt beam="2">  1       -2 0.10356687E+00 0.53202690E+03</pdfrwt>
<totfact> 0.22066205E+02</totfact>
</mgrwt>
</event>
<event>
 5    0  0.2754780E-002  0.4337417E+03  0.7546771E-02  0.1032684E+00
          1   -1    0    0  503    0  0.00000000000E+00  0.00000000000E+00  0.38821808251E+04  0.38821808251E+04  0.00000000000E+00 0. -1.
         -1   -1    0    0    0  501 -0.00000000000E+00 -0.00000000000E+00 -0.22279202438E+02  0.22279202438E+02  0.00000000000E+00 0.  1.
         25    1    1    2    0    0  0.18399182742E+03  0.11771232188E+03  0.14906725549E+04  0.15117667972E+04  0.12500000000E+03 0.  0.
         21    1    1    2  502  501 -0.94452584874E+02  0.34873497635E+02  0.16091125607E+04  0.16122594967E+04  0.00000000000E+00 0. -1.
         21    1    1    2  503  502 -0.89539242543E+02 -0.15258581952E+03  0.76011650697E+03  0.78043373354E+03  0.00000000000E+00 0. -1.
<mgrwt>
<rscale>  4 0.43374171E+03</rscale>
<asrwt>0</asrwt>
<pdfrwt beam="1">  1        1 0.59725805E+00 0.43374171E+03</pdfrwt>
<pdfrwt beam="2">  1       -1 0.34275727E-02 0.43374171E+03</pdfrwt>
<totfact> 0.46321533E+01</totfact>
</mgrwt>
</event>
<event>
 5    0  0.2754780E-002  0.4546628E+03  0.7546771E-02  0.1026341E+00
          2   -1    0    0  502    0  0.00000000000E+00  0.00000000000E+00  0.78237632246E+03  0.78237632246E+03  0.00000000000E+00 0. -1.
         -2   -1    0    0    0  501 -0.00000000000E+00 -0.00000000000E+00 -0.88855735588E+02  0.88855735588E+02  0.00000000000E+00 0.  1.
         25    1    1    2    0    0  0.22138404094E+03 -0.27459533814E+02  0.38455383192E+03  0.46181334890E+03  0.12500000000E+03 0.  0.
         21    1    1    2  502  503 -0.18067438402E+03  0.25504480200E+02  0.12544926369E+03  0.22142996480E+03  0.00000000000E+00 0.  1.
         21    1    1    2  503  501 -0.40709656930E+02  0.19550536135E+01  0.18351749127E+03  0.18798874435E+03  0.00000000000E+00 0. -1.
<mgrwt>
<rscale>  4 0.45466281E+03</rscale>
<asrwt>0</asrwt>
<pdfrwt beam="1">  1        2 0.12036558E+00 0.45466281E+03</pdfrwt>
<pdfrwt beam="2">  1       -2 0.13670114E-01 0.45466281E+03</pdfrwt>
<totfact> 0.14587631E+03</totfact>
</mgrwt>
</event>
<event>
 5    0  0.2754780E-002  0.9773419E+03  0.7546771E-02  0.9333751E-01
         -1   -1    0    0    0  501 -0.00000000000E+00  0.00000000000E+00  0.79007722110E+03  0.79007722110E+03  0.00000000000E+00 0. -1.
          1   -1    0    0  503    0  0.00000000000E+00 -0.00000000000E+00 -0.41685152763E+03  0.41685152763E+03  0.00000000000E+00 0.  1.
         25    1    1    2    0    0  0.26421700180E+03 -0.40899487512E+03  0.15601182695E+03  0.52635740905E+03  0.12500000000E+03 0.  0.
         21    1    1    2  502  501 -0.14812093994E+03  0.44194794389E+03  0.28080588258E+03  0.54415966559E+03  0.00000000000E+00 0. -1.
         21    1    1    2  503  502 -0.11609606187E+03 -0.32953068774E+02 -0.63592016056E+02  0.13641167409E+03  0.00000000000E+00 0. -1.
<mgrwt>
<rscale>  4 0.97734185E+03</rscale>
<asrwt>0</asrwt>
<pdfrwt beam="1">  1        1 0.64131004E-01 0.97734185E+03</pdfrwt>
<pdfrwt beam="2">  1       -1 0.12155034E+00 0.97734185E+03</pdfrwt>
<totfact> 0.34208572E+01</totfact>
</mgrwt>
</event>
<event>
 5    0  0.2754780E-002  0.5179967E+03  0.7546771E-02  0.1009185E+00
          2   -1    0    0  502    0  0.00000000000E+00  0.00000000000E+00  0.18577179076E+04  0.18577179076E+04  0.00000000000E+00 0.  1.
         -2   -1    0    0    0  501 -0.00000000000E+00 -0.00000000000E+00 -0.41406019565E+02  0.41406019565E+02  0.00000000000E+00 0. -1.
         25    1    1    2    0    0 -0.18518040352E+03  0.76514189426E+02  0.13463641609E+04  0.13669190381E+04  0.12500000000E+03 0.  0.
         21    1    1    2  502  503  0.16610401317E+03 -0.83763056912E+02  0.25159539338E+03  0.31290099850E+03  0.00000000000E+00 0. -1.
         21    1    1    2  503  501  0.19076390345E+02  0.72488674853E+01  0.21835233375E+03  0.21930389053E+03  0.00000000000E+00 0. -1.
<mgrwt>
<rscale>  4 0.51799674E+03</rscale>
<asrwt>0</asrwt>
<pdfrwt beam="1">  1        2 0.28580269E+00 0.51799674E+03</pdfrwt>
<pdfrwt beam="2">  1       -2 0.63701583E-02 0.51799674E+03</pdfrwt>
<totfact> 0.11694081E+03</totfact>
</mgrwt>
</event>
<event>
 5    0  0.2754780E-002  0.4638080E+03  0.7546771E-02  0.1023683E+00
         -2   -1    0    0    0  501 -0.00000000000E+00  0.00000000000E+00  0.59869678960E+02  0.59869678960E+02  0.00000000000E+00 0.  1.
          2   -1    0    0  502    0  0.00000000000E+00 -0.00000000000E+00 -0.12253091518E+04  0.12253091518E+04  0.00000000000E+00 0. -1.
         25    1    1    2    0    0 -0.16997683099E+03 -0.14140057164E+03 -0.49975224096E+03  0.56059213969E+03  0.12500000000E+03 0.  0.
         21    1    1    2  502  503  0.19392205211E+03  0.80104028449E+02 -0.41001124720E+03  0.46057750759E+03  0.00000000000E+00 0.  1.
         21    1    1    2  503  501 -0.23945221111E+02  0.61296543191E+02 -0.25567598473E+03  0.26400918353E+03  0.00000000000E+00 0. -1.
<mgrwt>
<rscale>  4 0.46380798E+03</rscale>
<asrwt>0</asrwt>
<pdfrwt beam="1">  1        2 0.18850911E+00 0.46380798E+03</pdfrwt>
<pdfrwt beam="2">  1       -2 0.92107194E-02 0.46380798E+03</pdfrwt>
<totfact> 0.14556364E+03</totfact>
</mgrwt>
</event>
<event>
 5    0  0.2754780E-002  0.6988788E+03  0.7546771E-02  0.9719151E-01
          2   -1    0    0  502    0  0.00000000000E+00  0.00000000000E+00  0.13003460882E+04  0.13003460882E+04  0.00000000000E+00 0.  1.
         -2   -1    0    0    0  501 -0.00000000000E+00 -0.00000000000E+00 -0.11835534771E+03  0.11835534771E+03  0.00000000000E+00 0. -1.
         25    1    1    2    0    0 -0.91467575819E+02  0.31150247779E+03  0.26941446581E+03  0.44001052883E+03  0.12500000000E+03 0.  0.
         21    1    1    2  502  503  0.57470897571E+02 -0.26863000413E+02  0.22443817773E+03  0.23323168841E+03  0.00000000000E+00 0.  1.
         21    1    1    2  503  501  0.33996678249E+02 -0.28463947738E+03  0.68813809695E+03  0.74545921866E+03  0.00000000000E+00 0.  1.
<mgrwt>
<rscale>  4 0.69887882E+03</rscale>
<asrwt>0</asrwt>
<pdfrwt beam="1">  1        2 0.20005323E+00 0.69887882E+03</pdfrwt>
<pdfrwt beam="2">  1       -2 0.18208516E-01 0.69887882E+03</pdfrwt>
<totfact> 0.42044367E+02</totfact>
</mgrwt>
</event>
<event>
 5    0  0.2754780E-002  0.6254765E+03  0.7546771E-02  0.9853916E-01
          2   -1    0    0  502    0  0.00000000000E+00  0.00000000000E+00  0.83009641774E+03  0.83009641774E+03  0.00000000000E+00 0.  1.
         -2   -1    0    0    0  501 -0.00000000000E+00 -0.00000000000E+00 -0.11782393297E+03  0.11782393297E+03  0.00000000000E+00 0. -1.
         25    1    1    2    0    0  0.86824825513E+02 -0.26760355041E+03  0.35701953093E+03  0.47142142079E+03  0.12500000000E+03 0.  0.
         21    1    1    2  502  503 -0.11947357929E+03  0.14837491072E+03  0.18039716590E+03  0.26235889111E+03  0.00000000000E+00 0. -1.
         21    1    1    2  503  501  0.32648753775E+02  0.11922863970E+03  0.17485578794E+03  0.21414003881E+03  0.00000000000E+00 0. -1.
<mgrwt>
<rscale>  4 0.62547654E+03</rscale>
<asrwt>0</asrwt>
<pdfrwt beam="1">  1        2 0.12770714E+00 0.62547654E+03</pdfrwt>
<pdfrwt beam="2">  1       -2 0.18126759E-01 0.62547654E+03</pdfrwt>
<totfact> 0.83533418E+02</totfact>
</mgrwt>
</event>
<event>
 5    0  0.2754780E-002  0.4815083E+03  0.7546771E-02  0.1018721E+00
         -1   -1    0    0    0  501 -0.00000000000E+00  0.00000000000E+00  0.58918670358E+03  0.58918670358E+03  0.00000000000E+00 0.  1.
          1   -1    0    0  502    0  0.00000000000E+00 -0.00000000000E+00 -0.15984616036E+03  0.15984616036E+03  0.00000000000E+00 0. -1.
         25    1    1    2    0    0 -0.24671798385E+02 -0.24544446027E+03  0.28390110645E+03  0.39632880158E+03  0.12500000000E+03 0.  0.
         21    1    1    2  502  503 -0.90705035471E+02  0.90542087503E+02  0.56560909949E+02  0.14008715003E+03  0.00000000000E+00 0. -1.
         21    1    1    2  503  501  0.11537683386E+03  0.15490237277E+03  0.88878526818E+02  0.21261691233E+03  0.00000000000E+00 0. -1.
<mgrwt>
<rscale>  4 0.48150828E+03</rscale>
<asrwt>0</asrwt>
<pdfrwt beam="1">  1        1 0.24591717E-01 0.48150828E+03</pdfrwt>
<pdfrwt beam="2">  1       -1 0.90644107E-01 0.48150828E+03</pdfrwt>
<totfact> 0.24265915E+02</totfact>
</mgrwt>
</event>
<event>
 5    0  0.2754780E-002  0.6003309E+03  0.7546771E-02  0.9904720E-01
         -1   -1    0    0    0  501 -0.00000000000E+00  0.00000000000E+00  0.14005778991E+03  0.14005778991E+03  0.00000000000E+00 0.  1.
          1   -1    0    0  502    0  0.00000000000E+00 -0.00000000000E+00 -0.12810224234E+04  0.12810224234E+04  0.00000000000E+00 0. -1.
         25    1    1    2    0    0 -0.10290492182E+03 -0.18125068171E+03 -0.14820652520E+03  0.28466015996E+03  0.12500000000E+03 0.  0.
         21    1    1    2  502  503  0.16742812584E+03  0.96359046336E+01 -0.48571666872E+02  0.17459735050E+03  0.00000000000E+00 0.  1.
         21    1    1    2  503  501 -0.64523204019E+02  0.17161477708E+03 -0.94418644138E+03  0.96182270282E+03  0.00000000000E+00 0. -1.
<mgrwt>
<rscale>  4 0.60033085E+03</rscale>
<asrwt>0</asrwt>
<pdfrwt beam="1">  1        1 0.19708037E+00 0.60033085E+03</pdfrwt>
<pdfrwt beam="2">  1       -1 0.21547352E-01 0.60033085E+03</pdfrwt>
<totfact> 0.17328678E+02</totfact>
</mgrwt>
</event>
<event>
 5    0  0.2754780E-002  0.7725746E+03  0.7546771E-02  0.9600585E-01
         -2   -1    0    0    0  501 -0.00000000000E+00  0.00000000000E+00  0.16133583813E+03  0.16133583813E+03  0.00000000000E+00 0. -1.
          2   -1    0    0  503    0  0.00000000000E+00 -0.00000000000E+00 -0.10403413441E+04  0.10403413441E+04  0.00000000000E+00 0.  1.
         25    1    1    2    0    0 -0.10612029402E+03  0.29163610255E+03 -0.10025533932E+03  0.34926961817E+03  0.12500000000E+03 0.  0.
         21    1    1    2  502  501 -0.25766182742E+02 -0.43128761451E+01 -0.10453616186E+03  0.10775113090E+03  0.00000000000E+00 0. -1.
         21    1    1    2  503  502  0.13188647676E+03 -0.28732322641E+03 -0.67421400484E+03  0.74465643320E+03  0.00000000000E+00 0.  1.
<mgrwt>
<rscale>  4 0.77257455E+03</rscale>
<asrwt>0</asrwt>
<pdfrwt beam="1">  1        2 0.16005252E+00 0.77257455E+03</pdfrwt>
<pdfrwt beam="2">  1       -2 0.24820897E-01 0.77257455E+03</pdfrwt>
<totfact> 0.34694544E+02</totfact>
</mgrwt>
</event>
<event>
 5    0  0.2754780E-002  0.7795739E+03  0.7546771E-02  0.9590063E-01
          2   -1    0    0  502    0  0.00000000000E+00  0.00000000000E+00  0.18671535899E+04  0.18671535899E+04  0.00000000000E+00 0. -1.
         -2   -1    0    0    0  501 -0.00000000000E+00 -0.00000000000E+00 -0.93824602969E+02  0.93824602969E+02  0.00000000000E+00 0.  1.
         25    1    1    2    0    0  0.92865276437E+02 -0.26869827769E+03  0.14187592363E+04  0.14523517117E+04  0.12500000000E+03 0.  0.
         21    1    1    2  502  503 -0.58685335040E+02  0.24818240000E+03  0.14108289100E+03  0.29144957429E+03  0.00000000000E+00 0.  1.
         21    1    1    2  503  501 -0.34179941397E+02  0.20515877692E+02  0.21348685969E+03  0.21717690691E+03  0.00000000000E+00 0. -1.
<mgrwt>
<rscale>  4 0.77957390E+03</rscale>
<asrwt>0</asrwt>
<pdfrwt beam="1">  1        2 0.28725437E+00 0.77957390E+03</pdfrwt>
<pdfrwt beam="2">  1       -2 0.14434556E-01 0.77957390E+03</pdfrwt>
<totfact> 0.30142768E+02</totfact>
</mgrwt>
</event>
<event>
 5    0  0.2754780E-002  0.5851463E+03  0.7546771E-02  0.9936711E-01
         -1   -1    0    0    0  501 -0.00000000000E+00  0.00000000000E+00  0.16991964081E+03  0.16991964081E+03  0.00000000000E+00 0. -1.
          1   -1    0    0  503    0  0.00000000000E+00 -0.00000000000E+00 -0.65733977663E+03  0.65733977663E+03  0.00000000000E+00 0.  1.
         25    1    1    2    0    0 -0.13513656075E+02  0.24283423020E+03 -0.32527807134E+02  0.27537999291E+03  0.12500000000E+03 0.  0.
         21    1    1    2  502  501  0.23001048882E+02  0.15419018646E+02 -0.14847381735E+03  0.15103399890E+03  0.00000000000E+00 0. -1.
         21    1    1    2  503  502 -0.94873928074E+01 -0.25825324885E+03 -0.30641851133E+03  0.40084542563E+03  0.00000000000E+00 0.  1.
<mgrwt>
<rscale>  4 0.58514631E+03</rscale>
<asrwt>0</asrwt>
<pdfrwt beam="1">  1        1 0.10112919E+00 0.58514631E+03</pdfrwt>
<pdfrwt beam="2">  1       -1 0.26141484E-01 0.58514631E+03</pdfrwt>
<totfact> 0.39418290E+02</totfact>
</mgrwt>
</event>
<event>
 5    0  0.2754780E-002  0.3925771E+03  0.7546771E-02  0.1046381E+00
         -1   -1    0    0    0  501 -0.00000000000E+00  0.00000000000E+00  0.19370246957E+02  0.19370246957E+02  0.00000000000E+00 0.  1.
          1   -1    0    0  502    0  0.00000000000E+00 -0.00000000000E+00 -0.30973921834E+04  0.30973921834E+04  0.00000000000E+00 0. -1.
         25    1    1    2    0    0 -0.20198299380E+03 -0.38012108741E+01 -0.16870943923E+04  0.17037382626E+04  0.12500000000E+03 0.  0.
         21    1    1    2  502  503  0.13197700198E+03 -0.56143680020E+02 -0.60782511956E+03  0.62451694759E+03  0.00000000000E+00 0.  1.
         21    1    1    2  503  501  0.70005991820E+02  0.59944890894E+02 -0.78310242461E+03  0.78850722017E+03  0.00000000000E+00 0. -1.
<mgrwt>
<rscale>  4 0.39257707E+03</rscale>
<asrwt>0</asrwt>
<pdfrwt beam="1">  1        1 0.47652196E+00 0.39257707E+03</pdfrwt>
<pdfrwt beam="2">  1       -1 0.29800375E-02 0.39257707E+03</pdfrwt>
<totfact> 0.22959011E+02</totfact>
</mgrwt>
</event>
<event>
 5    0  0.2754780E-002  0.5053625E+03  0.7546771E-02  0.1012389E+00
          2   -1    0    0  503    0  0.00000000000E+00  0.00000000000E+00  0.20436597587E+03  0.20436597587E+03  0.00000000000E+00 0.  1.
         -2   -1    0    0    0  501 -0.00000000000E+00 -0.00000000000E+00 -0.54844389956E+03  0.54844389956E+03  0.00000000000E+00 0. -1.
         25    1    1    2    0    0 -0.18886277605E+03  0.77400129174E+02 -0.48025607188E+02  0.24411347181E+03  0.12500000000E+03 0.  0.
         21    1    1    2  502  501  0.34757065515E+02  0.48540710895E+01  0.83664075492E+02  0.90726474291E+02  0.00000000000E+00 0.  1.
         21    1    1    2  503  502  0.15410571053E+03 -0.82254200264E+02 -0.37971639199E+03  0.41796992933E+03  0.00000000000E+00 0. -1.
<mgrwt>
<rscale>  4 0.50536246E+03</rscale>
<asrwt>0</asrwt>
<pdfrwt beam="1">  1        2 0.31440920E-01 0.50536246E+03</pdfrwt>
<pdfrwt beam="2">  1       -2 0.84375982E-01 0.50536246E+03</pdfrwt>
<totfact> 0.20998786E+02</totfact>
</mgrwt>
</event>
<event>
 5    0  0.2754780E-002  0.5368308E+03  0.7546771E-02  0.1004589E+00
         -1   -1    0    0    0  501 -0.00000000000E+00  0.00000000000E+00  0.58666355533E+03  0.58666355533E+03  0.00000000000E+00 0.  1.
          1   -1    0    0  503    0  0.00000000000E+00 -0.00000000000E+00 -0.15834844363E+03  0.15834844363E+03  0.00000000000E+00 0. -1.
         25    1    1    2    0    0  0.33060570681E+02  0.21611564965E+03  0.40429898324E+03  0.47632094559E+03  0.12500000000E+03 0.  0.
         21    1    1    2  502  501  0.10235425689E+02 -0.67675739881E+02  0.79049850423E+02  0.10456408829E+03  0.00000000000E+00 0. -1.
         21    1    1    2  503  502 -0.43295996370E+02 -0.14843990977E+03 -0.55033721958E+02  0.16412696508E+03  0.00000000000E+00 0. -1.
<mgrwt>
<rscale>  4 0.53683080E+03</rscale>
<asrwt>0</asrwt>
<pdfrwt beam="1">  1        1 0.24361299E-01 0.53683080E+03</pdfrwt>
<pdfrwt beam="2">  1       -1 0.90255931E-01 0.53683080E+03</pdfrwt>
<totfact> 0.24731626E+02</totfact>
</mgrwt>
</event>
<event>
 5    0  0.2754780E-002  0.5158960E+03  0.7546771E-02  0.1009711E+00
         -2   -1    0    0    0  501 -0.00000000000E+00  0.00000000000E+00  0.79465907812E+02  0.79465907812E+02  0.00000000000E+00 0.  1.
          2   -1    0    0  503    0  0.00000000000E+00 -0.00000000000E+00 -0.12100437073E+04  0.12100437073E+04  0.00000000000E+00 0. -1.
         25    1    1    2    0    0 -0.10340415545E+03 -0.23599998797E+03 -0.51479528975E+03  0.58909048883E+03  0.12500000000E+03 0.  0.
         21    1    1    2  502  501 -0.65617749683E+01  0.43533262765E+02 -0.35688812960E+03  0.35959329653E+03  0.00000000000E+00 0. -1.
         21    1    1    2  503  502  0.10996593042E+03  0.19246672521E+03 -0.25889438018E+03  0.34082582980E+03  0.00000000000E+00 0.  1.
<mgrwt>
<rscale>  4 0.51589597E+03</rscale>
<asrwt>0</asrwt>
<pdfrwt beam="1">  1        2 0.18616056E+00 0.51589597E+03</pdfrwt>
<pdfrwt beam="2">  1       -2 0.12225525E-01 0.51589597E+03</pdfrwt>
<totfact> 0.93634167E+02</totfact>
</mgrwt>
</event>
<event>
 5    0  0.2754780E-002  0.8380268E+03  0.7546771E-02  0.9506549E-01
          2   -1    0    0  503    0  0.00000000000E+00  0.00000000000E+00  0.21320254506E+04  0.21320254506E+04  0.00000000000E+00 0. -1.
         -2   -1    0    0    0  501 -0.00000000000E+00 -0.00000000000E+00 -0.82349973906E+02  0.82349973906E+02  0.00000000000E+00 0.  1.
         25    1    1    2    0    0 -0.33846692269E+03 -0.18757966885E+03  0.74310693406E+03  0.84710029240E+03  0.12500000000E+03 0.  0.
         21    1    1    2  502  501  0.38959166460E+02  0.42275416969E+02  0.34393786236E+03  0.34870945026E+03  0.00000000000E+00 0. -1.
         21    1    1    2  503  502  0.29950775623E+03  0.14530425188E+03  0.96263068023E+03  0.10185656818E+04  0.00000000000E+00 0. -1.
<mgrwt>
<rscale>  4 0.83802683E+03</rscale>
<asrwt>0</asrwt>
<pdfrwt beam="1">  1        2 0.32800387E+00 0.83802683E+03</pdfrwt>
<pdfrwt beam="2">  1       -2 0.12669228E-01 0.83802683E+03</pdfrwt>
<totfact> 0.26742580E+02</totfact>
</mgrwt>
</event>
<event>
 5    0  0.2754780E-002  0.5459950E+03  0.7546771E-02  0.1002425E+00
          4   -1    0    0  502    0  0.00000000000E+00  0.00000000000E+00  0.10899767754E+03  0.10899767754E+03  0.00000000000E+00 0.  1.
         -4   -1    0    0    0  501 -0.00000000000E+00 -0.00000000000E+00 -0.68375424738E+03  0.68375424738E+03  0.00000000000E+00 0. -1.
         25    1    1    2    0    0 -0.23197920979E+03 -0.32029884729E+02 -0.44986651972E+03  0.52234581731E+03  0.12500000000E+03 0.  0.
         21    1    1    2  502  503  0.19724388273E+03  0.35025430094E+02 -0.12385815502E+03  0.23552658574E+03  0.00000000000E+00 0. -1.
         21    1    1    2  503  501  0.34735327068E+02 -0.29955453653E+01 -0.10318950917E+01  0.34879521872E+02  0.00000000000E+00 0. -1.
<mgrwt>
<rscale>  4 0.54599496E+03</rscale>
<asrwt>0</asrwt>
<pdfrwt beam="1">  1        4 0.16768874E-01 0.54599496E+03</pdfrwt>
<pdfrwt beam="2">  1       -4 0.10519296E+00 0.54599496E+03</pdfrwt>
<totfact> 0.45763221E+01</totfact>
</mgrwt>
</event>
<event>
 5    0  0.2754780E-002  0.4694640E+03  0.7546771E-02  0.1022072E+00
         -2   -1    0    0    0  501 -0.00000000000E+00  0.00000000000E+00  0.12777533633E+03  0.12777533633E+03  0.00000000000E+00 0. -1.
          2   -1    0    0  502    0  0.00000000000E+00 -0.00000000000E+00 -0.57325074456E+03  0.57325074456E+03  0.00000000000E+00 0.  1.
         25    1    1    2    0    0 -0.44227147723E+02 -0.22698330673E+03 -0.19631007747E+03  0.32808552032E+03  0.12500000000E+03 0.  0.
         21    1    1    2  502  503  0.34285927288E+02  0.20214125200E+03 -0.11286936938E+03  0.23404295570E+03  0.00000000000E+00 0.  1.
         21    1    1    2  503  501  0.99412204349E+01  0.24842054733E+02 -0.13629596139E+03  0.13889760487E+03  0.00000000000E+00 0.  1.
<mgrwt>
<rscale>  4 0.46946405E+03</rscale>
<asrwt>0</asrwt>
<pdfrwt beam="1">  1        2 0.88192421E-01 0.46946405E+03</pdfrwt>
<pdfrwt beam="2">  1       -2 0.19657744E-01 0.46946405E+03</pdfrwt>
<totfact> 0.11552187E+03</totfact>
</mgrwt>
</event>
<event>
 5    0  0.2754780E-002  0.5575607E+03  0.7546771E-02  0.9997589E-01
         -2   -1    0    0    0  501 -0.00000000000E+00  0.00000000000E+00  0.47156668631E+02  0.47156668631E+02  0.00000000000E+00 0. -1.
          2   -1    0    0  503    0  0.00000000000E+00 -0.00000000000E+00 -0.28068872719E+04  0.28068872719E+04  0.00000000000E+00 0.  1.
         25    1    1    2    0    0 -0.25604287951E+03 -0.44262996254E+02 -0.58820014678E+03  0.65507372231E+03  0.12500000000E+03 0.  0.
         21    1    1    2  502  501  0.29041589511E+02 -0.20489897126E+02 -0.11488599157E+04  0.11494095683E+04  0.00000000000E+00 0.  1.
         21    1    1    2  503  502  0.22700129000E+03  0.64752893380E+02 -0.10226705408E+04  0.10495606500E+04  0.00000000000E+00 0.  1.
<mgrwt>
<rscale>  4 0.55756073E+03</rscale>
<asrwt>0</asrwt>
<pdfrwt beam="1">  1        2 0.43182882E+00 0.55756073E+03</pdfrwt>
<pdfrwt beam="2">  1       -2 0.72548719E-02 0.55756073E+03</pdfrwt>
<totfact> 0.28230941E+02</totfact>
</mgrwt>
</event>
<event>
 5    0  0.2754780E-002  0.6293855E+03  0.7546771E-02  0.9846249E-01
          1   -1    0    0  502    0  0.00000000000E+00  0.00000000000E+00  0.12195870021E+04  0.12195870021E+04  0.00000000000E+00 0. -1.
         -1   -1    0    0    0  501 -0.00000000000E+00 -0.00000000000E+00 -0.92837932773E+02  0.92837932773E+02  0.00000000000E+00 0.  1.
         25    1    1    2    0    0  0.21373406762E+03 -0.47175098248E+02  0.12343818684E+03  0.28065945116E+03  0.12500000000E+03 0.  0.
         21    1    1    2  502  503 -0.19987437805E+03  0.71554879629E+02  0.86875787773E+03  0.89432103739E+03  0.00000000000E+00 0. -1.
         21    1    1    2  503  501 -0.13859689571E+02 -0.24379781382E+02  0.13455300475E+03  0.13744444631E+03  0.00000000000E+00 0. -1.
<mgrwt>
<rscale>  4 0.62938551E+03</rscale>
<asrwt>0</asrwt>
<pdfrwt beam="1">  1        1 0.18762876E+00 0.62938551E+03</pdfrwt>
<pdfrwt beam="2">  1       -1 0.14282760E-01 0.62938551E+03</pdfrwt>
<totfact> 0.37557156E+02</totfact>
</mgrwt>
</event>
<event>
 5    0  0.2754780E-002  0.5581138E+03  0.7546771E-02  0.9996332E-01
          1   -1    0    0  503    0  0.00000000000E+00  0.00000000000E+00  0.43330154602E+03  0.43330154602E+03  0.00000000000E+00 0.  1.
         -1   -1    0    0    0  501 -0.00000000000E+00 -0.00000000000E+00 -0.19373373686E+03  0.19373373686E+03  0.00000000000E+00 0. -1.
         25    1    1    2    0    0 -0.22829659542E+03  0.13966095748E+03  0.14944439671E+03  0.33103345184E+03  0.12500000000E+03 0.  0.
         21    1    1    2  502  501  0.17098171580E+02  0.12782458283E+02  0.92612317030E+01  0.23270348597E+02  0.00000000000E+00 0. -1.
         21    1    1    2  503  502  0.21119842384E+03 -0.15244341577E+03  0.80862180749E+02  0.27273148245E+03  0.00000000000E+00 0. -1.
<mgrwt>
<rscale>  4 0.55811377E+03</rscale>
<asrwt>0</asrwt>
<pdfrwt beam="1">  1        1 0.66661776E-01 0.55811377E+03</pdfrwt>
<pdfrwt beam="2">  1       -1 0.29805191E-01 0.55811377E+03</pdfrwt>
<totfact> 0.56193743E+02</totfact>
</mgrwt>
</event>
<event>
 5    0  0.2754780E-002  0.7101717E+03  0.7546771E-02  0.9699994E-01
         -2   -1    0    0    0  501 -0.00000000000E+00  0.00000000000E+00  0.18005435139E+03  0.18005435139E+03  0.00000000000E+00 0. -1.
          2   -1    0    0  502    0  0.00000000000E+00 -0.00000000000E+00 -0.82385583502E+03  0.82385583502E+03  0.00000000000E+00 0.  1.
         25    1    1    2    0    0 -0.69983843172E+02 -0.34757381414E+03 -0.27243920065E+03  0.46427730143E+03  0.12500000000E+03 0.  0.
         21    1    1    2  502  503  0.47331868170E+02  0.33076308434E+03 -0.25615496042E+03  0.42102243106E+03  0.00000000000E+00 0. -1.
         21    1    1    2  503  501  0.22651975002E+02  0.16810729795E+02 -0.11520732256E+03  0.11861045392E+03  0.00000000000E+00 0.  1.
<mgrwt>
<rscale>  4 0.71017169E+03</rscale>
<asrwt>0</asrwt>
<pdfrwt beam="1">  1        2 0.12674705E+00 0.71017169E+03</pdfrwt>
<pdfrwt beam="2">  1       -2 0.27700670E-01 0.71017169E+03</pdfrwt>
<totfact> 0.39649990E+02</totfact>
</mgrwt>
</event>
<event>
 5    0  0.2754780E-002  0.5223359E+03  0.7546771E-02  0.1008108E+00
         -1   -1    0    0    0  501 -0.00000000000E+00  0.00000000000E+00  0.14240622494E+03  0.14240622494E+03  0.00000000000E+00 0.  1.
          1   -1    0    0  503    0  0.00000000000E+00 -0.00000000000E+00 -0.70310457603E+03  0.70310457603E+03  0.00000000000E+00 0. -1.
         25    1    1    2    0    0  0.19194413865E+03  0.12384298744E+03 -0.42309842481E+02  0.26380818917E+03  0.12500000000E+03 0.  0.
         21    1    1    2  502  501 -0.15590969049E+02 -0.28411259164E+02 -0.21889230020E+03  0.22127837004E+03  0.00000000000E+00 0.  1.
         21    1    1    2  503  502 -0.17635316961E+03 -0.95431728273E+02 -0.29949620841E+03  0.36042424176E+03  0.00000000000E+00 0. -1.
<mgrwt>
<rscale>  4 0.52233586E+03</rscale>
<asrwt>0</asrwt>
<pdfrwt beam="1">  1        1 0.10816994E+00 0.52233586E+03</pdfrwt>
<pdfrwt beam="2">  1       -1 0.21908650E-01 0.52233586E+03</pdfrwt>
<totfact> 0.48193958E+02</totfact>
</mgrwt>
</event>
<event>
 5    0  0.2754780E-002  0.4571553E+03  0.7546771E-02  0.1025610E+00
         -2   -1    0    0    0  501 -0.00000000000E+00  0.00000000000E+00  0.22051457754E+02  0.22051457754E+02  0.00000000000E+00 0.  1.
          2   -1    0    0  502    0  0.00000000000E+00 -0.00000000000E+00 -0.27944300798E+04  0.27944300798E+04  0.00000000000E+00 0. -1.
         25    1    1    2    0    0  0.21746979553E+03 -0.56733163791E+02 -0.13263101316E+04  0.13510127050E+04  0.12500000000E+03 0.  0.
         21    1    1    2  502  503 -0.19426108399E+03  0.47237148855E+02 -0.10667389133E+04  0.10853113038E+04  0.00000000000E+00 0.  1.
         21    1    1    2  503  501 -0.23208711545E+02  0.94960149363E+01 -0.37932957717E+03  0.38015752881E+03  0.00000000000E+00 0. -1.
<mgrwt>
<rscale>  4 0.45715527E+03</rscale>
<asrwt>0</asrwt>
<pdfrwt beam="1">  1        2 0.42991214E+00 0.45715527E+03</pdfrwt>
<pdfrwt beam="2">  1       -2 0.33925334E-02 0.45715527E+03</pdfrwt>
<totfact> 0.94202003E+02</totfact>
</mgrwt>
</event>
<event>
 5    0  0.2754780E-002  0.5003837E+03  0.7546771E-02  0.1013679E+00
         -3   -1    0    0    0  501 -0.00000000000E+00  0.00000000000E+00  0.33509666991E+03  0.33509666991E+03  0.00000000000E+00 0. -1.
          3   -1    0    0  502    0  0.00000000000E+00 -0.00000000000E+00 -0.18679967637E+03  0.18679967637E+03  0.00000000000E+00 0.  1.
         25    1    1    2    0    0 -0.19500607882E+02  0.22349826881E+03  0.13233909011E+03  0.28891241690E+03  0.12500000000E+03 0.  0.
         21    1    1    2  502  503  0.36734603900E+02 -0.18251737100E+03  0.24281780373E+02  0.18775416560E+03  0.00000000000E+00 0. -1.
         21    1    1    2  503  501 -0.17233996018E+02 -0.40980897806E+02 -0.83238769415E+01  0.45229763775E+02  0.00000000000E+00 0. -1.
<mgrwt>
<rscale>  4 0.50038365E+03</rscale>
<asrwt>0</asrwt>
<pdfrwt beam="1">  1        3 0.28738412E-01 0.50038365E+03</pdfrwt>
<pdfrwt beam="2">  1       -3 0.51553334E-01 0.50038365E+03</pdfrwt>
<totfact> 0.11415617E+02</totfact>
</mgrwt>
</event>
<event>
 5    0  0.2754780E-002  0.5959544E+03  0.7546771E-02  0.9913835E-01
         -2   -1    0    0    0  501 -0.00000000000E+00  0.00000000000E+00  0.89827945724E+02  0.89827945724E+02  0.00000000000E+00 0.  1.
          2   -1    0    0  503    0  0.00000000000E+00 -0.00000000000E+00 -0.18451637613E+04  0.18451637613E+04  0.00000000000E+00 0. -1.
         25    1    1    2    0    0  0.98082133196E+02 -0.20188907106E+03 -0.80583305806E+03  0.84579620437E+03  0.12500000000E+03 0.  0.
         21    1    1    2  502  501 -0.21736375410E+02  0.20223956605E+01 -0.85503933813E+03  0.85531797003E+03  0.00000000000E+00 0. -1.
         21    1    1    2  503  502 -0.76345757786E+02  0.19986667540E+03 -0.94463419390E+02  0.23387753263E+03  0.00000000000E+00 0.  1.
<mgrwt>
<rscale>  4 0.59595439E+03</rscale>
<asrwt>0</asrwt>
<pdfrwt beam="1">  1        2 0.28387133E+00 0.59595439E+03</pdfrwt>
<pdfrwt beam="2">  1       -2 0.13819685E-01 0.59595439E+03</pdfrwt>
<totfact> 0.33833708E+02</totfact>
</mgrwt>
</event>
<event>
 5    0  0.2754780E-002  0.4614763E+03  0.7546771E-02  0.1024354E+00
          2   -1    0    0  502    0  0.00000000000E+00  0.00000000000E+00  0.17544490926E+04  0.17544490926E+04  0.00000000000E+00 0.  1.
         -2   -1    0    0    0  501 -0.00000000000E+00 -0.00000000000E+00 -0.68647221504E+02  0.68647221504E+02  0.00000000000E+00 0. -1.
         25    1    1    2    0    0  0.39271771850E+02 -0.20228483021E+03  0.50121761686E+03  0.55615242879E+03  0.12500000000E+03 0.  0.
         21    1    1    2  502  503  0.14832197415E+02  0.81793992878E+02  0.86067675419E+01  0.83572290854E+02  0.00000000000E+00 0. -1.
         21    1    1    2  503  501 -0.54103969264E+02  0.12049083733E+03  0.11759774867E+04  0.11833715945E+04  0.00000000000E+00 0.  1.
<mgrwt>
<rscale>  4 0.46147634E+03</rscale>
<asrwt>0</asrwt>
<pdfrwt beam="1">  1        2 0.26991521E+00 0.46147634E+03</pdfrwt>
<pdfrwt beam="2">  1       -2 0.10561112E-01 0.46147634E+03</pdfrwt>
<totfact> 0.59655786E+02</totfact>
</mgrwt>
</event>
<event>
 5    0  0.2754780E-002  0.5994743E+03  0.7546771E-02  0.9906497E-01
          3   -1    0    0  503    0  0.00000000000E+00  0.00000000000E+00  0.21955319454E+03  0.21955319454E+03  0.00000000000E+00 0. -1.
         -3   -1    0    0    0  501 -0.00000000000E+00 -0.00000000000E+00 -0.61506953458E+03  0.61506953458E+03  0.00000000000E+00 0.  1.
         25    1    1    2    0    0 -0.17554539580E+03 -0.12852672077E+03 -0.20880370431E+03  0.32643420603E+03  0.12500000000E+03 0.  0.
         21    1    1    2  502  501 -0.56750380039E+02 -0.11957800411E+03 -0.42941353341E+02  0.13915266627E+03  0.00000000000E+00 0. -1.
         21    1    1    2  503  502  0.23229577583E+03  0.24810472488E+03 -0.14377128239E+03  0.36903585682E+03  0.00000000000E+00 0.  1.
<mgrwt>
<rscale>  4 0.59947434E+03</rscale>
<asrwt>0</asrwt>
<pdfrwt beam="1">  1        3 0.33777415E-01 0.59947434E+03</pdfrwt>
<pdfrwt beam="2">  1       -3 0.94626080E-01 0.59947434E+03</pdfrwt>
<totfact> 0.22522086E+01</totfact>
</mgrwt>
</event>
<event>
 5    0  0.2754780E-002  0.5260666E+03  0.7546771E-02  0.1007191E+00
         -2   -1    0    0    0  501 -0.00000000000E+00  0.00000000000E+00  0.13846659710E+03  0.13846659710E+03  0.00000000000E+00 0. -1.
          2   -1    0    0  502    0  0.00000000000E+00 -0.00000000000E+00 -0.95579726153E+03  0.95579726153E+03  0.00000000000E+00 0.  1.
         25    1    1    2    0    0  0.86673869823E+02  0.23452260335E+03 -0.42028983955E+03  0.50475911128E+03  0.12500000000E+03 0.  0.
         21    1    1    2  502  503  0.92084854526E+02 -0.15191216394E+03 -0.34143086676E+03  0.38487915345E+03  0.00000000000E+00 0. -1.
         21    1    1    2  503  501 -0.17875872435E+03 -0.82610439414E+02 -0.55609958117E+02  0.20462559388E+03  0.00000000000E+00 0. -1.
<mgrwt>
<rscale>  4 0.52606658E+03</rscale>
<asrwt>0</asrwt>
<pdfrwt beam="1">  1        2 0.14704573E+00 0.52606658E+03</pdfrwt>
<pdfrwt beam="2">  1       -2 0.21302554E-01 0.52606658E+03</pdfrwt>
<totfact> 0.52150265E+02</totfact>
</mgrwt>
</event>
<event>
 5    0  0.2754780E-002  0.9924116E+03  0.7546771E-02  0.9316907E-01
          1   -1    0    0  503    0  0.00000000000E+00  0.00000000000E+00  0.84010889019E+03  0.84010889019E+03  0.00000000000E+00 0. -1.
         -1   -1    0    0    0  501 -0.00000000000E+00 -0.00000000000E+00 -0.66442022357E+03  0.66442022357E+03  0.00000000000E+00 0.  1.
         25    1    1    2    0    0 -0.11758170382E+03  0.24909512452E+03 -0.56907821561E+03  0.64447564237E+03  0.12500000000E+03 0.  0.
         21    1    1    2  502  501  0.41978474823E+02  0.15026515420E+02  0.46787793205E+03  0.46999760405E+03  0.00000000000E+00 0. -1.
         21    1    1    2  503  502  0.75603228997E+02 -0.26412163994E+03  0.27688895018E+03  0.39005586734E+03  0.00000000000E+00 0. -1.
<mgrwt>
<rscale>  4 0.99241165E+03</rscale>
<asrwt>0</asrwt>
<pdfrwt beam="1">  1        1 0.12924752E+00 0.99241165E+03</pdfrwt>
<pdfrwt beam="2">  1       -1 0.10221850E+00 0.99241165E+03</pdfrwt>
<totfact> 0.18558947E+01</totfact>
</mgrwt>
</event>
<event>
 5    0  0.2754780E-002  0.5262007E+03  0.7546771E-02  0.1007158E+00
         -1   -1    0    0    0  501 -0.00000000000E+00  0.00000000000E+00  0.97571523314E+02  0.97571523314E+02  0.00000000000E+00 0. -1.
          1   -1    0    0  503    0  0.00000000000E+00 -0.00000000000E+00 -0.96796731692E+03  0.96796731692E+03  0.00000000000E+00 0.  1.
         25    1    1    2    0    0 -0.53141964503E+02 -0.20660183129E+03 -0.57261797163E+03  0.62371846735E+03  0.12500000000E+03 0.  0.
         21    1    1    2  502  501  0.11171842787E+02  0.28268130044E+02 -0.25087000807E+03  0.25270468574E+03  0.00000000000E+00 0.  1.
         21    1    1    2  503  502  0.41970121715E+02  0.17833370124E+03 -0.46907813905E+02  0.18911568714E+03  0.00000000000E+00 0. -1.
<mgrwt>
<rscale>  4 0.52620069E+03</rscale>
<asrwt>0</asrwt>
<pdfrwt beam="1">  1        1 0.14891805E+00 0.52620069E+03</pdfrwt>
<pdfrwt beam="2">  1       -1 0.15011003E-01 0.52620069E+03</pdfrwt>
<totfact> 0.53641585E+02</totfact>
</mgrwt>
</event>
<event>
 5    0  0.2754780E-002  0.6259511E+03  0.7546771E-02  0.9852982E-01
          2   -1    0    0  503    0  0.00000000000E+00  0.00000000000E+00  0.26695696610E+03  0.26695696610E+03  0.00000000000E+00 0.  1.
         -2   -1    0    0    0  501 -0.00000000000E+00 -0.00000000000E+00 -0.47512111638E+03  0.47512111638E+03  0.00000000000E+00 0. -1.
         25    1    1    2    0    0 -0.20746896783E+03  0.10783134705E+03  0.10082057983E+03  0.28365606169E+03  0.12500000000E+03 0.  0.
         21    1    1    2  502  501  0.57254331294E+02 -0.14628183338E+02  0.37119128632E+02  0.69784467542E+02  0.00000000000E+00 0. -1.
         21    1    1    2  503  502  0.15021463654E+03 -0.93203163711E+02 -0.34610385874E+03  0.38863755325E+03  0.00000000000E+00 0. -1.
<mgrwt>
<rscale>  4 0.62595113E+03</rscale>
<asrwt>0</asrwt>
<pdfrwt beam="1">  1        2 0.41070303E-01 0.62595113E+03</pdfrwt>
<pdfrwt beam="2">  1       -2 0.73095556E-01 0.62595113E+03</pdfrwt>
<totfact> 0.21400431E+02</totfact>
</mgrwt>
</event>
<event>
 5    0  0.2754780E-002  0.5618215E+03  0.7546771E-02  0.9987942E-01
         -1   -1    0    0    0  501 -0.00000000000E+00  0.00000000000E+00  0.21692085423E+03  0.21692085423E+03  0.00000000000E+00 0.  1.
          1   -1    0    0  503    0  0.00000000000E+00 -0.00000000000E+00 -0.80004503067E+03  0.80004503067E+03  0.00000000000E+00 0. -1.
         25    1    1    2    0    0  0.19210218965E+02 -0.26863359272E+03 -0.17613541378E+03  0.34522706099E+03  0.12500000000E+03 0.  0.
         21    1    1    2  502  501  0.35005193442E+02  0.39698328580E+02 -0.43192320793E+03  0.43515397092E+03  0.00000000000E+00 0.  1.
         21    1    1    2  503  502 -0.54215412407E+02  0.22893526414E+03  0.24934445268E+02  0.23658485300E+03  0.00000000000E+00 0.  1.
<mgrwt>
<rscale>  4 0.56182148E+03</rscale>
<asrwt>0</asrwt>
<pdfrwt beam="1">  1        1 0.12308385E+00 0.56182148E+03</pdfrwt>
<pdfrwt beam="2">  1       -1 0.33372438E-01 0.56182148E+03</pdfrwt>
<totfact> 0.19177822E+02</totfact>
</mgrwt>
</event>
<event>
 5    0  0.2754780E-002  0.6145056E+03  0.7546771E-02  0.9875760E-01
          1   -1    0    0  502    0  0.00000000000E+00  0.00000000000E+00  0.76391930746E+03  0.76391930746E+03  0.00000000000E+00 0.  1.
         -1   -1    0    0    0  501 -0.00000000000E+00 -0.00000000000E+00 -0.19582599068E+03  0.19582599068E+03  0.00000000000E+00 0. -1.
         25    1    1    2    0    0 -0.29860339424E+03 -0.28100408476E+02  0.27940274963E+03  0.42853764888E+03  0.12500000000E+03 0.  0.
         21    1    1    2  502  503  0.25271194551E+03  0.11898453667E+01  0.15830842057E+02  0.25321010781E+03  0.00000000000E+00 0.  1.
         21    1    1    2  503  501  0.45891448724E+02  0.26910563109E+02  0.27285972509E+03  0.27799754145E+03  0.00000000000E+00 0.  1.
<mgrwt>
<rscale>  4 0.61450560E+03</rscale>
<asrwt>0</asrwt>
<pdfrwt beam="1">  1        1 0.11752605E+00 0.61450560E+03</pdfrwt>
<pdfrwt beam="2">  1       -1 0.30127076E-01 0.61450560E+03</pdfrwt>
<totfact> 0.24567767E+02</totfact>
</mgrwt>
</event>
<event>
 5    0  0.2754780E-002  0.1013127E+04  0.7546771E-02  0.9294263E-01
          2   -1    0    0  503    0  0.00000000000E+00  0.00000000000E+00  0.21805117970E+03  0.21805117970E+03  0.00000000000E+00 0.  1.
         -2   -1    0    0    0  501 -0.00000000000E+00 -0.00000000000E+00 -0.11768191153E+04  0.11768191153E+04  0.00000000000E+00 0. -1.
         25    1    1    2    0    0 -0.14543599724E+03  0.42092566951E+03 -0.76636682181E+03  0.89513862285E+03  0.12500000000E+03 0.  0.
         21    1    1    2  502  501  0.19334840447E+02 -0.80578953019E+02  0.11119766211E+02  0.83608928503E+02  0.00000000000E+00 0. -1.
         21    1    1    2  503  502  0.12610115679E+03 -0.34034671649E+03 -0.20352087997E+03  0.41612274362E+03  0.00000000000E+00 0. -1.
<mgrwt>
<rscale>  4 0.10131274E+04</rscale>
<asrwt>0</asrwt>
<pdfrwt beam="1">  1        2 0.33546335E-01 0.10131274E+04</pdfrwt>
<pdfrwt beam="2">  1       -2 0.18104910E+00 0.10131274E+04</pdfrwt>
<totfact> 0.27914244E+01</totfact>
</mgrwt>
</event>
<event>
 5    0  0.2754780E-002  0.4726843E+03  0.7546771E-02  0.1021165E+00
         -2   -1    0    0    0  501 -0.00000000000E+00  0.00000000000E+00  0.33262341019E+02  0.33262341019E+02  0.00000000000E+00 0.  1.
          2   -1    0    0  503    0  0.00000000000E+00 -0.00000000000E+00 -0.16793052078E+04  0.16793052078E+04  0.00000000000E+00 0. -1.
         25    1    1    2    0    0 -0.10977731678E+03  0.18647729027E+03 -0.94651105626E+03  0.97894484967E+03  0.12500000000E+03 0.  0.
         21    1    1    2  502  501  0.15044466169E+02 -0.34284876886E+02 -0.18514795310E+03  0.18889561478E+03  0.00000000000E+00 0. -1.
         21    1    1    2  503  502  0.94732850614E+02 -0.15219241338E+03 -0.51438385746E+03  0.54472708441E+03  0.00000000000E+00 0.  1.
<mgrwt>
<rscale>  4 0.47268434E+03</rscale>
<asrwt>0</asrwt>
<pdfrwt beam="1">  1        2 0.25835458E+00 0.47268434E+03</pdfrwt>
<pdfrwt beam="2">  1       -2 0.51172845E-02 0.47268434E+03</pdfrwt>
<totfact> 0.20555370E+03</totfact>
</mgrwt>
</event>
<event>
 5    0  0.2754780E-002  0.4947405E+03  0.7546771E-02  0.1015161E+00
         -2   -1    0    0    0  501 -0.00000000000E+00  0.00000000000E+00  0.19454394608E+03  0.19454394608E+03  0.00000000000E+00 0.  1.
          2   -1    0    0  502    0  0.00000000000E+00 -0.00000000000E+00 -0.31454093419E+03  0.31454093419E+03  0.00000000000E+00 0. -1.
         25    1    1    2    0    0  0.22768329264E+03  0.69891777504E+01 -0.98979248350E+02  0.27804751745E+03  0.12500000000E+03 0.  0.
         21    1    1    2  502  503 -0.20593605072E+03 -0.14014868327E+02 -0.13013258590E+02  0.20682219035E+03  0.00000000000E+00 0.  1.
         21    1    1    2  503  501 -0.21747241920E+02  0.70256905765E+01 -0.80044811682E+01  0.24215172474E+02  0.00000000000E+00 0.  1.
<mgrwt>
<rscale>  4 0.49474048E+03</rscale>
<asrwt>0</asrwt>
<pdfrwt beam="1">  1        2 0.48390913E-01 0.49474048E+03</pdfrwt>
<pdfrwt beam="2">  1       -2 0.29929838E-01 0.49474048E+03</pdfrwt>
<totfact> 0.10730248E+03</totfact>
</mgrwt>
</event>
<event>
 5    0  0.2754780E-002  0.3979069E+03  0.7546771E-02  0.1044507E+00
          1   -1    0    0  503    0  0.00000000000E+00  0.00000000000E+00  0.38658376054E+03  0.38658376054E+03  0.00000000000E+00 0.  1.
         -1   -1    0    0    0  501 -0.00000000000E+00 -0.00000000000E+00 -0.41559572431E+03  0.41559572431E+03  0.00000000000E+00 0. -1.
         25    1    1    2    0    0 -0.27837470629E+02  0.22340439081E+03 -0.12797448076E+03  0.28755332433E+03  0.12500000000E+03 0.  0.
         21    1    1    2  502  501  0.30439195599E+02 -0.10460923770E+03  0.27865724586E+03  0.29919809142E+03  0.00000000000E+00 0.  1.
         21    1    1    2  503  502 -0.26017249702E+01 -0.11879515311E+03 -0.17969472886E+03  0.21542806910E+03  0.00000000000E+00 0. -1.
<mgrwt>
<rscale>  4 0.39790695E+03</rscale>
<asrwt>0</asrwt>
<pdfrwt beam="1">  1        1 0.59474425E-01 0.39790695E+03</pdfrwt>
<pdfrwt beam="2">  1       -1 0.63937804E-01 0.39790695E+03</pdfrwt>
<totfact> 0.16191500E+02</totfact>
</mgrwt>
</event>
<event>
 5    0  0.2754780E-002  0.5930380E+03  0.7546771E-02  0.9919956E-01
         -2   -1    0    0    0  501 -0.00000000000E+00  0.00000000000E+00  0.69416686885E+03  0.69416686885E+03  0.00000000000E+00 0. -1.
          2   -1    0    0  502    0  0.00000000000E+00 -0.00000000000E+00 -0.14338856518E+03  0.14338856518E+03  0.00000000000E+00 0.  1.
         25    1    1    2    0    0  0.28295694829E+03  0.58080295199E+02  0.23967663237E+03  0.39561072202E+03  0.12500000000E+03 0.  0.
         21    1    1    2  502  503 -0.26194259100E+03 -0.75570131683E+02  0.31232859668E+03  0.41457679395E+03  0.00000000000E+00 0. -1.
         21    1    1    2  503  501 -0.21014357291E+02  0.17489836484E+02 -0.12269253886E+01  0.27367918052E+02  0.00000000000E+00 0.  1.
<mgrwt>
<rscale>  4 0.59303797E+03</rscale>
<asrwt>0</asrwt>
<pdfrwt beam="1">  1        2 0.22059780E-01 0.59303797E+03</pdfrwt>
<pdfrwt beam="2">  1       -2 0.10679490E+00 0.59303797E+03</pdfrwt>
<totfact> 0.18113226E+02</totfact>
</mgrwt>
</event>
