<event>
 5    0  0.1911311E+001  0.2931451E+03  0.7546771E-02  0.1088718E+00
         21   -1    0    0  504  501  0.00000000000E+00  0.00000000000E+00  0.77182690019E+03  0.77182690019E+03  0.00000000000E+00 0.  1.
         21   -1    0    0  503  502 -0.00000000000E+00 -0.00000000000E+00 -0.38642880985E+03  0.38642880985E+03  0.00000000000E+00 0.  1.
         25    1    1    2    0    0 -0.15203365028E+03 -0.14604755979E+03  0.52022958994E+03  0.57507212312E+03  0.12500000000E+03 0.  0.
         21    1    1    2  503  501  0.16244752312E+03  0.21637073332E+03 -0.29962596672E+03  0.40370931614E+03  0.00000000000E+00 0.  1.
         21    1    1    2  504  502 -0.10413872835E+02 -0.70323173532E+02  0.16479446711E+03  0.17947427079E+03  0.00000000000E+00 0. -1.
<mgrwt>
<rscale>  4 0.29314510E+03</rscale>
<asrwt>0</asrwt>
<pdfrwt beam="1">  1       21 0.11874260E+00 0.29314510E+03</pdfrwt>
<pdfrwt beam="2">  1       21 0.59450586E-01 0.29314510E+03</pdfrwt>
<totfact> 0.13222562E+03</totfact>
</mgrwt>
</event>
<event>
 5    0  0.1911311E+001  0.2831351E+03  0.7546771E-02  0.1093989E+00
         21   -1    0    0  504  501  0.00000000000E+00  0.00000000000E+00  0.25769378110E+03  0.25769378110E+03  0.00000000000E+00 0. -1.
         21   -1    0    0  503  502 -0.00000000000E+00 -0.00000000000E+00 -0.16140228381E+04  0.16140228381E+04  0.00000000000E+00 0. -1.
         25    1    1    2    0    0  0.25399321738E+02  0.26826897466E+03 -0.13952354487E+04  0.14265063357E+04  0.12500000000E+03 0.  0.
         21    1    1    2  503  501 -0.99887466398E+01 -0.20254134485E+03 -0.14500639148E+03  0.24929826514E+03  0.00000000000E+00 0. -1.
         21    1    1    2  504  502 -0.15410575098E+02 -0.65727629815E+02  0.18391278318E+03  0.19591201843E+03  0.00000000000E+00 0. -1.
<mgrwt>
<rscale>  4 0.28313509E+03</rscale>
<asrwt>0</asrwt>
<pdfrwt beam="1">  1       21 0.39645196E-01 0.28313509E+03</pdfrwt>
<pdfrwt beam="2">  1       21 0.24831121E+00 0.28313509E+03</pdfrwt>
<totfact> 0.37730044E+02</totfact>
</mgrwt>
</event>
<event>
 5    0  0.1911311E+001  0.2683236E+03  0.7546771E-02  0.1102243E+00
         21   -1    0    0  502  501  0.00000000000E+00  0.00000000000E+00  0.13207490853E+03  0.13207490853E+03  0.00000000000E+00 0. -1.
         21   -1    0    0  504  502 -0.00000000000E+00 -0.00000000000E+00 -0.65298659762E+03  0.65298659762E+03  0.00000000000E+00 0.  1.
         25    1    1    2    0    0 -0.15625471787E+03  0.17876526732E+03 -0.81179612220E+02  0.28033495518E+03  0.12500000000E+03 0.  0.
         21    1    1    2  503  501  0.10442626754E+03 -0.11298099767E+03 -0.21091237530E+03  0.26106240871E+03  0.00000000000E+00 0. -1.
         21    1    1    2  504  503  0.51828450332E+02 -0.65784269656E+02 -0.22881970157E+03  0.24366414226E+03  0.00000000000E+00 0.  1.
<mgrwt>
<rscale>  4 0.26832361E+03</rscale>
<asrwt>0</asrwt>
<pdfrwt beam="1">  1       21 0.20319217E-01 0.26832361E+03</pdfrwt>
<pdfrwt beam="2">  1       21 0.10045947E+00 0.26832361E+03</pdfrwt>
<totfact> 0.17447332E+04</totfact>
</mgrwt>
</event>
