<event>
 5    0  0.2159162E+000  0.2787586E+03  0.7546771E-02  0.1096369E+00
         21   -1    0    0  502  501  0.00000000000E+00  0.00000000000E+00  0.15481408095E+04  0.15481408095E+04  0.00000000000E+00 0.  1.
         21   -1    0    0  503  502 -0.00000000000E+00 -0.00000000000E+00 -0.93209425188E+02  0.93209425188E+02  0.00000000000E+00 0.  1.
         25    1    1    2    0    0  0.87043007588E+02  0.23398685666E+03  0.12989510322E+04  0.13286177472E+04  0.12500000000E+03 0.  0.
         21    1    1    2  503  504  0.19694126007E+02 -0.10496700767E+02  0.56948197490E+01  0.23031940824E+02  0.00000000000E+00 0.  1.
         21    1    1    2  504  501 -0.10673713359E+03 -0.22349015589E+03  0.15028553236E+03  0.28970054661E+03  0.00000000000E+00 0.  1.
<mgrwt>
<rscale>  4 0.27875857E+03</rscale>
<asrwt>0</asrwt>
<pdfrwt beam="1">  1       21 0.23817549E+00 0.27875857E+03</pdfrwt>
<pdfrwt beam="2">  1       21 0.14339913E-01 0.27875857E+03</pdfrwt>
<totfact> 0.30793541E+03</totfact>
</mgrwt>
</event>
<event>
 5    0  0.2269350E+000  0.2601634E+03  0.7546771E-02  0.1107045E+00
         21   -1    0    0  502  501  0.00000000000E+00  0.00000000000E+00  0.22697657172E+04  0.22697657172E+04  0.00000000000E+00 0.  1.
         21   -1    0    0  503  502 -0.00000000000E+00 -0.00000000000E+00 -0.50353405042E+02  0.50353405042E+02  0.00000000000E+00 0.  1.
         25    1    1    2    0    0 -0.22693466747E+02  0.22703522291E+03  0.19346494866E+04  0.19520639390E+04  0.12500000000E+03 0.  0.
         21    1    1    2  503  504  0.15325668773E+02 -0.26855278491E+02  0.56125896179E+02  0.64079624906E+02  0.00000000000E+00 0.  1.
         21    1    1    2  504  501  0.73677979746E+01 -0.20017994442E+03  0.22863692933E+03  0.30397555831E+03  0.00000000000E+00 0.  1.
<mgrwt>
<rscale>  4 0.26016338E+03</rscale>
<asrwt>0</asrwt>
<pdfrwt beam="1">  1       21 0.34919465E+00 0.26016338E+03</pdfrwt>
<pdfrwt beam="2">  1       21 0.77466795E-02 0.26016338E+03</pdfrwt>
<totfact> 0.20724573E+03</totfact>
</mgrwt>
</event>
<event>
 5    0  0.2159162E+000  0.3239745E+03  0.7546771E-02  0.1073835E+00
         21   -1    0    0  502  501  0.00000000000E+00  0.00000000000E+00  0.83361485353E+03  0.83361485353E+03  0.00000000000E+00 0. -1.
         21   -1    0    0  503  502 -0.00000000000E+00 -0.00000000000E+00 -0.12218511686E+03  0.12218511686E+03  0.00000000000E+00 0.  1.
         25    1    1    2    0    0 -0.90840287160E+02  0.28474987951E+03  0.41718414098E+03  0.52820645503E+03  0.12500000000E+03 0.  0.
         21    1    1    2  503  504  0.10645401516E+03 -0.23485219700E+03  0.24021155070E+03  0.35240544955E+03  0.00000000000E+00 0.  1.
         21    1    1    2  504  501 -0.15613728003E+02 -0.49897682512E+02  0.54034044994E+02  0.75188065813E+02  0.00000000000E+00 0. -1.
<mgrwt>
<rscale>  4 0.32397446E+03</rscale>
<asrwt>0</asrwt>
<pdfrwt beam="1">  1       21 0.12824844E+00 0.32397446E+03</pdfrwt>
<pdfrwt beam="2">  1       21 0.18797711E-01 0.32397446E+03</pdfrwt>
<totfact> 0.10761637E+04</totfact>
</mgrwt>
</event>
<event>
 5    0  0.2159162E+000  0.2551900E+03  0.7546771E-02  0.1110068E+00
         21   -1    0    0  502  501  0.00000000000E+00  0.00000000000E+00  0.17634660160E+04  0.17634660160E+04  0.00000000000E+00 0. -1.
         21   -1    0    0  503  502 -0.00000000000E+00 -0.00000000000E+00 -0.39060079788E+02  0.39060079788E+02  0.00000000000E+00 0.  1.
         25    1    1    2    0    0  0.22228620604E+03 -0.92607626289E+01  0.12474074922E+04  0.12732428561E+04  0.12500000000E+03 0.  0.
         21    1    1    2  503  504 -0.12988138910E+03 -0.21801645695E+02  0.26335883596E+03  0.29445265064E+03  0.00000000000E+00 0.  1.
         21    1    1    2  504  501 -0.92404816939E+02  0.31062408324E+02  0.21363960808E+03  0.23483058903E+03  0.00000000000E+00 0.  1.
<mgrwt>
<rscale>  4 0.25518997E+03</rscale>
<asrwt>0</asrwt>
<pdfrwt beam="1">  1       21 0.27130240E+00 0.25518997E+03</pdfrwt>
<pdfrwt beam="2">  1       21 0.60092444E-02 0.25518997E+03</pdfrwt>
<totfact> 0.92923696E+03</totfact>
</mgrwt>
</event>
<event>
 5    0  0.2159162E+000  0.4087652E+03  0.7546771E-02  0.1041766E+00
         21   -1    0    0  502  501  0.00000000000E+00  0.00000000000E+00  0.15972427196E+04  0.15972427196E+04  0.00000000000E+00 0. -1.
         21   -1    0    0  503  502 -0.00000000000E+00 -0.00000000000E+00 -0.25390607876E+03  0.25390607876E+03  0.00000000000E+00 0.  1.
         25    1    1    2    0    0  0.34293570421E+03  0.15690369180E+03  0.13844417163E+04  0.14403220236E+04  0.12500000000E+03 0.  0.
         21    1    1    2  503  504 -0.24957621379E+03 -0.46931536641E+02 -0.70609763975E+02  0.26358413152E+03  0.00000000000E+00 0.  1.
         21    1    1    2  504  501 -0.93359490418E+02 -0.10997215516E+03  0.29504688546E+02  0.14724264331E+03  0.00000000000E+00 0.  1.
<mgrwt>
<rscale>  4 0.40586871E+03</rscale>
<asrwt>0</asrwt>
<pdfrwt beam="1">  1       21 0.24572964E+00 0.40876523E+03</pdfrwt>
<pdfrwt beam="2">  1       21 0.39062475E-01 0.40876523E+03</pdfrwt>
<totfact> 0.36760327E+02</totfact>
</mgrwt>
</event>
<event>
 5    0  0.2160973E+000  0.3364887E+03  0.7546771E-02  0.1068301E+00
         21   -1    0    0  502  501  0.00000000000E+00  0.00000000000E+00  0.10061476204E+04  0.10061476204E+04  0.00000000000E+00 0. -1.
         21   -1    0    0  503  502 -0.00000000000E+00 -0.00000000000E+00 -0.10680703220E+03  0.10680703220E+03  0.00000000000E+00 0. -1.
         25    1    1    2    0    0 -0.16426113137E+03 -0.26574038683E+03  0.50056240606E+03  0.60314790461E+03  0.12500000000E+03 0.  0.
         21    1    1    2  503  504  0.10127524822E+03  0.20801320140E+03  0.30700696066E+03  0.38442091743E+03  0.00000000000E+00 0. -1.
         21    1    1    2  504  501  0.62985883150E+02  0.57727185423E+02  0.91771221423E+02  0.12538583052E+03  0.00000000000E+00 0. -1.
<mgrwt>
<rscale>  4 0.33648874E+03</rscale>
<asrwt>0</asrwt>
<pdfrwt beam="1">  1       21 0.15479193E+00 0.33648874E+03</pdfrwt>
<pdfrwt beam="2">  1       21 0.16431852E-01 0.33648874E+03</pdfrwt>
<totfact> 0.83804456E+03</totfact>
</mgrwt>
</event>
<event>
 5    0  0.2159162E+000  0.3314397E+03  0.7546771E-02  0.1070502E+00
         21   -1    0    0  502  501  0.00000000000E+00  0.00000000000E+00  0.23527930516E+04  0.23527930516E+04  0.00000000000E+00 0.  1.
         21   -1    0    0  503  502 -0.00000000000E+00 -0.00000000000E+00 -0.84751643000E+02  0.84751643000E+02  0.00000000000E+00 0. -1.
         25    1    1    2    0    0  0.57477290428E+02  0.30153547108E+03  0.19811624121E+04  0.20086952936E+04  0.12500000000E+03 0.  0.
         21    1    1    2  503  504 -0.43902399184E+02 -0.26862950273E+03  0.20885253962E+03  0.34308688943E+03  0.00000000000E+00 0. -1.
         21    1    1    2  504  501 -0.13574891244E+02 -0.32905968347E+02  0.78026456869E+02  0.85762511604E+02  0.00000000000E+00 0.  1.
<mgrwt>
<rscale>  4 0.33143971E+03</rscale>
<asrwt>0</asrwt>
<pdfrwt beam="1">  1       21 0.36196811E+00 0.33143971E+03</pdfrwt>
<pdfrwt beam="2">  1       21 0.13038716E-01 0.33143971E+03</pdfrwt>
<totfact> 0.64121132E+02</totfact>
</mgrwt>
</event>
<event>
 5    0  0.2159162E+000  0.2562764E+03  0.7546771E-02  0.1109401E+00
         21   -1    0    0  502  501  0.00000000000E+00  0.00000000000E+00  0.17774680336E+04  0.17774680336E+04  0.00000000000E+00 0.  1.
         21   -1    0    0  503  502 -0.00000000000E+00 -0.00000000000E+00 -0.14103984729E+03  0.14103984729E+03  0.00000000000E+00 0.  1.
         25    1    1    2    0    0  0.27196028764E+02 -0.22542535075E+03  0.16510512824E+04  0.16712724344E+04  0.12500000000E+03 0.  0.
         21    1    1    2  503  504 -0.14971618922E+02  0.41535600952E+02  0.35039229732E+02  0.56365797606E+02  0.00000000000E+00 0. -1.
         21    1    1    2  504  501 -0.12224409841E+02  0.18388974980E+03 -0.49662325816E+02  0.19086964893E+03  0.00000000000E+00 0.  1.
<mgrwt>
<rscale>  4 0.25627636E+03</rscale>
<asrwt>0</asrwt>
<pdfrwt beam="1">  1       21 0.27345660E+00 0.25627636E+03</pdfrwt>
<pdfrwt beam="2">  1       21 0.21698439E-01 0.25627636E+03</pdfrwt>
<totfact> 0.89496063E+02</totfact>
</mgrwt>
</event>
<event>
 5    0  0.2640878E+000  0.2795190E+03  0.7546771E-02  0.1095952E+00
         21   -1    0    0  502  501  0.00000000000E+00  0.00000000000E+00  0.88108250672E+02  0.88108250672E+02  0.00000000000E+00 0. -1.
         21   -1    0    0  503  502 -0.00000000000E+00 -0.00000000000E+00 -0.87935661140E+03  0.87935661140E+03  0.00000000000E+00 0. -1.
         25    1    1    2    0    0 -0.18430434077E+03 -0.16893130715E+03 -0.27343447471E+03  0.39102082876E+03  0.12500000000E+03 0.  0.
         21    1    1    2  503  504  0.27607393426E+02  0.15343819794E+02 -0.94598924158E+02  0.99732429177E+02  0.00000000000E+00 0. -1.
         21    1    1    2  504  501  0.15669694734E+03  0.15358748735E+03 -0.42321496186E+03  0.47671160414E+03  0.00000000000E+00 0. -1.
<mgrwt>
<rscale>  4 0.27951901E+03</rscale>
<asrwt>0</asrwt>
<pdfrwt beam="1">  1       21 0.13555115E-01 0.27951901E+03</pdfrwt>
<pdfrwt beam="2">  1       21 0.13528563E+00 0.27951901E+03</pdfrwt>
<totfact> 0.17524771E+04</totfact>
</mgrwt>
</event>
<event>
 5    0  0.2159162E+000  0.4549418E+03  0.7546771E-02  0.1026259E+00
         21   -1    0    0  502  501  0.00000000000E+00  0.00000000000E+00  0.45134471984E+03  0.45134471984E+03  0.00000000000E+00 0.  1.
         21   -1    0    0  503  502 -0.00000000000E+00 -0.00000000000E+00 -0.88538138175E+03  0.88538138175E+03  0.00000000000E+00 0.  1.
         25    1    1    2    0    0  0.24729013181E+03 -0.36200974086E+03  0.24396876811E+03  0.51705823809E+03  0.12500000000E+03 0.  0.
         21    1    1    2  503  504 -0.22454607170E+03  0.36994763336E+03 -0.66143583082E+03  0.79042997668E+03  0.00000000000E+00 0.  1.
         21    1    1    2  504  501 -0.22744060112E+02 -0.79378925082E+01 -0.16569599195E+02  0.29237886814E+02  0.00000000000E+00 0.  1.
<mgrwt>
<rscale>  4 0.45494177E+03</rscale>
<asrwt>0</asrwt>
<pdfrwt beam="1">  1       21 0.69437650E-01 0.45494177E+03</pdfrwt>
<pdfrwt beam="2">  1       21 0.13621252E+00 0.45494177E+03</pdfrwt>
<totfact> 0.60572409E+02</totfact>
</mgrwt>
</event>
<event>
 5    0  0.3108193E+000  0.3385197E+03  0.7546771E-02  0.1067485E+00
         21   -1    0    0  502  501  0.00000000000E+00  0.00000000000E+00  0.98305107239E+03  0.98305107239E+03  0.00000000000E+00 0. -1.
         21   -1    0    0  503  502 -0.00000000000E+00 -0.00000000000E+00 -0.12088857390E+03  0.12088857390E+03  0.00000000000E+00 0. -1.
         25    1    1    2    0    0 -0.31200241464E+03  0.35540509367E+02  0.53726422452E+03  0.63473339403E+03  0.12500000000E+03 0.  0.
         21    1    1    2  503  504  0.24168021997E+03 -0.46323364787E+02  0.31123012722E+03  0.39676110562E+03  0.00000000000E+00 0. -1.
         21    1    1    2  504  501  0.70322194676E+02  0.10782855420E+02  0.13668146750E+02  0.72445146633E+02  0.00000000000E+00 0. -1.
<mgrwt>
<rscale>  4 0.33838590E+03</rscale>
<asrwt>0</asrwt>
<pdfrwt beam="1">  1       21 0.15123862E+00 0.33851975E+03</pdfrwt>
<pdfrwt beam="2">  1       21 0.18598243E-01 0.33851975E+03</pdfrwt>
<totfact> 0.70740261E+03</totfact>
</mgrwt>
</event>
<event>
 5    0  0.2159162E+000  0.1998210E+03  0.7546771E-02  0.1149890E+00
         21   -1    0    0  502  501  0.00000000000E+00  0.00000000000E+00  0.12552717155E+03  0.12552717155E+03  0.00000000000E+00 0. -1.
         21   -1    0    0  503  502 -0.00000000000E+00 -0.00000000000E+00 -0.52753971568E+03  0.52753971568E+03  0.00000000000E+00 0. -1.
         25    1    1    2    0    0 -0.17128237478E+03  0.13787368100E+03 -0.21650538751E+03  0.33293600983E+03  0.12500000000E+03 0.  0.
         21    1    1    2  503  504  0.13072304567E+03 -0.24215454138E+02 -0.13449661441E+03  0.18911436269E+03  0.00000000000E+00 0. -1.
         21    1    1    2  504  501  0.40559329111E+02 -0.11365822686E+03 -0.51010542227E+02  0.13101651472E+03  0.00000000000E+00 0. -1.
<mgrwt>
<rscale>  4 0.19982105E+03</rscale>
<asrwt>0</asrwt>
<pdfrwt beam="1">  1       21 0.19311872E-01 0.19982105E+03</pdfrwt>
<pdfrwt beam="2">  1       21 0.81159958E-01 0.19982105E+03</pdfrwt>
<totfact> 0.32673648E+04</totfact>
</mgrwt>
</event>
<event>
 5    0  0.2159162E+000  0.2469388E+03  0.7546771E-02  0.1115255E+00
         21   -1    0    0  502  501  0.00000000000E+00  0.00000000000E+00  0.10331129613E+03  0.10331129613E+03  0.00000000000E+00 0. -1.
         21   -1    0    0  503  502 -0.00000000000E+00 -0.00000000000E+00 -0.16221277012E+04  0.16221277012E+04  0.00000000000E+00 0. -1.
         25    1    1    2    0    0 -0.21164888802E+03  0.23633186745E+02 -0.64949193546E+02  0.25533737889E+03  0.12500000000E+03 0.  0.
         21    1    1    2  503  504  0.40439849944E+02  0.82501384473E+01 -0.20148167436E+03  0.20566553272E+03  0.00000000000E+00 0. -1.
         21    1    1    2  504  501  0.17120903807E+03 -0.31883325192E+02 -0.12523855371E+04  0.12644360857E+04  0.00000000000E+00 0. -1.
<mgrwt>
<rscale>  4 0.24693882E+03</rscale>
<asrwt>0</asrwt>
<pdfrwt beam="1">  1       21 0.15894046E-01 0.24693882E+03</pdfrwt>
<pdfrwt beam="2">  1       21 0.24955810E+00 0.24693882E+03</pdfrwt>
<totfact> 0.22347934E+03</totfact>
</mgrwt>
</event>
