<event>
 5    0  0.1911311E+001  0.3229791E+03  0.7546771E-02  0.1074286E+00
         21   -1    0    0  504  501  0.00000000000E+00  0.00000000000E+00  0.96217671610E+03  0.96217671610E+03  0.00000000000E+00 0. -1.
         21   -1    0    0  503  502 -0.00000000000E+00 -0.00000000000E+00 -0.70253078126E+03  0.70253078126E+03  0.00000000000E+00 0. -1.
         25    1    1    2    0    0  0.22203252753E+03 -0.77943196625E+02 -0.44578425307E+03  0.51934784631E+03  0.12500000000E+03 0.  0.
         21    1    1    2  503  501 -0.64732505623E+01 -0.13387475450E+03 -0.17158841647E+03  0.21773134255E+03  0.00000000000E+00 0. -1.
         21    1    1    2  504  502 -0.21555927697E+03  0.21181795112E+03  0.87701860437E+03  0.92762830849E+03  0.00000000000E+00 0. -1.
<mgrwt>
<rscale>  4 0.32297909E+03</rscale>
<asrwt>0</asrwt>
<pdfrwt beam="1">  1       21 0.14802719E+00 0.32297909E+03</pdfrwt>
<pdfrwt beam="2">  1       21 0.10808166E+00 0.32297909E+03</pdfrwt>
<totfact> 0.18566230E+02</totfact>
</mgrwt>
</event>
<event>
 5    0  0.1911311E+001  0.3412371E+03  0.7546771E-02  0.1066270E+00
         21   -1    0    0  503  501  0.00000000000E+00  0.00000000000E+00  0.11829535232E+04  0.11829535232E+04  0.00000000000E+00 0. -1.
         21   -1    0    0  501  502 -0.00000000000E+00 -0.00000000000E+00 -0.10048596686E+03  0.10048596686E+03  0.00000000000E+00 0. -1.
         25    1    1    2    0    0 -0.29786541901E+03 -0.10997263379E+03  0.37887064668E+03  0.50988798274E+03  0.12500000000E+03 0.  0.
         21    1    1    2  503  504  0.26301775246E+02  0.77944233350E+01  0.10223508197E+03  0.10585153944E+03  0.00000000000E+00 0. -1.
         21    1    1    2  504  502  0.27156364377E+03  0.10217821046E+03  0.60136182772E+03  0.66769996791E+03  0.00000000000E+00 0. -1.
<mgrwt>
<rscale>  4 0.34123714E+03</rscale>
<asrwt>0</asrwt>
<pdfrwt beam="1">  1       21 0.18199284E+00 0.34123714E+03</pdfrwt>
<pdfrwt beam="2">  1       21 0.15459380E-01 0.34123714E+03</pdfrwt>
<totfact> 0.59418243E+03</totfact>
</mgrwt>
</event>
<event>
 5    0  0.1911311E+001  0.2500715E+03  0.7546771E-02  0.1113260E+00
         21   -1    0    0  504  501  0.00000000000E+00  0.00000000000E+00  0.11374533326E+03  0.11374533326E+03  0.00000000000E+00 0. -1.
         21   -1    0    0  501  502 -0.00000000000E+00 -0.00000000000E+00 -0.10976500160E+04  0.10976500160E+04  0.00000000000E+00 0. -1.
         25    1    1    2    0    0  0.97380452110E+02  0.24825055277E+03 -0.18483114280E+03  0.34770510602E+03  0.12500000000E+03 0.  0.
         21    1    1    2  503  502 -0.13256954226E+03 -0.10499603581E+03 -0.31349018355E+03  0.35619509577E+03  0.00000000000E+00 0. -1.
         21    1    1    2  504  503  0.35189090150E+02 -0.14325451696E+03 -0.48558335642E+03  0.50749514750E+03  0.00000000000E+00 0. -1.
<mgrwt>
<rscale>  4 0.25007147E+03</rscale>
<asrwt>0</asrwt>
<pdfrwt beam="1">  1       21 0.17499282E-01 0.25007147E+03</pdfrwt>
<pdfrwt beam="2">  1       21 0.16886923E+00 0.25007147E+03</pdfrwt>
<totfact> 0.61538771E+03</totfact>
</mgrwt>
</event>
