<event>
 5    0  0.1856407E+000  0.2516468E+03  0.7546771E-02  0.1112268E+00
         21   -1    0    0  502  501  0.00000000000E+00  0.00000000000E+00  0.70065122578E+02  0.70065122578E+02  0.00000000000E+00 0. -1.
         21   -1    0    0  503  502 -0.00000000000E+00 -0.00000000000E+00 -0.11412325095E+04  0.11412325095E+04  0.00000000000E+00 0. -1.
         25    1    1    2    0    0  0.87977412229E+02  0.23609391706E+03 -0.52122735917E+03  0.59226963680E+03  0.12500000000E+03 0.  0.
         21    1    1    2  503  504 -0.67756369806E+02 -0.36073469413E+02 -0.98750482930E+02  0.12507549210E+03  0.00000000000E+00 0. -1.
         21    1    1    2  504  501 -0.20221042422E+02 -0.20002044765E+03 -0.45118954482E+03  0.49395250317E+03  0.00000000000E+00 0. -1.
<mgrwt>
<rscale>  4 0.25164684E+03</rscale>
<asrwt>0</asrwt>
<pdfrwt beam="1">  1       21 0.10779250E-01 0.25164684E+03</pdfrwt>
<pdfrwt beam="2">  1       21 0.17557423E+00 0.25164684E+03</pdfrwt>
<totfact> 0.13313852E+04</totfact>
</mgrwt>
</event>
<event>
 5    0  0.1856407E+000  0.4499475E+03  0.7546771E-02  0.1027738E+00
         21   -1    0    0  502  501  0.00000000000E+00  0.00000000000E+00  0.19808782322E+04  0.19808782322E+04  0.00000000000E+00 0. -1.
         21   -1    0    0  503  502 -0.00000000000E+00 -0.00000000000E+00 -0.11437761596E+03  0.11437761596E+03  0.00000000000E+00 0.  1.
         25    1    1    2    0    0  0.17888548150E+03  0.39348158595E+03  0.12826060635E+04  0.13592391578E+04  0.12500000000E+03 0.  0.
         21    1    1    2  503  504 -0.10835823426E+03 -0.10720048999E+03  0.22052787574E+03  0.26807833923E+03  0.00000000000E+00 0. -1.
         21    1    1    2  504  501 -0.70527247244E+02 -0.28628109596E+03  0.36336667700E+03  0.46793835114E+03  0.00000000000E+00 0.  1.
<mgrwt>
<rscale>  4 0.44994752E+03</rscale>
<asrwt>0</asrwt>
<pdfrwt beam="1">  1       21 0.30475047E+00 0.44994752E+03</pdfrwt>
<pdfrwt beam="2">  1       21 0.17596558E-01 0.44994752E+03</pdfrwt>
<totfact> 0.75263618E+02</totfact>
</mgrwt>
</event>
<event>
 5    0  0.1856407E+000  0.2510909E+03  0.7546771E-02  0.1112617E+00
         21   -1    0    0  502  501  0.00000000000E+00  0.00000000000E+00  0.11199712894E+03  0.11199712894E+03  0.00000000000E+00 0. -1.
         21   -1    0    0  503  502 -0.00000000000E+00 -0.00000000000E+00 -0.57342399921E+03  0.57342399921E+03  0.00000000000E+00 0. -1.
         25    1    1    2    0    0  0.12622174992E+03  0.15878033031E+03 -0.13375512815E+03  0.27323718223E+03  0.12500000000E+03 0.  0.
         21    1    1    2  503  504 -0.13872034493E+03 -0.17796677146E+03 -0.30911278387E+03  0.38270905267E+03  0.00000000000E+00 0. -1.
         21    1    1    2  504  501  0.12498595010E+02  0.19186441152E+02 -0.18558958247E+02  0.29474893257E+02  0.00000000000E+00 0.  1.
<mgrwt>
<rscale>  4 0.25109086E+03</rscale>
<asrwt>0</asrwt>
<pdfrwt beam="1">  1       21 0.17230328E-01 0.25109086E+03</pdfrwt>
<pdfrwt beam="2">  1       21 0.88219077E-01 0.25109086E+03</pdfrwt>
<totfact> 0.32512136E+04</totfact>
</mgrwt>
</event>
<event>
 5    0  0.1856407E+000  0.3263723E+03  0.7546771E-02  0.1072753E+00
         21   -1    0    0  502  501  0.00000000000E+00  0.00000000000E+00  0.44465138961E+03  0.44465138961E+03  0.00000000000E+00 0.  1.
         21   -1    0    0  503  502 -0.00000000000E+00 -0.00000000000E+00 -0.56739244091E+03  0.56739244091E+03  0.00000000000E+00 0.  1.
         25    1    1    2    0    0  0.27481441220E+03  0.14602729600E+03  0.28957172087E+03  0.44308431913E+03  0.12500000000E+03 0.  0.
         21    1    1    2  503  504 -0.24766933988E+03 -0.11105474738E+03 -0.16484807019E+03  0.31756596965E+03  0.00000000000E+00 0.  1.
         21    1    1    2  504  501 -0.27145072319E+02 -0.34972548615E+02 -0.24746470198E+03  0.25139354175E+03  0.00000000000E+00 0.  1.
<mgrwt>
<rscale>  4 0.32637233E+03</rscale>
<asrwt>0</asrwt>
<pdfrwt beam="1">  1       21 0.68407906E-01 0.32637233E+03</pdfrwt>
<pdfrwt beam="2">  1       21 0.87291145E-01 0.32637233E+03</pdfrwt>
<totfact> 0.20022435E+03</totfact>
</mgrwt>
</event>
<event>
 5    0  0.2826329E+000  0.2674778E+03  0.7546771E-02  0.1102732E+00
         21   -1    0    0  502  501  0.00000000000E+00  0.00000000000E+00  0.14495098651E+03  0.14495098651E+03  0.00000000000E+00 0.  1.
         21   -1    0    0  503  502 -0.00000000000E+00 -0.00000000000E+00 -0.52976601523E+03  0.52976601523E+03  0.00000000000E+00 0.  1.
         25    1    1    2    0    0 -0.13045309991E+03  0.19650843862E+03 -0.93753354577E+02  0.28292802834E+03  0.12500000000E+03 0.  0.
         21    1    1    2  503  504  0.14790521877E+03 -0.18522486617E+03 -0.28382067563E+03  0.36978153105E+03  0.00000000000E+00 0.  1.
         21    1    1    2  504  501 -0.17452118858E+02 -0.11283572447E+02 -0.72409985093E+01  0.22007442360E+02  0.00000000000E+00 0.  1.
<mgrwt>
<rscale>  4 0.26747784E+03</rscale>
<asrwt>0</asrwt>
<pdfrwt beam="1">  1       21 0.22300151E-01 0.26747784E+03</pdfrwt>
<pdfrwt beam="2">  1       21 0.81502465E-01 0.26747784E+03</pdfrwt>
<totfact> 0.23872770E+04</totfact>
</mgrwt>
</event>
<event>
 5    0  0.1856407E+000  0.2460243E+03  0.7546771E-02  0.1115843E+00
         21   -1    0    0  502  501  0.00000000000E+00  0.00000000000E+00  0.29971786370E+03  0.29971786370E+03  0.00000000000E+00 0. -1.
         21   -1    0    0  503  502 -0.00000000000E+00 -0.00000000000E+00 -0.25378308731E+03  0.25378308731E+03  0.00000000000E+00 0.  1.
         25    1    1    2    0    0  0.17152657305E+03 -0.12442507210E+03  0.17438856394E+03  0.30156149466E+03  0.12500000000E+03 0.  0.
         21    1    1    2  503  504 -0.30422089476E+02  0.33093819065E+02 -0.47428091331E+02  0.65346218220E+02  0.00000000000E+00 0. -1.
         21    1    1    2  504  501 -0.14110448358E+03  0.91331253036E+02 -0.81025696218E+02  0.18659323812E+03  0.00000000000E+00 0.  1.
<mgrwt>
<rscale>  4 0.24602432E+03</rscale>
<asrwt>0</asrwt>
<pdfrwt beam="1">  1       21 0.46110440E-01 0.24602432E+03</pdfrwt>
<pdfrwt beam="2">  1       21 0.39043552E-01 0.24602432E+03</pdfrwt>
<totfact> 0.27735435E+04</totfact>
</mgrwt>
</event>
<event>
 5    0  0.2023829E+000  0.2363114E+03  0.7546771E-02  0.1122275E+00
         21   -1    0    0  502  501  0.00000000000E+00  0.00000000000E+00  0.75814375289E+03  0.75814375289E+03  0.00000000000E+00 0.  1.
         21   -1    0    0  503  502 -0.00000000000E+00 -0.00000000000E+00 -0.67112430874E+02  0.67112430874E+02  0.00000000000E+00 0.  1.
         25    1    1    2    0    0  0.78482247723E+02  0.18454979474E+03  0.29431947469E+03  0.37744806679E+03  0.12500000000E+03 0.  0.
         21    1    1    2  503  504  0.42012994759E+01 -0.23496972051E+02  0.74374980351E+02  0.78111435239E+02  0.00000000000E+00 0.  1.
         21    1    1    2  504  501 -0.82683547199E+02 -0.16105282268E+03  0.32233686698E+03  0.36969668173E+03  0.00000000000E+00 0.  1.
<mgrwt>
<rscale>  4 0.23631143E+03</rscale>
<asrwt>0</asrwt>
<pdfrwt beam="1">  1       21 0.11663749E+00 0.23631143E+03</pdfrwt>
<pdfrwt beam="2">  1       21 0.10324990E-01 0.23631143E+03</pdfrwt>
<totfact> 0.42468138E+04</totfact>
</mgrwt>
</event>
<event>
 5    0  0.1856407E+000  0.3435410E+03  0.7546771E-02  0.1065298E+00
         21   -1    0    0  502  501  0.00000000000E+00  0.00000000000E+00  0.14603541616E+04  0.14603541616E+04  0.00000000000E+00 0. -1.
         21   -1    0    0  503  502 -0.00000000000E+00 -0.00000000000E+00 -0.23468585744E+03  0.23468585744E+03  0.00000000000E+00 0. -1.
         25    1    1    2    0    0  0.28174432501E+03  0.15170867047E+03  0.13121938219E+04  0.13564191873E+04  0.12500000000E+03 0.  0.
         21    1    1    2  503  504 -0.20306202955E+02 -0.28682601387E+02  0.50812080647E+01  0.35508480341E+02  0.00000000000E+00 0. -1.
         21    1    1    2  504  501 -0.26143812206E+03 -0.12302606908E+03 -0.91606725846E+02  0.30311235138E+03  0.00000000000E+00 0. -1.
<mgrwt>
<rscale>  4 0.34354095E+03</rscale>
<asrwt>0</asrwt>
<pdfrwt beam="1">  1       21 0.22466987E+00 0.34354095E+03</pdfrwt>
<pdfrwt beam="2">  1       21 0.36105517E-01 0.34354095E+03</pdfrwt>
<totfact> 0.60741973E+02</totfact>
</mgrwt>
</event>
<event>
 5    0  0.2066144E+000  0.2463872E+03  0.7546771E-02  0.1115610E+00
         21   -1    0    0  502  501  0.00000000000E+00  0.00000000000E+00  0.39527330774E+03  0.39527330774E+03  0.00000000000E+00 0. -1.
         21   -1    0    0  503  502 -0.00000000000E+00 -0.00000000000E+00 -0.17128363675E+03  0.17128363675E+03  0.00000000000E+00 0. -1.
         25    1    1    2    0    0  0.13075355476E+03 -0.16728758986E+03  0.24519147753E+03  0.34759961228E+03  0.12500000000E+03 0.  0.
         21    1    1    2  503  504 -0.28323858353E+02  0.39741733438E+02  0.15694723131E+02  0.51263736333E+02  0.00000000000E+00 0. -1.
         21    1    1    2  504  501 -0.10242969641E+03  0.12754585642E+03 -0.36896529676E+02  0.16769359587E+03  0.00000000000E+00 0. -1.
<mgrwt>
<rscale>  4 0.24638715E+03</rscale>
<asrwt>0</asrwt>
<pdfrwt beam="1">  1       21 0.60811278E-01 0.24638715E+03</pdfrwt>
<pdfrwt beam="2">  1       21 0.26351329E-01 0.24638715E+03</pdfrwt>
<totfact> 0.33572548E+04</totfact>
</mgrwt>
</event>
