<event>
 5    0  0.1911311E+001  0.4893937E+03  0.7546771E-02  0.1016585E+00
         21   -1    0    0  502  501  0.00000000000E+00  0.00000000000E+00  0.17879608868E+03  0.17879608868E+03  0.00000000000E+00 0. -1.
         21   -1    0    0  504  502 -0.00000000000E+00 -0.00000000000E+00 -0.21408383286E+04  0.21408383286E+04  0.00000000000E+00 0. -1.
         25    1    1    2    0    0 -0.47706540024E+03  0.65623262028E+02 -0.35644603404E+03  0.61202662018E+03  0.12500000000E+03 0.  0.
         21    1    1    2  503  501  0.47204962209E+03  0.18858028537E+02 -0.14979245544E+04  0.15706573279E+04  0.00000000000E+00 0. -1.
         21    1    1    2  504  503  0.50157781550E+01 -0.84481290565E+02 -0.10767165143E+03  0.13695046917E+03  0.00000000000E+00 0. -1.
<mgrwt>
<rscale>  4 0.48939366E+03</rscale>
<asrwt>0</asrwt>
<pdfrwt beam="1">  1       21 0.27507090E-01 0.48939366E+03</pdfrwt>
<pdfrwt beam="2">  1       21 0.32935975E+00 0.48939366E+03</pdfrwt>
<totfact> 0.22123772E+02</totfact>
</mgrwt>
</event>
<event>
 5    0  0.1911311E+001  0.3360627E+03  0.7546771E-02  0.1068485E+00
         21   -1    0    0  502  501  0.00000000000E+00  0.00000000000E+00  0.37977767335E+03  0.37977767335E+03  0.00000000000E+00 0.  1.
         21   -1    0    0  504  502 -0.00000000000E+00 -0.00000000000E+00 -0.33395581494E+03  0.33395581494E+03  0.00000000000E+00 0.  1.
         25    1    1    2    0    0 -0.28829282632E+03  0.52535656982E+02 -0.26191615603E+02  0.31966193031E+03  0.12500000000E+03 0.  0.
         21    1    1    2  503  501  0.32563966103E+03 -0.19986830268E+02  0.94505870390E+02  0.33966457242E+03  0.00000000000E+00 0.  1.
         21    1    1    2  504  503 -0.37346834703E+02 -0.32548826714E+02 -0.22492396371E+02  0.54406985556E+02  0.00000000000E+00 0. -1.
<mgrwt>
<rscale>  4 0.33606266E+03</rscale>
<asrwt>0</asrwt>
<pdfrwt beam="1">  1       21 0.58427335E-01 0.33606266E+03</pdfrwt>
<pdfrwt beam="2">  1       21 0.51377818E-01 0.33606266E+03</pdfrwt>
<totfact> 0.91455415E+03</totfact>
</mgrwt>
</event>
<event>
 5    0  0.1911311E+001  0.3383932E+03  0.7546771E-02  0.1067482E+00
         21   -1    0    0  504  501  0.00000000000E+00  0.00000000000E+00  0.47711014365E+03  0.47711014365E+03  0.00000000000E+00 0.  1.
         21   -1    0    0  503  502 -0.00000000000E+00 -0.00000000000E+00 -0.71069190888E+03  0.71069190888E+03  0.00000000000E+00 0. -1.
         25    1    1    2    0    0 -0.33261336446E+03  0.18668397164E+03 -0.37011829750E+03  0.54598086929E+03  0.12500000000E+03 0.  0.
         21    1    1    2  503  501  0.14590843375E+03 -0.22756875927E+03 -0.14096066429E+03  0.30487164531E+03  0.00000000000E+00 0. -1.
         21    1    1    2  504  502  0.18670493071E+03  0.40884787631E+02  0.27749719657E+03  0.33694953793E+03  0.00000000000E+00 0.  1.
<mgrwt>
<rscale>  4 0.33839321E+03</rscale>
<asrwt>0</asrwt>
<pdfrwt beam="1">  1       21 0.73401561E-01 0.33839321E+03</pdfrwt>
<pdfrwt beam="2">  1       21 0.10933722E+00 0.33839321E+03</pdfrwt>
<totfact> 0.99005274E+02</totfact>
</mgrwt>
</event>
