<event>
 5    0  0.1257040E+001  0.2471434E+03  0.7546771E-02  0.1115124E+00
         21   -1    0    0  503  501  0.00000000000E+00  0.00000000000E+00  0.16649322719E+04  0.16649322719E+04  0.00000000000E+00 0.  1.
         21   -1    0    0  504  502 -0.00000000000E+00 -0.00000000000E+00 -0.10435198073E+03  0.10435198073E+03  0.00000000000E+00 0. -1.
         25    1    1    2    0    0 -0.20634393732E+03  0.16213429732E+02  0.13430923155E+04  0.13646840893E+04  0.12500000000E+03 0.  0.
         21    1    1    2  503  502  0.21027960835E+03 -0.38982826504E+02  0.30308117449E+02  0.21599943619E+03  0.00000000000E+00 0. -1.
         21    1    1    2  504  501 -0.39356710315E+01  0.22769396772E+02  0.18717985830E+03  0.18860072717E+03  0.00000000000E+00 0. -1.
<mgrwt>
<rscale>  4 0.24714341E+03</rscale>
<asrwt>0</asrwt>
<pdfrwt beam="1">  1       21 0.25614341E+00 0.24714341E+03</pdfrwt>
<pdfrwt beam="2">  1       21 0.16054152E-01 0.24714341E+03</pdfrwt>
<totfact> 0.20043940E+03</totfact>
</mgrwt>
</event>
<event>
 5    0  0.1257040E+001  0.1861232E+03  0.7546771E-02  0.1162005E+00
         21   -1    0    0  503  501  0.00000000000E+00  0.00000000000E+00  0.97472420158E+03  0.97472420158E+03  0.00000000000E+00 0. -1.
         21   -1    0    0  504  502 -0.00000000000E+00 -0.00000000000E+00 -0.22411152396E+03  0.22411152396E+03  0.00000000000E+00 0. -1.
         25    1    1    2    0    0  0.14426771491E+03 -0.16705674320E+03  0.45262018913E+03  0.51885562985E+03  0.12500000000E+03 0.  0.
         21    1    1    2  503  502 -0.31123305292E+02  0.13121095668E+03 -0.15861960685E+03  0.20819499265E+03  0.00000000000E+00 0. -1.
         21    1    1    2  504  501 -0.11314440962E+03  0.35845786527E+02  0.45661209534E+03  0.47178510304E+03  0.00000000000E+00 0. -1.
<mgrwt>
<rscale>  4 0.18612325E+03</rscale>
<asrwt>0</asrwt>
<pdfrwt beam="1">  1       21 0.14995757E+00 0.18612325E+03</pdfrwt>
<pdfrwt beam="2">  1       21 0.34478697E-01 0.18612325E+03</pdfrwt>
<totfact> 0.24400510E+03</totfact>
</mgrwt>
</event>
<event>
 5    0  0.1257040E+001  0.2239085E+03  0.7546771E-02  0.1131002E+00
         21   -1    0    0  504  501  0.00000000000E+00  0.00000000000E+00  0.52500257874E+03  0.52500257874E+03  0.00000000000E+00 0. -1.
         21   -1    0    0  503  502 -0.00000000000E+00 -0.00000000000E+00 -0.15798609516E+04  0.15798609516E+04  0.00000000000E+00 0. -1.
         25    1    1    2    0    0  0.19245589955E+03 -0.10531893288E+03  0.45386461843E+03  0.51937408749E+03  0.12500000000E+03 0.  0.
         21    1    1    2  503  501 -0.18303946540E+03  0.30215322578E+02 -0.14975269291E+04  0.15089742592E+04  0.00000000000E+00 0. -1.
         21    1    1    2  504  502 -0.94164341448E+01  0.75103610306E+02 -0.11196062168E+02  0.76515183598E+02  0.00000000000E+00 0. -1.
<mgrwt>
<rscale>  4 0.22390851E+03</rscale>
<asrwt>0</asrwt>
<pdfrwt beam="1">  1       21 0.80769628E-01 0.22390851E+03</pdfrwt>
<pdfrwt beam="2">  1       21 0.24305553E+00 0.22390851E+03</pdfrwt>
<totfact> 0.94043801E+01</totfact>
</mgrwt>
</event>
<event>
 5    0  0.1257040E+001  0.2256956E+03  0.7546771E-02  0.1129707E+00
         21   -1    0    0  502  501  0.00000000000E+00  0.00000000000E+00  0.62587227219E+03  0.62587227219E+03  0.00000000000E+00 0.  1.
         21   -1    0    0  504  502 -0.00000000000E+00 -0.00000000000E+00 -0.91654015957E+02  0.91654015957E+02  0.00000000000E+00 0.  1.
         25    1    1    2    0    0  0.63542457688E+02  0.18966842390E+03  0.24363526435E+03  0.33910897509E+03  0.12500000000E+03 0.  0.
         21    1    1    2  503  501 -0.16171913739E+02 -0.15803256173E+02  0.14500689370E+03  0.14675923453E+03  0.00000000000E+00 0. -1.
         21    1    1    2  504  503 -0.47370543949E+02 -0.17386516773E+03  0.14557609819E+03  0.23165807853E+03  0.00000000000E+00 0.  1.
<mgrwt>
<rscale>  4 0.22569563E+03</rscale>
<asrwt>0</asrwt>
<pdfrwt beam="1">  1       21 0.96288039E-01 0.22569563E+03</pdfrwt>
<pdfrwt beam="2">  1       21 0.14100618E-01 0.22569563E+03</pdfrwt>
<totfact> 0.38725433E+04</totfact>
</mgrwt>
</event>
<event>
 5    0  0.1257040E+001  0.2025027E+03  0.7546771E-02  0.1147644E+00
         21   -1    0    0  504  501  0.00000000000E+00  0.00000000000E+00  0.24628298771E+03  0.24628298771E+03  0.00000000000E+00 0. -1.
         21   -1    0    0  503  502 -0.00000000000E+00 -0.00000000000E+00 -0.42590113755E+03  0.42590113755E+03  0.00000000000E+00 0. -1.
         25    1    1    2    0    0  0.34068376672E+02 -0.19793568120E+03  0.11226603275E+03  0.26185463580E+03  0.12500000000E+03 0.  0.
         21    1    1    2  503  501  0.29620210347E+02  0.92585601657E+02 -0.26779142315E+03  0.28488892012E+03  0.00000000000E+00 0. -1.
         21    1    1    2  504  502 -0.63688587020E+02  0.10535007954E+03 -0.24092759431E+02  0.12544056933E+03  0.00000000000E+00 0. -1.
<mgrwt>
<rscale>  4 0.20250270E+03</rscale>
<asrwt>0</asrwt>
<pdfrwt beam="1">  1       21 0.37889691E-01 0.20250270E+03</pdfrwt>
<pdfrwt beam="2">  1       21 0.65523251E-01 0.20250270E+03</pdfrwt>
<totfact> 0.14296420E+04</totfact>
</mgrwt>
</event>
<event>
 5    0  0.1257040E+001  0.2685619E+03  0.7546771E-02  0.1102105E+00
         21   -1    0    0  504  501  0.00000000000E+00  0.00000000000E+00  0.97242389458E+02  0.97242389458E+02  0.00000000000E+00 0.  1.
         21   -1    0    0  501  502 -0.00000000000E+00 -0.00000000000E+00 -0.94785616195E+03  0.94785616195E+03  0.00000000000E+00 0. -1.
         25    1    1    2    0    0 -0.22134940456E+03  0.27921145742E+02 -0.17603621256E+03  0.31046561390E+03  0.12500000000E+03 0.  0.
         21    1    1    2  503  502 -0.20499721591E+02 -0.11319711850E+02 -0.70584475980E+01  0.24458048658E+02  0.00000000000E+00 0. -1.
         21    1    1    2  504  503  0.24184912615E+03 -0.16601433892E+02 -0.66751911233E+03  0.71017488885E+03  0.00000000000E+00 0. -1.
<mgrwt>
<rscale>  4 0.26856191E+03</rscale>
<asrwt>0</asrwt>
<pdfrwt beam="1">  1       21 0.14960368E-01 0.26856191E+03</pdfrwt>
<pdfrwt beam="2">  1       21 0.14582402E+00 0.26856191E+03</pdfrwt>
<totfact> 0.12091836E+04</totfact>
</mgrwt>
</event>
<event>
 5    0  0.1257040E+001  0.2261690E+03  0.7546771E-02  0.1129366E+00
         21   -1    0    0  502  501  0.00000000000E+00  0.00000000000E+00  0.25955130828E+03  0.25955130828E+03  0.00000000000E+00 0. -1.
         21   -1    0    0  504  502 -0.00000000000E+00 -0.00000000000E+00 -0.24742094238E+03  0.24742094238E+03  0.00000000000E+00 0. -1.
         25    1    1    2    0    0  0.38048846197E+01 -0.20255508487E+03  0.79892490703E+02  0.25109928241E+03  0.12500000000E+03 0.  0.
         21    1    1    2  503  501  0.30116105063E+02  0.21265511012E+02  0.29633467122E+02  0.47300572052E+02  0.00000000000E+00 0.  1.
         21    1    1    2  504  503 -0.33920989683E+02  0.18128957386E+03 -0.97395591929E+02  0.20857239620E+03  0.00000000000E+00 0. -1.
<mgrwt>
<rscale>  4 0.22616903E+03</rscale>
<asrwt>0</asrwt>
<pdfrwt beam="1">  1       21 0.39930970E-01 0.22616903E+03</pdfrwt>
<pdfrwt beam="2">  1       21 0.38064761E-01 0.22616903E+03</pdfrwt>
<totfact> 0.39570893E+04</totfact>
</mgrwt>
</event>
<event>
 5    0  0.1257040E+001  0.2481938E+03  0.7546771E-02  0.1114452E+00
         21   -1    0    0  504  501  0.00000000000E+00  0.00000000000E+00  0.14591892942E+03  0.14591892942E+03  0.00000000000E+00 0. -1.
         21   -1    0    0  503  502 -0.00000000000E+00 -0.00000000000E+00 -0.12543468958E+04  0.12543468958E+04  0.00000000000E+00 0. -1.
         25    1    1    2    0    0  0.29260911300E+03  0.76556505945E+02 -0.16942822266E+03  0.36852668051E+03  0.12500000000E+03 0.  0.
         21    1    1    2  503  501 -0.19862421790E+03 -0.48029077850E+02 -0.90502737297E+03  0.92781082020E+03  0.00000000000E+00 0. -1.
         21    1    1    2  504  502 -0.93984895097E+02 -0.28527428095E+02 -0.33972370758E+02  0.10392832451E+03  0.00000000000E+00 0. -1.
<mgrwt>
<rscale>  4 0.24819381E+03</rscale>
<asrwt>0</asrwt>
<pdfrwt beam="1">  1       21 0.22449066E-01 0.24819381E+03</pdfrwt>
<pdfrwt beam="2">  1       21 0.19297644E+00 0.24819381E+03</pdfrwt>
<totfact> 0.26371780E+03</totfact>
</mgrwt>
</event>
<event>
 5    0  0.1257040E+001  0.2283606E+03  0.7546771E-02  0.1127799E+00
         21   -1    0    0  503  501  0.00000000000E+00  0.00000000000E+00  0.88088155509E+02  0.88088155509E+02  0.00000000000E+00 0.  1.
         21   -1    0    0  504  502 -0.00000000000E+00 -0.00000000000E+00 -0.16521999843E+04  0.16521999843E+04  0.00000000000E+00 0. -1.
         25    1    1    2    0    0 -0.13239741407E+03  0.17125954164E+03 -0.12533411816E+03  0.27962930288E+03  0.12500000000E+03 0.  0.
         21    1    1    2  503  502  0.11069276063E+03 -0.15323273322E+03 -0.13999930549E+04  0.14126973178E+04  0.00000000000E+00 0. -1.
         21    1    1    2  504  501  0.21704653437E+02 -0.18026808419E+02 -0.38784655709E+02  0.47961519170E+02  0.00000000000E+00 0. -1.
<mgrwt>
<rscale>  4 0.22836064E+03</rscale>
<asrwt>0</asrwt>
<pdfrwt beam="1">  1       21 0.13552024E-01 0.22836064E+03</pdfrwt>
<pdfrwt beam="2">  1       21 0.25418462E+00 0.22836064E+03</pdfrwt>
<totfact> 0.28550162E+03</totfact>
</mgrwt>
</event>
<event>
 5    0  0.1257040E+001  0.3090118E+03  0.7546771E-02  0.1080820E+00
         21   -1    0    0  502  501  0.00000000000E+00  0.00000000000E+00  0.53354838607E+03  0.53354838607E+03  0.00000000000E+00 0.  1.
         21   -1    0    0  504  502 -0.00000000000E+00 -0.00000000000E+00 -0.70712814218E+03  0.70712814218E+03  0.00000000000E+00 0.  1.
         25    1    1    2    0    0  0.20457908851E+03 -0.28223033366E+02 -0.30790397667E+03  0.39125311745E+03  0.12500000000E+03 0.  0.
         21    1    1    2  503  501 -0.29242945777E+03 -0.72642460302E+01  0.44057999649E+03  0.52884637689E+03  0.00000000000E+00 0.  1.
         21    1    1    2  504  503  0.87850369268E+02  0.35487279396E+02 -0.30625577592E+03  0.32057703390E+03  0.00000000000E+00 0.  1.
<mgrwt>
<rscale>  4 0.30901182E+03</rscale>
<asrwt>0</asrwt>
<pdfrwt beam="1">  1       21 0.82084368E-01 0.30901182E+03</pdfrwt>
<pdfrwt beam="2">  1       21 0.10878894E+00 0.30901182E+03</pdfrwt>
<totfact> 0.79101743E+02</totfact>
</mgrwt>
</event>
<event>
 5    0  0.1257040E+001  0.2527288E+03  0.7546771E-02  0.1111592E+00
         21   -1    0    0  504  501  0.00000000000E+00  0.00000000000E+00  0.27225538110E+03  0.27225538110E+03  0.00000000000E+00 0.  1.
         21   -1    0    0  503  502 -0.00000000000E+00 -0.00000000000E+00 -0.45000843949E+03  0.45000843949E+03  0.00000000000E+00 0.  1.
         25    1    1    2    0    0 -0.26377281851E+03 -0.12302893004E+03 -0.18068689623E+02  0.31727542445E+03  0.12500000000E+03 0.  0.
         21    1    1    2  503  501  0.83936074442E+02  0.74338291041E+02 -0.18564504035E+03  0.21687675559E+03  0.00000000000E+00 0.  1.
         21    1    1    2  504  502  0.17983674407E+03  0.48690638997E+02  0.25960671587E+02  0.18811164056E+03  0.00000000000E+00 0.  1.
<mgrwt>
<rscale>  4 0.25272885E+03</rscale>
<asrwt>0</asrwt>
<pdfrwt beam="1">  1       21 0.41885443E-01 0.25272885E+03</pdfrwt>
<pdfrwt beam="2">  1       21 0.69232068E-01 0.25272885E+03</pdfrwt>
<totfact> 0.10035285E+04</totfact>
</mgrwt>
</event>
<event>
 5    0  0.1257040E+001  0.2243043E+03  0.7546771E-02  0.1130714E+00
         21   -1    0    0  502  501  0.00000000000E+00  0.00000000000E+00  0.47199115962E+03  0.47199115962E+03  0.00000000000E+00 0.  1.
         21   -1    0    0  504  502 -0.00000000000E+00 -0.00000000000E+00 -0.47859742890E+03  0.47859742890E+03  0.00000000000E+00 0.  1.
         25    1    1    2    0    0  0.17924343113E+03  0.12253788081E+03  0.17172879945E+03  0.30374252320E+03  0.12500000000E+03 0.  0.
         21    1    1    2  503  501 -0.37196295421E+02 -0.61423221050E+01  0.21207530335E+03  0.21540015507E+03  0.00000000000E+00 0.  1.
         21    1    1    2  504  503 -0.14204713571E+03 -0.11639555871E+03 -0.39041037208E+03  0.43144591026E+03  0.00000000000E+00 0.  1.
<mgrwt>
<rscale>  4 0.22430434E+03</rscale>
<asrwt>0</asrwt>
<pdfrwt beam="1">  1       21 0.72614024E-01 0.22430434E+03</pdfrwt>
<pdfrwt beam="2">  1       21 0.73630374E-01 0.22430434E+03</pdfrwt>
<totfact> 0.27579075E+03</totfact>
</mgrwt>
</event>
<event>
 5    0  0.1257040E+001  0.2299144E+03  0.7546771E-02  0.1126700E+00
         21   -1    0    0  504  501  0.00000000000E+00  0.00000000000E+00  0.39733250325E+03  0.39733250325E+03  0.00000000000E+00 0. -1.
         21   -1    0    0  501  502 -0.00000000000E+00 -0.00000000000E+00 -0.26735337766E+03  0.26735337766E+03  0.00000000000E+00 0. -1.
         25    1    1    2    0    0  0.19065457118E+03  0.10686464134E+03 -0.11796679744E+03  0.27804744628E+03  0.12500000000E+03 0.  0.
         21    1    1    2  503  502 -0.54751423216E+02 -0.19909176247E+02  0.21396918888E+03  0.22175866935E+03  0.00000000000E+00 0. -1.
         21    1    1    2  504  503 -0.13590314796E+03 -0.86955465096E+02  0.33976734162E+02  0.16487976529E+03  0.00000000000E+00 0. -1.
<mgrwt>
<rscale>  4 0.22991441E+03</rscale>
<asrwt>0</asrwt>
<pdfrwt beam="1">  1       21 0.61128077E-01 0.22991441E+03</pdfrwt>
<pdfrwt beam="2">  1       21 0.41131289E-01 0.22991441E+03</pdfrwt>
<totfact> 0.13851300E+04</totfact>
</mgrwt>
</event>
<event>
 5    0  0.1257040E+001  0.2570344E+03  0.7546771E-02  0.1108938E+00
         21   -1    0    0  502  501  0.00000000000E+00  0.00000000000E+00  0.23697174325E+03  0.23697174325E+03  0.00000000000E+00 0. -1.
         21   -1    0    0  504  502 -0.00000000000E+00 -0.00000000000E+00 -0.47054050457E+03  0.47054050457E+03  0.00000000000E+00 0. -1.
         25    1    1    2    0    0 -0.37117103777E+02 -0.21878316258E+03 -0.24179930336E+03  0.35119176347E+03  0.12500000000E+03 0.  0.
         21    1    1    2  503  501  0.57550038533E+02  0.21792827024E+03  0.11120211772E+03  0.25133771880E+03  0.00000000000E+00 0. -1.
         21    1    1    2  504  503 -0.20432934756E+02  0.85489234408E+00 -0.10297157569E+03  0.10498276556E+03  0.00000000000E+00 0.  1.
<mgrwt>
<rscale>  4 0.25703442E+03</rscale>
<asrwt>0</asrwt>
<pdfrwt beam="1">  1       21 0.36457192E-01 0.25703442E+03</pdfrwt>
<pdfrwt beam="2">  1       21 0.72390846E-01 0.25703442E+03</pdfrwt>
<totfact> 0.12012307E+04</totfact>
</mgrwt>
</event>
<event>
 5    0  0.1257040E+001  0.2926919E+03  0.7546771E-02  0.1088952E+00
         21   -1    0    0  504  501  0.00000000000E+00  0.00000000000E+00  0.37382159316E+03  0.37382159316E+03  0.00000000000E+00 0.  1.
         21   -1    0    0  503  502 -0.00000000000E+00 -0.00000000000E+00 -0.48575877005E+03  0.48575877005E+03  0.00000000000E+00 0.  1.
         25    1    1    2    0    0 -0.84510301936E+02 -0.24270874993E+03 -0.20442575299E+03  0.35137503741E+03  0.12500000000E+03 0.  0.
         21    1    1    2  503  501  0.12235040759E+03 -0.26875954379E+02 -0.11175885697E+03  0.16787489768E+03  0.00000000000E+00 0.  1.
         21    1    1    2  504  502 -0.37840105650E+02  0.26958470431E+03  0.20424743307E+03  0.34033042813E+03  0.00000000000E+00 0.  1.
<mgrwt>
<rscale>  4 0.29269186E+03</rscale>
<asrwt>0</asrwt>
<pdfrwt beam="1">  1       21 0.57511014E-01 0.29269186E+03</pdfrwt>
<pdfrwt beam="2">  1       21 0.74732118E-01 0.29269186E+03</pdfrwt>
<totfact> 0.42565390E+03</totfact>
</mgrwt>
</event>
<event>
 5    0  0.1257040E+001  0.4588824E+03  0.7546771E-02  0.1025106E+00
         21   -1    0    0  504  501  0.00000000000E+00  0.00000000000E+00  0.81481589734E+03  0.81481589734E+03  0.00000000000E+00 0.  1.
         21   -1    0    0  503  502 -0.00000000000E+00 -0.00000000000E+00 -0.61789048026E+03  0.61789048026E+03  0.00000000000E+00 0.  1.
         25    1    1    2    0    0  0.24965861001E+03 -0.33506057908E+03  0.63245303598E+03  0.76825572300E+03  0.12500000000E+03 0.  0.
         21    1    1    2  503  501 -0.26032787894E+03  0.36043788285E+03 -0.45063027361E+03  0.63305111598E+03  0.00000000000E+00 0.  1.
         21    1    1    2  504  502  0.10669268931E+02 -0.25377303768E+02  0.15102654712E+02  0.31399538617E+02  0.00000000000E+00 0.  1.
<mgrwt>
<rscale>  4 0.45888242E+03</rscale>
<asrwt>0</asrwt>
<pdfrwt beam="1">  1       21 0.12535629E+00 0.45888242E+03</pdfrwt>
<pdfrwt beam="2">  1       21 0.95060074E-01 0.45888242E+03</pdfrwt>
<totfact> 0.36203009E+02</totfact>
</mgrwt>
</event>
<event>
 5    0  0.1257040E+001  0.2516503E+03  0.7546771E-02  0.1112266E+00
         21   -1    0    0  503  501  0.00000000000E+00  0.00000000000E+00  0.18232242005E+03  0.18232242005E+03  0.00000000000E+00 0. -1.
         21   -1    0    0  504  502 -0.00000000000E+00 -0.00000000000E+00 -0.70799237088E+03  0.70799237088E+03  0.00000000000E+00 0. -1.
         25    1    1    2    0    0  0.79999134423E+02  0.21095783488E+03 -0.52749751380E+03  0.58718114468E+03  0.12500000000E+03 0.  0.
         21    1    1    2  503  502 -0.64924914137E+02 -0.19123183248E+03 -0.80303238593E+02  0.21733262148E+03  0.00000000000E+00 0. -1.
         21    1    1    2  504  501 -0.15074220286E+02 -0.19726002402E+02  0.82130801559E+02  0.85801024777E+02  0.00000000000E+00 0. -1.
<mgrwt>
<rscale>  4 0.25165034E+03</rscale>
<asrwt>0</asrwt>
<pdfrwt beam="1">  1       21 0.28049603E-01 0.25165034E+03</pdfrwt>
<pdfrwt beam="2">  1       21 0.10892191E+00 0.25165034E+03</pdfrwt>
<totfact> 0.78071312E+03</totfact>
</mgrwt>
</event>
<event>
 5    0  0.1257040E+001  0.3048192E+03  0.7546771E-02  0.1082856E+00
         21   -1    0    0  502  501  0.00000000000E+00  0.00000000000E+00  0.25222197837E+03  0.25222197837E+03  0.00000000000E+00 0. -1.
         21   -1    0    0  504  502 -0.00000000000E+00 -0.00000000000E+00 -0.41772384657E+03  0.41772384657E+03  0.00000000000E+00 0. -1.
         25    1    1    2    0    0  0.16346000476E+03  0.22298834747E+03 -0.84363324627E+02  0.31493673460E+03  0.12500000000E+03 0.  0.
         21    1    1    2  503  501 -0.15251374878E+02  0.14030361059E+02  0.44076027828E+02  0.48704739977E+02  0.00000000000E+00 0. -1.
         21    1    1    2  504  503 -0.14820862988E+03 -0.23701870853E+03 -0.12521457140E+03  0.30630435036E+03  0.00000000000E+00 0. -1.
<mgrwt>
<rscale>  4 0.30481917E+03</rscale>
<asrwt>0</asrwt>
<pdfrwt beam="1">  1       21 0.38803382E-01 0.30481917E+03</pdfrwt>
<pdfrwt beam="2">  1       21 0.64265206E-01 0.30481917E+03</pdfrwt>
<totfact> 0.13483222E+04</totfact>
</mgrwt>
</event>
<event>
 5    0  0.1257040E+001  0.2999817E+03  0.7546771E-02  0.1085250E+00
         21   -1    0    0  503  501  0.00000000000E+00  0.00000000000E+00  0.11437552100E+03  0.11437552100E+03  0.00000000000E+00 0.  1.
         21   -1    0    0  504  502 -0.00000000000E+00 -0.00000000000E+00 -0.10985831028E+04  0.10985831028E+04  0.00000000000E+00 0.  1.
         25    1    1    2    0    0 -0.21771652678E+03 -0.11017260481E+03 -0.25309991427E+03  0.37312605844E+03  0.12500000000E+03 0.  0.
         21    1    1    2  503  502  0.25583153079E+03  0.12636377649E+03 -0.74369123786E+03  0.79655146313E+03  0.00000000000E+00 0.  1.
         21    1    1    2  504  501 -0.38115004013E+02 -0.16191171678E+02  0.12583570300E+02  0.43281102258E+02  0.00000000000E+00 0. -1.
<mgrwt>
<rscale>  4 0.29998166E+03</rscale>
<asrwt>0</asrwt>
<pdfrwt beam="1">  1       21 0.17596234E-01 0.29998166E+03</pdfrwt>
<pdfrwt beam="2">  1       21 0.16901278E+00 0.29998166E+03</pdfrwt>
<totfact> 0.58954363E+03</totfact>
</mgrwt>
</event>
<event>
 5    0  0.1257040E+001  0.2780204E+03  0.7546771E-02  0.1096775E+00
         21   -1    0    0  503  501  0.00000000000E+00  0.00000000000E+00  0.62417771620E+03  0.62417771620E+03  0.00000000000E+00 0. -1.
         21   -1    0    0  504  502 -0.00000000000E+00 -0.00000000000E+00 -0.14374991961E+03  0.14374991961E+03  0.00000000000E+00 0. -1.
         25    1    1    2    0    0 -0.23250407469E+03  0.10731208801E+03  0.37717605085E+03  0.47271640792E+03  0.12500000000E+03 0.  0.
         21    1    1    2  503  502  0.23238635566E+02  0.35303954088E+01 -0.17584655789E+02  0.29355033536E+02  0.00000000000E+00 0.  1.
         21    1    1    2  504  501  0.20926543912E+03 -0.11084248342E+03  0.12083640153E+03  0.26585619435E+03  0.00000000000E+00 0. -1.
<mgrwt>
<rscale>  4 0.27802043E+03</rscale>
<asrwt>0</asrwt>
<pdfrwt beam="1">  1       21 0.96027340E-01 0.27802043E+03</pdfrwt>
<pdfrwt beam="2">  1       21 0.22115373E-01 0.27802043E+03</pdfrwt>
<totfact> 0.16473975E+04</totfact>
</mgrwt>
</event>
<event>
 5    0  0.1257040E+001  0.2763330E+03  0.7546771E-02  0.1097709E+00
         21   -1    0    0  502  501  0.00000000000E+00  0.00000000000E+00  0.16155079470E+04  0.16155079470E+04  0.00000000000E+00 0. -1.
         21   -1    0    0  504  502 -0.00000000000E+00 -0.00000000000E+00 -0.24492104280E+03  0.24492104280E+03  0.00000000000E+00 0. -1.
         25    1    1    2    0    0 -0.26224542549E+03 -0.40247341305E+02  0.32862405947E+03  0.44046712038E+03  0.12500000000E+03 0.  0.
         21    1    1    2  503  501  0.24069669574E+03  0.29001412993E+02  0.12181830306E+04  0.12420732174E+04  0.00000000000E+00 0. -1.
         21    1    1    2  504  503  0.21548729744E+02  0.11245928312E+02 -0.17622018581E+03  0.17788865209E+03  0.00000000000E+00 0. -1.
<mgrwt>
<rscale>  4 0.27633295E+03</rscale>
<asrwt>0</asrwt>
<pdfrwt beam="1">  1       21 0.24853968E+00 0.27633295E+03</pdfrwt>
<pdfrwt beam="2">  1       21 0.37680161E-01 0.27633295E+03</pdfrwt>
<totfact> 0.41958747E+02</totfact>
</mgrwt>
</event>
<event>
 5    0  0.1257040E+001  0.2500105E+03  0.7546771E-02  0.1113298E+00
         21   -1    0    0  502  501  0.00000000000E+00  0.00000000000E+00  0.19340081771E+03  0.19340081771E+03  0.00000000000E+00 0. -1.
         21   -1    0    0  504  502 -0.00000000000E+00 -0.00000000000E+00 -0.11076839752E+04  0.11076839752E+04  0.00000000000E+00 0.  1.
         25    1    1    2    0    0 -0.18289104439E+03 -0.12067812409E+03 -0.95811098827E+03  0.99076435624E+03  0.12500000000E+03 0.  0.
         21    1    1    2  503  501  0.16572681741E+03  0.13920506467E+03  0.10761783234E+03  0.24171269283E+03  0.00000000000E+00 0. -1.
         21    1    1    2  504  503  0.17164226988E+02 -0.18526940580E+02 -0.63790001540E+02  0.68607743818E+02  0.00000000000E+00 0. -1.
<mgrwt>
<rscale>  4 0.25001052E+03</rscale>
<asrwt>0</asrwt>
<pdfrwt beam="1">  1       21 0.29753972E-01 0.25001052E+03</pdfrwt>
<pdfrwt beam="2">  1       21 0.17041292E+00 0.25001052E+03</pdfrwt>
<totfact> 0.21832375E+03</totfact>
</mgrwt>
</event>
<event>
 5    0  0.1257040E+001  0.3939555E+03  0.7546771E-02  0.1045893E+00
         21   -1    0    0  503  501  0.00000000000E+00  0.00000000000E+00  0.37982773906E+03  0.37982773906E+03  0.00000000000E+00 0.  1.
         21   -1    0    0  501  502 -0.00000000000E+00 -0.00000000000E+00 -0.41145950968E+03  0.41145950968E+03  0.00000000000E+00 0.  1.
         25    1    1    2    0    0 -0.35821667903E+03 -0.10609767441E+03  0.71213773577E+02  0.40034023930E+03  0.12500000000E+03 0.  0.
         21    1    1    2  503  504  0.29503562673E+02  0.11930906896E+02 -0.24469714215E+02  0.40144410116E+02  0.00000000000E+00 0.  1.
         21    1    1    2  504  502  0.32871311636E+03  0.94166767511E+02 -0.78375829987E+02  0.35080259933E+03  0.00000000000E+00 0.  1.
<mgrwt>
<rscale>  4 0.39395546E+03</rscale>
<asrwt>0</asrwt>
<pdfrwt beam="1">  1       21 0.58435037E-01 0.39395546E+03</pdfrwt>
<pdfrwt beam="2">  1       21 0.63301463E-01 0.39395546E+03</pdfrwt>
<totfact> 0.56930478E+03</totfact>
</mgrwt>
</event>
<event>
 5    0  0.1257040E+001  0.2841127E+03  0.7546771E-02  0.1093464E+00
         21   -1    0    0  504  501  0.00000000000E+00  0.00000000000E+00  0.13783679599E+04  0.13783679599E+04  0.00000000000E+00 0.  1.
         21   -1    0    0  503  502 -0.00000000000E+00 -0.00000000000E+00 -0.97780510763E+02  0.97780510763E+02  0.00000000000E+00 0.  1.
         25    1    1    2    0    0 -0.14072854021E+03  0.23265617749E+03  0.21298970052E+03  0.36731870560E+03  0.12500000000E+03 0.  0.
         21    1    1    2  503  501  0.45615953034E+01 -0.20699604470E+02  0.13696807999E+02  0.25236567244E+02  0.00000000000E+00 0. -1.
         21    1    1    2  504  502  0.13616694491E+03 -0.21195657302E+03  0.10539009406E+04  0.10835931978E+04  0.00000000000E+00 0.  1.
<mgrwt>
<rscale>  4 0.28411267E+03</rscale>
<asrwt>0</asrwt>
<pdfrwt beam="1">  1       21 0.21205660E+00 0.28411267E+03</pdfrwt>
<pdfrwt beam="2">  1       21 0.15043156E-01 0.28411267E+03</pdfrwt>
<totfact> 0.40818667E+03</totfact>
</mgrwt>
</event>
<event>
 5    0  0.1257040E+001  0.2655967E+03  0.7546771E-02  0.1103826E+00
         21   -1    0    0  502  501  0.00000000000E+00  0.00000000000E+00  0.65984627467E+03  0.65984627467E+03  0.00000000000E+00 0. -1.
         21   -1    0    0  504  502 -0.00000000000E+00 -0.00000000000E+00 -0.14556797179E+03  0.14556797179E+03  0.00000000000E+00 0. -1.
         25    1    1    2    0    0  0.25466260393E+02 -0.23791376957E+03  0.41846394639E+03  0.49798450437E+03  0.12500000000E+03 0.  0.
         21    1    1    2  503  501  0.18502740949E+02  0.89741942792E+01  0.69909502127E+02  0.72871298007E+02  0.00000000000E+00 0.  1.
         21    1    1    2  504  503 -0.43969001342E+02  0.22893957529E+03  0.25904854362E+02  0.23455844408E+03  0.00000000000E+00 0. -1.
<mgrwt>
<rscale>  4 0.26559670E+03</rscale>
<asrwt>0</asrwt>
<pdfrwt beam="1">  1       21 0.10151481E+00 0.26559670E+03</pdfrwt>
<pdfrwt beam="2">  1       21 0.22395073E-01 0.26559670E+03</pdfrwt>
<totfact> 0.14170404E+04</totfact>
</mgrwt>
</event>
<event>
 5    0  0.1257040E+001  0.1930386E+03  0.7546771E-02  0.1155749E+00
         21   -1    0    0  502  501  0.00000000000E+00  0.00000000000E+00  0.22737729751E+03  0.22737729751E+03  0.00000000000E+00 0. -1.
         21   -1    0    0  504  502 -0.00000000000E+00 -0.00000000000E+00 -0.51810871869E+03  0.51810871869E+03  0.00000000000E+00 0. -1.
         25    1    1    2    0    0  0.20828029386E+03 -0.76613713832E+01 -0.27761503926E+03  0.36896407338E+03  0.12500000000E+03 0.  0.
         21    1    1    2  503  501 -0.14084148868E+03  0.15554172843E+02  0.14604161717E+03  0.20348565348E+03  0.00000000000E+00 0. -1.
         21    1    1    2  504  503 -0.67438805173E+02 -0.78928014594E+01 -0.15915799908E+03  0.17303628935E+03  0.00000000000E+00 0. -1.
<mgrwt>
<rscale>  4 0.19303861E+03</rscale>
<asrwt>0</asrwt>
<pdfrwt beam="1">  1       21 0.34981123E-01 0.19303861E+03</pdfrwt>
<pdfrwt beam="2">  1       21 0.79709033E-01 0.19303861E+03</pdfrwt>
<totfact> 0.10922278E+04</totfact>
</mgrwt>
</event>
<event>
 5    0  0.1257040E+001  0.2485665E+03  0.7546771E-02  0.1114214E+00
         21   -1    0    0  502  501  0.00000000000E+00  0.00000000000E+00  0.22954781831E+03  0.22954781831E+03  0.00000000000E+00 0. -1.
         21   -1    0    0  504  502 -0.00000000000E+00 -0.00000000000E+00 -0.39206064360E+03  0.39206064360E+03  0.00000000000E+00 0. -1.
         25    1    1    2    0    0  0.22549132563E+02  0.24761330398E+03 -0.94495747504E+02  0.29389667910E+03  0.12500000000E+03 0.  0.
         21    1    1    2  503  501 -0.76046864069E+01 -0.50751294333E+02  0.70020717832E+02  0.86812591584E+02  0.00000000000E+00 0. -1.
         21    1    1    2  504  503 -0.14944446156E+02 -0.19686200965E+03 -0.13803779561E+03  0.24089919122E+03  0.00000000000E+00 0. -1.
<mgrwt>
<rscale>  4 0.24856648E+03</rscale>
<asrwt>0</asrwt>
<pdfrwt beam="1">  1       21 0.35315049E-01 0.24856648E+03</pdfrwt>
<pdfrwt beam="2">  1       21 0.60317022E-01 0.24856648E+03</pdfrwt>
<totfact> 0.19203539E+04</totfact>
</mgrwt>
</event>
<event>
 5    0  0.1257040E+001  0.2642236E+03  0.7546771E-02  0.1104632E+00
         21   -1    0    0  502  501  0.00000000000E+00  0.00000000000E+00  0.25420336919E+03  0.25420336919E+03  0.00000000000E+00 0.  1.
         21   -1    0    0  504  502 -0.00000000000E+00 -0.00000000000E+00 -0.41792238598E+03  0.41792238598E+03  0.00000000000E+00 0.  1.
         25    1    1    2    0    0  0.27027679889E+02  0.20039331743E+03  0.19315821387E+02  0.23850802524E+03  0.12500000000E+03 0.  0.
         21    1    1    2  503  501  0.23179716260E+02  0.39121359897E+02  0.68796533903E+02  0.82466618235E+02  0.00000000000E+00 0.  1.
         21    1    1    2  504  503 -0.50207396149E+02 -0.23951467732E+03 -0.25183137208E+03  0.35115111170E+03  0.00000000000E+00 0.  1.
<mgrwt>
<rscale>  4 0.26422361E+03</rscale>
<asrwt>0</asrwt>
<pdfrwt beam="1">  1       21 0.39108211E-01 0.26422361E+03</pdfrwt>
<pdfrwt beam="2">  1       21 0.64295752E-01 0.26422361E+03</pdfrwt>
<totfact> 0.13503598E+04</totfact>
</mgrwt>
</event>
<event>
 5    0  0.1257040E+001  0.2663598E+03  0.7546771E-02  0.1103381E+00
         21   -1    0    0  502  501  0.00000000000E+00  0.00000000000E+00  0.33568532089E+03  0.33568532089E+03  0.00000000000E+00 0. -1.
         21   -1    0    0  504  502 -0.00000000000E+00 -0.00000000000E+00 -0.29445375023E+03  0.29445375023E+03  0.00000000000E+00 0. -1.
         25    1    1    2    0    0  0.25198031462E+03 -0.30255166033E+02 -0.85868820117E+02  0.29564828479E+03  0.12500000000E+03 0.  0.
         21    1    1    2  503  501 -0.22597067468E+03  0.40879928568E+02  0.16823982861E+03  0.28467271437E+03  0.00000000000E+00 0. -1.
         21    1    1    2  504  503 -0.26009639942E+02 -0.10624762536E+02 -0.41139437839E+02  0.49818071967E+02  0.00000000000E+00 0. -1.
<mgrwt>
<rscale>  4 0.26635976E+03</rscale>
<asrwt>0</asrwt>
<pdfrwt beam="1">  1       21 0.51643895E-01 0.26635976E+03</pdfrwt>
<pdfrwt beam="2">  1       21 0.45300577E-01 0.26635976E+03</pdfrwt>
<totfact> 0.15984612E+04</totfact>
</mgrwt>
</event>
<event>
 5    0  0.1257040E+001  0.2869847E+03  0.7546771E-02  0.1091934E+00
         21   -1    0    0  502  501  0.00000000000E+00  0.00000000000E+00  0.39072857396E+03  0.39072857396E+03  0.00000000000E+00 0.  1.
         21   -1    0    0  504  502 -0.00000000000E+00 -0.00000000000E+00 -0.72179520807E+03  0.72179520807E+03  0.00000000000E+00 0.  1.
         25    1    1    2    0    0 -0.24697220032E+03  0.12578413061E+03 -0.50706518462E+03  0.59123347055E+03  0.12500000000E+03 0.  0.
         21    1    1    2  503  501  0.44642208234E+02 -0.27217432662E+02  0.27173000445E+03  0.27671449314E+03  0.00000000000E+00 0.  1.
         21    1    1    2  504  503  0.20232999209E+03 -0.98566697952E+02 -0.95731453935E+02  0.24457581834E+03  0.00000000000E+00 0.  1.
<mgrwt>
<rscale>  4 0.28698468E+03</rscale>
<asrwt>0</asrwt>
<pdfrwt beam="1">  1       21 0.60112089E-01 0.28698468E+03</pdfrwt>
<pdfrwt beam="2">  1       21 0.11104541E+00 0.28698468E+03</pdfrwt>
<totfact> 0.15292949E+03</totfact>
</mgrwt>
</event>
<event>
 5    0  0.1257040E+001  0.2298493E+03  0.7546771E-02  0.1126746E+00
         21   -1    0    0  503  501  0.00000000000E+00  0.00000000000E+00  0.70548629037E+03  0.70548629037E+03  0.00000000000E+00 0. -1.
         21   -1    0    0  504  502 -0.00000000000E+00 -0.00000000000E+00 -0.40530271938E+03  0.40530271938E+03  0.00000000000E+00 0. -1.
         25    1    1    2    0    0  0.17013032193E+03  0.15925394857E+03 -0.27838600858E+03  0.38396603541E+03  0.12500000000E+03 0.  0.
         21    1    1    2  503  502 -0.15074117595E+02 -0.47316649364E+02 -0.49600470801E+02  0.70187613095E+02  0.00000000000E+00 0. -1.
         21    1    1    2  504  501 -0.15505620434E+03 -0.11193729921E+03  0.62817005036E+03  0.65663536124E+03  0.00000000000E+00 0. -1.
<mgrwt>
<rscale>  4 0.22984926E+03</rscale>
<asrwt>0</asrwt>
<pdfrwt beam="1">  1       21 0.10853635E+00 0.22984926E+03</pdfrwt>
<pdfrwt beam="2">  1       21 0.62354265E-01 0.22984926E+03</pdfrwt>
<totfact> 0.15564352E+03</totfact>
</mgrwt>
</event>
<event>
 5    0  0.1257040E+001  0.3001254E+03  0.7546771E-02  0.1085178E+00
         21   -1    0    0  502  501  0.00000000000E+00  0.00000000000E+00  0.36813074051E+03  0.36813074051E+03  0.00000000000E+00 0. -1.
         21   -1    0    0  504  502 -0.00000000000E+00 -0.00000000000E+00 -0.31357419788E+03  0.31357419788E+03  0.00000000000E+00 0. -1.
         25    1    1    2    0    0 -0.22529640150E+03 -0.15392127355E+03 -0.14794442411E+03  0.33460839739E+03  0.12500000000E+03 0.  0.
         21    1    1    2  503  501  0.15950342679E+02  0.33354063135E+02  0.46979841744E+02  0.59783045168E+02  0.00000000000E+00 0. -1.
         21    1    1    2  504  503  0.20934605882E+03  0.12056721041E+03  0.15552112499E+03  0.28731349584E+03  0.00000000000E+00 0. -1.
<mgrwt>
<rscale>  4 0.30012535E+03</rscale>
<asrwt>0</asrwt>
<pdfrwt beam="1">  1       21 0.56635499E-01 0.30012535E+03</pdfrwt>
<pdfrwt beam="2">  1       21 0.48242184E-01 0.30012535E+03</pdfrwt>
<totfact> 0.11342811E+04</totfact>
</mgrwt>
</event>
<event>
 5    0  0.1257040E+001  0.4242786E+03  0.7546771E-02  0.1035683E+00
         21   -1    0    0  502  501  0.00000000000E+00  0.00000000000E+00  0.11868128502E+04  0.11868128502E+04  0.00000000000E+00 0. -1.
         21   -1    0    0  504  502 -0.00000000000E+00 -0.00000000000E+00 -0.34863391153E+03  0.34863391153E+03  0.00000000000E+00 0. -1.
         25    1    1    2    0    0  0.20749314220E+03  0.35351740798E+03  0.76591062053E+03  0.87765143449E+03  0.12500000000E+03 0.  0.
         21    1    1    2  503  501 -0.30020045348E+03 -0.27629734917E+03  0.22280897836E+03  0.46487028112E+03  0.00000000000E+00 0. -1.
         21    1    1    2  504  503  0.92707311274E+02 -0.77220058810E+02 -0.15054066022E+03  0.19292504613E+03  0.00000000000E+00 0. -1.
<mgrwt>
<rscale>  4 0.42427857E+03</rscale>
<asrwt>0</asrwt>
<pdfrwt beam="1">  1       21 0.18258659E+00 0.42427857E+03</pdfrwt>
<pdfrwt beam="2">  1       21 0.53635987E-01 0.42427857E+03</pdfrwt>
<totfact> 0.48105157E+02</totfact>
</mgrwt>
</event>
<event>
 5    0  0.1257040E+001  0.2490296E+03  0.7546771E-02  0.1113920E+00
         21   -1    0    0  503  501  0.00000000000E+00  0.00000000000E+00  0.38766651285E+03  0.38766651285E+03  0.00000000000E+00 0.  1.
         21   -1    0    0  504  502 -0.00000000000E+00 -0.00000000000E+00 -0.43717893501E+03  0.43717893501E+03  0.00000000000E+00 0.  1.
         25    1    1    2    0    0  0.30059717563E+03  0.13701857191E+02 -0.17365904770E+03  0.36922739299E+03  0.12500000000E+03 0.  0.
         21    1    1    2  503  502 -0.10000008434E+03 -0.50514123160E+02 -0.10170304925E+03  0.15131161136E+03  0.00000000000E+00 0.  1.
         21    1    1    2  504  501 -0.20059709129E+03  0.36812265968E+02  0.22584967479E+03  0.30430644351E+03  0.00000000000E+00 0.  1.
<mgrwt>
<rscale>  4 0.24902956E+03</rscale>
<asrwt>0</asrwt>
<pdfrwt beam="1">  1       21 0.59641002E-01 0.24902956E+03</pdfrwt>
<pdfrwt beam="2">  1       21 0.67258297E-01 0.24902956E+03</pdfrwt>
<totfact> 0.51039372E+03</totfact>
</mgrwt>
</event>
<event>
 5    0  0.1257040E+001  0.2188107E+03  0.7546771E-02  0.1134773E+00
         21   -1    0    0  502  501  0.00000000000E+00  0.00000000000E+00  0.24187431527E+03  0.24187431527E+03  0.00000000000E+00 0.  1.
         21   -1    0    0  504  502 -0.00000000000E+00 -0.00000000000E+00 -0.22560720229E+03  0.22560720229E+03  0.00000000000E+00 0.  1.
         25    1    1    2    0    0 -0.16266991559E+03 -0.12170165656E+03 -0.31290639226E+02  0.24057618076E+03  0.12500000000E+03 0.  0.
         21    1    1    2  503  501  0.14834434489E+03  0.82958782740E+02  0.65129452750E+02  0.18201661988E+03  0.00000000000E+00 0.  1.
         21    1    1    2  504  503  0.14325570700E+02  0.38742873817E+02 -0.17571700545E+02  0.44888716929E+02  0.00000000000E+00 0.  1.
<mgrwt>
<rscale>  4 0.21881072E+03</rscale>
<asrwt>0</asrwt>
<pdfrwt beam="1">  1       21 0.37211433E-01 0.21881072E+03</pdfrwt>
<pdfrwt beam="2">  1       21 0.34708800E-01 0.21881072E+03</pdfrwt>
<totfact> 0.55056380E+04</totfact>
</mgrwt>
</event>
<event>
 5    0  0.1257040E+001  0.2667509E+03  0.7546771E-02  0.1103154E+00
         21   -1    0    0  504  501  0.00000000000E+00  0.00000000000E+00  0.21538549090E+03  0.21538549090E+03  0.00000000000E+00 0.  1.
         21   -1    0    0  503  502 -0.00000000000E+00 -0.00000000000E+00 -0.43138125723E+03  0.43138125723E+03  0.00000000000E+00 0.  1.
         25    1    1    2    0    0 -0.15352575639E+03  0.20235910438E+03 -0.12344145538E+03  0.30884001993E+03  0.12500000000E+03 0.  0.
         21    1    1    2  503  501  0.62585139323E+02 -0.21912978994E+03 -0.91142514387E+02  0.24544189217E+03  0.00000000000E+00 0.  1.
         21    1    1    2  504  502  0.90940617071E+02  0.16770685552E+02 -0.14117965544E+01  0.92484836036E+02  0.00000000000E+00 0. -1.
<mgrwt>
<rscale>  4 0.26675094E+03</rscale>
<asrwt>0</asrwt>
<pdfrwt beam="1">  1       21 0.33136230E-01 0.26675094E+03</pdfrwt>
<pdfrwt beam="2">  1       21 0.66366347E-01 0.26675094E+03</pdfrwt>
<totfact> 0.17544905E+04</totfact>
</mgrwt>
</event>
