<event>
 5    0  0.2324070E+000  0.4350287E+03  0.7546771E-02  0.1032283E+00
         21   -1    0    0  503  501  0.00000000000E+00  0.00000000000E+00  0.14086174126E+03  0.14086174126E+03  0.00000000000E+00 0. -1.
         21   -1    0    0  504  502 -0.00000000000E+00 -0.00000000000E+00 -0.10843935044E+04  0.10843935044E+04  0.00000000000E+00 0. -1.
         25    1    1    2    0    0  0.19398045043E+03  0.87117903084E+02 -0.13086054957E+03  0.27922648087E+03  0.12500000000E+03 0.  0.
         21    1    1    2  503  502 -0.16331891116E+03 -0.90874208179E+02 -0.65238081441E+02  0.19795756042E+03  0.00000000000E+00 0. -1.
         21    1    1    2  504  501 -0.30661539265E+02  0.37563050949E+01 -0.74743313211E+03  0.74807120436E+03  0.00000000000E+00 0. -1.
<mgrwt>
<rscale>  4 0.43502866E+03</rscale>
<asrwt>0</asrwt>
<pdfrwt beam="1">  1       21 0.21671037E-01 0.43502866E+03</pdfrwt>
<pdfrwt beam="2">  1       21 0.16682977E+00 0.43502866E+03</pdfrwt>
<totfact> 0.38755197E+03</totfact>
</mgrwt>
</event>
<event>
 5    0  0.2324070E+000  0.7106264E+03  0.7546771E-02  0.9699230E-01
         21   -1    0    0  503  501  0.00000000000E+00  0.00000000000E+00  0.55772152917E+03  0.55772152917E+03  0.00000000000E+00 0.  1.
         21   -1    0    0  504  502 -0.00000000000E+00 -0.00000000000E+00 -0.63808008558E+03  0.63808008558E+03  0.00000000000E+00 0. -1.
         25    1    1    2    0    0 -0.32485744270E+02  0.27662701408E+03  0.42798052861E+03  0.52570919848E+03  0.12500000000E+03 0.  0.
         21    1    1    2  503  502  0.26963255762E+02 -0.23691385372E+03 -0.97996302084E+02  0.25779539652E+03  0.00000000000E+00 0.  1.
         21    1    1    2  504  501  0.55224885085E+01 -0.39713160354E+02 -0.41034278293E+03  0.41229701974E+03  0.00000000000E+00 0. -1.
<mgrwt>
<rscale>  4 0.71062639E+03</rscale>
<asrwt>0</asrwt>
<pdfrwt beam="1">  1       21 0.85803312E-01 0.71062639E+03</pdfrwt>
<pdfrwt beam="2">  1       21 0.98166167E-01 0.71062639E+03</pdfrwt>
<totfact> 0.78238596E+02</totfact>
</mgrwt>
</event>
<event>
 5    0  0.2324070E+000  0.9176717E+03  0.7546771E-02  0.9403757E-01
         21   -1    0    0  503  501  0.00000000000E+00  0.00000000000E+00  0.16847826898E+03  0.16847826898E+03  0.00000000000E+00 0. -1.
         21   -1    0    0  504  502 -0.00000000000E+00 -0.00000000000E+00 -0.17967335943E+04  0.17967335943E+04  0.00000000000E+00 0. -1.
         25    1    1    2    0    0  0.36022485742E+03 -0.32992488527E+01 -0.10190907139E+04  0.10880917775E+04  0.12500000000E+03 0.  0.
         21    1    1    2  503  502 -0.32690618281E+03 -0.11744770231E+02 -0.67230569949E+02  0.33395440037E+03  0.00000000000E+00 0. -1.
         21    1    1    2  504  501 -0.33318674608E+02  0.15044019084E+02 -0.54193404144E+03  0.54316568546E+03  0.00000000000E+00 0. -1.
<mgrwt>
<rscale>  4 0.91767173E+03</rscale>
<asrwt>0</asrwt>
<pdfrwt beam="1">  1       21 0.25919736E-01 0.91767173E+03</pdfrwt>
<pdfrwt beam="2">  1       21 0.27642053E+00 0.91767173E+03</pdfrwt>
<totfact> 0.44752036E+02</totfact>
</mgrwt>
</event>
<event>
 5    0  0.2324070E+000  0.5180146E+03  0.7546771E-02  0.1009181E+00
         21   -1    0    0  503  501  0.00000000000E+00  0.00000000000E+00  0.17304723866E+03  0.17304723866E+03  0.00000000000E+00 0.  1.
         21   -1    0    0  504  502 -0.00000000000E+00 -0.00000000000E+00 -0.88991990054E+03  0.88991990054E+03  0.00000000000E+00 0.  1.
         25    1    1    2    0    0  0.20547081184E+03  0.62236463427E+02 -0.12155137642E+02  0.24872550989E+03  0.12500000000E+03 0.  0.
         21    1    1    2  503  502 -0.21771154930E+03 -0.93007805817E+02 -0.20424207112E+03  0.31267170364E+03  0.00000000000E+00 0.  1.
         21    1    1    2  504  501  0.12240737464E+02  0.30771342390E+02 -0.50047545312E+03  0.50156992567E+03  0.00000000000E+00 0.  1.
<mgrwt>
<rscale>  4 0.51801456E+03</rscale>
<asrwt>0</asrwt>
<pdfrwt beam="1">  1       21 0.26622652E-01 0.51801456E+03</pdfrwt>
<pdfrwt beam="2">  1       21 0.13691075E+00 0.51801456E+03</pdfrwt>
<totfact> 0.43376176E+03</totfact>
</mgrwt>
</event>
<event>
 5    0  0.2324070E+000  0.4585344E+03  0.7546771E-02  0.1025207E+00
         21   -1    0    0  503  501  0.00000000000E+00  0.00000000000E+00  0.11105892156E+03  0.11105892156E+03  0.00000000000E+00 0.  1.
         21   -1    0    0  504  502 -0.00000000000E+00 -0.00000000000E+00 -0.10216402260E+04  0.10216402260E+04  0.00000000000E+00 0.  1.
         25    1    1    2    0    0  0.12190840797E+03 -0.17212150657E+03 -0.38177254761E+03  0.45372100576E+03  0.12500000000E+03 0.  0.
         21    1    1    2  503  502 -0.60576655300E+02  0.46590209900E+02 -0.53373514025E+03  0.53917842943E+03  0.00000000000E+00 0.  1.
         21    1    1    2  504  501 -0.61331752674E+02  0.12553129667E+03  0.49263834008E+01  0.13979971238E+03  0.00000000000E+00 0.  1.
<mgrwt>
<rscale>  4 0.45853442E+03</rscale>
<asrwt>0</asrwt>
<pdfrwt beam="1">  1       21 0.17085989E-01 0.45853442E+03</pdfrwt>
<pdfrwt beam="2">  1       21 0.15717541E+00 0.45853442E+03</pdfrwt>
<totfact> 0.71256694E+03</totfact>
</mgrwt>
</event>
<event>
 5    0  0.2324070E+000  0.7777914E+03  0.7546771E-02  0.9592731E-01
         21   -1    0    0  503  501  0.00000000000E+00  0.00000000000E+00  0.34667494765E+03  0.34667494765E+03  0.00000000000E+00 0. -1.
         21   -1    0    0  504  502 -0.00000000000E+00 -0.00000000000E+00 -0.15216506272E+04  0.15216506272E+04  0.00000000000E+00 0.  1.
         25    1    1    2    0    0 -0.25833036140E+03 -0.27580195540E+03 -0.27279624154E+03  0.48253920423E+03  0.12500000000E+03 0.  0.
         21    1    1    2  503  502  0.96804167867E+02  0.89987311416E+02 -0.10762018827E+04  0.10842874413E+04  0.00000000000E+00 0.  1.
         21    1    1    2  504  501  0.16152619353E+03  0.18581464398E+03  0.17402244467E+03  0.30149892929E+03  0.00000000000E+00 0. -1.
<mgrwt>
<rscale>  4 0.77779144E+03</rscale>
<asrwt>0</asrwt>
<pdfrwt beam="1">  1       21 0.53334606E-01 0.77779144E+03</pdfrwt>
<pdfrwt beam="2">  1       21 0.23410010E+00 0.77779144E+03</pdfrwt>
<totfact> 0.19289648E+02</totfact>
</mgrwt>
</event>
<event>
 5    0  0.2324070E+000  0.6348564E+03  0.7546771E-02  0.9835617E-01
         21   -1    0    0  503  501  0.00000000000E+00  0.00000000000E+00  0.13630332989E+04  0.13630332989E+04  0.00000000000E+00 0.  1.
         21   -1    0    0  504  502 -0.00000000000E+00 -0.00000000000E+00 -0.11940640243E+03  0.11940640243E+03  0.00000000000E+00 0. -1.
         25    1    1    2    0    0  0.54913592335E+02 -0.23632639418E+03  0.11037370103E+04  0.11369811147E+04  0.12500000000E+03 0.  0.
         21    1    1    2  503  502 -0.27792706243E+02  0.23262943984E+03  0.18100870376E+03  0.29606256372E+03  0.00000000000E+00 0. -1.
         21    1    1    2  504  501 -0.27120886091E+02  0.36969543395E+01 -0.41118817529E+02  0.49396023005E+02  0.00000000000E+00 0. -1.
<mgrwt>
<rscale>  4 0.63485639E+03</rscale>
<asrwt>0</asrwt>
<pdfrwt beam="1">  1       21 0.20969742E+00 0.63485639E+03</pdfrwt>
<pdfrwt beam="2">  1       21 0.18370217E-01 0.63485639E+03</pdfrwt>
<totfact> 0.25043326E+03</totfact>
</mgrwt>
</event>
<event>
 5    0  0.2324070E+000  0.1174662E+04  0.7546771E-02  0.9135329E-01
         21   -1    0    0  503  501  0.00000000000E+00  0.00000000000E+00  0.62608403028E+03  0.62608403028E+03  0.00000000000E+00 0. -1.
         21   -1    0    0  504  502 -0.00000000000E+00 -0.00000000000E+00 -0.59954560445E+03  0.59954560445E+03  0.00000000000E+00 0.  1.
         25    1    1    2    0    0 -0.48676568534E+03 -0.34886301326E+03  0.77351280889E+02  0.61664775610E+03  0.12500000000E+03 0.  0.
         21    1    1    2  503  502  0.32436550372E+02  0.23284298989E+02 -0.29480757038E+02  0.49632684947E+02  0.00000000000E+00 0.  1.
         21    1    1    2  504  501  0.45432913497E+03  0.32557871427E+03 -0.21332098022E+02  0.55934919368E+03  0.00000000000E+00 0. -1.
<mgrwt>
<rscale>  4 0.11746619E+04</rscale>
<asrwt>0</asrwt>
<pdfrwt beam="1">  1       21 0.96320620E-01 0.11746619E+04</pdfrwt>
<pdfrwt beam="2">  1       21 0.92237785E-01 0.11746619E+04</pdfrwt>
<totfact> 0.62878883E+02</totfact>
</mgrwt>
</event>
<event>
 5    0  0.2324070E+000  0.5958481E+03  0.7546771E-02  0.9914057E-01
         21   -1    0    0  503  501  0.00000000000E+00  0.00000000000E+00  0.27356173213E+04  0.27356173213E+04  0.00000000000E+00 0.  1.
         21   -1    0    0  504  502 -0.00000000000E+00 -0.00000000000E+00 -0.44359256397E+03  0.44359256397E+03  0.00000000000E+00 0. -1.
         25    1    1    2    0    0 -0.29579929059E+02 -0.20544084158E+03  0.25073123353E+04  0.25189920719E+04  0.12500000000E+03 0.  0.
         21    1    1    2  503  502  0.32405587944E+02  0.52318732478E+02 -0.40881654041E+03  0.41342270815E+03  0.00000000000E+00 0. -1.
         21    1    1    2  504  501 -0.28256588853E+01  0.15312210910E+03  0.19352896238E+03  0.24679510515E+03  0.00000000000E+00 0.  1.
<mgrwt>
<rscale>  4 0.59584813E+03</rscale>
<asrwt>0</asrwt>
<pdfrwt beam="1">  1       21 0.42086419E+00 0.59584813E+03</pdfrwt>
<pdfrwt beam="2">  1       21 0.68245012E-01 0.59584813E+03</pdfrwt>
<totfact> 0.81523130E+00</totfact>
</mgrwt>
</event>
<event>
 5    0  0.2324070E+000  0.6223567E+03  0.7546771E-02  0.9860079E-01
         21   -1    0    0  503  501  0.00000000000E+00  0.00000000000E+00  0.20237170033E+04  0.20237170033E+04  0.00000000000E+00 0. -1.
         21   -1    0    0  504  502 -0.00000000000E+00 -0.00000000000E+00 -0.69227940661E+02  0.69227940661E+02  0.00000000000E+00 0. -1.
         25    1    1    2    0    0  0.17738226849E+03  0.11387579040E+03  0.33555863154E+03  0.41551986717E+03  0.12500000000E+03 0.  0.
         21    1    1    2  503  502  0.50634070184E+01  0.26238700341E+02 -0.12749908773E+02  0.29608574095E+02  0.00000000000E+00 0. -1.
         21    1    1    2  504  501 -0.18244567550E+03 -0.14011449074E+03  0.16316803399E+04  0.16478165027E+04  0.00000000000E+00 0. -1.
<mgrwt>
<rscale>  4 0.62235665E+03</rscale>
<asrwt>0</asrwt>
<pdfrwt beam="1">  1       21 0.31134103E+00 0.62235665E+03</pdfrwt>
<pdfrwt beam="2">  1       21 0.10650454E-01 0.62235665E+03</pdfrwt>
<totfact> 0.16065158E+03</totfact>
</mgrwt>
</event>
<event>
 5    0  0.2324070E+000  0.5757755E+03  0.7546771E-02  0.9956979E-01
         21   -1    0    0  503  501  0.00000000000E+00  0.00000000000E+00  0.55035181367E+03  0.55035181367E+03  0.00000000000E+00 0. -1.
         21   -1    0    0  504  502 -0.00000000000E+00 -0.00000000000E+00 -0.19671746483E+03  0.19671746483E+03  0.00000000000E+00 0.  1.
         25    1    1    2    0    0 -0.23272488604E+03 -0.59733202962E+02  0.40126159846E+03  0.48411238211E+03  0.12500000000E+03 0.  0.
         21    1    1    2  503  502  0.20889210886E+03  0.43056365165E+02 -0.75251077409E+01  0.21341600449E+03  0.00000000000E+00 0.  1.
         21    1    1    2  504  501  0.23832777184E+02  0.16676837798E+02 -0.40102141878E+02  0.49540891902E+02  0.00000000000E+00 0.  1.
<mgrwt>
<rscale>  4 0.57577550E+03</rscale>
<asrwt>0</asrwt>
<pdfrwt beam="1">  1       21 0.84669509E-01 0.57577550E+03</pdfrwt>
<pdfrwt beam="2">  1       21 0.30264226E-01 0.57577550E+03</pdfrwt>
<totfact> 0.10956605E+04</totfact>
</mgrwt>
</event>
<event>
 5    0  0.2324070E+000  0.4972997E+03  0.7546771E-02  0.1014486E+00
         21   -1    0    0  503  501  0.00000000000E+00  0.00000000000E+00  0.36502548818E+03  0.36502548818E+03  0.00000000000E+00 0.  1.
         21   -1    0    0  504  502 -0.00000000000E+00 -0.00000000000E+00 -0.27507635846E+03  0.27507635846E+03  0.00000000000E+00 0.  1.
         25    1    1    2    0    0 -0.25084645872E+03 -0.12053949981E+03  0.10445103426E+02  0.30526679651E+03  0.12500000000E+03 0.  0.
         21    1    1    2  503  502  0.15364392213E+03  0.64468037208E+02  0.13043424131E+03  0.21160263216E+03  0.00000000000E+00 0.  1.
         21    1    1    2  504  501  0.97202536582E+02  0.56071462602E+02 -0.50930215020E+02  0.12323241797E+03  0.00000000000E+00 0.  1.
<mgrwt>
<rscale>  4 0.49729973E+03</rscale>
<asrwt>0</asrwt>
<pdfrwt beam="1">  1       21 0.56157767E-01 0.49729973E+03</pdfrwt>
<pdfrwt beam="2">  1       21 0.42319440E-01 0.49729973E+03</pdfrwt>
<totfact> 0.14237077E+04</totfact>
</mgrwt>
</event>
<event>
 5    0  0.2324070E+000  0.5775499E+03  0.7546771E-02  0.9953110E-01
         21   -1    0    0  503  501  0.00000000000E+00  0.00000000000E+00  0.56766845072E+03  0.56766845072E+03  0.00000000000E+00 0.  1.
         21   -1    0    0  504  502 -0.00000000000E+00 -0.00000000000E+00 -0.59563596970E+03  0.59563596970E+03  0.00000000000E+00 0. -1.
         25    1    1    2    0    0 -0.83497360641E+02 -0.19130196753E+03 -0.44753874886E+02  0.24737857897E+03  0.12500000000E+03 0.  0.
         21    1    1    2  503  502  0.11142272183E+02  0.14594555288E+03 -0.43353597985E+03  0.45757808128E+03  0.00000000000E+00 0. -1.
         21    1    1    2  504  501  0.72355088457E+02  0.45356414643E+02  0.45032233576E+03  0.45834776018E+03  0.00000000000E+00 0.  1.
<mgrwt>
<rscale>  4 0.57754990E+03</rscale>
<asrwt>0</asrwt>
<pdfrwt beam="1">  1       21 0.87333608E-01 0.57754990E+03</pdfrwt>
<pdfrwt beam="2">  1       21 0.91636302E-01 0.57754990E+03</pdfrwt>
<totfact> 0.92055428E+02</totfact>
</mgrwt>
</event>
<event>
 5    0  0.2324070E+000  0.6331514E+03  0.7546771E-02  0.9838918E-01
         21   -1    0    0  503  501  0.00000000000E+00  0.00000000000E+00  0.49715236078E+03  0.49715236078E+03  0.00000000000E+00 0. -1.
         21   -1    0    0  504  502 -0.00000000000E+00 -0.00000000000E+00 -0.29771770004E+03  0.29771770004E+03  0.00000000000E+00 0.  1.
         25    1    1    2    0    0  0.15264806132E+03 -0.25890828946E+03  0.32744239611E+03  0.46171252500E+03  0.12500000000E+03 0.  0.
         21    1    1    2  503  502 -0.36067097182E+02  0.75567368963E+02 -0.67693748193E+02  0.10767407439E+03  0.00000000000E+00 0.  1.
         21    1    1    2  504  501 -0.11658096413E+03  0.18334092050E+03 -0.60313987175E+02  0.22548346143E+03  0.00000000000E+00 0.  1.
<mgrwt>
<rscale>  4 0.63315143E+03</rscale>
<asrwt>0</asrwt>
<pdfrwt beam="1">  1       21 0.76484978E-01 0.63315143E+03</pdfrwt>
<pdfrwt beam="2">  1       21 0.45802723E-01 0.63315143E+03</pdfrwt>
<totfact> 0.58516274E+03</totfact>
</mgrwt>
</event>
<event>
 5    0  0.2324070E+000  0.6378152E+03  0.7546771E-02  0.9829916E-01
         21   -1    0    0  503  501  0.00000000000E+00  0.00000000000E+00  0.47545705996E+03  0.47545705996E+03  0.00000000000E+00 0. -1.
         21   -1    0    0  504  502 -0.00000000000E+00 -0.00000000000E+00 -0.10160293738E+04  0.10160293738E+04  0.00000000000E+00 0. -1.
         25    1    1    2    0    0 -0.91867744614E+02  0.23383834487E+03 -0.12438026954E+03  0.30694544382E+03  0.12500000000E+03 0.  0.
         21    1    1    2  503  502 -0.22576257300E+02 -0.72754011079E+02  0.36801797609E+03  0.37581919090E+03  0.00000000000E+00 0. -1.
         21    1    1    2  504  501  0.11444400191E+03 -0.16108433379E+03 -0.78421002043E+03  0.80872179908E+03  0.00000000000E+00 0. -1.
<mgrwt>
<rscale>  4 0.63781519E+03</rscale>
<asrwt>0</asrwt>
<pdfrwt beam="1">  1       21 0.73147240E-01 0.63781519E+03</pdfrwt>
<pdfrwt beam="2">  1       21 0.15631221E+00 0.63781519E+03</pdfrwt>
<totfact> 0.34567346E+02</totfact>
</mgrwt>
</event>
<event>
 5    0  0.2324070E+000  0.4622765E+03  0.7546771E-02  0.1024123E+00
         21   -1    0    0  503  501  0.00000000000E+00  0.00000000000E+00  0.82985780783E+03  0.82985780783E+03  0.00000000000E+00 0. -1.
         21   -1    0    0  504  502 -0.00000000000E+00 -0.00000000000E+00 -0.20748245491E+03  0.20748245491E+03  0.00000000000E+00 0. -1.
         25    1    1    2    0    0  0.25532740788E+03 -0.50993868008E+02  0.32052331704E+03  0.43145411872E+03  0.12500000000E+03 0.  0.
         21    1    1    2  503  502 -0.12852759947E+03 -0.43908788536E+01 -0.11136372757E+03  0.17011908611E+03  0.00000000000E+00 0. -1.
         21    1    1    2  504  501 -0.12679980841E+03  0.55384746862E+02  0.41321576345E+03  0.43576705791E+03  0.00000000000E+00 0. -1.
<mgrwt>
<rscale>  4 0.46227647E+03</rscale>
<asrwt>0</asrwt>
<pdfrwt beam="1">  1       21 0.12767043E+00 0.46227647E+03</pdfrwt>
<pdfrwt beam="2">  1       21 0.31920378E-01 0.46227647E+03</pdfrwt>
<totfact> 0.36984786E+03</totfact>
</mgrwt>
</event>
<event>
 5    0  0.2324070E+000  0.6294898E+03  0.7546771E-02  0.9846045E-01
         21   -1    0    0  503  501  0.00000000000E+00  0.00000000000E+00  0.33434805250E+03  0.33434805250E+03  0.00000000000E+00 0.  1.
         21   -1    0    0  504  502 -0.00000000000E+00 -0.00000000000E+00 -0.56095322955E+03  0.56095322955E+03  0.00000000000E+00 0. -1.
         25    1    1    2    0    0  0.18572770051E+03  0.21684865935E+03 -0.12681059529E+03  0.33648781089E+03  0.12500000000E+03 0.  0.
         21    1    1    2  503  502 -0.16043519838E+03 -0.18561461960E+03  0.16196845587E+03  0.29398302771E+03  0.00000000000E+00 0.  1.
         21    1    1    2  504  501 -0.25292502137E+02 -0.31234039757E+02 -0.26176303763E+03  0.26483044344E+03  0.00000000000E+00 0. -1.
<mgrwt>
<rscale>  4 0.62948980E+03</rscale>
<asrwt>0</asrwt>
<pdfrwt beam="1">  1       21 0.51438162E-01 0.62948980E+03</pdfrwt>
<pdfrwt beam="2">  1       21 0.86300497E-01 0.62948980E+03</pdfrwt>
<totfact> 0.34483823E+03</totfact>
</mgrwt>
</event>
<event>
 5    0  0.2324070E+000  0.6100948E+03  0.7546771E-02  0.9884681E-01
         21   -1    0    0  503  501  0.00000000000E+00  0.00000000000E+00  0.46393677169E+03  0.46393677169E+03  0.00000000000E+00 0.  1.
         21   -1    0    0  504  502 -0.00000000000E+00 -0.00000000000E+00 -0.37489678458E+03  0.37489678458E+03  0.00000000000E+00 0.  1.
         25    1    1    2    0    0  0.28606297847E+03  0.22338787348E+03  0.81076578531E+02  0.39234242857E+03  0.12500000000E+03 0.  0.
         21    1    1    2  503  502 -0.22476510861E+03 -0.11673994828E+02  0.18524289063E+02  0.22582910682E+03  0.00000000000E+00 0. -1.
         21    1    1    2  504  501 -0.61297869862E+02 -0.21171387865E+03 -0.10560880481E+02  0.22066202088E+03  0.00000000000E+00 0.  1.
<mgrwt>
<rscale>  4 0.61009484E+03</rscale>
<asrwt>0</asrwt>
<pdfrwt beam="1">  1       21 0.71374888E-01 0.61009484E+03</pdfrwt>
<pdfrwt beam="2">  1       21 0.57676428E-01 0.61009484E+03</pdfrwt>
<totfact> 0.41978556E+03</totfact>
</mgrwt>
</event>
<event>
 5    0  0.2324070E+000  0.5945819E+03  0.7546771E-02  0.9916711E-01
         21   -1    0    0  503  501  0.00000000000E+00  0.00000000000E+00  0.68360122128E+03  0.68360122128E+03  0.00000000000E+00 0. -1.
         21   -1    0    0  504  502 -0.00000000000E+00 -0.00000000000E+00 -0.35021287105E+03  0.35021287105E+03  0.00000000000E+00 0.  1.
         25    1    1    2    0    0  0.73779643130E+02  0.21662295242E+03  0.51564066808E+03  0.57782284295E+03  0.12500000000E+03 0.  0.
         21    1    1    2  503  502  0.61604045362E+02 -0.32740031325E+02 -0.21433504735E+03  0.22540292939E+03  0.00000000000E+00 0.  1.
         21    1    1    2  504  501 -0.13538368849E+03 -0.18388292109E+03  0.32082729505E+02  0.23058831998E+03  0.00000000000E+00 0.  1.
<mgrwt>
<rscale>  4 0.59458194E+03</rscale>
<asrwt>0</asrwt>
<pdfrwt beam="1">  1       21 0.10516942E+00 0.59458194E+03</pdfrwt>
<pdfrwt beam="2">  1       21 0.53878903E-01 0.59458194E+03</pdfrwt>
<totfact> 0.19507932E+03</totfact>
</mgrwt>
</event>
<event>
 5    0  0.2324070E+000  0.5684742E+03  0.7546771E-02  0.9973061E-01
         21   -1    0    0  503  501  0.00000000000E+00  0.00000000000E+00  0.17490035023E+03  0.17490035023E+03  0.00000000000E+00 0. -1.
         21   -1    0    0  504  502 -0.00000000000E+00 -0.00000000000E+00 -0.24917935055E+04  0.24917935055E+04  0.00000000000E+00 0. -1.
         25    1    1    2    0    0 -0.22601040651E+03  0.41652549747E+01 -0.38436527264E+03  0.46309795509E+03  0.12500000000E+03 0.  0.
         21    1    1    2  503  502 -0.10631464961E+03  0.17826947161E+03  0.25572806038E+02  0.20913339676E+03  0.00000000000E+00 0. -1.
         21    1    1    2  504  501  0.33232505612E+03 -0.18243472658E+03 -0.19581006887E+04  0.19944625039E+04  0.00000000000E+00 0. -1.
<mgrwt>
<rscale>  4 0.56847424E+03</rscale>
<asrwt>0</asrwt>
<pdfrwt beam="1">  1       21 0.26907747E-01 0.56847424E+03</pdfrwt>
<pdfrwt beam="2">  1       21 0.38335284E+00 0.56847424E+03</pdfrwt>
<totfact> 0.10221617E+02</totfact>
</mgrwt>
</event>
<event>
 5    0  0.2324070E+000  0.3982662E+03  0.7546771E-02  0.1044382E+00
         21   -1    0    0  503  501  0.00000000000E+00  0.00000000000E+00  0.22376512411E+03  0.22376512411E+03  0.00000000000E+00 0.  1.
         21   -1    0    0  504  502 -0.00000000000E+00 -0.00000000000E+00 -0.63405717526E+03  0.63405717526E+03  0.00000000000E+00 0.  1.
         25    1    1    2    0    0 -0.90404128481E+02 -0.22070131817E+03 -0.18692836617E+02  0.26991924798E+03  0.12500000000E+03 0.  0.
         21    1    1    2  503  502  0.96106399808E+02  0.74562585530E+02  0.43265432484E+02  0.12910428689E+03  0.00000000000E+00 0.  1.
         21    1    1    2  504  501 -0.57022713268E+01  0.14613873264E+03 -0.43486464702E+03  0.45879876450E+03  0.00000000000E+00 0.  1.
<mgrwt>
<rscale>  4 0.39826620E+03</rscale>
<asrwt>0</asrwt>
<pdfrwt beam="1">  1       21 0.34425404E-01 0.39826620E+03</pdfrwt>
<pdfrwt beam="2">  1       21 0.97547257E-01 0.39826620E+03</pdfrwt>
<totfact> 0.63569629E+03</totfact>
</mgrwt>
</event>
<event>
 5    0  0.2324070E+000  0.6604012E+03  0.7546771E-02  0.9787456E-01
         21   -1    0    0  503  501  0.00000000000E+00  0.00000000000E+00  0.11034954614E+04  0.11034954614E+04  0.00000000000E+00 0. -1.
         21   -1    0    0  504  502 -0.00000000000E+00 -0.00000000000E+00 -0.19364461354E+03  0.19364461354E+03  0.00000000000E+00 0. -1.
         25    1    1    2    0    0 -0.34367019298E+03  0.36249680680E+01  0.80223429973E+03  0.88166162081E+03  0.12500000000E+03 0.  0.
         21    1    1    2  503  502  0.20932621139E+03 -0.97679467503E+02  0.98825728492E+02  0.25124741940E+03  0.00000000000E+00 0. -1.
         21    1    1    2  504  501  0.13434398159E+03  0.94054499435E+02  0.87908196273E+01  0.16423103471E+03  0.00000000000E+00 0.  1.
<mgrwt>
<rscale>  4 0.66040117E+03</rscale>
<asrwt>0</asrwt>
<pdfrwt beam="1">  1       21 0.16976853E+00 0.66040117E+03</pdfrwt>
<pdfrwt beam="2">  1       21 0.29791480E-01 0.66040117E+03</pdfrwt>
<totfact> 0.18389521E+03</totfact>
</mgrwt>
</event>
<event>
 5    0  0.2324070E+000  0.5268611E+03  0.7546771E-02  0.1006996E+00
         21   -1    0    0  503  501  0.00000000000E+00  0.00000000000E+00  0.10093532051E+04  0.10093532051E+04  0.00000000000E+00 0. -1.
         21   -1    0    0  504  502 -0.00000000000E+00 -0.00000000000E+00 -0.10297945666E+03  0.10297945666E+03  0.00000000000E+00 0. -1.
         25    1    1    2    0    0  0.19294622917E+03  0.13579239558E+03  0.30249592259E+03  0.40348061320E+03  0.12500000000E+03 0.  0.
         21    1    1    2  503  502 -0.16864370902E+03 -0.14136368410E+03  0.63320844209E+03  0.67035611648E+03  0.00000000000E+00 0. -1.
         21    1    1    2  504  501 -0.24302520143E+02  0.55712885175E+01 -0.29330616213E+02  0.38495932103E+02  0.00000000000E+00 0. -1.
<mgrwt>
<rscale>  4 0.52686114E+03</rscale>
<asrwt>0</asrwt>
<pdfrwt beam="1">  1       21 0.15528510E+00 0.52686114E+03</pdfrwt>
<pdfrwt beam="2">  1       21 0.15842994E-01 0.52686114E+03</pdfrwt>
<totfact> 0.83119367E+03</totfact>
</mgrwt>
</event>
