<event>
 5    0  0.2111236E+000  0.2355810E+03  0.7546771E-02  0.1122772E+00
         21   -1    0    0  502  501  0.00000000000E+00  0.00000000000E+00  0.15617803430E+03  0.15617803430E+03  0.00000000000E+00 0. -1.
         21   -1    0    0  503  502 -0.00000000000E+00 -0.00000000000E+00 -0.49602871561E+03  0.49602871561E+03  0.00000000000E+00 0. -1.
         25    1    1    2    0    0 -0.12650738714E+03 -0.19061325910E+03 -0.97405363719E+02  0.27829900903E+03  0.12500000000E+03 0.  0.
         21    1    1    2  503  504  0.14560435111E+03  0.10855661517E+03 -0.97190449926E+02  0.20598822616E+03  0.00000000000E+00 0. -1.
         21    1    1    2  504  501 -0.19096963965E+02  0.82056643923E+02 -0.14525486766E+03  0.16791951472E+03  0.00000000000E+00 0. -1.
<mgrwt>
<rscale>  4 0.23558096E+03</rscale>
<asrwt>0</asrwt>
<pdfrwt beam="1">  1       21 0.24027390E-01 0.23558096E+03</pdfrwt>
<pdfrwt beam="2">  1       21 0.76312110E-01 0.23558096E+03</pdfrwt>
<totfact> 0.24405177E+04</totfact>
</mgrwt>
</event>
<event>
 5    0  0.1856407E+000  0.2614180E+03  0.7546771E-02  0.1106294E+00
         21   -1    0    0  502  501  0.00000000000E+00  0.00000000000E+00  0.60414327321E+03  0.60414327321E+03  0.00000000000E+00 0.  1.
         21   -1    0    0  503  502 -0.00000000000E+00 -0.00000000000E+00 -0.12438271003E+03  0.12438271003E+03  0.00000000000E+00 0.  1.
         25    1    1    2    0    0 -0.71309040859E+02 -0.21824158715E+03  0.10591797309E+03  0.28206025366E+03  0.12500000000E+03 0.  0.
         21    1    1    2  503  504  0.20788369475E+02  0.40343137881E+02  0.14669929115E+03  0.15355913227E+03  0.00000000000E+00 0.  1.
         21    1    1    2  504  501  0.50520671384E+02  0.17789844927E+03  0.22714329896E+03  0.29290659732E+03  0.00000000000E+00 0.  1.
<mgrwt>
<rscale>  4 0.26141800E+03</rscale>
<asrwt>0</asrwt>
<pdfrwt beam="1">  1       21 0.92945117E-01 0.26141800E+03</pdfrwt>
<pdfrwt beam="2">  1       21 0.19135802E-01 0.26141800E+03</pdfrwt>
<totfact> 0.23561895E+04</totfact>
</mgrwt>
</event>
<event>
 5    0  0.1856407E+000  0.3068542E+03  0.7546771E-02  0.1081864E+00
         21   -1    0    0  502  501  0.00000000000E+00  0.00000000000E+00  0.27955087800E+04  0.27955087800E+04  0.00000000000E+00 0. -1.
         21   -1    0    0  503  502 -0.00000000000E+00 -0.00000000000E+00 -0.12937696036E+03  0.12937696036E+03  0.00000000000E+00 0.  1.
         25    1    1    2    0    0 -0.10093549653E+03 -0.26443297829E+03  0.25216074175E+04  0.25405199748E+04  0.12500000000E+03 0.  0.
         21    1    1    2  503  504  0.76549978276E+02  0.82203305460E+01  0.94988797733E+02  0.12227160219E+03  0.00000000000E+00 0.  1.
         21    1    1    2  504  501  0.24385518253E+02  0.25621264775E+03  0.49535604428E+02  0.26209416337E+03  0.00000000000E+00 0.  1.
<mgrwt>
<rscale>  4 0.30685422E+03</rscale>
<asrwt>0</asrwt>
<pdfrwt beam="1">  1       21 0.43007823E+00 0.30685422E+03</pdfrwt>
<pdfrwt beam="2">  1       21 0.19904150E-01 0.30685422E+03</pdfrwt>
<totfact> 0.11129233E+02</totfact>
</mgrwt>
</event>
<event>
 5    0  0.1856407E+000  0.2386145E+03  0.7546771E-02  0.1120719E+00
         21   -1    0    0  502  501  0.00000000000E+00  0.00000000000E+00  0.83724911107E+03  0.83724911107E+03  0.00000000000E+00 0.  1.
         21   -1    0    0  503  502 -0.00000000000E+00 -0.00000000000E+00 -0.92860026381E+02  0.92860026381E+02  0.00000000000E+00 0.  1.
         25    1    1    2    0    0  0.20303910135E+03  0.93285839202E+01  0.65509204525E+03  0.69719616099E+03  0.12500000000E+03 0.  0.
         21    1    1    2  503  504 -0.84216942925E+02  0.22472129768E+02  0.12895145872E+02  0.88112285631E+02  0.00000000000E+00 0.  1.
         21    1    1    2  504  501 -0.11882215842E+03 -0.31800713688E+02  0.76401893570E+02  0.14480069083E+03  0.00000000000E+00 0.  1.
<mgrwt>
<rscale>  4 0.23861454E+03</rscale>
<asrwt>0</asrwt>
<pdfrwt beam="1">  1       21 0.12880755E+00 0.23861454E+03</pdfrwt>
<pdfrwt beam="2">  1       21 0.14286158E-01 0.23861454E+03</pdfrwt>
<totfact> 0.18437340E+04</totfact>
</mgrwt>
</event>
<event>
 5    0  0.1856407E+000  0.2609901E+03  0.7546771E-02  0.1106550E+00
         21   -1    0    0  502  501  0.00000000000E+00  0.00000000000E+00  0.19441377466E+04  0.19441377466E+04  0.00000000000E+00 0.  1.
         21   -1    0    0  503  502 -0.00000000000E+00 -0.00000000000E+00 -0.97096276300E+03  0.97096276300E+03  0.00000000000E+00 0.  1.
         25    1    1    2    0    0 -0.17045416942E+03  0.15266649043E+03  0.18976144453E+04  0.19154444039E+04  0.12500000000E+03 0.  0.
         21    1    1    2  503  504 -0.27045525523E+02  0.15259827514E+02  0.78202847249E+01  0.32023111026E+02  0.00000000000E+00 0.  1.
         21    1    1    2  504  501  0.19749969494E+03 -0.16792631794E+03 -0.93225974641E+03  0.96763299475E+03  0.00000000000E+00 0.  1.
<mgrwt>
<rscale>  4 0.26099005E+03</rscale>
<asrwt>0</asrwt>
<pdfrwt beam="1">  1       21 0.29909811E+00 0.26099005E+03</pdfrwt>
<pdfrwt beam="2">  1       21 0.14937889E+00 0.26099005E+03</pdfrwt>
<totfact> 0.92873284E+00</totfact>
</mgrwt>
</event>
<event>
 5    0  0.1856407E+000  0.2935359E+03  0.7546771E-02  0.1088517E+00
         21   -1    0    0  502  501  0.00000000000E+00  0.00000000000E+00  0.16716390339E+03  0.16716390339E+03  0.00000000000E+00 0. -1.
         21   -1    0    0  503  502 -0.00000000000E+00 -0.00000000000E+00 -0.89939057387E+03  0.89939057387E+03  0.00000000000E+00 0.  1.
         25    1    1    2    0    0 -0.10381811082E+03  0.27793924097E+03 -0.16439284633E+03  0.36149471605E+03  0.12500000000E+03 0.  0.
         21    1    1    2  503  504 -0.31644284335E+02 -0.26121309618E+03 -0.46456241071E+03  0.53390249652E+03  0.00000000000E+00 0.  1.
         21    1    1    2  504  501  0.13546239516E+03 -0.16726144788E+02 -0.10327141343E+03  0.17115726468E+03  0.00000000000E+00 0.  1.
<mgrwt>
<rscale>  4 0.29353589E+03</rscale>
<asrwt>0</asrwt>
<pdfrwt beam="1">  1       21 0.25717523E-01 0.29353589E+03</pdfrwt>
<pdfrwt beam="2">  1       21 0.13836778E+00 0.29353589E+03</pdfrwt>
<totfact> 0.49409914E+03</totfact>
</mgrwt>
</event>
<event>
 5    0  0.1856407E+000  0.5097169E+03  0.7546771E-02  0.1011273E+00
         21   -1    0    0  502  501  0.00000000000E+00  0.00000000000E+00  0.24767763979E+03  0.24767763979E+03  0.00000000000E+00 0.  1.
         21   -1    0    0  503  502 -0.00000000000E+00 -0.00000000000E+00 -0.14302656583E+04  0.14302656583E+04  0.00000000000E+00 0.  1.
         25    1    1    2    0    0  0.25536499995E+03 -0.44445046354E+03 -0.89637594248E+03  0.10401261116E+04  0.12500000000E+03 0.  0.
         21    1    1    2  503  504 -0.44256135097E+02  0.31503490109E+02  0.42823096825E+02  0.69172921035E+02  0.00000000000E+00 0. -1.
         21    1    1    2  504  501 -0.21110886485E+03  0.41294697343E+03 -0.32903517284E+03  0.56864426547E+03  0.00000000000E+00 0.  1.
<mgrwt>
<rscale>  4 0.50971687E+03</rscale>
<asrwt>0</asrwt>
<pdfrwt beam="1">  1       21 0.38104253E-01 0.50971687E+03</pdfrwt>
<pdfrwt beam="2">  1       21 0.22004087E+00 0.50971687E+03</pdfrwt>
<totfact> 0.53236521E+02</totfact>
</mgrwt>
</event>
<event>
 5    0  0.1856407E+000  0.2874287E+03  0.7546771E-02  0.1091699E+00
         21   -1    0    0  502  501  0.00000000000E+00  0.00000000000E+00  0.19793155055E+03  0.19793155055E+03  0.00000000000E+00 0. -1.
         21   -1    0    0  503  502 -0.00000000000E+00 -0.00000000000E+00 -0.50617818352E+03  0.50617818352E+03  0.00000000000E+00 0. -1.
         25    1    1    2    0    0  0.21027933219E+03  0.15090675133E+03 -0.32264542335E+03  0.43210567498E+03  0.12500000000E+03 0.  0.
         21    1    1    2  503  504 -0.96252209921E+01 -0.42444182790E+02  0.30867179809E+01  0.43631197093E+02  0.00000000000E+00 0. -1.
         21    1    1    2  504  501 -0.20065411120E+03 -0.10846256854E+03  0.11312072408E+02  0.22837286200E+03  0.00000000000E+00 0. -1.
<mgrwt>
<rscale>  4 0.28742868E+03</rscale>
<asrwt>0</asrwt>
<pdfrwt beam="1">  1       21 0.30451008E-01 0.28742868E+03</pdfrwt>
<pdfrwt beam="2">  1       21 0.77873565E-01 0.28742868E+03</pdfrwt>
<totfact> 0.14366711E+04</totfact>
</mgrwt>
</event>
<event>
 5    0  0.1856407E+000  0.3221076E+03  0.7546771E-02  0.1074683E+00
         21   -1    0    0  502  501  0.00000000000E+00  0.00000000000E+00  0.92959339144E+03  0.92959339144E+03  0.00000000000E+00 0.  1.
         21   -1    0    0  503  502 -0.00000000000E+00 -0.00000000000E+00 -0.52185443557E+03  0.52185443557E+03  0.00000000000E+00 0.  1.
         25    1    1    2    0    0 -0.28141896703E+03 -0.94507351990E+02  0.85491459662E+03  0.91358209379E+03  0.12500000000E+03 0.  0.
         21    1    1    2  503  504  0.25756715961E+03  0.84305869243E+02 -0.42320774144E+03  0.50254662839E+03  0.00000000000E+00 0.  1.
         21    1    1    2  504  501  0.23851807428E+02  0.10201482747E+02 -0.23967899310E+02  0.35319104818E+02  0.00000000000E+00 0. -1.
<mgrwt>
<rscale>  4 0.32210755E+03</rscale>
<asrwt>0</asrwt>
<pdfrwt beam="1">  1       21 0.14301437E+00 0.32210755E+03</pdfrwt>
<pdfrwt beam="2">  1       21 0.80285298E-01 0.32210755E+03</pdfrwt>
<totfact> 0.41183148E+02</totfact>
</mgrwt>
</event>
<event>
 5    0  0.1856407E+000  0.3017993E+03  0.7546771E-02  0.1084345E+00
         21   -1    0    0  502  501  0.00000000000E+00  0.00000000000E+00  0.92815971690E+03  0.92815971690E+03  0.00000000000E+00 0.  1.
         21   -1    0    0  503  502 -0.00000000000E+00 -0.00000000000E+00 -0.27325080039E+03  0.27325080039E+03  0.00000000000E+00 0.  1.
         25    1    1    2    0    0 -0.20449204799E+02 -0.33599662725E+03  0.42688431941E+03  0.55782356141E+03  0.12500000000E+03 0.  0.
         21    1    1    2  503  504  0.32109193747E+02  0.23999709731E+03  0.38758843994E+03  0.45700591442E+03  0.00000000000E+00 0.  1.
         21    1    1    2  504  501 -0.11659988947E+02  0.95999529939E+02 -0.15956384284E+03  0.18658104146E+03  0.00000000000E+00 0.  1.
<mgrwt>
<rscale>  4 0.30179931E+03</rscale>
<asrwt>0</asrwt>
<pdfrwt beam="1">  1       21 0.14279380E+00 0.30179931E+03</pdfrwt>
<pdfrwt beam="2">  1       21 0.42038585E-01 0.30179931E+03</pdfrwt>
<totfact> 0.17009223E+03</totfact>
</mgrwt>
</event>
<event>
 5    0  0.3812873E+000  0.2839535E+03  0.7546771E-02  0.1093549E+00
         21   -1    0    0  502  501  0.00000000000E+00  0.00000000000E+00  0.44218666658E+03  0.44218666658E+03  0.00000000000E+00 0. -1.
         21   -1    0    0  503  502 -0.00000000000E+00 -0.00000000000E+00 -0.19361798709E+03  0.19361798709E+03  0.00000000000E+00 0. -1.
         25    1    1    2    0    0  0.20257704746E+03 -0.15376543702E+03  0.21402242671E+03  0.35512232951E+03  0.12500000000E+03 0.  0.
         21    1    1    2  503  504 -0.19054357729E+03  0.17180129174E+03  0.28278144639E+02  0.25811275086E+03  0.00000000000E+00 0. -1.
         21    1    1    2  504  501 -0.12033470170E+02 -0.18035854721E+02  0.62681081382E+01  0.22569573312E+02  0.00000000000E+00 0. -1.
<mgrwt>
<rscale>  4 0.28395352E+03</rscale>
<asrwt>0</asrwt>
<pdfrwt beam="1">  1       21 0.68028717E-01 0.28395352E+03</pdfrwt>
<pdfrwt beam="2">  1       21 0.29787383E-01 0.28395352E+03</pdfrwt>
<totfact> 0.20348819E+04</totfact>
</mgrwt>
</event>
<event>
 5    0  0.1856407E+000  0.2911051E+03  0.7546771E-02  0.1089774E+00
         21   -1    0    0  502  501  0.00000000000E+00  0.00000000000E+00  0.29303423802E+03  0.29303423802E+03  0.00000000000E+00 0.  1.
         21   -1    0    0  503  502 -0.00000000000E+00 -0.00000000000E+00 -0.27240512602E+03  0.27240512602E+03  0.00000000000E+00 0. -1.
         25    1    1    2    0    0  0.19120728289E+03  0.18043547746E+03  0.28756403842E+02  0.29252199459E+03  0.12500000000E+03 0.  0.
         21    1    1    2  503  504 -0.15773206219E+03 -0.17326130862E+03 -0.23319232740E+02  0.23546267458E+03  0.00000000000E+00 0. -1.
         21    1    1    2  504  501 -0.33475220696E+02 -0.71741688478E+01  0.15191940904E+02  0.37454694869E+02  0.00000000000E+00 0. -1.
<mgrwt>
<rscale>  4 0.29110511E+03</rscale>
<asrwt>0</asrwt>
<pdfrwt beam="1">  1       21 0.45082190E-01 0.29110511E+03</pdfrwt>
<pdfrwt beam="2">  1       21 0.41908481E-01 0.29110511E+03</pdfrwt>
<totfact> 0.24679392E+04</totfact>
</mgrwt>
</event>
