<LesHouchesEvents version="3.0">
  <!--
  <scalesfunctionalform>
    muR  H_T/2 := sum_i mT(i)/2, i=final state
    muF1 H_T/2 := sum_i mT(i)/2, i=final state
    muF2 H_T/2 := sum_i mT(i)/2, i=final state
    QES  H_T/2 := sum_i mT(i)/2, i=final state
  </scalesfunctionalform>
HERWIG6   
  -->
  <header>
       24
  </header>
  <init>
   2212   2212 0.65000000D+04 0.65000000D+04 -1 -1   244800   244800 -4   1
 0.22253699D-04 0.10534891D-05 0.17222693D-05     66
  </init>
  <event>
  5     66 0.17222693E-05 0.20048843E+02 0.75467711E-02 0.95075812E-01
       -1 -1    0    0    0  501 0.00000000E+00 0.00000000E+00 0.67650006E+03 0.67650014E+03 0.32000000E+00 0.0000E+00 0.9000E+01
       -2 -1    0    0    0  502 0.00000000E+00 0.00000000E+00 -.15222292E+04 0.15222292E+04 0.32000000E+00 0.0000E+00 0.9000E+01
       25  1    1    2    0    0 -.39562297E+03 -.22971401E+03 -.15270084E+03 0.49822546E+03 0.12500000E+03 0.0000E+00 0.9000E+01
       -1  1    1    2    0  502 0.38265048E+03 0.24500364E+03 -.11534137E+04 0.12396820E+04 0.32000000E+00 0.0000E+00 0.9000E+01
       -2  1    1    2    0  501 0.12972490E+02 -.15289627E+02 0.46038539E+03 0.46082194E+03 0.32000000E+00 0.0000E+00 0.9000E+01
#aMCatNLO 1  0  0  2  4 0.19110656D+02 0.00000000D+00  -5  6  0 0.00000000D+00 0.00000000D+00 0.00000000D+00 0.00000000D+00 0.00000000D+00
  <mgrwgt>
 0.3600789173D-02   11    4    0
 0.101478483991833D+04 0.000000000000000D+00 0.000000000000000D+00 0.101478483991833D+04
 0.101478483991833D+04 0.000000000000000D+00 0.000000000000000D+00 -.101478483991833D+04
 0.476187165105275D+03 -.395675159403263D+03 -.229749181939129D+03 0.422575181536026D+02
 0.862395708007235D+03 0.382704316464625D+03 0.245036867443546D+03 -.732953407074488D+03
 0.690986806724146D+03 0.129708429386380D+02 -.152876855044161D+02 0.690695888920885D+03
 0.000000000000000D+00 0.000000000000000D+00 -.000000000000000D+00 -.000000000000000D+00
 0.101696490507081D+04 0.000000000000000D+00 0.000000000000000D+00 0.101696490507081D+04
 0.105759371885634D+04 0.000000000000000D+00 0.000000000000000D+00 -.105759371885634D+04
 0.479848817824564D+03 -.400172859020157D+03 -.229577596970530D+03 0.422575181536026D+02
 0.858920929259458D+03 0.374606331327850D+03 0.245345801486227D+03 -.732953407074488D+03
 0.690889904801739D+03 0.646976299290494D+01 -.150396725881768D+02 0.690695888920885D+03
 0.448989720413830D+02 0.190967646994013D+02 -.728531927521084D+00 -.406288137855289D+02
 0.101478483991833D+04 0.000000000000000D+00 0.000000000000000D+00 0.101478483991833D+04
 0.101478483991833D+04 0.000000000000000D+00 0.000000000000000D+00 -.101478483991833D+04
 0.476187165105275D+03 -.395675159403263D+03 -.229749181939129D+03 0.422575181536026D+02
 0.000000000000000D+00 0.000000000000000D+00 -.000000000000000D+00 -.000000000000000D+00
 0.862395708007235D+03 0.382704316464625D+03 0.245036867443546D+03 -.732953407074488D+03
 0.690986806724146D+03 0.129708429386380D+02 -.152876855044161D+02 0.690695888920885D+03
 0.101696490507081D+04 0.000000000000000D+00 0.000000000000000D+00 0.101696490507081D+04
 0.105759371885634D+04 0.000000000000000D+00 0.000000000000000D+00 -.105759371885634D+04
 0.479848817824564D+03 -.400172859020157D+03 -.229577596970530D+03 0.422575181536026D+02
 0.448989720413830D+02 0.190967646994013D+02 -.728531927521084D+00 -.406288137855289D+02
 0.858920929259458D+03 0.374606331327850D+03 0.245345801486227D+03 -.732953407074488D+03
 0.690889904801739D+03 0.646976299290494D+01 -.150396725881768D+02 0.690695888920885D+03
0.498887046343D-02 0.000000000000D+00 0.000000000000D+00 0.315496352481D-03 0.000000000000D+00  6 -1 -2 25 -1 -2 21 0 0.10407694D+00 0.23418912D+00 0.22504883D+06 0.22504883D+06 0.22504883D+06 0.10939111D+01  1  2  2  2  6  2       -2 0.367585998724D-03 0.100000000000D+01
0.385844515796D-02 0.000000000000D+00 -.191585761793D-04 0.315496352481D-03 0.000000000000D+00  6 -1 -2 25 -1 -2 21 2 0.10407694D+00 0.23418912D+00 0.22504883D+06 0.22504883D+06 0.22504883D+06 0.10939111D+01  1  2  3  2  6  2       -2 0.340199042881D-03 0.100000000000D+01
-.309666594459D-02 0.000000000000D+00 0.000000000000D+00 0.315496352481D-03 0.000000000000D+00  6 -1 -2 25 -1 -2 21 2 0.10407694D+00 0.23418912D+00 0.22504883D+06 0.22504883D+06 0.22504883D+06 0.10939111D+01  1  2 15  2  6  2       -2 -.273032982806D-03 0.100000000000D+01
0.863795043916D-09 0.000000000000D+00 0.000000000000D+00 0.315496352481D-03 0.000000000000D+00  6 -1 -2 25 -1 -2 21 2 0.10407694D+00 0.24443418D+00 0.23100855D+06 0.23100855D+06 0.23100855D+06 0.10930498D+01  1  2 12  2  6  2       -2 0.651582947374D-10 0.100000000000D+01
0.590420332025D-01 0.000000000000D+00 0.000000000000D+00 0.315496352481D-03 0.000000000000D+00  6 -1 -2 25 -1 -2 21 2 0.10407694D+00 0.24801908D+00 0.23100855D+06 0.23100855D+06 0.23100855D+06 0.10930498D+01  1  2 12  2  6  2       -2 0.422320118750D-02 0.100000000000D+01
-.517146996402D-01 0.000000000000D+00 0.000000000000D+00 0.315496352481D-03 0.000000000000D+00  6 -1 -2 25 -1 -2 21 2 0.10407694D+00 0.23418912D+00 0.22504883D+06 0.22504883D+06 0.22504883D+06 0.10939111D+01  1  2  4  2  6  2       -2 -.455968417334D-02 0.100000000000D+01
-.317297937640D+00 0.000000000000D+00 -.222720102728D-01 0.315496352481D-03 0.000000000000D+00  6 -1 -2 25 -1 -2 21 2 0.10407694D+00 0.24427294D+00 0.22504883D+06 0.22504883D+06 0.22504883D+06 0.10939111D+01  1  2  5  2  6  2       -2 -.240765030035D-01 0.100000000000D+01
0.317974041941D+00 0.000000000000D+00 0.222522336433D-01 0.315496352481D-03 0.000000000000D+00  6 -1 -2 25 -1 -2 21 2 0.10407694D+00 0.23418912D+00 0.22504883D+06 0.22504883D+06 0.22504883D+06 0.10939111D+01  1  2  6  2  6  2       -2 0.280357657814D-01 0.100000000000D+01
0.183934682641D-10 0.000000000000D+00 0.000000000000D+00 0.315496352481D-03 0.000000000000D+00  6 -1 21 25 2 -1 -2 2 0.10407694D+00 0.24443418D+00 0.23100855D+06 0.23100855D+06 0.23100855D+06 0.10930498D+01  3  4 12  6  4  2       -2 0.104962433158D-10 0.100000000000D+01
0.164983080401D-02 0.000000000000D+00 0.000000000000D+00 0.315496352481D-03 0.000000000000D+00  6 -1 21 25 2 -1 -2 2 0.10407694D+00 0.24801908D+00 0.23100855D+06 0.23100855D+06 0.23100855D+06 0.10930498D+01  3  4 12  6  4  2       -2 0.889708567445D-03 0.100000000000D+01
-.234294066544D-02 0.000000000000D+00 -.165432441552D-03 0.315496352481D-03 0.000000000000D+00  6 -1 21 25 2 -1 -2 2 0.10407694D+00 0.24427294D+00 0.22504883D+06 0.22504883D+06 0.22504883D+06 0.10939111D+01  3  4  5  6  4  2       -2 -.134645132125D-02 0.100000000000D+01
  </mgrwgt>
  </event>
  <event>
  5     66 0.17222693E-05 0.36093607E+02 0.75467711E-02 0.92640444E-01
       -1 -1    0    0    0  501 0.00000000E+00 0.00000000E+00 0.23642265E+03 0.23642287E+03 0.32000000E+00 0.0000E+00 0.9000E+01
       -2 -1    0    0    0  502 -.00000000E+00 -.00000000E+00 -.16822793E+04 0.16822793E+04 0.32000000E+00 0.0000E+00 0.9000E+01
       25  1    1    2    0    0 0.23837212E+03 0.52881887E+03 -.50090328E+03 0.77653059E+03 0.12500000E+03 0.0000E+00 0.9000E+01
       -1  1    1    2    0  502 0.22460501E+02 -.28253088E+02 -.22226867E+03 0.22518032E+03 0.32000000E+00 0.0000E+00 0.9000E+01
       -2  1    1    2    0  501 -.26083262E+03 -.50056578E+03 -.72268471E+03 0.91699130E+03 0.32000000E+00 0.0000E+00 0.9000E+01
#aMCatNLO 1  0  0  4  2 0.49966301D+01 0.00000000D+00  -5  6  0 0.00000000D+00 0.00000000D+00 0.00000000D+00 0.00000000D+00 0.00000000D+00
  <mgrwgt>
 0.2096929216D-04    9    2    0
 0.630657728540822D+03 0.000000000000000D+00 0.000000000000000D+00 0.630657728540822D+03
 0.630657728540822D+03 -.000000000000000D+00 -.000000000000000D+00 -.630657728540822D+03
 0.607061989783094D+03 0.238371729610733D+03 0.528818777619050D+03 0.128175186363393D+03
 0.877547764258847D+02 0.224605046477081D+02 -.282537459755487D+02 -.799884513844121D+02
 0.566498690872666D+03 -.260832234258441D+03 -.500565031643501D+03 -.481867349789806D+02
 0.000000000000000D+00 0.000000000000000D+00 -.000000000000000D+00 0.000000000000000D+00
 0.630657728540822D+03 0.000000000000000D+00 0.000000000000000D+00 0.630657728540822D+03
 0.630657728540822D+03 -.000000000000000D+00 -.000000000000000D+00 -.630657728540822D+03
 0.606782383563361D+03 0.238564165944827D+03 0.528576706152481D+03 0.127489864078979D+03
 0.782571094503032D+02 0.232128396836907D+02 -.213519609622917D+02 -.716200601535686D+02
 0.566670485908139D+03 -.260652587734491D+03 -.500791014422280D+03 -.488265089944239D+02
 0.960547815984194D+01 -.112441789402632D+01 -.643373076790879D+01 -.704329493098632D+01
0.292003067355D-04 0.000000000000D+00 0.000000000000D+00 0.903978315966D-07 0.000000000000D+00  6 -1 -2 25 -1 -2 21 0 0.36372734D-01 0.25881222D+00 0.35635852D+06 0.35635852D+06 0.35635852D+06 0.10790633D+01  1  2  2  3  6  4       -1 0.110745200752D-04 0.100000000000D+01
0.745347260962D-05 0.000000000000D+00 -.112136866482D-06 0.903978315966D-07 0.000000000000D+00  6 -1 -2 25 -1 -2 21 2 0.36372734D-01 0.25881222D+00 0.35635852D+06 0.35635852D+06 0.35635852D+06 0.10790633D+01  1  2  3  3  6  4       -1 0.329147091853D-05 0.100000000000D+01
-.187278414214D-04 0.000000000000D+00 0.000000000000D+00 0.903978315966D-07 0.000000000000D+00  6 -1 -2 25 -1 -2 21 2 0.36372734D-01 0.25881222D+00 0.35635852D+06 0.35635852D+06 0.35635852D+06 0.10790633D+01  1  2 15  3  6  4       -1 -.827025852699D-05 0.100000000000D+01
0.102318567680D-07 0.000000000000D+00 0.000000000000D+00 0.903978315966D-07 0.000000000000D+00  6 -1 -2 25 -1 -2 21 2 0.36372734D-01 0.25881222D+00 0.35752728D+06 0.35752728D+06 0.35752728D+06 0.10789598D+01  1  2 12  3  6  4       -1 0.451677582493D-08 0.100000000000D+01
0.467874665419D-05 0.000000000000D+00 0.000000000000D+00 0.903978315966D-07 0.000000000000D+00  6 -1 -2 25 -1 -2 21 2 0.36372734D-01 0.25881222D+00 0.35752728D+06 0.35752728D+06 0.35752728D+06 0.10789598D+01  1  2 12  3  6  4       -1 0.206539734262D-05 0.100000000000D+01
-.245455744393D-03 0.000000000000D+00 0.000000000000D+00 0.903978315966D-07 0.000000000000D+00  6 -1 -2 25 -1 -2 21 2 0.36372734D-01 0.25881222D+00 0.35635852D+06 0.35635852D+06 0.35635852D+06 0.10790633D+01  1  2  4  3  6  4       -1 -.108393830201D-03 0.100000000000D+01
-.399249237388D-03 0.000000000000D+00 0.000000000000D+00 0.903978315966D-07 0.000000000000D+00  6 -1 -2 25 -1 -2 21 2 0.36372734D-01 0.25881222D+00 0.35635852D+06 0.35635852D+06 0.35635852D+06 0.10790633D+01  1  2  5  3  6  4       -1 -.176309396028D-03 0.100000000000D+01
0.507673795394D-03 0.000000000000D+00 -.000000000000D+00 0.903978315966D-07 0.000000000000D+00  6 -1 -2 25 -1 -2 21 2 0.36372734D-01 0.25881222D+00 0.35635852D+06 0.35635852D+06 0.35635852D+06 0.10790633D+01  1  2  6  3  6  4       -1 0.224189934163D-03 0.100000000000D+01
0.166084931747D-03 0.000000000000D+00 0.000000000000D+00 0.903978315966D-07 0.121949870319D-07  6 -1 -2 25 -1 -2 21 2 0.36372734D-01 0.25881222D+00 0.35752728D+06 0.35752728D+06 0.35752728D+06 0.10789598D+01  1  2 11  3  6  4       -1 0.733169376404D-04 0.100000000000D+01
  </mgrwgt>
  </event>
  <event>
  5     66 -.17222693E-05 0.30689005E+02 0.75467711E-02 0.92240642E-01
       -1 -1    0    0    0  501 0.00000000E+00 0.00000000E+00 0.73931417E+03 0.73931423E+03 0.32000000E+00 0.0000E+00 0.9000E+01
       -2 -1    0    0    0  502 0.00000000E+00 0.00000000E+00 -.10713375E+04 0.10713375E+04 0.32000000E+00 0.0000E+00 0.9000E+01
       25  1    1    2    0    0 -.39345224E+03 -.38337467E+03 -.62120605E+02 0.56680224E+03 0.12500000E+03 0.0000E+00 0.9000E+01
       -1  1    1    2    0  502 -.28383350E+02 0.11660412E+02 -.59406149E+03 0.59485354E+03 0.32000000E+00 0.0000E+00 0.9000E+01
       -2  1    1    2    0  501 0.42183559E+03 0.37171426E+03 0.32415879E+03 0.64899598E+03 0.32000000E+00 0.0000E+00 0.9000E+01
#aMCatNLO 1  0  0  1  4 0.44729384D+02 0.00000000D+00  -5  6  0 0.00000000D+00 0.00000000D+00 0.00000000D+00 0.00000000D+00 0.00000000D+00
  <mgrwgt>
 -.5555173767D-03    7    4    0
 0.889974760087970D+03 0.000000000000000D+00 0.000000000000000D+00 0.889974760087970D+03
 0.889974760087970D+03 0.000000000000000D+00 0.000000000000000D+00 -.889974760087970D+03
 0.564965742523744D+03 -.393424634526061D+03 -.383355062070420D+03 0.426291397805010D+02
 0.494367598992194D+03 -.283868087201708D+02 0.116620811762044D+02 -.493414134259073D+03
 0.720616178660002D+03 0.421811443246232D+03 0.371692980894215D+03 0.450784994478572D+03
 0.000000000000000D+00 0.000000000000000D+00 -.000000000000000D+00 0.000000000000000D+00
 0.119970640255605D+04 0.000000000000000D+00 0.000000000000000D+00 0.119970640255605D+04
 0.894476621260650D+03 0.000000000000000D+00 0.000000000000000D+00 -.894476621260650D+03
 0.575561941358057D+03 -.414499637445188D+03 -.376854554621857D+03 0.426291397805010D+02
 0.495919916375186D+03 -.466856300220000D+02 0.173062855746060D+02 -.493414134259073D+03
 0.709799321461339D+03 0.395379808778563D+03 0.379845721721541D+03 0.450784994478572D+03
 0.312901844622117D+03 0.658054586886251D+02 -.202974526742903D+02 0.305229781295400D+03
 0.889974760087970D+03 0.000000000000000D+00 0.000000000000000D+00 0.889974760087970D+03
 0.889974760087970D+03 0.000000000000000D+00 0.000000000000000D+00 -.889974760087970D+03
 0.564965742523744D+03 -.393424634526061D+03 -.383355062070420D+03 0.426291397805010D+02
 0.000000000000000D+00 0.000000000000000D+00 -.000000000000000D+00 0.000000000000000D+00
 0.494367598992194D+03 -.283868087201708D+02 0.116620811762044D+02 -.493414134259073D+03
 0.720616178660002D+03 0.421811443246232D+03 0.371692980894215D+03 0.450784994478572D+03
 0.119970640255605D+04 0.000000000000000D+00 0.000000000000000D+00 0.119970640255605D+04
 0.894476621260650D+03 0.000000000000000D+00 0.000000000000000D+00 -.894476621260650D+03
 0.575561941358057D+03 -.414499637445188D+03 -.376854554621857D+03 0.426291397805010D+02
 0.312901844622117D+03 0.658054586886251D+02 -.202974526742903D+02 0.305229781295400D+03
 0.495919916375186D+03 -.466856300220000D+02 0.173062855746060D+02 -.493414134259073D+03
 0.709799321461339D+03 0.395379808778563D+03 0.379845721721541D+03 0.450784994478572D+03
0.142246832309D-03 0.000000000000D+00 0.000000000000D+00 0.295291000432D-04 0.000000000000D+00  6 -1 -2 25 -1 -2 21 0 0.11374065D+00 0.16482116D+00 0.33423118D+06 0.33423118D+06 0.33423118D+06 0.10810971D+01  1  2  2  1  6  1       -1 0.249287931666D-04 0.100000000000D+01
0.835804241242D-04 0.000000000000D+00 -.546265290516D-06 0.295291000432D-04 0.000000000000D+00  6 -1 -2 25 -1 -2 21 2 0.11374065D+00 0.16482116D+00 0.33423118D+06 0.33423118D+06 0.33423118D+06 0.10810971D+01  1  2  3  1  6  1       -1 0.171195603533D-04 0.100000000000D+01
-.968728260339D-04 0.000000000000D+00 0.000000000000D+00 0.295291000432D-04 0.000000000000D+00  6 -1 -2 25 -1 -2 21 2 0.11374065D+00 0.16482116D+00 0.33423118D+06 0.33423118D+06 0.33423118D+06 0.10810971D+01  1  2 15  1  6  1       -1 -.198422083791D-04 0.100000000000D+01
-.440777013926D-02 0.000000000000D+00 0.000000000000D+00 0.295291000432D-04 0.000000000000D+00  6 -1 -2 25 -1 -2 21 2 0.11374065D+00 0.16482116D+00 0.33423118D+06 0.33423118D+06 0.33423118D+06 0.10810971D+01  1  2  4  1  6  1       -1 -.902832065203D-03 0.100000000000D+01
-.389877362659D-02 0.000000000000D+00 -.124431583533D-03 0.295291000432D-04 0.000000000000D+00  6 -1 -2 25 -1 -2 21 2 0.15361781D+00 0.16482116D+00 0.33423118D+06 0.33423118D+06 0.33423118D+06 0.10810971D+01  1  2  5  1  6  1       -1 -.361522696564D-03 0.100000000000D+01
0.377003093854D-02 0.000000000000D+00 0.119015746950D-03 0.295291000432D-04 0.000000000000D+00  6 -1 -2 25 -1 -2 21 2 0.11374065D+00 0.16482116D+00 0.33423118D+06 0.33423118D+06 0.33423118D+06 0.10810971D+01  1  2  6  1  6  1       -1 0.772205607503D-03 0.100000000000D+01
-.148108702246D-03 0.000000000000D+00 -.481626839305D-05 0.295291000432D-04 0.000000000000D+00  6 21 -2 25 1 -1 -2 2 0.15361781D+00 0.16482116D+00 0.33423118D+06 0.33423118D+06 0.33423118D+06 0.10810971D+01  3  4  5  5  4  1       -1 -.855743675373D-04 0.100000000000D+01
  </mgrwgt>
  </event>
  <event>
  5     66 0.17222693E-05 0.26405068E+02 0.75467711E-02 0.94797360E-01
       -1 -1    0    0    0  501 0.00000000E+00 0.00000000E+00 0.12433948E+04 0.12433949E+04 0.32000000E+00 0.0000E+00 0.9000E+01
       -2 -1    0    0    0  502 0.00000000E+00 0.00000000E+00 -.53978011E+03 0.53978020E+03 0.32000000E+00 0.0000E+00 0.9000E+01
       25  1    1    2    0    0 0.41402853E+03 0.22932882E+03 0.34617101E+03 0.59955875E+03 0.12500000E+03 0.0000E+00 0.9000E+01
       -1  1    1    2    0  502 -.39211681E+03 -.21457903E+03 -.29182011E+03 0.53381536E+03 0.32000000E+00 0.0000E+00 0.9000E+01
       -2  1    1    2    0  501 -.21911721E+02 -.14749784E+02 0.64926384E+03 0.64980098E+03 0.32000000E+00 0.0000E+00 0.9000E+01
#aMCatNLO 1  0  0  1  4 0.18202118D+02 0.00000000D+00  -5  6  0 0.00000000D+00 0.00000000D+00 0.00000000D+00 0.00000000D+00 0.00000000D+00
  <mgrwgt>
 0.3993973872D-02    9    4    0
 0.819243507679837D+03 0.000000000000000D+00 0.000000000000000D+00 0.819243507679837D+03
 0.819243507679837D+03 0.000000000000000D+00 0.000000000000000D+00 -.819243507679837D+03
 0.503946837805302D+03 0.414095082263476D+03 0.229364622735785D+03 0.119392411888023D+03
 0.706309928007941D+03 -.392190460565182D+03 -.214619618121459D+03 -.546807805871179D+03
 0.428230249546430D+03 -.219046216982938D+02 -.147450046143257D+02 0.427415393983156D+03
 0.000000000000000D+00 0.000000000000000D+00 -.000000000000000D+00 0.000000000000000D+00
 0.102481631716976D+04 0.000000000000000D+00 0.000000000000000D+00 0.102481631716976D+04
 0.819697076915166D+03 0.000000000000000D+00 0.000000000000000D+00 -.819697076915166D+03
 0.501317940796602D+03 0.409290628359471D+03 0.232209627890866D+03 0.119392411888023D+03
 0.708887581672747D+03 -.398954102687189D+03 -.210614460180782D+03 -.546807805871179D+03
 0.428382594354053D+03 -.259986246015105D+02 -.123207000841348D+02 0.427415393983156D+03
 0.205925277261529D+03 0.156620989292280D+02 -.927446762594932D+01 0.205119240254599D+03
 0.819243507679837D+03 0.000000000000000D+00 0.000000000000000D+00 0.819243507679837D+03
 0.819243507679837D+03 0.000000000000000D+00 0.000000000000000D+00 -.819243507679837D+03
 0.503946837805302D+03 0.414095082263476D+03 0.229364622735785D+03 0.119392411888023D+03
 0.000000000000000D+00 0.000000000000000D+00 -.000000000000000D+00 0.000000000000000D+00
 0.706309928007941D+03 -.392190460565182D+03 -.214619618121459D+03 -.546807805871179D+03
 0.428230249546430D+03 -.219046216982938D+02 -.147450046143257D+02 0.427415393983156D+03
 0.102481631716976D+04 0.000000000000000D+00 0.000000000000000D+00 0.102481631716976D+04
 0.819697076915166D+03 0.000000000000000D+00 0.000000000000000D+00 -.819697076915166D+03
 0.501317940796602D+03 0.409290628359471D+03 0.232209627890866D+03 0.119392411888023D+03
 0.205925277261529D+03 0.156620989292280D+02 -.927446762594932D+01 0.205119240254599D+03
 0.708887581672747D+03 -.398954102687189D+03 -.210614460180782D+03 -.546807805871179D+03
 0.428382594354053D+03 -.259986246015105D+02 -.123207000841348D+02 0.427415393983156D+03
0.181471020157D-03 0.000000000000D+00 0.000000000000D+00 0.809588080052D-04 0.000000000000D+00  6 -1 -2 25 -1 -2 21 0 0.19129152D+00 0.83043104D-01 0.23188006D+06 0.23188006D+06 0.23188006D+06 0.10929259D+01  1  2  2  1  6  1       -1 0.417100214094D-04 0.100000000000D+01
0.101819451810D-03 0.000000000000D+00 -.696896499821D-06 0.809588080052D-04 0.000000000000D+00  6 -1 -2 25 -1 -2 21 2 0.19129152D+00 0.83043104D-01 0.23188006D+06 0.23188006D+06 0.23188006D+06 0.10929259D+01  1  2  3  1  6  1       -1 0.279540878603D-04 0.100000000000D+01
-.987814567915D-04 0.000000000000D+00 0.000000000000D+00 0.809588080052D-04 0.000000000000D+00  6 -1 -2 25 -1 -2 21 2 0.19129152D+00 0.83043104D-01 0.23188006D+06 0.23188006D+06 0.23188006D+06 0.10929259D+01  1  2 15  1  6  1       -1 -.271200195349D-04 0.100000000000D+01
0.479208068566D-08 0.000000000000D+00 0.000000000000D+00 0.809588080052D-04 0.000000000000D+00  6 -1 -2 25 -1 -2 21 2 0.23935449D+00 0.83043104D-01 0.24255663D+06 0.24255663D+06 0.24255663D+06 0.10914480D+01  1  2 12  1  6  1       -1 0.532725375366D-09 0.100000000000D+01
-.372501435932D-02 0.000000000000D+00 0.000000000000D+00 0.809588080052D-04 0.000000000000D+00  6 -1 -2 25 -1 -2 21 2 0.19129152D+00 0.83043104D-01 0.23188006D+06 0.23188006D+06 0.23188006D+06 0.10929259D+01  1  2  4  1  6  1       -1 -.102268649880D-02 0.100000000000D+01
-.377730509282D-01 0.000000000000D+00 -.183675517391D-03 0.809588080052D-04 0.000000000000D+00  6 -1 -2 25 -1 -2 21 2 0.23933725D+00 0.83043104D-01 0.23188006D+06 0.23188006D+06 0.23188006D+06 0.10929259D+01  1  2  5  1  6  1       -1 -.422618835170D-02 0.100000000000D+01
0.368887575841D-01 0.000000000000D+00 0.179158914000D-03 0.809588080052D-04 0.000000000000D+00  6 -1 -2 25 -1 -2 21 2 0.19129152D+00 0.83043104D-01 0.23188006D+06 0.23188006D+06 0.23188006D+06 0.10929259D+01  1  2  6  1  6  1       -1 0.101276480302D-01 0.100000000000D+01
0.149525328564D-09 0.000000000000D+00 0.000000000000D+00 0.809588080052D-04 0.000000000000D+00  6 21 -2 25 1 -1 -2 2 0.23935449D+00 0.83043104D-01 0.24255663D+06 0.24255663D+06 0.24255663D+06 0.10914480D+01  3  4 12  5  4  1       -1 0.117037591724D-09 0.100000000000D+01
-.117576609309D-02 0.000000000000D+00 -.572976900959D-05 0.809588080052D-04 0.000000000000D+00  6 21 -2 25 1 -1 -2 2 0.23933725D+00 0.83043104D-01 0.23188006D+06 0.23188006D+06 0.23188006D+06 0.10929259D+01  3  4  5  5  4  1       -1 -.927344047671D-03 0.100000000000D+01
  </mgrwgt>
  </event>
  <event>
  5     66 -.17222693E-05 0.10186263E+03 0.75467711E-02 0.94652310E-01
       -1 -1    0    0    0  501 0.00000000E+00 0.00000000E+00 0.93075359E+03 0.93075364E+03 0.32000000E+00 0.0000E+00 0.9000E+01
       -2 -1    0    0    0  502 -.00000000E+00 -.00000000E+00 -.12044509E+04 0.12044510E+04 0.32000000E+00 0.0000E+00 0.9000E+01
       25  1    1    2    0    0 0.51846095E+02 -.48141990E+03 0.10723686E+03 0.51144685E+03 0.12500000E+03 0.0000E+00 0.9000E+01
       -1  1    1    2    0  502 -.87138438E+02 0.38584926E+03 -.95868815E+03 0.10370901E+04 0.32000000E+00 0.0000E+00 0.9000E+01
       -2  1    1    2    0  501 0.35292343E+02 0.95570640E+02 0.57775392E+03 0.58666770E+03 0.32000000E+00 0.0000E+00 0.9000E+01
#aMCatNLO 1  0  0  5  1 0.19573690D+01 0.00000000D+00  -5  6  0 0.00000000D+00 0.00000000D+00 0.00000000D+00 0.00000000D+00 0.00000000D+00
  <mgrwgt>
 -.7966600650D-03    9    2    0
 0.105879513801787D+04 0.000000000000000D+00 0.000000000000000D+00 0.105879513801787D+04
 0.105879513801787D+04 -.000000000000000D+00 -.000000000000000D+00 -.105879513801787D+04
 0.529637011738216D+03 0.518625339076479D+02 -.481460977969909D+03 0.174344396158651D+03
 0.921837269150447D+03 -.871492632242203D+02 0.385905539653161D+03 -.832625889087789D+03
 0.666115995147077D+03 0.352867293165724D+02 0.955554383167474D+02 0.658281492929138D+03
 0.000000000000000D+00 0.000000000000000D+00 0.000000000000000D+00 0.000000000000000D+00
 0.105879513801787D+04 0.000000000000000D+00 0.000000000000000D+00 0.105879513801787D+04
 0.105879513801787D+04 -.000000000000000D+00 -.000000000000000D+00 -.105879513801787D+04
 0.529637617708207D+03 0.518626943364256D+02 -.481460543533437D+03 0.174347388991860D+03
 0.921832854370420D+03 -.871489839975342D+02 0.385906295790919D+03 -.832620680054156D+03
 0.407499503848750D+03 0.205808102216681D+02 0.601244194829590D+02 0.402513763826076D+03
 0.258620300108364D+03 0.147054794394404D+02 0.354298282595591D+02 0.255759527236220D+03
0.156260748086D-04 0.000000000000D+00 0.000000000000D+00 0.626260126889D-04 0.000000000000D+00  6 -1 -2 25 -1 -2 21 0 0.14319287D+00 0.18530015D+00 0.24880427D+06 0.24880427D+06 0.24880427D+06 0.10906158D+01  1  2  2  4  6  5       -2 0.109778948535D-05 0.100000000000D+01
0.318685590236D-05 0.000000000000D+00 -.600082417051D-07 0.626260126889D-04 0.000000000000D+00  6 -1 -2 25 -1 -2 21 2 0.14319287D+00 0.18530015D+00 0.24880427D+06 0.24880427D+06 0.24880427D+06 0.10906158D+01  1  2  3  4  6  5       -2 0.266302443756D-06 0.100000000000D+01
-.105585001356D-04 0.000000000000D+00 0.000000000000D+00 0.626260126889D-04 0.000000000000D+00  6 -1 -2 25 -1 -2 21 2 0.14319287D+00 0.18530015D+00 0.24880427D+06 0.24880427D+06 0.24880427D+06 0.10906158D+01  1  2 15  4  6  5       -2 -.882297309530D-06 0.100000000000D+01
0.546261747678D-11 0.000000000000D+00 0.000000000000D+00 0.626260126889D-04 0.000000000000D+00  6 -1 -2 25 -1 -2 21 2 0.14319287D+00 0.18530015D+00 0.24882792D+06 0.24882792D+06 0.24882792D+06 0.10906127D+01  1  2 12  4  6  5       -2 0.456465516266D-12 0.100000000000D+01
0.119625556492D-03 0.000000000000D+00 0.000000000000D+00 0.626260126889D-04 0.000000000000D+00  6 -1 -2 25 -1 -2 21 2 0.14319287D+00 0.18530015D+00 0.24882792D+06 0.24882792D+06 0.24882792D+06 0.10906127D+01  1  2 12  4  6  5       -2 0.999611296876D-05 0.100000000000D+01
-.178514047160D+00 0.000000000000D+00 0.000000000000D+00 0.626260126889D-04 0.000000000000D+00  6 -1 -2 25 -1 -2 21 2 0.14319287D+00 0.18530015D+00 0.24880427D+06 0.24880427D+06 0.24880427D+06 0.10906158D+01  1  2  4  4  6  5       -2 -.149171247336D-01 0.100000000000D+01
-.111070393412D+00 0.000000000000D+00 0.000000000000D+00 0.626260126889D-04 0.000000000000D+00  6 -1 -2 25 -1 -2 21 2 0.14319287D+00 0.18530015D+00 0.24880427D+06 0.24880427D+06 0.24880427D+06 0.10906158D+01  1  2  5  4  6  5       -2 -.928134754151D-02 0.100000000000D+01
0.161646675359D+00 0.000000000000D+00 -.000000000000D+00 0.626260126889D-04 0.000000000000D+00  6 -1 -2 25 -1 -2 21 2 0.14319287D+00 0.18530015D+00 0.24880427D+06 0.24880427D+06 0.24880427D+06 0.10906158D+01  1  2  6  4  6  5       -2 0.135076407569D-01 0.100000000000D+01
0.118280209941D+00 0.000000000000D+00 0.000000000000D+00 0.626260126889D-04 0.464718059985D-04  6 -1 -2 25 -1 -2 21 2 0.14319287D+00 0.18530015D+00 0.24882792D+06 0.24882792D+06 0.24882792D+06 0.10906127D+01  1  2 11  4  6  5       -2 0.988369354510D-02 0.100000000000D+01
  </mgrwgt>
  </event>
  <event>
  5     66 0.17222693E-05 0.41547120E+02 0.75467711E-02 0.94983861E-01
       -1 -1    0    0    0  501 0.00000000E+00 0.00000000E+00 0.19710610E+03 0.19710636E+03 0.32000000E+00 0.0000E+00 0.9000E+01
       -2 -1    0    0    0  502 -.00000000E+00 -.00000000E+00 -.23091544E+04 0.23091545E+04 0.32000000E+00 0.0000E+00 0.9000E+01
       25  1    1    2    0    0 -.46895036E+03 -.72464556E+02 -.48859131E+03 0.69246807E+03 0.12500000E+03 0.0000E+00 0.9000E+01
       -1  1    1    2    0  502 0.43121927E+03 0.54987066E+02 -.16846358E+04 0.17398194E+04 0.32000000E+00 0.0000E+00 0.9000E+01
       -2  1    1    2    0  501 0.37731099E+02 0.17477490E+02 0.61178830E+02 0.73973307E+02 0.32000000E+00 0.0000E+00 0.9000E+01
#aMCatNLO 1  0  0  5  1 0.69820308D+01 0.00000000D+00  -5  6  0 0.00000000D+00 0.00000000D+00 0.00000000D+00 0.00000000D+00 0.00000000D+00
  <mgrwgt>
 0.3188212695D-03    9    2    0
 0.674647152293724D+03 0.000000000000000D+00 0.000000000000000D+00 0.674647152293724D+03
 0.674647152293724D+03 -.000000000000000D+00 -.000000000000000D+00 -.674647152293724D+03
 0.521569991472312D+03 -.469026341993771D+03 -.724663864778742D+02 0.176559251672658D+03
 0.594756906248333D+03 0.431327283052414D+03 0.550037377134718D+02 -.405791992604904D+03
 0.232967406866803D+03 0.376990589413562D+02 0.174626487644025D+02 0.229232740932246D+03
 0.000000000000000D+00 0.000000000000000D+00 0.000000000000000D+00 0.000000000000000D+00
 0.674647152293724D+03 0.000000000000000D+00 0.000000000000000D+00 0.674647152293724D+03
 0.674647152293724D+03 -.000000000000000D+00 -.000000000000000D+00 -.674647152293724D+03
 0.521615673374613D+03 -.468984670301948D+03 -.724470836587018D+02 0.176812640388558D+03
 0.594596341458121D+03 0.431374793638187D+03 0.550257451771921D+02 -.405503099934747D+03
 0.457563841417350D+02 0.818998858332888D+01 0.102845863834721D+02 0.438269102225091D+02
 0.187325905612978D+03 0.294198880804320D+02 0.713675209803765D+01 0.184863549323679D+03
0.405682341064D-03 0.000000000000D+00 0.000000000000D+00 0.108205556479D-04 0.000000000000D+00  6 -1 -2 25 -1 -2 21 0 0.30324037D-01 0.35525455D+00 0.23384206D+06 0.23384206D+06 0.23384206D+06 0.10926488D+01  1  2  2  4  6  5       -2 0.507997326673D-04 0.100000000000D+01
0.122372751866D-03 0.000000000000D+00 -.155792700830D-05 0.108205556479D-04 0.000000000000D+00  6 -1 -2 25 -1 -2 21 2 0.30324037D-01 0.35525455D+00 0.23384206D+06 0.23384206D+06 0.23384206D+06 0.10926488D+01  1  2  3  4  6  5       -2 0.182945295029D-04 0.100000000000D+01
-.251010199998D-03 0.000000000000D+00 0.000000000000D+00 0.108205556479D-04 0.000000000000D+00  6 -1 -2 25 -1 -2 21 2 0.30324037D-01 0.35525455D+00 0.23384206D+06 0.23384206D+06 0.23384206D+06 0.10926488D+01  1  2 15  4  6  5       -2 -.375256210175D-04 0.100000000000D+01
0.129447769630D-07 0.000000000000D+00 0.000000000000D+00 0.108205556479D-04 0.000000000000D+00  6 -1 -2 25 -1 -2 21 2 0.30324037D-01 0.35525455D+00 0.23475228D+06 0.23475228D+06 0.23475228D+06 0.10925211D+01  1  2 12  4  6  5       -2 0.193427239928D-08 0.100000000000D+01
0.412840939292D-02 0.000000000000D+00 0.000000000000D+00 0.108205556479D-04 0.000000000000D+00  6 -1 -2 25 -1 -2 21 2 0.30324037D-01 0.35525455D+00 0.23475228D+06 0.23475228D+06 0.23475228D+06 0.10925211D+01  1  2 12  4  6  5       -2 0.616887287010D-03 0.100000000000D+01
-.909786828847D-02 0.000000000000D+00 0.000000000000D+00 0.108205556479D-04 0.000000000000D+00  6 -1 -2 25 -1 -2 21 2 0.30324037D-01 0.35525455D+00 0.23384206D+06 0.23384206D+06 0.23384206D+06 0.10926488D+01  1  2  4  4  6  5       -2 -.136011667041D-02 0.100000000000D+01
-.445214539988D-02 0.000000000000D+00 0.000000000000D+00 0.108205556479D-04 0.000000000000D+00  6 -1 -2 25 -1 -2 21 2 0.30324037D-01 0.35525455D+00 0.23384206D+06 0.23384206D+06 0.23384206D+06 0.10926488D+01  1  2  5  4  6  5       -2 -.665588573659D-03 0.100000000000D+01
0.111273628732D-01 0.000000000000D+00 -.000000000000D+00 0.108205556479D-04 0.000000000000D+00  6 -1 -2 25 -1 -2 21 2 0.30324037D-01 0.35525455D+00 0.23384206D+06 0.23384206D+06 0.23384206D+06 0.10926488D+01  1  2  6  4  6  5       -2 0.166352284532D-02 0.100000000000D+01
0.217807066449D-03 0.000000000000D+00 0.000000000000D+00 0.108205556479D-04 0.160436465015D-06  6 -1 -2 25 -1 -2 21 2 0.30324037D-01 0.35525455D+00 0.23475228D+06 0.23475228D+06 0.23475228D+06 0.10925211D+01  1  2 11  4  6  5       -2 0.325458057875D-04 0.100000000000D+01
  </mgrwgt>
  </event>
  <event>
  5     66 0.17222693E-05 0.21136838E+03 0.75467711E-02 0.93783736E-01
       -1 -1    0    0    0  501 0.00000000E+00 0.00000000E+00 0.12975801E+04 0.12975801E+04 0.32000000E+00 0.0000E+00 0.9000E+01
       -2 -1    0    0    0  502 0.00000000E+00 0.00000000E+00 -.12214184E+04 0.12214185E+04 0.32000000E+00 0.0000E+00 0.9000E+01
       25  1    1    2    0    0 0.39590093E+03 0.27603875E+03 -.38751260E+02 0.50006159E+03 0.12500000E+03 0.0000E+00 0.9000E+01
       -1  1    1    2    0  502 -.34622342E+03 -.70580651E+02 -.90804375E+03 0.97436946E+03 0.32000000E+00 0.0000E+00 0.9000E+01
       -2  1    1    2    0  501 -.49677504E+02 -.20545810E+03 0.10229567E+04 0.10445676E+04 0.32000000E+00 0.0000E+00 0.9000E+01
#aMCatNLO 1  0  0  5  2 0.69025134D+02 0.00000000D+00  -5  6  0 0.00000000D+00 0.00000000D+00 0.00000000D+00 0.00000000D+00 0.00000000D+00
  <mgrwgt>
 0.9112191249D-04    7    2    0
 0.125892348693544D+04 0.000000000000000D+00 0.000000000000000D+00 0.125892348693544D+04
 0.125892348693544D+04 -.000000000000000D+00 -.000000000000000D+00 -.125892348693544D+04
 0.501483092058624D+03 0.395934855478040D+03 0.276039919944115D+03 -.538316304370213D+02
 0.100231047350875D+04 -.346259738260455D+03 -.705916949617796D+02 -.937948448246253D+03
 0.101405340830351D+04 -.496751172175848D+02 -.205448224982335D+03 0.991780078683274D+03
 0.000000000000000D+00 0.000000000000000D+00 -.000000000000000D+00 0.000000000000000D+00
 0.125892348693544D+04 0.000000000000000D+00 0.000000000000000D+00 0.125892348693544D+04
 0.125892348693544D+04 -.000000000000000D+00 -.000000000000000D+00 -.125892348693544D+04
 0.498264795156327D+03 0.395285392525703D+03 0.273353846549161D+03 -.408648886546296D+02
 0.979157737240323D+03 -.347546952977857D+03 -.759154061812823D+02 -.912248782393119D+03
 0.971154346466215D+03 -.781970881101005D+02 -.135455749620130D+03 0.958476770697220D+03
 0.692700950080201D+02 0.304586485622544D+02 -.619826907477487D+02 -.536309964947095D+01
0.619861219337D-02 0.000000000000D+00 0.000000000000D+00 0.274478198732D-04 0.000000000000D+00  6 -1 -2 25 -1 -2 21 0 0.19962771D+00 0.18791053D+00 0.28267088D+06 0.28267088D+06 0.28267088D+06 0.10864688D+01  1  2  2  4  6  5       -2 0.142836997069D-03 0.100000000000D+01
0.738071299466D-03 0.000000000000D+00 -.238043029546D-04 0.274478198732D-04 0.000000000000D+00  6 -1 -2 25 -1 -2 21 2 0.19962771D+00 0.18791053D+00 0.28267088D+06 0.28267088D+06 0.28267088D+06 0.10864688D+01  1  2  3  4  6  5       -2 0.200760885754D-04 0.100000000000D+01
-.404027134501D-02 0.000000000000D+00 0.000000000000D+00 0.274478198732D-04 0.000000000000D+00  6 -1 -2 25 -1 -2 21 2 0.19962771D+00 0.18791053D+00 0.28267088D+06 0.28267088D+06 0.28267088D+06 0.10864688D+01  1  2 15  4  6  5       -2 -.109898387120D-03 0.100000000000D+01
0.103318736761D-08 0.000000000000D+00 0.000000000000D+00 0.274478198732D-04 0.000000000000D+00  6 -1 -2 25 -1 -2 21 2 0.19962771D+00 0.18791053D+00 0.29041136D+06 0.29041136D+06 0.29041136D+06 0.10855972D+01  1  2 12  4  6  5       -2 0.279916731546D-10 0.100000000000D+01
-.463488328576D-03 0.000000000000D+00 0.000000000000D+00 0.274478198732D-04 0.000000000000D+00  6 -1 -2 25 -1 -2 21 2 0.19962771D+00 0.18791053D+00 0.28267088D+06 0.28267088D+06 0.28267088D+06 0.10864688D+01  1  2  4  4  6  5       -2 -.126072274384D-04 0.100000000000D+01
-.263946458619D-01 0.000000000000D+00 0.000000000000D+00 0.274478198732D-04 0.000000000000D+00  6 -1 -2 25 -1 -2 21 2 0.19962771D+00 0.18791053D+00 0.28267088D+06 0.28267088D+06 0.28267088D+06 0.10864688D+01  1  2  5  4  6  5       -2 -.717954008810D-03 0.100000000000D+01
0.282590953470D-01 0.000000000000D+00 -.000000000000D+00 0.274478198732D-04 0.000000000000D+00  6 -1 -2 25 -1 -2 21 2 0.19962771D+00 0.18791053D+00 0.28267088D+06 0.28267088D+06 0.28267088D+06 0.10864688D+01  1  2  6  4  6  5       -2 0.768668422221D-03 0.100000000000D+01
  </mgrwgt>
  </event>
  <event>
  6     66 0.17222693E-05 0.66666556E+02 0.75467711E-02 0.95106200E-01
       -1 -1    0    0    0  501 0.00000000E+00 0.00000000E+00 0.14646982E+04 0.14646982E+04 0.32000000E+00 0.0000E+00 0.9000E+01
       -2 -1    0    0    0  503 0.00000000E+00 0.00000000E+00 -.38533900E+03 0.38533913E+03 0.32000000E+00 0.0000E+00 0.9000E+01
       25  1    1    2    0    0 -.43133256E+03 -.14102527E+03 0.56793433E+03 0.73763833E+03 0.12500000E+03 0.0000E+00 0.9000E+01
       -1  1    1    2    0  502 0.33959482E+03 0.18440193E+03 -.14069289E+03 0.41124604E+03 0.32000000E+00 0.0000E+00 0.9000E+01
       -2  1    1    2    0  501 0.70839475E+02 -.33227595E+02 0.66827791E+03 0.67284305E+03 0.32000000E+00 0.0000E+00 0.9000E+01
       21  1    1    2  502  503 0.20898264E+02 -.10149061E+02 -.16160146E+02 0.28309958E+02 0.75000000E+00 0.0000E+00 0.9000E+01
#aMCatNLO 2  0  0  2  5 0.28937184D+03 0.00000000D+00  -5  6  0 0.00000000D+00 0.00000000D+00 0.00000000D+00 0.00000000D+00 0.00000000D+00
  <mgrwgt>
 0.4671067583D-02    1    2    0
 0.727665513544554D+03 0.000000000000000D+00 0.000000000000000D+00 0.727665513544554D+03
 0.727665513544554D+03 0.000000000000000D+00 0.000000000000000D+00 -.727665513544554D+03
 0.490719365040063D+03 -.424297326259530D+03 -.144513961395498D+03 0.155781863887028D+03
 0.624334824917729D+03 0.348613618092564D+03 0.180094655562102D+03 -.485621698365540D+03
 0.340276837131316D+03 0.756837081669664D+02 -.355806941666036D+02 0.329839834478512D+03
 0.000000000000000D+00 0.000000000000000D+00 -.000000000000000D+00 -.000000000000000D+00
 0.730786264351843D+03 0.000000000000000D+00 0.000000000000000D+00 0.730786264351843D+03
 0.772320143785826D+03 0.000000000000000D+00 0.000000000000000D+00 -.772320143785826D+03
 0.495866913866982D+03 -.431380466291920D+03 -.141074095615086D+03 0.155781863887028D+03
 0.620664277866006D+03 0.339675217900148D+03 0.184435512415548D+03 -.485621698365540D+03
 0.338985259318947D+03 0.708069846094666D+02 -.332123554906401D+02 0.329839834478512D+03
 0.475899570857331D+02 0.208982637823050D+02 -.101490613098224D+02 -.415338794339824D+02
0.154548418648D-01 0.000000000000D+00 0.000000000000D+00 0.920884079150D-05 0.187274195740D-06  6 -1 -2 25 -1 -2 21 2 0.22533729D+00 0.59282697D-01 0.22978606D+06 0.22978606D+06 0.22978606D+06 0.10932245D+01  1  2  1  2  6  2       -2 0.467106758346D-02 0.100000000000D+01
  </mgrwgt>
  </event>
  <event>
  6     66 0.17222693E-05 0.53323002E+02 0.75467711E-02 0.92909224E-01
       -3 -1    0    0    0  501 0.00000000E+00 0.00000000E+00 0.10003369E+04 0.10003370E+04 0.50000000E+00 0.0000E+00 0.9000E+01
       -4 -1    0    0    0  502 0.00000000E+00 0.00000000E+00 -.50718951E+03 0.50719188E+03 0.15500000E+01 0.0000E+00 0.9000E+01
       25  1    1    2    0    0 0.54086260E+03 0.95718470E+02 0.42057250E+03 0.70299403E+03 0.12500000E+03 0.0000E+00 0.9000E+01
       -3  1    1    2    0  502 -.10950925E+02 0.33214560E+02 -.17881265E+03 0.18220138E+03 0.50000000E+00 0.0000E+00 0.9000E+01
       -4  1    1    2    0  503 -.79325176E+02 0.38962497E+02 0.35814735E+02 0.95371156E+02 0.15500000E+01 0.0000E+00 0.9000E+01
       21  1    1    2  503  501 -.45058650E+03 -.16789553E+03 0.21557281E+03 0.52696233E+03 0.75000000E+00 0.0000E+00 0.9000E+01
#aMCatNLO 2  0  0  5  1 0.14624720D+02 0.00000000D+00  -5  6  0 0.00000000D+00 0.00000000D+00 0.00000000D+00 0.00000000D+00 0.00000000D+00
  <mgrwgt>
 0.2371345507D-04    1    2    0
 0.712293661618688D+03 0.000000000000000D+00 0.000000000000000D+00 0.712293661618688D+03
 0.712293661618688D+03 -.000000000000000D+00 -.000000000000000D+00 -.712293661618688D+03
 0.607135796668862D+03 0.550294266589151D+03 0.979571625060545D+02 0.201418693446278D+03
 0.255705779359027D+03 -.680598682354695D+01 0.342791971678824D+02 -.253306258869556D+03
 0.561745747209487D+03 -.543488279765603D+03 -.132236359673937D+03 0.518875654232772D+02
 0.000000000000000D+00 0.000000000000000D+00 0.000000000000000D+00 0.000000000000000D+00
 0.712293661618688D+03 0.000000000000000D+00 0.000000000000000D+00 0.712293661618688D+03
 0.712293661618688D+03 -.000000000000000D+00 -.000000000000000D+00 -.712293661618688D+03
 0.598293528315562D+03 0.540599577986696D+03 0.955983437850439D+02 0.202344258555677D+03
 0.255327417297285D+03 -.109159811669844D+02 0.332791927326606D+02 -.252913872118407D+03
 0.871757157216856D+02 -.780754160320927D+02 0.384808029272405D+02 0.480235661718896D+01
 0.483790661902844D+03 -.451608180787619D+03 -.167358339444945D+03 0.457672569455413D+02
0.214637266720D-03 0.000000000000D+00 0.000000000000D+00 0.152542069950D-05 0.206196118565D-09  6 -3 -4 25 -3 -4 21 2 0.15389818D+00 0.78029347D-01 0.34031251D+06 0.34031251D+06 0.34031251D+06 0.10805238D+01  1  2  1  4  6  5       -4 0.237134550670D-04 0.100000000000D+01
  </mgrwgt>
  </event>
  <event>
  5     66 0.17222693E-05 0.19210503E+03 0.75467711E-02 0.93693931E-01
       -1 -1    0    0    0  501 0.00000000E+00 0.00000000E+00 0.15864057E+04 0.15864058E+04 0.32000000E+00 0.0000E+00 0.9000E+01
       -2 -1    0    0    0  502 0.00000000E+00 0.00000000E+00 -.34105409E+03 0.34105424E+03 0.32000000E+00 0.0000E+00 0.9000E+01
       25  1    1    2    0    0 -.44886743E+03 -.16227463E+03 0.49257672E+03 0.69718853E+03 0.12500000E+03 0.0000E+00 0.9000E+01
       -1  1    1    2    0  502 0.29123500E+03 0.27398836E+03 -.51457951E+02 0.40315688E+03 0.32000000E+00 0.0000E+00 0.9000E+01
       -2  1    1    2    0  501 0.15763243E+03 -.11171373E+03 0.80423287E+03 0.82711460E+03 0.32000000E+00 0.0000E+00 0.9000E+01
#aMCatNLO 1  0  0  1  4 0.13634595D+03 0.00000000D+00  -5  6  0 0.00000000D+00 0.00000000D+00 0.00000000D+00 0.00000000D+00 0.00000000D+00
  <mgrwgt>
 0.1778101750D-03    9    4    0
 0.735561242400635D+03 0.000000000000000D+00 0.000000000000000D+00 0.735561242400635D+03
 0.735561242400635D+03 0.000000000000000D+00 0.000000000000000D+00 -.735561242400635D+03
 0.496535079118038D+03 -.448893703992851D+03 -.162351826890425D+03 0.553029078410621D+02
 0.571841531737949D+03 0.291311508010085D+03 0.274029952204888D+03 -.408714971607208D+03
 0.402745873945283D+03 0.157582195982765D+03 -.111678125314463D+03 0.353412063766146D+03
 0.000000000000000D+00 -.000000000000000D+00 0.000000000000000D+00 0.000000000000000D+00
 0.101786030022797D+04 0.000000000000000D+00 0.000000000000000D+00 0.101786030022797D+04
 0.755362827275450D+03 0.000000000000000D+00 0.000000000000000D+00 -.755362827275450D+03
 0.466377410051578D+03 -.407983035094873D+03 -.179928652708557D+03 0.553029078410621D+02
 0.589073270364149D+03 0.340634579028218D+03 0.252838828924477D+03 -.408714971607208D+03
 0.421976672246723D+03 0.192621674024072D+03 -.126732457567651D+03 0.353412063766146D+03
 0.295795774840973D+03 -.125273217957417D+03 0.538222813517308D+02 0.262497472952523D+03
 0.735561242400635D+03 0.000000000000000D+00 0.000000000000000D+00 0.735561242400635D+03
 0.735561242400635D+03 0.000000000000000D+00 0.000000000000000D+00 -.735561242400635D+03
 0.496535079118038D+03 -.448893703992851D+03 -.162351826890425D+03 0.553029078410621D+02
 0.000000000000000D+00 -.000000000000000D+00 0.000000000000000D+00 0.000000000000000D+00
 0.571841531737949D+03 0.291311508010085D+03 0.274029952204888D+03 -.408714971607208D+03
 0.402745873945283D+03 0.157582195982765D+03 -.111678125314463D+03 0.353412063766146D+03
 0.101786030022797D+04 0.000000000000000D+00 0.000000000000000D+00 0.101786030022797D+04
 0.755362827275450D+03 0.000000000000000D+00 0.000000000000000D+00 -.755362827275450D+03
 0.466377410051578D+03 -.407983035094873D+03 -.179928652708557D+03 0.553029078410621D+02
 0.295795774840973D+03 -.125273217957417D+03 0.538222813517308D+02 0.262497472952523D+03
 0.589073270364149D+03 0.340634579028218D+03 0.252838828924477D+03 -.408714971607208D+03
 0.421976672246723D+03 0.192621674024072D+03 -.126732457567651D+03 0.353412063766146D+03
0.185105961819D-03 0.000000000000D+00 0.000000000000D+00 0.513035640870D-06 0.000000000000D+00  6 -1 -2 25 -1 -2 21 0 0.24406243D+00 0.52469874D-01 0.29513797D+06 0.29513797D+06 0.29513797D+06 0.10850773D+01  1  2  2  1  6  1       -1 0.414570519571D-04 0.100000000000D+01
0.125871446534D-04 0.000000000000D+00 -.710855632904D-06 0.513035640870D-06 0.000000000000D+00  6 -1 -2 25 -1 -2 21 2 0.24406243D+00 0.52469874D-01 0.29513797D+06 0.29513797D+06 0.29513797D+06 0.10850773D+01  1  2  3  1  6  1       -1 0.331914754185D-05 0.100000000000D+01
-.119337737350D-03 0.000000000000D+00 0.000000000000D+00 0.513035640870D-06 0.000000000000D+00  6 -1 -2 25 -1 -2 21 2 0.24406243D+00 0.52469874D-01 0.29513797D+06 0.29513797D+06 0.29513797D+06 0.10850773D+01  1  2 15  1  6  1       -1 -.314685791324D-04 0.100000000000D+01
0.294054882687D-07 0.000000000000D+00 0.000000000000D+00 0.513035640870D-06 0.000000000000D+00  6 -1 -2 25 -1 -2 21 2 0.34192908D+00 0.52469874D-01 0.39326867D+06 0.39326867D+06 0.39326867D+06 0.10759594D+01  1  2 12  1  6  1       -1 0.100184955902D-08 0.100000000000D+01
-.144188203448D-03 0.000000000000D+00 0.000000000000D+00 0.513035640870D-06 0.000000000000D+00  6 -1 -2 25 -1 -2 21 2 0.24406243D+00 0.52469874D-01 0.29513797D+06 0.29513797D+06 0.29513797D+06 0.10850773D+01  1  2  4  1  6  1       -1 -.380214841584D-04 0.100000000000D+01
-.966454506141D-03 0.000000000000D+00 -.127852833951D-03 0.513035640870D-06 0.000000000000D+00  6 -1 -2 25 -1 -2 21 2 0.34049864D+00 0.52469874D-01 0.29513797D+06 0.29513797D+06 0.29513797D+06 0.10850773D+01  1  2  5  1  6  1       -1 -.354269054143D-04 0.100000000000D+01
0.961975938935D-03 0.000000000000D+00 0.121077992112D-03 0.513035640870D-06 0.000000000000D+00  6 -1 -2 25 -1 -2 21 2 0.24406243D+00 0.52469874D-01 0.29513797D+06 0.29513797D+06 0.29513797D+06 0.10850773D+01  1  2  6  1  6  1       -1 0.253666749764D-03 0.100000000000D+01
0.123655861274D-08 0.000000000000D+00 0.000000000000D+00 0.513035640870D-06 0.000000000000D+00  6 21 -2 25 1 -1 -2 2 0.34192908D+00 0.52469874D-01 0.39326867D+06 0.39326867D+06 0.39326867D+06 0.10759594D+01  3  4 12  5  4  1       -1 0.490462784958D-09 0.100000000000D+01
-.369169471603D-04 0.000000000000D+00 -.532822280434D-05 0.513035640870D-06 0.000000000000D+00  6 21 -2 25 1 -1 -2 2 0.34049864D+00 0.52469874D-01 0.29513797D+06 0.29513797D+06 0.29513797D+06 0.10850773D+01  3  4  5  5  4  1       -1 -.157172978783D-04 0.100000000000D+01
  </mgrwgt>
  </event>
  <event>
  5     66 0.17222693E-05 0.16301965E+03 0.75467711E-02 0.93187282E-01
       -1 -1    0    0    0  501 0.00000000E+00 0.00000000E+00 0.13034050E+04 0.13034051E+04 0.32000000E+00 0.0000E+00 0.9000E+01
       -2 -1    0    0    0  502 -.00000000E+00 -.00000000E+00 -.16562742E+04 0.16562742E+04 0.32000000E+00 0.0000E+00 0.9000E+01
       25  1    1    2    0    0 -.47161635E+03 0.17906678E+03 0.58086102E+03 0.77943019E+03 0.12500000E+03 0.0000E+00 0.9000E+01
       -1  1    1    2    0  502 0.22854881E+03 -.15518578E+03 -.15201253E+04 0.15450237E+04 0.32000000E+00 0.0000E+00 0.9000E+01
       -2  1    1    2    0  501 0.24306753E+03 -.23881001E+02 0.58639506E+03 0.63522547E+03 0.32000000E+00 0.0000E+00 0.9000E+01
#aMCatNLO 1  0  0  5  2 0.94411198D+02 0.00000000D+00  -5  6  0 0.00000000D+00 0.00000000D+00 0.00000000D+00 0.00000000D+00 0.00000000D+00
  <mgrwgt>
 0.3969945366D-03    7    2    0
 0.146928426403707D+04 0.000000000000000D+00 0.000000000000000D+00 0.146928426403707D+04
 0.146928426403707D+04 -.000000000000000D+00 -.000000000000000D+00 -.146928426403707D+04
 0.854906594925441D+03 -.471587593094690D+03 0.179077914411373D+03 0.678805221441499D+03
 0.137361597865586D+04 0.228574278946793D+03 -.155202240486945D+03 -.134554335506905D+04
 0.710045954492833D+03 0.243013314147896D+03 -.238756739244274D+02 0.666738133627550D+03
 0.000000000000000D+00 0.000000000000000D+00 -.000000000000000D+00 0.000000000000000D+00
 0.146928426403707D+04 0.000000000000000D+00 0.000000000000000D+00 0.146928426403707D+04
 0.146928426403707D+04 -.000000000000000D+00 -.000000000000000D+00 -.146928426403707D+04
 0.863028504958780D+03 -.466584975454896D+03 0.178586415137124D+03 0.692530543282831D+03
 0.135373319060669D+04 0.236516304850420D+03 -.155982531976073D+03 -.132375339040488D+04
 0.127027468196752D+03 0.295303951861828D+01 0.869653852873272D+02 0.925433898012445D+02
 0.594779364311907D+03 0.227115631085857D+03 -.109569268448379D+03 0.538679457320804D+03
0.642905863715D-01 0.000000000000D+00 0.000000000000D+00 0.277910683177D-04 0.000000000000D+00  6 -1 -2 25 -1 -2 21 0 0.20052386D+00 0.25481142D+00 0.27048840D+06 0.27048840D+06 0.27048840D+06 0.10878949D+01  1  2  2  4  6  5       -2 0.526480532251D-03 0.100000000000D+01
0.458570654318D-02 0.000000000000D+00 -.246892779767D-03 0.277910683177D-04 0.000000000000D+00  6 -1 -2 25 -1 -2 21 2 0.20052386D+00 0.25481142D+00 0.27048840D+06 0.27048840D+06 0.27048840D+06 0.10878949D+01  1  2  3  4  6  5       -2 0.444441977200D-04 0.100000000000D+01
-.403997838046D-01 0.000000000000D+00 0.000000000000D+00 0.277910683177D-04 0.000000000000D+00  6 -1 -2 25 -1 -2 21 2 0.20052386D+00 0.25481142D+00 0.27048840D+06 0.27048840D+06 0.27048840D+06 0.10878949D+01  1  2 15  4  6  5       -2 -.391550563114D-03 0.100000000000D+01
0.989572734727D-09 0.000000000000D+00 0.000000000000D+00 0.277910683177D-04 0.000000000000D+00  6 -1 -2 25 -1 -2 21 2 0.20052386D+00 0.25481142D+00 0.32347390D+06 0.32347390D+06 0.32347390D+06 0.10821395D+01  1  2 12  4  6  5       -2 0.932168755630D-11 0.100000000000D+01
-.412453651312D-02 0.000000000000D+00 0.000000000000D+00 0.277910683177D-04 0.000000000000D+00  6 -1 -2 25 -1 -2 21 2 0.20052386D+00 0.25481142D+00 0.27048840D+06 0.27048840D+06 0.27048840D+06 0.10878949D+01  1  2  4  4  6  5       -2 -.399745850648D-04 0.100000000000D+01
-.264663442257D-01 0.000000000000D+00 0.000000000000D+00 0.277910683177D-04 0.000000000000D+00  6 -1 -2 25 -1 -2 21 2 0.20052386D+00 0.25481142D+00 0.27048840D+06 0.27048840D+06 0.27048840D+06 0.10878949D+01  1  2  5  4  6  5       -2 -.256509095080D-03 0.100000000000D+01
0.530447253747D-01 0.000000000000D+00 -.000000000000D+00 0.277910683177D-04 0.000000000000D+00  6 -1 -2 25 -1 -2 21 2 0.20052386D+00 0.25481142D+00 0.27048840D+06 0.27048840D+06 0.27048840D+06 0.10878949D+01  1  2  6  4  6  5       -2 0.514104040535D-03 0.100000000000D+01
  </mgrwgt>
  </event>
  <event>
  6     66 0.17222693E-05 0.44850217E+02 0.75467711E-02 0.95151841E-01
       -1 -1    0    0    0  501 0.00000000E+00 0.00000000E+00 0.37519902E+03 0.37519916E+03 0.32000000E+00 0.0000E+00 0.9000E+01
       -2 -1    0    0    0  502 -.00000000E+00 -.00000000E+00 -.15582501E+04 0.15582502E+04 0.32000000E+00 0.0000E+00 0.9000E+01
       25  1    1    2    0    0 -.17717804E+02 -.45169818E+03 -.10848374E+04 0.11818808E+04 0.12500000E+03 0.0000E+00 0.9000E+01
       -1  1    1    2    0  502 -.21090326E+02 0.33587358E+01 -.25908361E+03 0.25996250E+03 0.32000000E+00 0.0000E+00 0.9000E+01
       -2  1    1    2    0  503 0.75904082E+02 0.37194647E+03 0.13116875E+03 0.40163534E+03 0.32000000E+00 0.0000E+00 0.9000E+01
       21  1    1    2  503  501 -.37095952E+02 0.76392979E+02 0.29701133E+02 0.89970644E+02 0.75000000E+00 0.0000E+00 0.9000E+01
#aMCatNLO 2  0  0  5  1 0.13064313D+02 0.00000000D+00  -5  6  0 0.00000000D+00 0.00000000D+00 0.00000000D+00 0.00000000D+00 0.00000000D+00
  <mgrwgt>
 0.1071336782D-02    1    2    0
 0.764626763075867D+03 0.000000000000000D+00 0.000000000000000D+00 0.764626763075867D+03
 0.764626763075867D+03 -.000000000000000D+00 -.000000000000000D+00 -.764626763075867D+03
 0.658779280915559D+03 -.179213091854722D+02 -.454046472643152D+03 -.460310512937746D+03
 0.128823722588136D+03 -.211297729044665D+02 0.290026610474547D+01 -.127045947023084D+03
 0.741650522648038D+03 0.390510820899387D+02 0.451146206538406D+03 0.587356459960830D+03
 0.000000000000000D+00 0.000000000000000D+00 0.000000000000000D+00 0.000000000000000D+00
 0.764626763075867D+03 0.000000000000000D+00 0.000000000000000D+00 0.764626763075867D+03
 0.764626763075867D+03 -.000000000000000D+00 -.000000000000000D+00 -.764626763075867D+03
 0.655019497078583D+03 -.177180357664157D+02 -.451698111804232D+03 -.457253134001454D+03
 0.128238467362346D+03 -.210899997587332D+02 0.335975411018290D+01 -.126447730204774D+03
 0.609181844134173D+03 0.759263619765923D+02 0.371895908657985D+03 0.476477848281704D+03
 0.136813717576630D+03 -.371183264514435D+02 0.764424490360638D+02 0.107223015924524D+03
0.397845787039D-02 0.000000000000D+00 0.000000000000D+00 0.200802434426D-04 0.415141565558D-07  6 -1 -2 25 -1 -2 21 2 0.57722940D-01 0.23973080D+00 0.22796364D+06 0.22796364D+06 0.22796364D+06 0.10934868D+01  1  2  1  4  6  5       -2 0.107133678191D-02 0.100000000000D+01
  </mgrwgt>
  </event>
  <event>
  5     66 0.17222693E-05 0.50219094E+02 0.75467711E-02 0.84988287E-01
       -1 -1    0    0    0  501 0.00000000E+00 0.00000000E+00 0.11397898E+04 0.11397898E+04 0.32000000E+00 0.0000E+00 0.9000E+01
       -2 -1    0    0    0  502 0.00000000E+00 0.00000000E+00 -.96528195E+03 0.96528200E+03 0.32000000E+00 0.0000E+00 0.9000E+01
       25  1    1    2    0    0 -.38699002E+03 -.24010838E+03 0.69779143E+02 0.47739652E+03 0.12500000E+03 0.0000E+00 0.9000E+01
       -1  1    1    2    0  502 0.32979516E+02 0.37864218E+02 -.71256518E+03 0.71433226E+03 0.32000000E+00 0.0000E+00 0.9000E+01
       -2  1    1    2    0  501 0.35401050E+03 0.20224417E+03 0.81729385E+03 0.91334302E+03 0.32000000E+00 0.0000E+00 0.9000E+01
#aMCatNLO 1  0  0  1  5 0.20288789D+03 0.00000000D+00  -5  6  0 0.00000000D+00 0.00000000D+00 0.00000000D+00 0.00000000D+00 0.00000000D+00
  <mgrwgt>
 0.1136758973D-02    3    2    0
 0.104891304845694D+04 0.000000000000000D+00 0.000000000000000D+00 0.104891304845694D+04
 0.104891304845694D+04 0.000000000000000D+00 0.000000000000000D+00 -.104891304845694D+04
 0.473231735766286D+03 -.386975426424175D+03 -.240102253230775D+03 0.304007084408344D+02
 0.776128129978307D+03 0.329835710308658D+02 0.378687397175932D+02 -.774501721584838D+03
 0.848466231169288D+03 0.353991855393309D+03 0.202233513513181D+03 0.744101013144003D+03
 0.000000000000000D+00 0.000000000000000D+00 0.000000000000000D+00 -.000000000000000D+00
 0.168806270701254D+04 0.000000000000000D+00 0.000000000000000D+00 0.168806270701254D+04
 0.191457281966070D+04 0.000000000000000D+00 0.000000000000000D+00 -.191457281966070D+04
 0.748211274176781D+03 -.505744336828693D+03 -.536184271959971D+03 0.304007084408344D+02
 0.863179018379499D+03 -.126417008647321D+03 -.359504994342750D+03 -.774501721584838D+03
 0.793592130937835D+03 0.194323757168095D+03 -.195807124294797D+03 0.744101013144003D+03
 0.119765310317912D+04 0.437837588307918D+03 0.109149639059752D+04 -.226510112648160D+03
0.246450563355D-01 0.000000000000D+00 0.000000000000D+00 0.270933457551D-03 0.000000000000D+00  6 -1 -2 25 -1 -2 21 0 0.17535228D+00 0.14850492D+00 0.21629953D+06 0.21629953D+06 0.21629953D+06 0.10952217D+01  1  2  2  1  6  1       -1 0.179571662468D-02 0.100000000000D+01
0.104360440249D-01 0.000000000000D+00 -.946435055206D-04 0.270933457551D-03 0.000000000000D+00  6 -1 -2 25 -1 -2 21 2 0.17535228D+00 0.14850492D+00 0.21629953D+06 0.21629953D+06 0.21629953D+06 0.10952217D+01  1  2  3  1  6  1       -1 0.912111505023D-03 0.100000000000D+01
-.179755948685D-01 0.000000000000D+00 0.000000000000D+00 0.270933457551D-03 0.000000000000D+00  6 -1 -2 25 -1 -2 21 2 0.17535228D+00 0.14850492D+00 0.21629953D+06 0.21629953D+06 0.21629953D+06 0.10952217D+01  1  2 15  1  6  1       -1 -.157106915705D-02 0.100000000000D+01
  </mgrwgt>
  </event>
  <event>
  5     66 0.17222693E-05 0.53589652E+02 0.75467711E-02 0.93677511E-01
       -1 -1    0    0    0  501 0.00000000E+00 0.00000000E+00 0.10076550E+04 0.10076550E+04 0.32000000E+00 0.0000E+00 0.9000E+01
       -2 -1    0    0    0  502 0.00000000E+00 0.00000000E+00 -.38793064E+03 0.38793077E+03 0.32000000E+00 0.0000E+00 0.9000E+01
       25  1    1    2    0    0 -.25583410E+03 0.45711597E+03 0.37111579E+03 0.65403213E+03 0.12500000E+03 0.0000E+00 0.9000E+01
       -1  1    1    2    0  502 0.27226006E+03 -.40602492E+03 0.16802828E+01 0.48886062E+03 0.32000000E+00 0.0000E+00 0.9000E+01
       -2  1    1    2    0  501 -.16425966E+02 -.51091056E+02 0.24692827E+03 0.25269306E+03 0.32000000E+00 0.0000E+00 0.9000E+01
#aMCatNLO 1  0  0  5  1 0.13905015D+02 0.00000000D+00  -5  6  0 0.00000000D+00 0.00000000D+00 0.00000000D+00 0.00000000D+00 0.00000000D+00
  <mgrwgt>
 0.4854823565D-03    8    2    0
 0.625220258554383D+03 0.000000000000000D+00 0.000000000000000D+00 0.625220258554383D+03
 0.625220258554383D+03 -.000000000000000D+00 -.000000000000000D+00 -.625220258554383D+03
 0.546139430867420D+03 -.255917611612456D+03 0.457173209283898D+03 0.902336452096839D+02
 0.544884782630709D+03 0.272320013233204D+03 -.406155447771821D+03 -.240372604471586D+03
 0.159416303610636D+03 -.164024016207474D+02 -.510177615120763D+02 0.150138959261902D+03
 0.000000000000000D+00 0.000000000000000D+00 -.000000000000000D+00 0.000000000000000D+00
 0.625220258554383D+03 0.000000000000000D+00 0.000000000000000D+00 0.625220258554383D+03
 0.625220258554383D+03 -.000000000000000D+00 -.000000000000000D+00 -.625220258554383D+03
 0.546050521818788D+03 -.256063313573792D+03 0.456720020288338D+03 0.915673243466280D+02
 0.544563973654828D+03 0.272174676957059D+03 -.406607499346147D+03 -.239042272624590D+03
 0.118683267993942D+03 -.247445123105749D+02 -.319068392252674D+02 0.111603677461303D+03
 0.411427536412075D+02 0.863314892730752D+01 -.182056817169237D+02 0.358712708166590D+02
0.638465703702D-04 0.000000000000D+00 0.000000000000D+00 0.851184358121D-06 0.000000000000D+00  6 -1 -2 25 -1 -2 21 0 0.15502386D+00 0.59681651D-01 0.29226063D+06 0.29226063D+06 0.29226063D+06 0.10853927D+01  1  2  2  4  6  5       -2 0.585006214677D-04 0.100000000000D+01
0.138228628817D-04 0.000000000000D+00 -.245187641410D-06 0.851184358121D-06 0.000000000000D+00  6 -1 -2 25 -1 -2 21 2 0.15502386D+00 0.59681651D-01 0.29226063D+06 0.29226063D+06 0.29226063D+06 0.10853927D+01  1  2  3  4  6  5       -2 0.149208878449D-04 0.100000000000D+01
-.444781013289D-04 0.000000000000D+00 0.000000000000D+00 0.851184358121D-06 0.000000000000D+00  6 -1 -2 25 -1 -2 21 2 0.15502386D+00 0.59681651D-01 0.29226063D+06 0.29226063D+06 0.29226063D+06 0.10853927D+01  1  2 15  4  6  5       -2 -.480112381323D-04 0.100000000000D+01
0.365025869500D-07 0.000000000000D+00 0.000000000000D+00 0.851184358121D-06 0.000000000000D+00  6 -1 -2 25 -1 -2 21 2 0.15502386D+00 0.59681651D-01 0.29601148D+06 0.29601148D+06 0.29601148D+06 0.10849822D+01  1  2 12  4  6  5       -2 0.393468545706D-07 0.100000000000D+01
0.378078061553D-03 0.000000000000D+00 0.000000000000D+00 0.851184358121D-06 0.000000000000D+00  6 -1 -2 25 -1 -2 21 2 0.15502386D+00 0.59681651D-01 0.29601148D+06 0.29601148D+06 0.29601148D+06 0.10849822D+01  1  2 12  4  6  5       -2 0.407537759574D-03 0.100000000000D+01
-.240237914686D-03 0.000000000000D+00 0.000000000000D+00 0.851184358121D-06 0.000000000000D+00  6 -1 -2 25 -1 -2 21 2 0.15502386D+00 0.59681651D-01 0.29226063D+06 0.29226063D+06 0.29226063D+06 0.10853927D+01  1  2  4  4  6  5       -2 -.259321315114D-03 0.100000000000D+01
-.561833687171D-03 0.000000000000D+00 0.000000000000D+00 0.851184358121D-06 0.000000000000D+00  6 -1 -2 25 -1 -2 21 2 0.15502386D+00 0.59681651D-01 0.29226063D+06 0.29226063D+06 0.29226063D+06 0.10853927D+01  1  2  5  4  6  5       -2 -.606463183894D-03 0.100000000000D+01
0.850703486436D-03 0.000000000000D+00 -.000000000000D+00 0.851184358121D-06 0.000000000000D+00  6 -1 -2 25 -1 -2 21 2 0.15502386D+00 0.59681651D-01 0.29226063D+06 0.29226063D+06 0.29226063D+06 0.10853927D+01  1  2  6  4  6  5       -2 0.918279477921D-03 0.100000000000D+01
  </mgrwgt>
  </event>
  <event>
  5     66 0.17222693E-05 0.57506147E+02 0.75467711E-02 0.92118326E-01
       -1 -1    0    0    0  501 0.00000000E+00 0.00000000E+00 0.12000075E+04 0.12000075E+04 0.32000000E+00 0.0000E+00 0.9000E+01
       -2 -1    0    0    0  502 0.00000000E+00 0.00000000E+00 -.51086690E+03 0.51086700E+03 0.32000000E+00 0.0000E+00 0.9000E+01
       25  1    1    2    0    0 0.21398014E+03 0.51127779E+03 0.88377813E+01 0.56823902E+03 0.12500000E+03 0.0000E+00 0.9000E+01
       -1  1    1    2    0  502 -.21878805E+03 -.56861236E+03 0.17474911E+03 0.63381825E+03 0.32000000E+00 0.0000E+00 0.9000E+01
       -2  1    1    2    0  501 0.48079037E+01 0.57334563E+02 0.50555370E+03 0.50881727E+03 0.32000000E+00 0.0000E+00 0.9000E+01
#aMCatNLO 1  0  0  1  4 0.23844351D+02 0.00000000D+00  -5  6  0 0.00000000D+00 0.00000000D+00 0.00000000D+00 0.00000000D+00 0.00000000D+00
  <mgrwgt>
 0.1048799546D-02    9    4    0
 0.782971415778779D+03 0.000000000000000D+00 0.000000000000000D+00 0.782971415778779D+03
 0.782971415778779D+03 0.000000000000000D+00 0.000000000000000D+00 -.782971415778779D+03
 0.617035896438051D+03 0.214023431878837D+03 0.511394915186020D+03 -.240369525568026D+03
 0.615653630948932D+03 -.218828857829282D+03 -.568699930985512D+03 -.878846561056596D+02
 0.333253304170575D+03 0.480542595044552D+01 0.573050157994917D+02 0.328254181673685D+03
 0.000000000000000D+00 0.000000000000000D+00 0.000000000000000D+00 0.000000000000000D+00
 0.823368160892035D+03 0.000000000000000D+00 0.000000000000000D+00 0.823368160892035D+03
 0.786588659735669D+03 0.000000000000000D+00 0.000000000000000D+00 -.786588659735669D+03
 0.608985545720512D+03 0.208210081681191D+03 0.504092697785857D+03 -.240369525568026D+03
 0.624575110788079D+03 -.224709573902412D+03 -.576086767452376D+03 -.878846561056596D+02
 0.332563701510134D+03 0.164836255132976D+01 0.533393914172249D+02 0.328254181673685D+03
 0.438324626089803D+02 0.148511296698908D+02 0.186546782492932D+02 0.367795011563655D+02
 0.782971415778779D+03 0.000000000000000D+00 0.000000000000000D+00 0.782971415778779D+03
 0.782971415778779D+03 0.000000000000000D+00 0.000000000000000D+00 -.782971415778779D+03
 0.617035896438051D+03 0.214023431878837D+03 0.511394915186020D+03 -.240369525568026D+03
 0.000000000000000D+00 0.000000000000000D+00 0.000000000000000D+00 0.000000000000000D+00
 0.615653630948932D+03 -.218828857829282D+03 -.568699930985512D+03 -.878846561056596D+02
 0.333253304170575D+03 0.480542595044552D+01 0.573050157994917D+02 0.328254181673685D+03
 0.823368160892035D+03 0.000000000000000D+00 0.000000000000000D+00 0.823368160892035D+03
 0.786588659735669D+03 0.000000000000000D+00 0.000000000000000D+00 -.786588659735669D+03
 0.608985545720512D+03 0.208210081681191D+03 0.504092697785857D+03 -.240369525568026D+03
 0.438324626089803D+02 0.148511296698908D+02 0.186546782492932D+02 0.367795011563655D+02
 0.624575110788079D+03 -.224709573902412D+03 -.576086767452376D+03 -.878846561056596D+02
 0.332563701510134D+03 0.164836255132976D+01 0.533393914172249D+02 0.328254181673685D+03
0.580533159709D-03 0.000000000000D+00 0.000000000000D+00 0.115902646964D-05 0.000000000000D+00  6 -1 -2 25 -1 -2 21 0 0.18461655D+00 0.78594919D-01 0.38139685D+06 0.38139685D+06 0.38139685D+06 0.10769218D+01  1  2  2  1  6  1       -1 0.165770552205D-03 0.100000000000D+01
0.172576509772D-03 0.000000000000D+00 -.222940019117D-05 0.115902646964D-05 0.000000000000D+00  6 -1 -2 25 -1 -2 21 2 0.18461655D+00 0.78594919D-01 0.38139685D+06 0.38139685D+06 0.38139685D+06 0.10769218D+01  1  2  3  1  6  1       -1 0.571518616523D-04 0.100000000000D+01
-.400766282630D-03 0.000000000000D+00 0.000000000000D+00 0.115902646964D-05 0.000000000000D+00  6 -1 -2 25 -1 -2 21 2 0.18461655D+00 0.78594919D-01 0.38139685D+06 0.38139685D+06 0.38139685D+06 0.10769218D+01  1  2 15  1  6  1       -1 -.132721070614D-03 0.100000000000D+01
0.198353980865D-06 0.000000000000D+00 0.000000000000D+00 0.115902646964D-05 0.000000000000D+00  6 -1 -2 25 -1 -2 21 2 0.19508748D+00 0.78594919D-01 0.39382591D+06 0.39382591D+06 0.39382591D+06 0.10759150D+01  1  2 12  1  6  1       -1 0.537865367205D-07 0.100000000000D+01
-.171693596250D-03 0.000000000000D+00 0.000000000000D+00 0.115902646964D-05 0.000000000000D+00  6 -1 -2 25 -1 -2 21 2 0.18461655D+00 0.78594919D-01 0.38139685D+06 0.38139685D+06 0.38139685D+06 0.10769218D+01  1  2  4  1  6  1       -1 -.568594687218D-04 0.100000000000D+01
-.243505134007D-01 0.000000000000D+00 -.227787014751D-02 0.115902646964D-05 0.000000000000D+00  6 -1 -2 25 -1 -2 21 2 0.19453722D+00 0.78594919D-01 0.38139685D+06 0.38139685D+06 0.38139685D+06 0.10769218D+01  1  2  5  1  6  1       -1 -.669768735727D-02 0.100000000000D+01
0.244393733002D-01 0.000000000000D+00 0.227475331930D-02 0.115902646964D-05 0.000000000000D+00  6 -1 -2 25 -1 -2 21 2 0.18461655D+00 0.78594919D-01 0.38139685D+06 0.38139685D+06 0.38139685D+06 0.10769218D+01  1  2  6  1  6  1       -1 0.809354461722D-02 0.100000000000D+01
0.332908327854D-08 0.000000000000D+00 0.000000000000D+00 0.115902646964D-05 0.000000000000D+00  6 21 -2 25 1 -1 -2 2 0.19508748D+00 0.78594919D-01 0.39382591D+06 0.39382591D+06 0.39382591D+06 0.10759150D+01  3  4 12  5  4  1       -1 0.569803873285D-08 0.100000000000D+01
-.219105718828D-03 0.000000000000D+00 -.207011285001D-04 0.115902646964D-05 0.000000000000D+00  6 21 -2 25 1 -1 -2 2 0.19453722D+00 0.78594919D-01 0.38139685D+06 0.38139685D+06 0.38139685D+06 0.10769218D+01  3  4  5  5  4  1       -1 -.380459072595D-03 0.100000000000D+01
  </mgrwgt>
  </event>
  <event>
  5     66 0.17222693E-05 0.13073917E+03 0.75467711E-02 0.89883130E-01
       -1 -1    0    0    0  501 0.00000000E+00 0.00000000E+00 0.11606576E+04 0.11606576E+04 0.32000000E+00 0.0000E+00 0.9000E+01
       -2 -1    0    0    0  502 0.00000000E+00 0.00000000E+00 -.19330571E+04 0.19330571E+04 0.32000000E+00 0.0000E+00 0.9000E+01
       25  1    1    2    0    0 0.55498248E+02 -.50399132E+03 -.45996363E+03 0.69590146E+03 0.12500000E+03 0.0000E+00 0.9000E+01
       -1  1    1    2    0  502 0.11717454E+03 -.57980120E+02 -.12686281E+04 0.12753466E+04 0.32000000E+00 0.0000E+00 0.9000E+01
       -2  1    1    2    0  501 -.17267279E+03 0.56197144E+03 0.95619224E+03 0.11224667E+04 0.32000000E+00 0.0000E+00 0.9000E+01
#aMCatNLO 1  0  0  1  4 0.31907986D+01 0.00000000D+00  -5  6  0 0.00000000D+00 0.00000000D+00 0.00000000D+00 0.00000000D+00 0.00000000D+00
  <mgrwgt>
 0.7463172014D-03    7    4    0
 0.149787099183897D+04 0.000000000000000D+00 0.000000000000000D+00 0.149787099183897D+04
 0.149787099183897D+04 0.000000000000000D+00 0.000000000000000D+00 -.149787099183897D+04
 0.600047057384064D+03 0.554932052669009D+02 -.503987219174780D+03 -.295548402386061D+03
 0.989988289127726D+03 0.117178776830164D+03 -.579815910119355D+02 -.981317523523530D+03
 0.140570663716615D+04 -.172671982097065D+03 0.561968810186715D+03 0.127686592590959D+04
 0.000000000000000D+00 -.000000000000000D+00 -.000000000000000D+00 0.000000000000000D+00
 0.162515334340808D+04 0.000000000000000D+00 0.000000000000000D+00 0.162515334340808D+04
 0.162321403091584D+04 0.000000000000000D+00 0.000000000000000D+00 -.162321403091584D+04
 0.565171680721808D+03 0.716213704780334D+02 -.459690711052343D+03 -.295548402386061D+03
 0.992067863634015D+03 0.144613049936214D+03 0.173674946135308D+02 -.981317523523530D+03
 0.144832519329547D+04 -.133168414763141D+03 0.670466588350879D+03 0.127686592590959D+04
 0.242802636672627D+03 -.830660056511067D+02 -.228143371912067D+03 0.193931249224111D+01
 0.149787099183897D+04 0.000000000000000D+00 0.000000000000000D+00 0.149787099183897D+04
 0.149787099183897D+04 0.000000000000000D+00 0.000000000000000D+00 -.149787099183897D+04
 0.600047057384064D+03 0.554932052669009D+02 -.503987219174780D+03 -.295548402386061D+03
 0.000000000000000D+00 -.000000000000000D+00 -.000000000000000D+00 0.000000000000000D+00
 0.989988289127726D+03 0.117178776830164D+03 -.579815910119355D+02 -.981317523523530D+03
 0.140570663716615D+04 -.172671982097065D+03 0.561968810186715D+03 0.127686592590959D+04
 0.162515334340808D+04 0.000000000000000D+00 0.000000000000000D+00 0.162515334340808D+04
 0.162321403091584D+04 0.000000000000000D+00 0.000000000000000D+00 -.162321403091584D+04
 0.565171680721808D+03 0.716213704780334D+02 -.459690711052343D+03 -.295548402386061D+03
 0.242802636672627D+03 -.830660056511067D+02 -.228143371912067D+03 0.193931249224111D+01
 0.992067863634015D+03 0.144613049936214D+03 0.173674946135308D+02 -.981317523523530D+03
 0.144832519329547D+04 -.133168414763141D+03 0.670466588350879D+03 0.127686592590959D+04
0.585694998800D-01 0.000000000000D+00 0.000000000000D+00 0.375172414409D-04 0.000000000000D+00  6 -1 -2 25 -1 -2 21 0 0.17856271D+00 0.29739340D+00 0.38492826D+06 0.38492826D+06 0.38492826D+06 0.10766321D+01  1  2  2  1  6  1       -1 0.371664040438D-03 0.100000000000D+01
0.114307443449D-01 0.000000000000D+00 -.224922301243D-03 0.375172414409D-04 0.000000000000D+00  6 -1 -2 25 -1 -2 21 2 0.17856271D+00 0.29739340D+00 0.38492826D+06 0.38492826D+06 0.38492826D+06 0.10766321D+01  1  2  3  1  6  1       -1 0.840791336769D-04 0.100000000000D+01
-.409254284702D-01 0.000000000000D+00 0.000000000000D+00 0.375172414409D-04 0.000000000000D+00  6 -1 -2 25 -1 -2 21 2 0.17856271D+00 0.29739340D+00 0.38492826D+06 0.38492826D+06 0.38492826D+06 0.10766321D+01  1  2 15  1  6  1       -1 -.301028040458D-03 0.100000000000D+01
-.150879171534D-02 0.000000000000D+00 0.000000000000D+00 0.375172414409D-04 0.000000000000D+00  6 -1 -2 25 -1 -2 21 2 0.17856271D+00 0.29739340D+00 0.38492826D+06 0.38492826D+06 0.38492826D+06 0.10766321D+01  1  2  4  1  6  1       -1 -.110979562220D-04 0.100000000000D+01
-.213238896800D+00 0.000000000000D+00 -.885443293847D-01 0.375172414409D-04 0.000000000000D+00  6 -1 -2 25 -1 -2 21 2 0.20632384D+00 0.29739340D+00 0.38492826D+06 0.38492826D+06 0.38492826D+06 0.10766321D+01  1  2  5  1  6  1       -1 -.932849602248D-03 0.100000000000D+01
0.224601526218D+00 0.000000000000D+00 0.876278011983D-01 0.375172414409D-04 0.000000000000D+00  6 -1 -2 25 -1 -2 21 2 0.17856271D+00 0.29739340D+00 0.38492826D+06 0.38492826D+06 0.38492826D+06 0.10766321D+01  1  2  6  1  6  1       -1 0.165206229595D-02 0.100000000000D+01
-.414438017798D-02 0.000000000000D+00 -.195949707917D-02 0.375172414409D-04 0.000000000000D+00  6 21 -2 25 1 -1 -2 2 0.20632384D+00 0.29739340D+00 0.38492826D+06 0.38492826D+06 0.38492826D+06 0.10766321D+01  3  4  5  5  4  1       -1 -.116512669697D-03 0.100000000000D+01
  </mgrwgt>
  </event>
  <event>
  6     66 0.17222693E-05 0.42968907E+02 0.75467711E-02 0.92178387E-01
       -3 -1    0    0    0  501 0.00000000E+00 0.00000000E+00 0.21962869E+03 0.21962926E+03 0.50000000E+00 0.0000E+00 0.9000E+01
       21 -1    0    0  503  502 0.00000000E+00 0.00000000E+00 -.37005486E+04 0.37005487E+04 0.75000000E+00 0.0000E+00 0.9000E+01
       25  1    1    2    0    0 -.30942929E+03 0.53039515E+03 -.11632751E+04 0.13213249E+04 0.12500000E+03 0.0000E+00 0.9000E+01
        4  1    1    2  503    0 0.50248425E+01 -.17980702E+02 -.92118275E+03 0.92137322E+03 0.15500000E+01 0.0000E+00 0.9000E+01
       -3  1    1    2    0  502 -.41374260E+01 -.30776686E+02 -.95354292E+03 0.95404857E+03 0.50000000E+00 0.0000E+00 0.9000E+01
       -4  1    1    2    0  501 0.30854187E+03 -.48163776E+03 -.44291916E+03 0.72343127E+03 0.15500000E+01 0.0000E+00 0.9000E+01
#aMCatNLO 2  0  0  2  5 0.18669619D+02 0.00000000D+00  -5  6  0 0.00000000D+00 0.00000000D+00 0.00000000D+00 0.00000000D+00 0.00000000D+00
  <mgrwgt>
 0.2247926763D-04    2    2    0
 0.781061268214120D+03 0.000000000000000D+00 0.000000000000000D+00 0.781061268214120D+03
 0.781061268214120D+03 0.000000000000000D+00 0.000000000000000D+00 -.781061268214120D+03
 0.623099766582463D+03 -.307329470291218D+03 0.523083065787703D+03 -.675353395769756D+02
 0.000000000000000D+00 0.000000000000000D+00 -.000000000000000D+00 -.000000000000000D+00
 0.269675102666100D+03 -.327305458342312D+01 -.339065932966375D+02 -.267515029564102D+03
 0.669347667179677D+03 0.310602524874641D+03 -.489176472491065D+03 0.335050369141077D+03
 0.781453591149889D+03 0.000000000000000D+00 0.000000000000000D+00 0.781453591149889D+03
 0.104004012126330D+04 0.000000000000000D+00 0.000000000000000D+00 -.104004012126330D+04
 0.630153756198112D+03 -.309345053738840D+03 0.530295551637129D+03 -.675353395769756D+02
 0.259259615518684D+03 0.502484246014600D+01 -.179807019065091D+02 -.258586530113415D+03
 0.269314610662585D+03 -.413990133460068D+01 -.308047024104709D+02 -.267515029564102D+03
 0.662765730033811D+03 0.308460112613295D+03 -.481510147320149D+03 0.335050369141077D+03
-.491575369819D-08 0.000000000000D+00 0.000000000000D+00 0.575625507594D-05 0.000000000000D+00  6 -3 21 25 4 -3 -4 2 0.33772015D-01 0.56946358D+00 0.38944741D+06 0.38944741D+06 0.38944741D+06 0.10762657D+01  1  2 13  6  4  2       -4 -.646326433857D-10 0.100000000000D+01
0.170639915204D-02 0.000000000000D+00 0.000000000000D+00 0.575625507594D-05 0.633035838149D-08  6 -3 21 25 4 -3 -4 2 0.33788978D-01 0.56931354D+00 0.38944741D+06 0.38944741D+06 0.38944741D+06 0.10762657D+01  1  2  1  6  4  2       -4 0.224793322607D-04 0.100000000000D+01
  </mgrwgt>
  </event>
  <event>
  5     66 0.17222693E-05 0.25945960E+03 0.75467711E-02 0.89684600E-01
       -1 -1    0    0    0  501 0.00000000E+00 0.00000000E+00 0.15129713E+04 0.15129713E+04 0.32000000E+00 0.0000E+00 0.9000E+01
       -2 -1    0    0    0  502 0.00000000E+00 0.00000000E+00 -.28217057E+04 0.28217057E+04 0.32000000E+00 0.0000E+00 0.9000E+01
       25  1    1    2    0    0 -.35058437E+03 -.52390045E+03 0.40715997E+03 0.76077942E+03 0.12500000E+03 0.0000E+00 0.9000E+01
       -1  1    1    2    0  502 0.25990631E+03 -.84312671E+01 -.25592756E+04 0.25724529E+04 0.32000000E+00 0.0000E+00 0.9000E+01
       -2  1    1    2    0  501 0.90678063E+02 0.53233172E+03 0.84338119E+03 0.10014447E+04 0.32000000E+00 0.0000E+00 0.9000E+01
#aMCatNLO 1  0  0  1  4 0.12611950D+03 0.00000000D+00  -5  6  0 0.00000000D+00 0.00000000D+00 0.00000000D+00 0.00000000D+00 0.00000000D+00
  <mgrwgt>
 0.8225464246D-05    9    4    0
 0.206619451702577D+04 0.000000000000000D+00 0.000000000000000D+00 0.206619451702577D+04
 0.206619451702577D+04 0.000000000000000D+00 0.000000000000000D+00 -.206619451702577D+04
 0.927044131167476D+03 -.350596114102707D+03 -.523856501322698D+03 0.668163566748504D+03
 0.188788703888295D+04 0.259925591475626D+03 -.843095007990053D+01 -.186988905487973D+04
 0.131745786400111D+04 0.906705226270810D+02 0.532287451402599D+03 0.120172548813123D+04
 0.000000000000000D+00 -.000000000000000D+00 0.000000000000000D+00 0.000000000000000D+00
 0.238926677347359D+04 0.000000000000000D+00 0.000000000000000D+00 0.238926677347359D+04
 0.207950183177815D+04 0.000000000000000D+00 0.000000000000000D+00 -.207950183177815D+04
 0.936586101389434D+03 -.337273473651346D+03 -.548974113558126D+03 0.668163566748504D+03
 0.189271054482749D+04 0.286952166500627D+03 -.593850409005614D+02 -.186988905487973D+04
 0.130501650813892D+04 0.109417955751192D+03 0.496942299115395D+03 0.120172548813123D+04
 0.334455450895896D+03 -.590966486004735D+02 0.111416855343292D+03 0.309764941695443D+03
 0.206619451702577D+04 0.000000000000000D+00 0.000000000000000D+00 0.206619451702577D+04
 0.206619451702577D+04 0.000000000000000D+00 0.000000000000000D+00 -.206619451702577D+04
 0.927044131167476D+03 -.350596114102707D+03 -.523856501322698D+03 0.668163566748504D+03
 0.000000000000000D+00 -.000000000000000D+00 0.000000000000000D+00 0.000000000000000D+00
 0.188788703888295D+04 0.259925591475626D+03 -.843095007990053D+01 -.186988905487973D+04
 0.131745786400111D+04 0.906705226270810D+02 0.532287451402599D+03 0.120172548813123D+04
 0.238926677347359D+04 0.000000000000000D+00 0.000000000000000D+00 0.238926677347359D+04
 0.207950183177815D+04 0.000000000000000D+00 0.000000000000000D+00 -.207950183177815D+04
 0.936586101389434D+03 -.337273473651346D+03 -.548974113558126D+03 0.668163566748504D+03
 0.334455450895896D+03 -.590966486004735D+02 0.111416855343292D+03 0.309764941695443D+03
 0.189271054482749D+04 0.286952166500627D+03 -.593850409005614D+02 -.186988905487973D+04
 0.130501650813892D+04 0.109417955751192D+03 0.496942299115395D+03 0.120172548813123D+04
0.944780262501D-02 0.000000000000D+00 0.000000000000D+00 0.131738316107D-04 0.000000000000D+00  6 -1 -2 25 -1 -2 21 0 0.23276482D+00 0.43410857D+00 0.52030475D+06 0.52030475D+06 0.52030475D+06 0.10672907D+01  1  2  2  1  6  1       -1 0.226240282243D-05 0.100000000000D+01
0.118365299620D-02 0.000000000000D+00 -.362820497436D-04 0.131738316107D-04 0.000000000000D+00  6 -1 -2 25 -1 -2 21 2 0.23276482D+00 0.43410857D+00 0.52030475D+06 0.52030475D+06 0.52030475D+06 0.10672907D+01  1  2  3  1  6  1       -1 0.322870969994D-06 0.100000000000D+01
-.581293901696D-02 0.000000000000D+00 0.000000000000D+00 0.131738316107D-04 0.000000000000D+00  6 -1 -2 25 -1 -2 21 2 0.23276482D+00 0.43410857D+00 0.52030475D+06 0.52030475D+06 0.52030475D+06 0.10672907D+01  1  2 15  1  6  1       -1 -.158562455800D-05 0.100000000000D+01
0.226164586190D-08 0.000000000000D+00 0.000000000000D+00 0.131738316107D-04 0.000000000000D+00  6 -1 -2 25 -1 -2 21 2 0.26991626D+00 0.43410857D+00 0.62751275D+06 0.62751275D+06 0.62751275D+06 0.10616072D+01  1  2 12  1  6  1       -1 0.290127944264D-12 0.100000000000D+01
-.457312937055D-01 0.000000000000D+00 0.000000000000D+00 0.131738316107D-04 0.000000000000D+00  6 -1 -2 25 -1 -2 21 2 0.23276482D+00 0.43410857D+00 0.52030475D+06 0.52030475D+06 0.52030475D+06 0.10672907D+01  1  2  4  1  6  1       -1 -.124743545660D-04 0.100000000000D+01
-.168472502143D+00 0.000000000000D+00 -.130893323366D-01 0.131738316107D-04 0.000000000000D+00  6 -1 -2 25 -1 -2 21 2 0.26977672D+00 0.43410857D+00 0.52030475D+06 0.52030475D+06 0.52030475D+06 0.10672907D+01  1  2  5  1  6  1       -1 -.225184215153D-04 0.100000000000D+01
0.168705101420D+00 0.000000000000D+00 0.129480990661D-01 0.131738316107D-04 0.000000000000D+00  6 -1 -2 25 -1 -2 21 2 0.23276482D+00 0.43410857D+00 0.52030475D+06 0.52030475D+06 0.52030475D+06 0.10672907D+01  1  2  6  1  6  1       -1 0.460185374541D-04 0.100000000000D+01
0.510553817393D-10 0.000000000000D+00 0.000000000000D+00 0.131738316107D-04 0.000000000000D+00  6 21 -2 25 1 -1 -2 2 0.26991626D+00 0.43410857D+00 0.62751275D+06 0.62751275D+06 0.62751275D+06 0.10616072D+01  3  4 12  5  4  1       -1 0.500439005628D-13 0.100000000000D+01
-.370417540557D-02 0.000000000000D+00 -.294646525835D-03 0.131738316107D-04 0.000000000000D+00  6 21 -2 25 1 -1 -2 2 0.26977672D+00 0.43410857D+00 0.52030475D+06 0.52030475D+06 0.52030475D+06 0.10672907D+01  3  4  5  5  4  1       -1 -.379994670157D-05 0.100000000000D+01
  </mgrwgt>
  </event>
  <event>
  6     66 0.17222693E-05 0.59809478E+02 0.75467711E-02 0.94338119E-01
       -1 -1    0    0    0  501 0.00000000E+00 0.00000000E+00 0.97746139E+03 0.97746144E+03 0.32000000E+00 0.0000E+00 0.9000E+01
       -2 -1    0    0    0  502 -.00000000E+00 -.00000000E+00 -.10236251E+04 0.10236252E+04 0.32000000E+00 0.0000E+00 0.9000E+01
       25  1    1    2    0    0 0.18065403E+02 -.49113765E+03 -.61754814E+02 0.51086320E+03 0.12500000E+03 0.0000E+00 0.9000E+01
       -1  1    1    2    0  502 0.11961635E+02 0.51374626E+01 -.65219795E+03 0.65232795E+03 0.32000000E+00 0.0000E+00 0.9000E+01
       -2  1    1    2    0  503 -.76486641E+02 0.40697785E+03 0.53508604E+03 0.67660797E+03 0.32000000E+00 0.0000E+00 0.9000E+01
       21  1    1    2  503  501 0.46459603E+02 0.79022337E+02 0.13270297E+03 0.16128752E+03 0.75000000E+00 0.0000E+00 0.9000E+01
#aMCatNLO 2  0  0  5  2 0.50291679D+02 0.00000000D+00  -5  6  0 0.00000000D+00 0.00000000D+00 0.00000000D+00 0.00000000D+00 0.00000000D+00
  <mgrwgt>
 0.1924046478D-02    1    2    0
 0.100027704239463D+04 0.000000000000000D+00 0.000000000000000D+00 0.100027704239463D+04
 0.100027704239463D+04 -.000000000000000D+00 -.000000000000000D+00 -.100027704239463D+04
 0.511293854072361D+03 0.181567864770115D+02 -.492714505319517D+03 -.519533691375314D+02
 0.640629598627561D+03 0.120956751433913D+02 0.306574996138851D+01 -.640508062757768D+03
 0.848630632089336D+03 -.302524616204027D+02 0.489648755358128D+03 0.692461431895299D+03
 0.000000000000000D+00 0.000000000000000D+00 0.000000000000000D+00 0.000000000000000D+00
 0.100027704239463D+04 0.000000000000000D+00 0.000000000000000D+00 0.100027704239463D+04
 0.100027704239463D+04 -.000000000000000D+00 -.000000000000000D+00 -.100027704239463D+04
 0.509460217211863D+03 0.180544170630561D+02 -.491057613501623D+03 -.496101921802550D+02
 0.637706624694900D+03 0.119674733230891D+02 0.514075008974973D+01 -.637573596889440D+03
 0.688914756736737D+03 -.765000415668939D+02 0.406853495988975D+03 0.550655535240907D+03
 0.164472486145758D+03 0.464781511807486D+02 0.790633674228987D+02 0.136528253828788D+03
0.166083108212D-01 0.000000000000D+00 0.000000000000D+00 0.216379654768D-03 0.322755249032D-06  6 -1 -2 25 -1 -2 21 2 0.15037868D+00 0.15748080D+00 0.26304578D+06 0.26304578D+06 0.26304578D+06 0.10888011D+01  1  2  1  4  6  5       -2 0.192404647816D-02 0.100000000000D+01
  </mgrwgt>
  </event>
  <event>
  5     66 0.17222693E-05 0.16808584E+03 0.75467711E-02 0.95166748E-01
       -1 -1    0    0    0  501 0.00000000E+00 0.00000000E+00 0.16902629E+04 0.16902629E+04 0.32000000E+00 0.0000E+00 0.9000E+01
       -2 -1    0    0    0  502 0.00000000E+00 0.00000000E+00 -.45748434E+03 0.45748445E+03 0.32000000E+00 0.0000E+00 0.9000E+01
       25  1    1    2    0    0 -.21069485E+02 0.46187395E+03 0.11293396E+04 0.12267047E+04 0.12500000E+03 0.0000E+00 0.9000E+01
       -1  1    1    2    0  502 -.34270639E+02 -.16452157E+03 -.34290590E+03 0.38187221E+03 0.32000000E+00 0.0000E+00 0.9000E+01
       -2  1    1    2    0  501 0.55340124E+02 -.29735238E+03 0.44634488E+03 0.53917050E+03 0.32000000E+00 0.0000E+00 0.9000E+01
#aMCatNLO 1  0  0  5  1 0.27507345D+02 0.00000000D+00  -5  6  0 0.00000000D+00 0.00000000D+00 0.00000000D+00 0.00000000D+00 0.00000000D+00
  <mgrwgt>
 0.2484001073D-04    8    2    0
 0.879357124875858D+03 0.000000000000000D+00 0.000000000000000D+00 0.879357124875858D+03
 0.879357124875858D+03 -.000000000000000D+00 -.000000000000000D+00 -.879357124875858D+03
 0.706505980158294D+03 -.210345412118435D+02 0.461747534194272D+03 0.519492504990158D+03
 0.706823684543720D+03 -.342760288430328D+02 -.164553950097765D+03 -.686547064945976D+03
 0.345384585049702D+03 0.553105700548763D+02 -.297193584096507D+03 0.167054559955818D+03
 0.000000000000000D+00 0.000000000000000D+00 0.000000000000000D+00 0.000000000000000D+00
 0.879357124875858D+03 0.000000000000000D+00 0.000000000000000D+00 0.879357124875858D+03
 0.879357124875858D+03 -.000000000000000D+00 -.000000000000000D+00 -.879357124875858D+03
 0.705616164616407D+03 -.203514561901117D+02 0.458077196216383D+03 0.521555627239750D+03
 0.705652715239571D+03 -.335927724577322D+02 -.168225208842754D+03 -.684483425126857D+03
 0.302263894497321D+03 0.216718698164663D+02 -.265626288203658D+03 0.142605985114555D+03
 0.451814753984170D+02 0.322723588313776D+02 -.242256991699703D+02 0.203218127725521D+02
0.123556589104D-03 0.000000000000D+00 0.000000000000D+00 0.132982869404D-05 0.000000000000D+00  6 -1 -2 25 -1 -2 21 0 0.26004046D+00 0.70382217D-01 0.22525114D+06 0.22525114D+06 0.22525114D+06 0.10938814D+01  1  2  2  4  6  5       -2 0.112773004192D-04 0.100000000000D+01
0.123220475911D-04 0.000000000000D+00 -.474489835358D-06 0.132982869404D-05 0.000000000000D+00  6 -1 -2 25 -1 -2 21 2 0.26004046D+00 0.70382217D-01 0.22525114D+06 0.22525114D+06 0.22525114D+06 0.10938814D+01  1  2  3  4  6  5       -2 0.134574447962D-05 0.100000000000D+01
-.898114050368D-04 0.000000000000D+00 0.000000000000D+00 0.132982869404D-05 0.000000000000D+00  6 -1 -2 25 -1 -2 21 2 0.26004046D+00 0.70382217D-01 0.22525114D+06 0.22525114D+06 0.22525114D+06 0.10938814D+01  1  2 15  4  6  5       -2 -.980869467041D-05 0.100000000000D+01
0.506490314433D-08 0.000000000000D+00 0.000000000000D+00 0.132982869404D-05 0.000000000000D+00  6 -1 -2 25 -1 -2 21 2 0.26004046D+00 0.70382217D-01 0.22737191D+06 0.22737191D+06 0.22737191D+06 0.10935724D+01  1  2 12  4  6  5       -2 0.552455968480D-09 0.100000000000D+01
0.526548228285D-03 0.000000000000D+00 0.000000000000D+00 0.132982869404D-05 0.000000000000D+00  6 -1 -2 25 -1 -2 21 2 0.26004046D+00 0.70382217D-01 0.22737191D+06 0.22737191D+06 0.22737191D+06 0.10935724D+01  1  2 12  4  6  5       -2 0.574334203674D-04 0.100000000000D+01
-.492498040673D-03 0.000000000000D+00 0.000000000000D+00 0.132982869404D-05 0.000000000000D+00  6 -1 -2 25 -1 -2 21 2 0.26004046D+00 0.70382217D-01 0.22525114D+06 0.22525114D+06 0.22525114D+06 0.10938814D+01  1  2  4  4  6  5       -2 -.537878558381D-04 0.100000000000D+01
-.960207102967D-03 0.000000000000D+00 0.000000000000D+00 0.132982869404D-05 0.000000000000D+00  6 -1 -2 25 -1 -2 21 2 0.26004046D+00 0.70382217D-01 0.22525114D+06 0.22525114D+06 0.22525114D+06 0.10938814D+01  1  2  5  4  6  5       -2 -.104868399392D-03 0.100000000000D+01
0.112849581852D-02 0.000000000000D+00 -.000000000000D+00 0.132982869404D-05 0.000000000000D+00  6 -1 -2 25 -1 -2 21 2 0.26004046D+00 0.70382217D-01 0.22525114D+06 0.22525114D+06 0.22525114D+06 0.10938814D+01  1  2  6  4  6  5       -2 0.123247942911D-03 0.100000000000D+01
  </mgrwgt>
  </event>
  <event>
  5     66 -.17222693E-05 0.11807669E+02 0.75467711E-02 0.94962774E-01
       -1 -1    0    0    0  501 0.00000000E+00 0.00000000E+00 0.40231361E+03 0.40231373E+03 0.32000000E+00 0.0000E+00 0.9000E+01
       -2 -1    0    0    0  502 -.00000000E+00 -.00000000E+00 -.10770577E+04 0.10770578E+04 0.32000000E+00 0.0000E+00 0.9000E+01
       25  1    1    2    0    0 0.34077513E+03 -.31877681E+03 -.61290470E+03 0.78039959E+03 0.12500000E+03 0.0000E+00 0.9000E+01
       -1  1    1    2    0  502 -.11635331E+01 -.11755827E+02 -.20389082E+03 0.20423301E+03 0.32000000E+00 0.0000E+00 0.9000E+01
       -2  1    1    2    0  501 -.33961160E+03 0.33053264E+03 0.14205142E+03 0.49473889E+03 0.32000000E+00 0.0000E+00 0.9000E+01
#aMCatNLO 1  0  0  4  2 0.11484374D+01 0.00000000D+00  -5  6  0 0.00000000D+00 0.00000000D+00 0.00000000D+00 0.00000000D+00 0.00000000D+00
  <mgrwgt>
 -.1028176945D-03    5    2    0
 0.658266739006292D+03 0.000000000000000D+00 0.000000000000000D+00 0.658266739006292D+03
 0.658266739006292D+03 -.000000000000000D+00 -.000000000000000D+00 -.658266739006292D+03
 0.562861034495004D+03 0.340784552602873D+03 -.318791778725771D+03 -.288834268529384D+03
 0.124919505660427D+03 -.116334205781146D+01 -.117502201864828D+02 -.124360210096603D+03
 0.628752937857154D+03 -.339621210545062D+03 0.330541998912254D+03 0.413194478625986D+03
 0.000000000000000D+00 0.000000000000000D+00 0.000000000000000D+00 0.000000000000000D+00
 0.658266739006292D+03 0.000000000000000D+00 0.000000000000000D+00 0.658266739006292D+03
 0.658266739006292D+03 -.000000000000000D+00 -.000000000000000D+00 -.658266739006292D+03
 0.563942469837261D+03 0.340766557904660D+03 -.318973532376622D+03 -.290757885435872D+03
 0.122943378284007D+03 -.197528641328019D+01 -.123528688251091D+02 -.122305270284070D+03
 0.627250079844807D+03 -.339641268518943D+03 0.330339405351735D+03 0.411050299423346D+03
 0.239755004651034D+01 0.849997027562765D+00 0.986995849995967D+00 0.201285629659619D+01
0.379031029308D-03 0.000000000000D+00 0.000000000000D+00 0.132630043156D-04 0.000000000000D+00  6 -1 -2 25 -1 -2 21 0 0.61894414D-01 0.16570120D+00 0.23465783D+06 0.23465783D+06 0.23465783D+06 0.10925343D+01  1  2  2  3  6  4       -1 0.239813553882D-03 0.100000000000D+01
0.218929518948D-03 0.000000000000D+00 -.145557895370D-05 0.132630043156D-04 0.000000000000D+00  6 -1 -2 25 -1 -2 21 2 0.61894414D-01 0.16570120D+00 0.23465783D+06 0.23465783D+06 0.23465783D+06 0.10925343D+01  1  2  3  3  6  4       -1 0.165338305454D-03 0.100000000000D+01
-.271240290876D-03 0.000000000000D+00 0.000000000000D+00 0.132630043156D-04 0.000000000000D+00  6 -1 -2 25 -1 -2 21 2 0.61894414D-01 0.16570120D+00 0.23465783D+06 0.23465783D+06 0.23465783D+06 0.10925343D+01  1  2 15  3  6  4       -1 -.204844053374D-03 0.100000000000D+01
-.590332877954D-02 0.000000000000D+00 0.000000000000D+00 0.132630043156D-04 0.000000000000D+00  6 -1 -2 25 -1 -2 21 2 0.61894414D-01 0.16570120D+00 0.23465783D+06 0.23465783D+06 0.23465783D+06 0.10925343D+01  1  2  4  3  6  4       -1 -.445826758147D-02 0.100000000000D+01
0.550435690077D-02 0.000000000000D+00 0.000000000000D+00 0.132630043156D-04 0.352404473520D-04  6 -1 -2 25 -1 -2 21 2 0.61894414D-01 0.16570120D+00 0.23562040D+06 0.23562040D+06 0.23562040D+06 0.10923998D+01  1  2 11  3  6  4       -1 0.415514208102D-02 0.100000000000D+01
  </mgrwgt>
  </event>
  <event>
  6     66 0.17222693E-05 0.33471695E+02 0.75467711E-02 0.93638541E-01
       -1 -1    0    0    0  501 0.00000000E+00 0.00000000E+00 0.85097483E+03 0.85097489E+03 0.32000000E+00 0.0000E+00 0.9000E+01
       -2 -1    0    0    0  503 0.00000000E+00 0.00000000E+00 -.10162700E+04 0.10162700E+04 0.32000000E+00 0.0000E+00 0.9000E+01
       25  1    1    2    0    0 0.23947311E+03 0.43801017E+03 0.99929655E+01 0.51470879E+03 0.12500000E+03 0.0000E+00 0.9000E+01
       -1  1    1    2    0  502 -.22825436E+03 -.42888320E+03 -.11599827E+03 0.49949630E+03 0.32000000E+00 0.0000E+00 0.9000E+01
       -2  1    1    2    0  501 0.34726791E+02 0.16781012E+02 0.39440602E+03 0.39628747E+03 0.32000000E+00 0.0000E+00 0.9000E+01
       21  1    1    2  502  503 -.45945544E+02 -.25907987E+02 -.45369587E+03 0.45675236E+03 0.75000000E+00 0.0000E+00 0.9000E+01
#aMCatNLO 2  0  0  2  4 0.15364731D+02 0.00000000D+00  -5  6  0 0.00000000D+00 0.00000000D+00 0.00000000D+00 0.00000000D+00 0.00000000D+00
  <mgrwgt>
 0.8992657197D-03    1    2    0
 0.689842749375262D+03 0.000000000000000D+00 0.000000000000000D+00 0.689842749375262D+03
 0.689842749375262D+03 0.000000000000000D+00 0.000000000000000D+00 -.689842749375262D+03
 0.508005976185473D+03 0.222359826208579D+03 0.428425365722451D+03 -.972259509299355D+02
 0.550615261556854D+03 -.246361171685560D+03 -.439159824184524D+03 -.222759933936195D+03
 0.321064261008198D+03 0.240013454769809D+02 0.107344584620732D+02 0.319985884866131D+03
 0.000000000000000D+00 -.000000000000000D+00 -.000000000000000D+00 -.000000000000000D+00
 0.691588463698787D+03 0.000000000000000D+00 0.000000000000000D+00 0.691588463698787D+03
 0.125048305309052D+04 0.000000000000000D+00 0.000000000000000D+00 -.125048305309052D+04
 0.523827050485557D+03 0.239534327018841D+03 0.438109802978430D+03 -.972259509299355D+02
 0.534566695636025D+03 -.228298696535662D+03 -.428974671835154D+03 -.222759933936195D+03
 0.322299663820760D+03 0.347099135908707D+02 0.167728555686946D+02 0.319985884866131D+03
 0.561378106846964D+03 -.459455440740495D+02 -.259079867119703D+02 -.558894589391733D+03
0.529308560858D-02 0.000000000000D+00 0.000000000000D+00 0.927183973982D-05 0.199941880342D-07  6 -1 -2 25 -1 -2 21 2 0.13091917D+00 0.15634918D+00 0.29809622D+06 0.29809622D+06 0.29809622D+06 0.10847565D+01  1  2  1  2  6  2       -2 0.899265719705D-03 0.100000000000D+01
  </mgrwgt>
  </event>
  <event>
  5     66 0.17222693E-05 0.35721942E+02 0.75467711E-02 0.90284685E-01
       -1 -1    0    0    0  501 0.00000000E+00 0.00000000E+00 0.42621697E+03 0.42621709E+03 0.32000000E+00 0.0000E+00 0.9000E+01
       -2 -1    0    0    0  502 0.00000000E+00 0.00000000E+00 -.12191951E+04 0.12191951E+04 0.32000000E+00 0.0000E+00 0.9000E+01
       25  1    1    2    0    0 -.61933815E+03 -.30335443E+03 -.30225091E+03 0.76327208E+03 0.12500000E+03 0.0000E+00 0.9000E+01
       -1  1    1    2    0  502 0.63045202E+03 0.26914986E+03 -.49553706E+03 0.84585369E+03 0.32000000E+00 0.0000E+00 0.9000E+01
       -2  1    1    2    0  501 -.11113867E+02 0.34204569E+02 0.48098300E+01 0.36286464E+02 0.32000000E+00 0.0000E+00 0.9000E+01
#aMCatNLO 1  0  0  2  1 0.70303414D+02 0.00000000D+00  -5  6  0 0.00000000D+00 0.00000000D+00 0.00000000D+00 0.00000000D+00 0.00000000D+00
  <mgrwgt>
 0.3871332681D-05    7    4    0
 0.720861827609220D+03 0.000000000000000D+00 0.000000000000000D+00 0.720861827609220D+03
 0.720861827609220D+03 0.000000000000000D+00 0.000000000000000D+00 -.720861827609220D+03
 0.705008341522024D+03 -.619521127446824D+03 -.303286774072216D+03 0.749831110018784D+02
 0.692955474774297D+03 0.630559930374274D+03 0.269313226135568D+03 -.100258917082297D+03
 0.437598389221185D+02 -.110388029274504D+02 0.339735479366488D+02 0.252758060804181D+02
 0.000000000000000D+00 -.000000000000000D+00 0.000000000000000D+00 -.000000000000000D+00
 0.735186601452741D+03 0.000000000000000D+00 0.000000000000000D+00 0.735186601452741D+03
 0.813463402267665D+03 0.000000000000000D+00 0.000000000000000D+00 -.813463402267665D+03
 0.697726295815162D+03 -.597525754167740D+03 -.329450284629866D+03 0.749831110018784D+02
 0.703513102428374D+03 0.652457049622995D+03 0.243266588809761D+03 -.100258917082297D+03
 0.421973575610273D+02 -.969096380496372D+01 0.323702924399699D+02 0.252758060804181D+02
 0.105213247915843D+03 -.452403316502905D+02 0.538134033801355D+02 -.782768008149238D+02
 0.720861827609220D+03 0.000000000000000D+00 0.000000000000000D+00 0.720861827609220D+03
 0.720861827609220D+03 0.000000000000000D+00 0.000000000000000D+00 -.720861827609220D+03
 0.705008341522024D+03 -.619521127446824D+03 -.303286774072216D+03 0.749831110018784D+02
 0.000000000000000D+00 -.000000000000000D+00 0.000000000000000D+00 -.000000000000000D+00
 0.692955474774297D+03 0.630559930374274D+03 0.269313226135568D+03 -.100258917082297D+03
 0.437598389221185D+02 -.110388029274504D+02 0.339735479366488D+02 0.252758060804181D+02
 0.735186601452741D+03 0.000000000000000D+00 0.000000000000000D+00 0.735186601452741D+03
 0.813463402267665D+03 0.000000000000000D+00 0.000000000000000D+00 -.813463402267665D+03
 0.697726295815162D+03 -.597525754167740D+03 -.329450284629866D+03 0.749831110018784D+02
 0.105213247915843D+03 -.452403316502905D+02 0.538134033801355D+02 -.782768008149238D+02
 0.703513102428374D+03 0.652457049622995D+03 0.243266588809761D+03 -.100258917082297D+03
 0.421973575610273D+02 -.969096380496372D+01 0.323702924399699D+02 0.252758060804181D+02
0.302993004219D-05 0.000000000000D+00 0.000000000000D+00 0.184731324157D-07 0.000000000000D+00  6 -1 -2 25 -1 -2 21 0 0.65571854D-01 0.18756849D+00 0.50580235D+06 0.50580235D+06 0.50580235D+06 0.10681564D+01  1  2  2  2  6  2       -2 0.114645810264D-05 0.100000000000D+01
0.906438030365D-06 0.000000000000D+00 -.116357291609D-07 0.184731324157D-07 0.000000000000D+00  6 -1 -2 25 -1 -2 21 2 0.65571854D-01 0.18756849D+00 0.50580235D+06 0.50580235D+06 0.50580235D+06 0.10681564D+01  1  2  3  2  6  2       -2 0.391321247538D-06 0.100000000000D+01
-.197468144450D-05 0.000000000000D+00 0.000000000000D+00 0.184731324157D-07 0.000000000000D+00  6 -1 -2 25 -1 -2 21 2 0.65571854D-01 0.18756849D+00 0.50580235D+06 0.50580235D+06 0.50580235D+06 0.10681564D+01  1  2 15  2  6  2       -2 -.852496012376D-06 0.100000000000D+01
-.112154820694D-05 0.000000000000D+00 0.000000000000D+00 0.184731324157D-07 0.000000000000D+00  6 -1 -2 25 -1 -2 21 2 0.65571854D-01 0.18756849D+00 0.50580235D+06 0.50580235D+06 0.50580235D+06 0.10681564D+01  1  2  4  2  6  2       -2 -.484187146623D-06 0.100000000000D+01
-.339921432565D-04 0.000000000000D+00 -.490361292018D-05 0.184731324157D-07 0.000000000000D+00  6 -1 -2 25 -1 -2 21 2 0.65571854D-01 0.21356265D+00 0.50580235D+06 0.50580235D+06 0.50580235D+06 0.10681564D+01  1  2  5  2  6  2       -2 -.972805048655D-05 0.100000000000D+01
0.343796163220D-04 0.000000000000D+00 0.486260146528D-05 0.184731324157D-07 0.000000000000D+00  6 -1 -2 25 -1 -2 21 2 0.65571854D-01 0.18756849D+00 0.50580235D+06 0.50580235D+06 0.50580235D+06 0.10681564D+01  1  2  6  2  6  2       -2 0.148421336024D-04 0.100000000000D+01
-.662435542501D-06 0.000000000000D+00 -.993383484277D-07 0.184731324157D-07 0.000000000000D+00  6 -1 21 25 2 -1 -2 2 0.65571854D-01 0.21356265D+00 0.50580235D+06 0.50580235D+06 0.50580235D+06 0.10681564D+01  3  4  5  6  4  2       -2 -.144384662578D-05 0.100000000000D+01
  </mgrwgt>
  </event>
  <event>
  6     66 0.17222693E-05 0.91782334E+02 0.75467711E-02 0.91709040E-01
       -1 -1    0    0    0  501 0.00000000E+00 0.00000000E+00 0.34000907E+03 0.34000922E+03 0.32000000E+00 0.0000E+00 0.9000E+01
       21 -1    0    0  503  502 0.00000000E+00 0.00000000E+00 -.27049064E+04 0.27049065E+04 0.75000000E+00 0.0000E+00 0.9000E+01
       25  1    1    2    0    0 0.66646580E+02 -.55240004E+03 -.11912868E+03 0.58258409E+03 0.12500000E+03 0.0000E+00 0.9000E+01
        2  1    1    2  503    0 -.11679147E+02 0.86294809E+01 -.10209578E+03 0.10312381E+03 0.32000000E+00 0.0000E+00 0.9000E+01
       -1  1    1    2    0  502 0.76787331E+02 -.62533626E+02 -.13411827E+04 0.13448338E+04 0.32000000E+00 0.0000E+00 0.9000E+01
       -2  1    1    2    0  501 -.13175476E+03 0.60630419E+03 -.80249009E+03 0.10143740E+04 0.32000000E+00 0.0000E+00 0.9000E+01
#aMCatNLO 2  0  0  2  5 0.14521378D+02 0.00000000D+00  -5  6  0 0.00000000D+00 0.00000000D+00 0.00000000D+00 0.00000000D+00 0.00000000D+00
  <mgrwgt>
 0.3072025817D-04    2    2    0
 0.939901304900951D+03 0.000000000000000D+00 0.000000000000000D+00 0.939901304900951D+03
 0.939901304900951D+03 0.000000000000000D+00 0.000000000000000D+00 -.939901304900951D+03
 0.765354479042357D+03 0.618516531002388D+02 -.548782527870810D+03 0.514931634979528D+03
 0.000000000000000D+00 -.000000000000000D+00 0.000000000000000D+00 -.000000000000000D+00
 0.489489381021497D+03 0.737552656087071D+02 -.602930379477604D+02 -.480129945434387D+03
 0.624958749738047D+03 -.135606918708946D+03 0.609075565818571D+03 -.348016895451411D+02
 0.941351797102208D+03 0.000000000000000D+00 0.000000000000000D+00 0.941351797102208D+03
 0.976990519253386D+03 0.000000000000000D+00 0.000000000000000D+00 -.976990519253386D+03
 0.768280855317921D+03 0.666157929497242D+02 -.552302652605459D+03 0.514931634979528D+03
 0.384836189454377D+02 -.116791468303830D+02 0.862948085826315D+01 -.356387221511781D+02
 0.490239007857163D+03 0.767987290413464D+02 -.625417903451923D+02 -.480129945434387D+03
 0.621338834235073D+03 -.131735375160688D+03 0.606214962092388D+03 -.348016895451411D+02
-.453113106169D-08 0.000000000000D+00 0.000000000000D+00 0.329847563052D-06 0.000000000000D+00  6 -1 21 25 2 -1 -2 2 0.52228469D-01 0.41712736D+00 0.42517182D+06 0.42517182D+06 0.42517182D+06 0.10735221D+01  1  2 13  6  4  2       -2 -.646100643275D-09 0.100000000000D+01
0.212639659805D-03 0.000000000000D+00 0.000000000000D+00 0.329847563052D-06 0.187530591020D-09  6 -1 21 25 2 -1 -2 2 0.52309070D-01 0.41613917D+00 0.42517182D+06 0.42517182D+06 0.42517182D+06 0.10735221D+01  1  2  1  6  4  2       -2 0.307209042673D-04 0.100000000000D+01
  </mgrwgt>
  </event>
</LesHouchesEvents>
