<LesHouchesEvents version="3.0">
  <!--
  <scalesfunctionalform>
    muR  H_T/2 := sum_i mT(i)/2, i=final state
    muF1 H_T/2 := sum_i mT(i)/2, i=final state
    muF2 H_T/2 := sum_i mT(i)/2, i=final state
    QES  H_T/2 := sum_i mT(i)/2, i=final state
  </scalesfunctionalform>
HERWIG6   
  -->
  <header>
       52
  </header>
  <init>
   2212   2212 0.65000000D+04 0.65000000D+04 -1 -1   247000   247000 -3   1
 0.84812389D-02 0.18729234D-03 0.38788253D-03     66
  </init>
  <event>
  6     66 -.38788253E-03 0.22779660E+02 0.75467711E-02 0.12189065E+00
       -1 -1    0    0    0  503 0.00000000E+00 0.00000000E+00 0.11449263E+04 0.11449264E+04 0.32000000E+00 0.0000E+00 0.9000E+01
       21 -1    0    0  501  502 0.00000000E+00 0.00000000E+00 -.21499380E+02 0.21512457E+02 0.75000000E+00 0.0000E+00 0.9000E+01
       25  1    1    2    0    0 -.31964037E+02 -.21196909E+02 0.56496250E+03 0.57989536E+03 0.12500000E+03 0.0000E+00 0.9000E+01
       23  1    1    2    0    0 0.45669176E+02 -.12186784E+02 0.48373343E+03 0.49451741E+03 0.91188000E+02 0.0000E+00 0.9000E+01
       -1  1    1    2    0  502 -.15713487E+02 0.23161071E+02 0.15729525E+02 0.32107152E+02 0.32000000E+00 0.0000E+00 0.9000E+01
       21  1    1    2  501  503 0.20083475E+01 0.10222622E+02 0.59001491E+02 0.59918894E+02 0.75000000E+00 0.0000E+00 0.9000E+01
#aMCatNLO 2  0  0  1  2 0.10418035D+02 0.00000000D+00  -5  6  0 0.00000000D+00 0.00000000D+00 0.00000000D+00 0.00000000D+00 0.00000000D+00
  <mgrwgt>
 -.2220691565D-01    3    2    0
 0.151059820834248D+03 0.000000000000000D+00 0.000000000000000D+00 0.151059820834248D+03
 0.151059820834248D+03 0.000000000000000D+00 0.000000000000000D+00 -.151059820834248D+03
 0.132478808827522D+03 -.310807303106334D+02 -.167014048655478D+02 0.260899610431665D+02
 0.106786744056373D+03 0.463790527768202D+02 -.857393899578707D+01 0.293875551174765D+02
 0.628540887846015D+02 -.152983224661868D+02 0.252753438613348D+02 -.554775161606431D+02
 0.000000000000000D+00 0.000000000000000D+00 0.000000000000000D+00 0.000000000000000D+00
 0.159416860999037D+03 0.000000000000000D+00 0.000000000000000D+00 0.159416860999037D+03
 0.154431694307889D+03 0.000000000000000D+00 0.000000000000000D+00 -.154431694307889D+03
 0.133329274092313D+03 -.319639506106190D+02 -.211970546093335D+02 0.260899610431665D+02
 0.106832019390834D+03 0.456692458128562D+02 -.121869033895332D+02 0.293875551174765D+02
 0.621379181185117D+02 -.157136427101015D+02 0.231613363502136D+02 -.554775161606431D+02
 0.115493437052668D+02 0.200834750786430D+01 0.102226216486531D+02 0.498516669114785D+01
-.108249602121D-04 0.000000000000D+00 0.000000000000D+00 0.143513267005D-05 0.000000000000D+00  6 -1 21 25 23 -1 21 4 0.17791819D+00 0.32361134D-02 0.18478181D+05 0.18478181D+05 0.18478181D+05 0.12376280D+01  1  2 13  1  6  1       -1 -.319554988377D-01 0.100000000000D+01
-.641130041231D-06 0.000000000000D+00 0.000000000000D+00 0.144338039335D-05 0.000000000000D+00  6 -1 21 25 23 -1 21 4 0.16689660D+00 0.32361134D-02 0.17173103D+05 0.17173103D+05 0.17173103D+05 0.12411792D+01  1  2  8  1  6  1       -1 -.228643111355D-02 0.100000000000D+01
0.410914635758D-05 0.000000000000D+00 0.000000000000D+00 0.144338039335D-05 0.113182644024D-06  6 -1 21 25 23 -1 21 4 0.17612977D+00 0.33083481D-02 0.18478181D+05 0.18478181D+05 0.18478181D+05 0.12376280D+01  1  2  1  1  6  1       -1 0.120350143019D-01 0.100000000000D+01
  </mgrwgt>
  </event>
  <event>
  5     66 -.38788253E-03 0.23332324E+02 0.75467711E-02 0.11566054E+00
       -1 -1    0    0    0  501 0.00000000E+00 0.00000000E+00 0.59956605E+03 0.59956613E+03 0.32000000E+00 0.0000E+00 0.9000E+01
       21 -1    0    0  501  502 0.00000000E+00 0.00000000E+00 -.60542022E+02 0.60546667E+02 0.75000000E+00 0.0000E+00 0.9000E+01
       25  1    1    2    0    0 -.58705822E+02 -.64601304E+02 0.37647215E+03 0.40617236E+03 0.12500000E+03 0.0000E+00 0.9000E+01
       23  1    1    2    0    0 0.57617908E+02 0.41294460E+02 0.18722217E+03 0.21998284E+03 0.91188000E+02 0.0000E+00 0.9000E+01
       -1  1    1    2    0  502 0.10879139E+01 0.23306844E+02 -.24670302E+02 0.33957602E+02 0.32000000E+00 0.0000E+00 0.9000E+01
#aMCatNLO 1  0  0  2  2 0.86590119D+02 0.00000000D+00  -5  6  0 0.00000000D+00 0.00000000D+00 0.00000000D+00 0.00000000D+00 0.00000000D+00
  <mgrwgt>
 -.1654723962D-01   12    4    0
 0.190526906328745D+03 0.000000000000000D+00 0.000000000000000D+00 0.190526906328745D+03
 0.190526906328745D+03 0.000000000000000D+00 0.000000000000000D+00 -.190526906328745D+03
 0.171083676162236D+03 -.587058248086482D+02 -.646013653783836D+02 0.776203193369486D+02
 0.116246675464924D+03 0.576179061388574D+02 0.412944186290770D+02 0.131524178350491D+02
 0.937234610303294D+02 0.108791866979080D+01 0.233069467493067D+02 -.907727371719977D+02
 0.000000000000000D+00 0.000000000000000D+00 0.000000000000000D+00 -.000000000000000D+00
 0.205310299482588D+03 0.000000000000000D+00 0.000000000000000D+00 0.205310299482588D+03
 0.384224870780085D+03 0.000000000000000D+00 0.000000000000000D+00 -.384224870780085D+03
 0.195268735882161D+03 -.874041408185246D+02 -.940238342486780D+02 0.776203193369486D+02
 0.103350723161218D+03 0.404156840883688D+02 0.236581279628857D+02 0.131524178350491D+02
 0.921488314129750D+02 -.134724379994910D+02 0.837918441318586D+01 -.907727371719977D+02
 0.198766879806319D+03 0.604608947296469D+02 0.619865218726064D+02 -.178914571297497D+03
 0.190526906328745D+03 0.000000000000000D+00 0.000000000000000D+00 0.190526906328745D+03
 0.190526906328745D+03 0.000000000000000D+00 0.000000000000000D+00 -.190526906328745D+03
 0.171083676162236D+03 -.587058248086482D+02 -.646013653783836D+02 0.776203193369486D+02
 0.116246675464924D+03 0.576179061388574D+02 0.412944186290770D+02 0.131524178350491D+02
 0.000000000000000D+00 0.000000000000000D+00 0.000000000000000D+00 -.000000000000000D+00
 0.937234610303294D+02 0.108791866979080D+01 0.233069467493067D+02 -.907727371719977D+02
 0.205310299482588D+03 0.000000000000000D+00 0.000000000000000D+00 0.205310299482588D+03
 0.384224870780085D+03 0.000000000000000D+00 0.000000000000000D+00 -.384224870780085D+03
 0.195268735882161D+03 -.874041408185246D+02 -.940238342486780D+02 0.776203193369486D+02
 0.103350723161218D+03 0.404156840883688D+02 0.236581279628857D+02 0.131524178350491D+02
 0.198766879806319D+03 0.604608947296469D+02 0.619865218726064D+02 -.178914571297497D+03
 0.921488314129750D+02 -.134724379994910D+02 0.837918441318586D+01 -.907727371719977D+02
0.652854864414D-05 0.000000000000D+00 0.000000000000D+00 0.243432231676D-05 0.000000000000D+00  6 -1 21 25 23 -1 21 2 0.92241294D-01 0.93145211D-02 0.21213153D+05 0.21213153D+05 0.21213153D+05 0.12310203D+01  1  2  2  2  6  2       21 0.103110672753D-01 0.100000000000D+01
0.129179554680D-05 0.344520977131D-06 -.131792587543D-07 0.243432231676D-05 0.000000000000D+00  6 -1 21 25 23 -1 21 4 0.92241294D-01 0.93145211D-02 0.21213153D+05 0.21213153D+05 0.21213153D+05 0.12310203D+01  1  2  3  2  6  2       21 0.309179871827D-02 0.100000000000D+01
0.464919621904D-06 0.000000000000D+00 0.000000000000D+00 0.243432231676D-05 0.000000000000D+00  6 -1 21 25 23 -1 21 4 0.92241294D-01 0.93145211D-02 0.21213153D+05 0.21213153D+05 0.21213153D+05 0.12310203D+01  1  2 15  2  6  2       21 0.111274411393D-02 0.100000000000D+01
-.448071840620D-04 0.000000000000D+00 -.977604757395D-05 0.243432231676D-05 0.000000000000D+00  6 -1 21 25 23 -1 21 4 0.92241294D-01 0.20042939D-01 0.21213153D+05 0.21213153D+05 0.21213153D+05 0.12310203D+01  1  2  5  2  6  2       21 -.270656525378D-01 0.100000000000D+01
-.112763097560D-04 0.000000000000D+00 -.265080667468D-05 0.243432231676D-05 0.000000000000D+00  6 -1 -1 25 23 -1 -1 4 0.92241294D-01 0.20042939D-01 0.21213153D+05 0.21213153D+05 0.21213153D+05 0.12310203D+01  1  2  5  5  6  2       21 -.533443826052D-03 0.100000000000D+01
-.112763097560D-04 0.000000000000D+00 -.265080667468D-05 0.243432231676D-05 0.000000000000D+00  6 -1 1 25 23 1 -1 4 0.92241294D-01 0.20042939D-01 0.21213153D+05 0.21213153D+05 0.21213153D+05 0.12310203D+01  3  4  5  6  5  2       21 -.802891434788D-03 0.100000000000D+01
-.112763097560D-04 0.000000000000D+00 -.265080667468D-05 0.243432231676D-05 0.000000000000D+00  6 -1 -2 25 23 -1 -2 4 0.92241294D-01 0.20042939D-01 0.21213153D+05 0.21213153D+05 0.21213153D+05 0.12310203D+01  1  2  5  7  6  2       21 -.487790241756D-03 0.100000000000D+01
-.112763097560D-04 0.000000000000D+00 -.265080667468D-05 0.243432231676D-05 0.000000000000D+00  6 -1 -4 25 23 -1 -4 4 0.92241294D-01 0.20042939D-01 0.21213153D+05 0.21213153D+05 0.21213153D+05 0.12310203D+01  1  2  5  7  6  2       21 -.271790352641D-03 0.100000000000D+01
-.112763097560D-04 0.000000000000D+00 -.265080667468D-05 0.243432231676D-05 0.000000000000D+00  6 -1 2 25 23 2 -1 4 0.92241294D-01 0.20042939D-01 0.21213153D+05 0.21213153D+05 0.21213153D+05 0.12310203D+01  3  4  5  8  5  2       21 -.992184035924D-03 0.100000000000D+01
-.112763097560D-04 0.000000000000D+00 -.265080667468D-05 0.243432231676D-05 0.000000000000D+00  6 -1 4 25 23 4 -1 4 0.92241294D-01 0.20042939D-01 0.21213153D+05 0.21213153D+05 0.21213153D+05 0.12310203D+01  3  4  5  8  5  2       21 -.271790352641D-03 0.100000000000D+01
-.112763097560D-04 0.000000000000D+00 -.265080667468D-05 0.243432231676D-05 0.000000000000D+00  6 -1 -3 25 23 -1 -3 4 0.92241294D-01 0.20042939D-01 0.21213153D+05 0.21213153D+05 0.21213153D+05 0.12310203D+01  1  2  5  9  6  2       21 -.318668145649D-03 0.100000000000D+01
-.112763097560D-04 0.000000000000D+00 -.265080667468D-05 0.243432231676D-05 0.000000000000D+00  6 -1 3 25 23 3 -1 4 0.92241294D-01 0.20042939D-01 0.21213153D+05 0.21213153D+05 0.21213153D+05 0.12310203D+01  3  4  5 10  5  2       21 -.318638800867D-03 0.100000000000D+01
  </mgrwgt>
  </event>
  <event>
  5     66 -.38788253E-03 0.45953921E+02 0.75467711E-02 0.11865782E+00
       -1 -1    0    0    0  501 0.00000000E+00 0.00000000E+00 0.36265222E+03 0.36265236E+03 0.32000000E+00 0.0000E+00 0.9000E+01
       21 -1    0    0  501  502 0.00000000E+00 0.00000000E+00 -.12209359E+03 0.12209590E+03 0.75000000E+00 0.0000E+00 0.9000E+01
       25  1    1    2    0    0 -.99025667E+02 -.44662671E+02 0.27650616E+03 0.32230652E+03 0.12500000E+03 0.0000E+00 0.9000E+01
       23  1    1    2    0    0 0.53571032E+02 0.37910486E+02 -.22745077E+02 0.11462831E+03 0.91188000E+02 0.0000E+00 0.9000E+01
       -1  1    1    2    0  502 0.45454635E+02 0.67521855E+01 -.13202461E+02 0.47813421E+02 0.32000000E+00 0.0000E+00 0.9000E+01
#aMCatNLO 1  0  0  5  2 0.92683967D+00 0.00000000D+00  -5  6  0 0.00000000D+00 0.00000000D+00 0.00000000D+00 0.00000000D+00 0.00000000D+00
  <mgrwgt>
 -.4605929816D-01    8    2    0
 0.210423632220406D+03 0.000000000000000D+00 0.000000000000000D+00 0.210423632220406D+03
 0.210423632220406D+03 -.000000000000000D+00 -.000000000000000D+00 -.210423632220406D+03
 0.213193069002341D+03 -.990259677145853D+02 -.446627157160353D+02 0.134258646699926D+03
 0.145034358389757D+03 0.535708270984695D+02 0.379104551970621D+02 -.917206500209518D+02
 0.626198370487131D+02 0.454551406161158D+02 0.675226051897328D+01 -.425379966789743D+02
 0.000000000000000D+00 0.000000000000000D+00 0.000000000000000D+00 -.000000000000000D+00
 0.210423632220406D+03 0.000000000000000D+00 0.000000000000000D+00 0.210423632220406D+03
 0.210423632220406D+03 -.000000000000000D+00 -.000000000000000D+00 -.210423632220406D+03
 0.213107240236529D+03 -.989468491566705D+02 -.446509628293940D+02 0.134184605680402D+03
 0.145088213085909D+03 0.536246719561349D+02 0.379184537314772D+02 -.917710393134610D+02
 0.216855515376007D+01 0.205358684047647D+01 -.283699369297681D-01 -.696137694856060D+00
 0.604832559646133D+02 0.432685903600591D+02 0.676087903484657D+01 -.417174286720850D+02
0.269562943704D-05 0.000000000000D+00 0.000000000000D+00 0.177592564582D-06 0.000000000000D+00  6 -1 21 25 23 -1 21 2 0.55792837D-01 0.18783818D-01 0.26229510D+05 0.26229510D+05 0.26229510D+05 0.12210685D+01  1  2  2  3  6  5       -1 0.324423098896D-02 0.100000000000D+01
0.105750486303D-07 0.142252273553D-06 -.544169918811D-08 0.177592564582D-06 0.000000000000D+00  6 -1 21 25 23 -1 21 4 0.55792837D-01 0.18783818D-01 0.26229510D+05 0.26229510D+05 0.26229510D+05 0.12210685D+01  1  2  3  3  6  5       -1 0.189764091319D-04 0.100000000000D+01
0.206891874500D-06 0.000000000000D+00 0.000000000000D+00 0.177592564582D-06 0.000000000000D+00  6 -1 21 25 23 -1 21 4 0.55792837D-01 0.18783818D-01 0.26229510D+05 0.26229510D+05 0.26229510D+05 0.12210685D+01  1  2 15  3  6  5       -1 0.371257380824D-03 0.100000000000D+01
0.140355478962D-10 0.000000000000D+00 0.000000000000D+00 0.177603262289D-06 0.000000000000D+00  6 -1 21 25 23 -1 21 4 0.55792837D-01 0.18783818D-01 0.26208685D+05 0.26208685D+05 0.26208685D+05 0.12211053D+01  1  2 12  3  6  5       -1 0.251893856906D-07 0.100000000000D+01
-.376910676345D-04 0.000000000000D+00 0.000000000000D+00 0.177592564582D-06 0.000000000000D+00  6 -1 21 25 23 -1 21 4 0.55792837D-01 0.18783818D-01 0.26229510D+05 0.26229510D+05 0.26229510D+05 0.12210685D+01  1  2  4  3  6  5       -1 -.676347830685D-01 0.100000000000D+01
-.282285907340D-05 0.000000000000D+00 0.000000000000D+00 0.177592564582D-06 0.000000000000D+00  6 -1 21 25 23 -1 21 4 0.55792837D-01 0.18783818D-01 0.26229510D+05 0.26229510D+05 0.26229510D+05 0.12210685D+01  1  2  5  3  6  5       -1 -.506548296572D-02 0.100000000000D+01
0.846543435018D-05 0.000000000000D+00 -.000000000000D+00 0.177592564582D-06 0.000000000000D+00  6 -1 21 25 23 -1 21 4 0.55792837D-01 0.18783818D-01 0.26229510D+05 0.26229510D+05 0.26229510D+05 0.12210685D+01  1  2  6  3  6  5       -1 0.151908091701D-01 0.100000000000D+01
0.435489750685D-05 0.000000000000D+00 0.000000000000D+00 0.177592564582D-06 0.417254268015D-07  6 -1 21 25 23 -1 21 4 0.55792837D-01 0.18783818D-01 0.26208685D+05 0.26208685D+05 0.26208685D+05 0.12211053D+01  1  2 11  3  6  5       -1 0.781566874014D-02 0.100000000000D+01
  </mgrwgt>
  </event>
  <event>
  5     66 0.38788253E-03 0.37848109E+02 0.75467711E-02 0.12058641E+00
       -3 -1    0    0    0  501 0.00000000E+00 0.00000000E+00 0.55515522E+02 0.55517774E+02 0.50000000E+00 0.0000E+00 0.9000E+01
       21 -1    0    0  501  502 -.00000000E+00 -.00000000E+00 -.40421995E+03 0.40422065E+03 0.75000000E+00 0.0000E+00 0.9000E+01
       25  1    1    2    0    0 -.52824178E+02 -.53660534E+02 -.13078808E+03 0.19596012E+03 0.12500000E+03 0.0000E+00 0.9000E+01
       23  1    1    2    0    0 0.55154216E+02 0.15886390E+02 -.13575225E+03 0.17331558E+03 0.91188000E+02 0.0000E+00 0.9000E+01
       -3  1    1    2    0  502 -.23300376E+01 0.37774144E+02 -.82164100E+02 0.90462724E+02 0.50000000E+00 0.0000E+00 0.9000E+01
#aMCatNLO 1  0  0  5  2 0.22903507D+01 0.00000000D+00  -5  6  0 0.00000000D+00 0.00000000D+00 0.00000000D+00 0.00000000D+00 0.00000000D+00
  <mgrwgt>
 0.8041942918D-02    8    2    0
 0.149803735667320D+03 0.000000000000000D+00 0.000000000000000D+00 0.149803735667320D+03
 0.149803735667320D+03 -.000000000000000D+00 -.000000000000000D+00 -.149803735667320D+03
 0.148474866116910D+03 -.528241006540848D+02 -.536617892402878D+02 0.273827068430493D+02
 0.107949172528726D+03 0.551542719592135D+02 0.158854780914481D+02 -.659017269060514D+01
 0.431834326890042D+02 -.233017130512869D+01 0.377763111488397D+02 -.207925341524442D+02
 0.000000000000000D+00 -.000000000000000D+00 0.000000000000000D+00 0.000000000000000D+00
 0.149803735667320D+03 0.000000000000000D+00 0.000000000000000D+00 0.149803735667320D+03
 0.149803735667320D+03 -.000000000000000D+00 -.000000000000000D+00 -.149803735667320D+03
 0.148104915589856D+03 -.528762230480022D+02 -.528167905201879D+02 0.269176094258552D+02
 0.108043267074375D+03 0.551163123823489D+02 0.165008718110251D+02 -.692889276523313D+01
 0.411245052480011D+02 -.595732366384971D-01 0.356530675114524D+02 -.204958571410459D+02
 0.233478342240882D+01 -.218051609770817D+01 0.662851197710349D+00 0.507140480423846D+00
0.294933092979D-05 0.000000000000D+00 0.000000000000D+00 0.445028808025D-06 0.000000000000D+00  6 -3 21 25 23 -3 21 2 0.85410763D-02 0.62187912D-01 0.21246547D+05 0.21246547D+05 0.21246547D+05 0.12309457D+01  1  2  2  3  6  5       -3 0.500421606990D-02 0.100000000000D+01
0.411339912799D-07 0.155640469145D-06 -.595384940734D-08 0.445028808025D-06 0.000000000000D+00  6 -3 21 25 23 -3 21 4 0.85410763D-02 0.62187912D-01 0.21246547D+05 0.21246547D+05 0.21246547D+05 0.12309457D+01  1  2  3  3  6  5       -3 0.105752626828D-03 0.100000000000D+01
0.261523065888D-06 0.000000000000D+00 0.000000000000D+00 0.445028808025D-06 0.000000000000D+00  6 -3 21 25 23 -3 21 4 0.85410763D-02 0.62187912D-01 0.21246547D+05 0.21246547D+05 0.21246547D+05 0.12309457D+01  1  2 15  3  6  5       -3 0.672357588776D-03 0.100000000000D+01
0.149125489474D-08 0.000000000000D+00 0.000000000000D+00 0.445060042588D-06 0.000000000000D+00  6 -3 21 25 23 -3 21 4 0.85410763D-02 0.62187912D-01 0.21227222D+05 0.21227222D+05 0.21227222D+05 0.12309889D+01  1  2 12  3  6  5       -3 0.383437114823D-05 0.100000000000D+01
-.241177676677D-04 0.000000000000D+00 0.000000000000D+00 0.445028808025D-06 0.000000000000D+00  6 -3 21 25 23 -3 21 4 0.85410763D-02 0.62187912D-01 0.21246547D+05 0.21246547D+05 0.21246547D+05 0.12309457D+01  1  2  4  3  6  5       -3 -.620051010057D-01 0.100000000000D+01
-.124460374054D-04 0.000000000000D+00 0.000000000000D+00 0.445028808025D-06 0.000000000000D+00  6 -3 21 25 23 -3 21 4 0.85410763D-02 0.62187912D-01 0.21246547D+05 0.21246547D+05 0.21246547D+05 0.12309457D+01  1  2  5  3  6  5       -3 -.319978953723D-01 0.100000000000D+01
0.135282826542D-04 0.000000000000D+00 -.000000000000D+00 0.445028808025D-06 0.000000000000D+00  6 -3 21 25 23 -3 21 4 0.85410763D-02 0.62187912D-01 0.21246547D+05 0.21246547D+05 0.21246547D+05 0.12309457D+01  1  2  6  3  6  5       -3 0.347802725346D-01 0.100000000000D+01
0.239100805857D-04 0.000000000000D+00 0.000000000000D+00 0.445028808025D-06 0.916345078611D-06  6 -3 21 25 23 -3 21 4 0.85410763D-02 0.62187912D-01 0.21227222D+05 0.21227222D+05 0.21227222D+05 0.12309889D+01  1  2 11  3  6  5       -3 0.614785061044D-01 0.100000000000D+01
  </mgrwgt>
  </event>
  <event>
  5     66 0.38788253E-03 0.32164115E+02 0.75467711E-02 0.99272102E-01
       -3 -1    0    0    0  501 0.00000000E+00 0.00000000E+00 0.11834131E+03 0.11834236E+03 0.50000000E+00 0.0000E+00 0.9000E+01
       21 -1    0    0  501  502 0.00000000E+00 0.00000000E+00 -.51821566E+03 0.51821621E+03 0.75000000E+00 0.0000E+00 0.9000E+01
       25  1    1    2    0    0 0.64436688E+02 0.11583675E+03 -.21702690E+02 0.18348364E+03 0.12500000E+03 0.0000E+00 0.9000E+01
       23  1    1    2    0    0 -.83912212E+02 -.90239453E+02 -.12481056E+03 0.19767990E+03 0.91188000E+02 0.0000E+00 0.9000E+01
       -3  1    1    2    0  502 0.19475524E+02 -.25597296E+02 -.25336111E+03 0.25539503E+03 0.50000000E+00 0.0000E+00 0.9000E+01
#aMCatNLO 1  0  0  2  2 0.69406959D+02 0.00000000D+00  -5  6  0 0.00000000D+00 0.00000000D+00 0.00000000D+00 0.00000000D+00 0.00000000D+00
  <mgrwgt>
 0.2023241821D-01   12    4    0
 0.247642541319058D+03 0.000000000000000D+00 0.000000000000000D+00 0.247642541319058D+03
 0.247642541319058D+03 0.000000000000000D+00 0.000000000000000D+00 -.247642541319058D+03
 0.218298247683603D+03 0.644366178150804D+02 0.115836841947635D+03 0.120245055091192D+03
 0.153298156494127D+03 -.839122608849376D+02 -.902393887292838D+02 -.811563578021058D+00
 0.123688678460386D+03 0.194756430698572D+02 -.255974532183511D+02 -.119433491513171D+03
 0.000000000000000D+00 0.000000000000000D+00 -.000000000000000D+00 -.000000000000000D+00
 0.578716447871722D+03 0.000000000000000D+00 0.000000000000000D+00 0.578716447871722D+03
 0.687012195843298D+03 0.000000000000000D+00 0.000000000000000D+00 -.687012195843298D+03
 0.432911979782882D+03 0.258640204110526D+02 0.395802932548292D+03 0.120245055091192D+03
 0.141092525086151D+03 -.101349660915142D+03 0.363240538504549D+02 -.811563578021058D+00
 0.151130520197637D+03 0.319750451854124D+01 0.925518838546016D+02 -.119433491513171D+03
 0.540593618648350D+03 0.722881359855480D+02 -.524678870253348D+03 -.108295747971576D+03
 0.247642541319058D+03 0.000000000000000D+00 0.000000000000000D+00 0.247642541319058D+03
 0.247642541319058D+03 0.000000000000000D+00 0.000000000000000D+00 -.247642541319058D+03
 0.218298247683603D+03 0.644366178150804D+02 0.115836841947635D+03 0.120245055091192D+03
 0.153298156494127D+03 -.839122608849376D+02 -.902393887292838D+02 -.811563578021058D+00
 0.000000000000000D+00 0.000000000000000D+00 -.000000000000000D+00 -.000000000000000D+00
 0.123688678460386D+03 0.194756430698572D+02 -.255974532183511D+02 -.119433491513171D+03
 0.578716447871722D+03 0.000000000000000D+00 0.000000000000000D+00 0.578716447871722D+03
 0.687012195843298D+03 0.000000000000000D+00 0.000000000000000D+00 -.687012195843298D+03
 0.432911979782882D+03 0.258640204110526D+02 0.395802932548292D+03 0.120245055091192D+03
 0.141092525086151D+03 -.101349660915142D+03 0.363240538504549D+02 -.811563578021058D+00
 0.540593618648350D+03 0.722881359855480D+02 -.524678870253348D+03 -.108295747971576D+03
 0.151130520197637D+03 0.319750451854124D+01 0.925518838546016D+02 -.119433491513171D+03
0.414453652940D-04 0.000000000000D+00 0.000000000000D+00 0.100449022559D-05 0.000000000000D+00  6 -3 21 25 23 -3 21 2 0.18206478D-01 0.79725610D-01 0.33792690D+05 0.33792690D+05 0.33792690D+05 0.12095093D+01  1  2  2  2  6  2       21 0.109765943485D-01 0.100000000000D+01
0.731837559865D-05 0.218713201462D-05 -.836662515895D-07 0.100449022559D-05 0.000000000000D+00  6 -3 21 25 23 -3 21 4 0.18206478D-01 0.79725610D-01 0.33792690D+05 0.33792690D+05 0.33792690D+05 0.12095093D+01  1  2  3  2  6  2       21 0.283546805578D-02 0.100000000000D+01
0.327896686227D-05 0.000000000000D+00 0.000000000000D+00 0.100449022559D-05 0.000000000000D+00  6 -3 21 25 23 -3 21 4 0.18206478D-01 0.79725610D-01 0.33792690D+05 0.33792690D+05 0.33792690D+05 0.12095093D+01  1  2 15  2  6  2       21 0.127041932579D-02 0.100000000000D+01
0.369622257938D-03 0.000000000000D+00 -.224025457628D-03 0.100449022559D-05 0.000000000000D+00  6 -3 21 25 23 -3 21 4 0.18206478D-01 0.37013807D+00 0.33792690D+05 0.33792690D+05 0.33792690D+05 0.12095093D+01  1  2  5  2  6  2       21 0.138482791717D-02 0.100000000000D+01
0.157023442837D-03 0.000000000000D+00 -.913838295347D-04 0.100449022559D-05 0.000000000000D+00  6 -3 -3 25 23 -3 -3 4 0.18206478D-01 0.37013807D+00 0.33792690D+05 0.33792690D+05 0.33792690D+05 0.12095093D+01  1  2  5  5  6  2       21 0.412909021994D-04 0.100000000000D+01
0.157023442837D-03 0.000000000000D+00 -.913838295347D-04 0.100449022559D-05 0.000000000000D+00  6 -3 3 25 23 3 -3 4 0.18206478D-01 0.37013807D+00 0.33792690D+05 0.33792690D+05 0.33792690D+05 0.12095093D+01  3  4  5  6  5  2       21 0.426691250184D-04 0.100000000000D+01
0.157023442837D-03 0.000000000000D+00 -.913838295347D-04 0.100449022559D-05 0.000000000000D+00  6 -3 -2 25 23 -3 -2 4 0.18206478D-01 0.37013807D+00 0.33792690D+05 0.33792690D+05 0.33792690D+05 0.12095093D+01  1  2  5  7  6  2       21 0.519593821523D-04 0.100000000000D+01
0.157023442837D-03 0.000000000000D+00 -.913838295347D-04 0.100449022559D-05 0.000000000000D+00  6 -3 -4 25 23 -3 -4 4 0.18206478D-01 0.37013807D+00 0.33792690D+05 0.33792690D+05 0.33792690D+05 0.12095093D+01  1  2  5  7  6  2       21 0.257127621854D-04 0.100000000000D+01
0.157023442837D-03 0.000000000000D+00 -.913838295347D-04 0.100449022559D-05 0.000000000000D+00  6 -3 2 25 23 2 -3 4 0.18206478D-01 0.37013807D+00 0.33792690D+05 0.33792690D+05 0.33792690D+05 0.12095093D+01  3  4  5  8  5  2       21 0.259100243800D-02 0.100000000000D+01
0.157023442837D-03 0.000000000000D+00 -.913838295347D-04 0.100449022559D-05 0.000000000000D+00  6 -3 4 25 23 4 -3 4 0.18206478D-01 0.37013807D+00 0.33792690D+05 0.33792690D+05 0.33792690D+05 0.12095093D+01  3  4  5  8  5  2       21 0.257127621854D-04 0.100000000000D+01
0.157023442837D-03 0.000000000000D+00 -.913838295347D-04 0.100449022559D-05 0.000000000000D+00  6 -3 -1 25 23 -3 -1 4 0.18206478D-01 0.37013807D+00 0.33792690D+05 0.33792690D+05 0.33792690D+05 0.12095093D+01  1  2  5  9  6  2       21 0.591612106377D-04 0.100000000000D+01
0.157023442837D-03 0.000000000000D+00 -.913838295347D-04 0.100449022559D-05 0.000000000000D+00  6 -3 1 25 23 1 -3 4 0.18206478D-01 0.37013807D+00 0.33792690D+05 0.33792690D+05 0.33792690D+05 0.12095093D+01  3  4  5 10  5  2       21 0.927599984511D-03 0.100000000000D+01
  </mgrwgt>
  </event>
  <event>
  5     66 -.38788253E-03 0.29430105E+02 0.75467711E-02 0.12014241E+00
       -1 -1    0    0    0  501 0.00000000E+00 0.00000000E+00 0.15398393E+04 0.15398394E+04 0.32000000E+00 0.0000E+00 0.9000E+01
       21 -1    0    0  501  502 0.00000000E+00 0.00000000E+00 -.14803411E+02 0.14822398E+02 0.75000000E+00 0.0000E+00 0.9000E+01
       25  1    1    2    0    0 -.48939540E+02 0.59757344E+01 0.84045340E+03 0.85112732E+03 0.12500000E+03 0.0000E+00 0.9000E+01
       23  1    1    2    0    0 0.35422084E+02 0.20166011E+02 0.65208465E+03 0.65969010E+03 0.91188000E+02 0.0000E+00 0.9000E+01
       -1  1    1    2    0  502 0.13517456E+02 -.26141746E+02 0.32497869E+02 0.43844343E+02 0.32000000E+00 0.0000E+00 0.9000E+01
#aMCatNLO 1  0  0  2  2 0.35094455D+02 0.00000000D+00  -5  6  0 0.00000000D+00 0.00000000D+00 0.00000000D+00 0.00000000D+00 0.00000000D+00
  <mgrwgt>
 -.5259223494D-01   12    4    0
 0.151028671443680D+03 0.000000000000000D+00 0.000000000000000D+00 0.151028671443680D+03
 0.151028671443680D+03 0.000000000000000D+00 0.000000000000000D+00 -.151028671443680D+03
 0.137369607753749D+03 -.489396228726850D+02 0.597589489374601D+01 0.285413932336397D+02
 0.103101237795850D+03 0.354220219221998D+02 0.201661316435032D+02 0.255581961123349D+02
 0.615864973377598D+02 0.135176009504852D+02 -.261420265372492D+02 -.540995893459746D+02
 0.000000000000000D+00 0.000000000000000D+00 -.000000000000000D+00 -.000000000000000D+00
 0.153213449463340D+03 0.000000000000000D+00 0.000000000000000D+00 0.153213449463340D+03
 0.415473743184619D+03 0.000000000000000D+00 0.000000000000000D+00 -.415473743184619D+03
 0.143937680939690D+03 -.645314189237757D+02 0.106836715722098D+02 0.285413932336397D+02
 0.100532202878816D+03 0.241353926601998D+02 0.235740090839212D+02 0.255581961123349D+02
 0.596193450955358D+02 0.679962082207105D+01 -.241136040212480D+02 -.540995893459746D+02
 0.264597963733918D+03 0.335964054415049D+02 -.101440766348830D+02 -.262260293721279D+03
 0.151028671443680D+03 0.000000000000000D+00 0.000000000000000D+00 0.151028671443680D+03
 0.151028671443680D+03 0.000000000000000D+00 0.000000000000000D+00 -.151028671443680D+03
 0.137369607753749D+03 -.489396228726850D+02 0.597589489374601D+01 0.285413932336397D+02
 0.103101237795850D+03 0.354220219221998D+02 0.201661316435032D+02 0.255581961123349D+02
 0.000000000000000D+00 0.000000000000000D+00 -.000000000000000D+00 -.000000000000000D+00
 0.615864973377598D+02 0.135176009504852D+02 -.261420265372492D+02 -.540995893459746D+02
 0.153213449463340D+03 0.000000000000000D+00 0.000000000000000D+00 0.153213449463340D+03
 0.415473743184619D+03 0.000000000000000D+00 0.000000000000000D+00 -.415473743184619D+03
 0.143937680939690D+03 -.645314189237757D+02 0.106836715722098D+02 0.285413932336397D+02
 0.100532202878816D+03 0.241353926601998D+02 0.235740090839212D+02 0.255581961123349D+02
 0.264597963733918D+03 0.335964054415049D+02 -.101440766348830D+02 -.262260293721279D+03
 0.596193450955358D+02 0.679962082207105D+01 -.241136040212480D+02 -.540995893459746D+02
0.130515274507D-05 0.000000000000D+00 0.000000000000D+00 0.140188810200D-05 0.000000000000D+00  6 -1 21 25 23 -1 21 2 0.23689982D+00 0.22789110D-02 0.17382461D+05 0.17382461D+05 0.17382461D+05 0.12405896D+01  1  2  2  2  6  2       21 0.184964626809D-02 0.100000000000D+01
0.106914933730D-06 0.688748025860D-07 -.263472736113D-08 0.140188810200D-05 0.000000000000D+00  6 -1 21 25 23 -1 21 4 0.23689982D+00 0.22789110D-02 0.17382461D+05 0.17382461D+05 0.17382461D+05 0.12405896D+01  1  2  3  2  6  2       21 0.233196466843D-03 0.100000000000D+01
0.102992067849D-06 0.000000000000D+00 0.000000000000D+00 0.140188810200D-05 0.000000000000D+00  6 -1 21 25 23 -1 21 4 0.23689982D+00 0.22789110D-02 0.17382461D+05 0.17382461D+05 0.17382461D+05 0.12405896D+01  1  2 15  2  6  2       21 0.224640146117D-03 0.100000000000D+01
-.120369409970D-03 0.000000000000D+00 -.288810341542D-05 0.140188810200D-05 0.000000000000D+00  6 -1 21 25 23 -1 21 4 0.23689982D+00 0.63421117D-02 0.17382461D+05 0.17382461D+05 0.17382461D+05 0.12405896D+01  1  2  5  2  6  2       21 -.480337571246D-01 0.100000000000D+01
-.409199960547D-04 0.000000000000D+00 -.978706480631D-06 0.140188810200D-05 0.000000000000D+00  6 -1 -1 25 23 -1 -1 4 0.23689982D+00 0.63421117D-02 0.17382461D+05 0.17382461D+05 0.17382461D+05 0.12405896D+01  1  2  5  5  6  2       21 -.979470533203D-03 0.100000000000D+01
-.409199960547D-04 0.000000000000D+00 -.978706480631D-06 0.140188810200D-05 0.000000000000D+00  6 -1 1 25 23 1 -1 4 0.23689982D+00 0.63421117D-02 0.17382461D+05 0.17382461D+05 0.17382461D+05 0.12405896D+01  3  4  5  6  5  2       21 -.113748712469D-02 0.100000000000D+01
-.409199960547D-04 0.000000000000D+00 -.978706480631D-06 0.140188810200D-05 0.000000000000D+00  6 -1 -2 25 23 -1 -2 4 0.23689982D+00 0.63421117D-02 0.17382461D+05 0.17382461D+05 0.17382461D+05 0.12405896D+01  1  2  5  7  6  2       21 -.951775295434D-03 0.100000000000D+01
-.409199960547D-04 0.000000000000D+00 -.978706480631D-06 0.140188810200D-05 0.000000000000D+00  6 -1 -4 25 23 -1 -4 4 0.23689982D+00 0.63421117D-02 0.17382461D+05 0.17382461D+05 0.17382461D+05 0.12405896D+01  1  2  5  7  6  2       21 -.599265473214D-03 0.100000000000D+01
-.409199960547D-04 0.000000000000D+00 -.978706480631D-06 0.140188810200D-05 0.000000000000D+00  6 -1 2 25 23 2 -1 4 0.23689982D+00 0.63421117D-02 0.17382461D+05 0.17382461D+05 0.17382461D+05 0.12405896D+01  3  4  5  8  5  2       21 -.124343106003D-02 0.100000000000D+01
-.409199960547D-04 0.000000000000D+00 -.978706480631D-06 0.140188810200D-05 0.000000000000D+00  6 -1 4 25 23 4 -1 4 0.23689982D+00 0.63421117D-02 0.17382461D+05 0.17382461D+05 0.17382461D+05 0.12405896D+01  3  4  5  8  5  2       21 -.599265473214D-03 0.100000000000D+01
-.409199960547D-04 0.000000000000D+00 -.978706480631D-06 0.140188810200D-05 0.000000000000D+00  6 -1 -3 25 23 -1 -3 4 0.23689982D+00 0.63421117D-02 0.17382461D+05 0.17382461D+05 0.17382461D+05 0.12405896D+01  1  2  5  9  6  2       21 -.677670667632D-03 0.100000000000D+01
-.409199960547D-04 0.000000000000D+00 -.978706480631D-06 0.140188810200D-05 0.000000000000D+00  6 -1 3 25 23 3 -1 4 0.23689982D+00 0.63421117D-02 0.17382461D+05 0.17382461D+05 0.17382461D+05 0.12405896D+01  3  4  5 10  5  2       21 -.677595067526D-03 0.100000000000D+01
  </mgrwgt>
  </event>
  <event>
  5     66 0.38788253E-03 0.11026298E+03 0.75467711E-02 0.11190722E+00
       -1 -1    0    0    0  501 0.00000000E+00 0.00000000E+00 0.25642603E+03 0.25642623E+03 0.32000000E+00 0.0000E+00 0.9000E+01
       21 -1    0    0  501  502 0.00000000E+00 0.00000000E+00 -.28706177E+03 0.28706275E+03 0.75000000E+00 0.0000E+00 0.9000E+01
       25  1    1    2    0    0 -.11240602E+03 0.93735875E+02 0.12397392E+03 0.22894554E+03 0.12500000E+03 0.0000E+00 0.9000E+01
       23  1    1    2    0    0 -.32434675E+01 -.59190128E+02 0.11329215E+02 0.10935078E+03 0.91188000E+02 0.0000E+00 0.9000E+01
       -1  1    1    2    0  502 0.11564949E+03 -.34545747E+02 -.16593888E+03 0.20519266E+03 0.32000000E+00 0.0000E+00 0.9000E+01
#aMCatNLO 1  0  0  2  1 0.60830509D+02 0.00000000D+00  -5  6  0 0.00000000D+00 0.00000000D+00 0.00000000D+00 0.00000000D+00 0.00000000D+00
  <mgrwgt>
 0.1515035894D-01   23    4    0
 0.271312422091796D+03 0.000000000000000D+00 0.000000000000000D+00 0.271312422091796D+03
 0.271312422091796D+03 0.000000000000000D+00 0.000000000000000D+00 -.271312422091796D+03
 0.236309601481060D+03 -.112406088342499D+03 0.937358953958520D+02 0.137097341221533D+03
 0.110164557487035D+03 -.324349873217301D+01 -.591901186287218D+02 0.175210717425206D+02
 0.196150685215497D+03 0.115649587074672D+03 -.345457767671302D+02 -.154618412964053D+03
 0.000000000000000D+00 0.000000000000000D+00 0.000000000000000D+00 -.000000000000000D+00
 0.296030280501921D+03 0.000000000000000D+00 0.000000000000000D+00 0.296030280501921D+03
 0.313201090041374D+03 0.000000000000000D+00 0.000000000000000D+00 -.313201090041374D+03
 0.243716210609258D+03 -.135865158579414D+03 0.807314624413150D+02 0.137097341221533D+03
 0.114389746291093D+03 -.142175652337086D+02 -.652735443833060D+02 0.175210717425206D+02
 0.187917918303075D+03 0.968799873598112D+02 -.449506222537728D+02 -.154618412964053D+03
 0.632074953398688D+02 0.532027364533117D+02 0.294927041957638D+02 -.171708095394533D+02
 0.271312422091796D+03 0.000000000000000D+00 0.000000000000000D+00 0.271312422091796D+03
 0.271312422091796D+03 0.000000000000000D+00 0.000000000000000D+00 -.271312422091796D+03
 0.236309601481060D+03 -.112406088342499D+03 0.937358953958520D+02 0.137097341221533D+03
 0.110164557487035D+03 -.324349873217301D+01 -.591901186287218D+02 0.175210717425206D+02
 0.000000000000000D+00 0.000000000000000D+00 0.000000000000000D+00 -.000000000000000D+00
 0.196150685215497D+03 0.115649587074672D+03 -.345457767671302D+02 -.154618412964053D+03
 0.296030280501921D+03 0.000000000000000D+00 0.000000000000000D+00 0.296030280501921D+03
 0.313201090041374D+03 0.000000000000000D+00 0.000000000000000D+00 -.313201090041374D+03
 0.243716210609258D+03 -.135865158579414D+03 0.807314624413150D+02 0.137097341221533D+03
 0.114389746291093D+03 -.142175652337086D+02 -.652735443833060D+02 0.175210717425206D+02
 0.632074953398688D+02 0.532027364533117D+02 0.294927041957638D+02 -.171708095394533D+02
 0.187917918303075D+03 0.968799873598112D+02 -.449506222537728D+02 -.154618412964053D+03
0.911432161171D-05 0.000000000000D+00 0.000000000000D+00 0.226132932110D-06 0.000000000000D+00  6 -1 21 25 23 -1 21 2 0.39450249D-01 0.44163440D-01 0.44507511D+05 0.44507511D+05 0.44507511D+05 0.11973194D+01  1  2  2  2  6  2       21 0.372667783815D-02 0.100000000000D+01
-.187037526204D-06 0.480975965519D-06 -.183991893816D-07 0.226132932110D-06 0.000000000000D+00  6 -1 21 25 23 -1 21 4 0.39450249D-01 0.44163440D-01 0.44507511D+05 0.44507511D+05 0.44507511D+05 0.11973194D+01  1  2  3  2  6  2       21 -.109634254068D-03 0.100000000000D+01
0.536618938463D-06 0.000000000000D+00 0.000000000000D+00 0.226132932110D-06 0.000000000000D+00  6 -1 21 25 23 -1 21 4 0.39450249D-01 0.44163440D-01 0.44507511D+05 0.44507511D+05 0.44507511D+05 0.11973194D+01  1  2 15  2  6  2       21 0.314545525870D-03 0.100000000000D+01
0.105317965515D-04 0.000000000000D+00 0.000000000000D+00 0.221825647868D-06 0.000000000000D+00  6 -1 21 25 23 -1 21 4 0.39450249D-01 0.52742075D-01 0.58121937D+05 0.58121937D+05 0.58121937D+05 0.11858615D+01  1  2 12  2  6  2       21 0.407003435320D-02 0.100000000000D+01
-.284080535722D-05 0.000000000000D+00 0.000000000000D+00 0.226132932110D-06 0.000000000000D+00  6 -1 21 25 23 -1 21 4 0.39450249D-01 0.44163440D-01 0.44507511D+05 0.44507511D+05 0.44507511D+05 0.11973194D+01  1  2  4  2  6  2       21 -.166517159744D-02 0.100000000000D+01
-.472051066412D-04 0.000000000000D+00 -.150106801091D-04 0.226132932110D-06 0.000000000000D+00  6 -1 21 25 23 -1 21 4 0.39450249D-01 0.55039669D-01 0.44507511D+05 0.44507511D+05 0.44507511D+05 0.11973194D+01  1  2  5  2  6  2       21 -.174809387017D-01 0.100000000000D+01
0.460243624010D-04 0.000000000000D+00 0.136498131795D-04 0.226132932110D-06 0.000000000000D+00  6 -1 21 25 23 -1 21 4 0.39450249D-01 0.44163440D-01 0.44507511D+05 0.44507511D+05 0.44507511D+05 0.11973194D+01  1  2  6  2  6  2       21 0.269777233649D-01 0.100000000000D+01
0.523674608030D-06 0.000000000000D+00 0.000000000000D+00 0.221825647868D-06 0.000000000000D+00  6 -1 -1 25 23 -1 -1 4 0.39450249D-01 0.52742075D-01 0.58121937D+05 0.58121937D+05 0.58121937D+05 0.11858615D+01  1  2 12  5  6  2       21 0.206944708193D-04 0.100000000000D+01
-.240347105848D-05 0.000000000000D+00 -.967338350004D-06 0.226132932110D-06 0.000000000000D+00  6 -1 -1 25 23 -1 -1 4 0.39450249D-01 0.55039669D-01 0.44507511D+05 0.44507511D+05 0.44507511D+05 0.11973194D+01  1  2  5  5  6  2       21 -.912802896180D-04 0.100000000000D+01
0.523674608030D-06 0.000000000000D+00 0.000000000000D+00 0.221825647868D-06 0.000000000000D+00  6 -1 1 25 23 1 -1 4 0.39450249D-01 0.52742075D-01 0.58121937D+05 0.58121937D+05 0.58121937D+05 0.11858615D+01  3  4 12  6  5  2       21 0.487521130719D-04 0.100000000000D+01
-.240347105848D-05 0.000000000000D+00 -.967338350004D-06 0.226132932110D-06 0.000000000000D+00  6 -1 1 25 23 1 -1 4 0.39450249D-01 0.55039669D-01 0.44507511D+05 0.44507511D+05 0.44507511D+05 0.11973194D+01  3  4  5  6  5  2       21 -.220580071578D-03 0.100000000000D+01
0.523674608030D-06 0.000000000000D+00 0.000000000000D+00 0.221825647868D-06 0.000000000000D+00  6 -1 -2 25 23 -1 -2 4 0.39450249D-01 0.52742075D-01 0.58121937D+05 0.58121937D+05 0.58121937D+05 0.11858615D+01  1  2 12  7  6  2       21 0.168542732903D-04 0.100000000000D+01
0.523674608030D-06 0.000000000000D+00 0.000000000000D+00 0.221825647868D-06 0.000000000000D+00  6 -1 -4 25 23 -1 -4 4 0.39450249D-01 0.52742075D-01 0.58121937D+05 0.58121937D+05 0.58121937D+05 0.11858615D+01  1  2 12  7  6  2       21 0.890875299983D-05 0.100000000000D+01
-.240347105848D-05 0.000000000000D+00 -.967338350004D-06 0.226132932110D-06 0.000000000000D+00  6 -1 -2 25 23 -1 -2 4 0.39450249D-01 0.55039669D-01 0.44507511D+05 0.44507511D+05 0.44507511D+05 0.11973194D+01  1  2  5  7  6  2       21 -.738039661653D-04 0.100000000000D+01
-.240347105848D-05 0.000000000000D+00 -.967338350004D-06 0.226132932110D-06 0.000000000000D+00  6 -1 -4 25 23 -1 -4 4 0.39450249D-01 0.55039669D-01 0.44507511D+05 0.44507511D+05 0.44507511D+05 0.11973194D+01  1  2  5  7  6  2       21 -.386274633180D-04 0.100000000000D+01
0.523674608030D-06 0.000000000000D+00 0.000000000000D+00 0.221825647868D-06 0.000000000000D+00  6 -1 2 25 23 2 -1 4 0.39450249D-01 0.52742075D-01 0.58121937D+05 0.58121937D+05 0.58121937D+05 0.11858615D+01  3  4 12  8  5  2       21 0.708316690898D-04 0.100000000000D+01
0.523674608030D-06 0.000000000000D+00 0.000000000000D+00 0.221825647868D-06 0.000000000000D+00  6 -1 4 25 23 4 -1 4 0.39450249D-01 0.52742075D-01 0.58121937D+05 0.58121937D+05 0.58121937D+05 0.11858615D+01  3  4 12  8  5  2       21 0.890875299983D-05 0.100000000000D+01
-.240347105848D-05 0.000000000000D+00 -.967338350004D-06 0.226132932110D-06 0.000000000000D+00  6 -1 2 25 23 2 -1 4 0.39450249D-01 0.55039669D-01 0.44507511D+05 0.44507511D+05 0.44507511D+05 0.11973194D+01  3  4  5  8  5  2       21 -.322761699383D-03 0.100000000000D+01
-.240347105848D-05 0.000000000000D+00 -.967338350004D-06 0.226132932110D-06 0.000000000000D+00  6 -1 4 25 23 4 -1 4 0.39450249D-01 0.55039669D-01 0.44507511D+05 0.44507511D+05 0.44507511D+05 0.11973194D+01  3  4  5  8  5  2       21 -.386274633180D-04 0.100000000000D+01
0.523674608030D-06 0.000000000000D+00 0.000000000000D+00 0.221825647868D-06 0.000000000000D+00  6 -1 -3 25 23 -1 -3 4 0.39450249D-01 0.52742075D-01 0.58121937D+05 0.58121937D+05 0.58121937D+05 0.11858615D+01  1  2 12  9  6  2       21 0.107506340421D-04 0.100000000000D+01
-.240347105848D-05 0.000000000000D+00 -.967338350004D-06 0.226132932110D-06 0.000000000000D+00  6 -1 -3 25 23 -1 -3 4 0.39450249D-01 0.55039669D-01 0.44507511D+05 0.44507511D+05 0.44507511D+05 0.11973194D+01  1  2  5  9  6  2       21 -.468136931429D-04 0.100000000000D+01
0.523674608030D-06 0.000000000000D+00 0.000000000000D+00 0.221825647868D-06 0.000000000000D+00  6 -1 3 25 23 3 -1 4 0.39450249D-01 0.52742075D-01 0.58121937D+05 0.58121937D+05 0.58121937D+05 0.11858615D+01  3  4 12 10  5  2       21 0.107560151201D-04 0.100000000000D+01
-.240347105848D-05 0.000000000000D+00 -.967338350004D-06 0.226132932110D-06 0.000000000000D+00  6 -1 3 25 23 3 -1 4 0.39450249D-01 0.55039669D-01 0.44507511D+05 0.44507511D+05 0.44507511D+05 0.11973194D+01  3  4  5 10  5  2       21 -.468396254176D-04 0.100000000000D+01
  </mgrwgt>
  </event>
  <event>
  5     66 0.38788253E-03 0.92440206E+02 0.75467711E-02 0.10865022E+00
       -3 -1    0    0    0  501 0.00000000E+00 0.00000000E+00 0.13423725E+03 0.13423818E+03 0.50000000E+00 0.0000E+00 0.9000E+01
       21 -1    0    0  501  502 0.00000000E+00 0.00000000E+00 -.26158787E+03 0.26158894E+03 0.75000000E+00 0.0000E+00 0.9000E+01
       25  1    1    2    0    0 -.11819307E+02 -.72602022E+01 -.82414781E+02 0.15036490E+03 0.12500000E+03 0.0000E+00 0.9000E+01
       23  1    1    2    0    0 0.98167985E+02 -.25739233E+02 -.64594510E+02 0.15095418E+03 0.91188000E+02 0.0000E+00 0.9000E+01
       -3  1    1    2    0  502 -.86348678E+02 0.32999435E+02 0.19658670E+02 0.94508043E+02 0.50000000E+00 0.0000E+00 0.9000E+01
#aMCatNLO 1  0  0  2  1 0.19314065D+03 0.00000000D+00  -5  6  0 0.00000000D+00 0.00000000D+00 0.00000000D+00 0.00000000D+00 0.00000000D+00
  <mgrwgt>
 0.7780034690D-02    3    2    0
 0.187390585774186D+03 0.000000000000000D+00 0.000000000000000D+00 0.187390585774186D+03
 0.187390585774186D+03 0.000000000000000D+00 0.000000000000000D+00 -.187390585774186D+03
 0.130804178301690D+03 -.118189750248149D+02 -.726032916562329D+01 -.359490265647065D+02
 0.137482142295621D+03 0.981683342184163D+02 -.257393659643015D+02 -.169278262848645D+02
 0.106494850951061D+03 -.863493591936015D+02 0.329996951299248D+02 0.528768528495710D+02
 0.000000000000000D+00 0.000000000000000D+00 0.000000000000000D+00 0.000000000000000D+00
 0.314894813930608D+03 0.000000000000000D+00 0.000000000000000D+00 0.314894813930608D+03
 0.300409250086910D+03 0.000000000000000D+00 0.000000000000000D+00 -.300409250086910D+03
 0.150943740697386D+03 -.123838484869046D+02 -.755865109753266D+02 -.359490265647065D+02
 0.167510432913499D+03 0.975568577877045D+02 -.997025676034812D+02 -.169278262848645D+02
 0.103166791149234D+03 -.867697076315291D+02 -.178449731379273D+02 0.528768528495710D+02
 0.193683099257400D+03 0.159669833072916D+01 0.193134051716735D+03 0.144855638436975D+02
0.868754938502D-05 0.000000000000D+00 0.000000000000D+00 0.121164799408D-06 0.000000000000D+00  6 -3 21 25 23 -3 21 2 0.20652038D-01 0.40244441D-01 0.31442999D+05 0.31442999D+05 0.31442999D+05 0.12127629D+01  1  2  2  2  6  2       21 0.792616932563D-02 0.100000000000D+01
-.951474584632D-06 0.458454576376D-06 -.175376592144D-07 0.121164799408D-06 0.000000000000D+00  6 -3 21 25 23 -3 21 4 0.20652038D-01 0.40244441D-01 0.31442999D+05 0.31442999D+05 0.31442999D+05 0.12127629D+01  1  2  3  2  6  2       21 -.127677696794D-02 0.100000000000D+01
0.842572720721D-06 0.000000000000D+00 0.000000000000D+00 0.121164799408D-06 0.000000000000D+00  6 -3 21 25 23 -3 21 4 0.20652038D-01 0.40244441D-01 0.31442999D+05 0.31442999D+05 0.31442999D+05 0.12127629D+01  1  2 15  2  6  2       21 0.113064233244D-02 0.100000000000D+01
  </mgrwgt>
  </event>
  <event>
  5     66 -.38788253E-03 0.38628007E+02 0.75467711E-02 0.12121052E+00
       -1 -1    0    0    0  501 0.00000000E+00 0.00000000E+00 0.30704979E+03 0.30704996E+03 0.32000000E+00 0.0000E+00 0.9000E+01
       21 -1    0    0  501  502 -.00000000E+00 -.00000000E+00 -.35156401E+03 0.35156481E+03 0.75000000E+00 0.0000E+00 0.9000E+01
       25  1    1    2    0    0 -.13403182E+02 0.18303096E+02 0.23856488E+03 0.27028291E+03 0.12500000E+03 0.0000E+00 0.9000E+01
       23  1    1    2    0    0 -.22559282E+02 -.32403551E+02 0.32370722E+01 0.99421533E+02 0.91188000E+02 0.0000E+00 0.9000E+01
       -1  1    1    2    0  502 0.35962464E+02 0.14100456E+02 -.28631617E+03 0.28891032E+03 0.32000000E+00 0.0000E+00 0.9000E+01
#aMCatNLO 1  0  0  5  5 0.10241729D+02 0.00000000D+00  -5  6  0 0.00000000D+00 0.00000000D+00 0.00000000D+00 0.00000000D+00 0.00000000D+00
  <mgrwgt>
 -.1792000903D-01    6    2    0
 0.328554368725744D+03 0.000000000000000D+00 0.000000000000000D+00 0.328554368725744D+03
 0.328554368725744D+03 -.000000000000000D+00 -.000000000000000D+00 -.328554368725744D+03
 0.287063436623568D+03 -.134031930204186D+02 0.183030911802232D+02 0.257421382010584D+03
 0.998686893909458D+02 -.225592858672784D+02 -.324035527738511D+02 0.997958743916161D+01
 0.270176611436974D+03 0.359624788876971D+02 0.141004615936279D+02 -.267400969449746D+03
 0.000000000000000D+00 0.000000000000000D+00 0.000000000000000D+00 -.000000000000000D+00
 0.328554368725744D+03 0.000000000000000D+00 0.000000000000000D+00 0.328554368725744D+03
 0.328554368725744D+03 -.000000000000000D+00 -.000000000000000D+00 -.328554368725744D+03
 0.285375935633574D+03 -.131507349223300D+02 0.184020770072908D+02 0.255544216079250D+03
 0.997743254527086D+02 -.224712389958248D+02 -.323690306394552D+02 0.932491013348348D+01
 0.257209992020156D+03 0.440230431221042D+02 0.159568902535876D+02 -.252911702621118D+03
 0.147484843450483D+02 -.840106920394922D+01 -.198993662142313D+01 -.119574235916149D+02
0.262727761934D-04 0.000000000000D+00 0.000000000000D+00 0.466524698117D-05 0.000000000000D+00  6 -1 21 25 23 -1 21 2 0.47238504D-01 0.54086845D-01 0.17561384D+05 0.17561384D+05 0.17561384D+05 0.12400919D+01  1  2  2  3  6  5       -1 0.564167156684D-02 0.100000000000D+01
0.520161244214D-05 0.138645249036D-05 -.530371656121D-07 0.466524698117D-05 0.000000000000D+00  6 -1 21 25 23 -1 21 4 0.47238504D-01 0.54086845D-01 0.17561384D+05 0.17561384D+05 0.17561384D+05 0.12400919D+01  1  2  3  3  6  5       -1 0.171770100644D-02 0.100000000000D+01
0.153284772186D-05 0.000000000000D+00 0.000000000000D+00 0.466524698117D-05 0.000000000000D+00  6 -1 21 25 23 -1 21 4 0.47238504D-01 0.54086845D-01 0.17561384D+05 0.17561384D+05 0.17561384D+05 0.12400919D+01  1  2 15  3  6  5       -1 0.506184208038D-03 0.100000000000D+01
-.952483484812D-04 0.000000000000D+00 0.000000000000D+00 0.466524698117D-05 0.000000000000D+00  6 -1 21 25 23 -1 21 4 0.47238504D-01 0.54086845D-01 0.17561384D+05 0.17561384D+05 0.17561384D+05 0.12400919D+01  1  2  4  3  6  5       -1 -.314533591011D-01 0.100000000000D+01
-.306075185948D-03 0.000000000000D+00 0.000000000000D+00 0.466524698117D-05 0.000000000000D+00  6 -1 21 25 23 -1 21 4 0.47238504D-01 0.54086845D-01 0.17561384D+05 0.17561384D+05 0.17561384D+05 0.12400919D+01  1  2  5  3  6  5       -1 -.101073592236D+00 0.100000000000D+01
0.323238629399D-03 0.000000000000D+00 -.000000000000D+00 0.466524698117D-05 0.000000000000D+00  6 -1 21 25 23 -1 21 4 0.47238504D-01 0.54086845D-01 0.17561384D+05 0.17561384D+05 0.17561384D+05 0.12400919D+01  1  2  6  3  6  5       -1 0.106741385525D+00 0.100000000000D+01
  </mgrwgt>
  </event>
  <event>
  5     66 0.38788253E-03 0.37828043E+02 0.75467711E-02 0.11380741E+00
       -1 -1    0    0    0  501 0.00000000E+00 0.00000000E+00 0.56315052E+03 0.56315061E+03 0.32000000E+00 0.0000E+00 0.9000E+01
       21 -1    0    0  501  502 0.00000000E+00 0.00000000E+00 -.43758558E+02 0.43764985E+02 0.75000000E+00 0.0000E+00 0.9000E+01
       25  1    1    2    0    0 -.31819941E+02 0.15423426E+02 0.18003005E+03 0.22200498E+03 0.12500000E+03 0.0000E+00 0.9000E+01
       23  1    1    2    0    0 0.34238951E+02 -.53173540E+02 0.32667736E+03 0.34501171E+03 0.91188000E+02 0.0000E+00 0.9000E+01
       -1  1    1    2    0  502 -.24190101E+01 0.37750113E+02 0.12684550E+02 0.39898908E+02 0.32000000E+00 0.0000E+00 0.9000E+01
#aMCatNLO 1  0  0  2  5 0.12854641D+03 0.00000000D+00  -5  6  0 0.00000000D+00 0.00000000D+00 0.00000000D+00 0.00000000D+00 0.00000000D+00
  <mgrwgt>
 0.2306159295D-01    3    2    0
 0.156986090362354D+03 0.000000000000000D+00 0.000000000000000D+00 0.156986090362354D+03
 0.156986090362354D+03 0.000000000000000D+00 0.000000000000000D+00 -.156986090362354D+03
 0.131324048693769D+03 -.318199242573978D+02 0.154231699431786D+02 -.192515977124198D+02
 0.126506326795336D+03 0.342389665808249D+02 -.531737867984990D+02 0.607358291310274D+02
 0.561418052356025D+02 -.241904232342710D+01 0.377506168553204D+02 -.414842314186075D+02
 0.000000000000000D+00 0.000000000000000D+00 0.000000000000000D+00 0.000000000000000D+00
 0.234754383611817D+03 0.000000000000000D+00 0.000000000000000D+00 0.234754383611817D+03
 0.233070957108792D+03 0.000000000000000D+00 0.000000000000000D+00 -.233070957108792D+03
 0.141827763074788D+03 -.550081805832152D+02 -.330694788776846D+02 -.192515977124198D+02
 0.150291599205555D+03 0.107411862915194D+02 -.102313730381511D+03 0.607358291310274D+02
 0.471485419289861D+02 -.111875107825144D+02 0.194134786199664D+02 -.414842314186075D+02
 0.128557436511281D+03 0.554545050742102D+02 0.115969730639229D+03 0.168342650302530D+01
0.624665777247D-05 0.000000000000D+00 0.000000000000D+00 0.582445377770D-06 0.000000000000D+00  6 -1 21 25 23 -1 21 2 0.86639043D-01 0.67325872D-02 0.19419306D+05 0.19419306D+05 0.19419306D+05 0.12352373D+01  1  2  2  2  6  2       21 0.198758860182D-01 0.100000000000D+01
0.165375788264D-06 0.329645187143D-06 -.126102023007D-07 0.582445377770D-06 0.000000000000D+00  6 -1 21 25 23 -1 21 4 0.86639043D-01 0.67325872D-02 0.19419306D+05 0.19419306D+05 0.19419306D+05 0.12352373D+01  1  2  3  2  6  2       21 0.802881599465D-03 0.100000000000D+01
0.490809128610D-06 0.000000000000D+00 0.000000000000D+00 0.582445377770D-06 0.000000000000D+00  6 -1 21 25 23 -1 21 4 0.86639043D-01 0.67325872D-02 0.19419306D+05 0.19419306D+05 0.19419306D+05 0.12352373D+01  1  2 15  2  6  2       21 0.238282533584D-02 0.100000000000D+01
  </mgrwgt>
  </event>
  <event>
  6     66 -.38788253E-03 0.23275917E+02 0.75467711E-02 0.11706098E+00
       -3 -1    0    0    0  503 0.00000000E+00 0.00000000E+00 0.37724670E+03 0.37724703E+03 0.50000000E+00 0.0000E+00 0.9000E+01
       21 -1    0    0  501  502 0.00000000E+00 0.00000000E+00 -.99885001E+02 0.99887817E+02 0.75000000E+00 0.0000E+00 0.9000E+01
       25  1    1    2    0    0 -.11515442E+03 0.58420912E+02 0.13569194E+03 0.22519069E+03 0.12500000E+03 0.0000E+00 0.9000E+01
       23  1    1    2    0    0 0.89412454E+02 -.36845840E+02 0.14927731E+03 0.19987789E+03 0.91188000E+02 0.0000E+00 0.9000E+01
       -3  1    1    2    0  502 0.27806432E+02 -.95191099E+01 -.19270924E+02 0.35148679E+02 0.50000000E+00 0.0000E+00 0.9000E+01
       21  1    1    2  501  503 -.20644690E+01 -.12055962E+02 0.11663369E+02 0.16917593E+02 0.75000000E+00 0.0000E+00 0.9000E+01
#aMCatNLO 2  0  0  1  2 0.12231445D+02 0.00000000D+00  -5  6  0 0.00000000D+00 0.00000000D+00 0.00000000D+00 0.00000000D+00 0.00000000D+00
  <mgrwgt>
 -.2018377791D-01    3    2    0
 0.187786254687186D+03 0.000000000000000D+00 0.000000000000000D+00 0.187786254687186D+03
 0.187786254687186D+03 0.000000000000000D+00 0.000000000000000D+00 -.187786254687186D+03
 0.178706076413200D+03 -.116140134057243D+03 0.526677446990173D+02 0.695986181507647D+01
 0.140010535570293D+03 0.886447452741823D+02 -.413265811554048D+02 0.414960426060303D+02
 0.568558973908783D+02 0.274953887830612D+02 -.113411635436126D+02 -.484559044211067D+02
 0.000000000000000D+00 -.000000000000000D+00 -.000000000000000D+00 0.000000000000000D+00
 0.195271945529288D+03 0.000000000000000D+00 0.000000000000000D+00 0.195271945529288D+03
 0.192949639088653D+03 0.000000000000000D+00 0.000000000000000D+00 -.192949639088653D+03
 0.179853063280020D+03 -.115154920773439D+03 0.584211341586673D+02 0.695986181507647D+01
 0.139245441334393D+03 0.894120571833524D+02 -.368456790775987D+02 0.414960426060303D+02
 0.566731255758001D+02 0.278073325857484D+02 -.951949282937643D+01 -.484559044211067D+02
 0.124499544277275D+02 -.206446899566221D+01 -.120559622516922D+02 0.232230644063480D+01
-.200428324496D-04 0.000000000000D+00 0.000000000000D+00 0.656543721794D-06 0.000000000000D+00  6 -3 21 25 23 -3 21 4 0.58776265D-01 0.14955065D-01 0.31375054D+05 0.31375054D+05 0.31375054D+05 0.12128610D+01  1  2 13  1  6  1       -3 -.242048049189D-01 0.100000000000D+01
-.158303811494D-05 0.000000000000D+00 0.000000000000D+00 0.660010985078D-06 0.000000000000D+00  6 -3 21 25 23 -3 21 4 0.55810070D-01 0.14955065D-01 0.29246642D+05 0.29246642D+05 0.29246642D+05 0.12160593D+01  1  2  8  1  6  1       -3 -.214637505845D-02 0.100000000000D+01
0.522663128012D-05 0.000000000000D+00 0.000000000000D+00 0.660010985078D-06 0.357631914168D-07  6 -3 21 25 23 -3 21 4 0.58034818D-01 0.15366271D-01 0.31375054D+05 0.31375054D+05 0.31375054D+05 0.12128610D+01  1  2  1  1  6  1       -3 0.616740206850D-02 0.100000000000D+01
  </mgrwgt>
  </event>
  <event>
  6     66 -.38788253E-03 0.18319131E+02 0.75467711E-02 0.12184462E+00
       -1 -1    0    0    0  503 0.00000000E+00 0.00000000E+00 0.45831287E+03 0.45831299E+03 0.32000000E+00 0.0000E+00 0.9000E+01
       21 -1    0    0  501  502 0.00000000E+00 0.00000000E+00 -.11016432E+03 0.11016688E+03 0.75000000E+00 0.0000E+00 0.9000E+01
       25  1    1    2    0    0 0.26953041E+02 -.55111747E+01 0.27763284E+03 0.30571528E+03 0.12500000E+03 0.0000E+00 0.9000E+01
       23  1    1    2    0    0 0.17243235E+02 -.15816490E+02 0.11179921E+03 0.14615679E+03 0.91188000E+02 0.0000E+00 0.9000E+01
       -1  1    1    2    0  502 -.28086039E+02 0.72665512E+01 -.72883239E+02 0.78445506E+02 0.32000000E+00 0.0000E+00 0.9000E+01
       21  1    1    2  501  503 -.16110237E+02 0.14061113E+02 0.31599737E+02 0.38162292E+02 0.75000000E+00 0.0000E+00 0.9000E+01
#aMCatNLO 2  0  0  1  2 0.21383513D+02 0.00000000D+00  -5  6  0 0.00000000D+00 0.00000000D+00 0.00000000D+00 0.00000000D+00 0.00000000D+00
  <mgrwgt>
 -.3801427659D-01    2    2    0
 0.212471363147411D+03 0.000000000000000D+00 0.000000000000000D+00 0.212471363147411D+03
 0.212471363147411D+03 0.000000000000000D+00 0.000000000000000D+00 -.212471363147411D+03
 0.173506125241162D+03 0.203607180311483D+02 0.242660382172143D+00 0.118594931482744D+03
 0.979412566136823D+02 0.135125707492795D+02 -.125603341544584D+02 0.306086072982948D+02
 0.153495344439979D+03 -.338732887804278D+02 0.123176737722863D+02 -.149203538781039D+03
 0.000000000000000D+00 -.000000000000000D+00 0.000000000000000D+00 0.000000000000000D+00
 0.230258973317039D+03 0.000000000000000D+00 0.000000000000000D+00 0.230258973317039D+03
 0.219265412786624D+03 0.000000000000000D+00 0.000000000000000D+00 -.219265412786624D+03
 0.174489538975888D+03 0.269530747147206D+02 -.551118880496540D+01 0.118594931482744D+03
 0.989930782475614D+02 0.172432533759389D+02 -.158164967423178D+02 0.306086072982948D+02
 0.151997788050273D+03 -.280860911201103D+02 0.726657229948519D+01 -.149203538781039D+03
 0.240439808299403D+02 -.161102369705492D+02 0.140611132477980D+02 0.109935605304145D+02
-.286581918994D-04 0.000000000000D+00 0.000000000000D+00 0.412029244207D-05 0.000000000000D+00  6 -1 21 25 23 -1 21 4 0.71485455D-01 0.16422971D-01 0.18567893D+05 0.18567893D+05 0.18567893D+05 0.12373943D+01  1  2 13  1  6  1       -1 -.431571132736D-01 0.100000000000D+01
0.351926604285D-05 0.000000000000D+00 0.000000000000D+00 0.416159852039D-05 0.934490363164D-07  6 -1 21 25 23 -1 21 4 0.70508023D-01 0.16948117D-01 0.18567893D+05 0.18567893D+05 0.18567893D+05 0.12373943D+01  1  2  1  1  6  1       -1 0.514283668433D-02 0.100000000000D+01
  </mgrwgt>
  </event>
  <event>
  5     66 -.38788253E-03 0.32871836E+02 0.75467711E-02 0.12181393E+00
       -3 -1    0    0    0  501 0.00000000E+00 0.00000000E+00 0.46173984E+02 0.46176692E+02 0.50000000E+00 0.0000E+00 0.9000E+01
       21 -1    0    0  501  502 -.00000000E+00 -.00000000E+00 -.68346390E+03 0.68346431E+03 0.75000000E+00 0.0000E+00 0.9000E+01
       25  1    1    2    0    0 0.29826908E+02 0.10084612E+02 -.25029208E+03 0.28153591E+03 0.12500000E+03 0.0000E+00 0.9000E+01
       23  1    1    2    0    0 -.62625767E+02 -.12268274E+02 -.39813109E+03 0.41339583E+03 0.91188000E+02 0.0000E+00 0.9000E+01
       -3  1    1    2    0  502 0.32798858E+02 0.21836629E+01 0.11133254E+02 0.34709261E+02 0.50000000E+00 0.0000E+00 0.9000E+01
#aMCatNLO 1  0  0  5  2 0.44742152D+01 0.00000000D+00  -5  6  0 0.00000000D+00 0.00000000D+00 0.00000000D+00 0.00000000D+00 0.00000000D+00
  <mgrwgt>
 -.8846426467D-03    8    2    0
 0.177649624903980D+03 0.000000000000000D+00 0.000000000000000D+00 0.177649624903980D+03
 0.177649624903980D+03 -.000000000000000D+00 -.000000000000000D+00 -.177649624903980D+03
 0.129219306048347D+03 0.298267294008720D+02 0.100845995941065D+02 -.901643609693145D+01
 0.134832113052869D+03 -.626259536697154D+02 -.122682868496991D+02 -.761047070228501D+02
 0.912478307067432D+02 0.327992242688434D+02 0.218368725559259D+01 0.851211431197816D+02
 0.000000000000000D+00 0.000000000000000D+00 0.000000000000000D+00 0.000000000000000D+00
 0.177649624903980D+03 0.000000000000000D+00 0.000000000000000D+00 0.177649624903980D+03
 0.177649624903980D+03 -.000000000000000D+00 -.000000000000000D+00 -.177649624903980D+03
 0.129222971509375D+03 0.298911900971399D+02 0.100888912200234D+02 -.884914652606717D+01
 0.134702069953112D+03 -.625587264293864D+02 -.122638110344562D+02 -.759302376665419D+02
 0.606439524195575D+02 0.175970205537715D+02 0.204956272023492D+01 0.579985614076032D+02
 0.307302559259148D+02 0.150705157784750D+02 0.125357094197941D+00 0.267808227850059D+02
0.574198323346D-06 0.000000000000D+00 0.000000000000D+00 0.116034247243D-06 0.000000000000D+00  6 -3 21 25 23 -3 21 2 0.71039298D-02 0.10514853D+00 0.18642702D+05 0.18642702D+05 0.18642702D+05 0.12372004D+01  1  2  2  3  6  5       -3 0.406527356631D-03 0.100000000000D+01
-.741779925594D-07 0.303012780036D-07 -.115914098097D-08 0.116034247243D-06 0.000000000000D+00  6 -3 21 25 23 -3 21 4 0.71039298D-02 0.10514853D+00 0.18642702D+05 0.18642702D+05 0.18642702D+05 0.12372004D+01  1  2  3  3  6  5       -3 -.803864807630D-04 0.100000000000D+01
0.679107420466D-07 0.000000000000D+00 0.000000000000D+00 0.116034247243D-06 0.000000000000D+00  6 -3 21 25 23 -3 21 4 0.71039298D-02 0.10514853D+00 0.18642702D+05 0.18642702D+05 0.18642702D+05 0.12372004D+01  1  2 15  3  6  5       -3 0.735946791059D-04 0.100000000000D+01
0.224942753832D-05 0.000000000000D+00 0.000000000000D+00 0.116041394011D-06 0.000000000000D+00  6 -3 21 25 23 -3 21 4 0.71039298D-02 0.10514853D+00 0.18627978D+05 0.18627978D+05 0.18627978D+05 0.12372385D+01  1  2 12  3  6  5       -3 0.243798071747D-02 0.100000000000D+01
-.188702142538D-04 0.000000000000D+00 0.000000000000D+00 0.116034247243D-06 0.000000000000D+00  6 -3 21 25 23 -3 21 4 0.71039298D-02 0.10514853D+00 0.18642702D+05 0.18642702D+05 0.18642702D+05 0.12372004D+01  1  2  4  3  6  5       -3 -.204495978223D-01 0.100000000000D+01
-.105606948775D-04 0.000000000000D+00 0.000000000000D+00 0.116034247243D-06 0.000000000000D+00  6 -3 21 25 23 -3 21 4 0.71039298D-02 0.10514853D+00 0.18642702D+05 0.18642702D+05 0.18642702D+05 0.12372004D+01  1  2  5  3  6  5       -3 -.114445951734D-01 0.100000000000D+01
0.146690221882D-04 0.000000000000D+00 -.000000000000D+00 0.116034247243D-06 0.000000000000D+00  6 -3 21 25 23 -3 21 4 0.71039298D-02 0.10514853D+00 0.18642702D+05 0.18642702D+05 0.18642702D+05 0.12372004D+01  1  2  6  3  6  5       -3 0.158967778617D-01 0.100000000000D+01
0.113257046236D-04 0.000000000000D+00 0.000000000000D+00 0.116034247243D-06 0.310992698220D-07  6 -3 21 25 23 -3 21 4 0.71039298D-02 0.10514853D+00 0.18627978D+05 0.18627978D+05 0.18627978D+05 0.12372385D+01  1  2 11  3  6  5       -3 0.122750562148D-01 0.100000000000D+01
  </mgrwgt>
  </event>
  <event>
  5     66 0.38788253E-03 0.71427298E+02 0.75467711E-02 0.10103441E+00
       -1 -1    0    0    0  501 0.00000000E+00 0.00000000E+00 0.38587773E+03 0.38587786E+03 0.32000000E+00 0.0000E+00 0.9000E+01
       21 -1    0    0  501  502 0.00000000E+00 0.00000000E+00 -.67403134E+03 0.67403175E+03 0.75000000E+00 0.0000E+00 0.9000E+01
       25  1    1    2    0    0 0.38114002E+03 0.29935203E+03 -.18622156E+03 0.53402512E+03 0.12500000E+03 0.0000E+00 0.9000E+01
       23  1    1    2    0    0 -.30982807E+03 -.30339797E+03 -.74358506E+02 0.44931971E+03 0.91188000E+02 0.0000E+00 0.9000E+01
       -1  1    1    2    0  502 -.71311956E+02 0.40459388E+01 -.27573537E+02 0.76564790E+02 0.32000000E+00 0.0000E+00 0.9000E+01
#aMCatNLO 1  0  0  2  1 0.11635825D+02 0.00000000D+00  -5  6  0 0.00000000D+00 0.00000000D+00 0.00000000D+00 0.00000000D+00 0.00000000D+00
  <mgrwgt>
 0.1689795625D+00   23    4    0
 0.509994092376166D+03 0.000000000000000D+00 0.000000000000000D+00 0.509994092376166D+03
 0.509994092376166D+03 0.000000000000000D+00 0.000000000000000D+00 -.509994092376166D+03
 0.502317780119708D+03 0.381140372736834D+03 0.299352014376107D+03 -.426443429235937D+02
 0.445898699083011D+03 -.309827757885945D+03 -.303397990538675D+03 0.496670744093550D+02
 0.717717055496133D+02 -.713126148508890D+02 0.404597616256745D+01 -.702273148576131D+01
 0.000000000000000D+00 0.000000000000000D+00 -.000000000000000D+00 -.000000000000000D+00
 0.515408107805609D+03 0.000000000000000D+00 0.000000000000000D+00 0.515408107805609D+03
 0.516317772695782D+03 0.000000000000000D+00 0.000000000000000D+00 -.516317772695782D+03
 0.500463716942536D+03 0.376284592885095D+03 0.302374432037255D+03 -.426443429235937D+02
 0.447099411341741D+03 -.314151932439370D+03 -.300706463752206D+03 0.496670744093550D+02
 0.724914239082221D+02 -.720111817863804D+02 0.448079015903936D+01 -.702273148576131D+01
 0.116713283088921D+02 0.987852134065547D+01 -.614875844408829D+01 -.909664890173689D+00
 0.509994092376166D+03 0.000000000000000D+00 0.000000000000000D+00 0.509994092376166D+03
 0.509994092376166D+03 0.000000000000000D+00 0.000000000000000D+00 -.509994092376166D+03
 0.502317780119708D+03 0.381140372736834D+03 0.299352014376107D+03 -.426443429235937D+02
 0.445898699083011D+03 -.309827757885945D+03 -.303397990538675D+03 0.496670744093550D+02
 0.000000000000000D+00 0.000000000000000D+00 -.000000000000000D+00 -.000000000000000D+00
 0.717717055496133D+02 -.713126148508890D+02 0.404597616256745D+01 -.702273148576131D+01
 0.515408107805609D+03 0.000000000000000D+00 0.000000000000000D+00 0.515408107805609D+03
 0.516317772695782D+03 0.000000000000000D+00 0.000000000000000D+00 -.516317772695782D+03
 0.500463716942536D+03 0.376284592885095D+03 0.302374432037255D+03 -.426443429235937D+02
 0.447099411341741D+03 -.314151932439370D+03 -.300706463752206D+03 0.496670744093550D+02
 0.116713283088921D+02 0.987852134065547D+01 -.614875844408829D+01 -.909664890173689D+00
 0.724914239082221D+02 -.720111817863804D+02 0.448079015903936D+01 -.702273148576131D+01
0.869490563053D-03 0.000000000000D+00 0.000000000000D+00 0.230442318400D-07 0.000000000000D+00  6 -1 21 25 23 -1 21 2 0.59365847D-01 0.10369717D+00 0.25758447D+06 0.25758447D+06 0.25758447D+06 0.11276108D+01  1  2  2  2  6  2       21 0.203272743223D-01 0.100000000000D+01
0.689304936902D-04 0.458842776116D-04 -.175525093547D-05 0.230442318400D-07 0.000000000000D+00  6 -1 21 25 23 -1 21 4 0.59365847D-01 0.10369717D+00 0.25758447D+06 0.25758447D+06 0.25758447D+06 0.11276108D+01  1  2  3  2  6  2       21 0.204901035260D-02 0.100000000000D+01
0.118147662045D-03 0.000000000000D+00 0.000000000000D+00 0.230442318400D-07 0.000000000000D+00  6 -1 21 25 23 -1 21 4 0.59365847D-01 0.10369717D+00 0.25758447D+06 0.25758447D+06 0.25758447D+06 0.11276108D+01  1  2 15  2  6  2       21 0.351202740188D-02 0.100000000000D+01
0.647675827539D-03 0.000000000000D+00 0.000000000000D+00 0.230103338310D-07 0.000000000000D+00  6 -1 21 25 23 -1 21 4 0.59365847D-01 0.10552707D+00 0.26356004D+06 0.26356004D+06 0.26356004D+06 0.11267812D+01  1  2 12  2  6  2       21 0.183595456401D-01 0.100000000000D+01
-.136426353807D-03 0.000000000000D+00 0.000000000000D+00 0.230442318400D-07 0.000000000000D+00  6 -1 21 25 23 -1 21 4 0.59365847D-01 0.10369717D+00 0.25758447D+06 0.25758447D+06 0.25758447D+06 0.11276108D+01  1  2  4  2  6  2       21 -.405537515188D-02 0.100000000000D+01
-.956296936360D-01 0.000000000000D+00 -.117608908702D-01 0.230442318400D-07 0.000000000000D+00  6 -1 21 25 23 -1 21 4 0.59365847D-01 0.10587113D+00 0.25758447D+06 0.25758447D+06 0.25758447D+06 0.11276108D+01  1  2  5  2  6  2       21 -.270076071338D+01 0.100000000000D+01
0.957922671840D-01 0.000000000000D+00 0.117507715925D-01 0.230442318400D-07 0.000000000000D+00  6 -1 21 25 23 -1 21 4 0.59365847D-01 0.10369717D+00 0.25758447D+06 0.25758447D+06 0.25758447D+06 0.11276108D+01  1  2  6  2  6  2       21 0.284749661073D+01 0.100000000000D+01
0.328094058669D-04 0.000000000000D+00 0.000000000000D+00 0.230103338310D-07 0.000000000000D+00  6 -1 -1 25 23 -1 -1 4 0.59365847D-01 0.10552707D+00 0.26356004D+06 0.26356004D+06 0.26356004D+06 0.11267812D+01  1  2 12  5  6  2       21 0.114870361046D-03 0.100000000000D+01
-.400575186639D-03 0.000000000000D+00 -.559155710959D-04 0.230442318400D-07 0.000000000000D+00  6 -1 -1 25 23 -1 -1 4 0.59365847D-01 0.10587113D+00 0.25758447D+06 0.25758447D+06 0.25758447D+06 0.11276108D+01  1  2  5  5  6  2       21 -.139709059896D-02 0.100000000000D+01
0.328094058669D-04 0.000000000000D+00 0.000000000000D+00 0.230103338310D-07 0.000000000000D+00  6 -1 1 25 23 1 -1 4 0.59365847D-01 0.10552707D+00 0.26356004D+06 0.26356004D+06 0.26356004D+06 0.11267812D+01  3  4 12  6  5  2       21 0.445382981548D-03 0.100000000000D+01
-.400575186639D-03 0.000000000000D+00 -.559155710959D-04 0.230442318400D-07 0.000000000000D+00  6 -1 1 25 23 1 -1 4 0.59365847D-01 0.10587113D+00 0.25758447D+06 0.25758447D+06 0.25758447D+06 0.11276108D+01  3  4  5  6  5  2       21 -.543105857389D-02 0.100000000000D+01
0.328094058669D-04 0.000000000000D+00 0.000000000000D+00 0.230103338310D-07 0.000000000000D+00  6 -1 -2 25 23 -1 -2 4 0.59365847D-01 0.10552707D+00 0.26356004D+06 0.26356004D+06 0.26356004D+06 0.11267812D+01  1  2 12  7  6  2       21 0.860147060612D-04 0.100000000000D+01
0.328094058669D-04 0.000000000000D+00 0.000000000000D+00 0.230103338310D-07 0.000000000000D+00  6 -1 -4 25 23 -1 -4 4 0.59365847D-01 0.10552707D+00 0.26356004D+06 0.26356004D+06 0.26356004D+06 0.11267812D+01  1  2 12  7  6  2       21 0.458468514803D-04 0.100000000000D+01
-.400575186639D-03 0.000000000000D+00 -.559155710959D-04 0.230442318400D-07 0.000000000000D+00  6 -1 -2 25 23 -1 -2 4 0.59365847D-01 0.10587113D+00 0.25758447D+06 0.25758447D+06 0.25758447D+06 0.11276108D+01  1  2  5  7  6  2       21 -.104575085862D-02 0.100000000000D+01
-.400575186639D-03 0.000000000000D+00 -.559155710959D-04 0.230442318400D-07 0.000000000000D+00  6 -1 -4 25 23 -1 -4 4 0.59365847D-01 0.10587113D+00 0.25758447D+06 0.25758447D+06 0.25758447D+06 0.11276108D+01  1  2  5  7  6  2       21 -.557114725641D-03 0.100000000000D+01
0.328094058669D-04 0.000000000000D+00 0.000000000000D+00 0.230103338310D-07 0.000000000000D+00  6 -1 2 25 23 2 -1 4 0.59365847D-01 0.10552707D+00 0.26356004D+06 0.26356004D+06 0.26356004D+06 0.11267812D+01  3  4 12  8  5  2       21 0.753493649740D-03 0.100000000000D+01
0.328094058669D-04 0.000000000000D+00 0.000000000000D+00 0.230103338310D-07 0.000000000000D+00  6 -1 4 25 23 4 -1 4 0.59365847D-01 0.10552707D+00 0.26356004D+06 0.26356004D+06 0.26356004D+06 0.11267812D+01  3  4 12  8  5  2       21 0.458468514803D-04 0.100000000000D+01
-.400575186639D-03 0.000000000000D+00 -.559155710959D-04 0.230442318400D-07 0.000000000000D+00  6 -1 2 25 23 2 -1 4 0.59365847D-01 0.10587113D+00 0.25758447D+06 0.25758447D+06 0.25758447D+06 0.11276108D+01  3  4  5  8  5  2       21 -.919462986394D-02 0.100000000000D+01
-.400575186639D-03 0.000000000000D+00 -.559155710959D-04 0.230442318400D-07 0.000000000000D+00  6 -1 4 25 23 4 -1 4 0.59365847D-01 0.10587113D+00 0.25758447D+06 0.25758447D+06 0.25758447D+06 0.11276108D+01  3  4  5  8  5  2       21 -.557114725641D-03 0.100000000000D+01
0.328094058669D-04 0.000000000000D+00 0.000000000000D+00 0.230103338310D-07 0.000000000000D+00  6 -1 -3 25 23 -1 -3 4 0.59365847D-01 0.10552707D+00 0.26356004D+06 0.26356004D+06 0.26356004D+06 0.11267812D+01  1  2 12  9  6  2       21 0.563018746444D-04 0.100000000000D+01
-.400575186639D-03 0.000000000000D+00 -.559155710959D-04 0.230442318400D-07 0.000000000000D+00  6 -1 -3 25 23 -1 -3 4 0.59365847D-01 0.10587113D+00 0.25758447D+06 0.25758447D+06 0.25758447D+06 0.11276108D+01  1  2  5  9  6  2       21 -.684366048144D-03 0.100000000000D+01
0.328094058669D-04 0.000000000000D+00 0.000000000000D+00 0.230103338310D-07 0.000000000000D+00  6 -1 3 25 23 3 -1 4 0.59365847D-01 0.10552707D+00 0.26356004D+06 0.26356004D+06 0.26356004D+06 0.11267812D+01  3  4 12 10  5  2       21 0.564252887973D-04 0.100000000000D+01
-.400575186639D-03 0.000000000000D+00 -.559155710959D-04 0.230442318400D-07 0.000000000000D+00  6 -1 3 25 23 3 -1 4 0.59365847D-01 0.10587113D+00 0.25758447D+06 0.25758447D+06 0.25758447D+06 0.11276108D+01  3  4  5 10  5  2       21 -.685874562054D-03 0.100000000000D+01
  </mgrwgt>
  </event>
  <event>
  5     66 0.38788253E-03 0.26662625E+02 0.75467711E-02 0.11652783E+00
       -1 -1    0    0    0  501 0.00000000E+00 0.00000000E+00 0.38974784E+03 0.38974797E+03 0.32000000E+00 0.0000E+00 0.9000E+01
       21 -1    0    0  501  502 0.00000000E+00 0.00000000E+00 -.79560584E+02 0.79564119E+02 0.75000000E+00 0.0000E+00 0.9000E+01
       25  1    1    2    0    0 -.42579286E+02 -.90688618E+02 0.13932465E+03 0.21230587E+03 0.12500000E+03 0.0000E+00 0.9000E+01
       23  1    1    2    0    0 0.54226497E+02 0.11467156E+03 0.16919984E+03 0.23029094E+03 0.91188000E+02 0.0000E+00 0.9000E+01
       -1  1    1    2    0  502 -.11647211E+02 -.23982945E+02 0.16627607E+01 0.26715283E+02 0.32000000E+00 0.0000E+00 0.9000E+01
#aMCatNLO 1  0  0  1  2 0.21468975D+02 0.00000000D+00  -5  6  0 0.00000000D+00 0.00000000D+00 0.00000000D+00 0.00000000D+00 0.00000000D+00
  <mgrwgt>
 0.9721212303D-01    9    4    0
 0.176094934100267D+03 0.000000000000000D+00 0.000000000000000D+00 0.176094934100267D+03
 0.176094934100267D+03 0.000000000000000D+00 0.000000000000000D+00 -.176094934100267D+03
 0.160200117167042D+03 -.425790529846181D+02 -.906881382904006D+02 -.132791591917327D+01
 0.157854791627982D+03 0.542267261881678D+02 0.114672035020542D+03 0.226422270785089D+02
 0.341349594055092D+02 -.116476732035497D+02 -.239838967301415D+02 -.213143111593356D+02
 0.000000000000000D+00 -.000000000000000D+00 0.000000000000000D+00 0.000000000000000D+00
 0.203987246555354D+03 0.000000000000000D+00 0.000000000000000D+00 0.203987246555354D+03
 0.180602016719001D+03 0.000000000000000D+00 0.000000000000000D+00 -.180602016719001D+03
 0.161318850750315D+03 -.343568103288973D+02 -.960032178144987D+02 -.132791591917327D+01
 0.157129035493139D+03 0.622818449141124D+02 0.109464988914373D+03 0.226422270785089D+02
 0.343957337315959D+02 -.989512966937524D+01 -.251167881617876D+02 -.213143111593356D+02
 0.317456432993060D+02 -.180299049158398D+02 0.116550170619131D+02 0.233852298363532D+02
 0.176094934100267D+03 0.000000000000000D+00 0.000000000000000D+00 0.176094934100267D+03
 0.176094934100267D+03 0.000000000000000D+00 0.000000000000000D+00 -.176094934100267D+03
 0.160200117167042D+03 -.425790529846181D+02 -.906881382904006D+02 -.132791591917327D+01
 0.157854791627982D+03 0.542267261881678D+02 0.114672035020542D+03 0.226422270785089D+02
 0.000000000000000D+00 -.000000000000000D+00 0.000000000000000D+00 0.000000000000000D+00
 0.341349594055092D+02 -.116476732035497D+02 -.239838967301415D+02 -.213143111593356D+02
 0.203987246555354D+03 0.000000000000000D+00 0.000000000000000D+00 0.203987246555354D+03
 0.180602016719001D+03 0.000000000000000D+00 0.000000000000000D+00 -.180602016719001D+03
 0.161318850750315D+03 -.343568103288973D+02 -.960032178144987D+02 -.132791591917327D+01
 0.157129035493139D+03 0.622818449141124D+02 0.109464988914373D+03 0.226422270785089D+02
 0.317456432993060D+02 -.180299049158398D+02 0.116550170619131D+02 0.233852298363532D+02
 0.343957337315959D+02 -.989512966937524D+01 -.251167881617876D+02 -.213143111593356D+02
0.525265243506D-05 0.000000000000D+00 0.000000000000D+00 0.496291315573D-06 0.000000000000D+00  6 -1 21 25 23 -1 21 2 0.59961488D-01 0.12240372D-01 0.29425924D+05 0.29425924D+05 0.29425924D+05 0.12157801D+01  1  2  2  1  6  1       -1 0.118921848868D-01 0.100000000000D+01
0.454179792997D-06 0.277190084366D-06 -.106035919101D-07 0.496291315573D-06 0.000000000000D+00  6 -1 21 25 23 -1 21 4 0.59961488D-01 0.12240372D-01 0.29425924D+05 0.29425924D+05 0.29425924D+05 0.12157801D+01  1  2  3  1  6  1       -1 0.151992036150D-02 0.100000000000D+01
0.443196899169D-06 0.000000000000D+00 0.000000000000D+00 0.496291315573D-06 0.000000000000D+00  6 -1 21 25 23 -1 21 4 0.59961488D-01 0.12240372D-01 0.29425924D+05 0.29425924D+05 0.29425924D+05 0.12157801D+01  1  2 15  1  6  1       -1 0.148316592149D-02 0.100000000000D+01
0.442027088925D-04 0.000000000000D+00 0.000000000000D+00 0.491661458266D-06 0.000000000000D+00  6 -1 21 25 23 -1 21 4 0.70145155D-01 0.12240372D-01 0.33355022D+05 0.33355022D+05 0.33355022D+05 0.12100958D+01  1  2 12  1  6  1       -1 0.106866476500D+00 0.100000000000D+01
-.243893473537D-04 0.000000000000D+00 0.000000000000D+00 0.496291315573D-06 0.000000000000D+00  6 -1 21 25 23 -1 21 4 0.59961488D-01 0.12240372D-01 0.29425924D+05 0.29425924D+05 0.29425924D+05 0.12157801D+01  1  2  4  1  6  1       -1 -.816193635607D-01 0.100000000000D+01
-.762276202993D-04 0.000000000000D+00 -.121615685458D-04 0.496291315573D-06 0.000000000000D+00  6 -1 21 25 23 -1 21 4 0.70681299D-01 0.12240372D-01 0.29425924D+05 0.29425924D+05 0.29425924D+05 0.12157801D+01  1  2  5  1  6  1       -1 -.185144947841D+00 0.100000000000D+01
0.773420722534D-04 0.000000000000D+00 0.119988980805D-04 0.496291315573D-06 0.000000000000D+00  6 -1 21 25 23 -1 21 4 0.59961488D-01 0.12240372D-01 0.29425924D+05 0.29425924D+05 0.29425924D+05 0.12157801D+01  1  2  6  1  6  1       -1 0.258826553341D+00 0.100000000000D+01
0.104534515773D-05 0.000000000000D+00 0.000000000000D+00 0.491661458266D-06 0.000000000000D+00  6 21 21 25 23 1 -1 4 0.70145155D-01 0.12240372D-01 0.33355022D+05 0.33355022D+05 0.33355022D+05 0.12100958D+01  3  4 12  4  5  1       -1 0.235043952420D-01 0.100000000000D+01
-.177281348606D-05 0.000000000000D+00 -.298714766017D-06 0.496291315573D-06 0.000000000000D+00  6 21 21 25 23 1 -1 4 0.70681299D-01 0.12240372D-01 0.29425924D+05 0.29425924D+05 0.29425924D+05 0.12157801D+01  3  4  5  4  5  1       -1 -.401162618250D-01 0.100000000000D+01
  </mgrwgt>
  </event>
  <event>
  6     66 0.38788253E-03 0.35566570E+02 0.75467711E-02 0.11971119E+00
       -3 -1    0    0    0  501 0.00000000E+00 0.00000000E+00 0.23667769E+03 0.23667822E+03 0.50000000E+00 0.0000E+00 0.9000E+01
       21 -1    0    0  501  502 0.00000000E+00 0.00000000E+00 -.14222540E+03 0.14222738E+03 0.75000000E+00 0.0000E+00 0.9000E+01
       25  1    1    2    0    0 0.34843706E+02 -.13991747E+02 0.90056635E+02 0.15857191E+03 0.12500000E+03 0.0000E+00 0.9000E+01
       23  1    1    2    0    0 -.28939953E+02 0.63762400E+02 0.62368478E+02 0.13079848E+03 0.91188000E+02 0.0000E+00 0.9000E+01
       -3  1    1    2    0  503 -.18659724E+02 -.39816074E+02 -.20112951E+02 0.48355826E+02 0.50000000E+00 0.0000E+00 0.9000E+01
       21  1    1    2  503  502 0.12755971E+02 -.99545788E+01 -.37859874E+02 0.41179376E+02 0.75000000E+00 0.0000E+00 0.9000E+01
#aMCatNLO 2  0  0  5  2 0.23135988D+02 0.00000000D+00  -5  6  0 0.00000000D+00 0.00000000D+00 0.00000000D+00 0.00000000D+00 0.00000000D+00
  <mgrwgt>
 0.9343455186D-02    1    2    0
 0.183472214239852D+03 0.000000000000000D+00 0.000000000000000D+00 0.183472214239852D+03
 0.183472214239852D+03 -.000000000000000D+00 -.000000000000000D+00 -.183472214239852D+03
 0.141768145578033D+03 0.350933173673936D+02 -.118874411758802D+02 0.556808308044672D+02
 0.120721259884648D+03 -.287280038986967D+02 0.655492015812643D+02 0.337101647606756D+02
 0.104455023017024D+03 -.636531346869691D+01 -.536617604053841D+02 -.893909955651427D+02
 0.000000000000000D+00 0.000000000000000D+00 0.000000000000000D+00 -.000000000000000D+00
 0.183472214239852D+03 0.000000000000000D+00 0.000000000000000D+00 0.183472214239852D+03
 0.183472214239852D+03 -.000000000000000D+00 -.000000000000000D+00 -.183472214239852D+03
 0.140561049137267D+03 0.348439220230440D+02 -.139899288664740D+02 0.521784584185106D+02
 0.119009738322223D+03 -.289397701487629D+02 0.637639399709942D+02 0.307362348806139D+02
 0.546492849894649D+02 -.186319567567464D+02 -.395585310852441D+02 -.327798284872307D+02
 0.527243560307493D+02 0.127278048824653D+02 -.102154800192760D+02 -.501348648118939D+02
0.581121139313D-05 0.000000000000D+00 0.000000000000D+00 0.731573684169D-06 0.428385024236D-07  6 -3 21 25 23 -3 21 4 0.36412145D-01 0.21881023D-01 0.23338174D+05 0.23338174D+05 0.23338174D+05 0.12265134D+01  1  2  1  3  6  5       -3 0.934345518618D-02 0.100000000000D+01
  </mgrwgt>
  </event>
  <event>
  6     66 0.38788253E-03 0.16912700E+02 0.75467711E-02 0.11840753E+00
       -3 -1    0    0    0  501 0.00000000E+00 0.00000000E+00 0.26382377E+03 0.26382425E+03 0.50000000E+00 0.0000E+00 0.9000E+01
       21 -1    0    0  501  502 0.00000000E+00 0.00000000E+00 -.18002989E+03 0.18003145E+03 0.75000000E+00 0.0000E+00 0.9000E+01
       25  1    1    2    0    0 0.60749434E+02 0.46345630E+01 0.15074272E+03 0.20508618E+03 0.12500000E+03 0.0000E+00 0.9000E+01
       23  1    1    2    0    0 -.97786017E+02 0.30260568E+02 0.16389400E+01 0.13709757E+03 0.91188000E+02 0.0000E+00 0.9000E+01
       -3  1    1    2    0  503 0.16624427E+02 -.23606915E+02 -.72471896E+02 0.78013356E+02 0.50000000E+00 0.0000E+00 0.9000E+01
       21  1    1    2  503  502 0.20412155E+02 -.11288216E+02 0.38841234E+01 0.23658589E+02 0.75000000E+00 0.0000E+00 0.9000E+01
#aMCatNLO 2  0  0  5  2 0.20335587D+02 0.00000000D+00  -5  6  0 0.00000000D+00 0.00000000D+00 0.00000000D+00 0.00000000D+00 0.00000000D+00
  <mgrwgt>
 0.4674955988D-02    1    2    0
 0.217937183239393D+03 0.000000000000000D+00 0.000000000000000D+00 0.217937183239393D+03
 0.217937183239393D+03 -.000000000000000D+00 -.000000000000000D+00 -.217937183239393D+03
 0.182504368442547D+03 0.586413043208355D+02 0.662080130684621D+01 0.119164621084530D+03
 0.140142081806944D+03 -.994116784943208D+02 0.317922332978427D+02 -.207635216199345D+02
 0.113227916229295D+03 0.407703741734853D+02 -.384130346046890D+02 -.984010994645953D+02
 0.000000000000000D+00 0.000000000000000D+00 0.000000000000000D+00 0.000000000000000D+00
 0.217937183239393D+03 0.000000000000000D+00 0.000000000000000D+00 0.217937183239393D+03
 0.217937183239393D+03 -.000000000000000D+00 -.000000000000000D+00 -.217937183239393D+03
 0.179846650304972D+03 0.607622622814173D+02 0.462247695524129D+01 0.114045595334328D+03
 0.139288147155933D+03 -.977760827932391D+02 0.302512076011546D+02 -.247111041116025D+02
 0.932162781436117D+02 0.164388326105868D+02 -.234890573045536D+02 -.886978211699233D+02
 0.235232908742695D+02 0.205749879012349D+02 -.113846272518422D+02 -.636670052802147D+00
0.571268726611D-05 0.000000000000D+00 0.000000000000D+00 0.387558073546D-06 0.142750879379D-07  6 -3 21 25 23 -3 21 4 0.40588429D-01 0.27697062D-01 0.26949488D+05 0.26949488D+05 0.26949488D+05 0.12198168D+01  1  2  1  3  6  5       -3 0.467495598828D-02 0.100000000000D+01
  </mgrwgt>
  </event>
  <event>
  6     66 -.38788253E-03 0.34546798E+02 0.75467711E-02 0.12085459E+00
       -3 -1    0    0    0  501 0.00000000E+00 0.00000000E+00 0.22762540E+03 0.22762595E+03 0.50000000E+00 0.0000E+00 0.9000E+01
       21 -1    0    0  503  502 0.00000000E+00 0.00000000E+00 -.11616174E+03 0.11616416E+03 0.75000000E+00 0.0000E+00 0.9000E+01
       25  1    1    2    0    0 0.14804427E+02 0.72538036E+02 0.23504852E+02 0.14716799E+03 0.12500000E+03 0.0000E+00 0.9000E+01
       23  1    1    2    0    0 0.99338313E+01 -.42889252E+02 0.10995716E+03 0.14947909E+03 0.91188000E+02 0.0000E+00 0.9000E+01
       -3  1    1    2    0  502 -.16478963E+02 -.27656936E+02 -.21256434E+02 0.38581710E+02 0.50000000E+00 0.0000E+00 0.9000E+01
       21  1    1    2  503  501 -.82592953E+01 -.19918479E+01 -.74190863E+00 0.85613284E+01 0.75000000E+00 0.0000E+00 0.9000E+01
#aMCatNLO 2  0  0  2  1 0.84960824D+01 0.00000000D+00  -5  6  0 0.00000000D+00 0.00000000D+00 0.00000000D+00 0.00000000D+00 0.00000000D+00
  <mgrwgt>
 -.1110828568D-01    3    2    0
 0.157889249488033D+03 0.000000000000000D+00 0.000000000000000D+00 0.157889249488033D+03
 0.157889249488033D+03 0.000000000000000D+00 0.000000000000000D+00 -.157889249488033D+03
 0.147036205655401D+03 0.109494280633850D+02 0.716089190207436D+02 -.273298100121972D+02
 0.119626036077874D+03 0.680659671197117D+01 -.436429646782371D+02 0.635932310784696D+02
 0.491162572427907D+02 -.177560247753561D+02 -.279659543425064D+02 -.362634210662724D+02
 0.000000000000000D+00 -.000000000000000D+00 -.000000000000000D+00 -.000000000000000D+00
 0.160691716336810D+03 0.000000000000000D+00 0.000000000000000D+00 0.160691716336810D+03
 0.164519677747299D+03 0.000000000000000D+00 0.000000000000000D+00 -.164519677747299D+03
 0.147827491339926D+03 0.148048611750036D+02 0.725387121897135D+02 -.273298100121972D+02
 0.119572066776711D+03 0.993418513801110D+01 -.428887017278262D+02 0.635932310784696D+02
 0.484932145640267D+02 -.164797510480496D+02 -.276581625694345D+02 -.362634210662724D+02
 0.931862140344460D+01 -.825929526496508D+01 -.199184789245285D+01 -.382796141048891D+01
-.454499695749D-05 0.000000000000D+00 0.000000000000D+00 0.592169395163D-06 0.000000000000D+00  6 -3 21 25 23 -3 21 4 0.34405577D-01 0.18017164D-01 0.20625248D+05 0.20625248D+05 0.20625248D+05 0.12323569D+01  1  2 13  2  6  2       21 -.118522794102D-01 0.100000000000D+01
-.217344446071D-06 0.000000000000D+00 0.000000000000D+00 0.594868860929D-06 0.000000000000D+00  6 -3 21 25 23 -3 21 4 0.34405577D-01 0.17149425D-01 0.19449546D+05 0.19449546D+05 0.19449546D+05 0.12351626D+01  1  2  8  2  6  2       21 -.625001654934D-03 0.100000000000D+01
0.534580966005D-06 0.000000000000D+00 0.000000000000D+00 0.594868860929D-06 0.100037554706D-06  6 -3 21 25 23 -3 21 4 0.35016261D-01 0.17869601D-01 0.20625248D+05 0.20625248D+05 0.20625248D+05 0.12323569D+01  1  2  1  2  6  2       21 0.136899538911D-02 0.100000000000D+01
  </mgrwgt>
  </event>
  <event>
  5     66 0.38788253E-03 0.74792747E+02 0.75467711E-02 0.11623140E+00
       -1 -1    0    0    0  501 0.00000000E+00 0.00000000E+00 0.23023310E+03 0.23023332E+03 0.32000000E+00 0.0000E+00 0.9000E+01
       21 -1    0    0  501  502 0.00000000E+00 0.00000000E+00 -.38529481E+03 0.38529554E+03 0.75000000E+00 0.0000E+00 0.9000E+01
       25  1    1    2    0    0 0.10896433E+03 0.94967831E+01 0.57746154E+00 0.16609861E+03 0.12500000E+03 0.0000E+00 0.9000E+01
       23  1    1    2    0    0 -.31904316E+02 -.15661001E+02 0.12476143E+03 0.15856802E+03 0.91188000E+02 0.0000E+00 0.9000E+01
       -1  1    1    2    0  502 -.77060013E+02 0.61642175E+01 -.28040060E+03 0.29086223E+03 0.32000000E+00 0.0000E+00 0.9000E+01
#aMCatNLO 1  0  0  2  1 0.31172753D+02 0.00000000D+00  -5  6  0 0.00000000D+00 0.00000000D+00 0.00000000D+00 0.00000000D+00 0.00000000D+00
  <mgrwgt>
 0.4015878455D-01   23    4    0
 0.297838734486270D+03 0.000000000000000D+00 0.000000000000000D+00 0.297838734486270D+03
 0.297838734486270D+03 0.000000000000000D+00 0.000000000000000D+00 -.297838734486270D+03
 0.171784315783165D+03 0.108964350832632D+03 0.949678134552104D+01 0.438341481129580D+02
 0.196329310278701D+03 -.319042907569930D+02 -.156610026096801D+02 0.170196345316412D+03
 0.227563842910674D+03 -.770600600756386D+02 0.616422126415905D+01 -.214030493429370D+03
 0.000000000000000D+00 -.000000000000000D+00 -.000000000000000D+00 -.000000000000000D+00
 0.309740582930983D+03 0.000000000000000D+00 0.000000000000000D+00 0.309740582930983D+03
 0.319381561064950D+03 0.000000000000000D+00 0.000000000000000D+00 -.319381561064950D+03
 0.173947450468445D+03 0.111258945905664D+03 0.182408864818489D+02 0.438341481129580D+02
 0.195381452207381D+03 -.293045366314194D+02 -.575401567774520D+01 0.170196345316412D+03
 0.227163668608585D+03 -.740420686459903D+02 0.176650018034036D+02 -.214030493429370D+03
 0.326295727115221D+02 -.791234062825465D+01 -.301518726075073D+02 -.964097813396702D+01
 0.297838734486270D+03 0.000000000000000D+00 0.000000000000000D+00 0.297838734486270D+03
 0.297838734486270D+03 0.000000000000000D+00 0.000000000000000D+00 -.297838734486270D+03
 0.171784315783165D+03 0.108964350832632D+03 0.949678134552104D+01 0.438341481129580D+02
 0.196329310278701D+03 -.319042907569930D+02 -.156610026096801D+02 0.170196345316412D+03
 0.000000000000000D+00 -.000000000000000D+00 -.000000000000000D+00 -.000000000000000D+00
 0.227563842910674D+03 -.770600600756386D+02 0.616422126415905D+01 -.214030493429370D+03
 0.309740582930983D+03 0.000000000000000D+00 0.000000000000000D+00 0.309740582930983D+03
 0.319381561064950D+03 0.000000000000000D+00 0.000000000000000D+00 -.319381561064950D+03
 0.173947450468445D+03 0.111258945905664D+03 0.182408864818489D+02 0.438341481129580D+02
 0.195381452207381D+03 -.293045366314194D+02 -.575401567774520D+01 0.170196345316412D+03
 0.326295727115221D+02 -.791234062825465D+01 -.301518726075073D+02 -.964097813396702D+01
 0.227163668608585D+03 -.740420686459903D+02 0.176650018034036D+02 -.214030493429370D+03
0.233085402321D-04 0.000000000000D+00 0.000000000000D+00 0.834053052485D-06 0.000000000000D+00  6 -1 21 25 23 -1 21 2 0.35420550D-01 0.59276198D-01 0.29116839D+05 0.29116839D+05 0.29116839D+05 0.12162627D+01  1  2  2  2  6  2       21 0.649490031036D-02 0.100000000000D+01
0.112836342989D-05 0.123002546109D-05 -.470532272406D-07 0.834053052485D-06 0.000000000000D+00  6 -1 21 25 23 -1 21 4 0.35420550D-01 0.59276198D-01 0.29116839D+05 0.29116839D+05 0.29116839D+05 0.12162627D+01  1  2  3  2  6  2       21 0.465115943320D-03 0.100000000000D+01
0.300152551111D-05 0.000000000000D+00 0.000000000000D+00 0.834053052485D-06 0.000000000000D+00  6 -1 21 25 23 -1 21 4 0.35420550D-01 0.59276198D-01 0.29116839D+05 0.29116839D+05 0.29116839D+05 0.12162627D+01  1  2 15  2  6  2       21 0.123724088579D-02 0.100000000000D+01
0.578302673421D-04 0.000000000000D+00 0.000000000000D+00 0.823516279449D-06 0.000000000000D+00  6 -1 21 25 23 -1 21 4 0.35420550D-01 0.64680526D-01 0.34518014D+05 0.34518014D+05 0.34518014D+05 0.12085557D+01  1  2 12  2  6  2       21 0.191512029417D-01 0.100000000000D+01
-.232600488671D-04 0.000000000000D+00 0.000000000000D+00 0.834053052485D-06 0.000000000000D+00  6 -1 21 25 23 -1 21 4 0.35420550D-01 0.59276198D-01 0.29116839D+05 0.29116839D+05 0.29116839D+05 0.12162627D+01  1  2  4  2  6  2       21 -.958788567927D-02 0.100000000000D+01
-.293514236963D-03 0.000000000000D+00 -.709159520852D-04 0.834053052485D-06 0.000000000000D+00  6 -1 21 25 23 -1 21 4 0.35420550D-01 0.65699705D-01 0.29116839D+05 0.29116839D+05 0.29116839D+05 0.12162627D+01  1  2  5  2  6  2       21 -.969333822083D-01 0.100000000000D+01
0.294044601592D-03 0.000000000000D+00 0.694367928177D-04 0.834053052485D-06 0.000000000000D+00  6 -1 21 25 23 -1 21 4 0.35420550D-01 0.59276198D-01 0.29116839D+05 0.29116839D+05 0.29116839D+05 0.12162627D+01  1  2  6  2  6  2       21 0.121206367226D+00 0.100000000000D+01
0.126802262763D-05 0.000000000000D+00 0.000000000000D+00 0.823516279449D-06 0.000000000000D+00  6 -1 -1 25 23 -1 -1 4 0.35420550D-01 0.64680526D-01 0.34518014D+05 0.34518014D+05 0.34518014D+05 0.12085557D+01  1  2 12  5  6  2       21 0.443963861295D-04 0.100000000000D+01
-.644534543115D-05 0.000000000000D+00 -.187104339462D-05 0.834053052485D-06 0.000000000000D+00  6 -1 -1 25 23 -1 -1 4 0.35420550D-01 0.65699705D-01 0.29116839D+05 0.29116839D+05 0.29116839D+05 0.12162627D+01  1  2  5  5  6  2       21 -.224814520955D-03 0.100000000000D+01
0.126802262763D-05 0.000000000000D+00 0.000000000000D+00 0.823516279449D-06 0.000000000000D+00  6 -1 1 25 23 1 -1 4 0.35420550D-01 0.64680526D-01 0.34518014D+05 0.34518014D+05 0.34518014D+05 0.12085557D+01  3  4 12  6  5  2       21 0.118926518910D-03 0.100000000000D+01
-.644534543115D-05 0.000000000000D+00 -.187104339462D-05 0.834053052485D-06 0.000000000000D+00  6 -1 1 25 23 1 -1 4 0.35420550D-01 0.65699705D-01 0.29116839D+05 0.29116839D+05 0.29116839D+05 0.12162627D+01  3  4  5  6  5  2       21 -.608333715294D-03 0.100000000000D+01
0.126802262763D-05 0.000000000000D+00 0.000000000000D+00 0.823516279449D-06 0.000000000000D+00  6 -1 -2 25 23 -1 -2 4 0.35420550D-01 0.64680526D-01 0.34518014D+05 0.34518014D+05 0.34518014D+05 0.12085557D+01  1  2 12  7  6  2       21 0.350004801480D-04 0.100000000000D+01
0.126802262763D-05 0.000000000000D+00 0.000000000000D+00 0.823516279449D-06 0.000000000000D+00  6 -1 -4 25 23 -1 -4 4 0.35420550D-01 0.64680526D-01 0.34518014D+05 0.34518014D+05 0.34518014D+05 0.12085557D+01  1  2 12  7  6  2       21 0.180419174596D-04 0.100000000000D+01
-.644534543115D-05 0.000000000000D+00 -.187104339462D-05 0.834053052485D-06 0.000000000000D+00  6 -1 -2 25 23 -1 -2 4 0.35420550D-01 0.65699705D-01 0.29116839D+05 0.29116839D+05 0.29116839D+05 0.12162627D+01  1  2  5  7  6  2       21 -.176695761963D-03 0.100000000000D+01
-.644534543115D-05 0.000000000000D+00 -.187104339462D-05 0.834053052485D-06 0.000000000000D+00  6 -1 -4 25 23 -1 -4 4 0.35420550D-01 0.65699705D-01 0.29116839D+05 0.29116839D+05 0.29116839D+05 0.12162627D+01  1  2  5  7  6  2       21 -.905627627748D-04 0.100000000000D+01
0.126802262763D-05 0.000000000000D+00 0.000000000000D+00 0.823516279449D-06 0.000000000000D+00  6 -1 2 25 23 2 -1 4 0.35420550D-01 0.64680526D-01 0.34518014D+05 0.34518014D+05 0.34518014D+05 0.12085557D+01  3  4 12  8  5  2       21 0.179334313025D-03 0.100000000000D+01
0.126802262763D-05 0.000000000000D+00 0.000000000000D+00 0.823516279449D-06 0.000000000000D+00  6 -1 4 25 23 4 -1 4 0.35420550D-01 0.64680526D-01 0.34518014D+05 0.34518014D+05 0.34518014D+05 0.12085557D+01  3  4 12  8  5  2       21 0.180419174596D-04 0.100000000000D+01
-.644534543115D-05 0.000000000000D+00 -.187104339462D-05 0.834053052485D-06 0.000000000000D+00  6 -1 2 25 23 2 -1 4 0.35420550D-01 0.65699705D-01 0.29116839D+05 0.29116839D+05 0.29116839D+05 0.12162627D+01  3  4  5  8  5  2       21 -.919546805769D-03 0.100000000000D+01
-.644534543115D-05 0.000000000000D+00 -.187104339462D-05 0.834053052485D-06 0.000000000000D+00  6 -1 4 25 23 4 -1 4 0.35420550D-01 0.65699705D-01 0.29116839D+05 0.29116839D+05 0.29116839D+05 0.12162627D+01  3  4  5  8  5  2       21 -.905627627748D-04 0.100000000000D+01
0.126802262763D-05 0.000000000000D+00 0.000000000000D+00 0.823516279449D-06 0.000000000000D+00  6 -1 -3 25 23 -1 -3 4 0.35420550D-01 0.64680526D-01 0.34518014D+05 0.34518014D+05 0.34518014D+05 0.12085557D+01  1  2 12  9  6  2       21 0.220659977132D-04 0.100000000000D+01
-.644534543115D-05 0.000000000000D+00 -.187104339462D-05 0.834053052485D-06 0.000000000000D+00  6 -1 -3 25 23 -1 -3 4 0.35420550D-01 0.65699705D-01 0.29116839D+05 0.29116839D+05 0.29116839D+05 0.12162627D+01  1  2  5  9  6  2       21 -.111028385631D-03 0.100000000000D+01
0.126802262763D-05 0.000000000000D+00 0.000000000000D+00 0.823516279449D-06 0.000000000000D+00  6 -1 3 25 23 3 -1 4 0.35420550D-01 0.64680526D-01 0.34518014D+05 0.34518014D+05 0.34518014D+05 0.12085557D+01  3  4 12 10  5  2       21 0.220839386220D-04 0.100000000000D+01
-.644534543115D-05 0.000000000000D+00 -.187104339462D-05 0.834053052485D-06 0.000000000000D+00  6 -1 3 25 23 3 -1 4 0.35420550D-01 0.65699705D-01 0.29116839D+05 0.29116839D+05 0.29116839D+05 0.12162627D+01  3  4  5 10  5  2       21 -.111121619716D-03 0.100000000000D+01
  </mgrwgt>
  </event>
  <event>
  6     66 0.38788253E-03 0.84742525E+02 0.75467711E-02 0.11746850E+00
       -1 -1    0    0    0  501 0.00000000E+00 0.00000000E+00 0.93408101E+03 0.93408106E+03 0.32000000E+00 0.0000E+00 0.9000E+01
       21 -1    0    0  501  502 0.00000000E+00 0.00000000E+00 -.82482581E+02 0.82485991E+02 0.75000000E+00 0.0000E+00 0.9000E+01
       25  1    1    2    0    0 -.79097980E+02 -.21142930E+02 0.56374112E+03 0.58320885E+03 0.12500000E+03 0.0000E+00 0.9000E+01
       23  1    1    2    0    0 0.52466808E+01 -.33818750E+02 0.31300437E+03 0.32780821E+03 0.91188000E+02 0.0000E+00 0.9000E+01
       -1  1    1    2    0  503 0.76995814E+02 0.45794051E+02 -.30270725E+02 0.94561460E+02 0.32000000E+00 0.0000E+00 0.9000E+01
       21  1    1    2  503  502 -.31445143E+01 0.91676292E+01 0.51236581E+01 0.10988529E+02 0.75000000E+00 0.0000E+00 0.9000E+01
#aMCatNLO 2  0  0  5  5 0.92642296D+01 0.00000000D+00  -5  6  0 0.00000000D+00 0.00000000D+00 0.00000000D+00 0.00000000D+00 0.00000000D+00
  <mgrwgt>
 0.6203130523D-02    2    2    0
 0.277573726002305D+03 0.000000000000000D+00 0.000000000000000D+00 0.277573726002305D+03
 0.277573726002305D+03 -.000000000000000D+00 -.000000000000000D+00 -.277573726002305D+03
 0.204432123833034D+03 -.796279372524309D+02 -.215373350282790D+02 0.139151097960769D+03
 0.120691699798986D+03 0.493358092636347D+01 -.340517657360103D+02 0.711854766498867D+02
 0.230023628372590D+03 0.746943563260674D+02 0.555891007642892D+02 -.210336574610655D+03
 0.000000000000000D+00 0.000000000000000D+00 0.000000000000000D+00 -.000000000000000D+00
 0.277573726002305D+03 0.000000000000000D+00 0.000000000000000D+00 0.277573726002305D+03
 0.277573726002305D+03 -.000000000000000D+00 -.000000000000000D+00 -.277573726002305D+03
 0.203168441501142D+03 -.790969106316127D+02 -.211421339209246D+02 0.137655746424939D+03
 0.120120087408402D+03 0.524731324297370D+01 -.338182795903512D+02 0.703020179246733D+02
 0.219620340478525D+03 0.770209394393491D+02 0.457795968406362D+02 -.200512087797450D+03
 0.122385826165420D+02 -.317134205071019D+01 0.918081667063952D+01 -.744567655216287D+01
-.246547058088D-04 0.000000000000D+00 0.000000000000D+00 0.128113281064D-05 0.000000000000D+00  6 -1 21 25 23 -1 21 4 0.14370504D+00 0.12689894D-01 0.28957435D+05 0.28957435D+05 0.28957435D+05 0.12165139D+01  1  2  8  3  6  5       -1 -.115399040250D-01 0.100000000000D+01
0.381356759930D-04 0.000000000000D+00 0.000000000000D+00 0.128113281064D-05 0.126365699517D-06  6 -1 21 25 23 -1 21 4 0.14370504D+00 0.12689894D-01 0.29952756D+05 0.29952756D+05 0.29952756D+05 0.12149702D+01  1  2  1  3  6  5       -1 0.177430345484D-01 0.100000000000D+01
  </mgrwgt>
  </event>
  <event>
  5     66 0.38788253E-03 0.36552938E+02 0.75467711E-02 0.11957943E+00
       -1 -1    0    0    0  501 0.00000000E+00 0.00000000E+00 0.12120875E+04 0.12120876E+04 0.32000000E+00 0.0000E+00 0.9000E+01
       21 -1    0    0  501  502 0.00000000E+00 0.00000000E+00 -.19824169E+02 0.19838352E+02 0.75000000E+00 0.0000E+00 0.9000E+01
       25  1    1    2    0    0 0.81246440E+02 0.53996956E+02 0.62795345E+03 0.64766287E+03 0.12500000E+03 0.0000E+00 0.9000E+01
       23  1    1    2    0    0 -.59604836E+02 -.24540589E+02 0.36766410E+03 0.38424877E+03 0.91188000E+02 0.0000E+00 0.9000E+01
       -1  1    1    2    0  502 -.21641604E+02 -.29456367E+02 0.19664583E+03 0.20001430E+03 0.32000000E+00 0.0000E+00 0.9000E+01
#aMCatNLO 1  0  0  2  5 0.96008606D+00 0.00000000D+00  -5  6  0 0.00000000D+00 0.00000000D+00 0.00000000D+00 0.00000000D+00 0.00000000D+00
  <mgrwgt>
 0.2825244279D-01   39    4    0
 0.155039964176793D+03 0.000000000000000D+00 0.000000000000000D+00 0.155039964176793D+03
 0.155039964176793D+03 0.000000000000000D+00 0.000000000000000D+00 -.155039964176793D+03
 0.158626521199685D+03 0.812468219735467D+02 0.539974755152792D+02 0.453869861189414D+01
 0.112917743740169D+03 -.596045644739872D+02 -.245402192055341D+02 -.167403417701420D+02
 0.385356634137324D+02 -.216422574995595D+02 -.294572563097451D+02 0.122016431582478D+02
 0.000000000000000D+00 0.000000000000000D+00 -.000000000000000D+00 -.000000000000000D+00
 0.155240548106859D+03 0.000000000000000D+00 0.000000000000000D+00 0.155240548106859D+03
 0.156193831993958D+03 0.000000000000000D+00 0.000000000000000D+00 -.156193831993958D+03
 0.158645624132584D+03 0.810002922792694D+02 0.544223016970119D+02 0.453869861189414D+01
 0.112945195508261D+03 -.597800665537653D+02 -.242377895990039D+02 -.167403417701420D+02
 0.384905950440920D+02 -.217021091449948D+02 -.293541184460681D+02 0.122016431582478D+02
 0.135296541587939D+01 0.481883419490768D+00 -.830393651939836D+00 -.953283887099533D+00
 0.155039964176793D+03 0.000000000000000D+00 0.000000000000000D+00 0.155039964176793D+03
 0.155039964176793D+03 0.000000000000000D+00 0.000000000000000D+00 -.155039964176793D+03
 0.158626521199685D+03 0.812468219735467D+02 0.539974755152792D+02 0.453869861189414D+01
 0.112917743740169D+03 -.596045644739872D+02 -.245402192055341D+02 -.167403417701420D+02
 0.000000000000000D+00 0.000000000000000D+00 -.000000000000000D+00 -.000000000000000D+00
 0.385356634137324D+02 -.216422574995595D+02 -.294572563097451D+02 0.122016431582478D+02
 0.155240548106859D+03 0.000000000000000D+00 0.000000000000000D+00 0.155240548106859D+03
 0.156193831993958D+03 0.000000000000000D+00 0.000000000000000D+00 -.156193831993958D+03
 0.158645624132584D+03 0.810002922792694D+02 0.544223016970119D+02 0.453869861189414D+01
 0.112945195508261D+03 -.597800665537653D+02 -.242377895990039D+02 -.167403417701420D+02
 0.135296541587939D+01 0.481883419490768D+00 -.830393651939836D+00 -.953283887099533D+00
 0.384905950440920D+02 -.217021091449948D+02 -.293541184460681D+02 0.122016431582478D+02
0.179996111915D-05 0.000000000000D+00 0.000000000000D+00 0.214371223683D-06 0.000000000000D+00  6 -1 21 25 23 -1 21 2 0.18647610D+00 0.30509664D-02 0.23529177D+05 0.23529177D+05 0.23529177D+05 0.12261310D+01  1  2  2  2  6  2       21 0.327716175814D-02 0.100000000000D+01
-.416100332301D-07 0.949865578656D-07 -.363360290777D-08 0.214371223683D-06 0.000000000000D+00  6 -1 21 25 23 -1 21 4 0.18647610D+00 0.30509664D-02 0.23529177D+05 0.23529177D+05 0.23529177D+05 0.12261310D+01  1  2  3  2  6  2       21 -.113895500595D-03 0.100000000000D+01
0.178245271724D-06 0.000000000000D+00 0.000000000000D+00 0.214371223683D-06 0.000000000000D+00  6 -1 21 25 23 -1 21 4 0.18647610D+00 0.30509664D-02 0.23529177D+05 0.23529177D+05 0.23529177D+05 0.12261310D+01  1  2 15  2  6  2       21 0.487895175173D-03 0.100000000000D+01
-.110392021376D-03 0.000000000000D+00 0.000000000000D+00 0.214371223683D-06 0.000000000000D+00  6 -1 21 25 23 -1 21 4 0.18647610D+00 0.30509664D-02 0.23529177D+05 0.23529177D+05 0.23529177D+05 0.12261310D+01  1  2  4  2  6  2       21 -.302166414210D+00 0.100000000000D+01
-.775154842932D-03 0.000000000000D+00 -.638852308182D-04 0.214371223683D-06 0.000000000000D+00  6 -1 21 25 23 -1 21 4 0.18647610D+00 0.30777368D-02 0.23529177D+05 0.23529177D+05 0.23529177D+05 0.12261310D+01  1  2  5  2  6  2       21 -.209142943988D+01 0.100000000000D+01
0.775594660130D-03 0.000000000000D+00 0.638754804481D-04 0.214371223683D-06 0.000000000000D+00  6 -1 21 25 23 -1 21 4 0.18647610D+00 0.30509664D-02 0.23529177D+05 0.23529177D+05 0.23529177D+05 0.12261310D+01  1  2  6  2  6  2       21 0.212296735228D+01 0.100000000000D+01
0.109865342856D-03 0.000000000000D+00 0.000000000000D+00 0.214371223683D-06 0.451656718065D-05  6 -1 21 25 23 -1 21 4 0.18671736D+00 0.30736729D-02 0.23676578D+05 0.23676578D+05 0.23676578D+05 0.12258382D+01  1  2 11  2  6  2       21 0.295667493709D+00 0.100000000000D+01
0.141116068890D-11 0.000000000000D+00 0.000000000000D+00 0.214268866433D-06 0.000000000000D+00  6 -1 -1 25 23 -1 -1 4 0.18647610D+00 0.30756378D-02 0.23676578D+05 0.23676578D+05 0.23676578D+05 0.12258382D+01  1  2 12  5  6  2       21 0.198780883159D-09 0.100000000000D+01
0.141126982639D-11 0.000000000000D+00 0.000000000000D+00 0.214268866433D-06 0.000000000000D+00  6 -1 -1 25 23 -1 -1 4 0.18647610D+00 0.30857172D-02 0.23676578D+05 0.23676578D+05 0.23676578D+05 0.12258382D+01  1  2 12  5  6  2       21 0.197847622686D-09 0.100000000000D+01
-.140108306852D-05 0.000000000000D+00 -.125650948875D-06 0.214371223683D-06 0.000000000000D+00  6 -1 -1 25 23 -1 -1 4 0.18647610D+00 0.30777368D-02 0.23529177D+05 0.23529177D+05 0.23529177D+05 0.12261310D+01  1  2  5  5  6  2       21 -.197338622263D-03 0.100000000000D+01
0.470977350106D-06 0.000000000000D+00 0.000000000000D+00 0.214371223683D-06 0.420227731907D-08  6 -1 -1 25 23 -1 -1 4 0.18671736D+00 0.30736729D-02 0.23676578D+05 0.23676578D+05 0.23676578D+05 0.12258382D+01  1  2 11  5  6  2       21 0.661558368170D-04 0.100000000000D+01
0.141116068890D-11 0.000000000000D+00 0.000000000000D+00 0.214268866433D-06 0.000000000000D+00  6 -1 1 25 23 1 -1 4 0.18647610D+00 0.30756378D-02 0.23676578D+05 0.23676578D+05 0.23676578D+05 0.12258382D+01  3  4 12  6  5  2       21 0.214285903605D-09 0.100000000000D+01
0.141126982639D-11 0.000000000000D+00 0.000000000000D+00 0.214268866433D-06 0.000000000000D+00  6 -1 1 25 23 1 -1 4 0.18647610D+00 0.30857172D-02 0.23676578D+05 0.23676578D+05 0.23676578D+05 0.12258382D+01  3  4 12  6  5  2       21 0.213330425451D-09 0.100000000000D+01
-.140108306852D-05 0.000000000000D+00 -.125650948875D-06 0.214371223683D-06 0.000000000000D+00  6 -1 1 25 23 1 -1 4 0.18647610D+00 0.30777368D-02 0.23529177D+05 0.23529177D+05 0.23529177D+05 0.12261310D+01  3  4  5  6  5  2       21 -.212743422923D-03 0.100000000000D+01
0.392595939149D-05 0.000000000000D+00 0.000000000000D+00 0.214371223683D-06 0.156730546898D-06  6 -1 1 25 23 1 -1 4 0.18671736D+00 0.30736729D-02 0.23676578D+05 0.23676578D+05 0.23676578D+05 0.12258382D+01  3  4 11  6  5  2       21 0.594446614728D-03 0.100000000000D+01
0.141116068890D-11 0.000000000000D+00 0.000000000000D+00 0.214268866433D-06 0.000000000000D+00  6 -1 -2 25 23 -1 -2 4 0.18647610D+00 0.30756378D-02 0.23676578D+05 0.23676578D+05 0.23676578D+05 0.12258382D+01  1  2 12  7  6  2       21 0.196006833322D-09 0.100000000000D+01
0.141116068890D-11 0.000000000000D+00 0.000000000000D+00 0.214268866433D-06 0.000000000000D+00  6 -1 -4 25 23 -1 -4 4 0.18647610D+00 0.30756378D-02 0.23676578D+05 0.23676578D+05 0.23676578D+05 0.12258382D+01  1  2 12  7  6  2       21 0.134330772817D-09 0.100000000000D+01
0.141126982639D-11 0.000000000000D+00 0.000000000000D+00 0.214268866433D-06 0.000000000000D+00  6 -1 -2 25 23 -1 -2 4 0.18647610D+00 0.30857172D-02 0.23676578D+05 0.23676578D+05 0.23676578D+05 0.12258382D+01  1  2 12  7  6  2       21 0.195077760125D-09 0.100000000000D+01
0.141126982639D-11 0.000000000000D+00 0.000000000000D+00 0.214268866433D-06 0.000000000000D+00  6 -1 -4 25 23 -1 -4 4 0.18647610D+00 0.30857172D-02 0.23676578D+05 0.23676578D+05 0.23676578D+05 0.12258382D+01  1  2 12  7  6  2       21 0.133651747557D-09 0.100000000000D+01
-.140108306852D-05 0.000000000000D+00 -.125650948875D-06 0.214371223683D-06 0.000000000000D+00  6 -1 -2 25 23 -1 -2 4 0.18647610D+00 0.30777368D-02 0.23529177D+05 0.23529177D+05 0.23529177D+05 0.12261310D+01  1  2  5  7  6  2       21 -.194582499816D-03 0.100000000000D+01
-.140108306852D-05 0.000000000000D+00 -.125650948875D-06 0.214371223683D-06 0.000000000000D+00  6 -1 -4 25 23 -1 -4 4 0.18647610D+00 0.30777368D-02 0.23529177D+05 0.23529177D+05 0.23529177D+05 0.12261310D+01  1  2  5  7  6  2       21 -.133320779667D-03 0.100000000000D+01
0.421306198835D-06 0.000000000000D+00 0.000000000000D+00 0.214371223683D-06 0.700425525290D-08  6 -1 -2 25 23 -1 -2 4 0.18671736D+00 0.30736729D-02 0.23676578D+05 0.23676578D+05 0.23676578D+05 0.12258382D+01  1  2 11  7  6  2       21 0.583534350556D-04 0.100000000000D+01
0.421306198835D-06 0.000000000000D+00 0.000000000000D+00 0.214371223683D-06 0.700425525290D-08  6 -1 -4 25 23 -1 -4 4 0.18671736D+00 0.30736729D-02 0.23676578D+05 0.23676578D+05 0.23676578D+05 0.12258382D+01  1  2 11  7  6  2       21 0.399942501194D-04 0.100000000000D+01
0.141116068890D-11 0.000000000000D+00 0.000000000000D+00 0.214268866433D-06 0.000000000000D+00  6 -1 2 25 23 2 -1 4 0.18647610D+00 0.30756378D-02 0.23676578D+05 0.23676578D+05 0.23676578D+05 0.12258382D+01  3  4 12  8  5  2       21 0.224823281473D-09 0.100000000000D+01
0.141116068890D-11 0.000000000000D+00 0.000000000000D+00 0.214268866433D-06 0.000000000000D+00  6 -1 4 25 23 4 -1 4 0.18647610D+00 0.30756378D-02 0.23676578D+05 0.23676578D+05 0.23676578D+05 0.12258382D+01  3  4 12  8  5  2       21 0.134330772817D-09 0.100000000000D+01
0.141126982639D-11 0.000000000000D+00 0.000000000000D+00 0.214268866433D-06 0.000000000000D+00  6 -1 2 25 23 2 -1 4 0.18647610D+00 0.30857172D-02 0.23676578D+05 0.23676578D+05 0.23676578D+05 0.12258382D+01  3  4 12  8  5  2       21 0.223851705726D-09 0.100000000000D+01
0.141126982639D-11 0.000000000000D+00 0.000000000000D+00 0.214268866433D-06 0.000000000000D+00  6 -1 4 25 23 4 -1 4 0.18647610D+00 0.30857172D-02 0.23676578D+05 0.23676578D+05 0.23676578D+05 0.12258382D+01  3  4 12  8  5  2       21 0.133651747557D-09 0.100000000000D+01
-.140108306852D-05 0.000000000000D+00 -.125650948875D-06 0.214371223683D-06 0.000000000000D+00  6 -1 2 25 23 2 -1 4 0.18647610D+00 0.30777368D-02 0.23529177D+05 0.23529177D+05 0.23529177D+05 0.12261310D+01  3  4  5  8  5  2       21 -.223212316443D-03 0.100000000000D+01
-.140108306852D-05 0.000000000000D+00 -.125650948875D-06 0.214371223683D-06 0.000000000000D+00  6 -1 4 25 23 4 -1 4 0.18647610D+00 0.30777368D-02 0.23529177D+05 0.23529177D+05 0.23529177D+05 0.12261310D+01  3  4  5  8  5  2       21 -.133320779667D-03 0.100000000000D+01
0.425936449447D-06 0.000000000000D+00 0.000000000000D+00 0.214371223683D-06 0.708123360561D-08  6 -1 2 25 23 2 -1 4 0.18671736D+00 0.30736729D-02 0.23676578D+05 0.23676578D+05 0.23676578D+05 0.12258382D+01  3  4 11  8  5  2       21 0.676624709772D-04 0.100000000000D+01
0.425936449447D-06 0.000000000000D+00 0.000000000000D+00 0.214371223683D-06 0.708123360561D-08  6 -1 4 25 23 4 -1 4 0.18671736D+00 0.30736729D-02 0.23676578D+05 0.23676578D+05 0.23676578D+05 0.12258382D+01  3  4 11  8  5  2       21 0.404337959927D-04 0.100000000000D+01
0.141116068890D-11 0.000000000000D+00 0.000000000000D+00 0.214268866433D-06 0.000000000000D+00  6 -1 -3 25 23 -1 -3 4 0.18647610D+00 0.30756378D-02 0.23676578D+05 0.23676578D+05 0.23676578D+05 0.12258382D+01  1  2 12  9  6  2       21 0.148771295772D-09 0.100000000000D+01
0.141126982639D-11 0.000000000000D+00 0.000000000000D+00 0.214268866433D-06 0.000000000000D+00  6 -1 -3 25 23 -1 -3 4 0.18647610D+00 0.30857172D-02 0.23676578D+05 0.23676578D+05 0.23676578D+05 0.12258382D+01  1  2 12  9  6  2       21 0.148029513557D-09 0.100000000000D+01
-.140108306852D-05 0.000000000000D+00 -.125650948875D-06 0.214371223683D-06 0.000000000000D+00  6 -1 -3 25 23 -1 -3 4 0.18647610D+00 0.30777368D-02 0.23529177D+05 0.23529177D+05 0.23529177D+05 0.12261310D+01  1  2  5  9  6  2       21 -.147663591460D-03 0.100000000000D+01
0.408621770016D-06 0.000000000000D+00 0.000000000000D+00 0.214371223683D-06 0.679337542860D-08  6 -1 -3 25 23 -1 -3 4 0.18671736D+00 0.30736729D-02 0.23676578D+05 0.23676578D+05 0.23676578D+05 0.12258382D+01  1  2 11  9  6  2       21 0.429594764485D-04 0.100000000000D+01
0.141116068890D-11 0.000000000000D+00 0.000000000000D+00 0.214268866433D-06 0.000000000000D+00  6 -1 3 25 23 3 -1 4 0.18647610D+00 0.30756378D-02 0.23676578D+05 0.23676578D+05 0.23676578D+05 0.12258382D+01  3  4 12 10  5  2       21 0.148760266238D-09 0.100000000000D+01
0.141126982639D-11 0.000000000000D+00 0.000000000000D+00 0.214268866433D-06 0.000000000000D+00  6 -1 3 25 23 3 -1 4 0.18647610D+00 0.30857172D-02 0.23676578D+05 0.23676578D+05 0.23676578D+05 0.12258382D+01  3  4 12 10  5  2       21 0.148018517108D-09 0.100000000000D+01
-.140108306852D-05 0.000000000000D+00 -.125650948875D-06 0.214371223683D-06 0.000000000000D+00  6 -1 3 25 23 3 -1 4 0.18647610D+00 0.30777368D-02 0.23529177D+05 0.23529177D+05 0.23529177D+05 0.12261310D+01  3  4  5 10  5  2       21 -.147652633940D-03 0.100000000000D+01
0.400623161784D-06 0.000000000000D+00 0.000000000000D+00 0.214371223683D-06 0.666039781309D-08  6 -1 3 25 23 3 -1 4 0.18671736D+00 0.30736729D-02 0.23676578D+05 0.23676578D+05 0.23676578D+05 0.12258382D+01  3  4 11 10  5  2       21 0.421154404763D-04 0.100000000000D+01
  </mgrwgt>
  </event>
  <event>
  5     66 -.38788253E-03 0.21737394E+02 0.75467711E-02 0.12340585E+00
       -1 -1    0    0    0  501 0.00000000E+00 0.00000000E+00 0.74410728E+02 0.74411416E+02 0.32000000E+00 0.0000E+00 0.9000E+01
       21 -1    0    0  501  502 -.00000000E+00 -.00000000E+00 -.27884440E+03 0.27884541E+03 0.75000000E+00 0.0000E+00 0.9000E+01
       25  1    1    2    0    0 0.30678548E+02 0.29122949E+02 -.20355140E+02 0.13352397E+03 0.12500000E+03 0.0000E+00 0.9000E+01
       23  1    1    2    0    0 -.34292316E+02 -.76899899E+01 -.15802623E+03 0.18580269E+03 0.91188000E+02 0.0000E+00 0.9000E+01
       -1  1    1    2    0  502 0.36137673E+01 -.21432959E+02 -.26052299E+02 0.33930159E+02 0.32000000E+00 0.0000E+00 0.9000E+01
#aMCatNLO 1  0  0  5  2 0.70447049D+00 0.00000000D+00  -5  6  0 0.00000000D+00 0.00000000D+00 0.00000000D+00 0.00000000D+00 0.00000000D+00
  <mgrwgt>
 -.9905609244D-01    8    2    0
 0.144046222940145D+03 0.000000000000000D+00 0.000000000000000D+00 0.144046222940145D+03
 0.144046222940145D+03 -.000000000000000D+00 -.000000000000000D+00 -.144046222940145D+03
 0.149282220665986D+03 0.306783689303910D+02 0.291240129974678D+02 0.697911953878299D+02
 0.115692499928368D+03 -.342924546918612D+02 -.768916524931051D+01 -.619225926835337D+02
 0.231177252859360D+02 0.361408576147016D+01 -.214348477481573D+02 -.786860270429623D+01
 0.000000000000000D+00 0.000000000000000D+00 0.000000000000000D+00 -.000000000000000D+00
 0.144046222940145D+03 0.000000000000000D+00 0.000000000000000D+00 0.144046222940145D+03
 0.144046222940145D+03 -.000000000000000D+00 -.000000000000000D+00 -.144046222940145D+03
 0.149259122205128D+03 0.306901060066849D+02 0.290544013556938D+02 0.697656413760101D+02
 0.115704004648788D+03 -.342833573976565D+02 -.774312055891509D+01 -.619423993506980D+02
 0.193013221831060D+01 0.154112291223158D+00 -.192370885658687D+01 0.316862264055759D-01
 0.211991868080633D+02 0.343913909974843D+01 -.193875719401919D+02 -.785492825171761D+01
0.252730402690D-05 0.000000000000D+00 0.000000000000D+00 0.547097545134D-06 0.000000000000D+00  6 -1 21 25 23 -1 21 2 0.11447935D-01 0.42899269D-01 0.15803858D+05 0.15803858D+05 0.15803858D+05 0.12452462D+01  1  2  2  3  6  5       -1 0.903012121135D-02 0.100000000000D+01
0.135545982998D-06 0.133369497620D-06 -.510189868175D-08 0.547097545134D-06 0.000000000000D+00  6 -1 21 25 23 -1 21 4 0.11447935D-01 0.42899269D-01 0.15803858D+05 0.15803858D+05 0.15803858D+05 0.12452462D+01  1  2  3  3  6  5       -1 0.750988305687D-03 0.100000000000D+01
0.213982810751D-06 0.000000000000D+00 0.000000000000D+00 0.547097545134D-06 0.000000000000D+00  6 -1 21 25 23 -1 21 4 0.11447935D-01 0.42899269D-01 0.15803858D+05 0.15803858D+05 0.15803858D+05 0.12452462D+01  1  2 15  3  6  5       -1 0.118556511184D-02 0.100000000000D+01
0.831839216328D-12 0.000000000000D+00 0.000000000000D+00 0.547141858215D-06 0.000000000000D+00  6 -1 21 25 23 -1 21 4 0.11447935D-01 0.42899269D-01 0.15787666D+05 0.15787666D+05 0.15787666D+05 0.12452966D+01  1  2 12  3  6  5       -1 0.460949540109D-08 0.100000000000D+01
-.355978701997D-04 0.000000000000D+00 0.000000000000D+00 0.547097545134D-06 0.000000000000D+00  6 -1 21 25 23 -1 21 4 0.11447935D-01 0.42899269D-01 0.15803858D+05 0.15803858D+05 0.15803858D+05 0.12452462D+01  1  2  4  3  6  5       -1 -.197228893370D+00 0.100000000000D+01
-.352353678648D-05 0.000000000000D+00 0.000000000000D+00 0.547097545134D-06 0.000000000000D+00  6 -1 21 25 23 -1 21 4 0.11447935D-01 0.42899269D-01 0.15803858D+05 0.15803858D+05 0.15803858D+05 0.12452462D+01  1  2  5  3  6  5       -1 -.195220460451D-01 0.100000000000D+01
0.142922434108D-04 0.000000000000D+00 -.000000000000D+00 0.547097545134D-06 0.000000000000D+00  6 -1 21 25 23 -1 21 4 0.11447935D-01 0.42899269D-01 0.15803858D+05 0.15803858D+05 0.15803858D+05 0.12452462D+01  1  2  6  3  6  5       -1 0.791857303787D-01 0.100000000000D+01
0.497036606183D-05 0.000000000000D+00 0.000000000000D+00 0.547097545134D-06 0.522188885684D-06  6 -1 21 25 23 -1 21 4 0.11447935D-01 0.42899269D-01 0.15787666D+05 0.15787666D+05 0.15787666D+05 0.12452966D+01  1  2 11  3  6  5       -1 0.275424373533D-01 0.100000000000D+01
  </mgrwgt>
  </event>
  <event>
  5     66 0.38788253E-03 0.24604160E+02 0.75467711E-02 0.12263158E+00
       -3 -1    0    0    0  501 0.00000000E+00 0.00000000E+00 0.40565190E+03 0.40565221E+03 0.50000000E+00 0.0000E+00 0.9000E+01
       21 -1    0    0  501  502 0.00000000E+00 0.00000000E+00 -.39835687E+02 0.39842747E+02 0.75000000E+00 0.0000E+00 0.9000E+01
       25  1    1    2    0    0 0.35009113E+02 -.12099471E+02 0.21263475E+03 0.24942047E+03 0.12500000E+03 0.0000E+00 0.9000E+01
       23  1    1    2    0    0 -.12893960E+02 0.13223832E+01 0.14150079E+03 0.16883639E+03 0.91188000E+02 0.0000E+00 0.9000E+01
       -3  1    1    2    0  502 -.22115153E+02 0.10777087E+02 0.11680682E+02 0.27238098E+02 0.50000000E+00 0.0000E+00 0.9000E+01
#aMCatNLO 1  0  0  2  1 0.14406936D+02 0.00000000D+00  -5  6  0 0.00000000D+00 0.00000000D+00 0.00000000D+00 0.00000000D+00 0.00000000D+00
  <mgrwgt>
 0.2388130558D-01   23    4    0
 0.127126171633647D+03 0.000000000000000D+00 0.000000000000000D+00 0.127126171633647D+03
 0.127126171633647D+03 0.000000000000000D+00 0.000000000000000D+00 -.127126171633647D+03
 0.131092106393598D+03 0.350106044875583D+02 -.121001972615707D+02 0.137106950355295D+02
 0.922408477603887D+02 -.128929106707934D+02 0.132187191914655D+01 0.501479417518992D+01
 0.309193891133067D+02 -.221176938167648D+02 0.107783253424241D+02 -.187254892107195D+02
 0.000000000000000D+00 -.000000000000000D+00 0.000000000000000D+00 -.000000000000000D+00
 0.134381619466070D+03 0.000000000000000D+00 0.000000000000000D+00 0.134381619466070D+03
 0.134688783320954D+03 0.000000000000000D+00 0.000000000000000D+00 -.134688783320954D+03
 0.133345056466892D+03 0.413334705440235D+02 -.161079216098023D+02 0.137106950355295D+02
 0.917316622769219D+02 -.849400725474328D+01 -.146635610412413D+01 0.501479417518992D+01
 0.295834741717937D+02 -.206710306607767D+02 0.986136346118754D+01 -.187254892107195D+02
 0.144102098714169D+02 -.121684326285036D+02 0.771291425273884D+01 -.307163854884499D+00
 0.127126171633647D+03 0.000000000000000D+00 0.000000000000000D+00 0.127126171633647D+03
 0.127126171633647D+03 0.000000000000000D+00 0.000000000000000D+00 -.127126171633647D+03
 0.131092106393598D+03 0.350106044875583D+02 -.121001972615707D+02 0.137106950355295D+02
 0.922408477603887D+02 -.128929106707934D+02 0.132187191914655D+01 0.501479417518992D+01
 0.000000000000000D+00 -.000000000000000D+00 0.000000000000000D+00 -.000000000000000D+00
 0.309193891133067D+02 -.221176938167648D+02 0.107783253424241D+02 -.187254892107195D+02
 0.134381619466070D+03 0.000000000000000D+00 0.000000000000000D+00 0.134381619466070D+03
 0.134688783320954D+03 0.000000000000000D+00 0.000000000000000D+00 -.134688783320954D+03
 0.133345056466892D+03 0.413334705440235D+02 -.161079216098023D+02 0.137106950355295D+02
 0.917316622769219D+02 -.849400725474328D+01 -.146635610412413D+01 0.501479417518992D+01
 0.144102098714169D+02 -.121684326285036D+02 0.771291425273884D+01 -.307163854884499D+00
 0.295834741717937D+02 -.206710306607767D+02 0.986136346118754D+01 -.187254892107195D+02
0.913313132605D-06 0.000000000000D+00 0.000000000000D+00 0.111610625258D-05 0.000000000000D+00  6 -3 21 25 23 -3 21 2 0.62408552D-01 0.61291340D-02 0.15262346D+05 0.15262346D+05 0.15262346D+05 0.12469650D+01  1  2  2  2  6  2       21 0.327170693863D-02 0.100000000000D+01
0.484293915139D-07 0.481968581415D-07 -.184371607755D-08 0.111610625258D-05 0.000000000000D+00  6 -3 21 25 23 -3 21 4 0.62408552D-01 0.61291340D-02 0.15262346D+05 0.15262346D+05 0.15262346D+05 0.12469650D+01  1  2  3  2  6  2       21 0.269756701877D-03 0.100000000000D+01
0.115869312748D-06 0.000000000000D+00 0.000000000000D+00 0.111610625258D-05 0.000000000000D+00  6 -3 21 25 23 -3 21 4 0.62408552D-01 0.61291340D-02 0.15262346D+05 0.15262346D+05 0.15262346D+05 0.12469650D+01  1  2 15  2  6  2       21 0.645404013528D-03 0.100000000000D+01
0.173785334848D-05 0.000000000000D+00 0.000000000000D+00 0.110613766269D-05 0.000000000000D+00  6 -3 21 25 23 -3 21 4 0.62408552D-01 0.66587072D-02 0.17101123D+05 0.17101123D+05 0.17101123D+05 0.12413838D+01  1  2 12  2  6  2       21 0.829747630967D-02 0.100000000000D+01
-.439944265406D-07 0.000000000000D+00 0.000000000000D+00 0.111610625258D-05 0.000000000000D+00  6 -3 21 25 23 -3 21 4 0.62408552D-01 0.61291340D-02 0.15262346D+05 0.15262346D+05 0.15262346D+05 0.12469650D+01  1  2  4  2  6  2       21 -.245053489908D-03 0.100000000000D+01
-.124751758200D-04 0.000000000000D+00 -.269787278883D-05 0.111610625258D-05 0.000000000000D+00  6 -3 21 25 23 -3 21 4 0.62408552D-01 0.68623943D-02 0.15262346D+05 0.15262346D+05 0.15262346D+05 0.12469650D+01  1  2  5  2  6  2       21 -.573332065468D-01 0.100000000000D+01
0.124746312544D-04 0.000000000000D+00 0.263019799546D-05 0.111610625258D-05 0.000000000000D+00  6 -3 21 25 23 -3 21 4 0.62408552D-01 0.61291340D-02 0.15262346D+05 0.15262346D+05 0.15262346D+05 0.12469650D+01  1  2  6  2  6  2       21 0.694849817256D-01 0.100000000000D+01
0.359839092324D-07 0.000000000000D+00 0.000000000000D+00 0.110613766269D-05 0.000000000000D+00  6 -3 -3 25 23 -3 -3 4 0.62408552D-01 0.66587072D-02 0.17101123D+05 0.17101123D+05 0.17101123D+05 0.12413838D+01  1  2 12  5  6  2       21 0.716042065681D-05 0.100000000000D+01
-.297244526664D-06 0.000000000000D+00 -.791848115732D-07 0.111610625258D-05 0.000000000000D+00  6 -3 -3 25 23 -3 -3 4 0.62408552D-01 0.68623943D-02 0.15262346D+05 0.15262346D+05 0.15262346D+05 0.12469650D+01  1  2  5  5  6  2       21 -.568526825114D-04 0.100000000000D+01
0.359839092324D-07 0.000000000000D+00 0.000000000000D+00 0.110613766269D-05 0.000000000000D+00  6 -3 3 25 23 3 -3 4 0.62408552D-01 0.66587072D-02 0.17101123D+05 0.17101123D+05 0.17101123D+05 0.12413838D+01  3  4 12  6  5  2       21 0.715960441144D-05 0.100000000000D+01
-.297244526664D-06 0.000000000000D+00 -.791848115732D-07 0.111610625258D-05 0.000000000000D+00  6 -3 3 25 23 3 -3 4 0.62408552D-01 0.68623943D-02 0.15262346D+05 0.15262346D+05 0.15262346D+05 0.12469650D+01  3  4  5  6  5  2       21 -.568460559232D-04 0.100000000000D+01
0.359839092324D-07 0.000000000000D+00 0.000000000000D+00 0.110613766269D-05 0.000000000000D+00  6 -3 -2 25 23 -3 -2 4 0.62408552D-01 0.66587072D-02 0.17101123D+05 0.17101123D+05 0.17101123D+05 0.12413838D+01  1  2 12  7  6  2       21 0.101007116960D-04 0.100000000000D+01
0.359839092324D-07 0.000000000000D+00 0.000000000000D+00 0.110613766269D-05 0.000000000000D+00  6 -3 -4 25 23 -3 -4 4 0.62408552D-01 0.66587072D-02 0.17101123D+05 0.17101123D+05 0.17101123D+05 0.12413838D+01  1  2 12  7  6  2       21 0.632213065746D-05 0.100000000000D+01
-.297244526664D-06 0.000000000000D+00 -.791848115732D-07 0.111610625258D-05 0.000000000000D+00  6 -3 -2 25 23 -3 -2 4 0.62408552D-01 0.68623943D-02 0.15262346D+05 0.15262346D+05 0.15262346D+05 0.12469650D+01  1  2  5  7  6  2       21 -.806122110173D-04 0.100000000000D+01
-.297244526664D-06 0.000000000000D+00 -.791848115732D-07 0.111610625258D-05 0.000000000000D+00  6 -3 -4 25 23 -3 -4 4 0.62408552D-01 0.68623943D-02 0.15262346D+05 0.15262346D+05 0.15262346D+05 0.12469650D+01  1  2  5  7  6  2       21 -.500915657630D-04 0.100000000000D+01
0.359839092324D-07 0.000000000000D+00 0.000000000000D+00 0.110613766269D-05 0.000000000000D+00  6 -3 2 25 23 2 -3 4 0.62408552D-01 0.66587072D-02 0.17101123D+05 0.17101123D+05 0.17101123D+05 0.12413838D+01  3  4 12  8  5  2       21 0.133544840041D-04 0.100000000000D+01
0.359839092324D-07 0.000000000000D+00 0.000000000000D+00 0.110613766269D-05 0.000000000000D+00  6 -3 4 25 23 4 -3 4 0.62408552D-01 0.66587072D-02 0.17101123D+05 0.17101123D+05 0.17101123D+05 0.12413838D+01  3  4 12  8  5  2       21 0.632213065746D-05 0.100000000000D+01
-.297244526664D-06 0.000000000000D+00 -.791848115732D-07 0.111610625258D-05 0.000000000000D+00  6 -3 2 25 23 2 -3 4 0.62408552D-01 0.68623943D-02 0.15262346D+05 0.15262346D+05 0.15262346D+05 0.12469650D+01  3  4  5  8  5  2       21 -.107424809762D-03 0.100000000000D+01
-.297244526664D-06 0.000000000000D+00 -.791848115732D-07 0.111610625258D-05 0.000000000000D+00  6 -3 4 25 23 4 -3 4 0.62408552D-01 0.68623943D-02 0.15262346D+05 0.15262346D+05 0.15262346D+05 0.12469650D+01  3  4  5  8  5  2       21 -.500915657630D-04 0.100000000000D+01
0.359839092324D-07 0.000000000000D+00 0.000000000000D+00 0.110613766269D-05 0.000000000000D+00  6 -3 -1 25 23 -3 -1 4 0.62408552D-01 0.66587072D-02 0.17101123D+05 0.17101123D+05 0.17101123D+05 0.12413838D+01  1  2 12  9  6  2       21 0.104093972013D-04 0.100000000000D+01
-.297244526664D-06 0.000000000000D+00 -.791848115732D-07 0.111610625258D-05 0.000000000000D+00  6 -3 -1 25 23 -3 -1 4 0.62408552D-01 0.68623943D-02 0.15262346D+05 0.15262346D+05 0.15262346D+05 0.12469650D+01  1  2  5  9  6  2       21 -.831557692571D-04 0.100000000000D+01
0.359839092324D-07 0.000000000000D+00 0.000000000000D+00 0.110613766269D-05 0.000000000000D+00  6 -3 1 25 23 1 -3 4 0.62408552D-01 0.66587072D-02 0.17101123D+05 0.17101123D+05 0.17101123D+05 0.12413838D+01  3  4 12 10  5  2       21 0.121724095927D-04 0.100000000000D+01
-.297244526664D-06 0.000000000000D+00 -.791848115732D-07 0.111610625258D-05 0.000000000000D+00  6 -3 1 25 23 1 -3 4 0.62408552D-01 0.68623943D-02 0.15262346D+05 0.15262346D+05 0.15262346D+05 0.12469650D+01  3  4  5 10  5  2       21 -.976867034152D-04 0.100000000000D+01
  </mgrwgt>
  </event>
  <event>
  6     66 0.38788253E-03 0.66178791E+02 0.75467711E-02 0.10845953E+00
       -1 -1    0    0    0  501 0.00000000E+00 0.00000000E+00 0.26114231E+04 0.26114231E+04 0.32000000E+00 0.0000E+00 0.9000E+01
       21 -1    0    0  501  502 0.00000000E+00 0.00000000E+00 -.70168036E+02 0.70172044E+02 0.75000000E+00 0.0000E+00 0.9000E+01
       25  1    1    2    0    0 -.14469757E+03 0.21081794E+03 0.20341016E+04 0.20539172E+04 0.12500000E+03 0.0000E+00 0.9000E+01
       23  1    1    2    0    0 0.15610087E+03 -.14563264E+03 0.42091842E+03 0.48069108E+03 0.91188000E+02 0.0000E+00 0.9000E+01
       -1  1    1    2    0  503 0.13680895E+02 0.30581663E+01 0.71417421E+02 0.72780971E+02 0.32000000E+00 0.0000E+00 0.9000E+01
       21  1    1    2  503  502 -.25084195E+02 -.68243467E+02 0.14817591E+02 0.74205869E+02 0.75000000E+00 0.0000E+00 0.9000E+01
#aMCatNLO 2  0  0  5  1 0.12195421D+02 0.00000000D+00  -5  6  0 0.00000000D+00 0.00000000D+00 0.00000000D+00 0.00000000D+00 0.00000000D+00
  <mgrwgt>
 0.7092179312D-02    1    2    0
 0.428069890793406D+03 0.000000000000000D+00 0.000000000000000D+00 0.428069890793406D+03
 0.428069890793406D+03 -.000000000000000D+00 -.000000000000000D+00 -.428069890793406D+03
 0.405457131542825D+03 -.143924463744629D+03 0.215237296263614D+03 0.285883088957507D+03
 0.251977607510194D+03 0.156591395479327D+03 -.142828628244348D+03 -.101274780465010D+03
 0.198705042533794D+03 -.126669317346978D+02 -.724086680192653D+02 -.184608308492497D+03
 0.000000000000000D+00 0.000000000000000D+00 0.000000000000000D+00 0.000000000000000D+00
 0.428069890793406D+03 0.000000000000000D+00 0.000000000000000D+00 0.428069890793406D+03
 0.428069890793406D+03 -.000000000000000D+00 -.000000000000000D+00 -.428069890793406D+03
 0.396171743162437D+03 -.144645133656245D+03 0.211117691810490D+03 0.275380020325626D+03
 0.255918907872679D+03 0.156134792993563D+03 -.145438729767035D+03 -.107929321147468D+03
 0.148846319709665D+02 0.127145286651393D+02 0.286922124621605D+01 0.718753081208926D+01
 0.189164498580730D+03 -.242041880024564D+02 -.685481832896707D+02 -.174638229990247D+03
0.689710663225D-03 0.000000000000D+00 0.000000000000D+00 0.920906020575D-07 0.291843185625D-09  6 -1 21 25 23 -1 21 4 0.40175771D+00 0.10795392D-01 0.90778396D+05 0.90778396D+05 0.90778396D+05 0.11674513D+01  1  2  1  3  6  5       -1 0.709217931212D-02 0.100000000000D+01
  </mgrwgt>
  </event>
  <event>
  5     66 0.38788253E-03 0.21731093E+02 0.75467711E-02 0.11495401E+00
       -1 -1    0    0    0  501 0.00000000E+00 0.00000000E+00 0.60801517E+02 0.60802359E+02 0.32000000E+00 0.0000E+00 0.9000E+01
       21 -1    0    0  501  502 0.00000000E+00 0.00000000E+00 -.67813571E+03 0.67813613E+03 0.75000000E+00 0.0000E+00 0.9000E+01
       25  1    1    2    0    0 -.28820532E+02 -.11840451E+03 -.14411289E+03 0.22637088E+03 0.12500000E+03 0.0000E+00 0.9000E+01
       23  1    1    2    0    0 0.44657589E+02 0.13328397E+03 -.35741850E+03 0.39474315E+03 0.91188000E+02 0.0000E+00 0.9000E+01
       -1  1    1    2    0  502 -.15837057E+02 -.14879458E+02 -.11580281E+03 0.11782446E+03 0.32000000E+00 0.0000E+00 0.9000E+01
#aMCatNLO 1  0  0  2  1 0.14406936D+02 0.00000000D+00  -5  6  0 0.00000000D+00 0.00000000D+00 0.00000000D+00 0.00000000D+00 0.00000000D+00
  <mgrwgt>
 0.4359242198D-01   14    4    0
 0.203056998748041D+03 0.000000000000000D+00 0.000000000000000D+00 0.203056998748041D+03
 0.203056998748041D+03 0.000000000000000D+00 0.000000000000000D+00 -.203056998748041D+03
 0.192823580928637D+03 -.288202704061638D+02 -.118404264759274D+03 0.818886772556120D+02
 0.174936792301281D+03 0.446578267458810D+02 0.133284191796602D+03 -.502855116720783D+02
 0.383536242661653D+02 -.158375563397173D+02 -.148799270373284D+02 -.316031655835337D+02
 0.000000000000000D+00 -.000000000000000D+00 0.000000000000000D+00 -.000000000000000D+00
 0.219727489437469D+03 0.000000000000000D+00 0.000000000000000D+00 0.219727489437469D+03
 0.222136076802263D+03 0.000000000000000D+00 0.000000000000000D+00 -.222136076802263D+03
 0.201236320788167D+03 -.211658666084109D+02 -.133106376377690D+03 0.818886772556120D+02
 0.167331787542473D+03 0.513062116893719D+02 0.120514379789808D+03 -.502855116720783D+02
 0.389855081671736D+02 -.143352848666911D+02 -.177653983896599D+02 -.316031655835337D+02
 0.343099497419189D+02 -.158050602142700D+02 0.303573949775414D+02 -.240858736479391D+01
 0.203056998748041D+03 0.000000000000000D+00 0.000000000000000D+00 0.203056998748041D+03
 0.203056998748041D+03 0.000000000000000D+00 0.000000000000000D+00 -.203056998748041D+03
 0.192823580928637D+03 -.288202704061638D+02 -.118404264759274D+03 0.818886772556120D+02
 0.174936792301281D+03 0.446578267458810D+02 0.133284191796602D+03 -.502855116720783D+02
 0.000000000000000D+00 -.000000000000000D+00 0.000000000000000D+00 -.000000000000000D+00
 0.383536242661653D+02 -.158375563397173D+02 -.148799270373284D+02 -.316031655835337D+02
 0.219727489437469D+03 0.000000000000000D+00 0.000000000000000D+00 0.219727489437469D+03
 0.222136076802263D+03 0.000000000000000D+00 0.000000000000000D+00 -.222136076802263D+03
 0.201236320788167D+03 -.211658666084109D+02 -.133106376377690D+03 0.818886772556120D+02
 0.167331787542473D+03 0.513062116893719D+02 0.120514379789808D+03 -.502855116720783D+02
 0.343099497419189D+02 -.158050602142700D+02 0.303573949775414D+02 -.240858736479391D+01
 0.389855081671736D+02 -.143352848666911D+02 -.177653983896599D+02 -.316031655835337D+02
0.161928721536D-04 0.000000000000D+00 0.000000000000D+00 0.629203386393D-06 0.000000000000D+00  6 -1 21 25 23 -1 21 2 0.93541763D-02 0.10432867D+00 0.33097838D+05 0.33097838D+05 0.33097838D+05 0.12104445D+01  1  2  2  2  6  2       21 0.106535390067D-01 0.100000000000D+01
0.216003968130D-05 0.854521340194D-06 -.326887435049D-07 0.629203386393D-06 0.000000000000D+00  6 -1 21 25 23 -1 21 4 0.93541763D-02 0.10432867D+00 0.33097838D+05 0.33097838D+05 0.33097838D+05 0.12104445D+01  1  2  3  2  6  2       21 0.208219552301D-02 0.100000000000D+01
0.132848225766D-05 0.000000000000D+00 0.000000000000D+00 0.629203386393D-06 0.000000000000D+00  6 -1 21 25 23 -1 21 4 0.93541763D-02 0.10432867D+00 0.33097838D+05 0.33097838D+05 0.33097838D+05 0.12104445D+01  1  2 15  2  6  2       21 0.128060601537D-02 0.100000000000D+01
-.281274302319D-05 0.000000000000D+00 0.000000000000D+00 0.629203386393D-06 0.000000000000D+00  6 -1 21 25 23 -1 21 4 0.93541763D-02 0.10432867D+00 0.33097838D+05 0.33097838D+05 0.33097838D+05 0.12104445D+01  1  2  4  2  6  2       21 -.271137654599D-02 0.100000000000D+01
-.131390640519D-03 0.000000000000D+00 -.333846864586D-04 0.629203386393D-06 0.000000000000D+00  6 -1 21 25 23 -1 21 4 0.93541763D-02 0.12142320D+00 0.33097838D+05 0.33097838D+05 0.33097838D+05 0.12104445D+01  1  2  5  2  6  2       21 -.876096390056D-01 0.100000000000D+01
0.130053725069D-03 0.000000000000D+00 0.318961559475D-04 0.629203386393D-06 0.000000000000D+00  6 -1 21 25 23 -1 21 4 0.93541763D-02 0.10432867D+00 0.33097838D+05 0.33097838D+05 0.33097838D+05 0.12104445D+01  1  2  6  2  6  2       21 0.125366809894D+00 0.100000000000D+01
-.456167945615D-05 0.000000000000D+00 -.137848155569D-05 0.629203386393D-06 0.000000000000D+00  6 -1 -1 25 23 -1 -1 4 0.93541763D-02 0.12142320D+00 0.33097838D+05 0.33097838D+05 0.33097838D+05 0.12104445D+01  1  2  5  5  6  2       21 -.357979596788D-03 0.100000000000D+01
-.456167945615D-05 0.000000000000D+00 -.137848155569D-05 0.629203386393D-06 0.000000000000D+00  6 -1 1 25 23 1 -1 4 0.93541763D-02 0.12142320D+00 0.33097838D+05 0.33097838D+05 0.33097838D+05 0.12104445D+01  3  4  5  6  5  2       21 -.155272898768D-02 0.100000000000D+01
-.456167945615D-05 0.000000000000D+00 -.137848155569D-05 0.629203386393D-06 0.000000000000D+00  6 -1 -2 25 23 -1 -2 4 0.93541763D-02 0.12142320D+00 0.33097838D+05 0.33097838D+05 0.33097838D+05 0.12104445D+01  1  2  5  7  6  2       21 -.262443782051D-03 0.100000000000D+01
-.456167945615D-05 0.000000000000D+00 -.137848155569D-05 0.629203386393D-06 0.000000000000D+00  6 -1 -4 25 23 -1 -4 4 0.93541763D-02 0.12142320D+00 0.33097838D+05 0.33097838D+05 0.33097838D+05 0.12104445D+01  1  2  5  7  6  2       21 -.133330348196D-03 0.100000000000D+01
-.456167945615D-05 0.000000000000D+00 -.137848155569D-05 0.629203386393D-06 0.000000000000D+00  6 -1 2 25 23 2 -1 4 0.93541763D-02 0.12142320D+00 0.33097838D+05 0.33097838D+05 0.33097838D+05 0.12104445D+01  3  4  5  8  5  2       21 -.269444605810D-02 0.100000000000D+01
-.456167945615D-05 0.000000000000D+00 -.137848155569D-05 0.629203386393D-06 0.000000000000D+00  6 -1 4 25 23 4 -1 4 0.93541763D-02 0.12142320D+00 0.33097838D+05 0.33097838D+05 0.33097838D+05 0.12104445D+01  3  4  5  8  5  2       21 -.133330348196D-03 0.100000000000D+01
-.456167945615D-05 0.000000000000D+00 -.137848155569D-05 0.629203386393D-06 0.000000000000D+00  6 -1 -3 25 23 -1 -3 4 0.93541763D-02 0.12142320D+00 0.33097838D+05 0.33097838D+05 0.33097838D+05 0.12104445D+01  1  2  5  9  6  2       21 -.167495880195D-03 0.100000000000D+01
-.456167945615D-05 0.000000000000D+00 -.137848155569D-05 0.629203386393D-06 0.000000000000D+00  6 -1 3 25 23 3 -1 4 0.93541763D-02 0.12142320D+00 0.33097838D+05 0.33097838D+05 0.33097838D+05 0.12104445D+01  3  4  5 10  5  2       21 -.167957903909D-03 0.100000000000D+01
  </mgrwgt>
  </event>
  <event>
  5     66 -.38788253E-03 0.21794247E+02 0.75467711E-02 0.12109213E+00
       -1 -1    0    0    0  501 0.00000000E+00 0.00000000E+00 0.72115247E+03 0.72115254E+03 0.32000000E+00 0.0000E+00 0.9000E+01
       21 -1    0    0  501  502 0.00000000E+00 0.00000000E+00 -.33319274E+02 0.33327714E+02 0.75000000E+00 0.0000E+00 0.9000E+01
       25  1    1    2    0    0 0.14290839E+02 -.12320183E+02 0.37882941E+03 0.39936542E+03 0.12500000E+03 0.0000E+00 0.9000E+01
       23  1    1    2    0    0 0.75028887E+01 0.12449328E+02 0.31829661E+03 0.33142007E+03 0.91188000E+02 0.0000E+00 0.9000E+01
       -1  1    1    2    0  502 -.21793728E+02 -.12914491E+00 -.92928206E+01 0.23694771E+02 0.32000000E+00 0.0000E+00 0.9000E+01
#aMCatNLO 1  0  0  2  2 0.32625579D+02 0.00000000D+00  -5  6  0 0.00000000D+00 0.00000000D+00 0.00000000D+00 0.00000000D+00 0.00000000D+00
  <mgrwgt>
 -.4564600501D-01   12    4    0
 0.155020925604800D+03 0.000000000000000D+00 0.000000000000000D+00 0.155020925604800D+03
 0.155020925604800D+03 0.000000000000000D+00 0.000000000000000D+00 -.155020925604800D+03
 0.131407754682521D+03 0.142909164602841D+02 -.123201822278945D+02 0.358745147325839D+02
 0.100357257016656D+03 0.750294760065958D+01 0.124493279449907D+02 0.393070948166746D+02
 0.782768395104216D+02 -.217938640609437D+02 -.129145717096164D+00 -.751816095492586D+02
 0.000000000000000D+00 0.000000000000000D+00 0.000000000000000D+00 -.000000000000000D+00
 0.158029739324505D+03 0.000000000000000D+00 0.000000000000000D+00 0.158029739324505D+03
 0.322064672659343D+03 0.000000000000000D+00 0.000000000000000D+00 -.322064672659343D+03
 0.132150174466782D+03 0.356516398480810D+01 -.232158870186774D+02 0.358745147325839D+02
 0.993894392640061D+02 -.625943186332445D+00 0.419163278615768D+01 0.393070948166746D+02
 0.805960069765726D+02 -.282593528132418D+02 -.669708180682403D+01 -.751816095492586D+02
 0.167958791276488D+03 0.253201320147661D+02 0.257213360393437D+02 -.164034933334838D+03
 0.155020925604800D+03 0.000000000000000D+00 0.000000000000000D+00 0.155020925604800D+03
 0.155020925604800D+03 0.000000000000000D+00 0.000000000000000D+00 -.155020925604800D+03
 0.131407754682521D+03 0.142909164602841D+02 -.123201822278945D+02 0.358745147325839D+02
 0.100357257016656D+03 0.750294760065958D+01 0.124493279449907D+02 0.393070948166746D+02
 0.000000000000000D+00 0.000000000000000D+00 0.000000000000000D+00 -.000000000000000D+00
 0.782768395104216D+02 -.217938640609437D+02 -.129145717096164D+00 -.751816095492586D+02
 0.158029739324505D+03 0.000000000000000D+00 0.000000000000000D+00 0.158029739324505D+03
 0.322064672659343D+03 0.000000000000000D+00 0.000000000000000D+00 -.322064672659343D+03
 0.132150174466782D+03 0.356516398480810D+01 -.232158870186774D+02 0.358745147325839D+02
 0.993894392640061D+02 -.625943186332445D+00 0.419163278615768D+01 0.393070948166746D+02
 0.167958791276488D+03 0.253201320147661D+02 0.257213360393437D+02 -.164034933334838D+03
 0.805960069765726D+02 -.282593528132418D+02 -.669708180682403D+01 -.751816095492586D+02
0.112979841006D-05 0.000000000000D+00 0.000000000000D+00 0.407177986799D-05 0.000000000000D+00  6 -1 21 25 23 -1 21 2 0.11094719D+00 0.51266968D-02 0.14466017D+05 0.14466017D+05 0.14466017D+05 0.12496212D+01  1  2  2  2  6  2       21 0.339679600485D-02 0.100000000000D+01
0.191501628671D-06 0.596211000962D-07 -.228073748057D-08 0.407177986799D-05 0.000000000000D+00  6 -1 21 25 23 -1 21 4 0.11094719D+00 0.51266968D-02 0.14466017D+05 0.14466017D+05 0.14466017D+05 0.12496212D+01  1  2  3  2  6  2       21 0.899078741109D-03 0.100000000000D+01
0.909598837958D-07 0.000000000000D+00 0.000000000000D+00 0.407177986799D-05 0.000000000000D+00  6 -1 21 25 23 -1 21 4 0.11094719D+00 0.51266968D-02 0.14466017D+05 0.14466017D+05 0.14466017D+05 0.12496212D+01  1  2 15  2  6  2       21 0.427046487186D-03 0.100000000000D+01
-.342514445770D-04 0.000000000000D+00 -.165807622540D-05 0.407177986799D-05 0.000000000000D+00  6 -1 21 25 23 -1 21 4 0.11094719D+00 0.10808367D-01 0.14466017D+05 0.14466017D+05 0.14466017D+05 0.12496212D+01  1  2  5  2  6  2       21 -.447546270488D-01 0.100000000000D+01
-.900329295215D-05 0.000000000000D+00 -.438718766717D-06 0.407177986799D-05 0.000000000000D+00  6 -1 -1 25 23 -1 -1 4 0.11094719D+00 0.10808367D-01 0.14466017D+05 0.14466017D+05 0.14466017D+05 0.12496212D+01  1  2  5  5  6  2       21 -.790662931176D-03 0.100000000000D+01
-.900329295215D-05 0.000000000000D+00 -.438718766717D-06 0.407177986799D-05 0.000000000000D+00  6 -1 1 25 23 1 -1 4 0.11094719D+00 0.10808367D-01 0.14466017D+05 0.14466017D+05 0.14466017D+05 0.12496212D+01  3  4  5  6  5  2       21 -.100743021982D-02 0.100000000000D+01
-.900329295215D-05 0.000000000000D+00 -.438718766717D-06 0.407177986799D-05 0.000000000000D+00  6 -1 -2 25 23 -1 -2 4 0.11094719D+00 0.10808367D-01 0.14466017D+05 0.14466017D+05 0.14466017D+05 0.12496212D+01  1  2  5  7  6  2       21 -.752986116103D-03 0.100000000000D+01
-.900329295215D-05 0.000000000000D+00 -.438718766717D-06 0.407177986799D-05 0.000000000000D+00  6 -1 -4 25 23 -1 -4 4 0.11094719D+00 0.10808367D-01 0.14466017D+05 0.14466017D+05 0.14466017D+05 0.12496212D+01  1  2  5  7  6  2       21 -.443630632210D-03 0.100000000000D+01
-.900329295215D-05 0.000000000000D+00 -.438718766717D-06 0.407177986799D-05 0.000000000000D+00  6 -1 2 25 23 2 -1 4 0.11094719D+00 0.10808367D-01 0.14466017D+05 0.14466017D+05 0.14466017D+05 0.12496212D+01  3  4  5  8  5  2       21 -.115407133840D-02 0.100000000000D+01
-.900329295215D-05 0.000000000000D+00 -.438718766717D-06 0.407177986799D-05 0.000000000000D+00  6 -1 4 25 23 4 -1 4 0.11094719D+00 0.10808367D-01 0.14466017D+05 0.14466017D+05 0.14466017D+05 0.12496212D+01  3  4  5  8  5  2       21 -.443630632210D-03 0.100000000000D+01
-.900329295215D-05 0.000000000000D+00 -.438718766717D-06 0.407177986799D-05 0.000000000000D+00  6 -1 -3 25 23 -1 -3 4 0.11094719D+00 0.10808367D-01 0.14466017D+05 0.14466017D+05 0.14466017D+05 0.12496212D+01  1  2  5  9  6  2       21 -.510977386904D-03 0.100000000000D+01
-.900329295215D-05 0.000000000000D+00 -.438718766717D-06 0.407177986799D-05 0.000000000000D+00  6 -1 3 25 23 3 -1 4 0.11094719D+00 0.10808367D-01 0.14466017D+05 0.14466017D+05 0.14466017D+05 0.12496212D+01  3  4  5 10  5  2       21 -.510909932968D-03 0.100000000000D+01
  </mgrwgt>
  </event>
  <event>
  5     66 0.38788253E-03 0.57944534E+02 0.75467711E-02 0.11516794E+00
       -1 -1    0    0    0  501 0.00000000E+00 0.00000000E+00 0.58672744E+03 0.58672752E+03 0.32000000E+00 0.0000E+00 0.9000E+01
       21 -1    0    0  501  502 0.00000000E+00 0.00000000E+00 -.36985583E+02 0.36993186E+02 0.75000000E+00 0.0000E+00 0.9000E+01
       25  1    1    2    0    0 -.34921796E+02 0.31761277E+02 0.23464258E+03 0.27001935E+03 0.12500000E+03 0.0000E+00 0.9000E+01
       23  1    1    2    0    0 0.62493271E+01 0.18591375E+02 0.24847079E+03 0.26540098E+03 0.91188000E+02 0.0000E+00 0.9000E+01
       -1  1    1    2    0  502 0.28672469E+02 -.50352652E+02 0.66628481E+02 0.88300379E+02 0.32000000E+00 0.0000E+00 0.9000E+01
#aMCatNLO 1  0  0  2  2 0.14381611D+03 0.00000000D+00  -5  6  0 0.00000000D+00 0.00000000D+00 0.00000000D+00 0.00000000D+00 0.00000000D+00
  <mgrwgt>
 0.7349908121D-02    4    2    0
 0.147318887382513D+03 0.000000000000000D+00 0.000000000000000D+00 0.147318887382513D+03
 0.147318887382513D+03 0.000000000000000D+00 0.000000000000000D+00 -.147318887382513D+03
 0.133804456422481D+03 -.349219657098366D+02 0.317615756273076D+02 -.709162767969812D+01
 0.982267534464214D+02 0.624920221177288D+01 0.185915940110003D+02 0.307984391239323D+02
 0.626065648961240D+02 0.286727634980637D+02 -.503531696383079D+02 -.237068114442342D+02
 0.000000000000000D+00 0.000000000000000D+00 0.000000000000000D+00 0.000000000000000D+00
 0.206736393684730D+03 0.000000000000000D+00 0.000000000000000D+00 0.206736393684730D+03
 0.198495279740423D+03 0.000000000000000D+00 0.000000000000000D+00 -.198495279740423D+03
 0.144128497669761D+03 -.710540140012735D+02 0.700426667837705D+01 -.709162767969812D+01
 0.981672905700567D+02 -.192825635542933D+02 0.109748994073547D+01 0.307984391239323D+02
 0.673495676935268D+02 0.117781089083125D+02 -.619292137056205D+02 -.237068114442342D+02
 0.955863174918070D+02 0.785584686472542D+02 0.538274570865079D+02 0.824111394430705D+01
0.219213337803D-05 0.000000000000D+00 0.000000000000D+00 0.361241177394D-06 0.000000000000D+00  6 -1 21 25 23 -1 21 2 0.90266351D-01 0.56906812D-02 0.20282667D+05 0.20282667D+05 0.20282667D+05 0.12331556D+01  1  2  2  2  6  2       21 0.848941879415D-02 0.100000000000D+01
-.797722972644D-07 0.115682056544D-06 -.442528570862D-08 0.361241177394D-06 0.000000000000D+00  6 -1 21 25 23 -1 21 4 0.90266351D-01 0.56906812D-02 0.20282667D+05 0.20282667D+05 0.20282667D+05 0.12331556D+01  1  2  3  2  6  2       21 -.469784667264D-03 0.100000000000D+01
0.187739215112D-06 0.000000000000D+00 0.000000000000D+00 0.361241177394D-06 0.000000000000D+00  6 -1 21 25 23 -1 21 4 0.90266351D-01 0.56906812D-02 0.20282667D+05 0.20282667D+05 0.20282667D+05 0.12331556D+01  1  2 15  2  6  2       21 0.110560943746D-02 0.100000000000D+01
-.301462769139D-06 0.000000000000D+00 0.000000000000D+00 0.361241177394D-06 0.000000000000D+00  6 -1 21 25 23 -1 21 4 0.90266351D-01 0.56906812D-02 0.20282667D+05 0.20282667D+05 0.20282667D+05 0.12331556D+01  1  2  4  2  6  2       21 -.177533544287D-02 0.100000000000D+01
  </mgrwgt>
  </event>
  <event>
  6     66 -.38788253E-03 0.22134560E+02 0.75467711E-02 0.12182032E+00
       -1 -1    0    0    0  501 0.00000000E+00 0.00000000E+00 0.71740289E+03 0.71740296E+03 0.32000000E+00 0.0000E+00 0.9000E+01
       21 -1    0    0  503  502 0.00000000E+00 0.00000000E+00 -.50924846E+02 0.50930368E+02 0.75000000E+00 0.0000E+00 0.9000E+01
       25  1    1    2    0    0 -.28449212E+02 0.10658398E+02 0.19618909E+03 0.23460204E+03 0.12500000E+03 0.0000E+00 0.9000E+01
       23  1    1    2    0    0 0.31185155E+02 0.68198357E+01 0.45084565E+03 0.46108142E+03 0.91188000E+02 0.0000E+00 0.9000E+01
       -1  1    1    2    0  502 0.97057677E+01 -.29052589E+02 -.15095272E+02 0.34150029E+02 0.32000000E+00 0.0000E+00 0.9000E+01
       21  1    1    2  503  501 -.12441711E+02 0.11574356E+02 0.34538581E+02 0.38499843E+02 0.75000000E+00 0.0000E+00 0.9000E+01
#aMCatNLO 2  0  0  2  1 0.16992995D+02 0.00000000D+00  -5  6  0 0.00000000D+00 0.00000000D+00 0.00000000D+00 0.00000000D+00 0.00000000D+00
  <mgrwgt>
 -.2502338750D-01    3    2    0
 0.182359994661356D+03 0.000000000000000D+00 0.000000000000000D+00 0.182359994661356D+03
 0.182359994661356D+03 0.000000000000000D+00 0.000000000000000D+00 -.182359994661356D+03
 0.130834932679342D+03 -.328852817307615D+02 0.147852558408682D+02 -.138828694590283D+02
 0.140646240225942D+03 0.263780422671987D+02 0.112918732520436D+02 0.103163976417658D+03
 0.932388164174275D+02 0.650723946356281D+01 -.260771290929118D+02 -.892811069586293D+02
 0.000000000000000D+00 -.000000000000000D+00 0.000000000000000D+00 0.000000000000000D+00
 0.192341025392813D+03 0.000000000000000D+00 0.000000000000000D+00 0.192341025392813D+03
 0.189936842458150D+03 0.000000000000000D+00 0.000000000000000D+00 -.189936842458150D+03
 0.129385838251113D+03 -.284492259120980D+02 0.106584530082578D+02 -.138828694590283D+02
 0.141340304099309D+03 0.311851452754099D+02 0.681989022886491D+01 0.103163976417658D+03
 0.943895002761669D+02 0.970579153547677D+01 -.290526988986594D+02 -.892811069586293D+02
 0.171622252243732D+02 -.124417108987887D+02 0.115743556615367D+02 0.240418293466345D+01
-.115170908717D-04 0.000000000000D+00 0.000000000000D+00 0.186760159786D-05 0.000000000000D+00  6 -1 21 25 23 -1 21 4 0.10463825D+00 0.80309935D-02 0.18615462D+05 0.18615462D+05 0.18615462D+05 0.12372709D+01  1  2 13  2  6  2       21 -.276299191070D-01 0.100000000000D+01
-.522131901783D-07 0.000000000000D+00 0.000000000000D+00 0.189040199796D-05 0.000000000000D+00  6 -1 21 25 23 -1 21 4 0.10463825D+00 0.75221493D-02 0.15947759D+05 0.15947759D+05 0.15947759D+05 0.12448005D+01  1  2  8  2  6  2       21 -.143701177180D-03 0.100000000000D+01
0.123879575511D-05 0.000000000000D+00 0.000000000000D+00 0.189040199796D-05 0.446252883044D-07  6 -1 21 25 23 -1 21 4 0.11036537D+00 0.78346859D-02 0.18615462D+05 0.18615462D+05 0.18615462D+05 0.12372709D+01  1  2  1  2  6  2       21 0.275023278517D-02 0.100000000000D+01
  </mgrwgt>
  </event>
  <event>
  5     66 0.38788253E-03 0.52676304E+02 0.75467711E-02 0.12033310E+00
       -1 -1    0    0    0  501 0.00000000E+00 0.00000000E+00 0.58156830E+02 0.58157710E+02 0.32000000E+00 0.0000E+00 0.9000E+01
       21 -1    0    0  501  502 -.00000000E+00 -.00000000E+00 -.11561464E+04 0.11561467E+04 0.75000000E+00 0.0000E+00 0.9000E+01
       25  1    1    2    0    0 -.19917417E+02 0.57833436E+02 -.19960997E+03 0.24333218E+03 0.12500000E+03 0.0000E+00 0.9000E+01
       23  1    1    2    0    0 0.42809308E+02 -.10391368E+02 -.36748980E+02 0.10773280E+03 0.91188000E+02 0.0000E+00 0.9000E+01
       -1  1    1    2    0  502 -.22891892E+02 -.47442068E+02 -.86163064E+03 0.86323940E+03 0.32000000E+00 0.0000E+00 0.9000E+01
#aMCatNLO 1  0  0  5  2 0.16511969D+01 0.00000000D+00  -5  6  0 0.00000000D+00 0.00000000D+00 0.00000000D+00 0.00000000D+00 0.00000000D+00
  <mgrwgt>
 0.1104083234D-01    5    2    0
 0.259303862910117D+03 0.000000000000000D+00 0.000000000000000D+00 0.259303862910117D+03
 0.259303862910117D+03 -.000000000000000D+00 -.000000000000000D+00 -.259303862910117D+03
 0.147143347173929D+03 -.199174081758827D+02 0.578334538144694D+02 0.477990908803962D+02
 0.174448711356334D+03 0.428093184579954D+02 -.103913473281984D+02 0.142043949901966D+03
 0.197015667289971D+03 -.228919102821127D+02 -.474421064862710D+02 -.189843040782363D+03
 0.000000000000000D+00 0.000000000000000D+00 0.000000000000000D+00 0.000000000000000D+00
 0.259303862910117D+03 0.000000000000000D+00 0.000000000000000D+00 0.259303862910117D+03
 0.259303862910117D+03 -.000000000000000D+00 -.000000000000000D+00 -.259303862910117D+03
 0.146406162776884D+03 -.201390712398674D+02 0.573740704534462D+02 0.459608349385635D+02
 0.172652236664508D+03 0.425472180046061D+02 -.109345347453494D+02 0.139870345932326D+03
 0.196000490351549D+03 -.216849459888117D+02 -.484253219176847D+02 -.188682122981163D+03
 0.354883602729430D+01 -.723200775926991D+00 0.198578620958789D+01 0.285094211027357D+01
0.504546364303D-04 0.000000000000D+00 0.000000000000D+00 0.200063440424D-05 0.000000000000D+00  6 -1 21 25 23 -1 21 2 0.89472911D-02 0.17786877D+00 0.21478489D+05 0.21478489D+05 0.21478489D+05 0.12304306D+01  1  2  2  3  6  5       -1 0.953097540557D-02 0.100000000000D+01
0.490626939993D-05 0.266256431425D-05 -.101853374328D-06 0.200063440424D-05 0.000000000000D+00  6 -1 21 25 23 -1 21 4 0.89472911D-02 0.17786877D+00 0.21478489D+05 0.21478489D+05 0.21478489D+05 0.12304306D+01  1  2  3  3  6  5       -1 0.140314293890D-02 0.100000000000D+01
0.386309273441D-05 0.000000000000D+00 0.000000000000D+00 0.200063440424D-05 0.000000000000D+00  6 -1 21 25 23 -1 21 4 0.89472911D-02 0.17786877D+00 0.21478489D+05 0.21478489D+05 0.21478489D+05 0.12304306D+01  1  2 15  3  6  5       -1 0.110480506690D-02 0.100000000000D+01
-.152502579230D-03 0.000000000000D+00 0.000000000000D+00 0.200063440424D-05 0.000000000000D+00  6 -1 21 25 23 -1 21 4 0.89472911D-02 0.17786877D+00 0.21478489D+05 0.21478489D+05 0.21478489D+05 0.12304306D+01  1  2  4  3  6  5       -1 -.436141800963D-01 0.100000000000D+01
0.149473936967D-03 0.000000000000D+00 0.000000000000D+00 0.200063440424D-05 0.357121103214D-05  6 -1 21 25 23 -1 21 4 0.89472911D-02 0.17786877D+00 0.21814581D+05 0.21814581D+05 0.21814581D+05 0.12296952D+01  1  2 11  3  6  5       -1 0.426160890279D-01 0.100000000000D+01
  </mgrwgt>
  </event>
  <event>
  5     66 0.38788253E-03 0.22554451E+02 0.75467711E-02 0.12108192E+00
       -1 -1    0    0    0  501 0.00000000E+00 0.00000000E+00 0.30704099E+03 0.30704115E+03 0.32000000E+00 0.0000E+00 0.9000E+01
       21 -1    0    0  501  502 0.00000000E+00 0.00000000E+00 -.12998764E+03 0.12998980E+03 0.75000000E+00 0.0000E+00 0.9000E+01
       25  1    1    2    0    0 -.27359590E+01 -.50568163E+02 0.51873288E+02 0.14450074E+03 0.12500000E+03 0.0000E+00 0.9000E+01
       23  1    1    2    0    0 0.13848128E+02 0.70195172E+02 0.19074171E+03 0.22319674E+03 0.91188000E+02 0.0000E+00 0.9000E+01
       -1  1    1    2    0  502 -.11112169E+02 -.19627009E+02 -.65561648E+02 0.69333483E+02 0.32000000E+00 0.0000E+00 0.9000E+01
#aMCatNLO 1  0  0  2  1 0.93511602D+01 0.00000000D+00  -5  6  0 0.00000000D+00 0.00000000D+00 0.00000000D+00 0.00000000D+00 0.00000000D+00
  <mgrwgt>
 0.5675957591D-01   32    4    0
 0.199779983912226D+03 0.000000000000000D+00 0.000000000000000D+00 0.199779983912226D+03
 0.199779983912226D+03 0.000000000000000D+00 0.000000000000000D+00 -.199779983912226D+03
 0.135065950791638D+03 -.273594153504193D+01 -.505681319063370D+02 -.729312845556033D+01
 0.159606791770265D+03 0.138481487108068D+02 0.701952081322029D+02 0.109726652039315D+03
 0.104887225262549D+03 -.111122071757649D+02 -.196270762258658D+02 -.102433523583754D+03
 0.000000000000000D+00 -.000000000000000D+00 0.000000000000000D+00 -.000000000000000D+00
 0.200562670646801D+03 0.000000000000000D+00 0.000000000000000D+00 0.200562670646801D+03
 0.229864369446930D+03 0.000000000000000D+00 0.000000000000000D+00 -.229864369446930D+03
 0.136268833223194D+03 -.233473218354968D+01 -.537173548396822D+02 -.729312845556033D+01
 0.158061803390679D+03 0.143178695817107D+02 0.665082159586166D+02 0.109726652039315D+03
 0.105338741852953D+03 -.108013564153676D+02 -.220670451344913D+02 -.102433523583754D+03
 0.307576616269057D+02 -.118178098279345D+01 0.927618401555697D+01 -.293016988001286D+02
 0.199779983912226D+03 0.000000000000000D+00 0.000000000000000D+00 0.199779983912226D+03
 0.199779983912226D+03 0.000000000000000D+00 0.000000000000000D+00 -.199779983912226D+03
 0.135065950791638D+03 -.273594153504193D+01 -.505681319063370D+02 -.729312845556033D+01
 0.159606791770265D+03 0.138481487108068D+02 0.701952081322029D+02 0.109726652039315D+03
 0.000000000000000D+00 -.000000000000000D+00 0.000000000000000D+00 -.000000000000000D+00
 0.104887225262549D+03 -.111122071757649D+02 -.196270762258658D+02 -.102433523583754D+03
 0.200562670646801D+03 0.000000000000000D+00 0.000000000000000D+00 0.200562670646801D+03
 0.229864369446930D+03 0.000000000000000D+00 0.000000000000000D+00 -.229864369446930D+03
 0.136268833223194D+03 -.233473218354968D+01 -.537173548396822D+02 -.729312845556033D+01
 0.158061803390679D+03 0.143178695817107D+02 0.665082159586166D+02 0.109726652039315D+03
 0.307576616269057D+02 -.118178098279345D+01 0.927618401555697D+01 -.293016988001286D+02
 0.105338741852953D+03 -.108013564153676D+02 -.220670451344913D+02 -.102433523583754D+03
0.189673816760D-05 0.000000000000D+00 0.000000000000D+00 0.258509479484D-05 0.000000000000D+00  6 -1 21 25 23 -1 21 2 0.47237254D-01 0.19998277D-01 0.18677346D+05 0.18677346D+05 0.18677346D+05 0.12371109D+01  1  2  2  2  6  2       21 0.284084400136D-02 0.100000000000D+01
0.388779322168D-06 0.100093623021D-06 -.382896788589D-08 0.258509479484D-05 0.000000000000D+00  6 -1 21 25 23 -1 21 4 0.47237254D-01 0.19998277D-01 0.18677346D+05 0.18677346D+05 0.18677346D+05 0.12371109D+01  1  2  3  2  6  2       21 0.891169679405D-03 0.100000000000D+01
0.174159142951D-06 0.000000000000D+00 0.000000000000D+00 0.258509479484D-05 0.000000000000D+00  6 -1 21 25 23 -1 21 4 0.47237254D-01 0.19998277D-01 0.18677346D+05 0.18677346D+05 0.18677346D+05 0.12371109D+01  1  2 15  2  6  2       21 0.399211940397D-03 0.100000000000D+01
0.420454400240D-04 0.000000000000D+00 0.000000000000D+00 0.257009036941D-05 0.000000000000D+00  6 -1 21 25 23 -1 21 4 0.47237254D-01 0.23045317D-01 0.20130412D+05 0.20130412D+05 0.20130412D+05 0.12335154D+01  1  2 12  2  6  2       21 0.730822955234D-01 0.100000000000D+01
-.273902368174D-04 0.000000000000D+00 0.000000000000D+00 0.258509479484D-05 0.000000000000D+00  6 -1 21 25 23 -1 21 4 0.47237254D-01 0.19998277D-01 0.18677346D+05 0.18677346D+05 0.18677346D+05 0.12371109D+01  1  2  4  2  6  2       21 -.627845854232D-01 0.100000000000D+01
-.938654898755D-04 0.000000000000D+00 -.450627237440D-05 0.258509479484D-05 0.000000000000D+00  6 -1 21 25 23 -1 21 4 0.47237254D-01 0.23065435D-01 0.18677346D+05 0.18677346D+05 0.18677346D+05 0.12371109D+01  1  2  5  2  6  2       21 -.164903339536D+00 0.100000000000D+01
0.912276226422D-04 0.000000000000D+00 0.432793794084D-05 0.258509479484D-05 0.000000000000D+00  6 -1 21 25 23 -1 21 4 0.47237254D-01 0.19998277D-01 0.18677346D+05 0.18677346D+05 0.18677346D+05 0.12371109D+01  1  2  6  2  6  2       21 0.209114236759D+00 0.100000000000D+01
0.641019472297D-09 0.000000000000D+00 0.000000000000D+00 0.258509479484D-05 0.296112625195D-06  6 -1 21 25 23 -1 21 4 0.47422318D-01 0.23009770D-01 0.20130412D+05 0.20130412D+05 0.20130412D+05 0.12335154D+01  1  2 11  2  6  2       21 0.110956743690D-05 0.100000000000D+01
0.156325788620D-05 0.000000000000D+00 0.000000000000D+00 0.257009036941D-05 0.000000000000D+00  6 -1 -1 25 23 -1 -1 4 0.47237254D-01 0.23045317D-01 0.20130412D+05 0.20130412D+05 0.20130412D+05 0.12335154D+01  1  2 12  5  6  2       21 0.220075718049D-03 0.100000000000D+01
-.328441193715D-05 0.000000000000D+00 -.173138431408D-06 0.258509479484D-05 0.000000000000D+00  6 -1 -1 25 23 -1 -1 4 0.47237254D-01 0.23065435D-01 0.18677346D+05 0.18677346D+05 0.18677346D+05 0.12371109D+01  1  2  5  5  6  2       21 -.466785671311D-03 0.100000000000D+01
0.115684331427D-09 0.000000000000D+00 0.000000000000D+00 0.258509479484D-05 0.177710239670D-07  6 -1 -1 25 23 -1 -1 4 0.47422318D-01 0.23009770D-01 0.20130412D+05 0.20130412D+05 0.20130412D+05 0.12335154D+01  1  2 11  5  6  2       21 0.162120685807D-07 0.100000000000D+01
0.156325788620D-05 0.000000000000D+00 0.000000000000D+00 0.257009036941D-05 0.000000000000D+00  6 -1 1 25 23 1 -1 4 0.47237254D-01 0.23045317D-01 0.20130412D+05 0.20130412D+05 0.20130412D+05 0.12335154D+01  3  4 12  6  5  2       21 0.347905088514D-03 0.100000000000D+01
-.328441193715D-05 0.000000000000D+00 -.173138431408D-06 0.258509479484D-05 0.000000000000D+00  6 -1 1 25 23 1 -1 4 0.47237254D-01 0.23065435D-01 0.18677346D+05 0.18677346D+05 0.18677346D+05 0.12371109D+01  3  4  5  6  5  2       21 -.738176959891D-03 0.100000000000D+01
0.163916499124D-09 0.000000000000D+00 0.000000000000D+00 0.258509479484D-05 0.624386502933D-07  6 -1 1 25 23 1 -1 4 0.47422318D-01 0.23009770D-01 0.20130412D+05 0.20130412D+05 0.20130412D+05 0.12335154D+01  3  4 11  6  5  2       21 0.362934893725D-07 0.100000000000D+01
0.156325788620D-05 0.000000000000D+00 0.000000000000D+00 0.257009036941D-05 0.000000000000D+00  6 -1 -2 25 23 -1 -2 4 0.47237254D-01 0.23045317D-01 0.20130412D+05 0.20130412D+05 0.20130412D+05 0.12335154D+01  1  2 12  7  6  2       21 0.198666009396D-03 0.100000000000D+01
0.156325788620D-05 0.000000000000D+00 0.000000000000D+00 0.257009036941D-05 0.000000000000D+00  6 -1 -4 25 23 -1 -4 4 0.47237254D-01 0.23045317D-01 0.20130412D+05 0.20130412D+05 0.20130412D+05 0.12335154D+01  1  2 12  7  6  2       21 0.108894593674D-03 0.100000000000D+01
-.328441193715D-05 0.000000000000D+00 -.173138431408D-06 0.258509479484D-05 0.000000000000D+00  6 -1 -2 25 23 -1 -2 4 0.47237254D-01 0.23065435D-01 0.18677346D+05 0.18677346D+05 0.18677346D+05 0.12371109D+01  1  2  5  7  6  2       21 -.421301305560D-03 0.100000000000D+01
-.328441193715D-05 0.000000000000D+00 -.173138431408D-06 0.258509479484D-05 0.000000000000D+00  6 -1 -4 25 23 -1 -4 4 0.47237254D-01 0.23065435D-01 0.18677346D+05 0.18677346D+05 0.18677346D+05 0.12371109D+01  1  2  5  7  6  2       21 -.230323035774D-03 0.100000000000D+01
0.675886007375D-10 0.000000000000D+00 0.000000000000D+00 0.258509479484D-05 0.152782501035D-07  6 -1 -2 25 23 -1 -2 4 0.47422318D-01 0.23009770D-01 0.20130412D+05 0.20130412D+05 0.20130412D+05 0.12335154D+01  1  2 11  7  6  2       21 0.855172766204D-08 0.100000000000D+01
0.675886007375D-10 0.000000000000D+00 0.000000000000D+00 0.258509479484D-05 0.152782501035D-07  6 -1 -4 25 23 -1 -4 4 0.47422318D-01 0.23009770D-01 0.20130412D+05 0.20130412D+05 0.20130412D+05 0.12335154D+01  1  2 11  7  6  2       21 0.468819329635D-08 0.100000000000D+01
0.156325788620D-05 0.000000000000D+00 0.000000000000D+00 0.257009036941D-05 0.000000000000D+00  6 -1 2 25 23 2 -1 4 0.47237254D-01 0.23045317D-01 0.20130412D+05 0.20130412D+05 0.20130412D+05 0.12335154D+01  3  4 12  8  5  2       21 0.438659794435D-03 0.100000000000D+01
0.156325788620D-05 0.000000000000D+00 0.000000000000D+00 0.257009036941D-05 0.000000000000D+00  6 -1 4 25 23 4 -1 4 0.47237254D-01 0.23045317D-01 0.20130412D+05 0.20130412D+05 0.20130412D+05 0.12335154D+01  3  4 12  8  5  2       21 0.108894593674D-03 0.100000000000D+01
-.328441193715D-05 0.000000000000D+00 -.173138431408D-06 0.258509479484D-05 0.000000000000D+00  6 -1 2 25 23 2 -1 4 0.47237254D-01 0.23065435D-01 0.18677346D+05 0.18677346D+05 0.18677346D+05 0.12371109D+01  3  4  5  8  5  2       21 -.930750388618D-03 0.100000000000D+01
-.328441193715D-05 0.000000000000D+00 -.173138431408D-06 0.258509479484D-05 0.000000000000D+00  6 -1 4 25 23 4 -1 4 0.47237254D-01 0.23065435D-01 0.18677346D+05 0.18677346D+05 0.18677346D+05 0.12371109D+01  3  4  5  8  5  2       21 -.230323035774D-03 0.100000000000D+01
0.673932632256D-10 0.000000000000D+00 0.000000000000D+00 0.258509479484D-05 0.152340945014D-07  6 -1 2 25 23 2 -1 4 0.47422318D-01 0.23009770D-01 0.20130412D+05 0.20130412D+05 0.20130412D+05 0.12335154D+01  3  4 11  8  5  2       21 0.188100650298D-07 0.100000000000D+01
0.673932632256D-10 0.000000000000D+00 0.000000000000D+00 0.258509479484D-05 0.152340945014D-07  6 -1 4 25 23 4 -1 4 0.47422318D-01 0.23009770D-01 0.20130412D+05 0.20130412D+05 0.20130412D+05 0.12335154D+01  3  4 11  8  5  2       21 0.467464396993D-08 0.100000000000D+01
0.156325788620D-05 0.000000000000D+00 0.000000000000D+00 0.257009036941D-05 0.000000000000D+00  6 -1 -3 25 23 -1 -3 4 0.47237254D-01 0.23045317D-01 0.20130412D+05 0.20130412D+05 0.20130412D+05 0.12335154D+01  1  2 12  9  6  2       21 0.128438744866D-03 0.100000000000D+01
-.328441193715D-05 0.000000000000D+00 -.173138431408D-06 0.258509479484D-05 0.000000000000D+00  6 -1 -3 25 23 -1 -3 4 0.47237254D-01 0.23065435D-01 0.18677346D+05 0.18677346D+05 0.18677346D+05 0.12371109D+01  1  2  5  9  6  2       21 -.271894846178D-03 0.100000000000D+01
0.682441485392D-10 0.000000000000D+00 0.000000000000D+00 0.258509479484D-05 0.154264351992D-07  6 -1 -3 25 23 -1 -3 4 0.47422318D-01 0.23009770D-01 0.20130412D+05 0.20130412D+05 0.20130412D+05 0.12335154D+01  1  2 11  9  6  2       21 0.558291524268D-08 0.100000000000D+01
0.156325788620D-05 0.000000000000D+00 0.000000000000D+00 0.257009036941D-05 0.000000000000D+00  6 -1 3 25 23 3 -1 4 0.47237254D-01 0.23045317D-01 0.20130412D+05 0.20130412D+05 0.20130412D+05 0.12335154D+01  3  4 12 10  5  2       21 0.128430269815D-03 0.100000000000D+01
-.328441193715D-05 0.000000000000D+00 -.173138431408D-06 0.258509479484D-05 0.000000000000D+00  6 -1 3 25 23 3 -1 4 0.47237254D-01 0.23065435D-01 0.18677346D+05 0.18677346D+05 0.18677346D+05 0.12371109D+01  3  4  5 10  5  2       21 -.271876590828D-03 0.100000000000D+01
0.685815877755D-10 0.000000000000D+00 0.000000000000D+00 0.258509479484D-05 0.155027125743D-07  6 -1 3 25 23 3 -1 4 0.47422318D-01 0.23009770D-01 0.20130412D+05 0.20130412D+05 0.20130412D+05 0.12335154D+01  3  4 11 10  5  2       21 0.561014824608D-08 0.100000000000D+01
  </mgrwgt>
  </event>
  <event>
  6     66 0.38788253E-03 0.44045454E+02 0.75467711E-02 0.11466121E+00
       -1 -1    0    0    0  501 0.00000000E+00 0.00000000E+00 0.14462515E+04 0.14462515E+04 0.32000000E+00 0.0000E+00 0.9000E+01
        1 -1    0    0  501    0 0.00000000E+00 0.00000000E+00 -.10854021E+03 0.10854068E+03 0.32000000E+00 0.0000E+00 0.9000E+01
       25  1    1    2    0    0 0.28423427E+02 -.44243109E+02 0.28593493E+03 0.31646347E+03 0.12500000E+03 0.0000E+00 0.9000E+01
       23  1    1    2    0    0 -.39441581E+02 0.59715524E+02 0.59603837E+03 0.60720554E+03 0.91188000E+02 0.0000E+00 0.9000E+01
        1  1    1    2  502    0 0.80506794E+02 0.11717498E+02 -.65577269E+02 0.10449461E+03 0.32000000E+00 0.0000E+00 0.9000E+01
       -1  1    1    2    0  502 -.69488639E+02 -.27189913E+02 0.52131526E+03 0.52662858E+03 0.32000000E+00 0.0000E+00 0.9000E+01
#aMCatNLO 2  0  0  2  1 0.34353418D+02 0.00000000D+00  -5  6  0 0.00000000D+00 0.00000000D+00 0.00000000D+00 0.00000000D+00 0.00000000D+00
  <mgrwgt>
 0.9411453003D-03    1    2    0
 0.178553700231264D+03 0.000000000000000D+00 0.000000000000000D+00 0.178553700231264D+03
 0.178553700231264D+03 0.000000000000000D+00 0.000000000000000D+00 -.178553700231264D+03
 0.166579894053936D+03 0.645016438299956D+02 -.389919684325405D+02 -.802684585874468D+02
 0.116881671684287D+03 -.129974601645968D+02 0.635644311212033D+02 0.337150256891636D+02
 0.000000000000000D+00 0.000000000000000D+00 0.000000000000000D+00 -.000000000000000D+00
 0.736458347243062D+02 -.515041836653988D+02 -.245724626886628D+02 0.465534328982833D+02
 0.185626080337934D+03 0.000000000000000D+00 0.000000000000000D+00 0.185626080337934D+03
 0.845661153969322D+03 0.000000000000000D+00 0.000000000000000D+00 -.845661153969322D+03
 0.157586075992592D+03 0.284236235761170D+02 -.442430053855032D+02 -.802684585874468D+02
 0.120720886379870D+03 -.394414138620858D+02 0.597156008064906D+02 0.337150256891636D+02
 0.665030030903557D+03 0.805067935584934D+02 0.117174984925825D+02 -.660035073631388D+03
 0.879502410312368D+02 -.694890032725246D+02 -.271900939135699D+02 0.465534328982833D+02
0.115496918299D-03 0.000000000000D+00 0.000000000000D+00 0.100185489051D-06 0.181552704754D-08  6 -1 1 25 23 1 -1 4 0.22250022D+00 0.16698529D-01 0.41514588D+05 0.41514588D+05 0.41514588D+05 0.12003646D+01  1  2  1  6  5  2       21 0.941145300303D-03 0.100000000000D+01
  </mgrwgt>
  </event>
  <event>
  5     66 -.38788253E-03 0.24825196E+02 0.75467711E-02 0.11417819E+00
       -1 -1    0    0    0  501 0.00000000E+00 0.00000000E+00 0.24568410E+03 0.24568431E+03 0.32000000E+00 0.0000E+00 0.9000E+01
       21 -1    0    0  501  502 0.00000000E+00 0.00000000E+00 -.13299339E+03 0.13299550E+03 0.75000000E+00 0.0000E+00 0.9000E+01
       25  1    1    2    0    0 -.82114800E+02 -.63963848E+02 0.11575716E+03 0.19964702E+03 0.12500000E+03 0.0000E+00 0.9000E+01
       23  1    1    2    0    0 0.87569826E+02 0.88180466E+02 -.39459807E+01 0.15419174E+03 0.91188000E+02 0.0000E+00 0.9000E+01
       -1  1    1    2    0  502 -.54550266E+01 -.24216619E+02 0.87953474E+00 0.24841053E+02 0.32000000E+00 0.0000E+00 0.9000E+01
#aMCatNLO 1  0  0  2  1 0.34353418D+02 0.00000000D+00  -5  6  0 0.00000000D+00 0.00000000D+00 0.00000000D+00 0.00000000D+00 0.00000000D+00
  <mgrwgt>
 -.5019160145D-01   12    4    0
 0.180761723494317D+03 0.000000000000000D+00 0.000000000000000D+00 0.180761723494317D+03
 0.180761723494317D+03 0.000000000000000D+00 0.000000000000000D+00 -.180761723494317D+03
 0.173038340169585D+03 -.821145977986995D+02 -.639629524597694D+02 0.590186471348863D+02
 0.162739505247348D+03 0.875700158065671D+02 0.881813085455544D+02 -.521962103890976D+02
 0.257456015717002D+02 -.545541800786755D+01 -.242183560857850D+02 -.682243674578868D+01
 0.000000000000000D+00 -.000000000000000D+00 0.000000000000000D+00 -.000000000000000D+00
 0.189436508319118D+03 0.000000000000000D+00 0.000000000000000D+00 0.189436508319118D+03
 0.421806672974221D+03 0.000000000000000D+00 0.000000000000000D+00 -.421806672974221D+03
 0.178424780534285D+03 -.641029738786140D+02 -.928332394080556D+02 0.590186471348863D+02
 0.160255717575464D+03 0.104122729701037D+03 0.616494643305903D+02 -.521962103890976D+02
 0.296847857576825D+02 -.261474645085738D+01 -.287715825655620D+02 -.682243674578868D+01
 0.242877897425908D+03 -.374050093715657D+02 0.599553576430273D+02 -.232370164655103D+03
 0.180761723494317D+03 0.000000000000000D+00 0.000000000000000D+00 0.180761723494317D+03
 0.180761723494317D+03 0.000000000000000D+00 0.000000000000000D+00 -.180761723494317D+03
 0.173038340169585D+03 -.821145977986995D+02 -.639629524597694D+02 0.590186471348863D+02
 0.162739505247348D+03 0.875700158065671D+02 0.881813085455544D+02 -.521962103890976D+02
 0.000000000000000D+00 -.000000000000000D+00 0.000000000000000D+00 -.000000000000000D+00
 0.257456015717002D+02 -.545541800786755D+01 -.242183560857850D+02 -.682243674578868D+01
 0.189436508319118D+03 0.000000000000000D+00 0.000000000000000D+00 0.189436508319118D+03
 0.421806672974221D+03 0.000000000000000D+00 0.000000000000000D+00 -.421806672974221D+03
 0.178424780534285D+03 -.641029738786140D+02 -.928332394080556D+02 0.590186471348863D+02
 0.160255717575464D+03 0.104122729701037D+03 0.616494643305903D+02 -.521962103890976D+02
 0.242877897425908D+03 -.374050093715657D+02 0.599553576430273D+02 -.232370164655103D+03
 0.296847857576825D+02 -.261474645085738D+01 -.287715825655620D+02 -.682243674578868D+01
0.537303246143D-05 0.000000000000D+00 0.000000000000D+00 0.301372893711D-06 0.000000000000D+00  6 -1 21 25 23 -1 21 2 0.37797733D-01 0.20460700D-01 0.29177671D+05 0.29177671D+05 0.29177671D+05 0.12161673D+01  1  2  2  2  6  2       21 0.110496969077D-01 0.100000000000D+01
0.427532652905D-06 0.283542712886D-06 -.108466045004D-07 0.301372893711D-06 0.000000000000D+00  6 -1 21 25 23 -1 21 4 0.37797733D-01 0.20460700D-01 0.29177671D+05 0.29177671D+05 0.29177671D+05 0.12161673D+01  1  2  3  2  6  2       21 0.130042956581D-02 0.100000000000D+01
0.475392496971D-06 0.000000000000D+00 0.000000000000D+00 0.301372893711D-06 0.000000000000D+00  6 -1 21 25 23 -1 21 4 0.37797733D-01 0.20460700D-01 0.29177671D+05 0.29177671D+05 0.29177671D+05 0.12161673D+01  1  2 15  2  6  2       21 0.144600524480D-02 0.100000000000D+01
-.920674889367D-04 0.000000000000D+00 -.921825727126D-05 0.301372893711D-06 0.000000000000D+00  6 -1 21 25 23 -1 21 4 0.37797733D-01 0.49102028D-01 0.29177671D+05 0.29177671D+05 0.29177671D+05 0.12161673D+01  1  2  5  2  6  2       21 -.503564321984D-01 0.100000000000D+01
-.274688913608D-04 0.000000000000D+00 -.279505943000D-05 0.301372893711D-06 0.000000000000D+00  6 -1 -1 25 23 -1 -1 4 0.37797733D-01 0.49102028D-01 0.29177671D+05 0.29177671D+05 0.29177671D+05 0.12161673D+01  1  2  5  5  6  2       21 -.148242256132D-02 0.100000000000D+01
-.274688913608D-04 0.000000000000D+00 -.279505943000D-05 0.301372893711D-06 0.000000000000D+00  6 -1 1 25 23 1 -1 4 0.37797733D-01 0.49102028D-01 0.29177671D+05 0.29177671D+05 0.29177671D+05 0.12161673D+01  3  4  5  6  5  2       21 -.334399559983D-02 0.100000000000D+01
-.274688913608D-04 0.000000000000D+00 -.279505943000D-05 0.301372893711D-06 0.000000000000D+00  6 -1 -2 25 23 -1 -2 4 0.37797733D-01 0.49102028D-01 0.29177671D+05 0.29177671D+05 0.29177671D+05 0.12161673D+01  1  2  5  7  6  2       21 -.121787899215D-02 0.100000000000D+01
-.274688913608D-04 0.000000000000D+00 -.279505943000D-05 0.301372893711D-06 0.000000000000D+00  6 -1 -4 25 23 -1 -4 4 0.37797733D-01 0.49102028D-01 0.29177671D+05 0.29177671D+05 0.29177671D+05 0.12161673D+01  1  2  5  7  6  2       21 -.633665551139D-03 0.100000000000D+01
-.274688913608D-04 0.000000000000D+00 -.279505943000D-05 0.301372893711D-06 0.000000000000D+00  6 -1 2 25 23 2 -1 4 0.37797733D-01 0.49102028D-01 0.29177671D+05 0.29177671D+05 0.29177671D+05 0.12161673D+01  3  4  5  8  5  2       21 -.478413060586D-02 0.100000000000D+01
-.274688913608D-04 0.000000000000D+00 -.279505943000D-05 0.301372893711D-06 0.000000000000D+00  6 -1 4 25 23 4 -1 4 0.37797733D-01 0.49102028D-01 0.29177671D+05 0.29177671D+05 0.29177671D+05 0.12161673D+01  3  4  5  8  5  2       21 -.633665551139D-03 0.100000000000D+01
-.274688913608D-04 0.000000000000D+00 -.279505943000D-05 0.301372893711D-06 0.000000000000D+00  6 -1 -3 25 23 -1 -3 4 0.37797733D-01 0.49102028D-01 0.29177671D+05 0.29177671D+05 0.29177671D+05 0.12161673D+01  1  2  5  9  6  2       21 -.767617696556D-03 0.100000000000D+01
-.274688913608D-04 0.000000000000D+00 -.279505943000D-05 0.301372893711D-06 0.000000000000D+00  6 -1 3 25 23 3 -1 4 0.37797733D-01 0.49102028D-01 0.29177671D+05 0.29177671D+05 0.29177671D+05 0.12161673D+01  3  4  5 10  5  2       21 -.767924407056D-03 0.100000000000D+01
  </mgrwgt>
  </event>
  <event>
  6     66 0.38788253E-03 0.18696687E+02 0.75467711E-02 0.12388160E+00
       -1 -1    0    0    0  501 0.00000000E+00 0.00000000E+00 0.64035441E+02 0.64036241E+02 0.32000000E+00 0.0000E+00 0.9000E+01
       21 -1    0    0  501  502 -.00000000E+00 -.00000000E+00 -.32569820E+03 0.32569907E+03 0.75000000E+00 0.0000E+00 0.9000E+01
       25  1    1    2    0    0 -.23795323E+02 0.50708158E+01 -.11829606E+03 0.17381280E+03 0.12500000E+03 0.0000E+00 0.9000E+01
       23  1    1    2    0    0 0.24816976E+01 -.46998562E+01 -.26228514E+02 0.95033856E+02 0.91188000E+02 0.0000E+00 0.9000E+01
       -1  1    1    2    0  503 0.20890022E+02 0.48291744E+01 -.64151849E+02 0.67640788E+02 0.32000000E+00 0.0000E+00 0.9000E+01
       21  1    1    2  503  502 0.42360340E+00 -.52001341E+01 -.52986338E+02 0.53247867E+02 0.75000000E+00 0.0000E+00 0.9000E+01
#aMCatNLO 2  0  0  5  2 0.10331432D+02 0.00000000D+00  -5  6  0 0.00000000D+00 0.00000000D+00 0.00000000D+00 0.00000000D+00 0.00000000D+00
  <mgrwgt>
 0.4675991486D-01    1    2    0
 0.144417977890690D+03 0.000000000000000D+00 0.000000000000000D+00 0.144417977890690D+03
 0.144417977890690D+03 -.000000000000000D+00 -.000000000000000D+00 -.144417977890690D+03
 0.127482206156606D+03 -.245067965507579D+02 0.508319888569807D+01 -.539350038137975D+00
 0.105111708979324D+03 0.189658924752200D+01 -.468967249190893D+01 0.520348915795821D+02
 0.562420406454506D+02 0.226102073032359D+02 -.393526393789135D+00 -.514955415414442D+02
 0.000000000000000D+00 0.000000000000000D+00 0.000000000000000D+00 -.000000000000000D+00
 0.144417977890690D+03 0.000000000000000D+00 0.000000000000000D+00 0.144417977890690D+03
 0.144417977890690D+03 -.000000000000000D+00 -.000000000000000D+00 -.144417977890690D+03
 0.127364002444498D+03 -.237951648785182D+02 0.507081307065768D+01 -.216011617480158D+01
 0.104471007495660D+03 0.248182730076332D+01 -.469985844984870D+01 0.507019913510199D+02
 0.327833772039249D+02 0.207636933739834D+02 0.485375835291392D+01 -.249010017512859D+02
 0.242175686372974D+02 0.549644203771457D+00 -.522471297372290D+01 -.236408734249325D+02
0.913907294907D-05 0.000000000000D+00 0.000000000000D+00 0.224972149367D-05 0.106383614137D-05  6 -1 21 25 23 -1 21 4 0.98517343D-02 0.50107544D-01 0.15038785D+05 0.15038785D+05 0.15038785D+05 0.12476947D+01  1  2  1  3  6  5       -1 0.467599148609D-01 0.100000000000D+01
  </mgrwgt>
  </event>
  <event>
  6     66 -.38788253E-03 0.37644398E+02 0.75467711E-02 0.12021875E+00
       -3 -1    0    0    0  501 0.00000000E+00 0.00000000E+00 0.21181192E+03 0.21181251E+03 0.50000000E+00 0.0000E+00 0.9000E+01
       21 -1    0    0  501  503 0.00000000E+00 0.00000000E+00 -.11519925E+03 0.11520169E+03 0.75000000E+00 0.0000E+00 0.9000E+01
       25  1    1    2    0    0 0.69534445E+01 -.49703167E+02 0.72353955E+02 0.15290144E+03 0.12500000E+03 0.0000E+00 0.9000E+01
       23  1    1    2    0    0 0.23275557E+02 0.10937964E+02 0.20576018E+02 0.96953672E+02 0.91188000E+02 0.0000E+00 0.9000E+01
       -3  1    1    2    0  502 -.11587066E+02 0.46258990E+02 0.19554068E+02 0.51543824E+02 0.50000000E+00 0.0000E+00 0.9000E+01
       21  1    1    2  502  503 -.18641936E+02 -.74937871E+01 -.15871372E+02 0.25615260E+02 0.75000000E+00 0.0000E+00 0.9000E+01
#aMCatNLO 2  0  0  2  1 0.20091755D+02 0.00000000D+00  -5  6  0 0.00000000D+00 0.00000000D+00 0.00000000D+00 0.00000000D+00 0.00000000D+00
  <mgrwgt>
 -.4077574944D-02    3    2    0
 0.139449793676490D+03 0.000000000000000D+00 0.000000000000000D+00 0.139449793676490D+03
 0.139449793676490D+03 0.000000000000000D+00 0.000000000000000D+00 -.139449793676490D+03
 0.136926113790786D+03 -.214575917010499D+01 -.533623085713244D+02 0.164809095431604D+02
 0.946268333260080D+02 0.169056511656750D+02 0.837639141289894D+01 -.168232359215021D+02
 0.473466402361870D+02 -.147598919955700D+02 0.449859171584255D+02 0.342326378341625D+00
 0.000000000000000D+00 -.000000000000000D+00 -.000000000000000D+00 -.000000000000000D+00
 0.143098633947797D+03 0.000000000000000D+00 0.000000000000000D+00 0.143098633947797D+03
 0.170509550343898D+03 0.000000000000000D+00 0.000000000000000D+00 -.170509550343898D+03
 0.135703731741738D+03 0.695387997339890D+01 -.497043859491231D+02 0.164809095431604D+02
 0.962271141755296D+02 0.232758343273350D+02 0.109371124181089D+02 -.168232359215021D+02
 0.476915037654077D+02 -.115877784890915D+02 0.462610606638492D+02 0.342326378341625D+00
 0.339858346090196D+02 -.186419358116423D+02 -.749378713283500D+01 -.274109163961002D+02
-.229858298670D-05 0.000000000000D+00 0.000000000000D+00 0.316671512286D-06 0.000000000000D+00  6 -3 21 25 23 -3 21 4 0.31754860D-01 0.17883372D-01 0.22085879D+05 0.22085879D+05 0.22085879D+05 0.12291108D+01  1  2 13  2  6  2       21 -.700334422528D-02 0.100000000000D+01
-.179647298674D-05 0.000000000000D+00 0.000000000000D+00 0.316671512286D-06 0.000000000000D+00  6 -3 21 25 23 -3 21 4 0.31754860D-01 0.18824144D-01 0.22085879D+05 0.22085879D+05 0.22085879D+05 0.12291108D+01  1  2 13  2  6  2       21 -.498070659071D-02 0.100000000000D+01
0.267871468781D-05 0.000000000000D+00 0.000000000000D+00 0.320250586011D-06 0.134210708158D-07  6 -3 21 25 23 -3 21 4 0.32585757D-01 0.17722691D-01 0.22085879D+05 0.22085879D+05 0.22085879D+05 0.12291108D+01  1  2  1  2  6  2       21 0.790647587235D-02 0.100000000000D+01
  </mgrwgt>
  </event>
  <event>
  5     66 0.38788253E-03 0.54356141E+02 0.75467711E-02 0.11771643E+00
       -1 -1    0    0    0  501 0.00000000E+00 0.00000000E+00 0.10403942E+04 0.10403942E+04 0.32000000E+00 0.0000E+00 0.9000E+01
       21 -1    0    0  501  502 0.00000000E+00 0.00000000E+00 -.64703141E+02 0.64707488E+02 0.75000000E+00 0.0000E+00 0.9000E+01
       25  1    1    2    0    0 -.23301404E+02 -.14731830E+02 0.51960664E+03 0.53514114E+03 0.12500000E+03 0.0000E+00 0.9000E+01
       23  1    1    2    0    0 0.70273299E+02 -.12621903E+02 0.49158132E+03 0.50503970E+03 0.91188000E+02 0.0000E+00 0.9000E+01
       -1  1    1    2    0  502 -.46971896E+02 0.27353733E+02 -.35496926E+02 0.64920874E+02 0.32000000E+00 0.0000E+00 0.9000E+01
#aMCatNLO 1  0  0  2  2 0.37176452D+02 0.00000000D+00  -5  6  0 0.00000000D+00 0.00000000D+00 0.00000000D+00 0.00000000D+00 0.00000000D+00
  <mgrwgt>
 0.1068276280D-01    4    2    0
 0.259459438306457D+03 0.000000000000000D+00 0.000000000000000D+00 0.259459438306457D+03
 0.259459438306457D+03 0.000000000000000D+00 0.000000000000000D+00 -.259459438306457D+03
 0.162664878949393D+03 -.233013855716593D+02 -.147318406830220D+02 0.100373707434524D+03
 0.151254421522650D+03 0.702733160867810D+02 -.126219126472158D+02 0.972882164161970D+02
 0.204999576140872D+03 -.469719305151217D+02 0.273537533302378D+02 -.197661923850721D+03
 0.000000000000000D+00 -.000000000000000D+00 -.000000000000000D+00 0.000000000000000D+00
 0.306954297720926D+03 0.000000000000000D+00 0.000000000000000D+00 0.306954297720926D+03
 0.267502680306451D+03 0.000000000000000D+00 0.000000000000000D+00 -.267502680306451D+03
 0.161745288046278D+03 -.212293349424662D+02 -.331246115788439D+01 0.100373707434524D+03
 0.151651196433722D+03 0.722080143179896D+02 -.195950263777147D+01 0.972882164161970D+02
 0.206852387807571D+03 -.443413775674850D+02 0.418511222877383D+02 -.197661923850721D+03
 0.542081057398065D+02 -.663730180803840D+01 -.365791584920824D+02 0.394516174144757D+02
0.272445391308D-04 0.000000000000D+00 0.000000000000D+00 0.272559225834D-05 0.000000000000D+00  6 -1 21 25 23 -1 21 2 0.16006098D+00 0.99546676D-02 0.22226943D+05 0.22226943D+05 0.22226943D+05 0.12288101D+01  1  2  2  2  6  2       21 0.102665599663D-01 0.100000000000D+01
0.276854322397D-05 0.143773382944D-05 -.549988750053D-07 0.272559225834D-05 0.000000000000D+00  6 -1 21 25 23 -1 21 4 0.16006098D+00 0.99546676D-02 0.22226943D+05 0.22226943D+05 0.22226943D+05 0.12288101D+01  1  2  3  2  6  2       21 0.157531110367D-02 0.100000000000D+01
0.272673484556D-05 0.000000000000D+00 0.000000000000D+00 0.272559225834D-05 0.000000000000D+00  6 -1 21 25 23 -1 21 4 0.16006098D+00 0.99546676D-02 0.22226943D+05 0.22226943D+05 0.22226943D+05 0.12288101D+01  1  2 15  2  6  2       21 0.155152198520D-02 0.100000000000D+01
-.476381904409D-05 0.000000000000D+00 0.000000000000D+00 0.272559225834D-05 0.000000000000D+00  6 -1 21 25 23 -1 21 4 0.16006098D+00 0.99546676D-02 0.22226943D+05 0.22226943D+05 0.22226943D+05 0.12288101D+01  1  2  4  2  6  2       21 -.271063025893D-02 0.100000000000D+01
  </mgrwgt>
  </event>
  <event>
  5     66 0.38788253E-03 0.97632084E+02 0.75467711E-02 0.11096087E+00
       -3 -1    0    0    0  501 0.00000000E+00 0.00000000E+00 0.85547586E+02 0.85549047E+02 0.50000000E+00 0.0000E+00 0.9000E+01
       21 -1    0    0  501  502 0.00000000E+00 0.00000000E+00 -.95534469E+03 0.95534499E+03 0.75000000E+00 0.0000E+00 0.9000E+01
       25  1    1    2    0    0 0.85157623E+02 -.82029707E+02 -.96336916E+02 0.19719659E+03 0.12500000E+03 0.0000E+00 0.9000E+01
       23  1    1    2    0    0 -.98049147E+01 -.70105256E+01 -.38791993E+02 0.99826619E+02 0.91188000E+02 0.0000E+00 0.9000E+01
       -3  1    1    2    0  502 -.75352709E+02 0.89040233E+02 -.73466820E+03 0.74387082E+03 0.50000000E+00 0.0000E+00 0.9000E+01
#aMCatNLO 1  0  0  2  1 0.10918020D+03 0.00000000D+00  -5  6  0 0.00000000D+00 0.00000000D+00 0.00000000D+00 0.00000000D+00 0.00000000D+00
  <mgrwgt>
 0.4546531905D-02   23    4    0
 0.285881698986722D+03 0.000000000000000D+00 0.000000000000000D+00 0.285881698986722D+03
 0.285881698986722D+03 0.000000000000000D+00 0.000000000000000D+00 -.285881698986722D+03
 0.212443244140992D+03 0.851576859966525D+02 -.820297811894468D+02 0.124605037999498D+03
 0.122721752002951D+03 -.980487856562237D+01 -.701056826492933D+01 0.812409586328837D+02
 0.236598401829501D+03 -.753528074310302D+02 0.890403494543761D+02 -.205845996632382D+03
 0.000000000000000D+00 0.000000000000000D+00 0.000000000000000D+00 -.000000000000000D+00
 0.312339092311690D+03 0.000000000000000D+00 0.000000000000000D+00 0.312339092311690D+03
 0.431009667253959D+03 0.000000000000000D+00 0.000000000000000D+00 -.431009667253959D+03
 0.204402262893880D+03 0.469415806562694D+02 -.917897466320374D+02 0.124605037999498D+03
 0.127084440599042D+03 -.327069360666502D+02 -.128594973429549D+02 0.812409586328837D+02
 0.250607532299215D+03 -.120019507651851D+03 0.776329742991401D+02 -.205845996632382D+03
 0.161254523773512D+03 0.105784863062232D+03 0.270162696758522D+02 -.118670574942269D+03
 0.285881698986722D+03 0.000000000000000D+00 0.000000000000000D+00 0.285881698986722D+03
 0.285881698986722D+03 0.000000000000000D+00 0.000000000000000D+00 -.285881698986722D+03
 0.212443244140992D+03 0.851576859966525D+02 -.820297811894468D+02 0.124605037999498D+03
 0.122721752002951D+03 -.980487856562237D+01 -.701056826492933D+01 0.812409586328837D+02
 0.000000000000000D+00 0.000000000000000D+00 0.000000000000000D+00 -.000000000000000D+00
 0.236598401829501D+03 -.753528074310302D+02 0.890403494543761D+02 -.205845996632382D+03
 0.312339092311690D+03 0.000000000000000D+00 0.000000000000000D+00 0.312339092311690D+03
 0.431009667253959D+03 0.000000000000000D+00 0.000000000000000D+00 -.431009667253959D+03
 0.204402262893880D+03 0.469415806562694D+02 -.917897466320374D+02 0.124605037999498D+03
 0.127084440599042D+03 -.327069360666502D+02 -.128594973429549D+02 0.812409586328837D+02
 0.161254523773512D+03 0.105784863062232D+03 0.270162696758522D+02 -.118670574942269D+03
 0.250607532299215D+03 -.120019507651851D+03 0.776329742991401D+02 -.205845996632382D+03
0.229213035826D-04 0.000000000000D+00 0.000000000000D+00 0.745820207589D-06 0.000000000000D+00  6 -3 21 25 23 -3 21 2 0.13161302D-01 0.14697624D+00 0.36231224D+05 0.36231224D+05 0.36231224D+05 0.12063892D+01  1  2  2  2  6  2       21 0.240775554534D-02 0.100000000000D+01
-.731104971345D-07 0.120959042167D-05 -.462715080129D-07 0.745820207589D-06 0.000000000000D+00  6 -3 21 25 23 -3 21 4 0.13161302D-01 0.14697624D+00 0.36231224D+05 0.36231224D+05 0.36231224D+05 0.12063892D+01  1  2  3  2  6  2       21 -.111770625120D-04 0.100000000000D+01
0.158777449871D-05 0.000000000000D+00 0.000000000000D+00 0.745820207589D-06 0.000000000000D+00  6 -3 21 25 23 -3 21 4 0.13161302D-01 0.14697624D+00 0.36231224D+05 0.36231224D+05 0.36231224D+05 0.12063892D+01  1  2 15  2  6  2       21 0.242737438845D-03 0.100000000000D+01
0.159106165775D-04 0.000000000000D+00 0.000000000000D+00 0.714560494199D-06 0.000000000000D+00  6 -3 21 25 23 -3 21 4 0.13161302D-01 0.22561672D+00 0.65504163D+05 0.65504163D+05 0.65504163D+05 0.11808367D+01  1  2 12  2  6  2       21 0.637634556018D-03 0.100000000000D+01
-.192962930530D-04 0.000000000000D+00 0.000000000000D+00 0.745820207589D-06 0.000000000000D+00  6 -3 21 25 23 -3 21 4 0.13161302D-01 0.14697624D+00 0.36231224D+05 0.36231224D+05 0.36231224D+05 0.12063892D+01  1  2  4  2  6  2       21 -.294999873010D-02 0.100000000000D+01
-.752846112307D-04 0.000000000000D+00 -.242903558581D-04 0.745820207589D-06 0.000000000000D+00  6 -3 21 25 23 -3 21 4 0.13161302D-01 0.23071681D+00 0.36231224D+05 0.36231224D+05 0.36231224D+05 0.12063892D+01  1  2  5  2  6  2       21 -.316290939274D-02 0.100000000000D+01
0.567431059826D-04 0.000000000000D+00 0.166788083695D-04 0.745820207589D-06 0.000000000000D+00  6 -3 21 25 23 -3 21 4 0.13161302D-01 0.14697624D+00 0.36231224D+05 0.36231224D+05 0.36231224D+05 0.12063892D+01  1  2  6  2  6  2       21 0.867483148865D-02 0.100000000000D+01
0.231345010488D-05 0.000000000000D+00 0.000000000000D+00 0.714560494199D-06 0.000000000000D+00  6 -3 -3 25 23 -3 -3 4 0.13161302D-01 0.22561672D+00 0.65504163D+05 0.65504163D+05 0.65504163D+05 0.11808367D+01  1  2 12  5  6  2       21 0.581613960990D-05 0.100000000000D+01
-.113261323245D-04 0.000000000000D+00 -.375162606992D-05 0.745820207589D-06 0.000000000000D+00  6 -3 -3 25 23 -3 -3 4 0.13161302D-01 0.23071681D+00 0.36231224D+05 0.36231224D+05 0.36231224D+05 0.12063892D+01  1  2  5  5  6  2       21 -.287707686641D-04 0.100000000000D+01
0.231345010488D-05 0.000000000000D+00 0.000000000000D+00 0.714560494199D-06 0.000000000000D+00  6 -3 3 25 23 3 -3 4 0.13161302D-01 0.22561672D+00 0.65504163D+05 0.65504163D+05 0.65504163D+05 0.11808367D+01  3  4 12  6  5  2       21 0.586352717817D-05 0.100000000000D+01
-.113261323245D-04 0.000000000000D+00 -.375162606992D-05 0.745820207589D-06 0.000000000000D+00  6 -3 3 25 23 3 -3 4 0.13161302D-01 0.23071681D+00 0.36231224D+05 0.36231224D+05 0.36231224D+05 0.12063892D+01  3  4  5  6  5  2       21 -.290132460336D-04 0.100000000000D+01
0.231345010488D-05 0.000000000000D+00 0.000000000000D+00 0.714560494199D-06 0.000000000000D+00  6 -3 -2 25 23 -3 -2 4 0.13161302D-01 0.22561672D+00 0.65504163D+05 0.65504163D+05 0.65504163D+05 0.11808367D+01  1  2 12  7  6  2       21 0.861265981233D-05 0.100000000000D+01
0.231345010488D-05 0.000000000000D+00 0.000000000000D+00 0.714560494199D-06 0.000000000000D+00  6 -3 -4 25 23 -3 -4 4 0.13161302D-01 0.22561672D+00 0.65504163D+05 0.65504163D+05 0.65504163D+05 0.11808367D+01  1  2 12  7  6  2       21 0.442721394059D-05 0.100000000000D+01
-.113261323245D-04 0.000000000000D+00 -.375162606992D-05 0.745820207589D-06 0.000000000000D+00  6 -3 -2 25 23 -3 -2 4 0.13161302D-01 0.23071681D+00 0.36231224D+05 0.36231224D+05 0.36231224D+05 0.12063892D+01  1  2  5  7  6  2       21 -.427715409997D-04 0.100000000000D+01
-.113261323245D-04 0.000000000000D+00 -.375162606992D-05 0.745820207589D-06 0.000000000000D+00  6 -3 -4 25 23 -3 -4 4 0.13161302D-01 0.23071681D+00 0.36231224D+05 0.36231224D+05 0.36231224D+05 0.12063892D+01  1  2  5  7  6  2       21 -.217543236845D-04 0.100000000000D+01
0.231345010488D-05 0.000000000000D+00 0.000000000000D+00 0.714560494199D-06 0.000000000000D+00  6 -3 2 25 23 2 -3 4 0.13161302D-01 0.22561672D+00 0.65504163D+05 0.65504163D+05 0.65504163D+05 0.11808367D+01  3  4 12  8  5  2       21 0.188599378787D-03 0.100000000000D+01
0.231345010488D-05 0.000000000000D+00 0.000000000000D+00 0.714560494199D-06 0.000000000000D+00  6 -3 4 25 23 4 -3 4 0.13161302D-01 0.22561672D+00 0.65504163D+05 0.65504163D+05 0.65504163D+05 0.11808367D+01  3  4 12  8  5  2       21 0.442721394059D-05 0.100000000000D+01
-.113261323245D-04 0.000000000000D+00 -.375162606992D-05 0.745820207589D-06 0.000000000000D+00  6 -3 2 25 23 2 -3 4 0.13161302D-01 0.23071681D+00 0.36231224D+05 0.36231224D+05 0.36231224D+05 0.12063892D+01  3  4  5  8  5  2       21 -.963467114082D-03 0.100000000000D+01
-.113261323245D-04 0.000000000000D+00 -.375162606992D-05 0.745820207589D-06 0.000000000000D+00  6 -3 4 25 23 4 -3 4 0.13161302D-01 0.23071681D+00 0.36231224D+05 0.36231224D+05 0.36231224D+05 0.12063892D+01  3  4  5  8  5  2       21 -.217543236845D-04 0.100000000000D+01
0.231345010488D-05 0.000000000000D+00 0.000000000000D+00 0.714560494199D-06 0.000000000000D+00  6 -3 -1 25 23 -3 -1 4 0.13161302D-01 0.22561672D+00 0.65504163D+05 0.65504163D+05 0.65504163D+05 0.11808367D+01  1  2 12  9  6  2       21 0.111306936112D-04 0.100000000000D+01
-.113261323245D-04 0.000000000000D+00 -.375162606992D-05 0.745820207589D-06 0.000000000000D+00  6 -3 -1 25 23 -3 -1 4 0.13161302D-01 0.23071681D+00 0.36231224D+05 0.36231224D+05 0.36231224D+05 0.12063892D+01  1  2  5  9  6  2       21 -.552323102689D-04 0.100000000000D+01
0.231345010488D-05 0.000000000000D+00 0.000000000000D+00 0.714560494199D-06 0.000000000000D+00  6 -3 1 25 23 1 -3 4 0.13161302D-01 0.22561672D+00 0.65504163D+05 0.65504163D+05 0.65504163D+05 0.11808367D+01  3  4 12 10  5  2       21 0.879039369123D-04 0.100000000000D+01
-.113261323245D-04 0.000000000000D+00 -.375162606992D-05 0.745820207589D-06 0.000000000000D+00  6 -3 1 25 23 1 -3 4 0.13161302D-01 0.23071681D+00 0.36231224D+05 0.36231224D+05 0.36231224D+05 0.12063892D+01  3  4  5 10  5  2       21 -.446359074737D-03 0.100000000000D+01
  </mgrwgt>
  </event>
  <event>
  5     66 -.38788253E-03 0.31772013E+02 0.75467711E-02 0.11822088E+00
       -1 -1    0    0    0  501 0.00000000E+00 0.00000000E+00 0.13272408E+03 0.13272447E+03 0.32000000E+00 0.0000E+00 0.9000E+01
       21 -1    0    0  501  502 0.00000000E+00 0.00000000E+00 -.23049017E+03 0.23049139E+03 0.75000000E+00 0.0000E+00 0.9000E+01
       25  1    1    2    0    0 0.24668546E+01 0.57015544E+02 0.44202982E+02 0.14434598E+03 0.12500000E+03 0.0000E+00 0.9000E+01
       23  1    1    2    0    0 -.27911980E+02 -.76041404E+02 -.71041329E+02 0.14115061E+03 0.91188000E+02 0.0000E+00 0.9000E+01
       -1  1    1    2    0  502 0.25445125E+02 0.19025860E+02 -.70927739E+02 0.77719266E+02 0.32000000E+00 0.0000E+00 0.9000E+01
#aMCatNLO 1  0  0  2  2 0.42123716D+02 0.00000000D+00  -5  6  0 0.00000000D+00 0.00000000D+00 0.00000000D+00 0.00000000D+00 0.00000000D+00
  <mgrwgt>
 -.2550504209D-01   12    4    0
 0.174905367729847D+03 0.000000000000000D+00 0.000000000000000D+00 0.174905367729847D+03
 0.174905367729847D+03 0.000000000000000D+00 0.000000000000000D+00 -.174905367729847D+03
 0.162231574374290D+03 0.246669159495042D+01 0.570154222462010D+02 0.862394386729395D+02
 0.126704839920705D+03 -.279121070083770D+02 -.760414995050732D+02 -.343142791080398D+02
 0.608743211646973D+02 0.254454154134266D+02 0.190260772588722D+02 -.519251595648997D+02
 0.000000000000000D+00 0.000000000000000D+00 0.000000000000000D+00 -.000000000000000D+00
 0.177725099534625D+03 0.000000000000000D+00 0.000000000000000D+00 0.177725099534625D+03
 0.461227790501091D+03 0.000000000000000D+00 0.000000000000000D+00 -.461227790501091D+03
 0.158463241100025D+03 -.114922825680725D+02 0.437753976415584D+02 0.862394386729395D+02
 0.136360329782894D+03 -.393626192396166D+02 -.869022591788731D+02 -.343142791080398D+02
 0.575142755876161D+02 0.202922813946622D+02 0.141383526737665D+02 -.519251595648997D+02
 0.286615043565181D+03 0.305626204130269D+02 0.289885088635482D+02 -.283502690966467D+03
 0.174905367729847D+03 0.000000000000000D+00 0.000000000000000D+00 0.174905367729847D+03
 0.174905367729847D+03 0.000000000000000D+00 0.000000000000000D+00 -.174905367729847D+03
 0.162231574374290D+03 0.246669159495042D+01 0.570154222462010D+02 0.862394386729395D+02
 0.126704839920705D+03 -.279121070083770D+02 -.760414995050732D+02 -.343142791080398D+02
 0.000000000000000D+00 0.000000000000000D+00 0.000000000000000D+00 -.000000000000000D+00
 0.608743211646973D+02 0.254454154134266D+02 0.190260772588722D+02 -.519251595648997D+02
 0.177725099534625D+03 0.000000000000000D+00 0.000000000000000D+00 0.177725099534625D+03
 0.461227790501091D+03 0.000000000000000D+00 0.000000000000000D+00 -.461227790501091D+03
 0.158463241100025D+03 -.114922825680725D+02 0.437753976415584D+02 0.862394386729395D+02
 0.136360329782894D+03 -.393626192396166D+02 -.869022591788731D+02 -.343142791080398D+02
 0.286615043565181D+03 0.305626204130269D+02 0.289885088635482D+02 -.283502690966467D+03
 0.575142755876161D+02 0.202922813946622D+02 0.141383526737665D+02 -.519251595648997D+02
0.179511717833D-05 0.000000000000D+00 0.000000000000D+00 0.677711068420D-06 0.000000000000D+00  6 -1 21 25 23 -1 21 2 0.20419213D-01 0.35460149D-01 0.21192531D+05 0.21192531D+05 0.21192531D+05 0.12310665D+01  1  2  2  2  6  2       21 0.369623012778D-02 0.100000000000D+01
0.117374581621D-06 0.947309360861D-07 -.362382438687D-08 0.677711068420D-06 0.000000000000D+00  6 -1 21 25 23 -1 21 4 0.20419213D-01 0.35460149D-01 0.21192531D+05 0.21192531D+05 0.21192531D+05 0.12310665D+01  1  2  3  2  6  2       21 0.366271640248D-03 0.100000000000D+01
0.103181455451D-06 0.000000000000D+00 0.000000000000D+00 0.677711068420D-06 0.000000000000D+00  6 -1 21 25 23 -1 21 4 0.20419213D-01 0.35460149D-01 0.21192531D+05 0.21192531D+05 0.21192531D+05 0.12310665D+01  1  2 15  2  6  2       21 0.321981475116D-03 0.100000000000D+01
-.591914977648D-04 0.000000000000D+00 -.353945447351D-05 0.677711068420D-06 0.000000000000D+00  6 -1 21 25 23 -1 21 4 0.20419213D-01 0.93979855D-01 0.21192531D+05 0.21192531D+05 0.21192531D+05 0.12310665D+01  1  2  5  2  6  2       21 -.232515784048D-01 0.100000000000D+01
-.118945170290D-04 0.000000000000D+00 -.116122557052D-05 0.677711068420D-06 0.000000000000D+00  6 -1 -1 25 23 -1 -1 4 0.20419213D-01 0.93979855D-01 0.21192531D+05 0.21192531D+05 0.21192531D+05 0.12310665D+01  1  2  5  5  6  2       21 -.524694006578D-03 0.100000000000D+01
-.118945170290D-04 0.000000000000D+00 -.116122557052D-05 0.677711068420D-06 0.000000000000D+00  6 -1 1 25 23 1 -1 4 0.20419213D-01 0.93979855D-01 0.21192531D+05 0.21192531D+05 0.21192531D+05 0.12310665D+01  3  4  5  6  5  2       21 -.184049085065D-02 0.100000000000D+01
-.118945170290D-04 0.000000000000D+00 -.116122557052D-05 0.677711068420D-06 0.000000000000D+00  6 -1 -2 25 23 -1 -2 4 0.20419213D-01 0.93979855D-01 0.21192531D+05 0.21192531D+05 0.21192531D+05 0.12310665D+01  1  2  5  7  6  2       21 -.391847238075D-03 0.100000000000D+01
-.118945170290D-04 0.000000000000D+00 -.116122557052D-05 0.677711068420D-06 0.000000000000D+00  6 -1 -4 25 23 -1 -4 4 0.20419213D-01 0.93979855D-01 0.21192531D+05 0.21192531D+05 0.21192531D+05 0.12310665D+01  1  2  5  7  6  2       21 -.197042736656D-03 0.100000000000D+01
-.118945170290D-04 0.000000000000D+00 -.116122557052D-05 0.677711068420D-06 0.000000000000D+00  6 -1 2 25 23 2 -1 4 0.20419213D-01 0.93979855D-01 0.21192531D+05 0.21192531D+05 0.21192531D+05 0.12310665D+01  3  4  5  8  5  2       21 -.299454462139D-02 0.100000000000D+01
-.118945170290D-04 0.000000000000D+00 -.116122557052D-05 0.677711068420D-06 0.000000000000D+00  6 -1 4 25 23 4 -1 4 0.20419213D-01 0.93979855D-01 0.21192531D+05 0.21192531D+05 0.21192531D+05 0.12310665D+01  3  4  5  8  5  2       21 -.197042736656D-03 0.100000000000D+01
-.118945170290D-04 0.000000000000D+00 -.116122557052D-05 0.677711068420D-06 0.000000000000D+00  6 -1 -3 25 23 -1 -3 4 0.20419213D-01 0.93979855D-01 0.21192531D+05 0.21192531D+05 0.21192531D+05 0.12310665D+01  1  2  5  9  6  2       21 -.245927690528D-03 0.100000000000D+01
-.118945170290D-04 0.000000000000D+00 -.116122557052D-05 0.677711068420D-06 0.000000000000D+00  6 -1 3 25 23 3 -1 4 0.20419213D-01 0.93979855D-01 0.21192531D+05 0.21192531D+05 0.21192531D+05 0.12310665D+01  3  4  5 10  5  2       21 -.246357050295D-03 0.100000000000D+01
  </mgrwgt>
  </event>
  <event>
  5     66 0.38788253E-03 0.33489386E+02 0.75467711E-02 0.12073405E+00
       -1 -1    0    0    0  501 0.00000000E+00 0.00000000E+00 0.14450697E+03 0.14450732E+03 0.32000000E+00 0.0000E+00 0.9000E+01
       21 -1    0    0  501  502 0.00000000E+00 0.00000000E+00 -.19060731E+03 0.19060879E+03 0.75000000E+00 0.0000E+00 0.9000E+01
       25  1    1    2    0    0 -.55893758E+02 -.10213426E+02 0.56876690E+02 0.14862161E+03 0.12500000E+03 0.0000E+00 0.9000E+01
       23  1    1    2    0    0 0.22898908E+02 0.44806148E+01 -.18916352E+02 0.96007894E+02 0.91188000E+02 0.0000E+00 0.9000E+01
       -1  1    1    2    0  502 0.32994849E+02 0.57328110E+01 -.84060681E+02 0.90486606E+02 0.32000000E+00 0.0000E+00 0.9000E+01
#aMCatNLO 1  0  0  2  1 0.21919217D+02 0.00000000D+00  -5  6  0 0.00000000D+00 0.00000000D+00 0.00000000D+00 0.00000000D+00 0.00000000D+00
  <mgrwgt>
 0.2558287624D-01   23    4    0
 0.165965032028856D+03 0.000000000000000D+00 0.000000000000000D+00 0.165965032028856D+03
 0.165965032028856D+03 0.000000000000000D+00 0.000000000000000D+00 -.165965032028856D+03
 0.157947709457345D+03 -.558938843213846D+02 -.102134477853174D+02 0.780643202918340D+02
 0.943021904374421D+02 0.228988326774078D+02 0.448060169641263D+01 -.576363147241250D+01
 0.796801641629245D+02 0.329950516439768D+02 0.573284608890481D+01 -.723006888194215D+02
 0.000000000000000D+00 -.000000000000000D+00 -.000000000000000D+00 -.000000000000000D+00
 0.175441686756332D+03 0.000000000000000D+00 0.000000000000000D+00 0.175441686756332D+03
 0.179503743030362D+03 0.000000000000000D+00 0.000000000000000D+00 -.179503743030362D+03
 0.156209494671249D+03 -.517868437610273D+02 -.700668318074992D+00 0.780643202918340D+02
 0.953785965631483D+02 0.253785679038934D+02 0.102241958976489D+02 -.576363147241250D+01
 0.810649103728601D+02 0.350965044590645D+02 0.106002577681813D+02 -.723006888194215D+02
 0.222924281794360D+02 -.868822860193062D+01 -.201237853477552D+02 -.406205627402928D+01
 0.165965032028856D+03 0.000000000000000D+00 0.000000000000000D+00 0.165965032028856D+03
 0.165965032028856D+03 0.000000000000000D+00 0.000000000000000D+00 -.165965032028856D+03
 0.157947709457345D+03 -.558938843213846D+02 -.102134477853174D+02 0.780643202918340D+02
 0.943021904374421D+02 0.228988326774078D+02 0.448060169641263D+01 -.576363147241250D+01
 0.000000000000000D+00 -.000000000000000D+00 -.000000000000000D+00 -.000000000000000D+00
 0.796801641629245D+02 0.329950516439768D+02 0.573284608890481D+01 -.723006888194215D+02
 0.175441686756332D+03 0.000000000000000D+00 0.000000000000000D+00 0.175441686756332D+03
 0.179503743030362D+03 0.000000000000000D+00 0.000000000000000D+00 -.179503743030362D+03
 0.156209494671249D+03 -.517868437610273D+02 -.700668318074992D+00 0.780643202918340D+02
 0.953785965631483D+02 0.253785679038934D+02 0.102241958976489D+02 -.576363147241250D+01
 0.222924281794360D+02 -.868822860193062D+01 -.201237853477552D+02 -.406205627402928D+01
 0.810649103728601D+02 0.350965044590645D+02 0.106002577681813D+02 -.723006888194215D+02
0.167104319289D-05 0.000000000000D+00 0.000000000000D+00 0.126053662075D-05 0.000000000000D+00  6 -1 21 25 23 -1 21 2 0.22231982D-01 0.29324343D-01 0.17546064D+05 0.17546064D+05 0.17546064D+05 0.12401343D+01  1  2  2  2  6  2       21 0.440718921641D-02 0.100000000000D+01
0.130744500063D-06 0.881833719902D-07 -.337335475756D-08 0.126053662075D-05 0.000000000000D+00  6 -1 21 25 23 -1 21 4 0.22231982D-01 0.29324343D-01 0.17546064D+05 0.17546064D+05 0.17546064D+05 0.12401343D+01  1  2  3  2  6  2       21 0.530316190797D-03 0.100000000000D+01
0.147555492763D-06 0.000000000000D+00 0.000000000000D+00 0.126053662075D-05 0.000000000000D+00  6 -1 21 25 23 -1 21 4 0.22231982D-01 0.29324343D-01 0.17546064D+05 0.17546064D+05 0.17546064D+05 0.12401343D+01  1  2 15  2  6  2       21 0.598503698552D-03 0.100000000000D+01
0.307687130781D-05 0.000000000000D+00 0.000000000000D+00 0.124353400428D-05 0.000000000000D+00  6 -1 21 25 23 -1 21 4 0.22231982D-01 0.32495805D-01 0.20893345D+05 0.20893345D+05 0.20893345D+05 0.12317422D+01  1  2 12  2  6  2       21 0.995312211167D-02 0.100000000000D+01
-.112980570926D-05 0.000000000000D+00 0.000000000000D+00 0.126053662075D-05 0.000000000000D+00  6 -1 21 25 23 -1 21 4 0.22231982D-01 0.29324343D-01 0.17546064D+05 0.17546064D+05 0.17546064D+05 0.12401343D+01  1  2  4  2  6  2       21 -.458263452599D-02 0.100000000000D+01
-.176920063755D-04 0.000000000000D+00 -.426250511718D-05 0.126053662075D-05 0.000000000000D+00  6 -1 21 25 23 -1 21 4 0.22231982D-01 0.33392809D-01 0.17546064D+05 0.17546064D+05 0.17546064D+05 0.12401343D+01  1  2  5  2  6  2       21 -.557744959961D-01 0.100000000000D+01
0.176111105211D-04 0.000000000000D+00 0.412197460558D-05 0.126053662075D-05 0.000000000000D+00  6 -1 21 25 23 -1 21 4 0.22231982D-01 0.29324343D-01 0.17546064D+05 0.17546064D+05 0.17546064D+05 0.12401343D+01  1  2  6  2  6  2       21 0.714328866051D-01 0.100000000000D+01
0.810073029346D-07 0.000000000000D+00 0.000000000000D+00 0.124353400428D-05 0.000000000000D+00  6 -1 -1 25 23 -1 -1 4 0.22231982D-01 0.32495805D-01 0.20893345D+05 0.20893345D+05 0.20893345D+05 0.12317422D+01  1  2 12  5  6  2       21 0.231527621302D-04 0.100000000000D+01
-.512032072987D-06 0.000000000000D+00 -.146865312289D-06 0.126053662075D-05 0.000000000000D+00  6 -1 -1 25 23 -1 -1 4 0.22231982D-01 0.33392809D-01 0.17546064D+05 0.17546064D+05 0.17546064D+05 0.12401343D+01  1  2  5  5  6  2       21 -.143100792724D-03 0.100000000000D+01
0.810073029346D-07 0.000000000000D+00 0.000000000000D+00 0.124353400428D-05 0.000000000000D+00  6 -1 1 25 23 1 -1 4 0.22231982D-01 0.32495805D-01 0.20893345D+05 0.20893345D+05 0.20893345D+05 0.12317422D+01  3  4 12  6  5  2       21 0.421665549588D-04 0.100000000000D+01
-.512032072987D-06 0.000000000000D+00 -.146865312289D-06 0.126053662075D-05 0.000000000000D+00  6 -1 1 25 23 1 -1 4 0.22231982D-01 0.33392809D-01 0.17546064D+05 0.17546064D+05 0.17546064D+05 0.12401343D+01  3  4  5  6  5  2       21 -.263895164752D-03 0.100000000000D+01
0.810073029346D-07 0.000000000000D+00 0.000000000000D+00 0.124353400428D-05 0.000000000000D+00  6 -1 -2 25 23 -1 -2 4 0.22231982D-01 0.32495805D-01 0.20893345D+05 0.20893345D+05 0.20893345D+05 0.12317422D+01  1  2 12  7  6  2       21 0.201213553831D-04 0.100000000000D+01
0.810073029346D-07 0.000000000000D+00 0.000000000000D+00 0.124353400428D-05 0.000000000000D+00  6 -1 -4 25 23 -1 -4 4 0.22231982D-01 0.32495805D-01 0.20893345D+05 0.20893345D+05 0.20893345D+05 0.12317422D+01  1  2 12  7  6  2       21 0.106850379963D-04 0.100000000000D+01
-.512032072987D-06 0.000000000000D+00 -.146865312289D-06 0.126053662075D-05 0.000000000000D+00  6 -1 -2 25 23 -1 -2 4 0.22231982D-01 0.33392809D-01 0.17546064D+05 0.17546064D+05 0.17546064D+05 0.12401343D+01  1  2  5  7  6  2       21 -.123899226092D-03 0.100000000000D+01
-.512032072987D-06 0.000000000000D+00 -.146865312289D-06 0.126053662075D-05 0.000000000000D+00  6 -1 -4 25 23 -1 -4 4 0.22231982D-01 0.33392809D-01 0.17546064D+05 0.17546064D+05 0.17546064D+05 0.12401343D+01  1  2  5  7  6  2       21 -.652538870132D-04 0.100000000000D+01
0.810073029346D-07 0.000000000000D+00 0.000000000000D+00 0.124353400428D-05 0.000000000000D+00  6 -1 2 25 23 2 -1 4 0.22231982D-01 0.32495805D-01 0.20893345D+05 0.20893345D+05 0.20893345D+05 0.12317422D+01  3  4 12  8  5  2       21 0.561090457010D-04 0.100000000000D+01
0.810073029346D-07 0.000000000000D+00 0.000000000000D+00 0.124353400428D-05 0.000000000000D+00  6 -1 4 25 23 4 -1 4 0.22231982D-01 0.32495805D-01 0.20893345D+05 0.20893345D+05 0.20893345D+05 0.12317422D+01  3  4 12  8  5  2       21 0.106850379963D-04 0.100000000000D+01
-.512032072987D-06 0.000000000000D+00 -.146865312289D-06 0.126053662075D-05 0.000000000000D+00  6 -1 2 25 23 2 -1 4 0.22231982D-01 0.33392809D-01 0.17546064D+05 0.17546064D+05 0.17546064D+05 0.12401343D+01  3  4  5  8  5  2       21 -.352588449544D-03 0.100000000000D+01
-.512032072987D-06 0.000000000000D+00 -.146865312289D-06 0.126053662075D-05 0.000000000000D+00  6 -1 4 25 23 4 -1 4 0.22231982D-01 0.33392809D-01 0.17546064D+05 0.17546064D+05 0.17546064D+05 0.12401343D+01  3  4  5  8  5  2       21 -.652538870132D-04 0.100000000000D+01
0.810073029346D-07 0.000000000000D+00 0.000000000000D+00 0.124353400428D-05 0.000000000000D+00  6 -1 -3 25 23 -1 -3 4 0.22231982D-01 0.32495805D-01 0.20893345D+05 0.20893345D+05 0.20893345D+05 0.12317422D+01  1  2 12  9  6  2       21 0.127719760623D-04 0.100000000000D+01
-.512032072987D-06 0.000000000000D+00 -.146865312289D-06 0.126053662075D-05 0.000000000000D+00  6 -1 -3 25 23 -1 -3 4 0.22231982D-01 0.33392809D-01 0.17546064D+05 0.17546064D+05 0.17546064D+05 0.12401343D+01  1  2  5  9  6  2       21 -.782393254670D-04 0.100000000000D+01
0.810073029346D-07 0.000000000000D+00 0.000000000000D+00 0.124353400428D-05 0.000000000000D+00  6 -1 3 25 23 3 -1 4 0.22231982D-01 0.32495805D-01 0.20893345D+05 0.20893345D+05 0.20893345D+05 0.12317422D+01  3  4 12 10  5  2       21 0.127727328983D-04 0.100000000000D+01
-.512032072987D-06 0.000000000000D+00 -.146865312289D-06 0.126053662075D-05 0.000000000000D+00  6 -1 3 25 23 3 -1 4 0.22231982D-01 0.33392809D-01 0.17546064D+05 0.17546064D+05 0.17546064D+05 0.12401343D+01  3  4  5 10  5  2       21 -.782448296463D-04 0.100000000000D+01
  </mgrwgt>
  </event>
  <event>
  5     66 0.38788253E-03 0.30184631E+03 0.75467711E-02 0.88985441E-01
       -3 -1    0    0    0  501 0.00000000E+00 0.00000000E+00 0.21457811E+04 0.21457811E+04 0.50000000E+00 0.0000E+00 0.9000E+01
       21 -1    0    0  501  502 0.00000000E+00 0.00000000E+00 -.96728560E+02 0.96731468E+02 0.75000000E+00 0.0000E+00 0.9000E+01
       25  1    1    2    0    0 0.13768207E+03 0.26688470E+02 0.91116715E+03 0.93033285E+03 0.12500000E+03 0.0000E+00 0.9000E+01
       23  1    1    2    0    0 0.13454760E+03 0.10370376E+03 0.91980579E+03 0.93979544E+03 0.91188000E+02 0.0000E+00 0.9000E+01
       -3  1    1    2    0  502 -.27222967E+03 -.13039223E+03 0.21807957E+03 0.37238431E+03 0.50000000E+00 0.0000E+00 0.9000E+01
#aMCatNLO 1  0  0  2  1 0.11478073D+02 0.00000000D+00  -5  6  0 0.00000000D+00 0.00000000D+00 0.00000000D+00 0.00000000D+00 0.00000000D+00
  <mgrwgt>
 0.1004772466D-02   12    4    0
 0.455589331451269D+03 0.000000000000000D+00 0.000000000000000D+00 0.455589331451269D+03
 0.455589331451269D+03 0.000000000000000D+00 0.000000000000000D+00 -.455589331451269D+03
 0.240626624402499D+03 0.137682116234198D+03 0.266884932647159D+02 0.150358011319228D+03
 0.244488622390804D+03 0.134547650693800D+03 0.103703785504996D+03 0.150339248698622D+03
 0.426063416109237D+03 -.272229766927997D+03 -.130392278769711D+03 -.300697260017850D+03
 0.000000000000000D+00 0.000000000000000D+00 0.000000000000000D+00 -.000000000000000D+00
 0.100998906391956D+04 0.000000000000000D+00 0.000000000000000D+00 0.100998906391956D+04
 0.376608038828475D+04 0.000000000000000D+00 0.000000000000000D+00 -.376608038828475D+04
 0.334197710192212D+03 0.343515107831654D+02 -.268841127130427D+03 0.150358011319228D+03
 0.230331397459248D+03 0.491938527096382D+02 -.140411454190341D+03 0.150339248698622D+03
 0.111520427356662D+04 -.549288537671600D+03 -.922791326347186D+03 -.300697260017850D+03
 0.309633607098624D+04 0.465743174178796D+03 0.133204390766795D+04 -.275609132436518D+04
 0.455589331451269D+03 0.000000000000000D+00 0.000000000000000D+00 0.455589331451269D+03
 0.455589331451269D+03 0.000000000000000D+00 0.000000000000000D+00 -.455589331451269D+03
 0.240626624402499D+03 0.137682116234198D+03 0.266884932647159D+02 0.150358011319228D+03
 0.244488622390804D+03 0.134547650693800D+03 0.103703785504996D+03 0.150339248698622D+03
 0.000000000000000D+00 0.000000000000000D+00 0.000000000000000D+00 -.000000000000000D+00
 0.426063416109237D+03 -.272229766927997D+03 -.130392278769711D+03 -.300697260017850D+03
 0.100998906391956D+04 0.000000000000000D+00 0.000000000000000D+00 0.100998906391956D+04
 0.376608038828475D+04 0.000000000000000D+00 0.000000000000000D+00 -.376608038828475D+04
 0.334197710192212D+03 0.343515107831654D+02 -.268841127130427D+03 0.150358011319228D+03
 0.230331397459248D+03 0.491938527096382D+02 -.140411454190341D+03 0.150339248698622D+03
 0.309633607098624D+04 0.465743174178796D+03 0.133204390766795D+04 -.275609132436518D+04
 0.111520427356662D+04 -.549288537671600D+03 -.922791326347186D+03 -.300697260017850D+03
0.842030372591D-04 0.000000000000D+00 0.000000000000D+00 0.363584575952D-06 0.000000000000D+00  6 -3 21 25 23 -3 21 2 0.33012039D+00 0.14881545D-01 0.11645661D+06 0.11645661D+06 0.11645661D+06 0.11575422D+01  1  2  2  2  6  2       21 0.645303712837D-03 0.100000000000D+01
-.445673897005D-05 0.444351635488D-05 -.169981672256D-06 0.363584575952D-06 0.000000000000D+00  6 -3 21 25 23 -3 21 4 0.33012039D+00 0.14881545D-01 0.11645661D+06 0.11645661D+06 0.11645661D+06 0.11575422D+01  1  2  3  2  6  2       21 -.457643447798D-04 0.100000000000D+01
0.865967462327D-05 0.000000000000D+00 0.000000000000D+00 0.363584575952D-06 0.000000000000D+00  6 -3 21 25 23 -3 21 4 0.33012039D+00 0.14881545D-01 0.11645661D+06 0.11645661D+06 0.11645661D+06 0.11575422D+01  1  2 15  2  6  2       21 0.889224919392D-04 0.100000000000D+01
0.197069048446D-01 0.000000000000D+00 -.130723582789D-01 0.363584575952D-06 0.000000000000D+00  6 -3 21 25 23 -3 21 4 0.33012039D+00 0.34260492D+00 0.11645661D+06 0.11645661D+06 0.11645661D+06 0.11575422D+01  1  2  5  2  6  2       21 0.844814179310D-04 0.100000000000D+01
0.873840514588D-02 0.000000000000D+00 -.579279282585D-02 0.363584575952D-06 0.000000000000D+00  6 -3 -3 25 23 -3 -3 4 0.33012039D+00 0.34260492D+00 0.11645661D+06 0.11645661D+06 0.11645661D+06 0.11575422D+01  1  2  5  5  6  2       21 0.280636112892D-05 0.100000000000D+01
0.873840514588D-02 0.000000000000D+00 -.579279282585D-02 0.363584575952D-06 0.000000000000D+00  6 -3 3 25 23 3 -3 4 0.33012039D+00 0.34260492D+00 0.11645661D+06 0.11645661D+06 0.11645661D+06 0.11575422D+01  3  4  5  6  5  2       21 0.287989112409D-05 0.100000000000D+01
0.873840514588D-02 0.000000000000D+00 -.579279282585D-02 0.363584575952D-06 0.000000000000D+00  6 -3 -2 25 23 -3 -2 4 0.33012039D+00 0.34260492D+00 0.11645661D+06 0.11645661D+06 0.11645661D+06 0.11575422D+01  1  2  5  7  6  2       21 0.366032229650D-05 0.100000000000D+01
0.873840514588D-02 0.000000000000D+00 -.579279282585D-02 0.363584575952D-06 0.000000000000D+00  6 -3 -4 25 23 -3 -4 4 0.33012039D+00 0.34260492D+00 0.11645661D+06 0.11645661D+06 0.11645661D+06 0.11575422D+01  1  2  5  7  6  2       21 0.185554717620D-05 0.100000000000D+01
0.873840514588D-02 0.000000000000D+00 -.579279282585D-02 0.363584575952D-06 0.000000000000D+00  6 -3 2 25 23 2 -3 4 0.33012039D+00 0.34260492D+00 0.11645661D+06 0.11645661D+06 0.11645661D+06 0.11575422D+01  3  4  5  8  5  2       21 0.156192790855D-03 0.100000000000D+01
0.873840514588D-02 0.000000000000D+00 -.579279282585D-02 0.363584575952D-06 0.000000000000D+00  6 -3 4 25 23 4 -3 4 0.33012039D+00 0.34260492D+00 0.11645661D+06 0.11645661D+06 0.11645661D+06 0.11575422D+01  3  4  5  8  5  2       21 0.185554717620D-05 0.100000000000D+01
0.873840514588D-02 0.000000000000D+00 -.579279282585D-02 0.363584575952D-06 0.000000000000D+00  6 -3 -1 25 23 -3 -1 4 0.33012039D+00 0.34260492D+00 0.11645661D+06 0.11645661D+06 0.11645661D+06 0.11575422D+01  1  2  5  9  6  2       21 0.424051362667D-05 0.100000000000D+01
0.873840514588D-02 0.000000000000D+00 -.579279282585D-02 0.363584575952D-06 0.000000000000D+00  6 -3 1 25 23 1 -3 4 0.33012039D+00 0.34260492D+00 0.11645661D+06 0.11645661D+06 0.11645661D+06 0.11575422D+01  3  4  5 10  5  2       21 0.583382149963D-04 0.100000000000D+01
  </mgrwgt>
  </event>
  <event>
  5     66 -.38788253E-03 0.20488298E+02 0.75467711E-02 0.11982440E+00
       -1 -1    0    0    0  501 0.00000000E+00 0.00000000E+00 0.13685290E+03 0.13685328E+03 0.32000000E+00 0.0000E+00 0.9000E+01
       21 -1    0    0  501  502 0.00000000E+00 0.00000000E+00 -.30404377E+03 0.30404469E+03 0.75000000E+00 0.0000E+00 0.9000E+01
       25  1    1    2    0    0 -.16906745E+02 0.32380059E+02 0.49135185E+02 0.13918898E+03 0.12500000E+03 0.0000E+00 0.9000E+01
       23  1    1    2    0    0 0.37113043E+02 -.28992694E+02 -.20306091E+02 0.10462095E+03 0.91188000E+02 0.0000E+00 0.9000E+01
       -1  1    1    2    0  502 -.20206297E+02 -.33873651E+01 -.19601996E+03 0.19708804E+03 0.32000000E+00 0.0000E+00 0.9000E+01
#aMCatNLO 1  0  0  2  1 0.11478073D+02 0.00000000D+00  -5  6  0 0.00000000D+00 0.00000000D+00 0.00000000D+00 0.00000000D+00 0.00000000D+00
  <mgrwgt>
 -.3173911586D+00   12    4    0
 0.203984212412553D+03 0.000000000000000D+00 0.000000000000000D+00 0.203984212412553D+03
 0.203984212412553D+03 0.000000000000000D+00 0.000000000000000D+00 -.203984212412553D+03
 0.170560099806286D+03 -.169067208050795D+02 0.323800634926216D+02 0.110142825121581D+03
 0.104743844026520D+03 0.371130577227976D+02 -.289926917659690D+02 0.209300331600232D+02
 0.132664480992300D+03 -.202063369177182D+02 -.338737172665264D+01 -.131072858281604D+03
 0.000000000000000D+00 0.000000000000000D+00 -.000000000000000D+00 -.000000000000000D+00
 0.207171472593113D+03 0.000000000000000D+00 0.000000000000000D+00 0.207171472593113D+03
 0.442496202061888D+03 0.000000000000000D+00 0.000000000000000D+00 -.442496202061888D+03
 0.175152830274505D+03 -.184722983871011D+02 0.508020296809523D+02 0.110142825121581D+03
 0.101908873674786D+03 0.361772209809627D+02 -.179808115411523D+02 0.209300331600232D+02
 0.133246993593244D+03 -.214105297817692D+02 0.107822232397817D+02 -.131072858281604D+03
 0.239358977112466D+03 0.370560718790762D+01 -.436034413795817D+02 -.235324729468775D+03
 0.203984212412553D+03 0.000000000000000D+00 0.000000000000000D+00 0.203984212412553D+03
 0.203984212412553D+03 0.000000000000000D+00 0.000000000000000D+00 -.203984212412553D+03
 0.170560099806286D+03 -.169067208050795D+02 0.323800634926216D+02 0.110142825121581D+03
 0.104743844026520D+03 0.371130577227976D+02 -.289926917659690D+02 0.209300331600232D+02
 0.000000000000000D+00 0.000000000000000D+00 -.000000000000000D+00 -.000000000000000D+00
 0.132664480992300D+03 -.202063369177182D+02 -.338737172665264D+01 -.131072858281604D+03
 0.207171472593113D+03 0.000000000000000D+00 0.000000000000000D+00 0.207171472593113D+03
 0.442496202061888D+03 0.000000000000000D+00 0.000000000000000D+00 -.442496202061888D+03
 0.175152830274505D+03 -.184722983871011D+02 0.508020296809523D+02 0.110142825121581D+03
 0.101908873674786D+03 0.361772209809627D+02 -.179808115411523D+02 0.209300331600232D+02
 0.239358977112466D+03 0.370560718790762D+01 -.436034413795817D+02 -.235324729468775D+03
 0.133246993593244D+03 -.214105297817692D+02 0.107822232397817D+02 -.131072858281604D+03
0.123483830113D-04 0.000000000000D+00 0.000000000000D+00 0.760049806975D-05 0.000000000000D+00  6 -1 21 25 23 -1 21 2 0.21054393D-01 0.46776064D-01 0.16046253D+05 0.16046253D+05 0.16046253D+05 0.12444981D+01  1  2  2  2  6  2       21 0.142064069076D-01 0.100000000000D+01
0.334730086012D-05 0.651642074360D-06 -.249278275729D-07 0.760049806975D-05 0.000000000000D+00  6 -1 21 25 23 -1 21 4 0.21054393D-01 0.46776064D-01 0.16046253D+05 0.16046253D+05 0.16046253D+05 0.12444981D+01  1  2  3  2  6  2       21 0.596427091559D-02 0.100000000000D+01
0.844331856233D-06 0.000000000000D+00 0.000000000000D+00 0.760049806975D-05 0.000000000000D+00  6 -1 21 25 23 -1 21 4 0.21054393D-01 0.46776064D-01 0.16046253D+05 0.16046253D+05 0.16046253D+05 0.12444981D+01  1  2 15  2  6  2       21 0.150444317487D-02 0.100000000000D+01
-.699124312463D-03 0.000000000000D+00 -.180888798296D-04 0.760049806975D-05 0.000000000000D+00  6 -1 21 25 23 -1 21 4 0.21054393D-01 0.10200998D+00 0.16046253D+05 0.16046253D+05 0.16046253D+05 0.12444981D+01  1  2  5  2  6  2       21 -.227494264101D+00 0.100000000000D+01
-.227802330228D-03 0.000000000000D+00 -.498091242742D-05 0.760049806975D-05 0.000000000000D+00  6 -1 -1 25 23 -1 -1 4 0.21054393D-01 0.10200998D+00 0.16046253D+05 0.16046253D+05 0.16046253D+05 0.12444981D+01  1  2  5  5  6  2       21 -.836447612414D-02 0.100000000000D+01
-.227802330228D-03 0.000000000000D+00 -.498091242742D-05 0.760049806975D-05 0.000000000000D+00  6 -1 1 25 23 1 -1 4 0.21054393D-01 0.10200998D+00 0.16046253D+05 0.16046253D+05 0.16046253D+05 0.12444981D+01  3  4  5  6  5  2       21 -.313014865922D-01 0.100000000000D+01
-.227802330228D-03 0.000000000000D+00 -.498091242742D-05 0.760049806975D-05 0.000000000000D+00  6 -1 -2 25 23 -1 -2 4 0.21054393D-01 0.10200998D+00 0.16046253D+05 0.16046253D+05 0.16046253D+05 0.12444981D+01  1  2  5  7  6  2       21 -.618016332902D-02 0.100000000000D+01
-.227802330228D-03 0.000000000000D+00 -.498091242742D-05 0.760049806975D-05 0.000000000000D+00  6 -1 -4 25 23 -1 -4 4 0.21054393D-01 0.10200998D+00 0.16046253D+05 0.16046253D+05 0.16046253D+05 0.12444981D+01  1  2  5  7  6  2       21 -.307896006995D-02 0.100000000000D+01
-.227802330228D-03 0.000000000000D+00 -.498091242742D-05 0.760049806975D-05 0.000000000000D+00  6 -1 2 25 23 2 -1 4 0.21054393D-01 0.10200998D+00 0.16046253D+05 0.16046253D+05 0.16046253D+05 0.12444981D+01  3  4  5  8  5  2       21 -.518248067345D-01 0.100000000000D+01
-.227802330228D-03 0.000000000000D+00 -.498091242742D-05 0.760049806975D-05 0.000000000000D+00  6 -1 4 25 23 4 -1 4 0.21054393D-01 0.10200998D+00 0.16046253D+05 0.16046253D+05 0.16046253D+05 0.12444981D+01  3  4  5  8  5  2       21 -.307896006995D-02 0.100000000000D+01
-.227802330228D-03 0.000000000000D+00 -.498091242742D-05 0.760049806975D-05 0.000000000000D+00  6 -1 -3 25 23 -1 -3 4 0.21054393D-01 0.10200998D+00 0.16046253D+05 0.16046253D+05 0.16046253D+05 0.12444981D+01  1  2  5  9  6  2       21 -.386765898175D-02 0.100000000000D+01
-.227802330228D-03 0.000000000000D+00 -.498091242742D-05 0.760049806975D-05 0.000000000000D+00  6 -1 3 25 23 3 -1 4 0.21054393D-01 0.10200998D+00 0.16046253D+05 0.16046253D+05 0.16046253D+05 0.12444981D+01  3  4  5 10  5  2       21 -.387550356039D-02 0.100000000000D+01
  </mgrwgt>
  </event>
  <event>
  5     66 -.38788253E-03 0.20889896E+02 0.75467711E-02 0.11815447E+00
       -1 -1    0    0    0  501 0.00000000E+00 0.00000000E+00 0.34272818E+03 0.34272832E+03 0.32000000E+00 0.0000E+00 0.9000E+01
       21 -1    0    0  501  502 0.00000000E+00 0.00000000E+00 -.12493226E+03 0.12493451E+03 0.75000000E+00 0.0000E+00 0.9000E+01
       25  1    1    2    0    0 -.84864567E+02 0.77996284E+02 0.55867317E+02 0.17897366E+03 0.12500000E+03 0.0000E+00 0.9000E+01
       23  1    1    2    0    0 0.64724165E+02 -.83541054E+02 0.20080590E+03 0.24455385E+03 0.91188000E+02 0.0000E+00 0.9000E+01
       -1  1    1    2    0  502 0.20140402E+02 0.55447704E+01 -.38877297E+02 0.44135325E+02 0.32000000E+00 0.0000E+00 0.9000E+01
#aMCatNLO 1  0  0  2  1 0.28046979D+01 0.00000000D+00  -5  6  0 0.00000000D+00 0.00000000D+00 0.00000000D+00 0.00000000D+00 0.00000000D+00
  <mgrwgt>
 -.3623065494D-01   41    4    0
 0.206925993355402D+03 0.000000000000000D+00 0.000000000000000D+00 0.206925993355402D+03
 0.206925993355402D+03 0.000000000000000D+00 0.000000000000000D+00 -.206925993355402D+03
 0.172843555990285D+03 -.848646542983306D+02 0.779962597087502D+02 -.310558975017121D+02
 0.170674791372065D+03 0.647240794542192D+02 -.835410777193774D+02 0.982156552601808D+02
 0.703336393484541D+02 0.201405748441114D+02 0.554481801062726D+01 -.671597577584687D+02
 0.000000000000000D+00 0.000000000000000D+00 -.000000000000000D+00 -.000000000000000D+00
 0.206963628501600D+03 0.000000000000000D+00 0.000000000000000D+00 0.206963628501600D+03
 0.266735642164656D+03 0.000000000000000D+00 0.000000000000000D+00 -.266735642164656D+03
 0.173628398956559D+03 -.857080246857194D+02 0.788129853453934D+02 -.310558975017121D+02
 0.169969747606998D+03 0.638948939669127D+02 -.827380888367436D+02 0.982156552601808D+02
 0.702633438345712D+02 0.197983383932824D+02 0.587624212435645D+01 -.671597577584687D+02
 0.598377802681276D+02 0.201479232552428D+01 -.195113863300624D+01 -.597720136630557D+02
 0.206925993355402D+03 0.000000000000000D+00 0.000000000000000D+00 0.206925993355402D+03
 0.206925993355402D+03 0.000000000000000D+00 0.000000000000000D+00 -.206925993355402D+03
 0.172843555990285D+03 -.848646542983306D+02 0.779962597087502D+02 -.310558975017121D+02
 0.170674791372065D+03 0.647240794542192D+02 -.835410777193774D+02 0.982156552601808D+02
 0.000000000000000D+00 0.000000000000000D+00 -.000000000000000D+00 -.000000000000000D+00
 0.703336393484541D+02 0.201405748441114D+02 0.554481801062726D+01 -.671597577584687D+02
 0.206963628501600D+03 0.000000000000000D+00 0.000000000000000D+00 0.206963628501600D+03
 0.266735642164656D+03 0.000000000000000D+00 0.000000000000000D+00 -.266735642164656D+03
 0.173628398956559D+03 -.857080246857194D+02 0.788129853453934D+02 -.310558975017121D+02
 0.169969747606998D+03 0.638948939669127D+02 -.827380888367436D+02 0.982156552601808D+02
 0.598377802681276D+02 0.201479232552428D+01 -.195113863300624D+01 -.597720136630557D+02
 0.702633438345712D+02 0.197983383932824D+02 0.587624212435645D+01 -.671597577584687D+02
0.346940688755D-06 0.000000000000D+00 0.000000000000D+00 0.133830724719D-05 0.000000000000D+00  6 -1 21 25 23 -1 21 2 0.52727596D-01 0.19220532D-01 0.27308243D+05 0.27308243D+05 0.27308243D+05 0.12192069D+01  1  2  2  2  6  2       21 0.443045865704D-03 0.100000000000D+01
0.653547278900D-07 0.183085631450D-07 -.700373292553D-09 0.133830724719D-05 0.000000000000D+00  6 -1 21 25 23 -1 21 4 0.52727596D-01 0.19220532D-01 0.27308243D+05 0.27308243D+05 0.27308243D+05 0.12192069D+01  1  2  3  2  6  2       21 0.124058143079D-03 0.100000000000D+01
0.247582097048D-07 0.000000000000D+00 0.000000000000D+00 0.133830724719D-05 0.000000000000D+00  6 -1 21 25 23 -1 21 4 0.52727596D-01 0.19220532D-01 0.27308243D+05 0.27308243D+05 0.27308243D+05 0.12192069D+01  1  2 15  2  6  2       21 0.469967150212D-04 0.100000000000D+01
0.200790510644D-05 0.000000000000D+00 0.000000000000D+00 0.133678332121D-05 0.000000000000D+00  6 -1 21 25 23 -1 21 4 0.52727596D-01 0.24777412D-01 0.27723198D+05 0.27723198D+05 0.27723198D+05 0.12185125D+01  1  2 12  2  6  2       21 0.236061048383D-02 0.100000000000D+01
0.192442196740D-05 0.000000000000D+00 0.000000000000D+00 0.133678332121D-05 0.000000000000D+00  6 -1 21 25 23 -1 21 4 0.52727596D-01 0.25029532D-01 0.27723198D+05 0.27723198D+05 0.27723198D+05 0.12185125D+01  1  2 12  2  6  2       21 0.221932635151D-02 0.100000000000D+01
-.347493521553D-03 0.000000000000D+00 0.000000000000D+00 0.133830724719D-05 0.000000000000D+00  6 -1 21 25 23 -1 21 4 0.52727596D-01 0.19220532D-01 0.27308243D+05 0.27308243D+05 0.27308243D+05 0.12192069D+01  1  2  4  2  6  2       21 -.659621765825D+00 0.100000000000D+01
-.386284542944D-03 0.000000000000D+00 -.532620006206D-06 0.133830724719D-05 0.000000000000D+00  6 -1 21 25 23 -1 21 4 0.52727596D-01 0.24777955D-01 0.27308243D+05 0.27308243D+05 0.27308243D+05 0.12192069D+01  1  2  5  2  6  2       21 -.455275257732D+00 0.100000000000D+01
0.332526465902D-03 0.000000000000D+00 0.469720884694D-06 0.133830724719D-05 0.000000000000D+00  6 -1 21 25 23 -1 21 4 0.52727596D-01 0.19220532D-01 0.27308243D+05 0.27308243D+05 0.27308243D+05 0.12192069D+01  1  2  6  2  6  2       21 0.631210888887D+00 0.100000000000D+01
0.377671387465D-03 0.000000000000D+00 0.000000000000D+00 0.133830724719D-05 0.361691765529D-05  6 -1 21 25 23 -1 21 4 0.52737186D-01 0.24776013D-01 0.27723198D+05 0.27723198D+05 0.27723198D+05 0.12185125D+01  1  2 11  2  6  2       21 0.443910475632D+00 0.100000000000D+01
0.171977249497D-06 0.000000000000D+00 0.000000000000D+00 0.133678332121D-05 0.000000000000D+00  6 -1 -1 25 23 -1 -1 4 0.52727596D-01 0.24777412D-01 0.27723198D+05 0.27723198D+05 0.27723198D+05 0.12185125D+01  1  2 12  5  6  2       21 0.167795435741D-04 0.100000000000D+01
0.173260747493D-06 0.000000000000D+00 0.000000000000D+00 0.133678332121D-05 0.000000000000D+00  6 -1 -1 25 23 -1 -1 4 0.52727596D-01 0.25029532D-01 0.27723198D+05 0.27723198D+05 0.27723198D+05 0.12185125D+01  1  2 12  5  6  2       21 0.166246738677D-04 0.100000000000D+01
-.330579583960D-04 0.000000000000D+00 -.408649623523D-07 0.133830724719D-05 0.000000000000D+00  6 -1 -1 25 23 -1 -1 4 0.52727596D-01 0.24777955D-01 0.27308243D+05 0.27308243D+05 0.27308243D+05 0.12192069D+01  1  2  5  5  6  2       21 -.323243068928D-02 0.100000000000D+01
0.302430661567D-04 0.000000000000D+00 0.000000000000D+00 0.133830724719D-05 0.139838357265D-06  6 -1 -1 25 23 -1 -1 4 0.52737186D-01 0.24776013D-01 0.27723198D+05 0.27723198D+05 0.27723198D+05 0.12185125D+01  1  2 11  5  6  2       21 0.295004722377D-02 0.100000000000D+01
0.171977249497D-06 0.000000000000D+00 0.000000000000D+00 0.133678332121D-05 0.000000000000D+00  6 -1 1 25 23 1 -1 4 0.52727596D-01 0.24777412D-01 0.27723198D+05 0.27723198D+05 0.27723198D+05 0.12185125D+01  3  4 12  6  5  2       21 0.272573927270D-04 0.100000000000D+01
0.173260747493D-06 0.000000000000D+00 0.000000000000D+00 0.133678332121D-05 0.000000000000D+00  6 -1 1 25 23 1 -1 4 0.52727596D-01 0.25029532D-01 0.27723198D+05 0.27723198D+05 0.27723198D+05 0.12185125D+01  3  4 12  6  5  2       21 0.271119513366D-04 0.100000000000D+01
-.330579583960D-04 0.000000000000D+00 -.408649623523D-07 0.133830724719D-05 0.000000000000D+00  6 -1 1 25 23 1 -1 4 0.52727596D-01 0.24777955D-01 0.27308243D+05 0.27308243D+05 0.27308243D+05 0.12192069D+01  3  4  5  6  5  2       21 -.525095484744D-02 0.100000000000D+01
0.332318981313D-04 0.000000000000D+00 0.000000000000D+00 0.133830724719D-05 0.317312144545D-06  6 -1 1 25 23 1 -1 4 0.52737186D-01 0.24776013D-01 0.27723198D+05 0.27723198D+05 0.27723198D+05 0.12185125D+01  3  4 11  6  5  2       21 0.526566215730D-02 0.100000000000D+01
0.171977249497D-06 0.000000000000D+00 0.000000000000D+00 0.133678332121D-05 0.000000000000D+00  6 -1 -2 25 23 -1 -2 4 0.52727596D-01 0.24777412D-01 0.27723198D+05 0.27723198D+05 0.27723198D+05 0.12185125D+01  1  2 12  7  6  2       21 0.150441267732D-04 0.100000000000D+01
0.171977249497D-06 0.000000000000D+00 0.000000000000D+00 0.133678332121D-05 0.000000000000D+00  6 -1 -4 25 23 -1 -4 4 0.52727596D-01 0.24777412D-01 0.27723198D+05 0.27723198D+05 0.27723198D+05 0.12185125D+01  1  2 12  7  6  2       21 0.827259123634D-05 0.100000000000D+01
0.173260747493D-06 0.000000000000D+00 0.000000000000D+00 0.133678332121D-05 0.000000000000D+00  6 -1 -2 25 23 -1 -2 4 0.52727596D-01 0.25029532D-01 0.27723198D+05 0.27723198D+05 0.27723198D+05 0.12185125D+01  1  2 12  7  6  2       21 0.148897987084D-04 0.100000000000D+01
0.173260747493D-06 0.000000000000D+00 0.000000000000D+00 0.133678332121D-05 0.000000000000D+00  6 -1 -4 25 23 -1 -4 4 0.52727596D-01 0.25029532D-01 0.27723198D+05 0.27723198D+05 0.27723198D+05 0.12185125D+01  1  2 12  7  6  2       21 0.817943552635D-05 0.100000000000D+01
-.330579583960D-04 0.000000000000D+00 -.408649623523D-07 0.133830724719D-05 0.000000000000D+00  6 -1 -2 25 23 -1 -2 4 0.52727596D-01 0.24777955D-01 0.27308243D+05 0.27308243D+05 0.27308243D+05 0.12192069D+01  1  2  5  7  6  2       21 -.289805712284D-02 0.100000000000D+01
-.330579583960D-04 0.000000000000D+00 -.408649623523D-07 0.133830724719D-05 0.000000000000D+00  6 -1 -4 25 23 -1 -4 4 0.52727596D-01 0.24777955D-01 0.27308243D+05 0.27308243D+05 0.27308243D+05 0.12192069D+01  1  2  5  7  6  2       21 -.159284645855D-02 0.100000000000D+01
0.298583802480D-04 0.000000000000D+00 0.000000000000D+00 0.133830724719D-05 0.275264992681D-06  6 -1 -2 25 23 -1 -2 4 0.52737186D-01 0.24776013D-01 0.27723198D+05 0.27723198D+05 0.27723198D+05 0.12185125D+01  1  2 11  7  6  2       21 0.261131186366D-02 0.100000000000D+01
0.298583802480D-04 0.000000000000D+00 0.000000000000D+00 0.133830724719D-05 0.275264992681D-06  6 -1 -4 25 23 -1 -4 4 0.52737186D-01 0.24776013D-01 0.27723198D+05 0.27723198D+05 0.27723198D+05 0.12185125D+01  1  2 11  7  6  2       21 0.143593831120D-02 0.100000000000D+01
0.171977249497D-06 0.000000000000D+00 0.000000000000D+00 0.133678332121D-05 0.000000000000D+00  6 -1 2 25 23 2 -1 4 0.52727596D-01 0.24777412D-01 0.27723198D+05 0.27723198D+05 0.27723198D+05 0.12185125D+01  3  4 12  8  5  2       21 0.347621823536D-04 0.100000000000D+01
0.171977249497D-06 0.000000000000D+00 0.000000000000D+00 0.133678332121D-05 0.000000000000D+00  6 -1 4 25 23 4 -1 4 0.52727596D-01 0.24777412D-01 0.27723198D+05 0.27723198D+05 0.27723198D+05 0.12185125D+01  3  4 12  8  5  2       21 0.827259123634D-05 0.100000000000D+01
0.173260747493D-06 0.000000000000D+00 0.000000000000D+00 0.133678332121D-05 0.000000000000D+00  6 -1 2 25 23 2 -1 4 0.52727596D-01 0.25029532D-01 0.27723198D+05 0.27723198D+05 0.27723198D+05 0.12185125D+01  3  4 12  8  5  2       21 0.346301904692D-04 0.100000000000D+01
0.173260747493D-06 0.000000000000D+00 0.000000000000D+00 0.133678332121D-05 0.000000000000D+00  6 -1 4 25 23 4 -1 4 0.52727596D-01 0.25029532D-01 0.27723198D+05 0.27723198D+05 0.27723198D+05 0.12185125D+01  3  4 12  8  5  2       21 0.817943552635D-05 0.100000000000D+01
-.330579583960D-04 0.000000000000D+00 -.408649623523D-07 0.133830724719D-05 0.000000000000D+00  6 -1 2 25 23 2 -1 4 0.52727596D-01 0.24777955D-01 0.27308243D+05 0.27308243D+05 0.27308243D+05 0.12192069D+01  3  4  5  8  5  2       21 -.669655405723D-02 0.100000000000D+01
-.330579583960D-04 0.000000000000D+00 -.408649623523D-07 0.133830724719D-05 0.000000000000D+00  6 -1 4 25 23 4 -1 4 0.52727596D-01 0.24777955D-01 0.27308243D+05 0.27308243D+05 0.27308243D+05 0.12192069D+01  3  4  5  8  5  2       21 -.159284645855D-02 0.100000000000D+01
0.298670915700D-04 0.000000000000D+00 0.000000000000D+00 0.133830724719D-05 0.275345302530D-06  6 -1 2 25 23 2 -1 4 0.52737186D-01 0.24776013D-01 0.27723198D+05 0.27723198D+05 0.27723198D+05 0.12185125D+01  3  4 11  8  5  2       21 0.603545142828D-02 0.100000000000D+01
0.298670915700D-04 0.000000000000D+00 0.000000000000D+00 0.133830724719D-05 0.275345302530D-06  6 -1 4 25 23 4 -1 4 0.52737186D-01 0.24776013D-01 0.27723198D+05 0.27723198D+05 0.27723198D+05 0.12185125D+01  3  4 11  8  5  2       21 0.143635725292D-02 0.100000000000D+01
0.171977249497D-06 0.000000000000D+00 0.000000000000D+00 0.133678332121D-05 0.000000000000D+00  6 -1 -3 25 23 -1 -3 4 0.52727596D-01 0.24777412D-01 0.27723198D+05 0.27723198D+05 0.27723198D+05 0.12185125D+01  1  2 12  9  6  2       21 0.975148400755D-05 0.100000000000D+01
0.173260747493D-06 0.000000000000D+00 0.000000000000D+00 0.133678332121D-05 0.000000000000D+00  6 -1 -3 25 23 -1 -3 4 0.52727596D-01 0.25029532D-01 0.27723198D+05 0.27723198D+05 0.27723198D+05 0.12185125D+01  1  2 12  9  6  2       21 0.964551602630D-05 0.100000000000D+01
-.330579583960D-04 0.000000000000D+00 -.408649623523D-07 0.133830724719D-05 0.000000000000D+00  6 -1 -3 25 23 -1 -3 4 0.52727596D-01 0.24777955D-01 0.27308243D+05 0.27308243D+05 0.27308243D+05 0.12192069D+01  1  2  5  9  6  2       21 -.187789146199D-02 0.100000000000D+01
0.297917303098D-04 0.000000000000D+00 0.000000000000D+00 0.133830724719D-05 0.274650545595D-06  6 -1 -3 25 23 -1 -3 4 0.52737186D-01 0.24776013D-01 0.27723198D+05 0.27723198D+05 0.27723198D+05 0.12185125D+01  1  2 11  9  6  2       21 0.168885921948D-02 0.100000000000D+01
0.171977249497D-06 0.000000000000D+00 0.000000000000D+00 0.133678332121D-05 0.000000000000D+00  6 -1 3 25 23 3 -1 4 0.52727596D-01 0.24777412D-01 0.27723198D+05 0.27723198D+05 0.27723198D+05 0.12185125D+01  3  4 12 10  5  2       21 0.975107708963D-05 0.100000000000D+01
0.173260747493D-06 0.000000000000D+00 0.000000000000D+00 0.133678332121D-05 0.000000000000D+00  6 -1 3 25 23 3 -1 4 0.52727596D-01 0.25029532D-01 0.27723198D+05 0.27723198D+05 0.27723198D+05 0.12185125D+01  3  4 12 10  5  2       21 0.964514123770D-05 0.100000000000D+01
-.330579583960D-04 0.000000000000D+00 -.408649623523D-07 0.133830724719D-05 0.000000000000D+00  6 -1 3 25 23 3 -1 4 0.52727596D-01 0.24777955D-01 0.27308243D+05 0.27308243D+05 0.27308243D+05 0.12192069D+01  3  4  5 10  5  2       21 -.187781262113D-02 0.100000000000D+01
0.297766817826D-04 0.000000000000D+00 0.000000000000D+00 0.133830724719D-05 0.274511812928D-06  6 -1 3 25 23 3 -1 4 0.52737186D-01 0.24776013D-01 0.27723198D+05 0.27723198D+05 0.27723198D+05 0.12185125D+01  3  4 11 10  5  2       21 0.168793567040D-02 0.100000000000D+01
  </mgrwgt>
  </event>
  <event>
  6     66 0.38788253E-03 0.35383738E+02 0.75467711E-02 0.11987627E+00
       -3 -1    0    0    0  501 0.00000000E+00 0.00000000E+00 0.29571342E+03 0.29571385E+03 0.50000000E+00 0.0000E+00 0.9000E+01
       21 -1    0    0  501  503 0.00000000E+00 0.00000000E+00 -.53832327E+03 0.53832379E+03 0.75000000E+00 0.0000E+00 0.9000E+01
       25  1    1    2    0    0 -.11148712E+02 0.42722320E+02 0.10588546E+02 0.13299101E+03 0.12500000E+03 0.0000E+00 0.9000E+01
       23  1    1    2    0    0 -.23406145E+02 -.53538949E+02 0.20367943E+03 0.23068339E+03 0.91188000E+02 0.0000E+00 0.9000E+01
       -3  1    1    2    0  502 0.72516590E+00 -.17679607E+02 -.81978763E+01 0.19507679E+02 0.50000000E+00 0.0000E+00 0.9000E+01
       21  1    1    2  502  503 0.33829691E+02 0.28496236E+02 -.44867994E+03 0.45085556E+03 0.75000000E+00 0.0000E+00 0.9000E+01
#aMCatNLO 2  0  0  2  1 0.85684519D+02 0.00000000D+00  -5  6  0 0.00000000D+00 0.00000000D+00 0.00000000D+00 0.00000000D+00 0.00000000D+00
  <mgrwgt>
 0.3292568723D-01    1    2    0
 0.160005574562813D+03 0.000000000000000D+00 0.000000000000000D+00 0.160005574562813D+03
 0.160005574562813D+03 0.000000000000000D+00 0.000000000000000D+00 -.160005574562813D+03
 0.155050614743532D+03 0.495086910561545D+01 0.562852087082089D+02 -.722714141837535D+02
 0.137821057783756D+03 -.859669354903309D+01 -.410629591333101D+02 0.944421668105589D+02
 0.271394765983379D+02 0.364582444341764D+01 -.152222495748988D+02 -.221707526268054D+02
 0.000000000000000D+00 0.000000000000000D+00 0.000000000000000D+00 -.000000000000000D+00
 0.162123006174802D+03 0.000000000000000D+00 0.000000000000000D+00 0.162123006174802D+03
 0.981905528050852D+03 0.000000000000000D+00 0.000000000000000D+00 -.981905528050852D+03
 0.150989283236021D+03 -.111489643634013D+02 0.427236110088008D+02 -.722714141837535D+02
 0.143696712603772D+03 -.234064920482827D+02 -.535379036501361D+02 0.944421668105589D+02
 0.283675895386770D+02 0.725765565279647D+00 -.176819435736040D+02 -.221707526268054D+02
 0.820974948847185D+03 0.338296908464043D+02 0.284962362149393D+02 -.819782521876050D+03
0.474061991869D-03 0.000000000000D+00 0.000000000000D+00 0.101185434425D-05 0.155803022507D-06  6 -3 21 25 23 -3 21 4 0.45494398D-01 0.82818950D-01 0.22922065D+05 0.22922065D+05 0.22922065D+05 0.12273588D+01  1  2  1  2  6  2       21 0.329256872333D-01 0.100000000000D+01
  </mgrwgt>
  </event>
  <event>
  5     66 -.38788253E-03 0.58776382E+02 0.75467711E-02 0.11593186E+00
       -1 -1    0    0    0  501 0.00000000E+00 0.00000000E+00 0.45028675E+03 0.45028686E+03 0.32000000E+00 0.0000E+00 0.9000E+01
       21 -1    0    0  501  502 0.00000000E+00 0.00000000E+00 -.12259987E+03 0.12260217E+03 0.75000000E+00 0.0000E+00 0.9000E+01
       25  1    1    2    0    0 0.43095405E+02 0.80194116E+02 -.36386005E+02 0.15886237E+03 0.12500000E+03 0.0000E+00 0.9000E+01
       23  1    1    2    0    0 -.85298231E+02 -.39284982E+02 0.19354651E+03 0.23365488E+03 0.91188000E+02 0.0000E+00 0.9000E+01
       -1  1    1    2    0  502 0.42202827E+02 -.40909134E+02 0.17052637E+03 0.18037178E+03 0.32000000E+00 0.0000E+00 0.9000E+01
#aMCatNLO 1  0  0  2  1 0.32530821D+02 0.00000000D+00  -5  6  0 0.00000000D+00 0.00000000D+00 0.00000000D+00 0.00000000D+00 0.00000000D+00
  <mgrwgt>
 -.1106937293D-02   30    4    0
 0.234959118612898D+03 0.000000000000000D+00 0.000000000000000D+00 0.234959118612898D+03
 0.234959118612898D+03 0.000000000000000D+00 0.000000000000000D+00 -.234959118612898D+03
 0.219046178764210D+03 0.430953059506249D+02 0.801942116321310D+02 -.155138362299352D+03
 0.149889147322991D+03 -.852982988125794D+02 -.392849164219512D+02 0.730232887688142D+02
 0.100982911138596D+03 0.422029928619545D+02 -.409092952101798D+02 0.821150735305381D+02
 0.000000000000000D+00 0.000000000000000D+00 0.000000000000000D+00 -.000000000000000D+00
 0.236068657771017D+03 0.000000000000000D+00 0.000000000000000D+00 0.236068657771017D+03
 0.718996154885827D+03 0.000000000000000D+00 0.000000000000000D+00 -.718996154885827D+03
 0.213804970580525D+03 0.419392554008169D+02 0.652744425057692D+02 -.155138362299352D+03
 0.153415479650548D+03 -.861083589944754D+02 -.497393994844381D+02 0.730232887688142D+02
 0.103822439559885D+03 0.416560026584237D+02 -.479686470286759D+02 0.821150735305381D+02
 0.484021922865887D+03 0.251310093523477D+01 0.324336040073448D+02 -.482927497114810D+03
 0.234959118612898D+03 0.000000000000000D+00 0.000000000000000D+00 0.234959118612898D+03
 0.234959118612898D+03 0.000000000000000D+00 0.000000000000000D+00 -.234959118612898D+03
 0.219046178764210D+03 0.430953059506249D+02 0.801942116321310D+02 -.155138362299352D+03
 0.149889147322991D+03 -.852982988125794D+02 -.392849164219512D+02 0.730232887688142D+02
 0.000000000000000D+00 0.000000000000000D+00 0.000000000000000D+00 -.000000000000000D+00
 0.100982911138596D+03 0.422029928619545D+02 -.409092952101798D+02 0.821150735305381D+02
 0.236068657771017D+03 0.000000000000000D+00 0.000000000000000D+00 0.236068657771017D+03
 0.718996154885827D+03 0.000000000000000D+00 0.000000000000000D+00 -.718996154885827D+03
 0.213804970580525D+03 0.419392554008169D+02 0.652744425057692D+02 -.155138362299352D+03
 0.153415479650548D+03 -.861083589944754D+02 -.497393994844381D+02 0.730232887688142D+02
 0.484021922865887D+03 0.251310093523477D+01 0.324336040073448D+02 -.482927497114810D+03
 0.103822439559885D+03 0.416560026584237D+02 -.479686470286759D+02 0.821150735305381D+02
0.104428318143D-05 0.000000000000D+00 0.000000000000D+00 0.363854029767D-07 0.000000000000D+00  6 -1 21 25 23 -1 21 2 0.69275069D-01 0.18861704D-01 0.29638026D+05 0.29638026D+05 0.29638026D+05 0.12154521D+01  1  2  2  2  6  2       21 0.813047643656D-03 0.100000000000D+01
-.109242168451D-06 0.551083375004D-07 -.210810687200D-08 0.363854029767D-07 0.000000000000D+00  6 -1 21 25 23 -1 21 4 0.69275069D-01 0.18861704D-01 0.29638026D+05 0.29638026D+05 0.29638026D+05 0.12154521D+01  1  2  3  2  6  2       21 -.125650355669D-03 0.100000000000D+01
0.126340859666D-06 0.000000000000D+00 0.000000000000D+00 0.363854029767D-07 0.000000000000D+00  6 -1 21 25 23 -1 21 4 0.69275069D-01 0.18861704D-01 0.29638026D+05 0.29638026D+05 0.29638026D+05 0.12154521D+01  1  2 15  2  6  2       21 0.145317272421D-03 0.100000000000D+01
0.164057208885D-03 0.000000000000D+00 0.000000000000D+00 0.358809696233D-07 0.000000000000D+00  6 -1 21 25 23 -1 21 4 0.69275069D-01 0.57647847D-01 0.35740868D+05 0.35740868D+05 0.35740868D+05 0.12069974D+01  1  2 12  2  6  2       21 0.200755843518D-01 0.100000000000D+01
0.163964989844D-03 0.000000000000D+00 0.000000000000D+00 0.358809696233D-07 0.000000000000D+00  6 -1 21 25 23 -1 21 4 0.69275069D-01 0.57752699D-01 0.35740868D+05 0.35740868D+05 0.35740868D+05 0.12069974D+01  1  2 12  2  6  2       21 0.199866998231D-01 0.100000000000D+01
-.329242109530D-03 0.000000000000D+00 -.269063708338D-05 0.363854029767D-07 0.000000000000D+00  6 -1 21 25 23 -1 21 4 0.69275069D-01 0.57790475D-01 0.29638026D+05 0.29638026D+05 0.29638026D+05 0.12154521D+01  1  2  5  2  6  2       21 -.415635128721D-01 0.100000000000D+01
0.561050572099D-04 0.000000000000D+00 0.000000000000D+00 0.358809696233D-07 0.000000000000D+00  6 -1 -1 25 23 -1 -1 4 0.69275069D-01 0.57647847D-01 0.35740868D+05 0.35740868D+05 0.35740868D+05 0.12069974D+01  1  2 12  5  6  2       21 0.707594510083D-03 0.100000000000D+01
0.561321637925D-04 0.000000000000D+00 0.000000000000D+00 0.358809696233D-07 0.000000000000D+00  6 -1 -1 25 23 -1 -1 4 0.69275069D-01 0.57752699D-01 0.35740868D+05 0.35740868D+05 0.35740868D+05 0.12069974D+01  1  2 12  5  6  2       21 0.705498828466D-03 0.100000000000D+01
-.112618554747D-03 0.000000000000D+00 -.962058471865D-06 0.363854029767D-07 0.000000000000D+00  6 -1 -1 25 23 -1 -1 4 0.69275069D-01 0.57790475D-01 0.29638026D+05 0.29638026D+05 0.29638026D+05 0.12154521D+01  1  2  5  5  6  2       21 -.145905548873D-02 0.100000000000D+01
0.561050572099D-04 0.000000000000D+00 0.000000000000D+00 0.358809696233D-07 0.000000000000D+00  6 -1 1 25 23 1 -1 4 0.69275069D-01 0.57647847D-01 0.35740868D+05 0.35740868D+05 0.35740868D+05 0.12069974D+01  3  4 12  6  5  2       21 0.175911253262D-02 0.100000000000D+01
0.561321637925D-04 0.000000000000D+00 0.000000000000D+00 0.358809696233D-07 0.000000000000D+00  6 -1 1 25 23 1 -1 4 0.69275069D-01 0.57752699D-01 0.35740868D+05 0.35740868D+05 0.35740868D+05 0.12069974D+01  3  4 12  6  5  2       21 0.175591680979D-02 0.100000000000D+01
-.112618554747D-03 0.000000000000D+00 -.962058471865D-06 0.363854029767D-07 0.000000000000D+00  6 -1 1 25 23 1 -1 4 0.69275069D-01 0.57790475D-01 0.29638026D+05 0.29638026D+05 0.29638026D+05 0.12154521D+01  3  4  5  6  5  2       21 -.363165571089D-02 0.100000000000D+01
0.561050572099D-04 0.000000000000D+00 0.000000000000D+00 0.358809696233D-07 0.000000000000D+00  6 -1 -2 25 23 -1 -2 4 0.69275069D-01 0.57647847D-01 0.35740868D+05 0.35740868D+05 0.35740868D+05 0.12069974D+01  1  2 12  7  6  2       21 0.567682738547D-03 0.100000000000D+01
0.561050572099D-04 0.000000000000D+00 0.000000000000D+00 0.358809696233D-07 0.000000000000D+00  6 -1 -4 25 23 -1 -4 4 0.69275069D-01 0.57647847D-01 0.35740868D+05 0.35740868D+05 0.35740868D+05 0.12069974D+01  1  2 12  7  6  2       21 0.294527004094D-03 0.100000000000D+01
0.561321637925D-04 0.000000000000D+00 0.000000000000D+00 0.358809696233D-07 0.000000000000D+00  6 -1 -2 25 23 -1 -2 4 0.69275069D-01 0.57752699D-01 0.35740868D+05 0.35740868D+05 0.35740868D+05 0.12069974D+01  1  2 12  7  6  2       21 0.565846390678D-03 0.100000000000D+01
0.561321637925D-04 0.000000000000D+00 0.000000000000D+00 0.358809696233D-07 0.000000000000D+00  6 -1 -4 25 23 -1 -4 4 0.69275069D-01 0.57752699D-01 0.35740868D+05 0.35740868D+05 0.35740868D+05 0.12069974D+01  1  2 12  7  6  2       21 0.293546774816D-03 0.100000000000D+01
-.112618554747D-03 0.000000000000D+00 -.962058471865D-06 0.363854029767D-07 0.000000000000D+00  6 -1 -2 25 23 -1 -2 4 0.69275069D-01 0.57790475D-01 0.29638026D+05 0.29638026D+05 0.29638026D+05 0.12154521D+01  1  2  5  7  6  2       21 -.116934327178D-02 0.100000000000D+01
-.112618554747D-03 0.000000000000D+00 -.962058471865D-06 0.363854029767D-07 0.000000000000D+00  6 -1 -4 25 23 -1 -4 4 0.69275069D-01 0.57790475D-01 0.29638026D+05 0.29638026D+05 0.29638026D+05 0.12154521D+01  1  2  5  7  6  2       21 -.603185445181D-03 0.100000000000D+01
0.561050572099D-04 0.000000000000D+00 0.000000000000D+00 0.358809696233D-07 0.000000000000D+00  6 -1 2 25 23 2 -1 4 0.69275069D-01 0.57647847D-01 0.35740868D+05 0.35740868D+05 0.35740868D+05 0.12069974D+01  3  4 12  8  5  2       21 0.259464604418D-02 0.100000000000D+01
0.561050572099D-04 0.000000000000D+00 0.000000000000D+00 0.358809696233D-07 0.000000000000D+00  6 -1 4 25 23 4 -1 4 0.69275069D-01 0.57647847D-01 0.35740868D+05 0.35740868D+05 0.35740868D+05 0.12069974D+01  3  4 12  8  5  2       21 0.294527004094D-03 0.100000000000D+01
0.561321637925D-04 0.000000000000D+00 0.000000000000D+00 0.358809696233D-07 0.000000000000D+00  6 -1 2 25 23 2 -1 4 0.69275069D-01 0.57752699D-01 0.35740868D+05 0.35740868D+05 0.35740868D+05 0.12069974D+01  3  4 12  8  5  2       21 0.259082841071D-02 0.100000000000D+01
0.561321637925D-04 0.000000000000D+00 0.000000000000D+00 0.358809696233D-07 0.000000000000D+00  6 -1 4 25 23 4 -1 4 0.69275069D-01 0.57752699D-01 0.35740868D+05 0.35740868D+05 0.35740868D+05 0.12069974D+01  3  4 12  8  5  2       21 0.293546774816D-03 0.100000000000D+01
-.112618554747D-03 0.000000000000D+00 -.962058471865D-06 0.363854029767D-07 0.000000000000D+00  6 -1 2 25 23 2 -1 4 0.69275069D-01 0.57790475D-01 0.29638026D+05 0.29638026D+05 0.29638026D+05 0.12154521D+01  3  4  5  8  5  2       21 -.535552600855D-02 0.100000000000D+01
-.112618554747D-03 0.000000000000D+00 -.962058471865D-06 0.363854029767D-07 0.000000000000D+00  6 -1 4 25 23 4 -1 4 0.69275069D-01 0.57790475D-01 0.29638026D+05 0.29638026D+05 0.29638026D+05 0.12154521D+01  3  4  5  8  5  2       21 -.603185445181D-03 0.100000000000D+01
0.561050572099D-04 0.000000000000D+00 0.000000000000D+00 0.358809696233D-07 0.000000000000D+00  6 -1 -3 25 23 -1 -3 4 0.69275069D-01 0.57647847D-01 0.35740868D+05 0.35740868D+05 0.35740868D+05 0.12069974D+01  1  2 12  9  6  2       21 0.358396144149D-03 0.100000000000D+01
0.561321637925D-04 0.000000000000D+00 0.000000000000D+00 0.358809696233D-07 0.000000000000D+00  6 -1 -3 25 23 -1 -3 4 0.69275069D-01 0.57752699D-01 0.35740868D+05 0.35740868D+05 0.35740868D+05 0.12069974D+01  1  2 12  9  6  2       21 0.357229983725D-03 0.100000000000D+01
-.112618554747D-03 0.000000000000D+00 -.962058471865D-06 0.363854029767D-07 0.000000000000D+00  6 -1 -3 25 23 -1 -3 4 0.69275069D-01 0.57790475D-01 0.29638026D+05 0.29638026D+05 0.29638026D+05 0.12154521D+01  1  2  5  9  6  2       21 -.735493117740D-03 0.100000000000D+01
0.561050572099D-04 0.000000000000D+00 0.000000000000D+00 0.358809696233D-07 0.000000000000D+00  6 -1 3 25 23 3 -1 4 0.69275069D-01 0.57647847D-01 0.35740868D+05 0.35740868D+05 0.35740868D+05 0.12069974D+01  3  4 12 10  5  2       21 0.358617725415D-03 0.100000000000D+01
0.561321637925D-04 0.000000000000D+00 0.000000000000D+00 0.358809696233D-07 0.000000000000D+00  6 -1 3 25 23 3 -1 4 0.69275069D-01 0.57752699D-01 0.35740868D+05 0.35740868D+05 0.35740868D+05 0.12069974D+01  3  4 12 10  5  2       21 0.357451845676D-03 0.100000000000D+01
-.112618554747D-03 0.000000000000D+00 -.962058471865D-06 0.363854029767D-07 0.000000000000D+00  6 -1 3 25 23 3 -1 4 0.69275069D-01 0.57790475D-01 0.29638026D+05 0.29638026D+05 0.29638026D+05 0.12154521D+01  3  4  5 10  5  2       21 -.735948190435D-03 0.100000000000D+01
  </mgrwgt>
  </event>
  <event>
  5     66 -.38788253E-03 0.77590698E+02 0.75467711E-02 0.11696286E+00
       -3 -1    0    0    0  501 0.00000000E+00 0.00000000E+00 0.47181305E+03 0.47181331E+03 0.50000000E+00 0.0000E+00 0.9000E+01
       21 -1    0    0  501  502 0.00000000E+00 0.00000000E+00 -.10510083E+03 0.10510351E+03 0.75000000E+00 0.0000E+00 0.9000E+01
       25  1    1    2    0    0 0.39015909E+01 0.44116600E+02 0.11214737E+03 0.17367651E+03 0.12500000E+03 0.0000E+00 0.9000E+01
       23  1    1    2    0    0 0.74351643E+02 -.73870702E+02 0.28264016E+03 0.31493771E+03 0.91188000E+02 0.0000E+00 0.9000E+01
       -3  1    1    2    0  502 -.78253234E+02 0.29754102E+02 -.28075325E+02 0.88302600E+02 0.50000000E+00 0.0000E+00 0.9000E+01
#aMCatNLO 1  0  0  2  1 0.10495650D+01 0.00000000D+00  -5  6  0 0.00000000D+00 0.00000000D+00 0.00000000D+00 0.00000000D+00 0.00000000D+00
  <mgrwgt>
 -.2592526631D-02   41    4    0
 0.222685411796824D+03 0.000000000000000D+00 0.000000000000000D+00 0.222685411796824D+03
 0.222685411796824D+03 0.000000000000000D+00 0.000000000000000D+00 -.222685411796824D+03
 0.132633482923943D+03 0.390174501539371D+01 0.441165416296230D+02 0.226890568612014D+01
 0.175236877210144D+03 0.743518465976203D+02 -.738707796520549D+02 0.106806472704066D+03
 0.137500463459562D+03 -.782535916130140D+02 0.297542380224319D+02 -.109075378390186D+03
 0.000000000000000D+00 -.000000000000000D+00 0.000000000000000D+00 -.000000000000000D+00
 0.222699934116441D+03 0.000000000000000D+00 0.000000000000000D+00 0.222699934116441D+03
 0.242493088971132D+03 0.000000000000000D+00 0.000000000000000D+00 -.242493088971132D+03
 0.132576734349239D+03 0.414721391230153D+01 0.439231507802184D+02 0.226890568612014D+01
 0.175482731758629D+03 0.746764598663800D+02 -.741265238076862D+02 0.106806472704066D+03
 0.137312594191425D+03 -.779992346775572D+02 0.295538447977929D+02 -.109075378390186D+03
 0.198209627882803D+02 -.824439101124310D+00 0.649528229674988D+00 -.197931548546912D+02
 0.222685411796824D+03 0.000000000000000D+00 0.000000000000000D+00 0.222685411796824D+03
 0.222685411796824D+03 0.000000000000000D+00 0.000000000000000D+00 -.222685411796824D+03
 0.132633482923943D+03 0.390174501539371D+01 0.441165416296230D+02 0.226890568612014D+01
 0.175236877210144D+03 0.743518465976203D+02 -.738707796520549D+02 0.106806472704066D+03
 0.000000000000000D+00 -.000000000000000D+00 0.000000000000000D+00 -.000000000000000D+00
 0.137500463459562D+03 -.782535916130140D+02 0.297542380224319D+02 -.109075378390186D+03
 0.222699934116441D+03 0.000000000000000D+00 0.000000000000000D+00 0.222699934116441D+03
 0.242493088971132D+03 0.000000000000000D+00 0.000000000000000D+00 -.242493088971132D+03
 0.132576734349239D+03 0.414721391230153D+01 0.439231507802184D+02 0.226890568612014D+01
 0.175482731758629D+03 0.746764598663800D+02 -.741265238076862D+02 0.106806472704066D+03
 0.198209627882803D+02 -.824439101124310D+00 0.649528229674988D+00 -.197931548546912D+02
 0.137312594191425D+03 -.779992346775572D+02 0.295538447977929D+02 -.109075378390186D+03
0.103211288238D-06 0.000000000000D+00 0.000000000000D+00 0.275580303329D-06 0.000000000000D+00  6 -3 21 25 23 -3 21 2 0.72586849D-01 0.16169585D-01 0.31552266D+05 0.31552266D+05 0.31552266D+05 0.12126056D+01  1  2  2  2  6  2       21 0.471358519967D-04 0.100000000000D+01
-.950443992399D-09 0.544660931747D-08 -.208353854463D-09 0.275580303329D-06 0.000000000000D+00  6 -3 21 25 23 -3 21 4 0.72586849D-01 0.16169585D-01 0.31552266D+05 0.31552266D+05 0.31552266D+05 0.12126056D+01  1  2  3  2  6  2       21 -.638248586886D-06 0.100000000000D+01
0.107238241981D-07 0.000000000000D+00 0.000000000000D+00 0.275580303329D-06 0.000000000000D+00  6 -3 21 25 23 -3 21 4 0.72586849D-01 0.16169585D-01 0.31552266D+05 0.31552266D+05 0.31552266D+05 0.12126056D+01  1  2 15  2  6  2       21 0.720133505516D-05 0.100000000000D+01
0.172326303517D-08 0.000000000000D+00 0.000000000000D+00 0.275465268002D-06 0.000000000000D+00  6 -3 21 25 23 -3 21 4 0.72586849D-01 0.17608357D-01 0.31729055D+05 0.31729055D+05 0.31729055D+05 0.12123525D+01  1  2 12  2  6  2       21 0.988865221675D-06 0.100000000000D+01
0.171306833427D-08 0.000000000000D+00 0.000000000000D+00 0.275465268002D-06 0.000000000000D+00  6 -3 21 25 23 -3 21 4 0.72586849D-01 0.17616416D-01 0.31729055D+05 0.31729055D+05 0.31729055D+05 0.12123525D+01  1  2 12  2  6  2       21 0.982187057495D-06 0.100000000000D+01
-.273522486569D-03 0.000000000000D+00 0.000000000000D+00 0.275580303329D-06 0.000000000000D+00  6 -3 21 25 23 -3 21 4 0.72586849D-01 0.16169585D-01 0.31552266D+05 0.31552266D+05 0.31552266D+05 0.12126056D+01  1  2  4  2  6  2       21 -.183677672678D+00 0.100000000000D+01
-.255968016086D-03 0.000000000000D+00 -.390369172830D-06 0.275580303329D-06 0.000000000000D+00  6 -3 21 25 23 -3 21 4 0.72586849D-01 0.17608403D-01 0.31552266D+05 0.31552266D+05 0.31552266D+05 0.12126056D+01  1  2  5  2  6  2       21 -.146999294069D+00 0.100000000000D+01
0.253362407463D-03 0.000000000000D+00 0.384753761111D-06 0.275580303329D-06 0.000000000000D+00  6 -3 21 25 23 -3 21 4 0.72586849D-01 0.16169585D-01 0.31552266D+05 0.31552266D+05 0.31552266D+05 0.12126056D+01  1  2  6  2  6  2       21 0.170139639818D+00 0.100000000000D+01
0.275205385012D-03 0.000000000000D+00 0.000000000000D+00 0.275580303329D-06 0.482368199658D-05  6 -3 21 25 23 -3 21 4 0.72591582D-01 0.17607856D-01 0.31729055D+05 0.31729055D+05 0.31729055D+05 0.12123525D+01  1  2 11  2  6  2       21 0.157908128726D+00 0.100000000000D+01
0.354689297641D-10 0.000000000000D+00 0.000000000000D+00 0.275465268002D-06 0.000000000000D+00  6 -3 -3 25 23 -3 -3 4 0.72586849D-01 0.17608357D-01 0.31729055D+05 0.31729055D+05 0.31729055D+05 0.12123525D+01  1  2 12  5  6  2       21 0.957043796124D-09 0.100000000000D+01
0.354543933982D-10 0.000000000000D+00 0.000000000000D+00 0.275465268002D-06 0.000000000000D+00  6 -3 -3 25 23 -3 -3 4 0.72586849D-01 0.17616416D-01 0.31729055D+05 0.31729055D+05 0.31729055D+05 0.12123525D+01  1  2 12  5  6  2       21 0.955887007442D-09 0.100000000000D+01
-.501390437990D-05 0.000000000000D+00 -.834042992063D-08 0.275580303329D-06 0.000000000000D+00  6 -3 -3 25 23 -3 -3 4 0.72586849D-01 0.17608403D-01 0.31552266D+05 0.31552266D+05 0.31552266D+05 0.12126056D+01  1  2  5  5  6  2       21 -.135362928595D-03 0.100000000000D+01
0.498388674407D-05 0.000000000000D+00 0.000000000000D+00 0.275580303329D-06 0.436049943745D-07  6 -3 -3 25 23 -3 -3 4 0.72591582D-01 0.17607856D-01 0.31729055D+05 0.31729055D+05 0.31729055D+05 0.12123525D+01  1  2 11  5  6  2       21 0.134466082947D-03 0.100000000000D+01
0.354689297641D-10 0.000000000000D+00 0.000000000000D+00 0.275465268002D-06 0.000000000000D+00  6 -3 3 25 23 3 -3 4 0.72586849D-01 0.17608357D-01 0.31729055D+05 0.31729055D+05 0.31729055D+05 0.12123525D+01  3  4 12  6  5  2       21 0.956945604477D-09 0.100000000000D+01
0.354543933982D-10 0.000000000000D+00 0.000000000000D+00 0.275465268002D-06 0.000000000000D+00  6 -3 3 25 23 3 -3 4 0.72586849D-01 0.17616416D-01 0.31729055D+05 0.31729055D+05 0.31729055D+05 0.12123525D+01  3  4 12  6  5  2       21 0.955788980692D-09 0.100000000000D+01
-.501390437990D-05 0.000000000000D+00 -.834042992063D-08 0.275580303329D-06 0.000000000000D+00  6 -3 3 25 23 3 -3 4 0.72586849D-01 0.17608403D-01 0.31552266D+05 0.31552266D+05 0.31552266D+05 0.12126056D+01  3  4  5  6  5  2       21 -.135349029160D-03 0.100000000000D+01
0.496129145798D-05 0.000000000000D+00 0.000000000000D+00 0.275580303329D-06 0.869549905263D-07  6 -3 3 25 23 3 -3 4 0.72591582D-01 0.17607856D-01 0.31729055D+05 0.31729055D+05 0.31729055D+05 0.12123525D+01  3  4 11  6  5  2       21 0.133842724489D-03 0.100000000000D+01
0.354689297641D-10 0.000000000000D+00 0.000000000000D+00 0.275465268002D-06 0.000000000000D+00  6 -3 -2 25 23 -3 -2 4 0.72586849D-01 0.17608357D-01 0.31729055D+05 0.31729055D+05 0.31729055D+05 0.12123525D+01  1  2 12  7  6  2       21 0.143882673485D-08 0.100000000000D+01
0.354689297641D-10 0.000000000000D+00 0.000000000000D+00 0.275465268002D-06 0.000000000000D+00  6 -3 -4 25 23 -3 -4 4 0.72586849D-01 0.17608357D-01 0.31729055D+05 0.31729055D+05 0.31729055D+05 0.12123525D+01  1  2 12  7  6  2       21 0.823649128176D-09 0.100000000000D+01
0.354543933982D-10 0.000000000000D+00 0.000000000000D+00 0.275465268002D-06 0.000000000000D+00  6 -3 -2 25 23 -3 -2 4 0.72586849D-01 0.17616416D-01 0.31729055D+05 0.31729055D+05 0.31729055D+05 0.12123525D+01  1  2 12  7  6  2       21 0.143713541365D-08 0.100000000000D+01
0.354543933982D-10 0.000000000000D+00 0.000000000000D+00 0.275465268002D-06 0.000000000000D+00  6 -3 -4 25 23 -3 -4 4 0.72586849D-01 0.17616416D-01 0.31729055D+05 0.31729055D+05 0.31729055D+05 0.12123525D+01  1  2 12  7  6  2       21 0.822639734536D-09 0.100000000000D+01
-.501390437990D-05 0.000000000000D+00 -.834042992063D-08 0.275580303329D-06 0.000000000000D+00  6 -3 -2 25 23 -3 -2 4 0.72586849D-01 0.17608403D-01 0.31552266D+05 0.31552266D+05 0.31552266D+05 0.12126056D+01  1  2  5  7  6  2       21 -.203529855070D-03 0.100000000000D+01
-.501390437990D-05 0.000000000000D+00 -.834042992063D-08 0.275580303329D-06 0.000000000000D+00  6 -3 -4 25 23 -3 -4 4 0.72586849D-01 0.17608403D-01 0.31552266D+05 0.31552266D+05 0.31552266D+05 0.12126056D+01  1  2  5  7  6  2       21 -.116489312082D-03 0.100000000000D+01
0.497066833166D-05 0.000000000000D+00 0.000000000000D+00 0.275580303329D-06 0.869741619843D-07  6 -3 -2 25 23 -3 -2 4 0.72591582D-01 0.17607856D-01 0.31729055D+05 0.31729055D+05 0.31729055D+05 0.12123525D+01  1  2 11  7  6  2       21 0.201620721004D-03 0.100000000000D+01
0.497066833166D-05 0.000000000000D+00 0.000000000000D+00 0.275580303329D-06 0.869741619843D-07  6 -3 -4 25 23 -3 -4 4 0.72591582D-01 0.17607856D-01 0.31729055D+05 0.31729055D+05 0.31729055D+05 0.12123525D+01  1  2 11  7  6  2       21 0.115417127079D-03 0.100000000000D+01
0.354689297641D-10 0.000000000000D+00 0.000000000000D+00 0.275465268002D-06 0.000000000000D+00  6 -3 2 25 23 2 -3 4 0.72586849D-01 0.17608357D-01 0.31729055D+05 0.31729055D+05 0.31729055D+05 0.12123525D+01  3  4 12  8  5  2       21 0.272833800541D-08 0.100000000000D+01
0.354689297641D-10 0.000000000000D+00 0.000000000000D+00 0.275465268002D-06 0.000000000000D+00  6 -3 4 25 23 4 -3 4 0.72586849D-01 0.17608357D-01 0.31729055D+05 0.31729055D+05 0.31729055D+05 0.12123525D+01  3  4 12  8  5  2       21 0.823649128176D-09 0.100000000000D+01
0.354543933982D-10 0.000000000000D+00 0.000000000000D+00 0.275465268002D-06 0.000000000000D+00  6 -3 2 25 23 2 -3 4 0.72586849D-01 0.17616416D-01 0.31729055D+05 0.31729055D+05 0.31729055D+05 0.12123525D+01  3  4 12  8  5  2       21 0.272577603631D-08 0.100000000000D+01
0.354543933982D-10 0.000000000000D+00 0.000000000000D+00 0.275465268002D-06 0.000000000000D+00  6 -3 4 25 23 4 -3 4 0.72586849D-01 0.17616416D-01 0.31729055D+05 0.31729055D+05 0.31729055D+05 0.12123525D+01  3  4 12  8  5  2       21 0.822639734536D-09 0.100000000000D+01
-.501390437990D-05 0.000000000000D+00 -.834042992063D-08 0.275580303329D-06 0.000000000000D+00  6 -3 2 25 23 2 -3 4 0.72586849D-01 0.17608403D-01 0.31552266D+05 0.31552266D+05 0.31552266D+05 0.12126056D+01  3  4  5  8  5  2       21 -.385940175058D-03 0.100000000000D+01
-.501390437990D-05 0.000000000000D+00 -.834042992063D-08 0.275580303329D-06 0.000000000000D+00  6 -3 4 25 23 4 -3 4 0.72586849D-01 0.17608403D-01 0.31552266D+05 0.31552266D+05 0.31552266D+05 0.12126056D+01  3  4  5  8  5  2       21 -.116489312082D-03 0.100000000000D+01
0.496779211657D-05 0.000000000000D+00 0.000000000000D+00 0.275580303329D-06 0.869238354729D-07  6 -3 2 25 23 2 -3 4 0.72591582D-01 0.17607856D-01 0.31729055D+05 0.31729055D+05 0.31729055D+05 0.12123525D+01  3  4 11  8  5  2       21 0.382091236226D-03 0.100000000000D+01
0.496779211657D-05 0.000000000000D+00 0.000000000000D+00 0.275580303329D-06 0.869238354729D-07  6 -3 4 25 23 4 -3 4 0.72591582D-01 0.17607856D-01 0.31729055D+05 0.31729055D+05 0.31729055D+05 0.12123525D+01  3  4 11  8  5  2       21 0.115350342402D-03 0.100000000000D+01
0.354689297641D-10 0.000000000000D+00 0.000000000000D+00 0.275465268002D-06 0.000000000000D+00  6 -3 -1 25 23 -3 -1 4 0.72586849D-01 0.17608357D-01 0.31729055D+05 0.31729055D+05 0.31729055D+05 0.12123525D+01  1  2 12  9  6  2       21 0.155636806204D-08 0.100000000000D+01
0.354543933982D-10 0.000000000000D+00 0.000000000000D+00 0.275465268002D-06 0.000000000000D+00  6 -3 -1 25 23 -3 -1 4 0.72586849D-01 0.17616416D-01 0.31729055D+05 0.31729055D+05 0.31729055D+05 0.12123525D+01  1  2 12  9  6  2       21 0.155459313759D-08 0.100000000000D+01
-.501390437990D-05 0.000000000000D+00 -.834042992063D-08 0.275580303329D-06 0.000000000000D+00  6 -3 -1 25 23 -3 -1 4 0.72586849D-01 0.17608403D-01 0.31552266D+05 0.31552266D+05 0.31552266D+05 0.12126056D+01  1  2  5  9  6  2       21 -.220157793072D-03 0.100000000000D+01
0.493419995811D-05 0.000000000000D+00 0.000000000000D+00 0.275580303329D-06 0.863360574042D-07  6 -3 -1 25 23 -3 -1 4 0.72591582D-01 0.17607856D-01 0.31729055D+05 0.31729055D+05 0.31729055D+05 0.12123525D+01  1  2 11  9  6  2       21 0.216491070024D-03 0.100000000000D+01
0.354689297641D-10 0.000000000000D+00 0.000000000000D+00 0.275465268002D-06 0.000000000000D+00  6 -3 1 25 23 1 -3 4 0.72586849D-01 0.17608357D-01 0.31729055D+05 0.31729055D+05 0.31729055D+05 0.12123525D+01  3  4 12 10  5  2       21 0.224647324168D-08 0.100000000000D+01
0.354543933982D-10 0.000000000000D+00 0.000000000000D+00 0.275465268002D-06 0.000000000000D+00  6 -3 1 25 23 1 -3 4 0.72586849D-01 0.17616416D-01 0.31729055D+05 0.31729055D+05 0.31729055D+05 0.12123525D+01  3  4 12 10  5  2       21 0.224422601103D-08 0.100000000000D+01
-.501390437990D-05 0.000000000000D+00 -.834042992063D-08 0.275580303329D-06 0.000000000000D+00  6 -3 1 25 23 1 -3 4 0.72586849D-01 0.17608403D-01 0.31552266D+05 0.31552266D+05 0.31552266D+05 0.12126056D+01  3  4  5 10  5  2       21 -.317779123858D-03 0.100000000000D+01
0.493916852668D-05 0.000000000000D+00 0.000000000000D+00 0.275580303329D-06 0.864229948257D-07  6 -3 1 25 23 1 -3 4 0.72591582D-01 0.17607856D-01 0.31729055D+05 0.31729055D+05 0.31729055D+05 0.12123525D+01  3  4 11 10  5  2       21 0.312796756658D-03 0.100000000000D+01
  </mgrwgt>
  </event>
  <event>
  5     66 0.38788253E-03 0.26856260E+02 0.75467711E-02 0.11329850E+00
       -1 -1    0    0    0  501 0.00000000E+00 0.00000000E+00 0.45061950E+03 0.45061962E+03 0.32000000E+00 0.0000E+00 0.9000E+01
       21 -1    0    0  501  502 0.00000000E+00 0.00000000E+00 -.70365880E+02 0.70369876E+02 0.75000000E+00 0.0000E+00 0.9000E+01
       25  1    1    2    0    0 -.50164624E+02 0.11717596E+03 0.17840734E+03 0.25239032E+03 0.12500000E+03 0.0000E+00 0.9000E+01
       23  1    1    2    0    0 0.64588374E+02 -.94523444E+02 0.18838057E+03 0.23855572E+03 0.91188000E+02 0.0000E+00 0.9000E+01
       -1  1    1    2    0  502 -.14423750E+02 -.22652521E+02 0.13465714E+02 0.30043454E+02 0.32000000E+00 0.0000E+00 0.9000E+01
#aMCatNLO 1  0  0  2  5 0.73087519D+02 0.00000000D+00  -5  6  0 0.00000000D+00 0.00000000D+00 0.00000000D+00 0.00000000D+00 0.00000000D+00
  <mgrwgt>
 0.6015450540D-01    4    2    0
 0.178071077197892D+03 0.000000000000000D+00 0.000000000000000D+00 0.178071077197892D+03
 0.178071077197892D+03 0.000000000000000D+00 0.000000000000000D+00 -.178071077197892D+03
 0.178728564296005D+03 -.501642002457594D+02 0.117176629927577D+03 -.849058936883321D+01
 0.147841448923351D+03 0.645887248863532D+02 -.945228930143209D+02 0.208701219333758D+02
 0.295721411764296D+02 -.144245246405938D+02 -.226537369132558D+02 -.123795325645426D+02
 0.000000000000000D+00 0.000000000000000D+00 0.000000000000000D+00 0.000000000000000D+00
 0.282933261770229D+03 0.000000000000000D+00 0.000000000000000D+00 0.282933261770229D+03
 0.198922499681926D+03 0.000000000000000D+00 0.000000000000000D+00 -.198922499681926D+03
 0.158285177651990D+03 -.548635383120930D+02 0.796686859460438D+02 -.849058936883321D+01
 0.171092554986379D+03 0.601414916769357D+02 -.130018652573876D+03 0.208701219333758D+02
 0.358398583840401D+02 -.153366331432107D+02 -.299337653211560D+02 -.123795325645426D+02
 0.116638170429745D+03 0.100586797783680D+02 0.802837319489887D+02 0.840107620883030D+02
0.245743767399D-04 0.000000000000D+00 0.000000000000D+00 0.373405309489D-06 0.000000000000D+00  6 -1 21 25 23 -1 21 2 0.69326394D-01 0.10825836D-01 0.30930960D+05 0.30930960D+05 0.30930960D+05 0.12135079D+01  1  2  2  2  6  2       21 0.519978175107D-01 0.100000000000D+01
0.196565819979D-05 0.129682548884D-05 -.496085864462D-07 0.373405309489D-06 0.000000000000D+00  6 -1 21 25 23 -1 21 4 0.69326394D-01 0.10825836D-01 0.30930960D+05 0.30930960D+05 0.30930960D+05 0.12135079D+01  1  2  3  2  6  2       21 0.612485516001D-02 0.100000000000D+01
0.193311392403D-05 0.000000000000D+00 0.000000000000D+00 0.373405309489D-06 0.000000000000D+00  6 -1 21 25 23 -1 21 4 0.69326394D-01 0.10825836D-01 0.30930960D+05 0.30930960D+05 0.30930960D+05 0.12135079D+01  1  2 15  2  6  2       21 0.602344944497D-02 0.100000000000D+01
-.128103504706D-05 0.000000000000D+00 0.000000000000D+00 0.373405309489D-06 0.000000000000D+00  6 -1 21 25 23 -1 21 4 0.69326394D-01 0.10825836D-01 0.30930960D+05 0.30930960D+05 0.30930960D+05 0.12135079D+01  1  2  4  2  6  2       21 -.399161671088D-02 0.100000000000D+01
  </mgrwgt>
  </event>
  <event>
  6     66 -.38788253E-03 0.36965233E+02 0.75467711E-02 0.12054592E+00
       -1 -1    0    0    0  501 0.00000000E+00 0.00000000E+00 0.32113554E+04 0.32113555E+04 0.32000000E+00 0.0000E+00 0.9000E+01
       21 -1    0    0  503  502 0.00000000E+00 0.00000000E+00 -.20118453E+02 0.20132428E+02 0.75000000E+00 0.0000E+00 0.9000E+01
       25  1    1    2    0    0 -.17260373E+02 0.70730114E+01 0.10817843E+04 0.10891419E+04 0.12500000E+03 0.0000E+00 0.9000E+01
       23  1    1    2    0    0 0.29110429E+02 -.53967799E+02 0.20708959E+04 0.20738093E+04 0.91188000E+02 0.0000E+00 0.9000E+01
       -1  1    1    2    0  502 0.12804131E+00 0.43228320E+02 0.34622574E+02 0.55385278E+02 0.32000000E+00 0.0000E+00 0.9000E+01
       21  1    1    2  503  501 -.11978097E+02 0.36664677E+01 0.39342479E+01 0.13151373E+02 0.75000000E+00 0.0000E+00 0.9000E+01
#aMCatNLO 2  0  0  2  1 0.12526684D+02 0.00000000D+00  -5  6  0 0.00000000D+00 0.00000000D+00 0.00000000D+00 0.00000000D+00 0.00000000D+00
  <mgrwgt>
 -.8451544273D-02    3    2    0
 0.222841999042793D+03 0.000000000000000D+00 0.000000000000000D+00 0.222841999042793D+03
 0.222841999042793D+03 0.000000000000000D+00 0.000000000000000D+00 -.222841999042793D+03
 0.128979218051858D+03 -.207184049412790D+02 0.813147945724122D+01 0.226994587555392D+02
 0.164011954242249D+03 0.246877588866567D+02 -.526140648867112D+02 0.123316440621731D+03
 0.152692825791478D+03 -.396935394537770D+01 0.444825854294700D+02 -.146015899377270D+03
 0.000000000000000D+00 -.000000000000000D+00 0.000000000000000D+00 -.000000000000000D+00
 0.223522519150202D+03 0.000000000000000D+00 0.000000000000000D+00 0.223522519150202D+03
 0.289138179324423D+03 0.000000000000000D+00 0.000000000000000D+00 -.289138179324423D+03
 0.128406436299564D+03 -.172603698396340D+02 0.707298298870670D+01 0.226994587555392D+02
 0.165173062495893D+03 0.291104348344850D+02 -.539678356653889D+02 0.123316440621731D+03
 0.152280506087063D+03 0.128032481846022D+00 0.432283850133509D+02 -.146015899377270D+03
 0.668006935921054D+02 -.119780974766970D+02 0.366646766333133D+01 -.656156601742210D+02
-.422652721350D-03 0.000000000000D+00 0.000000000000D+00 0.163904658931D-05 0.000000000000D+00  6 -1 21 25 23 -1 21 4 0.49254697D+00 0.30990823D-02 0.21319881D+05 0.21319881D+05 0.21319881D+05 0.12307821D+01  1  2 13  2  6  2       21 -.120663678926D-01 0.100000000000D+01
-.325671391352D-03 0.000000000000D+00 0.000000000000D+00 0.163904658931D-05 0.000000000000D+00  6 -1 21 25 23 -1 21 4 0.49254697D+00 0.33488973D-02 0.21319881D+05 0.21319881D+05 0.21319881D+05 0.12307821D+01  1  2 13  2  6  2       21 -.818125893987D-02 0.100000000000D+01
0.422271474737D-03 0.000000000000D+00 0.000000000000D+00 0.164996719899D-05 0.199370602959D-06  6 -1 21 25 23 -1 21 4 0.49405112D+00 0.30961937D-02 0.21319881D+05 0.21319881D+05 0.21319881D+05 0.12307821D+01  1  2  1  2  6  2       21 0.117960825590D-01 0.100000000000D+01
  </mgrwgt>
  </event>
  <event>
  5     66 -.38788253E-03 0.49006459E+02 0.75467711E-02 0.11674133E+00
       -1 -1    0    0    0  501 0.00000000E+00 0.00000000E+00 0.84125755E+03 0.84125761E+03 0.32000000E+00 0.0000E+00 0.9000E+01
       21 -1    0    0  501  502 0.00000000E+00 0.00000000E+00 -.34535708E+03 0.34535790E+03 0.75000000E+00 0.0000E+00 0.9000E+01
       25  1    1    2    0    0 -.81943209E+02 0.85104212E+02 0.31385594E+03 0.35789380E+03 0.12500000E+03 0.0000E+00 0.9000E+01
       23  1    1    2    0    0 0.95587823E+02 -.37616850E+02 0.49406999E+03 0.51280841E+03 0.91188000E+02 0.0000E+00 0.9000E+01
       -1  1    1    2    0  502 -.13644613E+02 -.47487362E+02 -.31202546E+03 0.31591331E+03 0.32000000E+00 0.0000E+00 0.9000E+01
#aMCatNLO 1  0  0  1  1 0.24612004D+01 0.00000000D+00  -5  6  0 0.00000000D+00 0.00000000D+00 0.00000000D+00 0.00000000D+00 0.00000000D+00
  <mgrwgt>
 -.2956823173D+00    7    4    0
 0.539012776768511D+03 0.000000000000000D+00 0.000000000000000D+00 0.539012776768511D+03
 0.539012776768511D+03 0.000000000000000D+00 0.000000000000000D+00 -.539012776768511D+03
 0.249568333132425D+03 -.819432086231571D+02 0.851042142726605D+02 0.180836766660079D+03
 0.337187650439057D+03 0.955878234655831D+02 -.376168471856540D+02 0.307941879382353D+03
 0.491269569965541D+03 -.136446148424260D+02 -.474873670870065D+02 -.488778646042432D+03
 0.000000000000000D+00 0.000000000000000D+00 -.000000000000000D+00 -.000000000000000D+00
 0.539960360132459D+03 0.000000000000000D+00 0.000000000000000D+00 0.539960360132459D+03
 0.540614700560298D+03 0.000000000000000D+00 0.000000000000000D+00 -.540614700560298D+03
 0.249825261607815D+03 -.824469436670003D+02 0.853711112807617D+02 0.180836766660079D+03
 0.336955483226948D+03 0.949078197078847D+02 -.372565566506882D+02 0.307941879382353D+03
 0.491247618236535D+03 -.146356734865265D+02 -.469622684459726D+02 -.488778646042432D+03
 0.254669762145917D+01 0.217479744564215D+01 -.115228618410086D+01 -.654340427838960D+00
 0.539012776768511D+03 0.000000000000000D+00 0.000000000000000D+00 0.539012776768511D+03
 0.539012776768511D+03 0.000000000000000D+00 0.000000000000000D+00 -.539012776768511D+03
 0.249568333132425D+03 -.819432086231571D+02 0.851042142726605D+02 0.180836766660079D+03
 0.337187650439057D+03 0.955878234655831D+02 -.376168471856540D+02 0.307941879382353D+03
 0.000000000000000D+00 0.000000000000000D+00 -.000000000000000D+00 -.000000000000000D+00
 0.491269569965541D+03 -.136446148424260D+02 -.474873670870065D+02 -.488778646042432D+03
 0.539960360132459D+03 0.000000000000000D+00 0.000000000000000D+00 0.539960360132459D+03
 0.540614700560298D+03 0.000000000000000D+00 0.000000000000000D+00 -.540614700560298D+03
 0.249825261607815D+03 -.824469436670003D+02 0.853711112807617D+02 0.180836766660079D+03
 0.336955483226948D+03 0.949078197078847D+02 -.372565566506882D+02 0.307941879382353D+03
 0.254669762145917D+01 0.217479744564215D+01 -.115228618410086D+01 -.654340427838960D+00
 0.491247618236535D+03 -.146356734865265D+02 -.469622684459726D+02 -.488778646042432D+03
0.159651322931D-02 0.000000000000D+00 0.000000000000D+00 0.802031817091D-05 0.000000000000D+00  6 -1 21 25 23 -1 21 2 0.12942431D+00 0.53131926D-01 0.32177630D+05 0.32177630D+05 0.32177630D+05 0.12117173D+01  1  2  2  1  6  1       -1 0.411953442165D-01 0.100000000000D+01
0.430049057470D-03 0.842503177574D-04 -.322290023412D-05 0.802031817091D-05 0.000000000000D+00  6 -1 21 25 23 -1 21 4 0.12942431D+00 0.53131926D-01 0.32177630D+05 0.32177630D+05 0.32177630D+05 0.12117173D+01  1  2  3  1  6  1       -1 0.162928184651D-01 0.100000000000D+01
0.168043665724D-03 0.000000000000D+00 0.000000000000D+00 0.802031817091D-05 0.000000000000D+00  6 -1 21 25 23 -1 21 4 0.12942431D+00 0.53131926D-01 0.32177630D+05 0.32177630D+05 0.32177630D+05 0.12117173D+01  1  2 15  1  6  1       -1 0.636649445523D-02 0.100000000000D+01
-.453600364632D-01 0.000000000000D+00 0.000000000000D+00 0.802031817091D-05 0.000000000000D+00  6 -1 21 25 23 -1 21 4 0.12942431D+00 0.53131926D-01 0.32177630D+05 0.32177630D+05 0.32177630D+05 0.12117173D+01  1  2  4  1  6  1       -1 -.171850821861D+01 0.100000000000D+01
0.361728254343D-01 0.000000000000D+00 0.000000000000D+00 0.802031817091D-05 0.103657340832D-04  6 -1 21 25 23 -1 21 4 0.12965183D+00 0.53289832D-01 0.32545355D+05 0.32545355D+05 0.32545355D+05 0.12112039D+01  1  2 11  1  6  1       -1 0.135289777062D+01 0.100000000000D+01
0.393902639801D-06 0.000000000000D+00 0.000000000000D+00 0.801352291500D-05 0.000000000000D+00  6 21 21 25 23 1 -1 4 0.12984370D+00 0.53131926D-01 0.32545355D+05 0.32545355D+05 0.32545355D+05 0.12112039D+01  3  4 12  4  5  1       -1 0.124836824988D-03 0.100000000000D+01
0.188172270704D-04 0.000000000000D+00 0.000000000000D+00 0.801352291500D-05 0.345330257505D-08  6 21 21 25 23 1 -1 4 0.12965183D+00 0.53289832D-01 0.32545355D+05 0.32545355D+05 0.32545355D+05 0.12112039D+01  3  4 11  4  5  1       -1 0.594863669874D-02 0.100000000000D+01
  </mgrwgt>
  </event>
  <event>
  5     66 0.38788253E-03 0.45889896E+02 0.75467711E-02 0.12049881E+00
       -1 -1    0    0    0  501 0.00000000E+00 0.00000000E+00 0.13797725E+04 0.13797725E+04 0.32000000E+00 0.0000E+00 0.9000E+01
       21 -1    0    0  501  502 0.00000000E+00 0.00000000E+00 -.21630579E+02 0.21643578E+02 0.75000000E+00 0.0000E+00 0.9000E+01
       25  1    1    2    0    0 -.44234274E+02 -.25504554E+02 0.10156655E+04 0.10246017E+04 0.12500000E+03 0.0000E+00 0.9000E+01
       23  1    1    2    0    0 0.18714646E+02 -.12634789E+02 0.29970088E+03 0.31407920E+03 0.91188000E+02 0.0000E+00 0.9000E+01
       -1  1    1    2    0  502 0.25519628E+02 0.38139343E+02 0.42775492E+02 0.62735205E+02 0.32000000E+00 0.0000E+00 0.9000E+01
#aMCatNLO 1  0  0  1  2 0.18953447D+02 0.00000000D+00  -5  6  0 0.00000000D+00 0.00000000D+00 0.00000000D+00 0.00000000D+00 0.00000000D+00
  <mgrwgt>
 0.6997418864D-02    4    2    0
 0.172784293337349D+03 0.000000000000000D+00 0.000000000000000D+00 0.172784293337349D+03
 0.172784293337349D+03 0.000000000000000D+00 0.000000000000000D+00 -.172784293337349D+03
 0.163427602551348D+03 -.442343565507543D+02 -.255046778875010D+02 0.920674447461044D+02
 0.958400638209114D+02 0.187145970501651D+02 -.126348613948025D+02 -.189786886791591D+02
 0.863009203024378D+02 0.255197595005892D+02 0.381395392823035D+02 -.730887560669453D+02
 0.000000000000000D+00 0.000000000000000D+00 0.000000000000000D+00 -.000000000000000D+00
 0.176524462774480D+03 0.000000000000000D+00 0.000000000000000D+00 0.176524462774480D+03
 0.198847411327580D+03 0.000000000000000D+00 0.000000000000000D+00 -.198847411327580D+03
 0.165287814854015D+03 -.450570146521224D+02 -.344748138178685D+02 0.920674447461044D+02
 0.965804565188777D+02 0.182330367352384D+02 -.178857201371884D+02 -.189786886791591D+02
 0.842196961295585D+02 0.250930068777115D+02 0.334862950858537D+02 -.730887560669453D+02
 0.292839065996078D+02 0.173097103917256D+01 0.188742388692032D+02 -.223229485531002D+02
0.617902088714D-05 0.000000000000D+00 0.000000000000D+00 0.673290968532D-06 0.000000000000D+00  6 -1 21 25 23 -1 21 2 0.21227369D+00 0.33287842D-02 0.18886811D+05 0.18886811D+05 0.18886811D+05 0.12365736D+01  1  2  2  1  6  1       -1 0.670298914792D-02 0.100000000000D+01
0.163543395892D-06 0.326075890644D-06 -.124736629163D-07 0.673290968532D-06 0.000000000000D+00  6 -1 21 25 23 -1 21 4 0.21227369D+00 0.33287842D-02 0.18886811D+05 0.18886811D+05 0.18886811D+05 0.12365736D+01  1  2  3  1  6  1       -1 0.271282515385D-03 0.100000000000D+01
0.463893396867D-06 0.000000000000D+00 0.000000000000D+00 0.673290968532D-06 0.000000000000D+00  6 -1 21 25 23 -1 21 4 0.21227369D+00 0.33287842D-02 0.18886811D+05 0.18886811D+05 0.18886811D+05 0.12365736D+01  1  2 15  1  6  1       -1 0.769497092109D-03 0.100000000000D+01
-.449939044706D-06 0.000000000000D+00 0.000000000000D+00 0.673290968532D-06 0.000000000000D+00  6 -1 21 25 23 -1 21 4 0.21227369D+00 0.33287842D-02 0.18886811D+05 0.18886811D+05 0.18886811D+05 0.12365736D+01  1  2  4  1  6  1       -1 -.746349891734D-03 0.100000000000D+01
  </mgrwgt>
  </event>
  <event>
  6     66 0.38788253E-03 0.25958373E+02 0.75467711E-02 0.12180389E+00
       21 -1    0    0  503  501 0.00000000E+00 0.00000000E+00 0.60310692E+03 0.60310739E+03 0.75000000E+00 0.0000E+00 0.9000E+01
       21 -1    0    0  501  502 0.00000000E+00 0.00000000E+00 -.30878370E+03 0.30878461E+03 0.75000000E+00 0.0000E+00 0.9000E+01
       25  1    1    2    0    0 -.46056729E+02 -.12519069E+02 -.21818439E+03 0.25594409E+03 0.12500000E+03 0.0000E+00 0.9000E+01
       23  1    1    2    0    0 0.13745229E+02 0.18989204E+02 -.38750727E+02 0.10181548E+03 0.91188000E+02 0.0000E+00 0.9000E+01
        1  1    1    2  503    0 0.31735782E+02 0.63167448E+01 0.50772647E+03 0.50875665E+03 0.32000000E+00 0.0000E+00 0.9000E+01
       -1  1    1    2    0  502 0.57571775E+00 -.12786880E+02 0.43531864E+02 0.45375779E+02 0.32000000E+00 0.0000E+00 0.9000E+01
#aMCatNLO 2  0  0  1  5 0.32717913D+03 0.00000000D+00  -5  6  0 0.00000000D+00 0.00000000D+00 0.00000000D+00 0.00000000D+00 0.00000000D+00
  <mgrwgt>
 0.2467094835D-01    1    2    0
 0.170242545569118D+03 0.000000000000000D+00 0.000000000000000D+00 0.170242545569118D+03
 0.170242545569118D+03 0.000000000000000D+00 0.000000000000000D+00 -.170242545569118D+03
 0.161763871476644D+03 -.308373244234303D+02 -.948972402539139D+01 -.974759184385462D+02
 0.978957435260557D+02 0.227532944935929D+02 0.207822137722184D+02 0.178525190640686D+02
 0.000000000000000D+00 0.000000000000000D+00 0.000000000000000D+00 0.000000000000000D+00
 0.808254761355369D+02 0.808402992983735D+01 -.112924897468270D+02 0.796233993744775D+02
 0.108718755494001D+04 0.000000000000000D+00 0.000000000000000D+00 0.108718755494001D+04
 0.171295332905317D+03 0.000000000000000D+00 0.000000000000000D+00 -.171295332905317D+03
 0.165543068159091D+03 -.460567761471718D+02 -.125190299551007D+02 -.974759184385462D+02
 0.958305042186905D+02 0.137452139486033D+02 0.189892298786089D+02 0.178525190640686D+02
 0.916463650946062D+03 0.317357819646954D+02 0.631674479703134D+01 0.915892222034691D+03
 0.806456645214819D+02 0.575780233873155D+00 -.127869447205395D+02 0.796233993744775D+02
0.241357195660D-04 0.000000000000D+00 0.000000000000D+00 0.117961115120D-06 0.728899182827D-09  6 21 21 25 23 1 -1 4 0.92785771D-01 0.47505283D-01 0.18647687D+05 0.18647687D+05 0.18647687D+05 0.12371875D+01  1  2  1  4  5  1       -1 0.246709483484D-01 0.100000000000D+01
  </mgrwgt>
  </event>
  <event>
  5     66 0.38788253E-03 0.12715904E+03 0.75467711E-02 0.10821495E+00
       -1 -1    0    0    0  501 0.00000000E+00 0.00000000E+00 0.20475426E+03 0.20475451E+03 0.32000000E+00 0.0000E+00 0.9000E+01
       21 -1    0    0  501  502 0.00000000E+00 0.00000000E+00 -.49544470E+03 0.49544526E+03 0.75000000E+00 0.0000E+00 0.9000E+01
       25  1    1    2    0    0 -.73189655E+02 -.13091735E+03 -.24523772E+03 0.31346869E+03 0.12500000E+03 0.0000E+00 0.9000E+01
       23  1    1    2    0    0 -.75807055E+02 -.22517461E+02 -.11002290E+03 0.16332188E+03 0.91188000E+02 0.0000E+00 0.9000E+01
       -1  1    1    2    0  502 0.14899671E+03 0.15343481E+03 0.64570189E+02 0.22340921E+03 0.32000000E+00 0.0000E+00 0.9000E+01
#aMCatNLO 1  0  0  1  2 0.75129253D+02 0.00000000D+00  -5  6  0 0.00000000D+00 0.00000000D+00 0.00000000D+00 0.00000000D+00 0.00000000D+00
  <mgrwgt>
 0.1984008568D-02    9    4    0
 0.318503843630727D+03 0.000000000000000D+00 0.000000000000000D+00 0.318503843630727D+03
 0.318503843630727D+03 0.000000000000000D+00 0.000000000000000D+00 -.318503843630727D+03
 0.232654147855586D+03 -.731896913410391D+02 -.130917390911106D+03 -.126518213522167D+03
 0.129316104201190D+03 -.758070750952290D+02 -.225174821616450D+02 -.464074759535498D+02
 0.275037435204678D+03 0.148996766436268D+03 0.153434873072751D+03 0.172925689475717D+03
 0.000000000000000D+00 -.000000000000000D+00 -.000000000000000D+00 0.000000000000000D+00
 0.396967890146371D+03 0.000000000000000D+00 0.000000000000000D+00 0.396967890146371D+03
 0.339216065007274D+03 0.000000000000000D+00 0.000000000000000D+00 -.339216065007274D+03
 0.221011437702335D+03 -.480312638273780D+02 -.122095024212935D+03 -.126518213522167D+03
 0.120896537007066D+03 -.619313111024677D+02 -.176516344016869D+02 -.464074759535498D+02
 0.299514817472921D+03 0.180859071318891D+03 0.164608104681554D+03 0.172925689475717D+03
 0.947611629713230D+02 -.708964963890452D+02 -.248614460669319D+02 0.577518251390964D+02
 0.318503843630727D+03 0.000000000000000D+00 0.000000000000000D+00 0.318503843630727D+03
 0.318503843630727D+03 0.000000000000000D+00 0.000000000000000D+00 -.318503843630727D+03
 0.232654147855586D+03 -.731896913410391D+02 -.130917390911106D+03 -.126518213522167D+03
 0.129316104201190D+03 -.758070750952290D+02 -.225174821616450D+02 -.464074759535498D+02
 0.000000000000000D+00 -.000000000000000D+00 -.000000000000000D+00 0.000000000000000D+00
 0.275037435204678D+03 0.148996766436268D+03 0.153434873072751D+03 0.172925689475717D+03
 0.396967890146371D+03 0.000000000000000D+00 0.000000000000000D+00 0.396967890146371D+03
 0.339216065007274D+03 0.000000000000000D+00 0.000000000000000D+00 -.339216065007274D+03
 0.221011437702335D+03 -.480312638273780D+02 -.122095024212935D+03 -.126518213522167D+03
 0.120896537007066D+03 -.619313111024677D+02 -.176516344016869D+02 -.464074759535498D+02
 0.947611629713230D+02 -.708964963890452D+02 -.248614460669319D+02 0.577518251390964D+02
 0.299514817472921D+03 0.180859071318891D+03 0.164608104681554D+03 0.172925689475717D+03
0.126287479423D-04 0.000000000000D+00 0.000000000000D+00 0.110015150904D-06 0.000000000000D+00  6 -1 21 25 23 -1 21 2 0.31500718D-01 0.76222324D-01 0.70178062D+05 0.70178062D+05 0.70178062D+05 0.11779701D+01  1  2  2  1  6  1       -1 0.225339932442D-02 0.100000000000D+01
-.167439667996D-05 0.666437338247D-06 -.254938035919D-07 0.110015150904D-06 0.000000000000D+00  6 -1 21 25 23 -1 21 4 0.31500718D-01 0.76222324D-01 0.70178062D+05 0.70178062D+05 0.70178062D+05 0.11779701D+01  1  2  3  1  6  1       -1 -.414576549649D-03 0.100000000000D+01
0.152668963042D-05 0.000000000000D+00 0.000000000000D+00 0.110015150904D-06 0.000000000000D+00  6 -1 21 25 23 -1 21 4 0.31500718D-01 0.76222324D-01 0.70178062D+05 0.70178062D+05 0.70178062D+05 0.11779701D+01  1  2 15  1  6  1       -1 0.378004643070D-03 0.100000000000D+01
0.446857090837D-04 0.000000000000D+00 0.000000000000D+00 0.107815479551D-06 0.000000000000D+00  6 -1 21 25 23 -1 21 4 0.40099703D-01 0.76222324D-01 0.93798925D+05 0.93798925D+05 0.93798925D+05 0.11661343D+01  1  2 12  1  6  1       -1 0.687905842169D-02 0.100000000000D+01
-.547680497830D-04 0.000000000000D+00 0.000000000000D+00 0.110015150904D-06 0.000000000000D+00  6 -1 21 25 23 -1 21 4 0.31500718D-01 0.76222324D-01 0.70178062D+05 0.70178062D+05 0.70178062D+05 0.11779701D+01  1  2  4  1  6  1       -1 -.135604360555D-01 0.100000000000D+01
-.730923048708D-04 0.000000000000D+00 -.195158019930D-04 0.110015150904D-06 0.000000000000D+00  6 -1 21 25 23 -1 21 4 0.41432362D-01 0.76222324D-01 0.70178062D+05 0.70178062D+05 0.70178062D+05 0.11779701D+01  1  2  5  1  6  1       -1 -.111944990526D-01 0.100000000000D+01
0.762692066761D-04 0.000000000000D+00 0.188051942470D-04 0.110015150904D-06 0.000000000000D+00  6 -1 21 25 23 -1 21 4 0.31500718D-01 0.76222324D-01 0.70178062D+05 0.70178062D+05 0.70178062D+05 0.11779701D+01  1  2  6  1  6  1       -1 0.188840702605D-01 0.100000000000D+01
0.147346439122D-05 0.000000000000D+00 0.000000000000D+00 0.107815479551D-06 0.000000000000D+00  6 21 21 25 23 1 -1 4 0.40099703D-01 0.76222324D-01 0.93798925D+05 0.93798925D+05 0.93798925D+05 0.11661343D+01  3  4 12  4  5  1       -1 0.234637192847D-02 0.100000000000D+01
-.226648405025D-05 0.000000000000D+00 -.706477578041D-06 0.110015150904D-06 0.000000000000D+00  6 21 21 25 23 1 -1 4 0.41432362D-01 0.76222324D-01 0.70178062D+05 0.70178062D+05 0.70178062D+05 0.11779701D+01  3  4  5  4  5  1       -1 -.358738435198D-02 0.100000000000D+01
  </mgrwgt>
  </event>
  <event>
  6     66 -.38788253E-03 0.41901132E+02 0.75467711E-02 0.11967132E+00
       -1 -1    0    0    0  501 0.00000000E+00 0.00000000E+00 0.62601612E+03 0.62601620E+03 0.32000000E+00 0.0000E+00 0.9000E+01
       21 -1    0    0  503  502 0.00000000E+00 0.00000000E+00 -.43405437E+02 0.43411916E+02 0.75000000E+00 0.0000E+00 0.9000E+01
       25  1    1    2    0    0 -.57559303E+02 -.21113582E+02 0.22900567E+03 0.26800645E+03 0.12500000E+03 0.0000E+00 0.9000E+01
       23  1    1    2    0    0 -.71453272E+01 0.34285227E+02 0.25974196E+03 0.27750256E+03 0.91188000E+02 0.0000E+00 0.9000E+01
       -1  1    1    2    0  502 0.47381579E+02 -.18952278E+02 0.92434126E+02 0.10558586E+03 0.32000000E+00 0.0000E+00 0.9000E+01
       21  1    1    2  503  501 0.17323052E+02 0.57806331E+01 0.14289178E+01 0.18333252E+02 0.75000000E+00 0.0000E+00 0.9000E+01
#aMCatNLO 2  0  0  2  5 0.18262088D+02 0.00000000D+00  -5  6  0 0.00000000D+00 0.00000000D+00 0.00000000D+00 0.00000000D+00 0.00000000D+00
  <mgrwgt>
 -.4944234582D-02    3    2    0
 0.146474208691109D+03 0.000000000000000D+00 0.000000000000000D+00 0.146474208691109D+03
 0.146474208691109D+03 0.000000000000000D+00 0.000000000000000D+00 -.146474208691109D+03
 0.137514255204821D+03 -.493311671359937D+02 -.183675961959355D+02 -.226768106999295D+02
 0.101716288388745D+03 -.114994735052746D+01 0.362860755343490D+02 0.267011296200894D+02
 0.537178737886522D+02 0.504811144865212D+02 -.179184793384134D+02 -.402431892015994D+01
 0.000000000000000D+00 0.000000000000000D+00 0.000000000000000D+00 -.000000000000000D+00
 0.149108460793116D+03 0.000000000000000D+00 0.000000000000000D+00 0.149108460793116D+03
 0.182238906783363D+03 0.000000000000000D+00 0.000000000000000D+00 -.182238906783363D+03
 0.141060758667017D+03 -.575597319338588D+02 -.211134353409429D+02 -.226768106999295D+02
 0.101265720506915D+03 -.714564161536624D+01 0.342853363509908D+02 0.267011296200894D+02
 0.511906056572917D+02 0.473823217808567D+02 -.189525340639331D+02 -.402431892015994D+01
 0.378302827452554D+02 0.173230517683684D+02 0.578063305388522D+01 -.331304459902478D+02
-.264077019361D-05 0.000000000000D+00 0.000000000000D+00 0.273556819646D-06 0.000000000000D+00  6 -1 21 25 23 -1 21 4 0.94606860D-01 0.67183070D-02 0.23439986D+05 0.23439986D+05 0.23439986D+05 0.12263092D+01  1  2 13  2  6  2       21 -.103703393954D-01 0.100000000000D+01
-.222779862713D-05 0.000000000000D+00 0.000000000000D+00 0.273556819646D-06 0.000000000000D+00  6 -1 21 25 23 -1 21 4 0.94606860D-01 0.69672640D-02 0.23439986D+05 0.23439986D+05 0.23439986D+05 0.12263092D+01  1  2 13  2  6  2       21 -.821915435786D-02 0.100000000000D+01
0.357470837440D-05 0.000000000000D+00 0.000000000000D+00 0.276244152224D-06 0.184175694196D-07  6 -1 21 25 23 -1 21 4 0.96308309D-01 0.66781000D-02 0.23439986D+05 0.23439986D+05 0.23439986D+05 0.12263092D+01  1  2  1  2  6  2       21 0.136452591715D-01 0.100000000000D+01
  </mgrwgt>
  </event>
  <event>
  5     66 -.38788253E-03 0.20053110E+02 0.75467711E-02 0.12364779E+00
       -3 -1    0    0    0  501 0.00000000E+00 0.00000000E+00 0.21575843E+02 0.21581636E+02 0.50000000E+00 0.0000E+00 0.9000E+01
       21 -1    0    0  501  502 0.00000000E+00 0.00000000E+00 -.10051199E+04 0.10051202E+04 0.75000000E+00 0.0000E+00 0.9000E+01
       25  1    1    2    0    0 -.13847573E+02 -.35124421E+02 -.66297849E+03 0.67571515E+03 0.12500000E+03 0.0000E+00 0.9000E+01
       23  1    1    2    0    0 -.61800867E+01 0.34167986E+02 -.14807095E+03 0.17732992E+03 0.91188000E+02 0.0000E+00 0.9000E+01
       -3  1    1    2    0  502 0.20027660E+02 0.95643501E+00 -.17249465E+03 0.17365678E+03 0.50000000E+00 0.0000E+00 0.9000E+01
#aMCatNLO 1  0  0  1  2 0.19105055D+01 0.00000000D+00  -5  6  0 0.00000000D+00 0.00000000D+00 0.00000000D+00 0.00000000D+00 0.00000000D+00
  <mgrwgt>
 -.1449199343D+00    9    4    0
 0.147273307704576D+03 0.000000000000000D+00 0.000000000000000D+00 0.147273307704576D+03
 0.147273307704576D+03 0.000000000000000D+00 0.000000000000000D+00 -.147273307704576D+03
 0.141537152188273D+03 -.138489726592298D+02 -.351244875047812D+02 -.546099055426458D+02
 0.123684680694655D+03 -.618130935406506D+01 0.341679272887334D+02 0.760065329692120D+02
 0.293247825262240D+02 0.200302820132948D+02 0.956560216047817D+00 -.213966274265662D+02
 0.000000000000000D+00 0.000000000000000D+00 -.000000000000000D+00 0.000000000000000D+00
 0.149307242426957D+03 0.000000000000000D+00 0.000000000000000D+00 0.149307242426957D+03
 0.147725731709703D+03 0.000000000000000D+00 0.000000000000000D+00 -.147725731709703D+03
 0.141482878716205D+03 -.146004915316345D+02 -.345975264069910D+02 -.546099055426458D+02
 0.123847347305865D+03 -.683859495315325D+01 0.346288125087531D+02 0.760065329692120D+02
 0.292225853381938D+02 0.198748179221522D+02 0.106557082262561D+01 -.213966274265662D+02
 0.248016277639528D+01 0.156426856263560D+01 -.109685692438773D+01 0.158151071725403D+01
 0.147273307704576D+03 0.000000000000000D+00 0.000000000000000D+00 0.147273307704576D+03
 0.147273307704576D+03 0.000000000000000D+00 0.000000000000000D+00 -.147273307704576D+03
 0.141537152188273D+03 -.138489726592298D+02 -.351244875047812D+02 -.546099055426458D+02
 0.123684680694655D+03 -.618130935406506D+01 0.341679272887334D+02 0.760065329692120D+02
 0.000000000000000D+00 0.000000000000000D+00 -.000000000000000D+00 0.000000000000000D+00
 0.293247825262240D+02 0.200302820132948D+02 0.956560216047817D+00 -.213966274265662D+02
 0.149307242426957D+03 0.000000000000000D+00 0.000000000000000D+00 0.149307242426957D+03
 0.147725731709703D+03 0.000000000000000D+00 0.000000000000000D+00 -.147725731709703D+03
 0.141482878716205D+03 -.146004915316345D+02 -.345975264069910D+02 -.546099055426458D+02
 0.123847347305865D+03 -.683859495315325D+01 0.346288125087531D+02 0.760065329692120D+02
 0.248016277639528D+01 0.156426856263560D+01 -.109685692438773D+01 0.158151071725403D+01
 0.292225853381938D+02 0.198748179221522D+02 0.106557082262561D+01 -.213966274265662D+02
0.321965129615D-05 0.000000000000D+00 0.000000000000D+00 0.940945268922D-06 0.000000000000D+00  6 -3 21 25 23 -3 21 2 0.33198276D-02 0.15463430D+00 0.15401542D+05 0.15401542D+05 0.15401542D+05 0.12465167D+01  1  2  2  1  6  1       -3 0.294997285640D-02 0.100000000000D+01
0.243501917247D-06 0.169905666792D-06 -.649954834427D-08 0.940945268922D-06 0.000000000000D+00  6 -3 21 25 23 -3 21 4 0.33198276D-02 0.15463430D+00 0.15401542D+05 0.15401542D+05 0.15401542D+05 0.12465167D+01  1  2  3  1  6  1       -3 0.346663235368D-03 0.100000000000D+01
0.321522953237D-06 0.000000000000D+00 0.000000000000D+00 0.940945268922D-06 0.000000000000D+00  6 -3 21 25 23 -3 21 4 0.33198276D-02 0.15463430D+00 0.15401542D+05 0.15401542D+05 0.15401542D+05 0.12465167D+01  1  2 15  1  6  1       -3 0.457738437849D-03 0.100000000000D+01
0.754682836343D-08 0.000000000000D+00 0.000000000000D+00 0.939805585359D-06 0.000000000000D+00  6 -3 21 25 23 -3 21 4 0.33707321D-02 0.15463430D+00 0.15639246D+05 0.15639246D+05 0.15639246D+05 0.12457616D+01  1  2 12  1  6  1       -3 0.104692619323D-04 0.100000000000D+01
-.697080342855D-04 0.000000000000D+00 0.000000000000D+00 0.940945268922D-06 0.000000000000D+00  6 -3 21 25 23 -3 21 4 0.33198276D-02 0.15463430D+00 0.15401542D+05 0.15401542D+05 0.15401542D+05 0.12465167D+01  1  2  4  1  6  1       -3 -.992403385144D-01 0.100000000000D+01
-.699989393525D-03 0.000000000000D+00 -.709163593470D-04 0.940945268922D-06 0.000000000000D+00  6 -3 21 25 23 -3 21 4 0.33761394D-02 0.15463430D+00 0.15401542D+05 0.15401542D+05 0.15401542D+05 0.12465167D+01  1  2  5  1  6  1       -3 -.970908925393D+00 0.100000000000D+01
0.701093062237D-03 0.000000000000D+00 0.709063289416D-04 0.940945268922D-06 0.000000000000D+00  6 -3 21 25 23 -3 21 4 0.33198276D-02 0.15463430D+00 0.15401542D+05 0.15401542D+05 0.15401542D+05 0.12465167D+01  1  2  6  1  6  1       -3 0.998116121617D+00 0.100000000000D+01
0.549056735685D-09 0.000000000000D+00 0.000000000000D+00 0.939805585359D-06 0.000000000000D+00  6 21 21 25 23 3 -3 4 0.33707321D-02 0.15463430D+00 0.15639246D+05 0.15639246D+05 0.15639246D+05 0.12457616D+01  3  4 12  4  5  1       -3 0.196152157122D-04 0.100000000000D+01
-.214556749901D-05 0.000000000000D+00 -.218115075741D-06 0.940945268922D-06 0.000000000000D+00  6 21 21 25 23 3 -3 4 0.33761394D-02 0.15463430D+00 0.15401542D+05 0.15401542D+05 0.15401542D+05 0.12465167D+01  3  4  5  4  5  1       -3 -.766712509755D-01 0.100000000000D+01
  </mgrwgt>
  </event>
</LesHouchesEvents>
