<event>
 5    0  0.2159162E+000  0.3128380E+03  0.7546771E-02  0.1078993E+00
         21   -1    0    0  502  501  0.00000000000E+00  0.00000000000E+00  0.18224819712E+04  0.18224819712E+04  0.00000000000E+00 0. -1.
         21   -1    0    0  503  502 -0.00000000000E+00 -0.00000000000E+00 -0.57253110936E+02  0.57253110936E+02  0.00000000000E+00 0. -1.
         25    1    1    2    0    0 -0.19086423932E+03  0.21404082037E+03  0.11840714249E+04  0.12247010941E+04  0.12500000000E+03 0.  0.
         21    1    1    2  503  504  0.41606781716E+02 -0.74864325765E+02  0.26708221876E+03  0.28047941659E+03  0.00000000000E+00 0. -1.
         21    1    1    2  504  501  0.14925745761E+03 -0.13917649461E+03  0.31407521665E+03  0.37455457148E+03  0.00000000000E+00 0. -1.
<mgrwt>
<rscale>  4 0.31283803E+03</rscale>
<asrwt>0</asrwt>
<pdfrwt beam="1">  1       21 0.28038180E+00 0.31283803E+03</pdfrwt>
<pdfrwt beam="2">  1       21 0.88081723E-02 0.31283803E+03</pdfrwt>
<totfact> 0.40399907E+03</totfact>
</mgrwt>
</event>
<event>
 5    0  0.2159162E+000  0.2700286E+03  0.7546771E-02  0.1101263E+00
         21   -1    0    0  502  501  0.00000000000E+00  0.00000000000E+00  0.83420248998E+03  0.83420248998E+03  0.00000000000E+00 0.  1.
         21   -1    0    0  503  502 -0.00000000000E+00 -0.00000000000E+00 -0.89754062264E+02  0.89754062264E+02  0.00000000000E+00 0.  1.
         25    1    1    2    0    0  0.95706299511E+02  0.21938716784E+03  0.53336506196E+03  0.59782415015E+03  0.12500000000E+03 0.  0.
         21    1    1    2  503  504 -0.20150858766E+02 -0.85196117546E+02  0.11531837850E+03  0.14478523396E+03  0.00000000000E+00 0.  1.
         21    1    1    2  504  501 -0.75555440745E+02 -0.13419105029E+03  0.95764987252E+02  0.18134716813E+03  0.00000000000E+00 0.  1.
<mgrwt>
<rscale>  4 0.27002856E+03</rscale>
<asrwt>0</asrwt>
<pdfrwt beam="1">  1       21 0.12833884E+00 0.27002856E+03</pdfrwt>
<pdfrwt beam="2">  1       21 0.13808318E-01 0.27002856E+03</pdfrwt>
<totfact> 0.19482496E+04</totfact>
</mgrwt>
</event>
<event>
 5    0  0.2159162E+000  0.3702649E+03  0.7546771E-02  0.1054592E+00
         21   -1    0    0  502  501  0.00000000000E+00  0.00000000000E+00  0.41411213285E+03  0.41411213285E+03  0.00000000000E+00 0.  1.
         21   -1    0    0  503  502 -0.00000000000E+00 -0.00000000000E+00 -0.44929919306E+03  0.44929919306E+03  0.00000000000E+00 0. -1.
         25    1    1    2    0    0  0.34820975720E+03 -0.14867059754E+02  0.21346236528E+03  0.42739003950E+03  0.12500000000E+03 0.  0.
         21    1    1    2  503  504 -0.91739600362E+02  0.37574072816E+02 -0.51351723405E+02  0.11164660639E+03  0.00000000000E+00 0. -1.
         21    1    1    2  504  501 -0.25647015683E+03 -0.22707013062E+02 -0.19729770209E+03  0.32437468002E+03  0.00000000000E+00 0. -1.
<mgrwt>
<rscale>  4 0.37026486E+03</rscale>
<asrwt>0</asrwt>
<pdfrwt beam="1">  1       21 0.63709559E-01 0.37026486E+03</pdfrwt>
<pdfrwt beam="2">  1       21 0.69122953E-01 0.37026486E+03</pdfrwt>
<totfact> 0.39117871E+03</totfact>
</mgrwt>
</event>
<event>
 5    0  0.3229688E+000  0.2901789E+03  0.7546771E-02  0.1090256E+00
         21   -1    0    0  502  501  0.00000000000E+00  0.00000000000E+00  0.67066720468E+03  0.67066720468E+03  0.00000000000E+00 0.  1.
         21   -1    0    0  503  502 -0.00000000000E+00 -0.00000000000E+00 -0.15871241495E+03  0.15871241495E+03  0.00000000000E+00 0.  1.
         25    1    1    2    0    0  0.29062423876E+03  0.61512195611E+00  0.17480167451E+03  0.36144633342E+03  0.12500000000E+03 0.  0.
         21    1    1    2  503  504 -0.23101436822E+03  0.54159670314E+02  0.20817724480E+03  0.31565594159E+03  0.00000000000E+00 0.  1.
         21    1    1    2  504  501 -0.59609870544E+02 -0.54774792270E+02  0.12897587043E+03  0.15227734463E+03  0.00000000000E+00 0. -1.
<mgrwt>
<rscale>  4 0.29017888E+03</rscale>
<asrwt>0</asrwt>
<pdfrwt beam="1">  1       21 0.10317957E+00 0.29017888E+03</pdfrwt>
<pdfrwt beam="2">  1       21 0.24417295E-01 0.29017888E+03</pdfrwt>
<totfact> 0.11411253E+04</totfact>
</mgrwt>
</event>
<event>
 5    0  0.2159162E+000  0.2374327E+03  0.7546771E-02  0.1121515E+00
         21   -1    0    0  502  501  0.00000000000E+00  0.00000000000E+00  0.51498524719E+02  0.51498524719E+02  0.00000000000E+00 0. -1.
         21   -1    0    0  503  502 -0.00000000000E+00 -0.00000000000E+00 -0.10601744579E+04  0.10601744579E+04  0.00000000000E+00 0.  1.
         25    1    1    2    0    0  0.16624914306E+03  0.11450119359E+03 -0.39926217309E+03  0.46452619276E+03  0.12500000000E+03 0.  0.
         21    1    1    2  503  504 -0.11994957379E+03 -0.81868332181E+02 -0.30881965963E+03  0.34126222504E+03  0.00000000000E+00 0.  1.
         21    1    1    2  504  501 -0.46299569269E+02 -0.32632861408E+02 -0.30059410045E+03  0.30588456480E+03  0.00000000000E+00 0.  1.
<mgrwt>
<rscale>  4 0.23743273E+03</rscale>
<asrwt>0</asrwt>
<pdfrwt beam="1">  1       21 0.79228507E-02 0.23743273E+03</pdfrwt>
<pdfrwt beam="2">  1       21 0.16310375E+00 0.23743273E+03</pdfrwt>
<totfact> 0.28375264E+04</totfact>
</mgrwt>
</event>
<event>
 5    0  0.2159162E+000  0.3286959E+03  0.7546771E-02  0.1071715E+00
         21   -1    0    0  502  501  0.00000000000E+00  0.00000000000E+00  0.19896789853E+03  0.19896789853E+03  0.00000000000E+00 0.  1.
         21   -1    0    0  503  502 -0.00000000000E+00 -0.00000000000E+00 -0.52012399103E+03  0.52012399103E+03  0.00000000000E+00 0.  1.
         25    1    1    2    0    0  0.21176739661E+03 -0.21810676904E+03 -0.16588361264E+03  0.36818251712E+03  0.12500000000E+03 0.  0.
         21    1    1    2  503  504 -0.80790195575E+02  0.13722806450E+03 -0.96085990714E+02  0.18598686781E+03  0.00000000000E+00 0.  1.
         21    1    1    2  504  501 -0.13097720103E+03  0.80878704536E+02 -0.59186489137E+02  0.16492250463E+03  0.00000000000E+00 0.  1.
<mgrwt>
<rscale>  4 0.32869590E+03</rscale>
<asrwt>0</asrwt>
<pdfrwt beam="1">  1       21 0.30610446E-01 0.32869590E+03</pdfrwt>
<pdfrwt beam="2">  1       21 0.80019076E-01 0.32869590E+03</pdfrwt>
<totfact> 0.13134666E+04</totfact>
</mgrwt>
</event>
<event>
 5    0  0.2159162E+000  0.2542168E+03  0.7546771E-02  0.1110669E+00
         21   -1    0    0  502  501  0.00000000000E+00  0.00000000000E+00  0.23745003812E+03  0.23745003812E+03  0.00000000000E+00 0.  1.
         21   -1    0    0  503  502 -0.00000000000E+00 -0.00000000000E+00 -0.22322035670E+04  0.22322035670E+04  0.00000000000E+00 0. -1.
         25    1    1    2    0    0 -0.16190094998E+03  0.15288878528E+03  0.15981591651E+03  0.30125242810E+03  0.12500000000E+03 0.  0.
         21    1    1    2  503  504  0.14434610948E+03 -0.13077447293E+03 -0.14208001326E+04  0.14340888323E+04  0.00000000000E+00 0. -1.
         21    1    1    2  504  501  0.17554840497E+02 -0.22114312349E+02 -0.73376931278E+03  0.73431234472E+03  0.00000000000E+00 0.  1.
<mgrwt>
<rscale>  4 0.25421677E+03</rscale>
<asrwt>0</asrwt>
<pdfrwt beam="1">  1       21 0.36530776E-01 0.25421677E+03</pdfrwt>
<pdfrwt beam="2">  1       21 0.34341592E+00 0.25421677E+03</pdfrwt>
<totfact> 0.12618374E+02</totfact>
</mgrwt>
</event>
<event>
 5    0  0.2159162E+000  0.2963156E+03  0.7546771E-02  0.1087097E+00
         21   -1    0    0  502  501  0.00000000000E+00  0.00000000000E+00  0.97312550159E+03  0.97312550159E+03  0.00000000000E+00 0. -1.
         21   -1    0    0  503  502 -0.00000000000E+00 -0.00000000000E+00 -0.26827655881E+03  0.26827655881E+03  0.00000000000E+00 0. -1.
         25    1    1    2    0    0 -0.26814128649E+03  0.15383016326E+02  0.84317567552E+03  0.89370386957E+03  0.12500000000E+03 0.  0.
         21    1    1    2  503  504 -0.26986229327E+01 -0.38345664810E+02  0.76109008351E+01  0.39186711867E+02  0.00000000000E+00 0. -1.
         21    1    1    2  504  501  0.27083990942E+03  0.22962648483E+02 -0.14593763357E+03  0.30851147896E+03  0.00000000000E+00 0. -1.
<mgrwt>
<rscale>  4 0.29631562E+03</rscale>
<asrwt>0</asrwt>
<pdfrwt beam="1">  1       21 0.14971161E+00 0.29631562E+03</pdfrwt>
<pdfrwt beam="2">  1       21 0.41273317E-01 0.29631562E+03</pdfrwt>
<totfact> 0.15630199E+03</totfact>
</mgrwt>
</event>
<event>
 5    0  0.2159162E+000  0.2554891E+03  0.7546771E-02  0.1109884E+00
         21   -1    0    0  502  501  0.00000000000E+00  0.00000000000E+00  0.16075956909E+03  0.16075956909E+03  0.00000000000E+00 0. -1.
         21   -1    0    0  503  502 -0.00000000000E+00 -0.00000000000E+00 -0.38795162081E+03  0.38795162081E+03  0.00000000000E+00 0. -1.
         25    1    1    2    0    0 -0.16982417211E+03  0.14425469551E+03 -0.54365478137E+02  0.26120924912E+03  0.12500000000E+03 0.  0.
         21    1    1    2  503  504  0.44873612020E+02 -0.34796507182E+02 -0.77184477380E+02  0.95822134793E+02  0.00000000000E+00 0.  1.
         21    1    1    2  504  501  0.12495056009E+03 -0.10945818833E+03 -0.95642096198E+02  0.19167980599E+03  0.00000000000E+00 0. -1.
<mgrwt>
<rscale>  4 0.25548907E+03</rscale>
<asrwt>0</asrwt>
<pdfrwt beam="1">  1       21 0.24732241E-01 0.25548907E+03</pdfrwt>
<pdfrwt beam="2">  1       21 0.59684865E-01 0.25548907E+03</pdfrwt>
<totfact> 0.39345454E+04</totfact>
</mgrwt>
</event>
