<event>
 5    0  0.2349231E+000  0.4878550E+03  0.7546771E-02  0.1016998E+00
         21   -1    0    0  502  501  0.00000000000E+00  0.00000000000E+00  0.18289845528E+02  0.18289845528E+02  0.00000000000E+00 0. -1.
         21   -1    0    0  504  502 -0.00000000000E+00 -0.00000000000E+00 -0.36613074983E+04  0.36613074983E+04  0.00000000000E+00 0. -1.
         25    1    1    2    0    0  0.21195214644E+03  0.10001739427E+03 -0.15550579188E+04  0.15775795772E+04  0.12500000000E+03 0.  0.
         21    1    1    2  503  501 -0.16788478680E+02 -0.22441669860E+02 -0.14060891774E+03  0.14337485592E+03  0.00000000000E+00 0.  1.
         21    1    1    2  504  503 -0.19516366776E+03 -0.77575724415E+02 -0.19473508162E+04  0.19586429107E+04  0.00000000000E+00 0. -1.
<mgrwt>
<rscale>  4 0.48785504E+03</rscale>
<asrwt>0</asrwt>
<pdfrwt beam="1">  1       21 0.28138221E-02 0.48785504E+03</pdfrwt>
<pdfrwt beam="2">  1       21 0.56327814E+00 0.48785504E+03</pdfrwt>
<totfact> 0.34797259E+02</totfact>
</mgrwt>
</event>
<event>
 5    0  0.2349231E+000  0.3834207E+03  0.7546771E-02  0.1049677E+00
         21   -1    0    0  502  501  0.00000000000E+00  0.00000000000E+00  0.40600237382E+03  0.40600237382E+03  0.00000000000E+00 0. -1.
         21   -1    0    0  504  502 -0.00000000000E+00 -0.00000000000E+00 -0.43993216308E+03  0.43993216308E+03  0.00000000000E+00 0.  1.
         25    1    1    2    0    0  0.21160353058E+03  0.68924345286E+02 -0.19023255518E+03  0.31833951149E+03  0.12500000000E+03 0.  0.
         21    1    1    2  503  501 -0.91407303185E+02 -0.46323506736E+02  0.31269556984E+03  0.32905878160E+03  0.00000000000E+00 0. -1.
         21    1    1    2  504  503 -0.12019622740E+03 -0.22600838550E+02 -0.15639280393E+03  0.19853624381E+03  0.00000000000E+00 0. -1.
<mgrwt>
<rscale>  4 0.38342067E+03</rscale>
<asrwt>0</asrwt>
<pdfrwt beam="1">  1       21 0.62461904E-01 0.38342067E+03</pdfrwt>
<pdfrwt beam="2">  1       21 0.67681871E-01 0.38342067E+03</pdfrwt>
<totfact> 0.42596842E+03</totfact>
</mgrwt>
</event>
<event>
 5    0  0.2349231E+000  0.1400183E+04  0.7546771E-02  0.8953686E-01
         21   -1    0    0  503  501  0.00000000000E+00  0.00000000000E+00  0.10090331944E+04  0.10090331944E+04  0.00000000000E+00 0. -1.
         21   -1    0    0  504  502 -0.00000000000E+00 -0.00000000000E+00 -0.71511543004E+03  0.71511543004E+03  0.00000000000E+00 0. -1.
         25    1    1    2    0    0  0.50578690014E+03  0.43543112705E+03 -0.24991960782E+03  0.72353677525E+03  0.12500000000E+03 0.  0.
         21    1    1    2  503  502 -0.48561749909E+03 -0.41644196349E+03  0.22135063310E+03  0.67693749131E+03  0.00000000000E+00 0. -1.
         21    1    1    2  504  501 -0.20169401057E+02 -0.18989163561E+02  0.32248673905E+03  0.32367435786E+03  0.00000000000E+00 0. -1.
<mgrwt>
<rscale>  4 0.14001828E+04</rscale>
<asrwt>0</asrwt>
<pdfrwt beam="1">  1       21 0.15523588E+00 0.14001828E+04</pdfrwt>
<pdfrwt beam="2">  1       21 0.11001776E+00 0.14001828E+04</pdfrwt>
<totfact> 0.11108295E+02</totfact>
</mgrwt>
</event>
