<event>
 5    0  0.1911311E+001  0.5114276E+03  0.7546771E-02  0.1010838E+00
         21   -1    0    0  502  501  0.00000000000E+00  0.00000000000E+00  0.50767832980E+03  0.50767832980E+03  0.00000000000E+00 0. -1.
         21   -1    0    0  504  502 -0.00000000000E+00 -0.00000000000E+00 -0.69581349532E+03  0.69581349532E+03  0.00000000000E+00 0.  1.
         25    1    1    2    0    0 -0.42707250575E+03  0.21640695664E+03  0.15516160109E+03  0.51857788085E+03  0.12500000000E+03 0.  0.
         21    1    1    2  503  501 -0.21573028821E+02  0.92387381583E+01  0.44572823314E+02  0.50373469540E+02  0.00000000000E+00 0. -1.
         21    1    1    2  504  503  0.44864553457E+03 -0.22564569480E+03 -0.38786958993E+03  0.63454047473E+03  0.00000000000E+00 0.  1.
<mgrwt>
<rscale>  4 0.51142760E+03</rscale>
<asrwt>0</asrwt>
<pdfrwt beam="1">  1       21 0.78104358E-01 0.51142760E+03</pdfrwt>
<pdfrwt beam="2">  1       21 0.10704823E+00 0.51142760E+03</pdfrwt>
<totfact> 0.83699184E+02</totfact>
</mgrwt>
</event>
<event>
 5    0  0.1911311E+001  0.1856496E+03  0.7546771E-02  0.1162445E+00
         21   -1    0    0  503  501  0.00000000000E+00  0.00000000000E+00  0.17727579370E+03  0.17727579370E+03  0.00000000000E+00 0.  1.
         21   -1    0    0  504  502 -0.00000000000E+00 -0.00000000000E+00 -0.98870871520E+03  0.98870871520E+03  0.00000000000E+00 0.  1.
         25    1    1    2    0    0  0.16721586596E+03  0.11310501191E+03 -0.19989099367E+02  0.23828229822E+03  0.12500000000E+03 0.  0.
         21    1    1    2  503  502 -0.11273019045E+03 -0.10077784612E+02 -0.80267483349E+03  0.81061491838E+03  0.00000000000E+00 0.  1.
         21    1    1    2  504  501 -0.54485675516E+02 -0.10302722730E+03  0.11231011352E+02  0.11708729230E+03  0.00000000000E+00 0.  1.
<mgrwt>
<rscale>  4 0.18564962E+03</rscale>
<asrwt>0</asrwt>
<pdfrwt beam="1">  1       21 0.27273199E-01 0.18564962E+03</pdfrwt>
<pdfrwt beam="2">  1       21 0.15210903E+00 0.18564962E+03</pdfrwt>
<totfact> 0.37160646E+03</totfact>
</mgrwt>
</event>
<event>
 5    0  0.1911311E+001  0.2444146E+03  0.7546771E-02  0.1116886E+00
         21   -1    0    0  504  501  0.00000000000E+00  0.00000000000E+00  0.90168681359E+03  0.90168681359E+03  0.00000000000E+00 0. -1.
         21   -1    0    0  503  502 -0.00000000000E+00 -0.00000000000E+00 -0.13846703998E+03  0.13846703998E+03  0.00000000000E+00 0. -1.
         25    1    1    2    0    0 -0.19716423561E+03 -0.11601041591E+03  0.70179653591E+03  0.74864913693E+03  0.12500000000E+03 0.  0.
         21    1    1    2  503  501  0.16749614854E+03  0.12279003044E+03 -0.16016246409E+02  0.20829995559E+03  0.00000000000E+00 0. -1.
         21    1    1    2  504  502  0.29668087073E+02 -0.67796145327E+01  0.77439484102E+02  0.83204761052E+02  0.00000000000E+00 0. -1.
<mgrwt>
<rscale>  4 0.24441457E+03</rscale>
<asrwt>0</asrwt>
<pdfrwt beam="1">  1       21 0.13872104E+00 0.24441457E+03</pdfrwt>
<pdfrwt beam="2">  1       21 0.21302622E-01 0.24441457E+03</pdfrwt>
<totfact> 0.72422747E+03</totfact>
</mgrwt>
</event>
<event>
 5    0  0.1911311E+001  0.2506024E+03  0.7546771E-02  0.1112925E+00
         21   -1    0    0  502  501  0.00000000000E+00  0.00000000000E+00  0.69698141874E+03  0.69698141874E+03  0.00000000000E+00 0.  1.
         21   -1    0    0  504  502 -0.00000000000E+00 -0.00000000000E+00 -0.23605159273E+03  0.23605159273E+03  0.00000000000E+00 0.  1.
         25    1    1    2    0    0 -0.18241097527E+02 -0.23700577957E+03  0.34197936630E+03  0.43483257026E+03  0.12500000000E+03 0.  0.
         21    1    1    2  503  501 -0.18071622895E+02  0.25975290269E+02  0.24678996713E+03  0.24881034370E+03  0.00000000000E+00 0. -1.
         21    1    1    2  504  503  0.36312720422E+02  0.21103048930E+03 -0.12783950742E+03  0.24939009751E+03  0.00000000000E+00 0.  1.
<mgrwt>
<rscale>  4 0.25060242E+03</rscale>
<asrwt>0</asrwt>
<pdfrwt beam="1">  1       21 0.10722791E+00 0.25060242E+03</pdfrwt>
<pdfrwt beam="2">  1       21 0.36315630E-01 0.25060242E+03</pdfrwt>
<totfact> 0.48718842E+03</totfact>
</mgrwt>
</event>
