<event>
 5    0  0.1100644E+001  0.2529899E+03  0.7546771E-02  0.1111430E+00
         21   -1    0    0  502  501  0.00000000000E+00  0.00000000000E+00  0.42219629331E+02  0.42219629331E+02  0.00000000000E+00 0.  1.
         21   -1    0    0  503  502 -0.00000000000E+00 -0.00000000000E+00 -0.16701575451E+04  0.16701575451E+04  0.00000000000E+00 0.  1.
         25    1    1    2    0    0  0.21385496373E+03  0.86005992865E+02 -0.59968863399E+03  0.65450930784E+03  0.12500000000E+03 0.  0.
         21    1    1    2  503  504 -0.20773393767E+03 -0.58267210059E+02 -0.95995695988E+03  0.98390335981E+03  0.00000000000E+00 0.  1.
         21    1    1    2  504  501 -0.61210260535E+01 -0.27738782806E+02 -0.68292321860E+02  0.73964506735E+02  0.00000000000E+00 0. -1.
<mgrwt>
<rscale>  4 0.25298994E+03</rscale>
<asrwt>0</asrwt>
<pdfrwt beam="1">  1       21 0.64953282E-02 0.25298994E+03</pdfrwt>
<pdfrwt beam="2">  1       21 0.25694729E+00 0.25298994E+03</pdfrwt>
<totfact> 0.98914534E+03</totfact>
</mgrwt>
</event>
<event>
 5    0  0.1856407E+000  0.2442933E+03  0.7546771E-02  0.1116965E+00
         21   -1    0    0  502  501  0.00000000000E+00  0.00000000000E+00  0.27968208618E+03  0.27968208618E+03  0.00000000000E+00 0. -1.
         21   -1    0    0  503  502 -0.00000000000E+00 -0.00000000000E+00 -0.39296276758E+03  0.39296276758E+03  0.00000000000E+00 0. -1.
         25    1    1    2    0    0 -0.10063831894E+03 -0.18419055817E+03  0.18396342177E+03  0.30581329845E+03  0.12500000000E+03 0.  0.
         21    1    1    2  503  504  0.22238031903E+01  0.41640146836E+02 -0.60719267911E+02  0.73659192399E+02  0.00000000000E+00 0. -1.
         21    1    1    2  504  501  0.98414515750E+02  0.14255041133E+03 -0.23652483526E+03  0.29317236291E+03  0.00000000000E+00 0. -1.
<mgrwt>
<rscale>  4 0.24429333E+03</rscale>
<asrwt>0</asrwt>
<pdfrwt beam="1">  1       21 0.43028014E-01 0.24429333E+03</pdfrwt>
<pdfrwt beam="2">  1       21 0.60455810E-01 0.24429333E+03</pdfrwt>
<totfact> 0.12835632E+04</totfact>
</mgrwt>
</event>
<event>
 5    0  0.1856407E+000  0.3502972E+03  0.7546771E-02  0.1062493E+00
         21   -1    0    0  502  501  0.00000000000E+00  0.00000000000E+00  0.14830254017E+04  0.14830254017E+04  0.00000000000E+00 0.  1.
         21   -1    0    0  503  502 -0.00000000000E+00 -0.00000000000E+00 -0.16363965661E+04  0.16363965661E+04  0.00000000000E+00 0. -1.
         25    1    1    2    0    0 -0.25322884254E+03 -0.20726382349E+03  0.14445864454E+04  0.14864515255E+04  0.12500000000E+03 0.  0.
         21    1    1    2  503  504  0.22405480532E+03  0.19293075684E+03 -0.15202925674E+04  0.15487776868E+04  0.00000000000E+00 0. -1.
         21    1    1    2  504  501  0.29174037225E+02  0.14333066650E+02 -0.77665042543E+02  0.84192755512E+02  0.00000000000E+00 0. -1.
<mgrwt>
<rscale>  4 0.35029722E+03</rscale>
<asrwt>0</asrwt>
<pdfrwt beam="1">  1       21 0.22815775E+00 0.35029722E+03</pdfrwt>
<pdfrwt beam="2">  1       21 0.25175332E+00 0.35029722E+03</pdfrwt>
<totfact> 0.45871024E+00</totfact>
</mgrwt>
</event>
<event>
 5    0  0.1856407E+000  0.4193716E+03  0.7546771E-02  0.1037271E+00
         21   -1    0    0  502  501  0.00000000000E+00  0.00000000000E+00  0.29576486605E+03  0.29576486605E+03  0.00000000000E+00 0.  1.
         21   -1    0    0  503  502 -0.00000000000E+00 -0.00000000000E+00 -0.82204111851E+03  0.82204111851E+03  0.00000000000E+00 0.  1.
         25    1    1    2    0    0  0.27898013451E+03 -0.31131455696E+03 -0.42015040798E+01  0.43633624816E+03  0.12500000000E+03 0.  0.
         21    1    1    2  503  504 -0.76621816714E+01  0.24346836918E+02  0.15998807960E+01  0.25574149339E+02  0.00000000000E+00 0.  1.
         21    1    1    2  504  501 -0.27131795284E+03  0.28696772004E+03 -0.52367462917E+03  0.65589558705E+03  0.00000000000E+00 0.  1.
<mgrwt>
<rscale>  4 0.41937165E+03</rscale>
<asrwt>0</asrwt>
<pdfrwt beam="1">  1       21 0.45502287E-01 0.41937165E+03</pdfrwt>
<pdfrwt beam="2">  1       21 0.12646786E+00 0.41937165E+03</pdfrwt>
<totfact> 0.18647270E+03</totfact>
</mgrwt>
</event>
<event>
 5    0  0.2870183E+000  0.2360871E+03  0.7546771E-02  0.1122427E+00
         21   -1    0    0  502  501  0.00000000000E+00  0.00000000000E+00  0.16054473829E+03  0.16054473829E+03  0.00000000000E+00 0. -1.
         21   -1    0    0  503  502 -0.00000000000E+00 -0.00000000000E+00 -0.42836046269E+03  0.42836046269E+03  0.00000000000E+00 0. -1.
         25    1    1    2    0    0 -0.76730566670E+02 -0.18499880466E+03  0.12292791902E+02  0.23640695912E+03  0.12500000000E+03 0.  0.
         21    1    1    2  503  504  0.46590149540E+02  0.17298969501E+03 -0.25414766445E+03  0.31094551285E+03  0.00000000000E+00 0. -1.
         21    1    1    2  504  501  0.30140417129E+02  0.12009109645E+02 -0.25960851849E+02  0.41552729007E+02  0.00000000000E+00 0. -1.
<mgrwt>
<rscale>  4 0.23608714E+03</rscale>
<asrwt>0</asrwt>
<pdfrwt beam="1">  1       21 0.24699191E-01 0.23608714E+03</pdfrwt>
<pdfrwt beam="2">  1       21 0.65901610E-01 0.23608714E+03</pdfrwt>
<totfact> 0.32063047E+04</totfact>
</mgrwt>
</event>
<event>
 5    0  0.1856407E+000  0.3467356E+03  0.7546771E-02  0.1063963E+00
         21   -1    0    0  502  501  0.00000000000E+00  0.00000000000E+00  0.60061423378E+03  0.60061423378E+03  0.00000000000E+00 0.  1.
         21   -1    0    0  503  502 -0.00000000000E+00 -0.00000000000E+00 -0.47757840696E+03  0.47757840696E+03  0.00000000000E+00 0.  1.
         25    1    1    2    0    0  0.11069331601E+03  0.30388747013E+03  0.48134314241E+03  0.59322577950E+03  0.12500000000E+03 0.  0.
         21    1    1    2  503  504 -0.97398720961E+02 -0.28091308811E+03 -0.34445776333E+03  0.45502727900E+03  0.00000000000E+00 0.  1.
         21    1    1    2  504  501 -0.13294595049E+02 -0.22974382024E+02 -0.13849552258E+02  0.29939582238E+02  0.00000000000E+00 0. -1.
<mgrwt>
<rscale>  4 0.34673564E+03</rscale>
<asrwt>0</asrwt>
<pdfrwt beam="1">  1       21 0.92402190E-01 0.34673564E+03</pdfrwt>
<pdfrwt beam="2">  1       21 0.73473601E-01 0.34673564E+03</pdfrwt>
<totfact> 0.14764966E+03</totfact>
</mgrwt>
</event>
<event>
 5    0  0.2231292E+000  0.2390440E+03  0.7546771E-02  0.1120431E+00
         21   -1    0    0  502  501  0.00000000000E+00  0.00000000000E+00  0.25525413284E+03  0.25525413284E+03  0.00000000000E+00 0.  1.
         21   -1    0    0  503  502 -0.00000000000E+00 -0.00000000000E+00 -0.19987454187E+03  0.19987454187E+03  0.00000000000E+00 0.  1.
         25    1    1    2    0    0  0.19144527940E+03 -0.69754700541E+02  0.38114049218E+02  0.24206340904E+03  0.12500000000E+03 0.  0.
         21    1    1    2  503  504 -0.38863412564E+02 -0.95583140456E+01 -0.17030235500E+01  0.40057789414E+02  0.00000000000E+00 0.  1.
         21    1    1    2  504  501 -0.15258186683E+03  0.79313014586E+02  0.18968565301E+02  0.17300747625E+03  0.00000000000E+00 0.  1.
<mgrwt>
<rscale>  4 0.23904396E+03</rscale>
<asrwt>0</asrwt>
<pdfrwt beam="1">  1       21 0.39269867E-01 0.23904396E+03</pdfrwt>
<pdfrwt beam="2">  1       21 0.30749930E-01 0.23904396E+03</pdfrwt>
<totfact> 0.62231924E+04</totfact>
</mgrwt>
</event>
<event>
 5    0  0.1856407E+000  0.2528589E+03  0.7546771E-02  0.1111511E+00
         21   -1    0    0  502  501  0.00000000000E+00  0.00000000000E+00  0.64248522256E+03  0.64248522256E+03  0.00000000000E+00 0. -1.
         21   -1    0    0  503  502 -0.00000000000E+00 -0.00000000000E+00 -0.57230002782E+03  0.57230002782E+03  0.00000000000E+00 0. -1.
         25    1    1    2    0    0  0.19446957658E+03  0.10244123752E+03  0.59176037359E+03  0.64351997880E+03  0.12500000000E+03 0.  0.
         21    1    1    2  503  504 -0.78056098188E+02 -0.83638938889E+02 -0.23466505164E+03  0.26106687462E+03  0.00000000000E+00 0. -1.
         21    1    1    2  504  501 -0.11641347839E+03 -0.18802298632E+02 -0.28691012721E+03  0.31019839697E+03  0.00000000000E+00 0. -1.
<mgrwt>
<rscale>  4 0.25285890E+03</rscale>
<asrwt>0</asrwt>
<pdfrwt beam="1">  1       21 0.98843880E-01 0.25285890E+03</pdfrwt>
<pdfrwt beam="2">  1       21 0.88046159E-01 0.25285890E+03</pdfrwt>
<totfact> 0.88303246E+02</totfact>
</mgrwt>
</event>
<event>
 5    0  0.1856407E+000  0.3948188E+03  0.7546771E-02  0.1045589E+00
         21   -1    0    0  502  501  0.00000000000E+00  0.00000000000E+00  0.13626748561E+04  0.13626748561E+04  0.00000000000E+00 0.  1.
         21   -1    0    0  503  502 -0.00000000000E+00 -0.00000000000E+00 -0.10069940330E+04  0.10069940330E+04  0.00000000000E+00 0.  1.
         25    1    1    2    0    0 -0.35433232661E+02  0.37358544008E+03  0.12941313328E+04  0.13532267000E+04  0.12500000000E+03 0.  0.
         21    1    1    2  503  504 -0.19536006202E+02 -0.24140027940E+02 -0.13567715621E+03  0.13918580102E+03  0.00000000000E+00 0. -1.
         21    1    1    2  504  501  0.54969238864E+02 -0.34944541214E+03 -0.80277335349E+03  0.87725638804E+03  0.00000000000E+00 0.  1.
<mgrwt>
<rscale>  4 0.39481878E+03</rscale>
<asrwt>0</asrwt>
<pdfrwt beam="1">  1       21 0.20964229E+00 0.39481878E+03</pdfrwt>
<pdfrwt beam="2">  1       21 0.15492216E+00 0.39481878E+03</pdfrwt>
<totfact> 0.25495738E+01</totfact>
</mgrwt>
</event>
<event>
 5    0  0.1856407E+000  0.3434267E+03  0.7546771E-02  0.1065346E+00
         21   -1    0    0  502  501  0.00000000000E+00  0.00000000000E+00  0.12519152757E+04  0.12519152757E+04  0.00000000000E+00 0.  1.
         21   -1    0    0  503  502 -0.00000000000E+00 -0.00000000000E+00 -0.13143558629E+03  0.13143558629E+03  0.00000000000E+00 0. -1.
         25    1    1    2    0    0 -0.30551912419E+03  0.94736386360E+02  0.94981429480E+03  0.10099946103E+04  0.12500000000E+03 0.  0.
         21    1    1    2  503  504  0.25989886708E+03 -0.44184411360E+02  0.14240651392E+03  0.29963193843E+03  0.00000000000E+00 0. -1.
         21    1    1    2  504  501  0.45620257110E+02 -0.50551975000E+02  0.28258880712E+02  0.73724313318E+02  0.00000000000E+00 0. -1.
<mgrwt>
<rscale>  4 0.34342673E+03</rscale>
<asrwt>0</asrwt>
<pdfrwt beam="1">  1       21 0.19260234E+00 0.34342673E+03</pdfrwt>
<pdfrwt beam="2">  1       21 0.20220860E-01 0.34342673E+03</pdfrwt>
<totfact> 0.30405233E+03</totfact>
</mgrwt>
</event>
