<event>
 5    0  0.2159162E+000  0.2471075E+03  0.7546771E-02  0.1115147E+00
         21   -1    0    0  502  501  0.00000000000E+00  0.00000000000E+00  0.32224812391E+04  0.32224812391E+04  0.00000000000E+00 0. -1.
         21   -1    0    0  503  502 -0.00000000000E+00 -0.00000000000E+00 -0.19215852978E+02  0.19215852978E+02  0.00000000000E+00 0. -1.
         25    1    1    2    0    0 -0.18694223100E+03  0.10241933974E+03  0.22827864613E+04  0.22961219799E+04  0.12500000000E+03 0.  0.
         21    1    1    2  503  504  0.19208965152E+02 -0.20655887247E+02  0.16492208652E+03  0.16731689886E+03  0.00000000000E+00 0. -1.
         21    1    1    2  504  501  0.16773326584E+03 -0.81763452496E+02  0.75555683832E+03  0.77825821329E+03  0.00000000000E+00 0. -1.
<mgrwt>
<rscale>  4 0.24710750E+03</rscale>
<asrwt>0</asrwt>
<pdfrwt beam="1">  1       21 0.49576592E+00 0.24710750E+03</pdfrwt>
<pdfrwt beam="2">  1       21 0.29562876E-02 0.24710750E+03</pdfrwt>
<totfact> 0.12191148E+03</totfact>
</mgrwt>
</event>
<event>
 5    0  0.2234290E+000  0.2518279E+03  0.7546771E-02  0.1112155E+00
         21   -1    0    0  502  501  0.00000000000E+00  0.00000000000E+00  0.71228400785E+03  0.71228400785E+03  0.00000000000E+00 0.  1.
         21   -1    0    0  503  502 -0.00000000000E+00 -0.00000000000E+00 -0.99048232291E+02  0.99048232291E+02  0.00000000000E+00 0.  1.
         25    1    1    2    0    0 -0.18808670668E+03  0.14254275775E+03  0.34050769075E+03  0.43274187974E+03  0.12500000000E+03 0.  0.
         21    1    1    2  503  504  0.18273895544E+02 -0.26057955985E+02 -0.56508435092E+01  0.32324671086E+02  0.00000000000E+00 0. -1.
         21    1    1    2  504  501  0.16981281114E+03 -0.11648480176E+03  0.27837892832E+03  0.34626568932E+03  0.00000000000E+00 0.  1.
<mgrwt>
<rscale>  4 0.25182788E+03</rscale>
<asrwt>0</asrwt>
<pdfrwt beam="1">  1       21 0.10958215E+00 0.25182788E+03</pdfrwt>
<pdfrwt beam="2">  1       21 0.15238190E-01 0.25182788E+03</pdfrwt>
<totfact> 0.24323698E+04</totfact>
</mgrwt>
</event>
<event>
 5    0  0.3083440E+000  0.2638699E+03  0.7546771E-02  0.1104840E+00
         21   -1    0    0  502  501  0.00000000000E+00  0.00000000000E+00  0.26579674825E+03  0.26579674825E+03  0.00000000000E+00 0.  1.
         21   -1    0    0  503  502 -0.00000000000E+00 -0.00000000000E+00 -0.32821818672E+03  0.32821818672E+03  0.00000000000E+00 0.  1.
         25    1    1    2    0    0  0.24962764207E+03  0.21381284284E+02  0.60447631647E+02  0.28644377314E+03  0.12500000000E+03 0.  0.
         21    1    1    2  503  504 -0.20667589075E+03 -0.48335797187E+02 -0.48772792838E+02  0.21778443110E+03  0.00000000000E+00 0.  1.
         21    1    1    2  504  501 -0.42951751314E+02  0.26954512903E+02 -0.74096277283E+02  0.89786730724E+02  0.00000000000E+00 0.  1.
<mgrwt>
<rscale>  4 0.26386987E+03</rscale>
<asrwt>0</asrwt>
<pdfrwt beam="1">  1       21 0.40891808E-01 0.26386987E+03</pdfrwt>
<pdfrwt beam="2">  1       21 0.50495105E-01 0.26386987E+03</pdfrwt>
<totfact> 0.20714086E+04</totfact>
</mgrwt>
</event>
<event>
 5    0  0.2159162E+000  0.2931401E+03  0.7546771E-02  0.1088721E+00
         21   -1    0    0  502  501  0.00000000000E+00  0.00000000000E+00  0.51949311551E+02  0.51949311551E+02  0.00000000000E+00 0.  1.
         21   -1    0    0  503  502 -0.00000000000E+00 -0.00000000000E+00 -0.37223231837E+04  0.37223231837E+04  0.00000000000E+00 0. -1.
         25    1    1    2    0    0  0.71615717463E+02 -0.25529842361E+03 -0.42585946335E+03  0.51699843192E+03  0.12500000000E+03 0.  0.
         21    1    1    2  503  504 -0.19087794263E+02  0.90035058646E+02 -0.59347095052E+03  0.60056508788E+03  0.00000000000E+00 0.  1.
         21    1    1    2  504  501 -0.52527923200E+02  0.16526336497E+03 -0.26510434583E+04  0.26567089755E+04  0.00000000000E+00 0. -1.
<mgrwt>
<rscale>  4 0.29314006E+03</rscale>
<asrwt>0</asrwt>
<pdfrwt beam="1">  1       21 0.79922029E-02 0.29314006E+03</pdfrwt>
<pdfrwt beam="2">  1       21 0.57266503E+00 0.29314006E+03</pdfrwt>
<totfact> 0.57547259E+01</totfact>
</mgrwt>
</event>
<event>
 5    0  0.2391853E+000  0.2453011E+03  0.7546771E-02  0.1116311E+00
         21   -1    0    0  502  501  0.00000000000E+00  0.00000000000E+00  0.21730354545E+03  0.21730354545E+03  0.00000000000E+00 0. -1.
         21   -1    0    0  503  502 -0.00000000000E+00 -0.00000000000E+00 -0.33385686953E+03  0.33385686953E+03  0.00000000000E+00 0. -1.
         25    1    1    2    0    0  0.11556987292E+03 -0.17661041003E+03  0.83224264940E+02  0.25903457439E+03  0.12500000000E+03 0.  0.
         21    1    1    2  503  504 -0.15751016181E+02  0.12609215737E+02 -0.11502229430E+02  0.23224730658E+02  0.00000000000E+00 0. -1.
         21    1    1    2  504  501 -0.99818856737E+02  0.16400119429E+03 -0.18827535959E+03  0.26890110992E+03  0.00000000000E+00 0. -1.
<mgrwt>
<rscale>  4 0.24530111E+03</rscale>
<asrwt>0</asrwt>
<pdfrwt beam="1">  1       21 0.33431315E-01 0.24530111E+03</pdfrwt>
<pdfrwt beam="2">  1       21 0.51362595E-01 0.24530111E+03</pdfrwt>
<totfact> 0.30226733E+04</totfact>
</mgrwt>
</event>
<event>
 5    0  0.2159162E+000  0.2330682E+03  0.7546771E-02  0.1124499E+00
         21   -1    0    0  502  501  0.00000000000E+00  0.00000000000E+00  0.33547325622E+03  0.33547325622E+03  0.00000000000E+00 0. -1.
         21   -1    0    0  503  502 -0.00000000000E+00 -0.00000000000E+00 -0.79962163018E+03  0.79962163018E+03  0.00000000000E+00 0. -1.
         25    1    1    2    0    0  0.14570700156E+03  0.14209638632E+03  0.26418963334E+03  0.35615035543E+03  0.12500000000E+03 0.  0.
         21    1    1    2  503  504 -0.56839646747E+02 -0.84930983877E+02 -0.10429463260E+03  0.14601845039E+03  0.00000000000E+00 0. -1.
         21    1    1    2  504  501 -0.88867354809E+02 -0.57165402445E+02 -0.62404337469E+03  0.63292608059E+03  0.00000000000E+00 0. -1.
<mgrwt>
<rscale>  4 0.23306815E+03</rscale>
<asrwt>0</asrwt>
<pdfrwt beam="1">  1       21 0.51611271E-01 0.23306815E+03</pdfrwt>
<pdfrwt beam="2">  1       21 0.12301871E+00 0.23306815E+03</pdfrwt>
<totfact> 0.17081860E+03</totfact>
</mgrwt>
</event>
<event>
 5    0  0.2159162E+000  0.2359711E+03  0.7546771E-02  0.1122506E+00
         21   -1    0    0  502  501  0.00000000000E+00  0.00000000000E+00  0.91832422279E+03  0.91832422279E+03  0.00000000000E+00 0. -1.
         21   -1    0    0  503  502 -0.00000000000E+00 -0.00000000000E+00 -0.64157093501E+03  0.64157093501E+03  0.00000000000E+00 0.  1.
         25    1    1    2    0    0 -0.16716185001E+03  0.11006493071E+03  0.88570003855E+03  0.91659529312E+03  0.12500000000E+03 0.  0.
         21    1    1    2  503  504  0.24470686270E+02 -0.19284392082E+02 -0.46467276445E+02  0.55945598975E+02  0.00000000000E+00 0. -1.
         21    1    1    2  504  501  0.14269116374E+03 -0.90780538623E+02 -0.56247947433E+03  0.58735426570E+03  0.00000000000E+00 0.  1.
<mgrwt>
<rscale>  4 0.23597113E+03</rscale>
<asrwt>0</asrwt>
<pdfrwt beam="1">  1       21 0.14128065E+00 0.23597113E+03</pdfrwt>
<pdfrwt beam="2">  1       21 0.98703220E-01 0.23597113E+03</pdfrwt>
<totfact> 0.28194324E+02</totfact>
</mgrwt>
</event>
<event>
 5    0  0.2159162E+000  0.3826404E+03  0.7546771E-02  0.1049962E+00
         21   -1    0    0  502  501  0.00000000000E+00  0.00000000000E+00  0.13160147310E+04  0.13160147310E+04  0.00000000000E+00 0.  1.
         21   -1    0    0  503  502 -0.00000000000E+00 -0.00000000000E+00 -0.86223932734E+03  0.86223932734E+03  0.00000000000E+00 0. -1.
         25    1    1    2    0    0 -0.27520700011E+02  0.36059852704E+03  0.12460188944E+04  0.13034480319E+04  0.12500000000E+03 0.  0.
         21    1    1    2  503  504  0.17770631670E+02 -0.31138301656E+03 -0.73645373028E+03  0.79977451523E+03  0.00000000000E+00 0. -1.
         21    1    1    2  504  501  0.97500683408E+01 -0.49215510471E+02 -0.55789760467E+02  0.75031511223E+02  0.00000000000E+00 0.  1.
<mgrwt>
<rscale>  4 0.38264041E+03</rscale>
<asrwt>0</asrwt>
<pdfrwt beam="1">  1       21 0.20246380E+00 0.38264041E+03</pdfrwt>
<pdfrwt beam="2">  1       21 0.13265221E+00 0.38264041E+03</pdfrwt>
<totfact> 0.43351909E+01</totfact>
</mgrwt>
</event>
<event>
 5    0  0.2159162E+000  0.2480309E+03  0.7546771E-02  0.1114556E+00
         21   -1    0    0  502  501  0.00000000000E+00  0.00000000000E+00  0.17374337934E+03  0.17374337934E+03  0.00000000000E+00 0. -1.
         21   -1    0    0  503  502 -0.00000000000E+00 -0.00000000000E+00 -0.24288052458E+04  0.24288052458E+04  0.00000000000E+00 0.  1.
         25    1    1    2    0    0  0.14512340213E+02 -0.21373748945E+03  0.77174685414E+02  0.25975999400E+03  0.12500000000E+03 0.  0.
         21    1    1    2  503  504 -0.21998323750E+02  0.25792474438E+02 -0.38383261829E+03  0.38532668847E+03  0.00000000000E+00 0. -1.
         21    1    1    2  504  501  0.74859835373E+01  0.18794501501E+03 -0.19484039336E+04  0.19574619427E+04  0.00000000000E+00 0.  1.
<mgrwt>
<rscale>  4 0.24803089E+03</rscale>
<asrwt>0</asrwt>
<pdfrwt beam="1">  1       21 0.26729751E-01 0.24803089E+03</pdfrwt>
<pdfrwt beam="2">  1       21 0.37366234E+00 0.24803089E+03</pdfrwt>
<totfact> 0.15474398E+02</totfact>
</mgrwt>
</event>
