<event>
 5    0  0.4115852E+000  0.3120924E+03  0.7546771E-02  0.1079347E+00
         21   -1    0    0  501  502  0.00000000000E+00  0.00000000000E+00  0.21926398427E+03  0.21926398427E+03  0.00000000000E+00 0. -1.
         -1   -1    0    0    0  501 -0.00000000000E+00 -0.00000000000E+00 -0.61710029463E+03  0.61710029463E+03  0.00000000000E+00 0. -1.
         25    1    1    2    0    0 -0.15354433484E+03  0.23094646635E+03 -0.19289172634E+03  0.36020043194E+03  0.12500000000E+03 0.  0.
         21    1    1    2  503  502 -0.44930441527E+02 -0.13848437170E+02  0.62770607572E+02  0.78426226243E+02  0.00000000000E+00 0. -1.
         -1    1    1    2    0  503  0.19847477636E+03 -0.21709802918E+03 -0.26771519159E+03  0.39773762072E+03  0.00000000000E+00 0. -1.
<mgrwt>
<rscale>  4 0.31209244E+03</rscale>
<asrwt>0</asrwt>
<pdfrwt beam="1">  1       21 0.33732921E-01 0.31209244E+03</pdfrwt>
<pdfrwt beam="2">  1       -1 0.94938506E-01 0.31209244E+03</pdfrwt>
<totfact> 0.86199921E+02</totfact>
</mgrwt>
</event>
<event>
 5    0  0.4115852E+000  0.2454030E+03  0.7546771E-02  0.1116245E+00
         21   -1    0    0  503  502  0.00000000000E+00  0.00000000000E+00  0.11033265902E+03  0.11033265902E+03  0.00000000000E+00 0. -1.
          2   -1    0    0  502    0 -0.00000000000E+00 -0.00000000000E+00 -0.14131003880E+04  0.14131003880E+04  0.00000000000E+00 0.  1.
         25    1    1    2    0    0  0.95310529223E+02 -0.20211349695E+03 -0.60372330994E+03  0.65577495957E+03  0.12500000000E+03 0.  0.
         21    1    1    2  503  501  0.10896739513E+02  0.26521966642E+02  0.67914656619E+02  0.73719429123E+02  0.00000000000E+00 0. -1.
          2    1    1    2  501    0 -0.10620726874E+03  0.17559153031E+03 -0.76695907567E+03  0.79393865834E+03  0.00000000000E+00 0.  1.
<mgrwt>
<rscale>  4 0.24540302E+03</rscale>
<asrwt>0</asrwt>
<pdfrwt beam="1">  1       21 0.16974256E-01 0.24540302E+03</pdfrwt>
<pdfrwt beam="2">  1        2 0.21740006E+00 0.24540302E+03</pdfrwt>
<totfact> 0.59839221E+03</totfact>
</mgrwt>
</event>
<event>
 5    0  0.4115852E+000  0.3114753E+03  0.7546771E-02  0.1079641E+00
          1   -1    0    0  502    0 -0.00000000000E+00  0.00000000000E+00  0.35402538154E+03  0.35402538154E+03  0.00000000000E+00 0. -1.
         21   -1    0    0  503  502  0.00000000000E+00 -0.00000000000E+00 -0.33357485653E+03  0.33357485653E+03  0.00000000000E+00 0. -1.
         25    1    1    2    0    0 -0.25592528004E+03 -0.87292066395E+02  0.41176225147E+02  0.30072933900E+03  0.12500000000E+03 0.  0.
         21    1    1    2  503  501 -0.18747138238E+02 -0.34249059394E+02 -0.72247069059E+02  0.82122422329E+02  0.00000000000E+00 0.  1.
          1    1    1    2  501    0  0.27467241828E+03  0.12154112579E+03  0.51521368918E+02  0.30474847674E+03  0.00000000000E+00 0. -1.
<mgrwt>
<rscale>  4 0.31147526E+03</rscale>
<asrwt>0</asrwt>
<pdfrwt beam="1">  1       21 0.51319209E-01 0.31147526E+03</pdfrwt>
<pdfrwt beam="2">  1        1 0.54465443E-01 0.31147526E+03</pdfrwt>
<totfact> 0.27070178E+03</totfact>
</mgrwt>
</event>
<event>
 5    0  0.4115852E+000  0.3984145E+03  0.7546771E-02  0.1046192E+00
         21   -1    0    0  503  502  0.00000000000E+00  0.00000000000E+00  0.44657888195E+03  0.44657888195E+03  0.00000000000E+00 0. -1.
          1   -1    0    0  502    0 -0.00000000000E+00 -0.00000000000E+00 -0.11673123183E+04  0.11673123183E+04  0.00000000000E+00 0. -1.
         25    1    1    2    0    0 -0.32349657427E+03  0.14938875987E+03  0.32286722339E+03  0.49682519972E+03  0.12500000000E+03 0.  0.
         21    1    1    2  503  501  0.10885829321E+03 -0.99730802563E+02 -0.22326985082E+03  0.26766730705E+03  0.00000000000E+00 0. -1.
          1    1    1    2  501    0  0.21463828105E+03 -0.49657957306E+02 -0.82033080891E+03  0.84939869347E+03  0.00000000000E+00 0. -1.
<mgrwt>
<rscale>  4 0.39310925E+03</rscale>
<asrwt>0</asrwt>
<pdfrwt beam="1">  1       21 0.68704445E-01 0.39841450E+03</pdfrwt>
<pdfrwt beam="2">  1        1 0.17958651E+00 0.39841450E+03</pdfrwt>
<totfact> 0.23604957E+02</totfact>
</mgrwt>
</event>
<event>
 5    0  0.4115852E+000  0.3215409E+03  0.7546771E-02  0.1074942E+00
         21   -1    0    0  503  502  0.00000000000E+00  0.00000000000E+00  0.31162829525E+03  0.31162829525E+03  0.00000000000E+00 0. -1.
          2   -1    0    0  502    0 -0.00000000000E+00 -0.00000000000E+00 -0.13711152771E+04  0.13711152771E+04  0.00000000000E+00 0.  1.
         25    1    1    2    0    0 -0.31660243222E+03  0.28711766452E+03 -0.28455647722E+03  0.52846101284E+03  0.12500000000E+03 0.  0.
         21    1    1    2  503  501  0.17178817699E+03 -0.51956894804E+02  0.12119779044E+03  0.21656315725E+03  0.00000000000E+00 0. -1.
          2    1    1    2  501    0  0.14481425523E+03 -0.23516076972E+03 -0.89612829510E+03  0.93771940228E+03  0.00000000000E+00 0.  1.
<mgrwt>
<rscale>  4 0.32154091E+03</rscale>
<asrwt>0</asrwt>
<pdfrwt beam="1">  1       21 0.47942814E-01 0.32154091E+03</pdfrwt>
<pdfrwt beam="2">  1        2 0.21094081E+00 0.32154091E+03</pdfrwt>
<totfact> 0.79999495E+02</totfact>
</mgrwt>
</event>
<event>
 5    0  0.4335955E+000  0.1751783E+03  0.7546771E-02  0.1172553E+00
         21   -1    0    0  503  502  0.00000000000E+00  0.00000000000E+00  0.10404451692E+04  0.10404451692E+04  0.00000000000E+00 0. -1.
          2   -1    0    0  502    0 -0.00000000000E+00 -0.00000000000E+00 -0.12634705385E+04  0.12634705385E+04  0.00000000000E+00 0.  1.
         25    1    1    2    0    0  0.20461466675E+03  0.10833695864E+02  0.95135114754E+03  0.98116183005E+03  0.12500000000E+03 0.  0.
         21    1    1    2  503  501 -0.83502413627E+02  0.73621670141E+01  0.46425727842E+02  0.95823811187E+02  0.00000000000E+00 0. -1.
          2    1    1    2  501    0 -0.12111225312E+03 -0.18195862878E+02 -0.12208022447E+04  0.12269300665E+04  0.00000000000E+00 0.  1.
<mgrwt>
<rscale>  4 0.17517826E+03</rscale>
<asrwt>0</asrwt>
<pdfrwt beam="1">  1       21 0.16006849E+00 0.17517826E+03</pdfrwt>
<pdfrwt beam="2">  1        2 0.19438008E+00 0.17517826E+03</pdfrwt>
<totfact> 0.60369141E+01</totfact>
</mgrwt>
</event>
<event>
 5    0  0.4115852E+000  0.1104869E+04  0.7546771E-02  0.9200460E-01
         21   -1    0    0  503  502  0.00000000000E+00  0.00000000000E+00  0.78348018601E+03  0.78348018601E+03  0.00000000000E+00 0. -1.
          2   -1    0    0  502    0 -0.00000000000E+00 -0.00000000000E+00 -0.41749376850E+04  0.41749376850E+04  0.00000000000E+00 0.  1.
         25    1    1    2    0    0  0.94883901089E+03 -0.26104119974E+03  0.74221091314E+00  0.99199976181E+03  0.12500000000E+03 0.  0.
         21    1    1    2  503  501  0.10877960385E+03 -0.10025751868E+03  0.17446784001E+03  0.22874352333E+03  0.00000000000E+00 0. -1.
          2    1    1    2  501    0 -0.10576186147E+04  0.36129871842E+03 -0.35666675499E+04  0.37376745858E+04  0.00000000000E+00 0.  1.
<mgrwt>
<rscale>  4 0.11048686E+04</rscale>
<asrwt>0</asrwt>
<pdfrwt beam="1">  1       21 0.12053541E+00 0.11048686E+04</pdfrwt>
<pdfrwt beam="2">  1        2 0.64229811E+00 0.11048686E+04</pdfrwt>
<totfact> 0.13461403E+00</totfact>
</mgrwt>
</event>
<event>
 5    0  0.4115852E+000  0.2692193E+03  0.7546771E-02  0.1101727E+00
          2   -1    0    0  502    0 -0.00000000000E+00  0.00000000000E+00  0.13299413325E+04  0.13299413325E+04  0.00000000000E+00 0. -1.
         21   -1    0    0  503  502  0.00000000000E+00 -0.00000000000E+00 -0.14891369995E+03  0.14891369995E+03  0.00000000000E+00 0. -1.
         25    1    1    2    0    0  0.21732118214E+03  0.10949383298E+03  0.54091001675E+02  0.27886956114E+03  0.12500000000E+03 0.  0.
         21    1    1    2  503  501 -0.19048123839E+02  0.22295313901E+02 -0.15387123920E+02  0.33116093161E+02  0.00000000000E+00 0.  1.
          2    1    1    2  501    0 -0.19827305830E+03 -0.13178914688E+03  0.11423237548E+04  0.11668693781E+04  0.00000000000E+00 0. -1.
<mgrwt>
<rscale>  4 0.26921926E+03</rscale>
<asrwt>0</asrwt>
<pdfrwt beam="1">  1       21 0.22909801E-01 0.26921926E+03</pdfrwt>
<pdfrwt beam="2">  1        2 0.20460635E+00 0.26921926E+03</pdfrwt>
<totfact> 0.37517636E+03</totfact>
</mgrwt>
</event>
<event>
 5    0  0.4115852E+000  0.2688470E+03  0.7546771E-02  0.1101941E+00
         21   -1    0    0  503  502  0.00000000000E+00  0.00000000000E+00  0.32352543772E+03  0.32352543772E+03  0.00000000000E+00 0.  1.
          2   -1    0    0  502    0 -0.00000000000E+00 -0.00000000000E+00 -0.72753118460E+03  0.72753118460E+03  0.00000000000E+00 0. -1.
         25    1    1    2    0    0 -0.81366419214E+02 -0.19948848230E+03  0.10967374904E+03  0.27215708694E+03  0.12500000000E+03 0.  0.
         21    1    1    2  503  501 -0.54498736467E+02  0.16379623462E+00  0.10310426875E+03  0.11662173614E+03  0.00000000000E+00 0.  1.
          2    1    1    2  501    0  0.13586515568E+03  0.19932468606E+03 -0.61678376467E+03  0.66227779924E+03  0.00000000000E+00 0. -1.
<mgrwt>
<rscale>  4 0.26884696E+03</rscale>
<asrwt>0</asrwt>
<pdfrwt beam="1">  1       21 0.49773145E-01 0.26884696E+03</pdfrwt>
<pdfrwt beam="2">  1        2 0.11192787E+00 0.26884696E+03</pdfrwt>
<totfact> 0.18808424E+03</totfact>
</mgrwt>
</event>
<event>
 5    0  0.4115852E+000  0.3147223E+03  0.7546771E-02  0.1078104E+00
         21   -1    0    0  503  502  0.00000000000E+00  0.00000000000E+00  0.74240970688E+03  0.74240970688E+03  0.00000000000E+00 0.  1.
          2   -1    0    0  502    0 -0.00000000000E+00 -0.00000000000E+00 -0.58764675649E+03  0.58764675649E+03  0.00000000000E+00 0.  1.
         25    1    1    2    0    0 -0.19876227169E+03 -0.15665158587E+03 -0.25737084513E+03  0.38198286863E+03  0.12500000000E+03 0.  0.
         21    1    1    2  503  501  0.20655522272E+03  0.20714594591E+03  0.64575830718E+03  0.70892756628E+03  0.00000000000E+00 0.  1.
          2    1    1    2  501    0 -0.77929510267E+01 -0.50494360040E+02 -0.23362451167E+03  0.23914602847E+03  0.00000000000E+00 0.  1.
<mgrwt>
<rscale>  4 0.31472227E+03</rscale>
<asrwt>0</asrwt>
<pdfrwt beam="1">  1       21 0.11421688E+00 0.31472227E+03</pdfrwt>
<pdfrwt beam="2">  1        2 0.90407194E-01 0.31472227E+03</pdfrwt>
<totfact> 0.36212887E+02</totfact>
</mgrwt>
</event>
<event>
 5    0  0.4115852E+000  0.2269965E+03  0.7546771E-02  0.1128772E+00
          2   -1    0    0  502    0 -0.00000000000E+00  0.00000000000E+00  0.93499445804E+03  0.93499445804E+03  0.00000000000E+00 0.  1.
         21   -1    0    0  503  502  0.00000000000E+00 -0.00000000000E+00 -0.92422835671E+02  0.92422835671E+02  0.00000000000E+00 0.  1.
         25    1    1    2    0    0 -0.63616457486E+02  0.19529483291E+03  0.25497247682E+03  0.35046125229E+03  0.12500000000E+03 0.  0.
         21    1    1    2  503  501 -0.22219837516E+01 -0.22414600990E+02 -0.26975379871E+02  0.35142889302E+02  0.00000000000E+00 0.  1.
          2    1    1    2  501    0  0.65838441238E+02 -0.17288023192E+03  0.61457452542E+03  0.64181315212E+03  0.00000000000E+00 0.  1.
<mgrwt>
<rscale>  4 0.22699651E+03</rscale>
<asrwt>0</asrwt>
<pdfrwt beam="1">  1       21 0.14218898E-01 0.22699651E+03</pdfrwt>
<pdfrwt beam="2">  1        2 0.14384529E+00 0.22699651E+03</pdfrwt>
<totfact> 0.15700263E+04</totfact>
</mgrwt>
</event>
<event>
 5    0  0.4115852E+000  0.2353914E+03  0.7546771E-02  0.1122902E+00
         21   -1    0    0  501  502  0.00000000000E+00  0.00000000000E+00  0.57304660774E+02  0.57304660774E+02  0.00000000000E+00 0.  1.
         -3   -1    0    0    0  501 -0.00000000000E+00 -0.00000000000E+00 -0.17329845857E+04  0.17329845857E+04  0.00000000000E+00 0.  1.
         25    1    1    2    0    0 -0.15265208108E+03  0.15834523275E+03 -0.80214418399E+03  0.84109224375E+03  0.12500000000E+03 0.  0.
         21    1    1    2  503  502  0.62124587479E+02  0.10071370298E+02 -0.87683194875E+01  0.63543530715E+02  0.00000000000E+00 0.  1.
         -3    1    1    2    0  503  0.90527493599E+02 -0.16841660304E+03 -0.86476742142E+03  0.88565347198E+03  0.00000000000E+00 0.  1.
<mgrwt>
<rscale>  4 0.23539143E+03</rscale>
<asrwt>0</asrwt>
<pdfrwt beam="1">  1       21 0.88161032E-02 0.23539143E+03</pdfrwt>
<pdfrwt beam="2">  1       -3 0.26661297E+00 0.23539143E+03</pdfrwt>
<totfact> 0.33283173E+02</totfact>
</mgrwt>
</event>
<event>
 5    0  0.4115852E+000  0.2414301E+03  0.7546771E-02  0.1118844E+00
         21   -1    0    0  503  502  0.00000000000E+00  0.00000000000E+00  0.19405721133E+03  0.19405721133E+03  0.00000000000E+00 0.  1.
          2   -1    0    0  502    0 -0.00000000000E+00 -0.00000000000E+00 -0.45223115653E+03  0.45223115653E+03  0.00000000000E+00 0.  1.
         25    1    1    2    0    0  0.36814709967E+02  0.20324409876E+03  0.68889622441E+02  0.25106625944E+03  0.12500000000E+03 0.  0.
         21    1    1    2  503  501 -0.12200789727E+02 -0.68044521021E+02 -0.48008113165E+02  0.84164689987E+02  0.00000000000E+00 0.  1.
          2    1    1    2  501    0 -0.24613920240E+02 -0.13519957774E+03 -0.27905545447E+03  0.31105741843E+03  0.00000000000E+00 0.  1.
<mgrwt>
<rscale>  4 0.24143009E+03</rscale>
<asrwt>0</asrwt>
<pdfrwt beam="1">  1       21 0.29854956E-01 0.24143009E+03</pdfrwt>
<pdfrwt beam="2">  1        2 0.69574024E-01 0.24143009E+03</pdfrwt>
<totfact> 0.92619998E+03</totfact>
</mgrwt>
</event>
<event>
 5    0  0.4115852E+000  0.2595984E+03  0.7546771E-02  0.1107385E+00
          1   -1    0    0  502    0 -0.00000000000E+00  0.00000000000E+00  0.17677770345E+04  0.17677770345E+04  0.00000000000E+00 0.  1.
         21   -1    0    0  503  502  0.00000000000E+00 -0.00000000000E+00 -0.56851510071E+02  0.56851510071E+02  0.00000000000E+00 0.  1.
         25    1    1    2    0    0  0.27098878538E+03  0.46258492887E+02  0.69510791007E+03  0.75787517218E+03  0.12500000000E+03 0.  0.
         21    1    1    2  503  501 -0.17897054428E+03 -0.89962272715E+02  0.46064632861E+03  0.50231335468E+03  0.00000000000E+00 0.  1.
          1    1    1    2  501    0 -0.92018241098E+02  0.43703779827E+02  0.55517128577E+03  0.56444001773E+03  0.00000000000E+00 0.  1.
<mgrwt>
<rscale>  4 0.25959843E+03</rscale>
<asrwt>0</asrwt>
<pdfrwt beam="1">  1       21 0.87463875E-02 0.25959843E+03</pdfrwt>
<pdfrwt beam="2">  1        1 0.27196566E+00 0.25959843E+03</pdfrwt>
<totfact> 0.54504828E+03</totfact>
</mgrwt>
</event>
<event>
 5    0  0.4115852E+000  0.2944497E+03  0.7546771E-02  0.1088049E+00
          2   -1    0    0  502    0 -0.00000000000E+00  0.00000000000E+00  0.29565166435E+04  0.29565166435E+04  0.00000000000E+00 0.  1.
         21   -1    0    0  503  502  0.00000000000E+00 -0.00000000000E+00 -0.29501570578E+02  0.29501570578E+02  0.00000000000E+00 0.  1.
         25    1    1    2    0    0 -0.19334903478E+03  0.18355313491E+03  0.12177080002E+04  0.12528022096E+04  0.12500000000E+03 0.  0.
         21    1    1    2  503  501  0.17814606335E+03 -0.13073517803E+03  0.11368092268E+04  0.11580858883E+04  0.00000000000E+00 0.  1.
          2    1    1    2  501    0  0.15202971425E+02 -0.52817956873E+02  0.57249784590E+03  0.57513011612E+03  0.00000000000E+00 0.  1.
<mgrwt>
<rscale>  4 0.29444966E+03</rscale>
<asrwt>0</asrwt>
<pdfrwt beam="1">  1       21 0.45387055E-02 0.29444966E+03</pdfrwt>
<pdfrwt beam="2">  1        2 0.45484848E+00 0.29444966E+03</pdfrwt>
<totfact> 0.88216463E+03</totfact>
</mgrwt>
</event>
<event>
 5    0  0.4115852E+000  0.3261671E+03  0.7546771E-02  0.1072845E+00
         21   -1    0    0  501  502  0.00000000000E+00  0.00000000000E+00  0.23359591542E+03  0.23359591542E+03  0.00000000000E+00 0. -1.
         -1   -1    0    0    0  501 -0.00000000000E+00 -0.00000000000E+00 -0.52629063175E+03  0.52629063175E+03  0.00000000000E+00 0.  1.
         25    1    1    2    0    0 -0.21710220672E+03 -0.20963205623E+03 -0.27959105745E+03  0.42997107643E+03  0.12500000000E+03 0.  0.
         21    1    1    2  503  502  0.19831094770E+03  0.22691725032E+03 -0.23656541960E+02  0.30228844247E+03  0.00000000000E+00 0. -1.
         -1    1    1    2    0  503  0.18791259015E+02 -0.17285194088E+02  0.10552883079E+02  0.27627028275E+02  0.00000000000E+00 0.  1.
<mgrwt>
<rscale>  4 0.32616713E+03</rscale>
<asrwt>0</asrwt>
<pdfrwt beam="1">  1       21 0.35937834E-01 0.32616713E+03</pdfrwt>
<pdfrwt beam="2">  1       -1 0.80967789E-01 0.32616713E+03</pdfrwt>
<totfact> 0.10643237E+03</totfact>
</mgrwt>
</event>
<event>
 5    0  0.4115852E+000  0.2218058E+03  0.7546771E-02  0.1132544E+00
         -3   -1    0    0    0  501 -0.00000000000E+00  0.00000000000E+00  0.70114245777E+03  0.70114245777E+03  0.00000000000E+00 0.  1.
         21   -1    0    0  501  502  0.00000000000E+00 -0.00000000000E+00 -0.19235171927E+03  0.19235171927E+03  0.00000000000E+00 0. -1.
         25    1    1    2    0    0  0.13592665104E+03 -0.18914431998E+03  0.19049489962E+03  0.32582961042E+03  0.12500000000E+03 0.  0.
         21    1    1    2  503  502 -0.20411573005E+02  0.62908026119E+02 -0.97626490627E+02  0.11791939507E+03  0.00000000000E+00 0. -1.
         -3    1    1    2    0  503 -0.11551507803E+03  0.12623629386E+03  0.41592232951E+03  0.44974517154E+03  0.00000000000E+00 0.  1.
<mgrwt>
<rscale>  4 0.22180577E+03</rscale>
<asrwt>0</asrwt>
<pdfrwt beam="1">  1       21 0.29592573E-01 0.22180577E+03</pdfrwt>
<pdfrwt beam="2">  1       -3 0.10786807E+00 0.22180577E+03</pdfrwt>
<totfact> 0.40871338E+02</totfact>
</mgrwt>
</event>
<event>
 5    0  0.4115852E+000  0.2112394E+03  0.7546771E-02  0.1140588E+00
          4   -1    0    0  502    0 -0.00000000000E+00  0.00000000000E+00  0.57616594943E+02  0.57616594943E+02  0.00000000000E+00 0.  1.
         21   -1    0    0  503  502  0.00000000000E+00 -0.00000000000E+00 -0.16490317758E+04  0.16490317758E+04  0.00000000000E+00 0. -1.
         25    1    1    2    0    0  0.17969362492E+03 -0.94399406530E+02 -0.87287639815E+03  0.90484211509E+03  0.12500000000E+03 0.  0.
         21    1    1    2  503  501 -0.12583910890E+02  0.13667501471E+03 -0.52495191018E+03  0.54259830672E+03  0.00000000000E+00 0. -1.
          4    1    1    2  501    0 -0.16710971403E+03 -0.42275608179E+02 -0.19358687252E+03  0.25920794892E+03  0.00000000000E+00 0.  1.
<mgrwt>
<rscale>  4 0.21123943E+03</rscale>
<asrwt>0</asrwt>
<pdfrwt beam="1">  1       21 0.25369713E+00 0.21123943E+03</pdfrwt>
<pdfrwt beam="2">  1        4 0.88640937E-02 0.21123943E+03</pdfrwt>
<totfact> 0.24531973E+02</totfact>
</mgrwt>
</event>
<event>
 5    0  0.4115852E+000  0.2637983E+03  0.7546771E-02  0.1104882E+00
          2   -1    0    0  502    0 -0.00000000000E+00  0.00000000000E+00  0.20813667243E+04  0.20813667243E+04  0.00000000000E+00 0. -1.
         21   -1    0    0  503  502  0.00000000000E+00 -0.00000000000E+00 -0.55353016737E+02  0.55353016737E+02  0.00000000000E+00 0.  1.
         25    1    1    2    0    0  0.19026345064E+03 -0.13194716073E+03  0.48419045162E+03  0.55106771573E+03  0.12500000000E+03 0.  0.
         21    1    1    2  503  501  0.16975728095E+02  0.25618507387E+02  0.48300864187E+01  0.31109693022E+02  0.00000000000E+00 0.  1.
          2    1    1    2  501    0 -0.20723917873E+03  0.10632865334E+03  0.15369931695E+04  0.15545423323E+04  0.00000000000E+00 0. -1.
<mgrwt>
<rscale>  4 0.26379833E+03</rscale>
<asrwt>0</asrwt>
<pdfrwt beam="1">  1       21 0.85158503E-02 0.26379833E+03</pdfrwt>
<pdfrwt beam="2">  1        2 0.32021020E+00 0.26379833E+03</pdfrwt>
<totfact> 0.91470412E+03</totfact>
</mgrwt>
</event>
<event>
 5    0  0.4115852E+000  0.2582616E+03  0.7546771E-02  0.1108192E+00
          2   -1    0    0  502    0 -0.00000000000E+00  0.00000000000E+00  0.33327473783E+04  0.33327473783E+04  0.00000000000E+00 0.  1.
         21   -1    0    0  503  502  0.00000000000E+00 -0.00000000000E+00 -0.72170053748E+03  0.72170053748E+03  0.00000000000E+00 0.  1.
         25    1    1    2    0    0  0.14434842984E+03  0.14505407793E+03 -0.15444830392E+02  0.24029294103E+03  0.12500000000E+03 0.  0.
         21    1    1    2  503  501  0.25517724901E+02  0.50356603591E+01 -0.58955572060E+03  0.59012918912E+03  0.00000000000E+00 0.  1.
          2    1    1    2  501    0 -0.16986615475E+03 -0.15008973829E+03  0.32160473919E+04  0.32240257857E+04  0.00000000000E+00 0.  1.
<mgrwt>
<rscale>  4 0.25826160E+03</rscale>
<asrwt>0</asrwt>
<pdfrwt beam="1">  1       21 0.11103085E+00 0.25826160E+03</pdfrwt>
<pdfrwt beam="2">  1        2 0.51273036E+00 0.25826160E+03</pdfrwt>
<totfact> 0.10169964E+01</totfact>
</mgrwt>
</event>
<event>
 5    0  0.4115852E+000  0.3226811E+03  0.7546771E-02  0.1074422E+00
          2   -1    0    0  502    0 -0.00000000000E+00  0.00000000000E+00  0.31886706223E+04  0.31886706223E+04  0.00000000000E+00 0.  1.
         21   -1    0    0  503  502  0.00000000000E+00 -0.00000000000E+00 -0.26928419349E+03  0.26928419349E+03  0.00000000000E+00 0. -1.
         25    1    1    2    0    0  0.12616633738E+03 -0.29739363501E+03 -0.12486746938E+03  0.36820891318E+03  0.12500000000E+03 0.  0.
         21    1    1    2  503  501 -0.59556909841E+02  0.80939512531E+01  0.43137774427E+02  0.73982465079E+02  0.00000000000E+00 0.  1.
          2    1    1    2  501    0 -0.66609427538E+02  0.28929968376E+03  0.30011161238E+04  0.30157634376E+04  0.00000000000E+00 0.  1.
<mgrwt>
<rscale>  4 0.32268115E+03</rscale>
<asrwt>0</asrwt>
<pdfrwt beam="1">  1       21 0.41428340E-01 0.32268115E+03</pdfrwt>
<pdfrwt beam="2">  1        2 0.49056468E+00 0.32268115E+03</pdfrwt>
<totfact> 0.10680198E+02</totfact>
</mgrwt>
</event>
<event>
 5    0  0.4115852E+000  0.2592227E+03  0.7546771E-02  0.1107611E+00
         21   -1    0    0  503  502  0.00000000000E+00  0.00000000000E+00  0.34959053700E+03  0.34959053700E+03  0.00000000000E+00 0. -1.
          2   -1    0    0  502    0 -0.00000000000E+00 -0.00000000000E+00 -0.19172173368E+03  0.19172173368E+03  0.00000000000E+00 0.  1.
         25    1    1    2    0    0 -0.13334573690E+03 -0.18224580589E+03  0.10004531255E+03  0.27681886475E+03  0.12500000000E+03 0.  0.
         21    1    1    2  503  501 -0.23693859041E+02  0.15233950666E+02  0.43523442933E+00  0.28172000961E+02  0.00000000000E+00 0. -1.
          2    1    1    2  501    0  0.15703959594E+03  0.16701185523E+03  0.57388256340E+02  0.23632140497E+03  0.00000000000E+00 0.  1.
<mgrwt>
<rscale>  4 0.25922271E+03</rscale>
<asrwt>0</asrwt>
<pdfrwt beam="1">  1       21 0.53783160E-01 0.25922271E+03</pdfrwt>
<pdfrwt beam="2">  1        2 0.29495651E-01 0.25922271E+03</pdfrwt>
<totfact> 0.70836898E+03</totfact>
</mgrwt>
</event>
<event>
 5    0  0.4115852E+000  0.2531308E+03  0.7546771E-02  0.1111342E+00
          3   -1    0    0  502    0 -0.00000000000E+00  0.00000000000E+00  0.22735737496E+03  0.22735737496E+03  0.00000000000E+00 0. -1.
         21   -1    0    0  503  502  0.00000000000E+00 -0.00000000000E+00 -0.40506122578E+03  0.40506122578E+03  0.00000000000E+00 0. -1.
         25    1    1    2    0    0 -0.21302631492E+03  0.78529423102E+02 -0.19639235124E+02  0.25991879635E+03  0.12500000000E+03 0.  0.
         21    1    1    2  503  501  0.18123374107E+03 -0.12343725803E+03 -0.20499942183E+03  0.30017859438E+03  0.00000000000E+00 0. -1.
          3    1    1    2  501    0  0.31792573850E+02  0.44907834931E+02  0.46934806131E+02  0.72321210006E+02  0.00000000000E+00 0. -1.
<mgrwt>
<rscale>  4 0.25313076E+03</rscale>
<asrwt>0</asrwt>
<pdfrwt beam="1">  1       21 0.62317111E-01 0.25313076E+03</pdfrwt>
<pdfrwt beam="2">  1        3 0.34978058E-01 0.25313076E+03</pdfrwt>
<totfact> 0.93958041E+02</totfact>
</mgrwt>
</event>
<event>
 5    0  0.4115852E+000  0.2474494E+03  0.7546771E-02  0.1114927E+00
         21   -1    0    0  503  502  0.00000000000E+00  0.00000000000E+00  0.27808259188E+03  0.27808259188E+03  0.00000000000E+00 0.  1.
          2   -1    0    0  502    0 -0.00000000000E+00 -0.00000000000E+00 -0.49311530156E+03  0.49311530156E+03  0.00000000000E+00 0.  1.
         25    1    1    2    0    0  0.19708945284E+03  0.95869820483E+02  0.16837972450E+03  0.30333480928E+03  0.12500000000E+03 0.  0.
         21    1    1    2  503  501 -0.16250831296E+02  0.16733039284E+02  0.59148521437E+01  0.24063864972E+02  0.00000000000E+00 0.  1.
          2    1    1    2  501    0 -0.18083862154E+03 -0.11260285977E+03 -0.38932728632E+03  0.44379921918E+03  0.00000000000E+00 0.  1.
<mgrwt>
<rscale>  4 0.24744937E+03</rscale>
<asrwt>0</asrwt>
<pdfrwt beam="1">  1       21 0.42781937E-01 0.24744937E+03</pdfrwt>
<pdfrwt beam="2">  1        2 0.75863893E-01 0.24744937E+03</pdfrwt>
<totfact> 0.40863350E+03</totfact>
</mgrwt>
</event>
<event>
 5    0  0.4115852E+000  0.4005141E+03  0.7546771E-02  0.1043602E+00
          2   -1    0    0  502    0 -0.00000000000E+00  0.00000000000E+00  0.33554809484E+04  0.33554809484E+04  0.00000000000E+00 0.  1.
         21   -1    0    0  503  502  0.00000000000E+00 -0.00000000000E+00 -0.17633661077E+03  0.17633661077E+03  0.00000000000E+00 0.  1.
         25    1    1    2    0    0  0.14015939676E+03 -0.33400546652E+03  0.13348053314E+04  0.13887168830E+04  0.12500000000E+03 0.  0.
         21    1    1    2  503  501 -0.88677523368E+00 -0.34363213615E+02 -0.12763712216E+03  0.13218491508E+03  0.00000000000E+00 0.  1.
          2    1    1    2  501    0 -0.13927262153E+03  0.36836868014E+03  0.19719761283E+04  0.20109157611E+04  0.00000000000E+00 0.  1.
<mgrwt>
<rscale>  4 0.40051409E+03</rscale>
<asrwt>0</asrwt>
<pdfrwt beam="1">  1       21 0.27128712E-01 0.40051409E+03</pdfrwt>
<pdfrwt beam="2">  1        2 0.51622779E+00 0.40051409E+03</pdfrwt>
<totfact> 0.18754882E+02</totfact>
</mgrwt>
</event>
<event>
 5    0  0.4115852E+000  0.5224972E+03  0.7546771E-02  0.1008477E+00
         21   -1    0    0  503  502  0.00000000000E+00  0.00000000000E+00  0.13022998097E+03  0.13022998097E+03  0.00000000000E+00 0. -1.
          1   -1    0    0  502    0 -0.00000000000E+00 -0.00000000000E+00 -0.20700683430E+04  0.20700683430E+04  0.00000000000E+00 0. -1.
         25    1    1    2    0    0  0.38778043075E+03 -0.31649232046E+03 -0.97083423916E+03  0.10994021882E+04  0.12500000000E+03 0.  0.
         21    1    1    2  503  501 -0.15604380155E+03  0.42168238818E+02 -0.26030980585E+03  0.30641315799E+03  0.00000000000E+00 0. -1.
          1    1    1    2  501    0 -0.23173662920E+03  0.27432408164E+03 -0.70869431698E+03  0.79448297779E+03  0.00000000000E+00 0. -1.
<mgrwt>
<rscale>  4 0.52084333E+03</rscale>
<asrwt>0</asrwt>
<pdfrwt beam="1">  1       21 0.20035384E-01 0.52249719E+03</pdfrwt>
<pdfrwt beam="2">  1        1 0.31847202E+00 0.52249719E+03</pdfrwt>
<totfact> 0.70080307E+02</totfact>
</mgrwt>
</event>
<event>
 5    0  0.4115852E+000  0.2481765E+03  0.7546771E-02  0.1114463E+00
          1   -1    0    0  502    0 -0.00000000000E+00  0.00000000000E+00  0.18953831613E+04  0.18953831613E+04  0.00000000000E+00 0. -1.
         21   -1    0    0  503  502  0.00000000000E+00 -0.00000000000E+00 -0.16338239600E+03  0.16338239600E+03  0.00000000000E+00 0. -1.
         25    1    1    2    0    0  0.28126076998E+03  0.65766879398E+02  0.29711983154E+03  0.43282571256E+03  0.12500000000E+03 0.  0.
         21    1    1    2  503  501 -0.74276919756E+02 -0.59015812492E+02 -0.62954195629E+02  0.11385586362E+03  0.00000000000E+00 0. -1.
          1    1    1    2  501    0 -0.20698385022E+03 -0.67510669065E+01  0.14978351294E+04  0.15120839811E+04  0.00000000000E+00 0. -1.
<mgrwt>
<rscale>  4 0.24817655E+03</rscale>
<asrwt>0</asrwt>
<pdfrwt beam="1">  1       21 0.25135755E-01 0.24817655E+03</pdfrwt>
<pdfrwt beam="2">  1        1 0.29159739E+00 0.24817655E+03</pdfrwt>
<totfact> 0.65273078E+02</totfact>
</mgrwt>
</event>
<event>
 5    0  0.4115852E+000  0.2535594E+03  0.7546771E-02  0.1111076E+00
          1   -1    0    0  502    0 -0.00000000000E+00  0.00000000000E+00  0.99085584843E+03  0.99085584843E+03  0.00000000000E+00 0.  1.
         21   -1    0    0  503  502  0.00000000000E+00 -0.00000000000E+00 -0.34283102949E+03  0.34283102949E+03  0.00000000000E+00 0.  1.
         25    1    1    2    0    0  0.19858565779E+03 -0.37468242621E+02  0.32580750728E+03  0.40325632603E+03  0.12500000000E+03 0.  0.
         21    1    1    2  503  501 -0.52265886357E+02 -0.18453520856E+03 -0.24076529501E+03  0.30781957923E+03  0.00000000000E+00 0.  1.
          1    1    1    2  501    0 -0.14631977144E+03  0.22200345118E+03  0.56298260668E+03  0.62261097266E+03  0.00000000000E+00 0.  1.
<mgrwt>
<rscale>  4 0.25355939E+03</rscale>
<asrwt>0</asrwt>
<pdfrwt beam="1">  1       21 0.52743236E-01 0.25355939E+03</pdfrwt>
<pdfrwt beam="2">  1        1 0.15243936E+00 0.25355939E+03</pdfrwt>
<totfact> 0.60087972E+02</totfact>
</mgrwt>
</event>
<event>
 5    0  0.4115852E+000  0.2287241E+03  0.7546771E-02  0.1127541E+00
         21   -1    0    0  503  502  0.00000000000E+00  0.00000000000E+00  0.12009859242E+04  0.12009859242E+04  0.00000000000E+00 0. -1.
          2   -1    0    0  502    0 -0.00000000000E+00 -0.00000000000E+00 -0.10505157159E+03  0.10505157159E+03  0.00000000000E+00 0. -1.
         25    1    1    2    0    0  0.12216792405E+03  0.19935138732E+03  0.81591226206E+03  0.85790663634E+03  0.12500000000E+03 0.  0.
         21    1    1    2  503  501 -0.73343152583E+01 -0.52621691709E+02  0.25459607652E+03  0.26008075053E+03  0.00000000000E+00 0. -1.
          2    1    1    2  501    0 -0.11483360879E+03 -0.14672969561E+03  0.25426014054E+02  0.18805010894E+03  0.00000000000E+00 0. -1.
<mgrwt>
<rscale>  4 0.22872413E+03</rscale>
<asrwt>0</asrwt>
<pdfrwt beam="1">  1       21 0.18476706E+00 0.22872413E+03</pdfrwt>
<pdfrwt beam="2">  1        2 0.16161781E-01 0.22872413E+03</pdfrwt>
<totfact> 0.71823646E+02</totfact>
</mgrwt>
</event>
<event>
 5    0  0.4115852E+000  0.2545854E+03  0.7546771E-02  0.1110441E+00
         21   -1    0    0  503  502  0.00000000000E+00  0.00000000000E+00  0.11262753680E+03  0.11262753680E+03  0.00000000000E+00 0.  1.
          2   -1    0    0  502    0 -0.00000000000E+00 -0.00000000000E+00 -0.12282422018E+04  0.12282422018E+04  0.00000000000E+00 0.  1.
         25    1    1    2    0    0 -0.11084909963E+03  0.19209682900E+03 -0.61007789741E+02  0.26179317220E+03  0.12500000000E+03 0.  0.
         21    1    1    2  503  501  0.10574235344E+03 -0.14206736398E+03 -0.77441482342E+03  0.79440726328E+03  0.00000000000E+00 0.  1.
          2    1    1    2  501    0  0.51067461857E+01 -0.50029465022E+02 -0.28019205181E+03  0.28466930310E+03  0.00000000000E+00 0.  1.
<mgrwt>
<rscale>  4 0.25458538E+03</rscale>
<asrwt>0</asrwt>
<pdfrwt beam="1">  1       21 0.17327313E-01 0.25458538E+03</pdfrwt>
<pdfrwt beam="2">  1        2 0.18896034E+00 0.25458538E+03</pdfrwt>
<totfact> 0.72624919E+03</totfact>
</mgrwt>
</event>
<event>
 5    0  0.4115852E+000  0.4493874E+03  0.7546771E-02  0.1027905E+00
         21   -1    0    0  503  502  0.00000000000E+00  0.00000000000E+00  0.85552145762E+02  0.85552145762E+02  0.00000000000E+00 0. -1.
          2   -1    0    0  502    0 -0.00000000000E+00 -0.00000000000E+00 -0.31002866860E+04  0.31002866860E+04  0.00000000000E+00 0.  1.
         25    1    1    2    0    0 -0.12163511589E+02  0.46507585561E+03 -0.97603779347E+03  0.10884476454E+04  0.12500000000E+03 0.  0.
         21    1    1    2  503  501 -0.21906828961E+02 -0.47896337675E+02 -0.90262613801E+02  0.10450506097E+03  0.00000000000E+00 0.  1.
          2    1    1    2  501    0  0.34070340550E+02 -0.41717951794E+03 -0.19484341329E+04  0.19928861253E+04  0.00000000000E+00 0.  1.
<mgrwt>
<rscale>  4 0.44938742E+03</rscale>
<asrwt>0</asrwt>
<pdfrwt beam="1">  1       21 0.13161868E-01 0.44938742E+03</pdfrwt>
<pdfrwt beam="2">  1        2 0.47696720E+00 0.44938742E+03</pdfrwt>
<totfact> 0.10472117E+03</totfact>
</mgrwt>
</event>
<event>
 5    0  0.4115852E+000  0.3414908E+03  0.7546771E-02  0.1066163E+00
         21   -1    0    0  503  502  0.00000000000E+00  0.00000000000E+00  0.16968952663E+03  0.16968952663E+03  0.00000000000E+00 0. -1.
          1   -1    0    0  502    0 -0.00000000000E+00 -0.00000000000E+00 -0.75648134776E+03  0.75648134776E+03  0.00000000000E+00 0. -1.
         25    1    1    2    0    0 -0.19105179450E+03  0.25947100695E+03 -0.29648544785E+03  0.45536206739E+03  0.12500000000E+03 0.  0.
         21    1    1    2  503  501  0.32733725479E+02  0.12709910370E+02  0.91351345636E+01  0.36283457510E+02  0.00000000000E+00 0. -1.
          1    1    1    2  501    0  0.15831806902E+03 -0.27218091732E+03 -0.29944150784E+03  0.43452534949E+03  0.00000000000E+00 0. -1.
<mgrwt>
<rscale>  4 0.34149075E+03</rscale>
<asrwt>0</asrwt>
<pdfrwt beam="1">  1       21 0.26106081E-01 0.34149075E+03</pdfrwt>
<pdfrwt beam="2">  1        1 0.11638174E+00 0.34149075E+03</pdfrwt>
<totfact> 0.37381538E+03</totfact>
</mgrwt>
</event>
<event>
 5    0  0.4115852E+000  0.2659823E+03  0.7546771E-02  0.1103601E+00
         21   -1    0    0  503  502  0.00000000000E+00  0.00000000000E+00  0.28839704987E+03  0.28839704987E+03  0.00000000000E+00 0. -1.
          2   -1    0    0  502    0 -0.00000000000E+00 -0.00000000000E+00 -0.14340955701E+04  0.14340955701E+04  0.00000000000E+00 0. -1.
         25    1    1    2    0    0  0.14099402937E+03  0.21472847192E+03  0.14982055272E+03  0.32258151061E+03  0.12500000000E+03 0.  0.
         21    1    1    2  503  501  0.31352237911E+02 -0.56248174992E+02  0.17056777471E+02  0.66616466956E+02  0.00000000000E+00 0. -1.
          2    1    1    2  501    0 -0.17234626728E+03 -0.15848029693E+03 -0.13125758504E+04  0.13332946424E+04  0.00000000000E+00 0. -1.
<mgrwt>
<rscale>  4 0.26598229E+03</rscale>
<asrwt>0</asrwt>
<pdfrwt beam="1">  1       21 0.44368778E-01 0.26598229E+03</pdfrwt>
<pdfrwt beam="2">  1        2 0.22063008E+00 0.26598229E+03</pdfrwt>
<totfact> 0.88994745E+02</totfact>
</mgrwt>
</event>
<event>
 5    0  0.4115852E+000  0.3976080E+03  0.7546771E-02  0.1044611E+00
         21   -1    0    0  503  502  0.00000000000E+00  0.00000000000E+00  0.42944729959E+03  0.42944729959E+03  0.00000000000E+00 0.  1.
          1   -1    0    0  502    0 -0.00000000000E+00 -0.00000000000E+00 -0.40773808963E+03  0.40773808963E+03  0.00000000000E+00 0.  1.
         25    1    1    2    0    0  0.38556598550E+03 -0.69623380484E+01 -0.90805096250E+02  0.41542769386E+03  0.12500000000E+03 0.  0.
         21    1    1    2  503  501 -0.19207441607E+02  0.14578479028E+02  0.42246076430E+02  0.48643487103E+02  0.00000000000E+00 0. -1.
          1    1    1    2  501    0 -0.36635854389E+03 -0.76161409800E+01  0.70268229782E+02  0.37311420825E+03  0.00000000000E+00 0.  1.
<mgrwt>
<rscale>  4 0.39760801E+03</rscale>
<asrwt>0</asrwt>
<pdfrwt beam="1">  1       21 0.66068816E-01 0.39760801E+03</pdfrwt>
<pdfrwt beam="2">  1        1 0.62728937E-01 0.39760801E+03</pdfrwt>
<totfact> 0.12771468E+03</totfact>
</mgrwt>
</event>
<event>
 5    0  0.4115852E+000  0.2363410E+03  0.7546771E-02  0.1122255E+00
         21   -1    0    0  503  502  0.00000000000E+00  0.00000000000E+00  0.37454322437E+02  0.37454322437E+02  0.00000000000E+00 0. -1.
          2   -1    0    0  502    0 -0.00000000000E+00 -0.00000000000E+00 -0.28752672777E+04  0.28752672777E+04  0.00000000000E+00 0.  1.
         25    1    1    2    0    0 -0.79452036572E+02  0.22044506830E+03 -0.72450309210E+03  0.77164654131E+03  0.12500000000E+03 0.  0.
         21    1    1    2  503  501  0.11065133444E+02 -0.38779576964E+02 -0.34065805465E+02  0.52789884160E+02  0.00000000000E+00 0. -1.
          2    1    1    2  501    0  0.68386903128E+02 -0.18166549134E+03 -0.20792440577E+04  0.20882851747E+04  0.00000000000E+00 0.  1.
<mgrwt>
<rscale>  4 0.23634102E+03</rscale>
<asrwt>0</asrwt>
<pdfrwt beam="1">  1       21 0.57622022E-02 0.23634102E+03</pdfrwt>
<pdfrwt beam="2">  1        2 0.44234891E+00 0.23634102E+03</pdfrwt>
<totfact> 0.67007542E+03</totfact>
</mgrwt>
</event>
<event>
 5    0  0.4115852E+000  0.2236419E+03  0.7546771E-02  0.1131197E+00
         21   -1    0    0  503  502  0.00000000000E+00  0.00000000000E+00  0.11879958858E+03  0.11879958858E+03  0.00000000000E+00 0. -1.
          1   -1    0    0  502    0 -0.00000000000E+00 -0.00000000000E+00 -0.18837102855E+04  0.18837102855E+04  0.00000000000E+00 0. -1.
         25    1    1    2    0    0 -0.16169650140E+03  0.13293310858E+03 -0.87373281109E+03  0.90711134658E+03  0.12500000000E+03 0.  0.
         21    1    1    2  503  501  0.43823055083E+02 -0.35766203548E+01  0.89239900762E+02  0.99483728609E+02  0.00000000000E+00 0. -1.
          1    1    1    2  501    0  0.11787344632E+03 -0.12935648823E+03 -0.98041778660E+03  0.99591479890E+03  0.00000000000E+00 0. -1.
<mgrwt>
<rscale>  4 0.22364191E+03</rscale>
<asrwt>0</asrwt>
<pdfrwt beam="1">  1       21 0.18276860E-01 0.22364191E+03</pdfrwt>
<pdfrwt beam="2">  1        1 0.28980158E+00 0.22364191E+03</pdfrwt>
<totfact> 0.12293214E+03</totfact>
</mgrwt>
</event>
<event>
 5    0  0.4115852E+000  0.5818573E+03  0.7546771E-02  0.9943778E-01
         21   -1    0    0  503  502  0.00000000000E+00  0.00000000000E+00  0.19294320947E+03  0.19294320947E+03  0.00000000000E+00 0.  1.
          1   -1    0    0  502    0 -0.00000000000E+00 -0.00000000000E+00 -0.46034333625E+04  0.46034333625E+04  0.00000000000E+00 0. -1.
         25    1    1    2    0    0 -0.41210321998E+02 -0.62110934979E+03 -0.14711687422E+04  0.16023225590E+04  0.12500000000E+03 0.  0.
         21    1    1    2  503  501  0.29632517307E+02  0.73135600737E+02  0.87605122753E+02  0.11790487568E+03  0.00000000000E+00 0.  1.
          1    1    1    2  501    0  0.11577804691E+02  0.54797374905E+03 -0.30269265335E+04  0.30761491373E+04  0.00000000000E+00 0. -1.
<mgrwt>
<rscale>  4 0.58185735E+03</rscale>
<asrwt>0</asrwt>
<pdfrwt beam="1">  1       21 0.29683574E-01 0.58185735E+03</pdfrwt>
<pdfrwt beam="2">  1        1 0.70822044E+00 0.58185735E+03</pdfrwt>
<totfact> 0.33876491E+00</totfact>
</mgrwt>
</event>
<event>
 5    0  0.4115852E+000  0.3338413E+03  0.7546771E-02  0.1069450E+00
         21   -1    0    0  503  502  0.00000000000E+00  0.00000000000E+00  0.43105517909E+03  0.43105517909E+03  0.00000000000E+00 0. -1.
          2   -1    0    0  502    0 -0.00000000000E+00 -0.00000000000E+00 -0.38718117731E+03  0.38718117731E+03  0.00000000000E+00 0. -1.
         25    1    1    2    0    0 -0.27106867536E+03  0.13141431964E+03  0.22945470313E+03  0.39877614141E+03  0.12500000000E+03 0.  0.
         21    1    1    2  503  501 -0.39155636050E+02 -0.29716497060E+00 -0.15009718035E+02  0.41934994658E+02  0.00000000000E+00 0.  1.
          2    1    1    2  501    0  0.31022431141E+03 -0.13111715466E+03 -0.17057098331E+03  0.37752522033E+03  0.00000000000E+00 0. -1.
<mgrwt>
<rscale>  4 0.33384127E+03</rscale>
<asrwt>0</asrwt>
<pdfrwt beam="1">  1       21 0.66316182E-01 0.33384127E+03</pdfrwt>
<pdfrwt beam="2">  1        2 0.59566335E-01 0.33384127E+03</pdfrwt>
<totfact> 0.20518520E+03</totfact>
</mgrwt>
</event>
<event>
 5    0  0.4115852E+000  0.3117955E+03  0.7546771E-02  0.1079488E+00
         21   -1    0    0  503  502  0.00000000000E+00  0.00000000000E+00  0.46109945432E+02  0.46109945432E+02  0.00000000000E+00 0.  1.
          2   -1    0    0  502    0 -0.00000000000E+00 -0.00000000000E+00 -0.26488374966E+04  0.26488374966E+04  0.00000000000E+00 0. -1.
         25    1    1    2    0    0  0.16821227313E+03 -0.21069492459E+03 -0.81972449359E+03  0.87192944982E+03  0.12500000000E+03 0.  0.
         21    1    1    2  503  501  0.28884783016E+02 -0.64520741846E+01 -0.19835214006E+02  0.35628579341E+02  0.00000000000E+00 0.  1.
          2    1    1    2  501    0 -0.19709705615E+03  0.21714699878E+03 -0.17631678436E+04  0.17873894129E+04  0.00000000000E+00 0. -1.
<mgrwt>
<rscale>  4 0.31179545E+03</rscale>
<asrwt>0</asrwt>
<pdfrwt beam="1">  1       21 0.70938365E-02 0.31179545E+03</pdfrwt>
<pdfrwt beam="2">  1        2 0.40751353E+00 0.31179545E+03</pdfrwt>
<totfact> 0.61020311E+03</totfact>
</mgrwt>
</event>
<event>
 5    0  0.4115852E+000  0.2071107E+03  0.7546771E-02  0.1143875E+00
         21   -1    0    0  503  502  0.00000000000E+00  0.00000000000E+00  0.13041366146E+03  0.13041366146E+03  0.00000000000E+00 0.  1.
          2   -1    0    0  502    0 -0.00000000000E+00 -0.00000000000E+00 -0.98874228178E+03  0.98874228178E+03  0.00000000000E+00 0. -1.
         25    1    1    2    0    0 -0.13551899991E+03  0.15536140310E+03 -0.73667558521E+02  0.25210012711E+03  0.12500000000E+03 0.  0.
         21    1    1    2  503  501  0.70789843762E+02 -0.67415169424E+01 -0.56242563332E+01  0.71332196727E+02  0.00000000000E+00 0.  1.
          2    1    1    2  501    0  0.64729156146E+02 -0.14861988616E+03 -0.77903680547E+03  0.79572361941E+03  0.00000000000E+00 0. -1.
<mgrwt>
<rscale>  4 0.20711068E+03</rscale>
<asrwt>0</asrwt>
<pdfrwt beam="1">  1       21 0.20063639E-01 0.20711068E+03</pdfrwt>
<pdfrwt beam="2">  1        2 0.15211420E+00 0.20711068E+03</pdfrwt>
<totfact> 0.77454042E+03</totfact>
</mgrwt>
</event>
<event>
 5    0  0.4115852E+000  0.2669675E+03  0.7546771E-02  0.1103028E+00
         21   -1    0    0  503  502  0.00000000000E+00  0.00000000000E+00  0.12685684794E+03  0.12685684794E+03  0.00000000000E+00 0. -1.
          2   -1    0    0  502    0 -0.00000000000E+00 -0.00000000000E+00 -0.12124620684E+04  0.12124620684E+04  0.00000000000E+00 0. -1.
         25    1    1    2    0    0 -0.18833362211E+03 -0.11996740231E+03 -0.47788717085E+03  0.54209120902E+03  0.12500000000E+03 0.  0.
         21    1    1    2  503  501 -0.39494382651E+02  0.27253573912E+02  0.65090924307E+02  0.80866507153E+02  0.00000000000E+00 0. -1.
          2    1    1    2  501    0  0.22782800476E+03  0.92713828395E+02 -0.67280897391E+03  0.71636120017E+03  0.00000000000E+00 0. -1.
<mgrwt>
<rscale>  4 0.26696753E+03</rscale>
<asrwt>0</asrwt>
<pdfrwt beam="1">  1       21 0.19516438E-01 0.26696753E+03</pdfrwt>
<pdfrwt beam="2">  1        2 0.18653263E+00 0.26696753E+03</pdfrwt>
<totfact> 0.59154424E+03</totfact>
</mgrwt>
</event>
<event>
 5    0  0.4115852E+000  0.1881287E+03  0.7546771E-02  0.1160160E+00
          2   -1    0    0  502    0 -0.00000000000E+00  0.00000000000E+00  0.45434135540E+04  0.45434135540E+04  0.00000000000E+00 0. -1.
         21   -1    0    0  503  502  0.00000000000E+00 -0.00000000000E+00 -0.65707344712E+02  0.65707344712E+02  0.00000000000E+00 0. -1.
         25    1    1    2    0    0 -0.28016486417E+02 -0.21608351954E+03  0.33922354296E+03  0.42210735960E+03  0.12500000000E+03 0.  0.
         21    1    1    2  503  501 -0.40845545382E+02  0.95540038167E+02  0.93897110670E+02  0.14004615262E+03  0.00000000000E+00 0. -1.
          2    1    1    2  501    0  0.68862031799E+02  0.12054348138E+03  0.40445855557E+04  0.40469673865E+04  0.00000000000E+00 0. -1.
<mgrwt>
<rscale>  4 0.18812872E+03</rscale>
<asrwt>0</asrwt>
<pdfrwt beam="1">  1       21 0.10108826E-01 0.18812872E+03</pdfrwt>
<pdfrwt beam="2">  1        2 0.69898646E+00 0.18812872E+03</pdfrwt>
<totfact> 0.16784066E+02</totfact>
</mgrwt>
</event>
<event>
 5    0  0.4115852E+000  0.2181402E+03  0.7546771E-02  0.1135277E+00
         21   -1    0    0  503  502  0.00000000000E+00  0.00000000000E+00  0.15436553451E+04  0.15436553451E+04  0.00000000000E+00 0.  1.
          1   -1    0    0  502    0 -0.00000000000E+00 -0.00000000000E+00 -0.12274045457E+03  0.12274045457E+03  0.00000000000E+00 0.  1.
         25    1    1    2    0    0  0.19208415230E+03 -0.62029512092E+02  0.12237438881E+04  0.12465625077E+04  0.12500000000E+03 0.  0.
         21    1    1    2  503  501 -0.39163248657E+02 -0.28466983896E+02  0.23349910430E+03  0.23846584855E+03  0.00000000000E+00 0. -1.
          1    1    1    2  501    0 -0.15292090364E+03  0.90496495988E+02 -0.36328101856E+02  0.18136744344E+03  0.00000000000E+00 0.  1.
<mgrwt>
<rscale>  4 0.21814020E+03</rscale>
<asrwt>0</asrwt>
<pdfrwt beam="1">  1       21 0.23748542E+00 0.21814020E+03</pdfrwt>
<pdfrwt beam="2">  1        1 0.18883148E-01 0.21814020E+03</pdfrwt>
<totfact> 0.22829941E+02</totfact>
</mgrwt>
</event>
<event>
 5    0  0.4115852E+000  0.2634503E+03  0.7546771E-02  0.1105088E+00
         21   -1    0    0  503  502  0.00000000000E+00  0.00000000000E+00  0.23532256422E+03  0.23532256422E+03  0.00000000000E+00 0.  1.
          1   -1    0    0  502    0 -0.00000000000E+00 -0.00000000000E+00 -0.78207084528E+03  0.78207084528E+03  0.00000000000E+00 0.  1.
         25    1    1    2    0    0 -0.17178570999E+03  0.14544407584E+03  0.92885914596E+02  0.27370988744E+03  0.12500000000E+03 0.  0.
         21    1    1    2  503  501  0.19215698009E+03 -0.16915434807E+03 -0.26758400973E+03  0.37032242807E+03  0.00000000000E+00 0.  1.
          1    1    1    2  501    0 -0.20371270106E+02  0.23710272234E+02 -0.37205018593E+03  0.37336109399E+03  0.00000000000E+00 0.  1.
<mgrwt>
<rscale>  4 0.26345025E+03</rscale>
<asrwt>0</asrwt>
<pdfrwt beam="1">  1       21 0.36203471E-01 0.26345025E+03</pdfrwt>
<pdfrwt beam="2">  1        1 0.12031859E+00 0.26345025E+03</pdfrwt>
<totfact> 0.19043597E+03</totfact>
</mgrwt>
</event>
<event>
 5    0  0.4115852E+000  0.2521567E+03  0.7546771E-02  0.1111949E+00
         21   -1    0    0  503  502  0.00000000000E+00  0.00000000000E+00  0.21846674959E+02  0.21846674959E+02  0.00000000000E+00 0.  1.
          2   -1    0    0  502    0 -0.00000000000E+00 -0.00000000000E+00 -0.33175637135E+04  0.33175637135E+04  0.00000000000E+00 0.  1.
         25    1    1    2    0    0  0.19546641149E+03  0.64669748125E+02 -0.98108222229E+03  0.10102161260E+04  0.12500000000E+03 0.  0.
         21    1    1    2  503  501  0.14006857906E+02  0.14791369944E+02 -0.58153444253E+02  0.61618177283E+02  0.00000000000E+00 0. -1.
          2    1    1    2  501    0 -0.20947326939E+03 -0.79461118069E+02 -0.22564813720E+04  0.22675760852E+04  0.00000000000E+00 0.  1.
<mgrwt>
<rscale>  4 0.25215671E+03</rscale>
<asrwt>0</asrwt>
<pdfrwt beam="1">  1       21 0.33610298E-02 0.25215671E+03</pdfrwt>
<pdfrwt beam="2">  1        2 0.51039398E+00 0.25215671E+03</pdfrwt>
<totfact> 0.89718880E+03</totfact>
</mgrwt>
</event>
<event>
 5    0  0.4115852E+000  0.2136486E+03  0.7546771E-02  0.1138709E+00
         -2   -1    0    0    0  501 -0.00000000000E+00  0.00000000000E+00  0.76963518171E+03  0.76963518171E+03  0.00000000000E+00 0. -1.
         21   -1    0    0  501  502  0.00000000000E+00 -0.00000000000E+00 -0.75666766562E+02  0.75666766562E+02  0.00000000000E+00 0. -1.
         25    1    1    2    0    0  0.61898820906E+01 -0.21055538370E+03  0.30147007717E+03  0.38843415359E+03  0.12500000000E+03 0.  0.
         21    1    1    2  503  502  0.90096595679E+01  0.52230751100E+02  0.29747183180E+02  0.60779274701E+02  0.00000000000E+00 0. -1.
         -2    1    1    2    0  503 -0.15199541659E+02  0.15832463260E+03  0.36275115480E+03  0.39608851999E+03  0.00000000000E+00 0. -1.
<mgrwt>
<rscale>  4 0.21364856E+03</rscale>
<asrwt>0</asrwt>
<pdfrwt beam="1">  1       21 0.11641042E-01 0.21364856E+03</pdfrwt>
<pdfrwt beam="2">  1       -2 0.11840541E+00 0.21364856E+03</pdfrwt>
<totfact> 0.29172944E+03</totfact>
</mgrwt>
</event>
<event>
 5    0  0.4115852E+000  0.3381124E+03  0.7546771E-02  0.1067603E+00
         -1   -1    0    0    0  501 -0.00000000000E+00  0.00000000000E+00  0.57442047595E+03  0.57442047595E+03  0.00000000000E+00 0. -1.
         21   -1    0    0  501  502  0.00000000000E+00 -0.00000000000E+00 -0.25186678641E+03  0.25186678641E+03  0.00000000000E+00 0. -1.
         25    1    1    2    0    0  0.63542298952E+01 -0.31545118469E+03 -0.26974044003E+02  0.34044445246E+03  0.12500000000E+03 0.  0.
         21    1    1    2  503  502  0.24311391800E+02  0.55345815867E+01  0.16567979854E+02  0.29936154079E+02  0.00000000000E+00 0.  1.
         -1    1    1    2    0  503 -0.30665621696E+02  0.30991660311E+03  0.33295975369E+03  0.45590665581E+03  0.00000000000E+00 0. -1.
<mgrwt>
<rscale>  4 0.33811241E+03</rscale>
<asrwt>0</asrwt>
<pdfrwt beam="1">  1       21 0.38748737E-01 0.33811241E+03</pdfrwt>
<pdfrwt beam="2">  1       -1 0.88372380E-01 0.33811241E+03</pdfrwt>
<totfact> 0.75642544E+02</totfact>
</mgrwt>
</event>
<event>
 5    0  0.4115852E+000  0.2684622E+03  0.7546771E-02  0.1102163E+00
         21   -1    0    0  503  502  0.00000000000E+00  0.00000000000E+00  0.26834722080E+03  0.26834722080E+03  0.00000000000E+00 0. -1.
          2   -1    0    0  502    0 -0.00000000000E+00 -0.00000000000E+00 -0.29753005770E+03  0.29753005770E+03  0.00000000000E+00 0. -1.
         25    1    1    2    0    0 -0.63755039616E+02 -0.23212970681E+03 -0.26094891083E+02  0.27249742972E+03  0.12500000000E+03 0.  0.
         21    1    1    2  503  501 -0.27861261333E+02  0.14634970889E+02  0.42631062881E+02  0.52989053382E+02  0.00000000000E+00 0. -1.
          2    1    1    2  501    0  0.91616300949E+02  0.21749473592E+03 -0.45719008700E+02  0.24039079540E+03  0.00000000000E+00 0. -1.
<mgrwt>
<rscale>  4 0.26846225E+03</rscale>
<asrwt>0</asrwt>
<pdfrwt beam="1">  1       21 0.41284188E-01 0.26846225E+03</pdfrwt>
<pdfrwt beam="2">  1        2 0.45773855E-01 0.26846225E+03</pdfrwt>
<totfact> 0.75977096E+03</totfact>
</mgrwt>
</event>
<event>
 5    0  0.4115852E+000  0.2598319E+03  0.7546771E-02  0.1107244E+00
          1   -1    0    0  502    0 -0.00000000000E+00  0.00000000000E+00  0.10442042961E+04  0.10442042961E+04  0.00000000000E+00 0. -1.
         21   -1    0    0  503  502  0.00000000000E+00 -0.00000000000E+00 -0.31376723863E+03  0.31376723863E+03  0.00000000000E+00 0. -1.
         25    1    1    2    0    0  0.20032358497E+03  0.43242590358E+02  0.61923021973E+02  0.24790909820E+03  0.12500000000E+03 0.  0.
         21    1    1    2  503  501  0.22741025089E+02  0.18855693032E+02 -0.20462331204E+03  0.20674474893E+03  0.00000000000E+00 0. -1.
          1    1    1    2  501    0 -0.22306461006E+03 -0.62098283390E+02  0.87313734755E+03  0.90331768761E+03  0.00000000000E+00 0. -1.
<mgrwt>
<rscale>  4 0.25983188E+03</rscale>
<asrwt>0</asrwt>
<pdfrwt beam="1">  1       21 0.48271883E-01 0.25983188E+03</pdfrwt>
<pdfrwt beam="2">  1        1 0.16064681E+00 0.25983188E+03</pdfrwt>
<totfact> 0.65868803E+02</totfact>
</mgrwt>
</event>
<event>
 5    0  0.4115852E+000  0.4779096E+03  0.7546771E-02  0.1019711E+00
         21   -1    0    0  503  502  0.00000000000E+00  0.00000000000E+00  0.27082228634E+03  0.27082228634E+03  0.00000000000E+00 0. -1.
          2   -1    0    0  502    0 -0.00000000000E+00 -0.00000000000E+00 -0.10420989168E+04  0.10420989168E+04  0.00000000000E+00 0. -1.
         25    1    1    2    0    0 -0.42994115469E+03 -0.93914397037E+02 -0.26379840474E+03  0.52809460214E+03  0.12500000000E+03 0.  0.
         21    1    1    2  503  501 -0.27123566321E+02 -0.39039011119E+02  0.37999420274E+02  0.60857934406E+02  0.00000000000E+00 0. -1.
          2    1    1    2  501    0  0.45706472101E+03  0.13295340816E+03 -0.54547764600E+03  0.72396866660E+03  0.00000000000E+00 0. -1.
<mgrwt>
<rscale>  4 0.47790958E+03</rscale>
<asrwt>0</asrwt>
<pdfrwt beam="1">  1       21 0.41664968E-01 0.47790958E+03</pdfrwt>
<pdfrwt beam="2">  1        2 0.16032291E+00 0.47790958E+03</pdfrwt>
<totfact> 0.15883124E+03</totfact>
</mgrwt>
</event>
<event>
 5    0  0.4115852E+000  0.2629174E+03  0.7546771E-02  0.1105403E+00
         21   -1    0    0  501  502  0.00000000000E+00  0.00000000000E+00  0.62565420033E+03  0.62565420033E+03  0.00000000000E+00 0. -1.
         -1   -1    0    0    0  501 -0.00000000000E+00 -0.00000000000E+00 -0.39338145601E+03  0.39338145601E+03  0.00000000000E+00 0. -1.
         25    1    1    2    0    0  0.21225371342E+03 -0.26575968804E+02  0.33449921710E+03  0.41626031185E+03  0.12500000000E+03 0.  0.
         21    1    1    2  503  502  0.19967045654E+02  0.63028471609E+01  0.21116285495E+03  0.21219839798E+03  0.00000000000E+00 0. -1.
         -1    1    1    2    0  503 -0.23222075908E+03  0.20273121643E+02 -0.31338932773E+03  0.39057694651E+03  0.00000000000E+00 0. -1.
<mgrwt>
<rscale>  4 0.26291741E+03</rscale>
<asrwt>0</asrwt>
<pdfrwt beam="1">  1       21 0.96254492E-01 0.26291741E+03</pdfrwt>
<pdfrwt beam="2">  1       -1 0.60520224E-01 0.26291741E+03</pdfrwt>
<totfact> 0.22961667E+02</totfact>
</mgrwt>
</event>
<event>
 5    0  0.4115852E+000  0.2569053E+03  0.7546771E-02  0.1109017E+00
         21   -1    0    0  503  502  0.00000000000E+00  0.00000000000E+00  0.86853280189E+02  0.86853280189E+02  0.00000000000E+00 0.  1.
          1   -1    0    0  502    0 -0.00000000000E+00 -0.00000000000E+00 -0.19840148993E+04  0.19840148993E+04  0.00000000000E+00 0. -1.
         25    1    1    2    0    0  0.13208951527E+02  0.23906054921E+03 -0.23386255010E+03  0.35726896720E+03  0.12500000000E+03 0.  0.
         21    1    1    2  503  501  0.10156115715E+02 -0.17602434851E+02  0.11976010579E+02  0.23588497800E+02  0.00000000000E+00 0.  1.
          1    1    1    2  501    0 -0.23365067242E+02 -0.22145811435E+03 -0.16752750796E+04  0.16900107145E+04  0.00000000000E+00 0. -1.
<mgrwt>
<rscale>  4 0.25690531E+03</rscale>
<asrwt>0</asrwt>
<pdfrwt beam="1">  1       21 0.13362044E-01 0.25690531E+03</pdfrwt>
<pdfrwt beam="2">  1        1 0.30523304E+00 0.25690531E+03</pdfrwt>
<totfact> 0.18510253E+03</totfact>
</mgrwt>
</event>
<event>
 5    0  0.4115852E+000  0.3222337E+03  0.7546771E-02  0.1074626E+00
          2   -1    0    0  502    0 -0.00000000000E+00  0.00000000000E+00  0.16852593456E+04  0.16852593456E+04  0.00000000000E+00 0. -1.
         21   -1    0    0  503  502  0.00000000000E+00 -0.00000000000E+00 -0.10987980124E+04  0.10987980124E+04  0.00000000000E+00 0.  1.
         25    1    1    2    0    0 -0.18167252771E+03 -0.24329857159E+03 -0.87994949894E+03  0.93922054011E+03  0.12500000000E+03 0.  0.
         21    1    1    2  503  501  0.32377618966E+02 -0.13372144253E+02 -0.17414120665E+03  0.17762962677E+03  0.00000000000E+00 0.  1.
          2    1    1    2  501    0  0.14929490874E+03  0.25667071585E+03  0.16405520388E+04  0.16672071911E+04  0.00000000000E+00 0. -1.
<mgrwt>
<rscale>  4 0.32223371E+03</rscale>
<asrwt>0</asrwt>
<pdfrwt beam="1">  1       21 0.16904585E+00 0.32223371E+03</pdfrwt>
<pdfrwt beam="2">  1        2 0.25927067E+00 0.32223371E+03</pdfrwt>
<totfact> 0.26961065E+01</totfact>
</mgrwt>
</event>
<event>
 5    0  0.4115852E+000  0.2839829E+03  0.7546771E-02  0.1093533E+00
          2   -1    0    0  502    0 -0.00000000000E+00  0.00000000000E+00  0.55165444656E+03  0.55165444656E+03  0.00000000000E+00 0.  1.
         21   -1    0    0  503  502  0.00000000000E+00 -0.00000000000E+00 -0.65198992295E+03  0.65198992295E+03  0.00000000000E+00 0.  1.
         25    1    1    2    0    0 -0.29503845096E+03  0.75344009902E+01  0.37328112933E+03  0.49200432545E+03  0.12500000000E+03 0.  0.
         21    1    1    2  503  501  0.25243170629E+03  0.56129177666E+01 -0.56007589655E+03  0.61436005818E+03  0.00000000000E+00 0.  1.
          2    1    1    2  501    0  0.42606744666E+02 -0.13147318757E+02  0.86459290830E+02  0.97279985877E+02  0.00000000000E+00 0.  1.
<mgrwt>
<rscale>  4 0.28398293E+03</rscale>
<asrwt>0</asrwt>
<pdfrwt beam="1">  1       21 0.10030614E+00 0.28398293E+03</pdfrwt>
<pdfrwt beam="2">  1        2 0.84869915E-01 0.28398293E+03</pdfrwt>
<totfact> 0.54206601E+02</totfact>
</mgrwt>
</event>
<event>
 5    0  0.4115852E+000  0.4343376E+03  0.7546771E-02  0.1032498E+00
         21   -1    0    0  503  502  0.00000000000E+00  0.00000000000E+00  0.25052220300E+03  0.25052220300E+03  0.00000000000E+00 0. -1.
          2   -1    0    0  502    0 -0.00000000000E+00 -0.00000000000E+00 -0.32698178547E+04  0.32698178547E+04  0.00000000000E+00 0.  1.
         25    1    1    2    0    0  0.19882686022E+03 -0.34660620772E+03 -0.29055757203E+02  0.41968705079E+03  0.12500000000E+03 0.  0.
         21    1    1    2  503  501  0.23689953005E+02 -0.62812467287E+01  0.37230765851E+02  0.44573510740E+02  0.00000000000E+00 0. -1.
          2    1    1    2  501    0 -0.22251681322E+03  0.35288745445E+03 -0.30274706604E+04  0.30560794962E+04  0.00000000000E+00 0.  1.
<mgrwt>
<rscale>  4 0.43433757E+03</rscale>
<asrwt>0</asrwt>
<pdfrwt beam="1">  1       21 0.38541880E-01 0.43433757E+03</pdfrwt>
<pdfrwt beam="2">  1        2 0.50304887E+00 0.43433757E+03</pdfrwt>
<totfact> 0.10373787E+02</totfact>
</mgrwt>
</event>
<event>
 5    0  0.4115852E+000  0.2787788E+03  0.7546771E-02  0.1096358E+00
          2   -1    0    0  502    0 -0.00000000000E+00  0.00000000000E+00  0.92281674284E+03  0.92281674284E+03  0.00000000000E+00 0. -1.
         21   -1    0    0  503  502  0.00000000000E+00 -0.00000000000E+00 -0.22390189637E+03  0.22390189637E+03  0.00000000000E+00 0.  1.
         25    1    1    2    0    0 -0.29898840116E+02 -0.23385466258E+03  0.19285815297E+03  0.32924339176E+03  0.12500000000E+03 0.  0.
         21    1    1    2  503  501  0.33417770223E+02 -0.20783323578E+02 -0.12814623855E+03  0.13405279692E+03  0.00000000000E+00 0.  1.
          2    1    1    2  501    0 -0.35189301074E+01  0.25463798616E+03  0.63420293205E+03  0.68342245053E+03  0.00000000000E+00 0. -1.
<mgrwt>
<rscale>  4 0.27877876E+03</rscale>
<asrwt>0</asrwt>
<pdfrwt beam="1">  1       21 0.34446446E-01 0.27877876E+03</pdfrwt>
<pdfrwt beam="2">  1        2 0.14197180E+00 0.27877876E+03</pdfrwt>
<totfact> 0.29284757E+03</totfact>
</mgrwt>
</event>
<event>
 5    0  0.4115852E+000  0.3199389E+03  0.7546771E-02  0.1075677E+00
         21   -1    0    0  503  502  0.00000000000E+00  0.00000000000E+00  0.31198609079E+03  0.31198609079E+03  0.00000000000E+00 0.  1.
          1   -1    0    0  502    0 -0.00000000000E+00 -0.00000000000E+00 -0.19441633565E+04  0.19441633565E+04  0.00000000000E+00 0. -1.
         25    1    1    2    0    0 -0.10513504063E+03 -0.19795450541E+03  0.17908487313E+03  0.31294688809E+03  0.12500000000E+03 0.  0.
         21    1    1    2  503  501  0.39322252884E+02 -0.93060424099E+02  0.63864357378E+01  0.10122879366E+03  0.00000000000E+00 0.  1.
          1    1    1    2  501    0  0.65812787748E+02  0.29101492951E+03 -0.18176485746E+04  0.18419737655E+04  0.00000000000E+00 0. -1.
<mgrwt>
<rscale>  4 0.31993885E+03</rscale>
<asrwt>0</asrwt>
<pdfrwt beam="1">  1       21 0.47997861E-01 0.31993885E+03</pdfrwt>
<pdfrwt beam="2">  1        1 0.29910205E+00 0.31993885E+03</pdfrwt>
<totfact> 0.15962991E+02</totfact>
</mgrwt>
</event>
<event>
 5    0  0.4115852E+000  0.2241423E+03  0.7546771E-02  0.1130832E+00
          1   -1    0    0  502    0 -0.00000000000E+00  0.00000000000E+00  0.16074326290E+04  0.16074326290E+04  0.00000000000E+00 0.  1.
         21   -1    0    0  503  502  0.00000000000E+00 -0.00000000000E+00 -0.10253755200E+03  0.10253755200E+03  0.00000000000E+00 0.  1.
         25    1    1    2    0    0 -0.19803688667E+03  0.10023944566E+03  0.14093780690E+03  0.29112715497E+03  0.12500000000E+03 0.  0.
         21    1    1    2  503  501  0.18756264256E+02 -0.60728261534E+02  0.26527968253E+02  0.68872725352E+02  0.00000000000E+00 0.  1.
          1    1    1    2  501    0  0.17928062242E+03 -0.39511184127E+02  0.13374293019E+04  0.13499703007E+04  0.00000000000E+00 0.  1.
<mgrwt>
<rscale>  4 0.22414234E+03</rscale>
<asrwt>0</asrwt>
<pdfrwt beam="1">  1       21 0.15775009E-01 0.22414234E+03</pdfrwt>
<pdfrwt beam="2">  1        1 0.24729731E+00 0.22414234E+03</pdfrwt>
<totfact> 0.24363934E+03</totfact>
</mgrwt>
</event>
<event>
 5    0  0.4115852E+000  0.2549758E+03  0.7546771E-02  0.1110200E+00
          2   -1    0    0  502    0 -0.00000000000E+00  0.00000000000E+00  0.98523524451E+03  0.98523524451E+03  0.00000000000E+00 0. -1.
         21   -1    0    0  503  502  0.00000000000E+00 -0.00000000000E+00 -0.30627886606E+03  0.30627886606E+03  0.00000000000E+00 0. -1.
         25    1    1    2    0    0  0.19583521363E+03  0.28714685989E+03 -0.10032493057E+03  0.38274644575E+03  0.12500000000E+03 0.  0.
         21    1    1    2  503  501 -0.23862647416E+02 -0.15819732596E+03  0.83348560233E+02  0.18039623714E+03  0.00000000000E+00 0. -1.
          2    1    1    2  501    0 -0.17197256621E+03 -0.12894953393E+03  0.69593274878E+03  0.72837142768E+03  0.00000000000E+00 0. -1.
<mgrwt>
<rscale>  4 0.25497577E+03</rscale>
<asrwt>0</asrwt>
<pdfrwt beam="1">  1       21 0.47119826E-01 0.25497577E+03</pdfrwt>
<pdfrwt beam="2">  1        2 0.15157465E+00 0.25497577E+03</pdfrwt>
<totfact> 0.14250999E+03</totfact>
</mgrwt>
</event>
<event>
 5    0  0.4115852E+000  0.4791357E+03  0.7546771E-02  0.1019373E+00
         -3   -1    0    0    0  501 -0.00000000000E+00  0.00000000000E+00  0.37499064106E+03  0.37499064106E+03  0.00000000000E+00 0.  1.
         21   -1    0    0  501  502  0.00000000000E+00 -0.00000000000E+00 -0.64306105355E+03  0.64306105355E+03  0.00000000000E+00 0.  1.
         25    1    1    2    0    0  0.38082359952E+03 -0.26252496695E+03 -0.87659520325E+01  0.47921583252E+03  0.12500000000E+03 0.  0.
         21    1    1    2  503  502 -0.20573564147E+02  0.67789720909E+01 -0.40257910195E+02  0.45715701215E+02  0.00000000000E+00 0. -1.
         -3    1    1    2    0  503 -0.36025003537E+03  0.25574599486E+03 -0.21904655026E+03  0.49312016087E+03  0.00000000000E+00 0.  1.
<mgrwt>
<rscale>  4 0.47913565E+03</rscale>
<asrwt>0</asrwt>
<pdfrwt beam="1">  1       21 0.98932469E-01 0.47913565E+03</pdfrwt>
<pdfrwt beam="2">  1       -3 0.57690868E-01 0.47913565E+03</pdfrwt>
<totfact> 0.11540705E+02</totfact>
</mgrwt>
</event>
<event>
 5    0  0.4115852E+000  0.3189708E+03  0.7546771E-02  0.1076124E+00
          2   -1    0    0  502    0 -0.00000000000E+00  0.00000000000E+00  0.26146163364E+04  0.26146163364E+04  0.00000000000E+00 0.  1.
         21   -1    0    0  503  502  0.00000000000E+00 -0.00000000000E+00 -0.46782429645E+02  0.46782429645E+02  0.00000000000E+00 0.  1.
         25    1    1    2    0    0  0.28047119578E+03 -0.12062841731E+03  0.87978125967E+03  0.93960383758E+03  0.12500000000E+03 0.  0.
         21    1    1    2  503  501 -0.10564352352E+02  0.18368241446E+02  0.20621716796E+02  0.29567770259E+02  0.00000000000E+00 0.  1.
          2    1    1    2  501    0 -0.26990684343E+03  0.10226017586E+03  0.16674309302E+04  0.16922271582E+04  0.00000000000E+00 0.  1.
<mgrwt>
<rscale>  4 0.31897077E+03</rscale>
<asrwt>0</asrwt>
<pdfrwt beam="1">  1       21 0.71972989E-02 0.31897077E+03</pdfrwt>
<pdfrwt beam="2">  1        2 0.40224855E+00 0.31897077E+03</pdfrwt>
<totfact> 0.62030254E+03</totfact>
</mgrwt>
</event>
<event>
 5    0  0.4115852E+000  0.3127957E+03  0.7546771E-02  0.1079014E+00
         -3   -1    0    0    0  501 -0.00000000000E+00  0.00000000000E+00  0.16355649648E+04  0.16355649648E+04  0.00000000000E+00 0.  1.
         21   -1    0    0  501  502  0.00000000000E+00 -0.00000000000E+00 -0.21320317303E+04  0.21320317303E+04  0.00000000000E+00 0.  1.
         25    1    1    2    0    0 -0.26277654122E+03  0.61750608223E+01 -0.11199794418E+04  0.11571813134E+04  0.12500000000E+03 0.  0.
         21    1    1    2  503  502 -0.23832409039E+02  0.88394659269E+01 -0.98055004300E+03  0.98087945574E+03  0.00000000000E+00 0.  1.
         -3    1    1    2    0  503  0.28660895026E+03 -0.15014526749E+02  0.16040627194E+04  0.16295359260E+04  0.00000000000E+00 0.  1.
<mgrwt>
<rscale>  4 0.31279568E+03</rscale>
<asrwt>0</asrwt>
<pdfrwt beam="1">  1       21 0.32800488E+00 0.31279568E+03</pdfrwt>
<pdfrwt beam="2">  1       -3 0.25162538E+00 0.31279568E+03</pdfrwt>
<totfact> 0.80405829E-02</totfact>
</mgrwt>
</event>
<event>
 5    0  0.4115852E+000  0.2713174E+03  0.7546771E-02  0.1100528E+00
          1   -1    0    0  502    0 -0.00000000000E+00  0.00000000000E+00  0.19891564258E+04  0.19891564258E+04  0.00000000000E+00 0.  1.
         21   -1    0    0  503  502  0.00000000000E+00 -0.00000000000E+00 -0.24715437865E+03  0.24715437865E+03  0.00000000000E+00 0. -1.
         25    1    1    2    0    0  0.15575439594E+03 -0.14199635361E+03  0.72523032236E+02  0.25555231656E+03  0.12500000000E+03 0.  0.
         21    1    1    2  503  501  0.20748260994E+02 -0.25720551872E+02 -0.14566040974E+03  0.14936194993E+03  0.00000000000E+00 0. -1.
          1    1    1    2  501    0 -0.17650265694E+03  0.16771690549E+03  0.18151394246E+04  0.18313965379E+04  0.00000000000E+00 0.  1.
<mgrwt>
<rscale>  4 0.27131738E+03</rscale>
<asrwt>0</asrwt>
<pdfrwt beam="1">  1       21 0.38023752E-01 0.27131738E+03</pdfrwt>
<pdfrwt beam="2">  1        1 0.30602405E+00 0.27131738E+03</pdfrwt>
<totfact> 0.24769780E+02</totfact>
</mgrwt>
</event>
<event>
 5    0  0.4115852E+000  0.2400985E+03  0.7546771E-02  0.1119727E+00
         21   -1    0    0  503  502  0.00000000000E+00  0.00000000000E+00  0.43618346390E+03  0.43618346390E+03  0.00000000000E+00 0.  1.
          2   -1    0    0  502    0 -0.00000000000E+00 -0.00000000000E+00 -0.25403007077E+04  0.25403007077E+04  0.00000000000E+00 0. -1.
         25    1    1    2    0    0 -0.18065689175E+03  0.18182767717E+03  0.31502862927E+03  0.42493088142E+03  0.12500000000E+03 0.  0.
         21    1    1    2  503  501  0.21706277791E+01 -0.81981905178E+02  0.34808097169E+02  0.89091795527E+02  0.00000000000E+00 0. -1.
          2    1    1    2  501    0  0.17848626397E+03 -0.99845771994E+02 -0.24539539702E+04  0.24624614946E+04  0.00000000000E+00 0. -1.
<mgrwt>
<rscale>  4 0.24009849E+03</rscale>
<asrwt>0</asrwt>
<pdfrwt beam="1">  1       21 0.67105149E-01 0.24009849E+03</pdfrwt>
<pdfrwt beam="2">  1        2 0.39081549E+00 0.24009849E+03</pdfrwt>
<totfact> 0.96901318E+01</totfact>
</mgrwt>
</event>
<event>
 5    0  0.4115852E+000  0.2746209E+03  0.7546771E-02  0.1098664E+00
         21   -1    0    0  503  502  0.00000000000E+00  0.00000000000E+00  0.25621265946E+03  0.25621265946E+03  0.00000000000E+00 0.  1.
          2   -1    0    0  502    0 -0.00000000000E+00 -0.00000000000E+00 -0.39407791372E+03  0.39407791372E+03  0.00000000000E+00 0.  1.
         25    1    1    2    0    0 -0.15953404823E+03  0.16477231640E+03  0.35860557196E+02  0.26365130070E+03  0.12500000000E+03 0.  0.
         21    1    1    2  503  501 -0.11196232272E+02  0.18182021715E+02  0.47850173281E+02  0.52398288271E+02  0.00000000000E+00 0.  1.
          2    1    1    2  501    0  0.17073028050E+03 -0.18295433812E+03 -0.22157598474E+03  0.33424098421E+03  0.00000000000E+00 0.  1.
<mgrwt>
<rscale>  4 0.27462092E+03</rscale>
<asrwt>0</asrwt>
<pdfrwt beam="1">  1       21 0.39417332E-01 0.27462092E+03</pdfrwt>
<pdfrwt beam="2">  1        2 0.60627371E-01 0.27462092E+03</pdfrwt>
<totfact> 0.61456228E+03</totfact>
</mgrwt>
</event>
<event>
 5    0  0.4115852E+000  0.2375263E+03  0.7546771E-02  0.1121452E+00
         21   -1    0    0  501  502  0.00000000000E+00  0.00000000000E+00  0.18004724943E+03  0.18004724943E+03  0.00000000000E+00 0.  1.
         -2   -1    0    0    0  501 -0.00000000000E+00 -0.00000000000E+00 -0.72740319440E+03  0.72740319440E+03  0.00000000000E+00 0. -1.
         25    1    1    2    0    0  0.25879992650E+03 -0.14231044492E+03 -0.23085434280E+03  0.39515616189E+03  0.12500000000E+03 0.  0.
         21    1    1    2  503  502 -0.12576806279E+03  0.12381178514E+03 -0.89707802571E+01  0.17671287066E+03  0.00000000000E+00 0.  1.
         -2    1    1    2    0  503 -0.13303186371E+03  0.18498659783E+02 -0.30753082191E+03  0.33558141129E+03  0.00000000000E+00 0. -1.
<mgrwt>
<rscale>  4 0.23752632E+03</rscale>
<asrwt>0</asrwt>
<pdfrwt beam="1">  1       21 0.27699577E-01 0.23752632E+03</pdfrwt>
<pdfrwt beam="2">  1       -2 0.11190818E+00 0.23752632E+03</pdfrwt>
<totfact> 0.66286344E+02</totfact>
</mgrwt>
</event>
<event>
 5    0  0.4115852E+000  0.3489409E+03  0.7546771E-02  0.1063051E+00
          2   -1    0    0  502    0 -0.00000000000E+00  0.00000000000E+00  0.12784166148E+04  0.12784166148E+04  0.00000000000E+00 0. -1.
         21   -1    0    0  503  502  0.00000000000E+00 -0.00000000000E+00 -0.22108744019E+03  0.22108744019E+03  0.00000000000E+00 0. -1.
         25    1    1    2    0    0 -0.15737052803E+03 -0.26515901250E+03 -0.26329554842E+01  0.33272618992E+03  0.12500000000E+03 0.  0.
         21    1    1    2  503  501 -0.12524009224E+02 -0.15773856374E+02 -0.25647346865E+02  0.32610607985E+02  0.00000000000E+00 0. -1.
          2    1    1    2  501    0  0.16989453726E+03  0.28093286887E+03  0.10856094769E+04  0.11341672571E+04  0.00000000000E+00 0. -1.
<mgrwt>
<rscale>  4 0.34894085E+03</rscale>
<asrwt>0</asrwt>
<pdfrwt beam="1">  1       21 0.34013453E-01 0.34894085E+03</pdfrwt>
<pdfrwt beam="2">  1        2 0.19667948E+00 0.34894085E+03</pdfrwt>
<totfact> 0.18037086E+03</totfact>
</mgrwt>
</event>
<event>
 5    0  0.4115852E+000  0.2796581E+03  0.7546771E-02  0.1095876E+00
         21   -1    0    0  501  502  0.00000000000E+00  0.00000000000E+00  0.22271600620E+03  0.22271600620E+03  0.00000000000E+00 0.  1.
         -1   -1    0    0    0  501 -0.00000000000E+00 -0.00000000000E+00 -0.39684230974E+03  0.39684230974E+03  0.00000000000E+00 0.  1.
         25    1    1    2    0    0 -0.16978402915E+03 -0.17402994597E+03 -0.16193972567E+03  0.31774598880E+03  0.12500000000E+03 0.  0.
         21    1    1    2  503  502  0.20623474979E+03  0.15092756744E+03 -0.25034497697E+02  0.25678518008E+03  0.00000000000E+00 0.  1.
         -1    1    1    2    0  503 -0.36450720640E+02  0.23102378531E+02  0.12847919818E+02  0.45027147063E+02  0.00000000000E+00 0.  1.
<mgrwt>
<rscale>  4 0.27965810E+03</rscale>
<asrwt>0</asrwt>
<pdfrwt beam="1">  1       21 0.34264001E-01 0.27965810E+03</pdfrwt>
<pdfrwt beam="2">  1       -1 0.61052664E-01 0.27965810E+03</pdfrwt>
<totfact> 0.20912150E+03</totfact>
</mgrwt>
</event>
<event>
 5    0  0.4115852E+000  0.2623447E+03  0.7546771E-02  0.1105743E+00
          1   -1    0    0  502    0 -0.00000000000E+00  0.00000000000E+00  0.15590249503E+04  0.15590249503E+04  0.00000000000E+00 0. -1.
         21   -1    0    0  503  502  0.00000000000E+00 -0.00000000000E+00 -0.74383309842E+02  0.74383309842E+02  0.00000000000E+00 0. -1.
         25    1    1    2    0    0  0.13622630320E+03  0.20578550556E+03  0.11070049092E+04  0.11410478294E+04  0.12500000000E+03 0.  0.
         21    1    1    2  503  501 -0.26293907466E+02 -0.30740324723E+02 -0.19306591799E+02  0.44822780155E+02  0.00000000000E+00 0. -1.
          1    1    1    2  501    0 -0.10993239574E+03 -0.17504518084E+03  0.39694332298E+03  0.44753765051E+03  0.00000000000E+00 0. -1.
<mgrwt>
<rscale>  4 0.26234466E+03</rscale>
<asrwt>0</asrwt>
<pdfrwt beam="1">  1       21 0.11443587E-01 0.26234466E+03</pdfrwt>
<pdfrwt beam="2">  1        1 0.23984997E+00 0.26234466E+03</pdfrwt>
<totfact> 0.46231918E+03</totfact>
</mgrwt>
</event>
<event>
 5    0  0.4115852E+000  0.2647106E+03  0.7546771E-02  0.1104346E+00
         21   -1    0    0  503  502  0.00000000000E+00  0.00000000000E+00  0.21880030107E+03  0.21880030107E+03  0.00000000000E+00 0. -1.
          2   -1    0    0  502    0 -0.00000000000E+00 -0.00000000000E+00 -0.21552895841E+04  0.21552895841E+04  0.00000000000E+00 0. -1.
         25    1    1    2    0    0  0.25991157958E+03  0.15992335531E+02  0.74221551470E+02  0.29823417426E+03  0.12500000000E+03 0.  0.
         21    1    1    2  503  501 -0.29050873272E+02 -0.43644260479E+02 -0.69171211478E+00  0.52433321240E+02  0.00000000000E+00 0. -1.
          2    1    1    2  501    0 -0.23086070630E+03  0.27651924948E+02 -0.20100191224E+04  0.20234223896E+04  0.00000000000E+00 0. -1.
<mgrwt>
<rscale>  4 0.26471060E+03</rscale>
<asrwt>0</asrwt>
<pdfrwt beam="1">  1       21 0.33661584E-01 0.26471060E+03</pdfrwt>
<pdfrwt beam="2">  1        2 0.33158302E+00 0.26471060E+03</pdfrwt>
<totfact> 0.64791042E+02</totfact>
</mgrwt>
</event>
<event>
 5    0  0.4115852E+000  0.1995892E+03  0.7546771E-02  0.1150086E+00
         -1   -1    0    0    0  501 -0.00000000000E+00  0.00000000000E+00  0.84075732478E+03  0.84075732478E+03  0.00000000000E+00 0.  1.
         21   -1    0    0  501  502  0.00000000000E+00 -0.00000000000E+00 -0.93670989824E+03  0.93670989824E+03  0.00000000000E+00 0.  1.
         25    1    1    2    0    0 -0.59096288080E+02 -0.23423546910E+03 -0.76673101181E+03  0.81354782940E+03  0.12500000000E+03 0.  0.
         21    1    1    2  503  502  0.10735179602E+03  0.86811672939E+02 -0.10457871111E+03  0.17319752159E+03  0.00000000000E+00 0.  1.
         -1    1    1    2    0  503 -0.48255507939E+02  0.14742379616E+03  0.77535714945E+03  0.79072187204E+03  0.00000000000E+00 0.  1.
<mgrwt>
<rscale>  4 0.19958919E+03</rscale>
<asrwt>0</asrwt>
<pdfrwt beam="1">  1       21 0.14410921E+00 0.19958919E+03</pdfrwt>
<pdfrwt beam="2">  1       -1 0.12934728E+00 0.19958919E+03</pdfrwt>
<totfact> 0.17151875E+01</totfact>
</mgrwt>
</event>
<event>
 5    0  0.4115852E+000  0.2266270E+03  0.7546771E-02  0.1129037E+00
         21   -1    0    0  503  502  0.00000000000E+00  0.00000000000E+00  0.11657378370E+03  0.11657378370E+03  0.00000000000E+00 0.  1.
          1   -1    0    0  502    0 -0.00000000000E+00 -0.00000000000E+00 -0.24809750362E+04  0.24809750362E+04  0.00000000000E+00 0. -1.
         25    1    1    2    0    0 -0.17015810537E+03  0.11680299247E+03 -0.63989857082E+03  0.68388003393E+03  0.12500000000E+03 0.  0.
         21    1    1    2  503  501  0.31232831928E+02  0.62230094415E+01  0.87020968344E+02  0.92665336390E+02  0.00000000000E+00 0.  1.
          1    1    1    2  501    0  0.13892527344E+03 -0.12302600192E+03 -0.18115236501E+04  0.18210034496E+04  0.00000000000E+00 0. -1.
<mgrwt>
<rscale>  4 0.22662703E+03</rscale>
<asrwt>0</asrwt>
<pdfrwt beam="1">  1       21 0.17934428E-01 0.22662703E+03</pdfrwt>
<pdfrwt beam="2">  1        1 0.38168847E+00 0.22662703E+03</pdfrwt>
<totfact> 0.51933758E+02</totfact>
</mgrwt>
</event>
<event>
 5    0  0.4115852E+000  0.2889064E+03  0.7546771E-02  0.1090922E+00
          1   -1    0    0  502    0 -0.00000000000E+00  0.00000000000E+00  0.13981271722E+04  0.13981271722E+04  0.00000000000E+00 0.  1.
         21   -1    0    0  503  502  0.00000000000E+00 -0.00000000000E+00 -0.13962283904E+03  0.13962283904E+03  0.00000000000E+00 0.  1.
         25    1    1    2    0    0 -0.28721701300E+03  0.36852056579E+02  0.21561461132E+03  0.38205542431E+03  0.12500000000E+03 0.  0.
         21    1    1    2  503  501  0.31619931317E+02 -0.45269974584E+02 -0.22806116075E+02  0.59743699130E+02  0.00000000000E+00 0.  1.
          1    1    1    2  501    0  0.25559708169E+03  0.84179180049E+01  0.10656958379E+04  0.10959508878E+04  0.00000000000E+00 0.  1.
<mgrwt>
<rscale>  4 0.28890641E+03</rscale>
<asrwt>0</asrwt>
<pdfrwt beam="1">  1       21 0.21480438E-01 0.28890641E+03</pdfrwt>
<pdfrwt beam="2">  1        1 0.21509648E+00 0.28890641E+03</pdfrwt>
<totfact> 0.18356537E+03</totfact>
</mgrwt>
</event>
<event>
 5    0  0.4115852E+000  0.3041052E+03  0.7546771E-02  0.1083206E+00
          2   -1    0    0  502    0 -0.00000000000E+00  0.00000000000E+00  0.18301967698E+04  0.18301967698E+04  0.00000000000E+00 0.  1.
         21   -1    0    0  503  502  0.00000000000E+00 -0.00000000000E+00 -0.64538725970E+02  0.64538725970E+02  0.00000000000E+00 0.  1.
         25    1    1    2    0    0  0.13677271265E+02 -0.23911009311E+03  0.46872120405E+03  0.54100394777E+03  0.12500000000E+03 0.  0.
         21    1    1    2  503  501 -0.45377594620E+02 -0.57072973541E+02  0.12673648793E+03  0.14621418459E+03  0.00000000000E+00 0. -1.
          2    1    1    2  501    0  0.31700323355E+02  0.29618306665E+03  0.11702003519E+04  0.12075173634E+04  0.00000000000E+00 0.  1.
<mgrwt>
<rscale>  4 0.30410518E+03</rscale>
<asrwt>0</asrwt>
<pdfrwt beam="1">  1       21 0.99290361E-02 0.30410518E+03</pdfrwt>
<pdfrwt beam="2">  1        2 0.28156869E+00 0.30410518E+03</pdfrwt>
<totfact> 0.93364855E+03</totfact>
</mgrwt>
</event>
<event>
 5    0  0.4115852E+000  0.2555170E+03  0.7546771E-02  0.1109867E+00
         21   -1    0    0  503  502  0.00000000000E+00  0.00000000000E+00  0.12842747039E+04  0.12842747039E+04  0.00000000000E+00 0.  1.
          1   -1    0    0  502    0 -0.00000000000E+00 -0.00000000000E+00 -0.22875386535E+03  0.22875386535E+03  0.00000000000E+00 0.  1.
         25    1    1    2    0    0  0.92668125131E+02  0.28685070272E+03  0.93186198632E+03  0.98735123872E+03  0.12500000000E+03 0.  0.
         21    1    1    2  503  501 -0.30540477079E+02 -0.78038636732E+02  0.25695516011E+03  0.27027523725E+03  0.00000000000E+00 0.  1.
          1    1    1    2  501    0 -0.62127648051E+02 -0.20881206599E+03 -0.13329630788E+03  0.25540209327E+03  0.00000000000E+00 0.  1.
<mgrwt>
<rscale>  4 0.25551699E+03</rscale>
<asrwt>0</asrwt>
<pdfrwt beam="1">  1       21 0.19758072E+00 0.25551699E+03</pdfrwt>
<pdfrwt beam="2">  1        1 0.35192903E-01 0.25551699E+03</pdfrwt>
<totfact> 0.17851912E+02</totfact>
</mgrwt>
</event>
<event>
 5    0  0.4115852E+000  0.2256080E+03  0.7546771E-02  0.1129770E+00
         21   -1    0    0  503  502  0.00000000000E+00  0.00000000000E+00  0.34390848749E+03  0.34390848749E+03  0.00000000000E+00 0. -1.
          2   -1    0    0  502    0 -0.00000000000E+00 -0.00000000000E+00 -0.46062895165E+03  0.46062895165E+03  0.00000000000E+00 0. -1.
         25    1    1    2    0    0 -0.20845466481E+03 -0.93976132900E+01  0.18519962850E+03  0.30572138429E+03  0.12500000000E+03 0.  0.
         21    1    1    2  503  501  0.23481152994E+02  0.30420187177E+02  0.71720030883E+02  0.81366548186E+02  0.00000000000E+00 0. -1.
          2    1    1    2  501    0  0.18497351182E+03 -0.21022573887E+02 -0.37364012355E+03  0.41744950666E+03  0.00000000000E+00 0. -1.
<mgrwt>
<rscale>  4 0.22560799E+03</rscale>
<asrwt>0</asrwt>
<pdfrwt beam="1">  1       21 0.52908998E-01 0.22560799E+03</pdfrwt>
<pdfrwt beam="2">  1        2 0.70865993E-01 0.22560799E+03</pdfrwt>
<totfact> 0.28529169E+03</totfact>
</mgrwt>
</event>
<event>
 5    0  0.4115852E+000  0.2623672E+03  0.7546771E-02  0.1105729E+00
         21   -1    0    0  503  502  0.00000000000E+00  0.00000000000E+00  0.35580849014E+02  0.35580849014E+02  0.00000000000E+00 0.  1.
          2   -1    0    0  502    0 -0.00000000000E+00 -0.00000000000E+00 -0.35433661959E+04  0.35433661959E+04  0.00000000000E+00 0. -1.
         25    1    1    2    0    0 -0.80785216033E+02  0.23554302705E+03 -0.13929908785E+04  0.14205827524E+04  0.12500000000E+03 0.  0.
         21    1    1    2  503  501  0.33361469548E+01 -0.26500540687E+02  0.47497816128E+01  0.27128747826E+02  0.00000000000E+00 0.  1.
          2    1    1    2  501    0  0.77449069078E+02 -0.20904248636E+03 -0.21195442499E+04  0.21312355447E+04  0.00000000000E+00 0. -1.
<mgrwt>
<rscale>  4 0.26236718E+03</rscale>
<asrwt>0</asrwt>
<pdfrwt beam="1">  1       21 0.54739767E-02 0.26236718E+03</pdfrwt>
<pdfrwt beam="2">  1        2 0.54513327E+00 0.26236718E+03</pdfrwt>
<totfact> 0.27876972E+03</totfact>
</mgrwt>
</event>
<event>
 5    0  0.4115852E+000  0.3634974E+03  0.7546771E-02  0.1057208E+00
         21   -1    0    0  503  502  0.00000000000E+00  0.00000000000E+00  0.32670191453E+03  0.32670191453E+03  0.00000000000E+00 0.  1.
          2   -1    0    0  502    0 -0.00000000000E+00 -0.00000000000E+00 -0.74382741155E+03  0.74382741155E+03  0.00000000000E+00 0. -1.
         25    1    1    2    0    0 -0.34671814439E+03 -0.14908914267E+03 -0.70522617129E+02  0.40378148006E+03  0.12500000000E+03 0.  0.
         21    1    1    2  503  501  0.44877086715E+02  0.16700249999E+02  0.10047864008E+03  0.11130502403E+03  0.00000000000E+00 0.  1.
          2    1    1    2  501    0  0.30184105767E+03  0.13238889268E+03 -0.44708151997E+03  0.55544282199E+03  0.00000000000E+00 0. -1.
<mgrwt>
<rscale>  4 0.36349744E+03</rscale>
<asrwt>0</asrwt>
<pdfrwt beam="1">  1       21 0.50261833E-01 0.36349744E+03</pdfrwt>
<pdfrwt beam="2">  1        2 0.11443499E+00 0.36349744E+03</pdfrwt>
<totfact> 0.17411359E+03</totfact>
</mgrwt>
</event>
<event>
 5    0  0.4115852E+000  0.2838279E+03  0.7546771E-02  0.1093616E+00
          2   -1    0    0  502    0 -0.00000000000E+00  0.00000000000E+00  0.14716947895E+04  0.14716947895E+04  0.00000000000E+00 0. -1.
         21   -1    0    0  503  502  0.00000000000E+00 -0.00000000000E+00 -0.25904139792E+03  0.25904139792E+03  0.00000000000E+00 0.  1.
         25    1    1    2    0    0 -0.17124179337E+03  0.15772247976E+03 -0.11719727136E+03  0.28906804188E+03  0.12500000000E+03 0.  0.
         21    1    1    2  503  501 -0.30655853930E+02 -0.82281882953E-01 -0.38689394887E+02  0.49362510342E+02  0.00000000000E+00 0. -1.
          2    1    1    2  501    0  0.20189764730E+03 -0.15764019788E+03  0.13685400578E+04  0.13923056352E+04  0.00000000000E+00 0. -1.
<mgrwt>
<rscale>  4 0.28382792E+03</rscale>
<asrwt>0</asrwt>
<pdfrwt beam="1">  1       21 0.39852524E-01 0.28382792E+03</pdfrwt>
<pdfrwt beam="2">  1        2 0.22641458E+00 0.28382792E+03</pdfrwt>
<totfact> 0.10498434E+03</totfact>
</mgrwt>
</event>
<event>
 5    0  0.4115852E+000  0.2521831E+03  0.7546771E-02  0.1111933E+00
          1   -1    0    0  502    0 -0.00000000000E+00  0.00000000000E+00  0.20469511022E+04  0.20469511022E+04  0.00000000000E+00 0.  1.
         21   -1    0    0  503  502  0.00000000000E+00 -0.00000000000E+00 -0.93609346100E+02  0.93609346100E+02  0.00000000000E+00 0.  1.
         25    1    1    2    0    0  0.30049009967E+03  0.58147240429E+02  0.13051361148E+04  0.13463583029E+04  0.12500000000E+03 0.  0.
         21    1    1    2  503  501 -0.13765701937E+03 -0.42693586248E+01  0.15419678474E+02  0.13858372520E+03  0.00000000000E+00 0.  1.
          1    1    1    2  501    0 -0.16283308030E+03 -0.53877881804E+02  0.63278596281E+03  0.65561842020E+03  0.00000000000E+00 0.  1.
<mgrwt>
<rscale>  4 0.25218305E+03</rscale>
<asrwt>0</asrwt>
<pdfrwt beam="1">  1       21 0.14401439E-01 0.25218305E+03</pdfrwt>
<pdfrwt beam="2">  1        1 0.31491552E+00 0.25218305E+03</pdfrwt>
<totfact> 0.14732472E+03</totfact>
</mgrwt>
</event>
<event>
 5    0  0.4115852E+000  0.2969162E+03  0.7546771E-02  0.1086792E+00
         21   -1    0    0  503  502  0.00000000000E+00  0.00000000000E+00  0.44268587541E+02  0.44268587541E+02  0.00000000000E+00 0. -1.
          2   -1    0    0  502    0 -0.00000000000E+00 -0.00000000000E+00 -0.36752454907E+04  0.36752454907E+04  0.00000000000E+00 0. -1.
         25    1    1    2    0    0 -0.28687711345E+03  0.57138724708E+02 -0.69438775245E+03  0.76378181625E+03  0.12500000000E+03 0.  0.
         21    1    1    2  503  501  0.32034471070E+02  0.16805097705E+02 -0.92981695590E+02  0.99770809160E+02  0.00000000000E+00 0. -1.
          2    1    1    2  501    0  0.25484264238E+03 -0.73943822414E+02 -0.28436074551E+04  0.28559614529E+04  0.00000000000E+00 0. -1.
<mgrwt>
<rscale>  4 0.29691619E+03</rscale>
<asrwt>0</asrwt>
<pdfrwt beam="1">  1       21 0.68105509E-02 0.29691619E+03</pdfrwt>
<pdfrwt beam="2">  1        2 0.56542246E+00 0.29691619E+03</pdfrwt>
<totfact> 0.15255629E+03</totfact>
</mgrwt>
</event>
<event>
 5    0  0.4115852E+000  0.2645935E+03  0.7546771E-02  0.1104414E+00
         21   -1    0    0  501  502  0.00000000000E+00  0.00000000000E+00  0.32908236378E+03  0.32908236378E+03  0.00000000000E+00 0. -1.
         -2   -1    0    0    0  501 -0.00000000000E+00 -0.00000000000E+00 -0.42076971679E+03  0.42076971679E+03  0.00000000000E+00 0. -1.
         25    1    1    2    0    0 -0.21814703652E+03 -0.11836182130E+03 -0.19702555113E+02  0.27858722326E+03  0.12500000000E+03 0.  0.
         21    1    1    2  503  502  0.29077641844E+02 -0.89507938859E+01  0.15002337309E+03  0.15307723031E+03  0.00000000000E+00 0. -1.
         -2    1    1    2    0  503  0.18906939468E+03  0.12731261518E+03 -0.22200817099E+03  0.31818762700E+03  0.00000000000E+00 0. -1.
<mgrwt>
<rscale>  4 0.26459349E+03</rscale>
<asrwt>0</asrwt>
<pdfrwt beam="1">  1       21 0.50628056E-01 0.26459349E+03</pdfrwt>
<pdfrwt beam="2">  1       -2 0.64733802E-01 0.26459349E+03</pdfrwt>
<totfact> 0.66520519E+02</totfact>
</mgrwt>
</event>
<event>
 5    0  0.4115852E+000  0.2379406E+03  0.7546771E-02  0.1121172E+00
          2   -1    0    0  502    0 -0.00000000000E+00  0.00000000000E+00  0.17403050972E+04  0.17403050972E+04  0.00000000000E+00 0.  1.
         21   -1    0    0  503  502  0.00000000000E+00 -0.00000000000E+00 -0.78981228234E+02  0.78981228234E+02  0.00000000000E+00 0.  1.
         25    1    1    2    0    0  0.20157346453E+02 -0.21588337854E+03  0.16576018182E+03  0.30018892322E+03  0.12500000000E+03 0.  0.
         21    1    1    2  503  501 -0.23805549880E+01  0.16464322423E+03  0.60873819764E+03  0.63061497888E+03  0.00000000000E+00 0.  1.
          2    1    1    2  501    0 -0.17776791465E+02  0.51240154310E+02  0.88682548954E+03  0.88848242337E+03  0.00000000000E+00 0.  1.
<mgrwt>
<rscale>  4 0.23794062E+03</rscale>
<asrwt>0</asrwt>
<pdfrwt beam="1">  1       21 0.12150960E-01 0.23794062E+03</pdfrwt>
<pdfrwt beam="2">  1        2 0.26773922E+00 0.23794062E+03</pdfrwt>
<totfact> 0.74031215E+03</totfact>
</mgrwt>
</event>
<event>
 5    0  0.4115852E+000  0.2028532E+03  0.7546771E-02  0.1147354E+00
          1   -1    0    0  502    0 -0.00000000000E+00  0.00000000000E+00  0.20842130890E+04  0.20842130890E+04  0.00000000000E+00 0.  1.
         21   -1    0    0  503  502  0.00000000000E+00 -0.00000000000E+00 -0.10871322965E+03  0.10871322965E+03  0.00000000000E+00 0.  1.
         25    1    1    2    0    0  0.27698304765E+03  0.27929852436E+02  0.49450645950E+03  0.58108633079E+03  0.12500000000E+03 0.  0.
         21    1    1    2  503  501 -0.12792879509E+03 -0.42224250353E+02  0.12017275038E+02  0.13525190879E+03  0.00000000000E+00 0.  1.
          1    1    1    2  501    0 -0.14905425255E+03  0.14294397917E+02  0.14689761248E+04  0.14765880791E+04  0.00000000000E+00 0.  1.
<mgrwt>
<rscale>  4 0.20285320E+03</rscale>
<asrwt>0</asrwt>
<pdfrwt beam="1">  1       21 0.16725114E-01 0.20285320E+03</pdfrwt>
<pdfrwt beam="2">  1        1 0.32064814E+00 0.20285320E+03</pdfrwt>
<totfact> 0.10887105E+03</totfact>
</mgrwt>
</event>
<event>
 5    0  0.4115852E+000  0.2466326E+03  0.7546771E-02  0.1115452E+00
         21   -1    0    0  503  502  0.00000000000E+00  0.00000000000E+00  0.67271392659E+02  0.67271392659E+02  0.00000000000E+00 0. -1.
          2   -1    0    0  502    0 -0.00000000000E+00 -0.00000000000E+00 -0.38144893455E+04  0.38144893455E+04  0.00000000000E+00 0. -1.
         25    1    1    2    0    0 -0.19994376578E+03 -0.39169783777E+02 -0.18987455633E+03  0.30526894466E+03  0.12500000000E+03 0.  0.
         21    1    1    2  503  501  0.63400882438E+01 -0.50670036918E+02 -0.97426081719E+02  0.10999768525E+03  0.00000000000E+00 0.  1.
          2    1    1    2  501    0  0.19360367753E+03  0.89839820695E+02 -0.34599173147E+04  0.34664941082E+04  0.00000000000E+00 0. -1.
<mgrwt>
<rscale>  4 0.24663255E+03</rscale>
<asrwt>0</asrwt>
<pdfrwt beam="1">  1       21 0.10349441E-01 0.24663255E+03</pdfrwt>
<pdfrwt beam="2">  1        2 0.58684476E+00 0.24663255E+03</pdfrwt>
<totfact> 0.60032028E+02</totfact>
</mgrwt>
</event>
<event>
 5    0  0.4115852E+000  0.2687490E+03  0.7546771E-02  0.1101998E+00
          2   -1    0    0  502    0 -0.00000000000E+00  0.00000000000E+00  0.59684321876E+03  0.59684321876E+03  0.00000000000E+00 0. -1.
         21   -1    0    0  503  502  0.00000000000E+00 -0.00000000000E+00 -0.57153471880E+03  0.57153471880E+03  0.00000000000E+00 0.  1.
         25    1    1    2    0    0 -0.51144852945E+02 -0.20641656983E+03 -0.38262370302E+03  0.45524663030E+03  0.12500000000E+03 0.  0.
         21    1    1    2  503  501 -0.41090427232E+02 -0.14726418655E+02 -0.12306510501E+03  0.13057683825E+03  0.00000000000E+00 0.  1.
          2    1    1    2  501    0  0.92235280177E+02  0.22114298849E+03  0.53099730799E+03  0.58255446901E+03  0.00000000000E+00 0. -1.
<mgrwt>
<rscale>  4 0.26874901E+03</rscale>
<asrwt>0</asrwt>
<pdfrwt beam="1">  1       21 0.87928418E-01 0.26874901E+03</pdfrwt>
<pdfrwt beam="2">  1        2 0.91822034E-01 0.26874901E+03</pdfrwt>
<totfact> 0.67987178E+02</totfact>
</mgrwt>
</event>
<event>
 5    0  0.4115852E+000  0.2315268E+03  0.7546771E-02  0.1125570E+00
         21   -1    0    0  503  502  0.00000000000E+00  0.00000000000E+00  0.71873240094E+02  0.71873240094E+02  0.00000000000E+00 0.  1.
          1   -1    0    0  502    0 -0.00000000000E+00 -0.00000000000E+00 -0.86727320993E+03  0.86727320993E+03  0.00000000000E+00 0.  1.
         25    1    1    2    0    0 -0.16941790790E+03  0.10708810552E+03 -0.22364628927E+03  0.32528902927E+03  0.12500000000E+03 0.  0.
         21    1    1    2  503  501 -0.31744194922E+01 -0.19990623428E+02 -0.17165622452E+02  0.26539791980E+02  0.00000000000E+00 0.  1.
          1    1    1    2  501    0  0.17259232739E+03 -0.87097482094E+02 -0.55458805812E+03  0.58731762878E+03  0.00000000000E+00 0.  1.
<mgrwt>
<rscale>  4 0.23152684E+03</rscale>
<asrwt>0</asrwt>
<pdfrwt beam="1">  1       21 0.11057422E-01 0.23152684E+03</pdfrwt>
<pdfrwt beam="2">  1        1 0.13342664E+00 0.23152684E+03</pdfrwt>
<totfact> 0.15290680E+04</totfact>
</mgrwt>
</event>
<event>
 5    0  0.4115852E+000  0.2248147E+03  0.7546771E-02  0.1130344E+00
         -2   -1    0    0    0  501 -0.00000000000E+00  0.00000000000E+00  0.16452874193E+03  0.16452874193E+03  0.00000000000E+00 0. -1.
         21   -1    0    0  501  502  0.00000000000E+00 -0.00000000000E+00 -0.16027157715E+04  0.16027157715E+04  0.00000000000E+00 0.  1.
         25    1    1    2    0    0 -0.13919790195E+03 -0.15700332135E+03 -0.14894025504E+04  0.15092948870E+04  0.12500000000E+03 0.  0.
         21    1    1    2  503  502  0.24740416669E+02  0.10395263298E+02 -0.42047514108E+02  0.49881290667E+02  0.00000000000E+00 0.  1.
         -2    1    1    2    0  503  0.11445748528E+03  0.14660805805E+03  0.93263034988E+02  0.20806833569E+03  0.00000000000E+00 0. -1.
<mgrwt>
<rscale>  4 0.22481468E+03</rscale>
<asrwt>0</asrwt>
<pdfrwt beam="1">  1       21 0.24657165E+00 0.22481468E+03</pdfrwt>
<pdfrwt beam="2">  1       -2 0.25312115E-01 0.22481468E+03</pdfrwt>
<totfact> 0.75215005E+01</totfact>
</mgrwt>
</event>
<event>
 5    0  0.4115852E+000  0.2412304E+03  0.7546771E-02  0.1118976E+00
         -1   -1    0    0    0  501 -0.00000000000E+00  0.00000000000E+00  0.65598351644E+03  0.65598351644E+03  0.00000000000E+00 0.  1.
         21   -1    0    0  501  502  0.00000000000E+00 -0.00000000000E+00 -0.25113802091E+04  0.25113802091E+04  0.00000000000E+00 0.  1.
         25    1    1    2    0    0 -0.18798388100E+02 -0.27452911661E+03  0.91137537808E+02  0.31567493733E+03  0.12500000000E+03 0.  0.
         21    1    1    2  503  502 -0.16753082751E+02  0.83978331371E+02 -0.23775499793E+04  0.23790916187E+04  0.00000000000E+00 0.  1.
         -1    1    1    2    0  503  0.35551470851E+02  0.19055078524E+03  0.43101574889E+03  0.47259716950E+03  0.00000000000E+00 0.  1.
<mgrwt>
<rscale>  4 0.24123044E+03</rscale>
<asrwt>0</asrwt>
<pdfrwt beam="1">  1       21 0.38636619E+00 0.24123044E+03</pdfrwt>
<pdfrwt beam="2">  1       -1 0.10092054E+00 0.24123044E+03</pdfrwt>
<totfact> 0.90601428E-01</totfact>
</mgrwt>
</event>
<event>
 5    0  0.4115852E+000  0.2265837E+03  0.7546771E-02  0.1129068E+00
         21   -1    0    0  503  502  0.00000000000E+00  0.00000000000E+00  0.26469720342E+02  0.26469720342E+02  0.00000000000E+00 0.  1.
          2   -1    0    0  502    0 -0.00000000000E+00 -0.00000000000E+00 -0.21139057429E+04  0.21139057429E+04  0.00000000000E+00 0.  1.
         25    1    1    2    0    0  0.19104185856E+03 -0.69755321930E+02 -0.11396129701E+04  0.11643476793E+04  0.12500000000E+03 0.  0.
         21    1    1    2  503  501 -0.11503838963E+02  0.39646058895E+02 -0.30991225541E+03  0.31264957117E+03  0.00000000000E+00 0. -1.
          2    1    1    2  501    0 -0.17953801959E+03  0.30109263035E+02 -0.63791079700E+03  0.66337821274E+03  0.00000000000E+00 0.  1.
<mgrwt>
<rscale>  4 0.22658370E+03</rscale>
<asrwt>0</asrwt>
<pdfrwt beam="1">  1       21 0.40722645E-02 0.22658370E+03</pdfrwt>
<pdfrwt beam="2">  1        2 0.32521628E+00 0.22658370E+03</pdfrwt>
<totfact> 0.31643342E+04</totfact>
</mgrwt>
</event>
<event>
 5    0  0.4115852E+000  0.2310383E+03  0.7546771E-02  0.1125911E+00
         21   -1    0    0  503  502  0.00000000000E+00  0.00000000000E+00  0.35990770960E+02  0.35990770960E+02  0.00000000000E+00 0. -1.
          2   -1    0    0  502    0 -0.00000000000E+00 -0.00000000000E+00 -0.15774131964E+04  0.15774131964E+04  0.00000000000E+00 0. -1.
         25    1    1    2    0    0 -0.13911298240E+03  0.14507642415E+03 -0.73020413690E+03  0.76760841075E+03  0.12500000000E+03 0.  0.
         21    1    1    2  503  501  0.37782249820E+02  0.17474285100E+02 -0.83654075093E+02  0.93439035316E+02  0.00000000000E+00 0.  1.
          2    1    1    2  501    0  0.10133073258E+03 -0.16255070925E+03 -0.72756421350E+03  0.75235652134E+03  0.00000000000E+00 0. -1.
<mgrwt>
<rscale>  4 0.23103826E+03</rscale>
<asrwt>0</asrwt>
<pdfrwt beam="1">  1       21 0.55370421E-02 0.23103826E+03</pdfrwt>
<pdfrwt beam="2">  1        2 0.24267893E+00 0.23103826E+03</pdfrwt>
<totfact> 0.35826317E+04</totfact>
</mgrwt>
</event>
<event>
 5    0  0.4115852E+000  0.2198649E+03  0.7546771E-02  0.1133984E+00
          2   -1    0    0  502    0 -0.00000000000E+00  0.00000000000E+00  0.37007882163E+04  0.37007882163E+04  0.00000000000E+00 0. -1.
         21   -1    0    0  503  502  0.00000000000E+00 -0.00000000000E+00 -0.25651123341E+02  0.25651123341E+02  0.00000000000E+00 0. -1.
         25    1    1    2    0    0 -0.20908223696E+03 -0.34098609897E+02  0.82321500792E+03  0.85917754060E+03  0.12500000000E+03 0.  0.
         21    1    1    2  503  501  0.44376008782E+02 -0.29421354555E+02  0.14294322546E+03  0.15253724779E+03  0.00000000000E+00 0. -1.
          2    1    1    2  501    0  0.16470622818E+03  0.63519964452E+02  0.27089788596E+04  0.27147245512E+04  0.00000000000E+00 0. -1.
<mgrwt>
<rscale>  4 0.21986494E+03</rscale>
<asrwt>0</asrwt>
<pdfrwt beam="1">  1       21 0.39463296E-02 0.21986494E+03</pdfrwt>
<pdfrwt beam="2">  1        2 0.56935161E+00 0.21986494E+03</pdfrwt>
<totfact> 0.38887673E+03</totfact>
</mgrwt>
</event>
<event>
 5    0  0.4115852E+000  0.2607870E+03  0.7546771E-02  0.1106671E+00
         21   -1    0    0  503  502  0.00000000000E+00  0.00000000000E+00  0.39855835865E+03  0.39855835865E+03  0.00000000000E+00 0. -1.
          2   -1    0    0  502    0 -0.00000000000E+00 -0.00000000000E+00 -0.31010167725E+04  0.31010167725E+04  0.00000000000E+00 0.  1.
         25    1    1    2    0    0  0.22070219895E+03 -0.60972929812E+02  0.34689904989E+03  0.43404044697E+03  0.12500000000E+03 0.  0.
         21    1    1    2  503  501 -0.12761106415E+02 -0.21739061727E+02 -0.36391833092E+02  0.44269607604E+02  0.00000000000E+00 0. -1.
          2    1    1    2  501    0 -0.20794109254E+03  0.82711991539E+02 -0.30129656307E+04  0.30212650766E+04  0.00000000000E+00 0.  1.
<mgrwt>
<rscale>  4 0.26078696E+03</rscale>
<asrwt>0</asrwt>
<pdfrwt beam="1">  1       21 0.61316669E-01 0.26078696E+03</pdfrwt>
<pdfrwt beam="2">  1        2 0.47707951E+00 0.26078696E+03</pdfrwt>
<totfact> 0.55284599E+01</totfact>
</mgrwt>
</event>
<event>
 5    0  0.4115852E+000  0.2347235E+03  0.7546771E-02  0.1123359E+00
          2   -1    0    0  502    0 -0.00000000000E+00  0.00000000000E+00  0.19597959709E+04  0.19597959709E+04  0.00000000000E+00 0. -1.
         21   -1    0    0  503  502  0.00000000000E+00 -0.00000000000E+00 -0.31195197156E+03  0.31195197156E+03  0.00000000000E+00 0.  1.
         25    1    1    2    0    0 -0.19968034983E+03 -0.69262162054E+02  0.73551293482E+02  0.25632846501E+03  0.12500000000E+03 0.  0.
         21    1    1    2  503  501  0.19785016847E+02 -0.13377331714E+02 -0.21443954902E+03  0.21576542836E+03  0.00000000000E+00 0.  1.
          2    1    1    2  501    0  0.17989533299E+03  0.82639493768E+02  0.17887322549E+04  0.17996540491E+04  0.00000000000E+00 0. -1.
<mgrwt>
<rscale>  4 0.23472354E+03</rscale>
<asrwt>0</asrwt>
<pdfrwt beam="1">  1       21 0.47992612E-01 0.23472354E+03</pdfrwt>
<pdfrwt beam="2">  1        2 0.30150706E+00 0.23472354E+03</pdfrwt>
<totfact> 0.40641910E+02</totfact>
</mgrwt>
</event>
<event>
 5    0  0.4115852E+000  0.2285779E+03  0.7546771E-02  0.1127645E+00
          2   -1    0    0  502    0 -0.00000000000E+00  0.00000000000E+00  0.32006089073E+04  0.32006089073E+04  0.00000000000E+00 0. -1.
         21   -1    0    0  503  502  0.00000000000E+00 -0.00000000000E+00 -0.37494866938E+02  0.37494866938E+02  0.00000000000E+00 0.  1.
         25    1    1    2    0    0 -0.21663568595E+03 -0.70548121035E+02  0.57065227673E+03  0.62703833913E+03  0.12500000000E+03 0.  0.
         21    1    1    2  503  501  0.35511619307E+02  0.24271253262E+02  0.73387007921E+02  0.85063633666E+02  0.00000000000E+00 0. -1.
          2    1    1    2  501    0  0.18112406664E+03  0.46276867773E+02  0.25190747558E+04  0.25260018015E+04  0.00000000000E+00 0. -1.
<mgrwt>
<rscale>  4 0.22857787E+03</rscale>
<asrwt>0</asrwt>
<pdfrwt beam="1">  1       21 0.57684436E-02 0.22857787E+03</pdfrwt>
<pdfrwt beam="2">  1        2 0.49240115E+00 0.22857787E+03</pdfrwt>
<totfact> 0.43016495E+03</totfact>
</mgrwt>
</event>
<event>
 5    0  0.4115852E+000  0.2447303E+03  0.7546771E-02  0.1116681E+00
         21   -1    0    0  503  502  0.00000000000E+00  0.00000000000E+00  0.18823047640E+03  0.18823047640E+03  0.00000000000E+00 0.  1.
          2   -1    0    0  502    0 -0.00000000000E+00 -0.00000000000E+00 -0.34908287919E+03  0.34908287919E+03  0.00000000000E+00 0.  1.
         25    1    1    2    0    0  0.20206722294E+03  0.35931721119E+01 -0.13512695258E+03  0.27336489677E+03  0.12500000000E+03 0.  0.
         21    1    1    2  503  501  0.18860864195E+02 -0.20570298333E+02  0.24056771927E+02  0.36845591965E+02  0.00000000000E+00 0.  1.
          2    1    1    2  501    0 -0.22092808713E+03  0.16977126221E+02 -0.49782222136E+02  0.22710286687E+03  0.00000000000E+00 0.  1.
<mgrwt>
<rscale>  4 0.24473032E+03</rscale>
<asrwt>0</asrwt>
<pdfrwt beam="1">  1       21 0.28958535E-01 0.24473032E+03</pdfrwt>
<pdfrwt beam="2">  1        2 0.53705058E-01 0.24473032E+03</pdfrwt>
<totfact> 0.13031362E+04</totfact>
</mgrwt>
</event>
<event>
 5    0  0.4115852E+000  0.2325322E+03  0.7546771E-02  0.1124870E+00
         21   -1    0    0  503  502  0.00000000000E+00  0.00000000000E+00  0.37364509526E+02  0.37364509526E+02  0.00000000000E+00 0. -1.
          1   -1    0    0  502    0 -0.00000000000E+00 -0.00000000000E+00 -0.22307530876E+04  0.22307530876E+04  0.00000000000E+00 0.  1.
         25    1    1    2    0    0 -0.18122823977E+03  0.10748718909E+03 -0.10749066073E+04  0.11024728500E+04  0.12500000000E+03 0.  0.
         21    1    1    2  503  501  0.13811580108E+02 -0.22086985222E+02  0.50223015808E+01  0.26529571697E+02  0.00000000000E+00 0. -1.
          1    1    1    2  501    0  0.16741665966E+03 -0.85400203864E+02 -0.11235042724E+04  0.11391151754E+04  0.00000000000E+00 0.  1.
<mgrwt>
<rscale>  4 0.23253221E+03</rscale>
<asrwt>0</asrwt>
<pdfrwt beam="1">  1       21 0.57483822E-02 0.23253221E+03</pdfrwt>
<pdfrwt beam="2">  1        1 0.34319302E+00 0.23253221E+03</pdfrwt>
<totfact> 0.57163033E+03</totfact>
</mgrwt>
</event>
<event>
 5    0  0.4115852E+000  0.2534115E+03  0.7546771E-02  0.1111168E+00
         21   -1    0    0  503  502  0.00000000000E+00  0.00000000000E+00  0.53536935645E+02  0.53536935645E+02  0.00000000000E+00 0. -1.
          2   -1    0    0  502    0 -0.00000000000E+00 -0.00000000000E+00 -0.11663467995E+04  0.11663467995E+04  0.00000000000E+00 0. -1.
         25    1    1    2    0    0 -0.12488239028E+03  0.18165014655E+03 -0.73793906406E+03  0.78023807227E+03  0.12500000000E+03 0.  0.
         21    1    1    2  503  501  0.74958363251E+02 -0.67228342205E+02 -0.12663472862E+03  0.16178615735E+03  0.00000000000E+00 0. -1.
          2    1    1    2  501    0  0.49924027033E+02 -0.11442180434E+03 -0.24823607121E+03  0.27785950557E+03  0.00000000000E+00 0. -1.
<mgrwt>
<rscale>  4 0.25341150E+03</rscale>
<asrwt>0</asrwt>
<pdfrwt beam="1">  1       21 0.82364512E-02 0.25341150E+03</pdfrwt>
<pdfrwt beam="2">  1        2 0.17943798E+00 0.25341150E+03</pdfrwt>
<totfact> 0.30086673E+04</totfact>
</mgrwt>
</event>
