<event>
 5    0  0.1283376E+001  0.2599885E+03  0.7546771E-02  0.1107150E+00
         21   -1    0    0  504  501  0.00000000000E+00  0.00000000000E+00  0.82798945544E+02  0.82798945544E+02  0.00000000000E+00 0.  1.
         21   -1    0    0  503  502 -0.00000000000E+00 -0.00000000000E+00 -0.11590044853E+04  0.11590044853E+04  0.00000000000E+00 0.  1.
         25    1    1    2    0    0 -0.63034778911E+00  0.22116705504E+03 -0.21231936358E+03  0.33108877318E+03  0.12500000000E+03 0.  0.
         21    1    1    2  503  501 -0.46359033252E+01 -0.24434642239E+03 -0.63189070078E+03  0.67750462985E+03  0.00000000000E+00 0.  1.
         21    1    1    2  504  502  0.52662511143E+01  0.23179367350E+02 -0.23199547542E+03  0.23321002784E+03  0.00000000000E+00 0. -1.
<mgrwt>
<rscale>  4 0.25998851E+03</rscale>
<asrwt>0</asrwt>
<pdfrwt beam="1">  1       21 0.12738299E-01 0.25998851E+03</pdfrwt>
<pdfrwt beam="2">  1       21 0.17830839E+00 0.25998851E+03</pdfrwt>
<totfact> 0.93905581E+03</totfact>
</mgrwt>
</event>
<event>
 5    0  0.1283376E+001  0.2819782E+03  0.7546771E-02  0.1094613E+00
         21   -1    0    0  503  501  0.00000000000E+00  0.00000000000E+00  0.26481957193E+03  0.26481957193E+03  0.00000000000E+00 0.  1.
         21   -1    0    0  504  502 -0.00000000000E+00 -0.00000000000E+00 -0.59952075953E+03  0.59952075953E+03  0.00000000000E+00 0.  1.
         25    1    1    2    0    0  0.53340786775E+02  0.26219631183E+03 -0.68832906239E+02  0.30324101710E+03  0.12500000000E+03 0.  0.
         21    1    1    2  503  502 -0.13119230582E+03 -0.21273211667E+03  0.29496901559E+02  0.25166732360E+03  0.00000000000E+00 0.  1.
         21    1    1    2  504  501  0.77851519040E+02 -0.49464195168E+02 -0.29536518292E+03  0.30943199075E+03  0.00000000000E+00 0.  1.
<mgrwt>
<rscale>  4 0.28197816E+03</rscale>
<asrwt>0</asrwt>
<pdfrwt beam="1">  1       21 0.40741473E-01 0.28197816E+03</pdfrwt>
<pdfrwt beam="2">  1       21 0.92233962E-01 0.28197816E+03</pdfrwt>
<totfact> 0.54328133E+03</totfact>
</mgrwt>
</event>
<event>
 5    0  0.1283376E+001  0.3271623E+03  0.7546771E-02  0.1072399E+00
         21   -1    0    0  503  501  0.00000000000E+00  0.00000000000E+00  0.12445450595E+04  0.12445450595E+04  0.00000000000E+00 0.  1.
         21   -1    0    0  504  502 -0.00000000000E+00 -0.00000000000E+00 -0.32116640086E+03  0.32116640086E+03  0.00000000000E+00 0.  1.
         25    1    1    2    0    0 -0.24560594648E+03 -0.26687870957E+03  0.65874540075E+03  0.76231032367E+03  0.12500000000E+03 0.  0.
         21    1    1    2  503  502  0.10387719351E+03  0.24807519840E+03  0.47688085820E+03  0.54749166963E+03  0.00000000000E+00 0.  1.
         21    1    1    2  504  501  0.14172875296E+03  0.18803511170E+02 -0.21224760035E+03  0.25590946701E+03  0.00000000000E+00 0.  1.
<mgrwt>
<rscale>  4 0.32716234E+03</rscale>
<asrwt>0</asrwt>
<pdfrwt beam="1">  1       21 0.19146847E+00 0.32716234E+03</pdfrwt>
<pdfrwt beam="2">  1       21 0.49410216E-01 0.32716234E+03</pdfrwt>
<totfact> 0.52758546E+02</totfact>
</mgrwt>
</event>
<event>
 5    0  0.1283376E+001  0.4008509E+03  0.7546771E-02  0.1043485E+00
         21   -1    0    0  504  501  0.00000000000E+00  0.00000000000E+00  0.20698602659E+04  0.20698602659E+04  0.00000000000E+00 0.  1.
         21   -1    0    0  501  502 -0.00000000000E+00 -0.00000000000E+00 -0.10197376728E+03  0.10197376728E+03  0.00000000000E+00 0.  1.
         25    1    1    2    0    0 -0.10968657042E+03  0.38438816278E+03  0.12896834513E+04  0.13559844424E+04  0.12500000000E+03 0.  0.
         21    1    1    2  503  502  0.65551135387E+02 -0.30002394297E+02  0.34962407844E+02  0.80121563742E+02  0.00000000000E+00 0.  1.
         21    1    1    2  504  503  0.44135435037E+02 -0.35438576848E+03  0.64324063953E+03  0.73572802711E+03  0.00000000000E+00 0.  1.
<mgrwt>
<rscale>  4 0.40085091E+03</rscale>
<asrwt>0</asrwt>
<pdfrwt beam="1">  1       21 0.31844001E+00 0.40085091E+03</pdfrwt>
<pdfrwt beam="2">  1       21 0.15688273E-01 0.40085091E+03</pdfrwt>
<totfact> 0.79457796E+02</totfact>
</mgrwt>
</event>
<event>
 5    0  0.1283376E+001  0.2545704E+03  0.7546771E-02  0.1110450E+00
         21   -1    0    0  503  501  0.00000000000E+00  0.00000000000E+00  0.12450313864E+04  0.12450313864E+04  0.00000000000E+00 0. -1.
         21   -1    0    0  504  502 -0.00000000000E+00 -0.00000000000E+00 -0.12894314339E+03  0.12894314339E+03  0.00000000000E+00 0. -1.
         25    1    1    2    0    0  0.12764083619E+03  0.17505978381E+03  0.94748951526E+03  0.97994871932E+03  0.12500000000E+03 0.  0.
         21    1    1    2  503  502 -0.10952337682E+03 -0.21432657453E+03  0.22053265551E+03  0.32644433334E+03  0.00000000000E+00 0. -1.
         21    1    1    2  504  501 -0.18117459371E+02  0.39266790723E+02 -0.51933927807E+02  0.67581477087E+02  0.00000000000E+00 0. -1.
<mgrwt>
<rscale>  4 0.25457044E+03</rscale>
<asrwt>0</asrwt>
<pdfrwt beam="1">  1       21 0.19154328E+00 0.25457044E+03</pdfrwt>
<pdfrwt beam="2">  1       21 0.19837407E-01 0.25457044E+03</pdfrwt>
<totfact> 0.33887136E+03</totfact>
</mgrwt>
</event>
<event>
 5    0  0.1283376E+001  0.2324558E+03  0.7546771E-02  0.1124923E+00
         21   -1    0    0  503  501  0.00000000000E+00  0.00000000000E+00  0.57178035214E+03  0.57178035214E+03  0.00000000000E+00 0.  1.
         21   -1    0    0  504  502 -0.00000000000E+00 -0.00000000000E+00 -0.49474941891E+03  0.49474941891E+03  0.00000000000E+00 0.  1.
         25    1    1    2    0    0 -0.23751330801E+03  0.37620129549E+02 -0.23894346978E+02  0.27207312518E+03  0.12500000000E+03 0.  0.
         21    1    1    2  503  502  0.18904911752E+03  0.27870935990E+02  0.42197684231E+03  0.46322868365E+03  0.00000000000E+00 0.  1.
         21    1    1    2  504  501  0.48464190491E+02 -0.65491065539E+02 -0.32105156210E+03  0.33122796222E+03  0.00000000000E+00 0.  1.
<mgrwt>
<rscale>  4 0.23245582E+03</rscale>
<asrwt>0</asrwt>
<pdfrwt beam="1">  1       21 0.87966208E-01 0.23245582E+03</pdfrwt>
<pdfrwt beam="2">  1       21 0.76115295E-01 0.23245582E+03</pdfrwt>
<totfact> 0.16455734E+03</totfact>
</mgrwt>
</event>
<event>
 5    0  0.1283376E+001  0.2613179E+03  0.7546771E-02  0.1106354E+00
         21   -1    0    0  504  501  0.00000000000E+00  0.00000000000E+00  0.16469175733E+03  0.16469175733E+03  0.00000000000E+00 0. -1.
         21   -1    0    0  501  502 -0.00000000000E+00 -0.00000000000E+00 -0.71934985312E+03  0.71934985312E+03  0.00000000000E+00 0.  1.
         25    1    1    2    0    0  0.12394330196E+03  0.19818945626E+03  0.10065480819E+02  0.26526838594E+03  0.12500000000E+03 0.  0.
         21    1    1    2  503  502 -0.37534761774E+02 -0.14340299418E+01 -0.98086179190E+02  0.10503243942E+03  0.00000000000E+00 0. -1.
         21    1    1    2  504  503 -0.86408540185E+02 -0.19675542632E+03 -0.46663739741E+03  0.51374078509E+03  0.00000000000E+00 0.  1.
<mgrwt>
<rscale>  4 0.26131785E+03</rscale>
<asrwt>0</asrwt>
<pdfrwt beam="1">  1       21 0.25337194E-01 0.26131785E+03</pdfrwt>
<pdfrwt beam="2">  1       21 0.11066921E+00 0.26131785E+03</pdfrwt>
<totfact> 0.90935277E+03</totfact>
</mgrwt>
</event>
<event>
 5    0  0.1283376E+001  0.2854096E+03  0.7546771E-02  0.1092770E+00
         21   -1    0    0  503  501  0.00000000000E+00  0.00000000000E+00  0.73416734693E+02  0.73416734693E+02  0.00000000000E+00 0.  1.
         21   -1    0    0  504  502 -0.00000000000E+00 -0.00000000000E+00 -0.24456031079E+04  0.24456031079E+04  0.00000000000E+00 0. -1.
         25    1    1    2    0    0 -0.97291622929E+02  0.23741945874E+03 -0.24779827168E+03  0.37797174859E+03  0.12500000000E+03 0.  0.
         21    1    1    2  503  502  0.70225412902E+00 -0.86969211588E+02 -0.77603483099E+03  0.78089320386E+03  0.00000000000E+00 0. -1.
         21    1    1    2  504  501  0.96589368800E+02 -0.15045024715E+03 -0.13483532705E+04  0.13601548902E+04  0.00000000000E+00 0. -1.
<mgrwt>
<rscale>  4 0.28540963E+03</rscale>
<asrwt>0</asrwt>
<pdfrwt beam="1">  1       21 0.11294883E-01 0.28540963E+03</pdfrwt>
<pdfrwt beam="2">  1       21 0.37624659E+00 0.28540963E+03</pdfrwt>
<totfact> 0.70913856E+02</totfact>
</mgrwt>
</event>
<event>
 5    0  0.1283376E+001  0.3126379E+03  0.7546771E-02  0.1079088E+00
         21   -1    0    0  504  501  0.00000000000E+00  0.00000000000E+00  0.30365643498E+03  0.30365643498E+03  0.00000000000E+00 0.  1.
         21   -1    0    0  501  502 -0.00000000000E+00 -0.00000000000E+00 -0.70299330322E+03  0.70299330322E+03  0.00000000000E+00 0. -1.
         25    1    1    2    0    0  0.46844984220E+02 -0.28270653551E+03  0.17662708365E+03  0.35908155682E+03  0.12500000000E+03 0.  0.
         21    1    1    2  503  502 -0.10567321745E+02  0.28288087293E+02 -0.12424156958E+03  0.12785871805E+03  0.00000000000E+00 0. -1.
         21    1    1    2  504  503 -0.36277662475E+02  0.25441844822E+03 -0.45172238231E+03  0.51970946332E+03  0.00000000000E+00 0. -1.
<mgrwt>
<rscale>  4 0.31263787E+03</rscale>
<asrwt>0</asrwt>
<pdfrwt beam="1">  1       21 0.46716375E-01 0.31263787E+03</pdfrwt>
<pdfrwt beam="2">  1       21 0.10815282E+00 0.31263787E+03</pdfrwt>
<totfact> 0.27477952E+03</totfact>
</mgrwt>
</event>
<event>
 5    0  0.1283376E+001  0.3421854E+03  0.7546771E-02  0.1065869E+00
         21   -1    0    0  503  501  0.00000000000E+00  0.00000000000E+00  0.39179142305E+03  0.39179142305E+03  0.00000000000E+00 0.  1.
         21   -1    0    0  504  502 -0.00000000000E+00 -0.00000000000E+00 -0.35874159641E+03  0.35874159641E+03  0.00000000000E+00 0.  1.
         25    1    1    2    0    0 -0.99586360024E+02 -0.29098548570E+03  0.61916343297E+02  0.33771086680E+03  0.12500000000E+03 0.  0.
         21    1    1    2  503  502  0.12798989943E+03  0.30463920340E+03  0.44078248488E+02  0.33336069144E+03  0.00000000000E+00 0.  1.
         21    1    1    2  504  501 -0.28403539407E+02 -0.13653717705E+02 -0.72944765143E+02  0.79461461223E+02  0.00000000000E+00 0.  1.
<mgrwt>
<rscale>  4 0.34218543E+03</rscale>
<asrwt>0</asrwt>
<pdfrwt beam="1">  1       21 0.60275603E-01 0.34218543E+03</pdfrwt>
<pdfrwt beam="2">  1       21 0.55191015E-01 0.34218543E+03</pdfrwt>
<totfact> 0.73174559E+03</totfact>
</mgrwt>
</event>
<event>
 5    0  0.1283376E+001  0.3054937E+03  0.7546771E-02  0.1082526E+00
         21   -1    0    0  504  501  0.00000000000E+00  0.00000000000E+00  0.24320049768E+03  0.24320049768E+03  0.00000000000E+00 0.  1.
         21   -1    0    0  503  502 -0.00000000000E+00 -0.00000000000E+00 -0.12532181739E+04  0.12532181739E+04  0.00000000000E+00 0.  1.
         25    1    1    2    0    0  0.19160611563E+03 -0.18208028304E+03 -0.13141180771E+03  0.32056231254E+03  0.12500000000E+03 0.  0.
         21    1    1    2  503  501 -0.22359132336E+03  0.18150974341E+03  0.85557573460E+01  0.28811814906E+03  0.00000000000E+00 0.  1.
         21    1    1    2  504  502  0.31985207731E+02  0.57053962799E+00 -0.88716162585E+03  0.88773820995E+03  0.00000000000E+00 0.  1.
<mgrwt>
<rscale>  4 0.30549368E+03</rscale>
<asrwt>0</asrwt>
<pdfrwt beam="1">  1       21 0.37415461E-01 0.30549368E+03</pdfrwt>
<pdfrwt beam="2">  1       21 0.19280280E+00 0.30549368E+03</pdfrwt>
<totfact> 0.93180671E+02</totfact>
</mgrwt>
</event>
<event>
 5    0  0.1283376E+001  0.2842646E+03  0.7546771E-02  0.1093382E+00
         21   -1    0    0  503  501  0.00000000000E+00  0.00000000000E+00  0.19401121128E+04  0.19401121128E+04  0.00000000000E+00 0.  1.
         21   -1    0    0  504  502 -0.00000000000E+00 -0.00000000000E+00 -0.24740444763E+03  0.24740444763E+03  0.00000000000E+00 0.  1.
         25    1    1    2    0    0  0.15261170872E+03 -0.13389999908E+03 -0.50167416726E+02  0.24364177206E+03  0.12500000000E+03 0.  0.
         21    1    1    2  503  502  0.62823519545E+00 -0.74717570103E+02 -0.76055127740E+02  0.10661844314E+03  0.00000000000E+00 0.  1.
         21    1    1    2  504  501 -0.15323994392E+03  0.20861756919E+03  0.18189302096E+04  0.18372563452E+04  0.00000000000E+00 0.  1.
<mgrwt>
<rscale>  4 0.28426462E+03</rscale>
<asrwt>0</asrwt>
<pdfrwt beam="1">  1       21 0.29847878E+00 0.28426462E+03</pdfrwt>
<pdfrwt beam="2">  1       21 0.38062224E-01 0.28426462E+03</pdfrwt>
<totfact> 0.20660128E+02</totfact>
</mgrwt>
</event>
<event>
 5    0  0.1283376E+001  0.2391438E+03  0.7546771E-02  0.1120365E+00
         21   -1    0    0  504  501  0.00000000000E+00  0.00000000000E+00  0.23888514226E+04  0.23888514226E+04  0.00000000000E+00 0. -1.
         21   -1    0    0  501  502 -0.00000000000E+00 -0.00000000000E+00 -0.42139819683E+02  0.42139819683E+02  0.00000000000E+00 0. -1.
         25    1    1    2    0    0 -0.12307218938E+03 -0.18261081767E+03  0.15707856578E+04  0.15910644415E+04  0.12500000000E+03 0.  0.
         21    1    1    2  503  502 -0.45232511332E+01  0.45699841853E+02  0.45220745782E+01  0.46145254411E+02  0.00000000000E+00 0.  1.
         21    1    1    2  504  503  0.12759544052E+03  0.13691097582E+03  0.77140387057E+03  0.79378154632E+03  0.00000000000E+00 0. -1.
<mgrwt>
<rscale>  4 0.23914376E+03</rscale>
<asrwt>0</asrwt>
<pdfrwt beam="1">  1       21 0.36751550E+00 0.23914376E+03</pdfrwt>
<pdfrwt beam="2">  1       21 0.64830510E-02 0.23914376E+03</pdfrwt>
<totfact> 0.22397196E+03</totfact>
</mgrwt>
</event>
<event>
 5    0  0.1283376E+001  0.2574436E+03  0.7546771E-02  0.1108689E+00
         21   -1    0    0  504  501  0.00000000000E+00  0.00000000000E+00  0.38551832595E+02  0.38551832595E+02  0.00000000000E+00 0.  1.
         21   -1    0    0  501  502 -0.00000000000E+00 -0.00000000000E+00 -0.18302849905E+04  0.18302849905E+04  0.00000000000E+00 0.  1.
         25    1    1    2    0    0  0.82046601416E+02  0.20236005807E+03 -0.62433359022E+03  0.67312604301E+03  0.12500000000E+03 0.  0.
         21    1    1    2  503  502 -0.50379802503E+01  0.21314926713E+02 -0.86778559288E+02  0.89499864233E+02  0.00000000000E+00 0.  1.
         21    1    1    2  504  503 -0.77008621166E+02 -0.22367498479E+03 -0.10806210084E+04  0.11062109159E+04  0.00000000000E+00 0.  1.
<mgrwt>
<rscale>  4 0.25744364E+03</rscale>
<asrwt>0</asrwt>
<pdfrwt beam="1">  1       21 0.59310502E-02 0.25744364E+03</pdfrwt>
<pdfrwt beam="2">  1       21 0.28158235E+00 0.25744364E+03</pdfrwt>
<totfact> 0.82573824E+03</totfact>
</mgrwt>
</event>
<event>
 5    0  0.1283376E+001  0.4356328E+03  0.7546771E-02  0.1032095E+00
         21   -1    0    0  503  501  0.00000000000E+00  0.00000000000E+00  0.93407992814E+03  0.93407992814E+03  0.00000000000E+00 0. -1.
         21   -1    0    0  504  502 -0.00000000000E+00 -0.00000000000E+00 -0.36304825873E+03  0.36304825873E+03  0.00000000000E+00 0. -1.
         25    1    1    2    0    0  0.84851055241E+02  0.41835501992E+03  0.62359270118E+03  0.76597224573E+03  0.12500000000E+03 0.  0.
         21    1    1    2  503  502 -0.11345988966E+03 -0.17562761923E+02 -0.59439280508E+02  0.12928505419E+03  0.00000000000E+00 0. -1.
         21    1    1    2  504  501  0.28608834422E+02 -0.40079225799E+03  0.68782487370E+01  0.40187088695E+03  0.00000000000E+00 0. -1.
<mgrwt>
<rscale>  4 0.43563280E+03</rscale>
<asrwt>0</asrwt>
<pdfrwt beam="1">  1       21 0.14370460E+00 0.43563280E+03</pdfrwt>
<pdfrwt beam="2">  1       21 0.55853578E-01 0.43563280E+03</pdfrwt>
<totfact> 0.85642528E+02</totfact>
</mgrwt>
</event>
<event>
 5    0  0.1283376E+001  0.3347931E+03  0.7546771E-02  0.1069036E+00
         21   -1    0    0  503  501  0.00000000000E+00  0.00000000000E+00  0.13434228463E+04  0.13434228463E+04  0.00000000000E+00 0. -1.
         21   -1    0    0  504  502 -0.00000000000E+00 -0.00000000000E+00 -0.15400339934E+04  0.15400339934E+04  0.00000000000E+00 0. -1.
         25    1    1    2    0    0  0.72710894347E+02 -0.29957647830E+03  0.12716712586E+04  0.13144602430E+04  0.12500000000E+03 0.  0.
         21    1    1    2  503  502 -0.12444659826E+03  0.39338308535E+03 -0.89148584625E+03  0.98233610425E+03  0.00000000000E+00 0. -1.
         21    1    1    2  504  501  0.51735703910E+02 -0.93806607050E+02 -0.57679655933E+03  0.58666049249E+03  0.00000000000E+00 0. -1.
<mgrwt>
<rscale>  4 0.33479308E+03</rscale>
<asrwt>0</asrwt>
<pdfrwt beam="1">  1       21 0.20668044E+00 0.33479308E+03</pdfrwt>
<pdfrwt beam="2">  1       21 0.23692831E+00 0.33479308E+03</pdfrwt>
<totfact> 0.78644821E+00</totfact>
</mgrwt>
</event>
