<event>
 5    0  0.1911311E+001  0.3668502E+03  0.7546771E-02  0.1055904E+00
         21   -1    0    0  503  501  0.00000000000E+00  0.00000000000E+00  0.41666746251E+02  0.41666746251E+02  0.00000000000E+00 0. -1.
         21   -1    0    0  501  502 -0.00000000000E+00 -0.00000000000E+00 -0.38574251536E+04  0.38574251536E+04  0.00000000000E+00 0. -1.
         25    1    1    2    0    0 -0.12965613055E+03  0.29434501558E+03 -0.21766117558E+04  0.22037952345E+04  0.12500000000E+03 0.  0.
         21    1    1    2  503  504 -0.27678349097E+02  0.26561248828E+02 -0.49837198100E+03  0.49984619873E+03  0.00000000000E+00 0.  1.
         21    1    1    2  504  502  0.15733447965E+03 -0.32090626441E+03 -0.11407746706E+04  0.11954504666E+04  0.00000000000E+00 0. -1.
<mgrwt>
<rscale>  4 0.36685021E+03</rscale>
<asrwt>0</asrwt>
<pdfrwt beam="1">  1       21 0.64102661E-02 0.36685021E+03</pdfrwt>
<pdfrwt beam="2">  1       21 0.59345026E+00 0.36685021E+03</pdfrwt>
<totfact> 0.54360763E+01</totfact>
</mgrwt>
</event>
<event>
 5    0  0.1911311E+001  0.4201228E+03  0.7546771E-02  0.1037026E+00
         21   -1    0    0  504  501  0.00000000000E+00  0.00000000000E+00  0.77688644056E+03  0.77688644056E+03  0.00000000000E+00 0.  1.
         21   -1    0    0  503  502 -0.00000000000E+00 -0.00000000000E+00 -0.13001125488E+04  0.13001125488E+04  0.00000000000E+00 0.  1.
         25    1    1    2    0    0 -0.63816922599E+03 -0.89562559102E+02 -0.13758688297E+03  0.67069856371E+03  0.12500000000E+03 0.  0.
         21    1    1    2  503  501  0.31541446280E+03 -0.79380033694E+02 -0.79461400728E+03  0.85860287308E+03  0.00000000000E+00 0.  1.
         21    1    1    2  504  502  0.32275476320E+03  0.16894259280E+03  0.40897478198E+03  0.54769755260E+03  0.00000000000E+00 0.  1.
<mgrwt>
<rscale>  4 0.42012276E+03</rscale>
<asrwt>0</asrwt>
<pdfrwt beam="1">  1       21 0.11952099E+00 0.42012276E+03</pdfrwt>
<pdfrwt beam="2">  1       21 0.20001732E+00 0.42012276E+03</pdfrwt>
<totfact> 0.57262285E+01</totfact>
</mgrwt>
</event>
<event>
 5    0  0.1911311E+001  0.2596232E+03  0.7546771E-02  0.1107370E+00
         21   -1    0    0  504  501  0.00000000000E+00  0.00000000000E+00  0.14826940554E+03  0.14826940554E+03  0.00000000000E+00 0.  1.
         21   -1    0    0  501  502 -0.00000000000E+00 -0.00000000000E+00 -0.45451156658E+03  0.45451156658E+03  0.00000000000E+00 0.  1.
         25    1    1    2    0    0  0.24157227597E+02 -0.22933476100E+03 -0.10956176197E+03  0.28426534072E+03  0.12500000000E+03 0.  0.
         21    1    1    2  503  502 -0.22745243247E+00  0.22474517452E+03 -0.16635868183E+03  0.27961698129E+03  0.00000000000E+00 0.  1.
         21    1    1    2  504  503 -0.23929775165E+02  0.45895864841E+01 -0.30321717239E+02  0.38898650103E+02  0.00000000000E+00 0.  1.
<mgrwt>
<rscale>  4 0.25962318E+03</rscale>
<asrwt>0</asrwt>
<pdfrwt beam="1">  1       21 0.22810678E-01 0.25962318E+03</pdfrwt>
<pdfrwt beam="2">  1       21 0.69924857E-01 0.25962318E+03</pdfrwt>
<totfact> 0.32409376E+04</totfact>
</mgrwt>
</event>
<event>
 5    0  0.1911311E+001  0.2723625E+03  0.7546771E-02  0.1099935E+00
         21   -1    0    0  503  501  0.00000000000E+00  0.00000000000E+00  0.51509391145E+03  0.51509391145E+03  0.00000000000E+00 0.  1.
         21   -1    0    0  504  502 -0.00000000000E+00 -0.00000000000E+00 -0.19233251397E+03  0.19233251397E+03  0.00000000000E+00 0.  1.
         25    1    1    2    0    0 -0.11769159508E+03 -0.22144345391E+03  0.65970282107E+01  0.28028028045E+03  0.12500000000E+03 0.  0.
         21    1    1    2  503  502  0.92956138585E+02  0.20776877216E+03  0.18599488396E+03  0.29394353751E+03  0.00000000000E+00 0.  1.
         21    1    1    2  504  501  0.24735456492E+02  0.13674681749E+02  0.13016948530E+03  0.13320260746E+03  0.00000000000E+00 0.  1.
<mgrwt>
<rscale>  4 0.27236252E+03</rscale>
<asrwt>0</asrwt>
<pdfrwt beam="1">  1       21 0.79245216E-01 0.27236252E+03</pdfrwt>
<pdfrwt beam="2">  1       21 0.29589618E-01 0.27236252E+03</pdfrwt>
<totfact> 0.14710295E+04</totfact>
</mgrwt>
</event>
